Protein in INSANE! Membrane UpperLeaflet>POPC=1.0 LowerLeaflet>POPC=1.0
248776
    1AU     AUC    1   7.484  36.221   7.517
    1AU     AUC    2   7.736  36.219   7.358
    1AU     AUC    3   7.724  36.218   7.693
    1AU     AUC    4   7.220  36.218   7.355
    1AU     AUC    5   7.237  36.263   7.678
    1AU     AUC    6   7.323  36.479   7.477
    1AU     AUC    7   7.659  36.481   7.486
    1AU     AUC    8   7.313  35.969   7.533
    1AU     AUC    9   7.643  35.951   7.541
    1AU     AUC   10   7.478  36.070   7.785
    1AU     AUC   11   7.486  36.413   7.752
    1AU     AUC   12   7.484  36.038   7.272
    1AU     AUC   13   7.498  36.342   7.247
    1AU     AUC   14   8.054  36.212   7.212
    1AU     AUC   15   8.050  36.200   7.557
    1AU     AUC   16   8.007  36.202   7.904
    1AU     AUC   17   6.921  36.177   7.210
    1AU     AUC   18   6.911  36.255   7.532
    1AU     AUC   19   6.937  36.316   7.848
    1AU     AUC   20   7.164  36.786   7.412
    1AU     AUC   21   7.521  36.774   7.404
    1AU     AUC   22   7.853  36.761   7.451
    1AU     AUC   23   7.122  35.677   7.548
    1AU     AUC   24   7.467  35.656   7.534
    1AU     AUC   25   7.820  35.653   7.551
    1AU     AUC   26   7.443  35.911   8.092
    1AU     AUC   27   7.462  36.262   8.081
    1AU     AUC   28   7.516  36.620   8.036
    1AU     AUC   29   7.528  35.852   6.991
    1AU     AUC   30   7.479  36.177   6.938
    1AU     AUC   31   7.462  36.490   6.925
    1AU     AUC   32   7.713  36.022   8.007
    1AU     AUC   33   7.755  36.379   7.988
    1AU     AUC   34   7.800  36.061   7.060
    1AU     AUC   35   7.752  36.357   7.066
    1AU     AUC   36   7.187  36.146   7.991
    1AU     AUC   37   7.223  36.496   7.933
    1AU     AUC   38   7.211  35.994   7.088
    1AU     AUC   39   7.167  36.314   7.050
    1AU     AUC   40   7.971  36.487   7.354
    1AU     AUC   41   7.919  36.468   7.689
    1AU     AUC   42   7.024  36.489   7.341
    1AU     AUC   43   7.069  36.580   7.664
    1AU     AUC   44   7.953  35.948   7.410
    1AU     AUC   45   7.889  35.898   7.747
    1AU     AUC   46   7.022  35.909   7.375
    1AU     AUC   47   7.044  35.997   7.710
    1AU     AUC   48   7.382  36.730   7.730
    1AU     AUC   49   7.689  36.688   7.759
    1AU     AUC   50   7.291  35.792   7.817
    1AU     AUC   51   7.592  35.735   7.809
    1AU     AUC   52   7.296  36.635   7.163
    1AU     AUC   53   7.660  36.661   7.187
    1AU     AUC   54   7.338  35.748   7.255
    1AU     AUC   55   7.708  35.795   7.268
    1AU    AUSL   56   7.968  36.133   8.308
    1AU    AUSL   57   7.713  35.747   8.217
    1AU     AUL   58   8.003  35.780   8.406
    1AU    AUSL   59   7.547  36.076   8.443
    1AU    AUSL   60   7.310  36.476   8.421
    1AU     AUL   61   7.524  36.371   8.713
    1AU    AUSL   62   7.654  36.430   8.176
    1AU    AUSL   63   8.108  36.504   8.125
    1AU     AUL   64   7.914  36.438   8.446
    1AU    AUSL   65   7.951  36.255   6.816
    1AU    AUSL   66   7.763  36.626   6.964
    1AU     AUL   67   8.039  36.578   6.704
    1AU    AUSL   68   7.750  35.931   6.596
    1AU    AUSL   69   8.253  36.009   7.002
    1AU     AUL   70   8.119  36.061   6.649
    1AU    AUSL   71   7.565  36.385   6.662
    1AU    AUSL   72   7.381  35.999   6.806
    1AU     AUL   73   7.495  36.055   6.468
    1AU    AUSL   74   6.925  36.433   8.195
    1AU    AUSL   75   7.286  36.738   8.077
    1AU     AUL   76   7.102  36.709   8.385
    1AU    AUSL   77   7.229  36.124   8.163
    1AU    AUSL   78   6.806  36.002   8.120
    1AU     AUL   79   6.743  36.220   8.264
    1AU    AUSL   80   6.942  35.979   6.778
    1AU    AUSL   81   7.183  35.648   6.953
    1AU     AUL   82   7.236  35.695   6.641
    1AU    AUSL   83   7.133  36.345   6.635
    1AU    AUSL   84   6.847  36.342   7.008
    1AU     AUL   85   6.733  36.205   6.748
    1AU    AUSL   86   8.264  36.706   7.499
    1AU    AUSL   87   8.121  36.450   7.159
    1AU     AUL   88   8.385  36.570   7.044
    1AU    AUSL   89   8.454  36.299   7.398
    1AU    AUSL   90   8.399  35.997   7.782
    1AU     AUL   91   8.694  36.071   7.583
    1AU    AUSL   92   8.168  36.349   7.735
    1AU    AUSL   93   7.931  36.734   7.780
    1AU     AUL   94   8.273  36.700   7.859
    1AU    AUSL   95   6.914  36.865   7.451
    1AU    AUSL   96   6.944  36.632   7.818
    1AU     AUL   97   6.639  36.878   7.651
    1AU    AUSL   98   6.727  36.464   7.399
    1AU    AUSL   99   6.864  36.773   7.038
    1AU     AUL  100   6.628  36.693   7.189
    1AU    AUSL  101   6.567  36.444   7.826
    1AU    AUSL  102   6.551  36.075   7.353
    1AU     AUL  103   6.397  36.412   7.508
    1AU    AUSL  104   8.172  35.646   7.625
    1AU    AUSL  105   7.996  35.933   7.932
    1AU     AUL  106   8.297  35.834   8.018
    1AU    AUSL  107   8.135  36.019   7.410
    1AU    AUSL  108   8.144  35.614   7.191
    1AU     AUL  109   8.388  35.825   7.298
    1AU    AUSL  110   6.731  35.707   7.566
    1AU    AUSL  111   6.913  35.909   7.196
    1AU     AUL  112   6.551  35.788   7.241
    1AU    AUSL  113   6.811  36.116   7.707
    1AU    AUSL  114   7.047  35.750   7.857
    1AU     AUL  115   6.723  35.735   7.905
    1AU    AUSL  116   7.560  37.025   7.896
    1AU    AUSL  117   7.106  37.042   7.803
    1AU     AUL  118   7.325  37.079   8.156
    1AU    AUSL  119   7.390  36.922   7.511
    1AU    AUSL  120   7.636  37.039   7.164
    1AU     AUL  121   7.383  37.271   7.456
    1AU    AUSL  122   7.829  37.075   7.549
    1AU    AUSL  123   7.802  36.829   8.189
    1AU     AUL  124   7.945  37.063   7.910
    1AU    AUSL  125   7.414  35.541   7.978
    1AU    AUSL  126   7.840  35.525   7.864
    1AU     AUL  127   7.596  35.446   8.232
    1AU    AUSL  128   7.112  35.362   7.693
    1AU    AUSL  129   7.184  35.727   8.288
    1AU     AUL  130   7.087  35.433   8.049
    1AU    AUSL  131   7.556  35.277   7.659
    1AU    AUSL  132   7.345  35.530   7.362
    1AU     AUL  133   7.250  35.162   7.462
    1AU    AUSL  134   7.474  36.874   6.769
    1AU    AUSL  135   8.029  36.881   7.189
    1AU     AUL  136   7.805  36.970   6.857
    1AU    AUSL  137   7.212  37.001   7.124
    1AU    AUSL  138   7.244  36.574   6.970
    1AU     AUL  139   7.148  36.854   6.772
    1AU    AUSL  140   7.581  35.483   6.982
    1AU    AUSL  141   6.935  35.468   7.268
    1AU     AUL  142   7.241  35.334   7.028
    1AU    AUSL  143   7.780  35.519   7.382
    1AU    AUSL  144   7.818  35.843   7.007
    1AU     AUL  145   7.908  35.499   6.973
    1AU       S  146   8.042  35.332   8.261
    1AU     LIG  147   8.297  34.948   8.345
    1AU     LIG  148   8.274  34.511   8.520
    1AU     LIG  149   8.347  34.150   8.798
    1AU       S  150   7.909  36.069   8.757
    1AU     LIG  151   8.273  36.328   8.789
    1AU     LIG  152   8.432  36.371   9.219
    1AU     LIG  153   8.325  36.144   9.635
    1AU       S  154   7.555  35.899   8.641
    1AU     LIG  155   7.528  35.959   9.094
    1AU     LIG  156   7.873  35.925   9.429
    1AU     LIG  157   8.114  35.668   9.754
    1AU       S  158   7.085  36.270   8.622
    1AU     LIG  159   7.132  36.299   9.079
    1AU     LIG  160   6.804  36.340   9.383
    1AU     LIG  161   6.656  36.428   9.819
    1AU       S  162   7.557  36.831   8.571
    1AU     LIG  163   7.756  37.191   8.725
    1AU     LIG  164   8.136  37.101   8.946
    1AU     LIG  165   8.451  36.815   8.837
    1AU       S  166   8.284  36.705   8.337
    1AU     LIG  167   8.719  36.716   8.418
    1AU     LIG  168   8.922  37.017   8.719
    1AU     LIG  169   9.065  37.356   9.006
    1AU       S  170   7.896  36.355   6.326
    1AU     LIG  171   8.331  36.376   6.295
    1AU     LIG  172   8.447  35.969   6.133
    1AU     LIG  173   8.289  35.572   5.944
    1AU       S  174   8.262  36.979   6.802
    1AU     LIG  175   8.165  37.261   6.474
    1AU     LIG  176   8.311  37.506   6.113
    1AU     LIG  177   8.669  37.632   5.882
    1AU       S  178   8.469  35.794   6.838
    1AU     LIG  179   8.717  35.747   6.510
    1AU     LIG  180   8.587  35.344   6.351
    1AU     LIG  181   8.666  34.902   6.423
    1AU       S  182   7.881  36.164   6.248
    1AU     LIG  183   7.817  35.769   6.100
    1AU     LIG  184   7.782  35.609   5.677
    1AU     LIG  185   7.781  35.846   5.282
    1AU       S  186   7.066  35.999   6.312
    1AU     LIG  187   7.302  35.832   5.987
    1AU     LIG  188   7.310  35.778   5.541
    1AU     LIG  189   6.994  35.849   5.229
    1AU       S  190   7.650  36.498   6.427
    1AU     LIG  191   7.425  36.334   6.052
    1AU     LIG  192   7.651  36.123   5.732
    1AU     LIG  193   8.098  36.021   5.732
    1AU       S  194   6.879  36.405   8.663
    1AU     LIG  195   6.600  36.128   8.782
    1AU     LIG  196   6.541  35.931   9.169
    1AU     LIG  197   6.551  35.959   9.624
    1AU       S  198   6.840  37.029   8.170
    1AU     LIG  199   6.656  37.163   8.535
    1AU     LIG  200   6.404  37.079   8.897
    1AU     LIG  201   6.132  37.390   9.094
    1AU       S  202   6.702  35.774   8.400
    1AU     LIG  203   6.283  35.672   8.168
    1AU     LIG  204   6.012  35.312   8.087
    1AU     LIG  205   5.698  35.079   8.389
    1AU       S  206   7.079  36.096   8.566
    1AU     LIG  207   7.017  35.834   8.918
    1AU     LIG  208   7.019  35.859   9.363
    1AU     LIG  209   7.048  36.070   9.764
    1AU       S  210   6.876  35.905   6.429
    1AU     LIG  211   6.752  35.652   6.102
    1AU     LIG  212   6.818  35.875   5.720
    1AU     LIG  213   6.596  36.152   5.416
    1AU       S  214   6.847  35.468   6.784
    1AU     LIG  215   6.584  35.190   6.509
    1AU     LIG  216   6.477  35.147   6.050
    1AU     LIG  217   6.123  34.935   5.807
    1AU       S  218   6.555  36.622   6.699
    1AU     LIG  219   6.256  36.933   6.807
    1AU     LIG  220   6.128  37.306   6.582
    1AU     LIG  221   6.160  37.446   6.132
    1AU       S  222   7.072  36.279   6.413
    1AU     LIG  223   6.686  36.337   6.224
    1AU     LIG  224   6.787  36.406   5.812
    1AU     LIG  225   7.132  36.259   5.552
    1AU       S  226   8.455  37.010   7.037
    1AU     LIG  227   8.676  36.778   6.646
    1AU     LIG  228   8.722  36.974   6.213
    1AU     LIG  229   9.017  37.262   5.969
    1AU       S  230   8.543  36.770   7.476
    1AU     LIG  231   8.811  37.014   7.724
    1AU     LIG  232   9.250  37.100   7.604
    1AU     LIG  233   9.554  37.017   7.259
    1AU       S  234   8.695  36.518   7.427
    1AU     LIG  235   8.983  36.624   7.117
    1AU     LIG  236   9.448  36.535   7.120
    1AU     LIG  237   9.906  36.623   7.290
    1AU       S  238   8.643  35.638   7.783
    1AU     LIG  239   8.998  35.519   8.023
    1AU     LIG  240   9.435  35.423   7.930
    1AU     LIG  241   9.534  35.259   7.527
    1AU       S  242   8.270  36.963   8.234
    1AU     LIG  243   8.660  37.207   8.298
    1AU     LIG  244   8.951  37.512   8.512
    1AU     LIG  245   8.899  37.820   8.861
    1AU       S  246   8.670  36.511   7.758
    1AU     LIG  247   9.123  36.602   7.737
    1AU     LIG  248   9.567  36.690   7.679
    1AU     LIG  249   9.956  36.741   7.915
    1AU       S  250   6.742  36.845   8.096
    1AU     LIG  251   6.490  36.694   8.441
    1AU     LIG  252   6.072  36.885   8.531
    1AU     LIG  253   5.734  37.210   8.451
    1AU       S  254   6.857  37.196   7.369
    1AU     LIG  255   6.570  37.525   7.308
    1AU     LIG  256   6.249  37.434   7.065
    1AU     LIG  257   5.959  37.091   7.192
    1AU       S  258   6.349  36.344   7.035
    1AU     LIG  259   5.915  36.309   7.087
    1AU     LIG  260   5.739  36.483   7.431
    1AU     LIG  261   5.529  36.874   7.391
    1AU       S  262   6.737  37.041   6.884
    1AU     LIG  263   6.664  37.463   6.756
    1AU     LIG  264   6.400  37.731   6.499
    1AU     LIG  265   6.115  37.991   6.240
    1AU       S  266   6.335  35.965   7.627
    1AU     LIG  267   6.001  35.865   7.325
    1AU     LIG  268   5.558  35.991   7.343
    1AU     LIG  269   5.295  36.120   6.982
    1AU       S  270   6.419  36.479   7.996
    1AU     LIG  271   5.971  36.490   8.164
    1AU     LIG  272   5.575  36.771   8.184
    1AU     LIG  273   5.508  37.197   7.976
    1AU       S  274   8.334  35.503   7.652
    1AU     LIG  275   8.411  35.213   7.384
    1AU     LIG  276   8.795  35.083   7.451
    1AU     LIG  277   9.113  35.053   7.779
    1AU       S  278   8.209  35.407   8.123
    1AU     LIG  279   8.593  35.180   7.978
    1AU     LIG  280   8.934  35.047   8.243
    1AU     LIG  281   9.148  34.819   8.568
    1AU       S  282   8.633  35.591   7.597
    1AU     LIG  283   8.820  35.560   7.210
    1AU     LIG  284   9.213  35.363   7.130
    1AU     LIG  285   9.669  35.230   7.033
    1AU       S  286   8.389  35.507   6.945
    1AU     LIG  287   8.611  35.100   6.929
    1AU     LIG  288   8.452  34.682   6.840
    1AU     LIG  289   8.547  34.412   6.450
    1AU       S  290   6.703  35.592   6.858
    1AU     LIG  291   6.407  35.662   6.535
    1AU     LIG  292   6.101  35.363   6.326
    1AU     LIG  293   5.738  35.085   6.175
    1AU       S  294   6.327  35.744   7.670
    1AU     LIG  295   6.205  35.382   7.496
    1AU     LIG  296   5.875  35.324   7.203
    1AU     LIG  297   5.477  35.477   7.305
    1AU       S  298   6.736  35.563   8.332
    1AU     LIG  299   6.610  35.223   8.055
    1AU     LIG  300   6.373  34.822   8.061
    1AU     LIG  301   6.093  34.669   8.392
    1AU       S  302   6.372  36.017   7.804
    1AU     LIG  303   5.897  36.077   7.788
    1AU     LIG  304   5.746  35.650   7.722
    1AU     LIG  305   5.497  35.414   8.022
    1AU       S  306   6.985  37.209   7.847
    1AU     LIG  307   6.559  37.326   7.843
    1AU     LIG  308   6.265  37.211   8.168
    1AU     LIG  309   6.187  37.411   8.571
    1AU       S  310   7.585  37.343   7.868
    1AU     LIG  311   7.695  37.493   8.259
    1AU     LIG  312   7.618  37.962   8.266
    1AU     LIG  313   7.390  38.364   8.380
    1AU       S  314   7.687  37.541   7.748
    1AU     LIG  315   7.261  37.681   7.942
    1AU     LIG  316   7.164  38.071   8.020
    1AU     LIG  317   7.345  38.421   7.853
    1AU       S  318   7.564  37.341   7.025
    1AU     LIG  319   7.480  37.736   7.271
    1AU     LIG  320   7.562  38.196   7.335
    1AU     LIG  321   7.841  38.458   7.105
    1AU       S  322   8.013  36.926   8.375
    1AU     LIG  323   8.199  37.358   8.509
    1AU     LIG  324   8.552  37.374   8.809
    1AU     LIG  325   8.639  37.138   9.201
    1AU       S  326   7.850  37.351   7.531
    1AU     LIG  327   7.949  37.837   7.457
    1AU     LIG  328   7.778  38.130   7.788
    1AU     LIG  329   7.798  38.494   8.072
    1AU       S  330   7.395  35.064   8.052
    1AU     LIG  331   7.807  34.856   8.159
    1AU     LIG  332   7.793  34.481   8.385
    1AU     LIG  333   7.664  34.092   8.586
    1AU       S  334   7.973  35.363   7.960
    1AU     LIG  335   8.154  35.019   7.795
    1AU     LIG  336   8.253  34.606   7.977
    1AU     LIG  337   8.273  34.182   8.114
    1AU       S  338   7.193  35.002   7.893
    1AU     LIG  339   7.332  34.601   7.764
    1AU     LIG  340   7.327  34.376   8.119
    1AU     LIG  341   6.974  34.246   8.356
    1AU       S  342   6.991  35.636   8.465
    1AU     LIG  343   6.894  35.177   8.573
    1AU     LIG  344   6.477  34.967   8.563
    1AU     LIG  345   6.214  34.741   8.888
    1AU       S  346   7.646  35.085   7.242
    1AU     LIG  347   7.447  34.691   7.210
    1AU     LIG  348   7.591  34.354   6.935
    1AU     LIG  349   7.852  33.995   7.011
    1AU       S  350   7.561  35.097   7.814
    1AU     LIG  351   7.783  34.754   7.608
    1AU     LIG  352   7.800  34.411   7.879
    1AU     LIG  353   7.769  34.063   8.100
    1AU       S  354   7.424  37.247   6.739
    1AU     LIG  355   7.362  37.715   6.748
    1AU     LIG  356   7.609  38.087   6.828
    1AU     LIG  357   7.847  38.436   6.598
    1AU       S  358   8.184  37.064   7.152
    1AU     LIG  359   8.288  37.487   6.924
    1AU     LIG  360   8.556  37.644   6.549
    1AU     LIG  361   8.922  37.800   6.290
    1AU       S  362   7.215  37.277   7.001
    1AU     LIG  363   6.998  37.696   7.101
    1AU     LIG  364   7.112  38.163   7.094
    1AU     LIG  365   7.374  38.544   6.915
    1AU       S  366   6.773  36.672   6.598
    1AU     LIG  367   6.578  37.059   6.407
    1AU     LIG  368   6.684  37.446   6.193
    1AU     LIG  369   6.494  37.766   5.912
    1AU       S  370   6.766  35.389   7.089
    1AU     LIG  371   6.348  35.249   7.000
    1AU     LIG  372   6.097  35.015   6.712
    1AU     LIG  373   6.168  34.834   6.321
    1AU       S  374   7.665  35.124   7.075
    1AU     LIG  375   7.797  34.809   6.789
    1AU     LIG  376   7.682  34.523   6.463
    1AU     LIG  377   7.728  34.070   6.499
    1AU       S  378   7.899  35.208   7.349
    1AU     LIG  379   8.104  34.879   7.183
    1AU     LIG  380   8.056  34.473   7.129
    1AU     LIG  381   8.092  34.338   6.711
    1AU       S  382   8.246  35.618   6.694
    1AU     LIG  383   8.168  35.154   6.662
    1AU     LIG  384   8.160  34.771   6.415
    1AU     LIG  385   8.091  34.388   6.182
    2AU     AUC  386   9.421   7.343   7.519
    2AU     AUC  387   9.670   7.346   7.350
    2AU     AUC  388   9.665   7.337   7.685
    2AU     AUC  389   9.154   7.344   7.367
    2AU     AUC  390   9.179   7.383   7.690
    2AU     AUC  391   9.259   7.603   7.489
    2AU     AUC  392   9.593   7.602   7.486
    2AU     AUC  393   9.252   7.092   7.537
    2AU     AUC  394   9.580   7.072   7.533
    2AU     AUC  395   9.423   7.189   7.786
    2AU     AUC  396   9.429   7.533   7.758
    2AU     AUC  397   9.413   7.162   7.271
    2AU     AUC  398   9.430   7.469   7.252
    2AU     AUC  399   9.986   7.346   7.192
    2AU     AUC  400   9.987   7.323   7.527
    2AU     AUC  401   9.957   7.317   7.883
    2AU     AUC  402   8.852   7.305   7.230
    2AU     AUC  403   8.849   7.377   7.553
    2AU     AUC  404   8.885   7.431   7.872
    2AU     AUC  405   9.097   7.910   7.434
    2AU     AUC  406   9.454   7.900   7.417
    2AU     AUC  407   9.788   7.884   7.453
    2AU     AUC  408   9.059   6.797   7.557
    2AU     AUC  409   9.403   6.776   7.535
    2AU     AUC  410   9.752   6.771   7.535
    2AU     AUC  411   9.396   7.031   8.093
    2AU     AUC  412   9.419   7.379   8.086
    2AU     AUC  413   9.465   7.737   8.047
    2AU     AUC  414   9.447   6.973   6.986
    2AU     AUC  415   9.391   7.305   6.946
    2AU     AUC  416   9.384   7.622   6.939
    2AU     AUC  417   9.668   7.142   7.996
    2AU     AUC  418   9.705   7.495   7.985
    2AU     AUC  419   9.717   7.183   7.053
    2AU     AUC  420   9.684   7.492   7.070
    2AU     AUC  421   9.138   7.262   8.001
    2AU     AUC  422   9.172   7.612   7.949
    2AU     AUC  423   9.137   7.121   7.097
    2AU     AUC  424   9.091   7.442   7.065
    2AU     AUC  425   9.917   7.612   7.341
    2AU     AUC  426   9.858   7.583   7.682
    2AU     AUC  427   8.956   7.613   7.364
    2AU     AUC  428   9.009   7.699   7.687
    2AU     AUC  429   9.881   7.067   7.382
    2AU     AUC  430   9.834   7.017   7.724
    2AU     AUC  431   8.959   7.032   7.386
    2AU     AUC  432   8.989   7.118   7.721
    2AU     AUC  433   9.321   7.850   7.745
    2AU     AUC  434   9.629   7.809   7.764
    2AU     AUC  435   9.236   6.911   7.823
    2AU     AUC  436   9.537   6.856   7.804
    2AU     AUC  437   9.225   7.763   7.180
    2AU     AUC  438   9.592   7.789   7.195
    2AU     AUC  439   9.269   6.868   7.258
    2AU     AUC  440   9.634   6.913   7.255
    2AU    AUSL  441   9.937   7.253   8.282
    2AU    AUSL  442   9.668   6.878   8.198
    2AU     AUL  443   9.973   6.900   8.372
    2AU    AUSL  444   9.525   7.196   8.449
    2AU    AUSL  445   9.280   7.591   8.437
    2AU     AUL  446   9.517   7.487   8.719
    2AU    AUSL  447   9.613   7.546   8.175
    2AU    AUSL  448  10.063   7.633   8.104
    2AU     AUL  449   9.893   7.556   8.434
    2AU    AUSL  450   9.843   7.376   6.856
    2AU    AUSL  451   9.693   7.766   6.973
    2AU     AUL  452   9.901   7.710   6.676
    2AU    AUSL  453   9.663   7.084   6.586
    2AU    AUSL  454  10.170   7.121   6.962
    2AU     AUL  455  10.036   7.238   6.642
    2AU    AUSL  456   9.474   7.523   6.675
    2AU    AUSL  457   9.295   7.130   6.806
    2AU     AUL  458   9.397   7.187   6.478
    2AU    AUSL  459   8.890   7.546   8.221
    2AU    AUSL  460   9.236   7.851   8.093
    2AU     AUL  461   9.066   7.819   8.409
    2AU    AUSL  462   9.198   7.240   8.178
    2AU    AUSL  463   8.766   7.121   8.133
    2AU     AUL  464   8.739   7.316   8.309
    2AU    AUSL  465   8.855   7.110   6.796
    2AU    AUSL  466   9.109   6.777   6.960
    2AU     AUL  467   9.141   6.825   6.642
    2AU    AUSL  468   9.042   7.479   6.656
    2AU    AUSL  469   8.770   7.471   7.037
    2AU     AUL  470   8.643   7.341   6.779
    2AU    AUSL  471  10.192   7.821   7.502
    2AU    AUSL  472  10.111   7.618   7.091
    2AU     AUL  473  10.434   7.869   7.246
    2AU    AUSL  474  10.380   7.422   7.370
    2AU    AUSL  475  10.345   7.101   7.722
    2AU     AUL  476  10.644   7.150   7.489
    2AU    AUSL  477  10.106   7.456   7.723
    2AU    AUSL  478   9.856   7.854   7.774
    2AU     AUL  479  10.186   7.869   7.816
    2AU    AUSL  480   8.848   7.987   7.480
    2AU    AUSL  481   8.886   7.748   7.844
    2AU     AUL  482   8.577   7.993   7.694
    2AU    AUSL  483   8.656   7.591   7.432
    2AU    AUSL  484   8.788   7.902   7.067
    2AU     AUL  485   8.557   7.821   7.226
    2AU    AUSL  486   8.514   7.552   7.870
    2AU    AUSL  487   8.487   7.202   7.371
    2AU     AUL  488   8.342   7.535   7.557
    2AU    AUSL  489  10.098   6.762   7.587
    2AU    AUSL  490   9.953   7.049   7.906
    2AU     AUL  491  10.259   6.949   7.965
    2AU    AUSL  492  10.064   7.137   7.373
    2AU    AUSL  493  10.058   6.728   7.155
    2AU     AUL  494  10.302   6.934   7.239
    2AU    AUSL  495   8.667   6.829   7.580
    2AU    AUSL  496   8.848   7.035   7.213
    2AU     AUL  497   8.490   6.933   7.242
    2AU    AUSL  498   8.753   7.235   7.721
    2AU    AUSL  499   8.994   6.869   7.860
    2AU     AUL  500   8.668   6.863   7.921
    2AU    AUSL  501   9.498   8.149   7.913
    2AU    AUSL  502   9.045   8.159   7.831
    2AU     AUL  503   9.275   8.192   8.178
    2AU    AUSL  504   9.324   8.046   7.530
    2AU    AUSL  505   9.564   8.166   7.181
    2AU     AUL  506   9.318   8.395   7.480
    2AU    AUSL  507   9.762   8.209   7.563
    2AU    AUSL  508   9.753   7.947   8.191
    2AU     AUL  509   9.858   8.200   7.925
    2AU    AUSL  510   9.362   6.659   7.982
    2AU    AUSL  511   9.787   6.642   7.854
    2AU     AUL  512   9.555   6.583   8.239
    2AU    AUSL  513   9.052   6.477   7.704
    2AU    AUSL  514   9.129   6.843   8.292
    2AU     AUL  515   9.037   6.550   8.054
    2AU    AUSL  516   9.494   6.397   7.659
    2AU    AUSL  517   9.275   6.652   7.370
    2AU     AUL  518   9.188   6.285   7.475
    2AU    AUSL  519   9.393   8.006   6.786
    2AU    AUSL  520   9.964   8.020   7.199
    2AU     AUL  521   9.720   8.114   6.870
    2AU    AUSL  522   9.138   8.129   7.148
    2AU    AUSL  523   9.166   7.706   6.989
    2AU     AUL  524   9.066   7.979   6.789
    2AU    AUSL  525   9.494   6.583   6.985
    2AU    AUSL  526   8.865   6.592   7.278
    2AU     AUL  527   9.159   6.456   7.039
    2AU    AUSL  528   9.708   6.635   7.375
    2AU    AUSL  529   9.721   6.949   6.988
    2AU     AUL  530   9.812   6.577   6.989
    2AU       S  531   9.994   6.445   8.244
    2AU     LIG  532  10.220   6.056   8.332
    2AU     LIG  533  10.384   5.634   8.395
    2AU     LIG  534  10.770   5.441   8.523
    2AU       S  535   9.908   7.182   8.736
    2AU     LIG  536  10.237   7.398   8.951
    2AU     LIG  537  10.458   7.390   9.367
    2AU     LIG  538  10.636   7.221   9.788
    2AU       S  539   9.552   7.015   8.641
    2AU     LIG  540   9.558   7.066   9.095
    2AU     LIG  541   9.933   7.038   9.407
    2AU     LIG  542  10.202   6.901   9.792
    2AU       S  543   9.073   7.391   8.651
    2AU     LIG  544   9.118   7.376   9.108
    2AU     LIG  545   8.758   7.284   9.385
    2AU     LIG  546   8.503   7.376   9.780
    2AU       S  547   9.528   7.951   8.583
    2AU     LIG  548   9.792   8.285   8.745
    2AU     LIG  549  10.219   8.148   8.857
    2AU     LIG  550  10.512   7.846   9.025
    2AU       S  551  10.260   7.806   8.278
    2AU     LIG  552  10.598   7.892   8.514
    2AU     LIG  553  10.720   8.257   8.722
    2AU     LIG  554  10.930   8.634   8.914
    2AU       S  555   9.778   7.482   6.302
    2AU     LIG  556  10.129   7.457   5.969
    2AU     LIG  557  10.321   7.066   5.847
    2AU     LIG  558  10.223   6.673   5.656
    2AU       S  559  10.174   8.066   6.785
    2AU     LIG  560  10.067   8.323   6.435
    2AU     LIG  561  10.290   8.507   6.060
    2AU     LIG  562  10.631   8.792   5.891
    2AU       S  563  10.340   6.891   6.757
    2AU     LIG  564  10.371   6.809   6.294
    2AU     LIG  565  10.171   6.433   6.146
    2AU     LIG  566  10.305   5.986   6.220
    2AU       S  567   9.773   7.298   6.255
    2AU     LIG  568   9.875   6.901   6.132
    2AU     LIG  569   9.719   6.731   5.758
    2AU     LIG  570   9.741   6.858   5.324
    2AU       S  571   8.970   7.146   6.321
    2AU     LIG  572   9.269   6.956   6.014
    2AU     LIG  573   9.269   6.956   5.546
    2AU     LIG  574   8.948   7.091   5.226
    2AU       S  575   9.513   7.635   6.410
    2AU     LIG  576   9.330   7.461   6.033
    2AU     LIG  577   9.641   7.249   5.755
    2AU     LIG  578  10.021   7.260   5.480
    2AU       S  579   8.857   7.519   8.703
    2AU     LIG  580   8.583   7.196   8.778
    2AU     LIG  581   8.480   6.922   9.090
    2AU     LIG  582   8.372   6.948   9.526
    2AU       S  583   8.791   8.132   8.206
    2AU     LIG  584   8.617   8.324   8.552
    2AU     LIG  585   8.364   8.227   8.907
    2AU     LIG  586   7.936   8.326   9.060
    2AU       S  587   8.661   6.868   8.412
    2AU     LIG  588   8.273   6.994   8.287
    2AU     LIG  589   7.897   6.737   8.287
    2AU     LIG  590   7.773   6.383   8.531
    2AU       S  591   9.074   7.201   8.609
    2AU     LIG  592   8.996   6.915   8.950
    2AU     LIG  593   8.884   6.785   9.382
    2AU     LIG  594   8.814   6.956   9.812
    2AU       S  595   8.785   7.059   6.442
    2AU     LIG  596   8.799   6.711   6.139
    2AU     LIG  597   8.787   6.906   5.721
    2AU     LIG  598   8.664   7.329   5.581
    2AU       S  599   8.771   6.592   6.804
    2AU     LIG  600   8.755   6.212   6.592
    2AU     LIG  601   8.576   6.034   6.215
    2AU     LIG  602   8.202   6.028   5.932
    2AU       S  603   8.457   7.760   6.745
    2AU     LIG  604   8.193   8.149   6.777
    2AU     LIG  605   8.228   8.539   6.549
    2AU     LIG  606   8.213   8.588   6.078
    2AU       S  607   8.982   7.422   6.439
    2AU     LIG  608   8.768   7.604   6.134
    2AU     LIG  609   8.955   7.714   5.747
    2AU     LIG  610   9.231   7.469   5.481
    2AU       S  611  10.306   7.877   6.810
    2AU     LIG  612  10.490   8.040   6.385
    2AU     LIG  613  10.750   8.283   6.072
    2AU     LIG  614  11.084   8.590   6.052
    2AU       S  615  10.594   7.736   7.678
    2AU     LIG  616  10.662   8.140   7.644
    2AU     LIG  617  11.093   8.257   7.567
    2AU     LIG  618  11.540   8.215   7.619
    2AU       S  619  10.594   7.586   7.606
    2AU     LIG  620  10.928   7.805   7.328
    2AU     LIG  621  11.361   7.853   7.304
    2AU     LIG  622  11.774   7.971   7.180
    2AU       S  623  10.564   6.724   7.698
    2AU     LIG  624  10.910   6.729   7.928
    2AU     LIG  625  11.356   6.666   7.911
    2AU     LIG  626  11.615   6.281   7.956
    2AU       S  627  10.215   8.085   8.215
    2AU     LIG  628  10.596   8.297   8.196
    2AU     LIG  629  10.706   8.687   8.428
    2AU     LIG  630  10.682   9.047   8.712
    2AU       S  631  10.486   7.517   7.881
    2AU     LIG  632  10.870   7.800   8.058
    2AU     LIG  633  11.297   7.816   7.847
    2AU     LIG  634  11.714   7.954   8.019
    2AU       S  635   8.687   7.953   8.137
    2AU     LIG  636   8.430   7.844   8.495
    2AU     LIG  637   7.990   8.001   8.633
    2AU     LIG  638   7.608   8.309   8.647
    2AU       S  639   8.779   8.317   7.401
    2AU     LIG  640   8.542   8.723   7.295
    2AU     LIG  641   8.183   8.834   7.005
    2AU     LIG  642   7.822   8.563   6.884
    2AU       S  643   8.254   7.486   7.090
    2AU     LIG  644   7.780   7.437   7.158
    2AU     LIG  645   7.362   7.669   7.167
    2AU     LIG  646   7.368   8.148   7.127
    2AU       S  647   8.663   8.173   6.918
    2AU     LIG  648   8.707   8.627   6.813
    2AU     LIG  649   8.470   8.995   6.604
    2AU     LIG  650   8.058   8.992   6.357
    2AU       S  651   8.253   7.078   7.631
    2AU     LIG  652   7.832   7.031   7.468
    2AU     LIG  653   7.384   7.136   7.371
    2AU     LIG  654   6.997   7.019   7.128
    2AU       S  655   8.397   7.548   8.053
    2AU     LIG  656   8.024   7.755   8.177
    2AU     LIG  657   7.728   8.118   8.179
    2AU     LIG  658   7.491   8.355   7.858
    2AU       S  659  10.256   6.586   7.595
    2AU     LIG  660  10.422   6.151   7.480
    2AU     LIG  661  10.801   5.958   7.674
    2AU     LIG  662  11.073   6.233   7.934
    2AU       S  663  10.167   6.530   8.098
    2AU     LIG  664  10.530   6.297   7.974
    2AU     LIG  665  10.731   5.984   8.233
    2AU     LIG  666  10.673   5.931   8.695
    2AU       S  667  10.536   6.656   7.504
    2AU     LIG  668  10.787   6.769   7.176
    2AU     LIG  669  11.229   6.711   7.252
    2AU     LIG  670  11.420   6.369   7.479
    2AU       S  671  10.266   6.630   6.865
    2AU     LIG  672  10.109   6.232   6.703
    2AU     LIG  673  10.143   5.771   6.663
    2AU     LIG  674  10.406   5.453   6.410
    2AU       S  675   8.629   6.711   6.867
    2AU     LIG  676   8.402   6.680   6.485
    2AU     LIG  677   8.159   6.346   6.326
    2AU     LIG  678   7.828   6.001   6.283
    2AU       S  679   8.283   6.834   7.665
    2AU     LIG  680   7.919   6.650   7.796
    2AU     LIG  681   7.560   6.578   7.551
    2AU     LIG  682   7.323   6.620   7.196
    2AU       S  683   8.681   6.660   8.330
    2AU     LIG  684   8.336   6.509   8.088
    2AU     LIG  685   8.068   6.150   8.167
    2AU     LIG  686   7.790   5.759   8.198
    2AU       S  687   8.308   7.119   7.807
    2AU     LIG  688   7.898   7.183   7.970
    2AU     LIG  689   7.511   6.979   7.880
    2AU     LIG  690   7.395   6.594   8.032
    2AU       S  691   8.927   8.322   7.878
    2AU     LIG  692   8.502   8.425   7.910
    2AU     LIG  693   8.231   8.249   8.220
    2AU     LIG  694   8.080   8.501   8.570
    2AU       S  695   9.501   8.495   7.897
    2AU     LIG  696   9.733   8.574   8.275
    2AU     LIG  697   9.756   9.027   8.430
    2AU     LIG  698   9.447   9.392   8.405
    2AU       S  699   9.625   8.658   7.772
    2AU     LIG  700   9.206   8.859   7.739
    2AU     LIG  701   9.158   9.243   7.970
    2AU     LIG  702   9.381   9.633   7.935
    2AU       S  703   9.472   8.480   7.041
    2AU     LIG  704   9.547   8.923   7.172
    2AU     LIG  705   9.856   9.291   7.102
    2AU     LIG  706  10.224   9.522   6.882
    2AU       S  707   9.994   8.043   8.367
    2AU     LIG  708  10.201   8.494   8.488
    2AU     LIG  709  10.404   8.633   8.870
    2AU     LIG  710  10.575   8.361   9.211
    2AU       S  711   9.777   8.507   7.555
    2AU     LIG  712   9.865   9.021   7.568
    2AU     LIG  713   9.709   9.224   7.948
    2AU     LIG  714   9.906   9.522   8.239
    2AU       S  715   9.368   6.193   8.069
    2AU     LIG  716   9.749   5.911   8.176
    2AU     LIG  717   9.901   5.480   8.360
    2AU     LIG  718   9.829   5.024   8.461
    2AU       S  719   9.922   6.495   7.950
    2AU     LIG  720  10.067   6.115   7.828
    2AU     LIG  721  10.369   5.789   7.912
    2AU     LIG  722  10.757   5.513   7.997
    2AU       S  723   9.170   6.118   7.913
    2AU     LIG  724   9.362   5.685   7.934
    2AU     LIG  725   9.494   5.273   8.095
    2AU     LIG  726   9.419   4.818   8.157
    2AU       S  727   8.938   6.763   8.473
    2AU     LIG  728   8.672   6.534   8.801
    2AU     LIG  729   8.297   6.327   8.611
    2AU     LIG  730   8.015   5.938   8.639
    2AU       S  731   9.584   6.188   7.256
    2AU     LIG  732   9.416   5.744   7.220
    2AU     LIG  733   9.358   5.376   6.925
    2AU     LIG  734   9.551   4.938   6.796
    2AU       S  735   9.518   6.208   7.821
    2AU     LIG  736   9.717   5.848   7.612
    2AU     LIG  737   9.896   5.518   7.860
    2AU     LIG  738   9.944   5.046   7.962
    2AU       S  739   9.330   8.379   6.759
    2AU     LIG  740   9.216   8.835   6.759
    2AU     LIG  741   9.468   9.233   6.753
    2AU     LIG  742   9.845   9.425   6.537
    2AU       S  743  10.139   8.182   7.069
    2AU     LIG  744  10.579   8.302   6.957
    2AU     LIG  745  10.710   8.499   6.547
    2AU     LIG  746  10.817   8.917   6.356
    2AU       S  747   9.138   8.388   7.030
    2AU     LIG  748   9.055   8.770   7.245
    2AU     LIG  749   9.068   9.204   7.099
    2AU     LIG  750   9.060   9.558   6.779
    2AU       S  751   8.682   7.804   6.628
    2AU     LIG  752   8.608   8.205   6.420
    2AU     LIG  753   8.683   8.643   6.290
    2AU     LIG  754   8.501   9.019   6.070
    2AU       S  755   8.688   6.531   7.098
    2AU     LIG  756   8.392   6.232   6.954
    2AU     LIG  757   8.270   5.936   6.617
    2AU     LIG  758   8.228   5.631   6.261
    2AU       S  759   9.559   6.217   7.117
    2AU     LIG  760   9.662   5.965   6.784
    2AU     LIG  761   9.461   5.701   6.491
    2AU     LIG  762   9.318   5.269   6.415
    2AU       S  763   9.855   6.311   7.375
    2AU     LIG  764  10.030   5.983   7.156
    2AU     LIG  765   9.867   5.574   7.056
    2AU     LIG  766   9.804   5.369   6.658
    2AU       S  767  10.038   6.770   6.648
    2AU     LIG  768   9.730   6.491   6.480
    2AU     LIG  769   9.796   6.065   6.302
    2AU     LIG  770   9.928   5.616   6.219
    3AU     AUC  771  22.889   9.665   7.517
    3AU     AUC  772  23.137   9.670   7.345
    3AU     AUC  773  23.135   9.666   7.680
    3AU     AUC  774  22.618   9.658   7.369
    3AU     AUC  775  22.649   9.704   7.691
    3AU     AUC  776  22.721   9.921   7.486
    3AU     AUC  777  23.056   9.927   7.478
    3AU     AUC  778  22.724   9.412   7.542
    3AU     AUC  779  23.054   9.397   7.533
    3AU     AUC  780  22.899   9.516   7.786
    3AU     AUC  781  22.898   9.859   7.752
    3AU     AUC  782  22.881   9.481   7.272
    3AU     AUC  783  22.891   9.787   7.249
    3AU     AUC  784  23.451   9.671   7.184
    3AU     AUC  785  23.457   9.655   7.520
    3AU     AUC  786  23.432   9.655   7.875
    3AU     AUC  787  22.315   9.612   7.239
    3AU     AUC  788  22.315   9.690   7.559
    3AU     AUC  789  22.357   9.751   7.876
    3AU     AUC  790  22.552  10.224   7.429
    3AU     AUC  791  22.909  10.221   7.407
    3AU     AUC  792  23.244  10.212   7.441
    3AU     AUC  793  22.537   9.115   7.569
    3AU     AUC  794  22.882   9.100   7.539
    3AU     AUC  795  23.232   9.100   7.537
    3AU     AUC  796  22.882   9.360   8.098
    3AU     AUC  797  22.896   9.710   8.082
    3AU     AUC  798  22.935  10.069   8.036
    3AU     AUC  799  22.915   9.291   6.990
    3AU     AUC  800  22.855   9.619   6.944
    3AU     AUC  801  22.838   9.935   6.934
    3AU     AUC  802  23.148   9.475   7.995
    3AU     AUC  803  23.179   9.833   7.975
    3AU     AUC  804  23.184   9.505   7.049
    3AU     AUC  805  23.143   9.812   7.062
    3AU     AUC  806  22.616   9.588   8.005
    3AU     AUC  807  22.642   9.936   7.947
    3AU     AUC  808  22.602   9.433   7.104
    3AU     AUC  809  22.551   9.750   7.067
    3AU     AUC  810  23.376   9.939   7.330
    3AU     AUC  811  23.326   9.917   7.670
    3AU     AUC  812  22.415   9.924   7.365
    3AU     AUC  813  22.471  10.016   7.686
    3AU     AUC  814  23.355   9.394   7.378
    3AU     AUC  815  23.311   9.350   7.721
    3AU     AUC  816  22.428   9.345   7.397
    3AU     AUC  817  22.463   9.437   7.730
    3AU     AUC  818  22.783  10.174   7.738
    3AU     AUC  819  23.093  10.140   7.752
    3AU     AUC  820  22.715   9.238   7.829
    3AU     AUC  821  23.020   9.185   7.808
    3AU     AUC  822  22.679  10.076   7.175
    3AU     AUC  823  23.044  10.106   7.188
    3AU     AUC  824  22.740   9.186   7.267
    3AU     AUC  825  23.106   9.236   7.258
    3AU    AUSL  826  23.420   9.599   8.273
    3AU    AUSL  827  23.171   9.202   8.212
    3AU     AUL  828  23.478   9.259   8.377
    3AU    AUSL  829  23.011   9.530   8.440
    3AU    AUSL  830  22.759   9.921   8.431
    3AU     AUL  831  22.995   9.825   8.707
    3AU    AUSL  832  23.089   9.883   8.166
    3AU    AUSL  833  23.537   9.978   8.086
    3AU     AUL  834  23.370   9.902   8.420
    3AU    AUSL  835  23.307   9.698   6.840
    3AU    AUSL  836  23.146  10.084   6.961
    3AU     AUL  837  23.377  10.025   6.668
    3AU    AUSL  838  23.125   9.396   6.583
    3AU    AUSL  839  23.635   9.449   6.954
    3AU     AUL  840  23.493   9.552   6.626
    3AU    AUSL  841  22.930   9.836   6.670
    3AU    AUSL  842  22.761   9.439   6.809
    3AU     AUL  843  22.855   9.498   6.474
    3AU    AUSL  844  22.365   9.871   8.225
    3AU    AUSL  845  22.704  10.178   8.086
    3AU     AUL  846  22.545  10.150   8.405
    3AU    AUSL  847  22.674   9.566   8.180
    3AU    AUSL  848  22.243   9.443   8.146
    3AU     AUL  849  22.223   9.641   8.313
    3AU    AUSL  850  22.321   9.411   6.806
    3AU    AUSL  851  22.580   9.088   6.976
    3AU     AUL  852  22.604   9.135   6.655
    3AU    AUSL  853  22.498   9.779   6.656
    3AU    AUSL  854  22.225   9.772   7.041
    3AU     AUL  855  22.103   9.614   6.793
    3AU    AUSL  856  23.666  10.158   7.486
    3AU    AUSL  857  23.562   9.939   7.089
    3AU     AUL  858  23.885  10.181   7.182
    3AU    AUSL  859  23.850   9.756   7.358
    3AU    AUSL  860  23.819   9.445   7.719
    3AU     AUL  861  24.114   9.498   7.488
    3AU    AUSL  862  23.575   9.795   7.708
    3AU    AUSL  863  23.323  10.192   7.751
    3AU     AUL  864  23.652  10.204   7.798
    3AU    AUSL  865  22.301  10.299   7.478
    3AU    AUSL  866  22.351  10.066   7.844
    3AU     AUL  867  22.032  10.306   7.697
    3AU    AUSL  868  22.118   9.898   7.436
    3AU    AUSL  869  22.236  10.205   7.067
    3AU     AUL  870  22.009  10.122   7.231
    3AU    AUSL  871  21.982   9.866   7.876
    3AU    AUSL  872  21.952   9.506   7.392
    3AU     AUL  873  21.800   9.842   7.567
    3AU    AUSL  874  23.580   9.098   7.584
    3AU    AUSL  875  23.428   9.386   7.902
    3AU     AUL  876  23.736   9.284   7.957
    3AU    AUSL  877  23.536   9.470   7.367
    3AU    AUSL  878  23.532   9.058   7.153
    3AU     AUL  879  23.780   9.269   7.233
    3AU    AUSL  880  22.143   9.141   7.601
    3AU    AUSL  881  22.311   9.343   7.225
    3AU     AUL  882  21.952   9.232   7.272
    3AU    AUSL  883  22.227   9.552   7.733
    3AU    AUSL  884  22.472   9.191   7.875
    3AU     AUL  885  22.153   9.178   7.941
    3AU    AUSL  886  22.954  10.480   7.900
    3AU    AUSL  887  22.500  10.479   7.823
    3AU     AUL  888  22.738  10.524   8.163
    3AU    AUSL  889  22.778  10.365   7.521
    3AU    AUSL  890  23.010  10.485   7.166
    3AU     AUL  891  22.756  10.709   7.469
    3AU    AUSL  892  23.208  10.548   7.547
    3AU    AUSL  893  23.223  10.286   8.170
    3AU     AUL  894  23.314  10.535   7.906
    3AU    AUSL  895  22.854   9.006   7.987
    3AU    AUSL  896  23.274   8.976   7.855
    3AU     AUL  897  23.041   8.905   8.233
    3AU    AUSL  898  22.540   8.800   7.724
    3AU    AUSL  899  22.615   9.170   8.303
    3AU     AUL  900  22.534   8.876   8.071
    3AU    AUSL  901  22.980   8.723   7.674
    3AU    AUSL  902  22.754   8.970   7.381
    3AU     AUL  903  22.674   8.603   7.489
    3AU    AUSL  904  22.835  10.314   6.777
    3AU    AUSL  905  23.407  10.338   7.197
    3AU     AUL  906  23.154  10.413   6.849
    3AU    AUSL  907  22.585  10.437   7.139
    3AU    AUSL  908  22.616  10.012   6.986
    3AU     AUL  909  22.506  10.286   6.786
    3AU    AUSL  910  22.969   8.904   6.993
    3AU    AUSL  911  22.343   8.902   7.300
    3AU     AUL  912  22.638   8.768   7.052
    3AU    AUSL  913  23.188   8.958   7.380
    3AU    AUSL  914  23.191   9.274   6.987
    3AU     AUL  915  23.285   8.908   6.983
    3AU       S  916  23.491   8.805   8.255
    3AU     LIG  917  23.593   8.378   8.308
    3AU     LIG  918  23.691   8.017   8.571
    3AU     LIG  919  24.128   7.924   8.717
    3AU       S  920  23.393   9.542   8.734
    3AU     LIG  921  23.674   9.873   8.884
    3AU     LIG  922  23.872   9.764   9.294
    3AU     LIG  923  23.844   9.476   9.675
    3AU       S  924  23.050   9.355   8.648
    3AU     LIG  925  23.053   9.411   9.114
    3AU     LIG  926  23.363   9.291   9.477
    3AU     LIG  927  23.636   9.008   9.772
    3AU       S  928  22.548   9.724   8.661
    3AU     LIG  929  22.535   9.666   9.124
    3AU     LIG  930  22.177   9.618   9.400
    3AU     LIG  931  21.885   9.563   9.769
    3AU       S  932  23.007  10.284   8.568
    3AU     LIG  933  23.285  10.535   8.807
    3AU     LIG  934  23.654  10.458   9.037
    3AU     LIG  935  24.032  10.233   9.126
    3AU       S  936  23.733  10.157   8.259
    3AU     LIG  937  23.894  10.293   8.623
    3AU     LIG  938  24.135  10.612   8.779
    3AU     LIG  939  24.522  10.794   8.939
    3AU       S  940  23.226   9.806   6.299
    3AU     LIG  941  23.671   9.816   6.196
    3AU     LIG  942  23.771   9.410   6.033
    3AU     LIG  943  23.643   9.029   5.797
    3AU       S  944  23.597  10.455   6.783
    3AU     LIG  945  23.490  10.850   6.577
    3AU     LIG  946  23.574  10.916   6.128
    3AU     LIG  947  23.986  10.762   5.979
    3AU       S  948  23.805   9.210   6.748
    3AU     LIG  949  23.897   9.000   6.324
    3AU     LIG  950  23.863   8.577   6.126
    3AU     LIG  951  23.870   8.102   6.176
    3AU       S  952  23.223   9.623   6.239
    3AU     LIG  953  23.226   9.260   6.023
    3AU     LIG  954  23.187   9.206   5.574
    3AU     LIG  955  23.502   9.265   5.262
    3AU       S  956  22.425   9.435   6.330
    3AU     LIG  957  22.484   9.471   5.890
    3AU     LIG  958  22.665   9.330   5.496
    3AU     LIG  959  22.545   9.398   5.060
    3AU       S  960  22.976   9.949   6.428
    3AU     LIG  961  22.760   9.846   6.078
    3AU     LIG  962  22.983   9.653   5.755
    3AU     LIG  963  23.445   9.630   5.694
    3AU       S  964  22.336   9.857   8.703
    3AU     LIG  965  21.954   9.680   8.710
    3AU     LIG  966  22.009   9.344   8.956
    3AU     LIG  967  21.879   9.198   9.364
    3AU       S  968  22.262  10.463   8.207
    3AU     LIG  969  22.082  10.722   8.480
    3AU     LIG  970  21.790  10.649   8.810
    3AU     LIG  971  21.567  10.917   9.120
    3AU       S  972  22.137   9.203   8.438
    3AU     LIG  973  21.742   9.368   8.334
    3AU     LIG  974  21.348   9.110   8.329
    3AU     LIG  975  21.176   8.704   8.529
    3AU       S  976  22.561   9.534   8.611
    3AU     LIG  977  22.602   9.218   8.912
    3AU     LIG  978  22.392   9.151   9.293
    3AU     LIG  979  22.270   9.216   9.734
    3AU       S  980  22.243   9.358   6.436
    3AU     LIG  981  22.071   9.163   6.049
    3AU     LIG  982  22.171   9.188   5.597
    3AU     LIG  983  22.212   9.584   5.395
    3AU       S  984  22.237   8.906   6.834
    3AU     LIG  985  22.237   8.836   6.410
    3AU     LIG  986  21.858   8.691   6.203
    3AU     LIG  987  21.465   8.455   6.162
    3AU       S  988  21.917  10.027   6.743
    3AU     LIG  989  21.620  10.346   6.725
    3AU     LIG  990  21.666  10.747   6.526
    3AU     LIG  991  21.633  10.824   6.068
    3AU       S  992  22.427   9.715   6.441
    3AU     LIG  993  22.232   9.894   6.122
    3AU     LIG  994  22.392   9.961   5.703
    3AU     LIG  995  22.672   9.837   5.366
    3AU       S  996  23.695  10.321   6.800
    3AU     LIG  997  23.873  10.274   6.397
    3AU     LIG  998  24.264  10.396   6.220
    3AU     LIG  999  24.502  10.627   5.900
    3AU       S 1000  24.068  10.149   7.617
    3AU     LIG 1001  24.286  10.515   7.571
    3AU     LIG 1002  24.720  10.531   7.452
    3AU     LIG 1003  25.116  10.677   7.609
    3AU       S 1004  24.086   9.947   7.571
    3AU     LIG 1005  24.561   9.953   7.535
    3AU     LIG 1006  24.973  10.080   7.370
    3AU     LIG 1007  25.149  10.429   7.146
    3AU       S 1008  24.052   9.067   7.700
    3AU     LIG 1009  24.335   9.011   8.004
    3AU     LIG 1010  24.764   8.988   7.895
    3AU     LIG 1011  24.938   8.804   7.488
    3AU       S 1012  23.686  10.444   8.181
    3AU     LIG 1013  24.059  10.699   8.264
    3AU     LIG 1014  24.138  11.063   8.547
    3AU     LIG 1015  24.202  11.180   8.992
    3AU       S 1016  23.977   9.875   7.837
    3AU     LIG 1017  24.393  10.146   7.979
    3AU     LIG 1018  24.858  10.256   7.871
    3AU     LIG 1019  25.221  10.475   8.081
    3AU       S 1020  22.166  10.275   8.134
    3AU     LIG 1021  21.904  10.192   8.473
    3AU     LIG 1022  21.477  10.366   8.500
    3AU     LIG 1023  21.274  10.743   8.673
    3AU       S 1024  22.226  10.615   7.388
    3AU     LIG 1025  22.058  11.006   7.456
    3AU     LIG 1026  21.729  11.149   7.224
    3AU     LIG 1027  21.643  10.741   7.047
    3AU       S 1028  21.718   9.774   7.101
    3AU     LIG 1029  21.278   9.746   6.999
    3AU     LIG 1030  20.982  10.076   7.061
    3AU     LIG 1031  21.197  10.458   7.227
    3AU       S 1032  22.085  10.452   6.896
    3AU     LIG 1033  22.118  10.859   6.854
    3AU     LIG 1034  21.875  11.184   6.736
    3AU     LIG 1035  21.754  11.254   6.328
    3AU       S 1036  21.742   9.393   7.677
    3AU     LIG 1037  21.396   9.447   7.421
    3AU     LIG 1038  20.938   9.473   7.283
    3AU     LIG 1039  20.520   9.422   7.011
    3AU       S 1040  21.879   9.870   8.061
    3AU     LIG 1041  21.525   9.870   8.305
    3AU     LIG 1042  21.193  10.107   8.121
    3AU     LIG 1043  21.208  10.376   7.745
    3AU       S 1044  23.739   8.928   7.591
    3AU     LIG 1045  23.835   8.493   7.460
    3AU     LIG 1046  24.195   8.326   7.627
    3AU     LIG 1047  24.445   8.699   7.607
    3AU       S 1048  23.649   8.869   8.105
    3AU     LIG 1049  23.958   8.625   7.950
    3AU     LIG 1050  24.359   8.489   8.104
    3AU     LIG 1051  24.308   8.407   8.565
    3AU       S 1052  24.024   9.011   7.514
    3AU     LIG 1053  24.145   8.815   7.172
    3AU     LIG 1054  24.581   8.859   7.109
    3AU     LIG 1055  24.911   8.582   7.006
    3AU       S 1056  23.739   8.960   6.867
    3AU     LIG 1057  23.913   8.616   6.677
    3AU     LIG 1058  23.816   8.200   6.709
    3AU     LIG 1059  23.534   7.933   6.534
    3AU       S 1060  22.098   9.017   6.896
    3AU     LIG 1061  21.803   9.061   6.571
    3AU     LIG 1062  21.395   8.881   6.448
    3AU     LIG 1063  21.069   8.536   6.537
    3AU       S 1064  21.755   9.163   7.707
    3AU     LIG 1065  21.363   9.039   7.751
    3AU     LIG 1066  21.231   8.965   7.318
    3AU     LIG 1067  21.078   8.638   7.050
    3AU       S 1068  22.171   8.977   8.350
    3AU     LIG 1069  21.777   8.893   8.136
    3AU     LIG 1070  21.428   8.606   8.073
    3AU     LIG 1071  21.177   8.248   8.234
    3AU       S 1072  21.786   9.432   7.841
    3AU     LIG 1073  21.356   9.518   7.972
    3AU     LIG 1074  20.951   9.345   7.994
    3AU     LIG 1075  20.660   9.298   7.680
    3AU       S 1076  22.378  10.639   7.866
    3AU     LIG 1077  21.968  10.790   7.931
    3AU     LIG 1078  21.641  10.823   8.259
    3AU     LIG 1079  21.653  11.100   8.623
    3AU       S 1080  22.953  10.838   7.883
    3AU     LIG 1081  23.238  11.065   8.168
    3AU     LIG 1082  23.034  11.393   8.427
    3AU     LIG 1083  22.579  11.549   8.405
    3AU       S 1084  22.971  11.036   7.742
    3AU     LIG 1085  22.865  11.372   7.953
    3AU     LIG 1086  22.610  11.690   7.919
    3AU     LIG 1087  22.573  12.121   7.974
    3AU       S 1088  22.930  10.773   7.036
    3AU     LIG 1089  22.960  11.116   7.245
    3AU     LIG 1090  23.019  11.486   7.190
    3AU     LIG 1091  23.043  11.643   6.780
    3AU       S 1092  23.456  10.384   8.348
    3AU     LIG 1093  23.617  10.797   8.521
    3AU     LIG 1094  23.760  10.942   8.910
    3AU     LIG 1095  24.034  10.766   9.255
    3AU       S 1096  23.198  10.862   7.587
    3AU     LIG 1097  23.325  11.341   7.611
    3AU     LIG 1098  23.324  11.605   7.996
    3AU     LIG 1099  23.004  11.864   8.187
    3AU       S 1100  22.848   8.509   8.080
    3AU     LIG 1101  23.171   8.138   8.115
    3AU     LIG 1102  23.277   7.720   8.303
    3AU     LIG 1103  23.104   7.337   8.529
    3AU       S 1104  23.415   8.827   7.950
    3AU     LIG 1105  23.465   8.435   7.802
    3AU     LIG 1106  23.755   8.138   7.893
    3AU     LIG 1107  24.057   8.100   8.228
    3AU       S 1108  22.640   8.437   7.923
    3AU     LIG 1109  22.674   7.984   8.026
    3AU     LIG 1110  22.745   7.578   8.242
    3AU     LIG 1111  22.699   7.101   8.237
    3AU       S 1112  22.415   9.097   8.477
    3AU     LIG 1113  22.183   8.890   8.838
    3AU     LIG 1114  21.754   8.789   8.665
    3AU     LIG 1115  21.555   8.368   8.583
    3AU       S 1116  23.066   8.510   7.266
    3AU     LIG 1117  22.787   8.120   7.149
    3AU     LIG 1118  22.727   7.759   6.868
    3AU     LIG 1119  22.894   7.317   6.889
    3AU       S 1120  22.985   8.549   7.853
    3AU     LIG 1121  23.005   8.154   7.632
    3AU     LIG 1122  23.027   7.700   7.784
    3AU     LIG 1123  23.137   7.300   8.013
    3AU       S 1124  22.768  10.693   6.756
    3AU     LIG 1125  22.824  11.153   6.741
    3AU     LIG 1126  23.114  11.268   6.443
    3AU     LIG 1127  23.066  11.639   6.215
    3AU       S 1128  23.538  10.507   7.114
    3AU     LIG 1129  23.949  10.663   7.077
    3AU     LIG 1130  24.053  10.718   6.629
    3AU     LIG 1131  24.352  10.900   6.327
    3AU       S 1132  22.584  10.702   7.018
    3AU     LIG 1133  22.460  11.116   7.127
    3AU     LIG 1134  22.546  11.551   6.965
    3AU     LIG 1135  22.609  11.695   6.512
    3AU       S 1136  22.129  10.083   6.635
    3AU     LIG 1137  22.046  10.433   6.379
    3AU     LIG 1138  22.119  10.886   6.325
    3AU     LIG 1139  22.347  11.239   6.539
    3AU       S 1140  22.172   8.838   7.137
    3AU     LIG 1141  21.798   8.636   7.037
    3AU     LIG 1142  21.602   8.472   6.671
    3AU     LIG 1143  21.392   8.088   6.519
    3AU       S 1144  23.050   8.538   7.114
    3AU     LIG 1145  23.233   8.394   6.722
    3AU     LIG 1146  23.041   8.043   6.467
    3AU     LIG 1147  22.934   7.590   6.429
    3AU       S 1148  23.328   8.638   7.366
    3AU     LIG 1149  23.486   8.258   7.149
    3AU     LIG 1150  23.222   7.919   6.936
    3AU     LIG 1151  23.356   7.510   6.743
    3AU       S 1152  23.520   9.090   6.642
    3AU     LIG 1153  23.432   8.767   6.367
    3AU     LIG 1154  23.410   8.336   6.227
    3AU     LIG 1155  23.398   7.908   6.036
    4AU     AUC 1156  13.546  23.213   7.536
    4AU     AUC 1157  13.796  23.212   7.376
    4AU     AUC 1158  13.785  23.211   7.710
    4AU     AUC 1159  13.283  23.212   7.377
    4AU     AUC 1160  13.300  23.253   7.701
    4AU     AUC 1161  13.384  23.471   7.500
    4AU     AUC 1162  13.721  23.476   7.508
    4AU     AUC 1163  13.376  22.961   7.552
    4AU     AUC 1164  13.705  22.943   7.558
    4AU     AUC 1165  13.542  23.062   7.805
    4AU     AUC 1166  13.551  23.405   7.774
    4AU     AUC 1167  13.544  23.031   7.290
    4AU     AUC 1168  13.557  23.335   7.268
    4AU     AUC 1169  14.110  23.204   7.228
    4AU     AUC 1170  14.109  23.191   7.571
    4AU     AUC 1171  14.075  23.190   7.920
    4AU     AUC 1172  12.984  23.171   7.232
    4AU     AUC 1173  12.973  23.246   7.555
    4AU     AUC 1174  13.002  23.303   7.875
    4AU     AUC 1175  13.222  23.775   7.438
    4AU     AUC 1176  13.579  23.767   7.428
    4AU     AUC 1177  13.914  23.756   7.471
    4AU     AUC 1178  13.184  22.666   7.568
    4AU     AUC 1179  13.529  22.648   7.552
    4AU     AUC 1180  13.878  22.647   7.568
    4AU     AUC 1181  13.506  22.903   8.114
    4AU     AUC 1182  13.533  23.253   8.102
    4AU     AUC 1183  13.587  23.612   8.058
    4AU     AUC 1184  13.589  22.843   7.009
    4AU     AUC 1185  13.535  23.171   6.957
    4AU     AUC 1186  13.517  23.485   6.947
    4AU     AUC 1187  13.780  23.014   8.026
    4AU     AUC 1188  13.826  23.376   8.004
    4AU     AUC 1189  13.857  23.053   7.076
    4AU     AUC 1190  13.808  23.351   7.085
    4AU     AUC 1191  13.250  23.134   8.010
    4AU     AUC 1192  13.291  23.483   7.958
    4AU     AUC 1193  13.273  22.988   7.108
    4AU     AUC 1194  13.225  23.307   7.072
    4AU     AUC 1195  14.030  23.481   7.368
    4AU     AUC 1196  13.984  23.467   7.705
    4AU     AUC 1197  13.083  23.480   7.367
    4AU     AUC 1198  13.130  23.568   7.691
    4AU     AUC 1199  14.013  22.939   7.420
    4AU     AUC 1200  13.950  22.891   7.761
    4AU     AUC 1201  13.089  22.899   7.391
    4AU     AUC 1202  13.109  22.990   7.726
    4AU     AUC 1203  13.443  23.719   7.755
    4AU     AUC 1204  13.754  23.681   7.779
    4AU     AUC 1205  13.350  22.785   7.836
    4AU     AUC 1206  13.653  22.729   7.829
    4AU     AUC 1207  13.354  23.628   7.188
    4AU     AUC 1208  13.716  23.655   7.209
    4AU     AUC 1209  13.403  22.738   7.274
    4AU     AUC 1210  13.768  22.786   7.284
    4AU    AUSL 1211  14.045  23.126   8.324
    4AU    AUSL 1212  13.783  22.736   8.241
    4AU     AUL 1213  14.081  22.774   8.421
    4AU    AUSL 1214  13.628  23.071   8.465
    4AU    AUSL 1215  13.389  23.465   8.446
    4AU     AUL 1216  13.615  23.367   8.734
    4AU    AUSL 1217  13.730  23.424   8.194
    4AU    AUSL 1218  14.183  23.494   8.135
    4AU     AUL 1219  13.999  23.433   8.459
    4AU    AUSL 1220  13.999  23.249   6.839
    4AU    AUSL 1221  13.817  23.623   6.985
    4AU     AUL 1222  14.079  23.580   6.722
    4AU    AUSL 1223  13.808  22.930   6.610
    4AU    AUSL 1224  14.307  23.002   7.011
    4AU     AUL 1225  14.191  23.088   6.672
    4AU    AUSL 1226  13.617  23.385   6.679
    4AU    AUSL 1227  13.439  22.996   6.822
    4AU     AUL 1228  13.544  23.057   6.485
    4AU    AUSL 1229  13.002  23.423   8.226
    4AU    AUSL 1230  13.352  23.723   8.099
    4AU     AUL 1231  13.185  23.698   8.414
    4AU    AUSL 1232  13.304  23.110   8.190
    4AU    AUSL 1233  12.870  23.002   8.131
    4AU     AUL 1234  12.849  23.194   8.312
    4AU    AUSL 1235  12.998  22.972   6.802
    4AU    AUSL 1236  13.250  22.642   6.973
    4AU     AUL 1237  13.300  22.687   6.660
    4AU    AUSL 1238  13.184  23.340   6.658
    4AU    AUSL 1239  12.902  23.333   7.039
    4AU     AUL 1240  12.783  23.205   6.777
    4AU    AUSL 1241  14.332  23.696   7.509
    4AU    AUSL 1242  14.180  23.444   7.175
    4AU     AUL 1243  14.435  23.553   7.048
    4AU    AUSL 1244  14.516  23.292   7.415
    4AU    AUSL 1245  14.454  22.985   7.793
    4AU     AUL 1246  14.697  23.205   7.774
    4AU    AUSL 1247  14.224  23.339   7.743
    4AU    AUSL 1248  14.009  23.733   7.796
    4AU     AUL 1249  14.388  23.624   7.864
    4AU    AUSL 1250  12.972  23.856   7.481
    4AU    AUSL 1251  13.005  23.619   7.846
    4AU     AUL 1252  12.694  23.863   7.696
    4AU    AUSL 1253  12.780  23.460   7.430
    4AU    AUSL 1254  12.919  23.764   7.067
    4AU     AUL 1255  12.687  23.693   7.226
    4AU    AUSL 1256  12.634  23.420   7.868
    4AU    AUSL 1257  12.616  23.069   7.361
    4AU     AUL 1258  12.466  23.404   7.552
    4AU    AUSL 1259  14.226  22.637   7.636
    4AU    AUSL 1260  14.055  22.925   7.948
    4AU     AUL 1261  14.359  22.798   8.017
    4AU    AUSL 1262  14.195  23.011   7.420
    4AU    AUSL 1263  14.200  22.607   7.202
    4AU     AUL 1264  14.455  22.827   7.307
    4AU    AUSL 1265  12.788  22.697   7.578
    4AU    AUSL 1266  12.982  22.900   7.219
    4AU     AUL 1267  12.625  22.793   7.232
    4AU    AUSL 1268  12.873  23.106   7.716
    4AU    AUSL 1269  13.103  22.742   7.869
    4AU     AUL 1270  12.779  22.742   7.918
    4AU    AUSL 1271  13.622  24.015   7.922
    4AU    AUSL 1272  13.165  24.030   7.833
    4AU     AUL 1273  13.388  24.072   8.171
    4AU    AUSL 1274  13.448  23.913   7.538
    4AU    AUSL 1275  13.690  24.037   7.189
    4AU     AUL 1276  13.435  24.258   7.487
    4AU    AUSL 1277  13.884  24.073   7.573
    4AU    AUSL 1278  13.879  23.822   8.204
    4AU     AUL 1279  14.000  24.061   7.921
    4AU    AUSL 1280  13.476  22.549   7.997
    4AU    AUSL 1281  13.902  22.518   7.884
    4AU     AUL 1282  13.651  22.449   8.253
    4AU    AUSL 1283  13.174  22.351   7.716
    4AU    AUSL 1284  13.223  22.714   8.303
    4AU     AUL 1285  13.152  22.422   8.062
    4AU    AUSL 1286  13.615  22.270   7.686
    4AU    AUSL 1287  13.408  22.520   7.385
    4AU     AUL 1288  13.317  22.151   7.490
    4AU    AUSL 1289  13.527  23.871   6.794
    4AU    AUSL 1290  14.081  23.874   7.215
    4AU     AUL 1291  13.856  23.976   6.886
    4AU    AUSL 1292  13.268  23.990   7.151
    4AU    AUSL 1293  13.299  23.567   6.993
    4AU     AUL 1294  13.201  23.840   6.793
    4AU    AUSL 1295  13.642  22.464   7.006
    4AU    AUSL 1296  12.999  22.457   7.286
    4AU     AUL 1297  13.302  22.322   7.053
    4AU    AUSL 1298  13.841  22.507   7.405
    4AU    AUSL 1299  13.870  22.830   7.019
    4AU     AUL 1300  13.960  22.467   7.007
    4AU       S 1301  14.088  22.315   8.291
    4AU     LIG 1302  14.346  21.956   8.419
    4AU     LIG 1303  14.405  21.510   8.525
    4AU     LIG 1304  14.800  21.272   8.654
    4AU       S 1305  14.002  23.068   8.771
    4AU     LIG 1306  14.351  23.344   8.850
    4AU     LIG 1307  14.573  23.309   9.261
    4AU     LIG 1308  14.601  23.165   9.713
    4AU       S 1309  13.651  22.896   8.670
    4AU     LIG 1310  13.656  22.950   9.122
    4AU     LIG 1311  14.068  22.930   9.384
    4AU     LIG 1312  14.375  22.694   9.674
    4AU       S 1313  13.175  23.264   8.661
    4AU     LIG 1314  13.168  23.205   9.124
    4AU     LIG 1315  12.793  23.192   9.381
    4AU     LIG 1316  12.554  23.200   9.796
    4AU       S 1317  13.641  23.825   8.588
    4AU     LIG 1318  13.892  24.178   8.731
    4AU     LIG 1319  14.318  24.066   8.856
    4AU     LIG 1320  14.621  23.782   9.022
    4AU       S 1321  14.359  23.705   8.332
    4AU     LIG 1322  14.716  23.817   8.518
    4AU     LIG 1323  14.797  24.198   8.694
    4AU     LIG 1324  15.022  24.559   8.852
    4AU       S 1325  13.954  23.349   6.341
    4AU     LIG 1326  14.307  23.373   6.039
    4AU     LIG 1327  14.561  23.033   5.868
    4AU     LIG 1328  14.481  22.708   5.552
    4AU       S 1329  14.313  23.968   6.825
    4AU     LIG 1330  14.223  24.229   6.510
    4AU     LIG 1331  14.448  24.384   6.154
    4AU     LIG 1332  14.795  24.659   6.096
    4AU       S 1333  14.499  22.758   6.834
    4AU     LIG 1334  14.676  22.560   6.462
    4AU     LIG 1335  14.562  22.192   6.212
    4AU     LIG 1336  14.569  21.746   6.077
    4AU       S 1337  13.937  23.143   6.276
    4AU     LIG 1338  13.950  22.812   5.981
    4AU     LIG 1339  13.959  22.798   5.512
    4AU     LIG 1340  14.218  22.919   5.135
    4AU       S 1341  13.115  22.985   6.335
    4AU     LIG 1342  13.407  22.883   6.008
    4AU     LIG 1343  13.417  23.024   5.566
    4AU     LIG 1344  13.183  23.198   5.189
    4AU       S 1345  13.701  23.496   6.444
    4AU     LIG 1346  13.518  23.372   6.058
    4AU     LIG 1347  13.837  23.256   5.756
    4AU     LIG 1348  14.239  23.255   5.525
    4AU       S 1349  12.968  23.400   8.706
    4AU     LIG 1350  12.684  23.094   8.775
    4AU     LIG 1351  12.585  22.814   9.070
    4AU     LIG 1352  12.538  22.755   9.526
    4AU       S 1353  12.903  23.993   8.200
    4AU     LIG 1354  12.718  24.202   8.519
    4AU     LIG 1355  12.389  24.136   8.808
    4AU     LIG 1356  12.233  24.318   9.206
    4AU       S 1357  12.731  22.750   8.400
    4AU     LIG 1358  12.321  22.694   8.190
    4AU     LIG 1359  11.978  22.395   8.292
    4AU     LIG 1360  11.913  22.156   8.686
    4AU       S 1361  13.177  23.076   8.615
    4AU     LIG 1362  13.188  22.754   8.904
    4AU     LIG 1363  13.026  22.716   9.313
    4AU     LIG 1364  13.012  22.885   9.736
    4AU       S 1365  12.932  22.900   6.467
    4AU     LIG 1366  12.699  22.717   6.162
    4AU     LIG 1367  12.774  22.949   5.776
    4AU     LIG 1368  12.705  23.288   5.472
    4AU       S 1369  12.918  22.457   6.804
    4AU     LIG 1370  12.776  22.123   6.550
    4AU     LIG 1371  12.552  22.132   6.162
    4AU     LIG 1372  12.114  22.045   6.045
    4AU       S 1373  12.594  23.623   6.738
    4AU     LIG 1374  12.307  23.979   6.876
    4AU     LIG 1375  12.256  24.387   6.668
    4AU     LIG 1376  12.047  24.513   6.292
    4AU       S 1377  13.117  23.268   6.427
    4AU     LIG 1378  12.725  23.326   6.247
    4AU     LIG 1379  12.788  23.571   5.882
    4AU     LIG 1380  13.165  23.517   5.607
    4AU       S 1381  14.484  23.999   7.019
    4AU     LIG 1382  14.785  23.957   6.666
    4AU     LIG 1383  14.896  24.143   6.258
    4AU     LIG 1384  15.191  24.351   5.971
    4AU       S 1385  14.584  23.784   7.452
    4AU     LIG 1386  14.952  23.884   7.182
    4AU     LIG 1387  15.357  23.950   7.357
    4AU     LIG 1388  15.420  24.181   7.738
    4AU       S 1389  14.759  23.467   7.383
    4AU     LIG 1390  15.211  23.442   7.283
    4AU     LIG 1391  15.608  23.593   7.077
    4AU     LIG 1392  16.025  23.827   7.040
    4AU       S 1393  14.708  22.726   7.715
    4AU     LIG 1394  15.016  22.524   7.970
    4AU     LIG 1395  15.442  22.586   7.950
    4AU     LIG 1396  15.755  22.371   7.704
    4AU       S 1397  14.358  23.955   8.188
    4AU     LIG 1398  14.697  24.244   8.183
    4AU     LIG 1399  14.760  24.652   8.400
    4AU     LIG 1400  14.781  24.996   8.729
    4AU       S 1401  14.783  23.639   7.620
    4AU     LIG 1402  15.176  23.715   7.784
    4AU     LIG 1403  15.621  23.726   7.899
    4AU     LIG 1404  16.079  23.736   7.964
    4AU       S 1405  12.793  23.821   8.142
    4AU     LIG 1406  12.372  23.924   8.244
    4AU     LIG 1407  11.984  23.991   8.517
    4AU     LIG 1408  11.891  24.016   8.978
    4AU       S 1409  12.916  24.172   7.406
    4AU     LIG 1410  12.566  24.359   7.510
    4AU     LIG 1411  12.303  24.434   7.179
    4AU     LIG 1412  11.894  24.484   7.035
    4AU       S 1413  12.392  23.359   7.083
    4AU     LIG 1414  12.151  23.019   6.941
    4AU     LIG 1415  11.697  23.111   6.932
    4AU     LIG 1416  11.424  23.401   7.193
    4AU       S 1417  12.796  24.036   6.910
    4AU     LIG 1418  12.754  24.489   6.866
    4AU     LIG 1419  12.544  24.820   6.596
    4AU     LIG 1420  12.352  24.947   6.193
    4AU       S 1421  12.378  22.946   7.615
    4AU     LIG 1422  11.982  22.962   7.433
    4AU     LIG 1423  11.540  22.942   7.376
    4AU     LIG 1424  11.217  22.886   7.063
    4AU       S 1425  12.497  23.417   8.053
    4AU     LIG 1426  12.055  23.566   8.070
    4AU     LIG 1427  11.914  23.971   8.001
    4AU     LIG 1428  12.145  24.286   7.832
    4AU       S 1429  14.395  22.476   7.643
    4AU     LIG 1430  14.601  22.061   7.558
    4AU     LIG 1431  14.925  21.908   7.830
    4AU     LIG 1432  15.323  22.116   7.840
    4AU       S 1433  14.243  22.390   8.162
    4AU     LIG 1434  14.595  22.236   8.043
    4AU     LIG 1435  14.885  22.120   8.337
    4AU     LIG 1436  14.791  21.844   8.721
    4AU       S 1437  14.674  22.566   7.605
    4AU     LIG 1438  14.918  22.538   7.281
    4AU     LIG 1439  15.350  22.513   7.415
    4AU     LIG 1440  15.727  22.442   7.189
    4AU       S 1441  14.432  22.500   6.958
    4AU     LIG 1442  14.418  22.122   6.725
    4AU     LIG 1443  14.433  21.692   6.575
    4AU     LIG 1444  14.466  21.271   6.341
    4AU       S 1445  12.784  22.566   6.870
    4AU     LIG 1446  12.475  22.700   6.645
    4AU     LIG 1447  12.208  22.413   6.436
    4AU     LIG 1448  11.832  22.152   6.471
    4AU       S 1449  12.403  22.696   7.649
    4AU     LIG 1450  12.006  22.580   7.797
    4AU     LIG 1451  11.704  22.487   7.507
    4AU     LIG 1452  11.582  22.388   7.061
    4AU       S 1453  12.780  22.523   8.319
    4AU     LIG 1454  12.589  22.293   7.976
    4AU     LIG 1455  12.253  22.029   8.078
    4AU     LIG 1456  12.136  21.724   8.425
    4AU       S 1457  12.419  22.990   7.793
    4AU     LIG 1458  12.012  23.080   7.943
    4AU     LIG 1459  11.568  23.058   7.869
    4AU     LIG 1460  11.295  22.706   7.755
    4AU       S 1461  13.013  24.196   7.895
    4AU     LIG 1462  12.609  24.367   8.030
    4AU     LIG 1463  12.268  24.407   8.345
    4AU     LIG 1464  12.025  24.490   8.749
    4AU       S 1465  13.648  24.367   7.896
    4AU     LIG 1466  13.977  24.581   8.123
    4AU     LIG 1467  13.842  24.925   8.382
    4AU     LIG 1468  13.543  25.229   8.549
    4AU       S 1469  13.663  24.597   7.737
    4AU     LIG 1470  13.259  24.667   7.996
    4AU     LIG 1471  13.263  25.101   8.103
    4AU     LIG 1472  13.613  25.262   7.842
    4AU       S 1473  13.605  24.346   7.053
    4AU     LIG 1474  13.610  24.785   7.253
    4AU     LIG 1475  13.736  25.227   7.151
    4AU     LIG 1476  13.995  25.340   6.762
    4AU       S 1477  14.114  23.922   8.373
    4AU     LIG 1478  14.297  24.383   8.467
    4AU     LIG 1479  14.483  24.567   8.846
    4AU     LIG 1480  14.667  24.321   9.188
    4AU       S 1481  13.889  24.375   7.572
    4AU     LIG 1482  14.088  24.809   7.595
    4AU     LIG 1483  14.082  25.080   7.960
    4AU     LIG 1484  13.949  25.426   8.246
    4AU       S 1485  13.469  22.057   8.086
    4AU     LIG 1486  13.870  21.798   8.185
    4AU     LIG 1487  13.928  21.334   8.298
    4AU     LIG 1488  13.855  20.847   8.329
    4AU       S 1489  14.034  22.362   7.980
    4AU     LIG 1490  14.180  21.997   7.827
    4AU     LIG 1491  14.447  21.694   8.005
    4AU     LIG 1492  14.813  21.633   8.263
    4AU       S 1493  13.276  21.983   7.925
    4AU     LIG 1494  13.460  21.533   7.982
    4AU     LIG 1495  13.405  21.129   8.239
    4AU     LIG 1496  13.085  20.794   8.386
    4AU       S 1497  13.007  22.653   8.458
    4AU     LIG 1498  12.779  22.416   8.800
    4AU     LIG 1499  12.433  22.097   8.709
    4AU     LIG 1500  12.158  21.780   8.937
    4AU       S 1501  13.718  22.071   7.274
    4AU     LIG 1502  13.513  21.659   7.215
    4AU     LIG 1503  13.487  21.359   6.888
    4AU     LIG 1504  13.283  21.029   6.641
    4AU       S 1505  13.620  22.096   7.860
    4AU     LIG 1506  13.778  21.761   7.645
    4AU     LIG 1507  13.977  21.448   7.800
    4AU     LIG 1508  13.763  21.071   7.878
    4AU       S 1509  13.467  24.240   6.767
    4AU     LIG 1510  13.321  24.683   6.769
    4AU     LIG 1511  13.535  25.070   6.697
    4AU     LIG 1512  13.580  25.487   6.479
    4AU       S 1513  14.236  24.066   7.177
    4AU     LIG 1514  14.367  24.478   6.958
    4AU     LIG 1515  14.692  24.485   6.612
    4AU     LIG 1516  15.142  24.564   6.475
    4AU       S 1517  13.266  24.249   7.035
    4AU     LIG 1518  13.126  24.615   7.236
    4AU     LIG 1519  13.145  25.068   7.089
    4AU     LIG 1520  13.330  25.461   6.932
    4AU       S 1521  12.820  23.668   6.625
    4AU     LIG 1522  12.604  24.052   6.439
    4AU     LIG 1523  12.579  24.465   6.218
    4AU     LIG 1524  12.768  24.798   5.926
    4AU       S 1525  12.821  22.376   7.098
    4AU     LIG 1526  12.412  22.210   6.917
    4AU     LIG 1527  12.285  21.911   6.570
    4AU     LIG 1528  12.418  21.642   6.208
    4AU       S 1529  13.716  22.100   7.125
    4AU     LIG 1530  13.947  21.923   6.794
    4AU     LIG 1531  13.861  21.581   6.543
    4AU     LIG 1532  13.461  21.428   6.359
    4AU       S 1533  13.974  22.200   7.397
    4AU     LIG 1534  14.213  21.930   7.230
    4AU     LIG 1535  14.047  21.529   7.121
    4AU     LIG 1536  14.212  21.299   6.787
    4AU       S 1537  14.243  22.631   6.696
    4AU     LIG 1538  14.017  22.337   6.478
    4AU     LIG 1539  14.107  21.939   6.264
    4AU     LIG 1540  14.100  21.511   6.061
    5AU     AUC 1541  39.623  43.596   7.530
    5AU     AUC 1542  39.872  43.597   7.362
    5AU     AUC 1543  39.867  43.597   7.698
    5AU     AUC 1544  39.357  43.591   7.376
    5AU     AUC 1545  39.380  43.635   7.700
    5AU     AUC 1546  39.457  43.852   7.496
    5AU     AUC 1547  39.793  43.857   7.494
    5AU     AUC 1548  39.457  43.343   7.551
    5AU     AUC 1549  39.785  43.328   7.550
    5AU     AUC 1550  39.626  43.447   7.800
    5AU     AUC 1551  39.630  43.789   7.765
    5AU     AUC 1552  39.619  43.412   7.285
    5AU     AUC 1553  39.630  43.717   7.261
    5AU     AUC 1554  40.185  43.591   7.207
    5AU     AUC 1555  40.190  43.579   7.547
    5AU     AUC 1556  40.160  43.584   7.898
    5AU     AUC 1557  39.056  43.546   7.238
    5AU     AUC 1558  39.050  43.622   7.561
    5AU     AUC 1559  39.086  43.682   7.881
    5AU     AUC 1560  39.291  44.155   7.436
    5AU     AUC 1561  39.648  44.150   7.418
    5AU     AUC 1562  39.984  44.140   7.456
    5AU     AUC 1563  39.267  43.047   7.573
    5AU     AUC 1564  39.610  43.031   7.555
    5AU     AUC 1565  39.960  43.030   7.558
    5AU     AUC 1566  39.598  43.292   8.111
    5AU     AUC 1567  39.622  43.642   8.097
    5AU     AUC 1568  39.667  44.000   8.048
    5AU     AUC 1569  39.658  43.222   7.003
    5AU     AUC 1570  39.601  43.551   6.953
    5AU     AUC 1571  39.583  43.866   6.943
    5AU     AUC 1572  39.871  43.406   8.013
    5AU     AUC 1573  39.909  43.762   7.992
    5AU     AUC 1574  39.926  43.435   7.064
    5AU     AUC 1575  39.879  43.736   7.074
    5AU     AUC 1576  39.340  43.520   8.012
    5AU     AUC 1577  39.372  43.868   7.956
    5AU     AUC 1578  39.344  43.366   7.109
    5AU     AUC 1579  39.293  43.685   7.073
    5AU     AUC 1580  40.107  43.865   7.352
    5AU     AUC 1581  40.062  43.847   7.688
    5AU     AUC 1582  39.153  43.856   7.370
    5AU     AUC 1583  39.205  43.947   7.691
    5AU     AUC 1584  40.088  43.323   7.402
    5AU     AUC 1585  40.036  43.279   7.746
    5AU     AUC 1586  39.166  43.277   7.397
    5AU     AUC 1587  39.194  43.370   7.732
    5AU     AUC 1588  39.516  44.103   7.747
    5AU     AUC 1589  39.828  44.069   7.766
    5AU     AUC 1590  39.439  43.168   7.839
    5AU     AUC 1591  39.741  43.116   7.824
    5AU     AUC 1592  39.420  44.007   7.183
    5AU     AUC 1593  39.785  44.035   7.200
    5AU     AUC 1594  39.479  43.117   7.274
    5AU     AUC 1595  39.842  43.167   7.275
    5AU    AUSL 1596  40.141  43.524   8.298
    5AU    AUSL 1597  39.872  43.141   8.222
    5AU     AUL 1598  40.174  43.169   8.397
    5AU    AUSL 1599  39.731  43.468   8.463
    5AU    AUSL 1600  39.483  43.858   8.443
    5AU     AUL 1601  39.721  43.766   8.725
    5AU    AUSL 1602  39.816  43.814   8.182
    5AU    AUSL 1603  40.267  43.900   8.111
    5AU     AUL 1604  40.095  43.832   8.438
    5AU    AUSL 1605  40.060  43.631   6.834
    5AU    AUSL 1606  39.887  44.009   6.973
    5AU     AUL 1607  40.161  43.960   6.710
    5AU    AUSL 1608  39.869  43.317   6.598
    5AU    AUSL 1609  40.374  43.380   6.986
    5AU     AUL 1610  40.248  43.472   6.648
    5AU    AUSL 1611  39.679  43.768   6.675
    5AU    AUSL 1612  39.505  43.376   6.819
    5AU     AUL 1613  39.606  43.438   6.482
    5AU    AUSL 1614  39.092  43.805   8.232
    5AU    AUSL 1615  39.433  44.108   8.093
    5AU     AUL 1616  39.267  44.084   8.412
    5AU    AUSL 1617  39.401  43.499   8.192
    5AU    AUSL 1618  38.966  43.384   8.142
    5AU     AUL 1619  38.950  43.573   8.327
    5AU    AUSL 1620  39.065  43.348   6.807
    5AU    AUSL 1621  39.323  43.021   6.975
    5AU     AUL 1622  39.361  43.069   6.660
    5AU    AUSL 1623  39.246  43.717   6.660
    5AU    AUSL 1624  38.969  43.708   7.044
    5AU     AUL 1625  38.848  43.575   6.786
    5AU    AUSL 1626  40.407  44.086   7.499
    5AU    AUSL 1627  40.265  43.841   7.146
    5AU     AUL 1628  40.563  44.023   7.100
    5AU    AUSL 1629  40.589  43.674   7.385
    5AU    AUSL 1630  40.547  43.372   7.756
    5AU     AUL 1631  40.844  43.428   7.533
    5AU    AUSL 1632  40.310  43.726   7.729
    5AU    AUSL 1633  40.066  44.117   7.771
    5AU     AUL 1634  40.399  44.117   7.833
    5AU    AUSL 1635  39.041  44.228   7.481
    5AU    AUSL 1636  39.081  43.997   7.849
    5AU     AUL 1637  38.765  44.235   7.696
    5AU    AUSL 1638  38.852  43.831   7.437
    5AU    AUSL 1639  38.981  44.139   7.068
    5AU     AUL 1640  38.751  44.056   7.230
    5AU    AUSL 1641  38.713  43.794   7.877
    5AU    AUSL 1642  38.691  43.438   7.378
    5AU     AUL 1643  38.540  43.771   7.562
    5AU    AUSL 1644  40.309  43.024   7.616
    5AU    AUSL 1645  40.151  43.315   7.926
    5AU     AUL 1646  40.456  43.215   7.995
    5AU    AUSL 1647  40.270  43.395   7.397
    5AU    AUSL 1648  40.270  42.987   7.182
    5AU     AUL 1649  40.516  43.194   7.268
    5AU    AUSL 1650  38.876  43.072   7.593
    5AU    AUSL 1651  39.056  43.276   7.225
    5AU     AUL 1652  38.701  43.166   7.248
    5AU    AUSL 1653  38.956  43.483   7.726
    5AU    AUSL 1654  39.196  43.125   7.877
    5AU     AUL 1655  38.866  43.129   7.936
    5AU    AUSL 1656  39.691  44.407   7.910
    5AU    AUSL 1657  39.236  44.409   7.828
    5AU     AUL 1658  39.470  44.455   8.171
    5AU    AUSL 1659  39.517  44.295   7.529
    5AU    AUSL 1660  39.754  44.413   7.177
    5AU     AUL 1661  39.501  44.642   7.476
    5AU    AUSL 1662  39.950  44.466   7.558
    5AU    AUSL 1663  39.955  44.215   8.185
    5AU     AUL 1664  40.061  44.459   7.912
    5AU    AUSL 1665  39.566  42.923   8.004
    5AU    AUSL 1666  39.991  42.908   7.875
    5AU     AUL 1667  39.758  42.844   8.257
    5AU    AUSL 1668  39.260  42.733   7.724
    5AU    AUSL 1669  39.325  43.104   8.309
    5AU     AUL 1670  39.236  42.814   8.075
    5AU    AUSL 1671  39.703  42.655   7.685
    5AU    AUSL 1672  39.485  42.902   7.388
    5AU     AUL 1673  39.401  42.537   7.497
    5AU    AUSL 1674  39.584  44.246   6.786
    5AU    AUSL 1675  40.150  44.263   7.207
    5AU     AUL 1676  39.906  44.347   6.870
    5AU    AUSL 1677  39.329  44.370   7.146
    5AU    AUSL 1678  39.363  43.945   6.994
    5AU     AUL 1679  39.258  44.215   6.790
    5AU    AUSL 1680  39.712  42.837   7.006
    5AU    AUSL 1681  39.077  42.834   7.292
    5AU     AUL 1682  39.373  42.700   7.057
    5AU    AUSL 1683  39.919  42.891   7.400
    5AU    AUSL 1684  39.935  43.207   7.006
    5AU     AUL 1685  40.025  42.832   7.013
    5AU       S 1686  40.202  42.718   8.265
    5AU     LIG 1687  40.411  42.330   8.345
    5AU     LIG 1688  40.431  41.954   8.567
    5AU     LIG 1689  40.554  41.889   9.017
    5AU       S 1690  40.119  43.469   8.748
    5AU     LIG 1691  40.377  43.789   8.945
    5AU     LIG 1692  40.594  43.726   9.359
    5AU     LIG 1693  40.821  43.455   9.689
    5AU       S 1694  39.764  43.293   8.665
    5AU     LIG 1695  39.774  43.384   9.115
    5AU     LIG 1696  40.164  43.371   9.419
    5AU     LIG 1697  40.414  43.138   9.774
    5AU       S 1698  39.276  43.660   8.672
    5AU     LIG 1699  39.257  43.615   9.146
    5AU     LIG 1700  38.947  43.642   9.496
    5AU     LIG 1701  38.648  43.874   9.799
    5AU       S 1702  39.727  44.226   8.576
    5AU     LIG 1703  39.988  44.556   8.756
    5AU     LIG 1704  40.400  44.429   8.850
    5AU     LIG 1705  40.722  44.201   9.076
    5AU       S 1706  40.460  44.095   8.302
    5AU     LIG 1707  40.778  44.247   8.553
    5AU     LIG 1708  40.864  44.637   8.753
    5AU     LIG 1709  41.164  44.813   9.076
    5AU       S 1710  40.009  43.748   6.330
    5AU     LIG 1711  40.372  43.729   6.027
    5AU     LIG 1712  40.535  43.347   5.849
    5AU     LIG 1713  40.500  43.097   5.473
    5AU       S 1714  40.347  44.372   6.787
    5AU     LIG 1715  40.284  44.760   6.564
    5AU     LIG 1716  40.517  44.945   6.223
    5AU     LIG 1717  40.791   0.055   5.895
    5AU       S 1718  40.557  43.138   6.785
    5AU     LIG 1719  40.595  42.989   6.320
    5AU     LIG 1720  40.587  42.568   6.138
    5AU     LIG 1721  40.706  42.136   6.251
    5AU       S 1722  39.984  43.555   6.264
    5AU     LIG 1723  40.049  43.222   6.002
    5AU     LIG 1724  39.977  43.111   5.568
    5AU     LIG 1725  40.108  43.277   5.151
    5AU       S 1726  39.176  43.368   6.341
    5AU     LIG 1727  39.232  43.405   5.934
    5AU     LIG 1728  39.379  43.205   5.584
    5AU     LIG 1729  39.614  43.344   5.252
    5AU       S 1730  39.765  43.882   6.452
    5AU     LIG 1731  39.537  43.771   6.089
    5AU     LIG 1732  39.729  43.564   5.734
    5AU     LIG 1733  40.165  43.587   5.563
    5AU       S 1734  39.064  43.786   8.715
    5AU     LIG 1735  38.819  43.440   8.828
    5AU     LIG 1736  38.578  43.365   9.194
    5AU     LIG 1737  38.553  43.346   9.650
    5AU       S 1738  38.984  44.384   8.201
    5AU     LIG 1739  38.703  44.573   8.452
    5AU     LIG 1740  38.633  44.509   8.874
    5AU     LIG 1741  38.555  44.751   9.231
    5AU       S 1742  38.844  43.132   8.425
    5AU     LIG 1743  38.445  43.235   8.276
    5AU     LIG 1744  38.117  42.910   8.284
    5AU     LIG 1745  38.214  42.557   8.585
    5AU       S 1746  39.287  43.467   8.624
    5AU     LIG 1747  39.274  43.162   8.930
    5AU     LIG 1748  39.028  43.147   9.306
    5AU     LIG 1749  39.036  43.190   9.765
    5AU       S 1750  38.997  43.290   6.456
    5AU     LIG 1751  38.799  43.122   6.097
    5AU     LIG 1752  38.824  43.277   5.663
    5AU     LIG 1753  38.739  43.645   5.415
    5AU       S 1754  38.985  42.832   6.807
    5AU     LIG 1755  38.697  42.575   6.557
    5AU     LIG 1756  38.488  42.339   6.235
    5AU     LIG 1757  38.327  42.003   5.959
    5AU       S 1758  38.647  43.988   6.748
    5AU     LIG 1759  38.357  44.367   6.807
    5AU     LIG 1760  38.227  44.650   6.469
    5AU     LIG 1761  38.203  44.704   6.000
    5AU       S 1762  39.181  43.655   6.443
    5AU     LIG 1763  38.890  43.752   6.162
    5AU     LIG 1764  39.046  43.861   5.765
    5AU     LIG 1765  39.268  43.684   5.414
    5AU       S 1766  40.460  44.396   6.878
    5AU     LIG 1767  40.700  44.463   6.451
    5AU     LIG 1768  41.007  44.688   6.190
    5AU     LIG 1769  41.459  44.824   6.139
    5AU       S 1770  40.756  44.121   7.537
    5AU     LIG 1771  41.058  44.454   7.501
    5AU     LIG 1772  41.499  44.550   7.530
    5AU     LIG 1773  41.817  44.836   7.690
    5AU       S 1774  40.842  43.892   7.506
    5AU     LIG 1775  41.292  43.991   7.481
    5AU     LIG 1776  41.643  44.147   7.232
    5AU     LIG 1777  41.820  44.558   7.101
    5AU       S 1778  40.781  42.997   7.751
    5AU     LIG 1779  41.080  42.897   8.055
    5AU     LIG 1780  41.516  42.896   8.010
    5AU     LIG 1781  41.712  42.693   7.701
    5AU       S 1782  40.411  44.364   8.214
    5AU     LIG 1783  40.769  44.614   8.185
    5AU     LIG 1784  40.839   0.010   8.395
    5AU     LIG 1785  40.872   0.157   8.832
    5AU       S 1786  40.743  43.818   7.817
    5AU     LIG 1787  41.083  44.145   7.931
    5AU     LIG 1788  41.575  44.183   7.891
    5AU     LIG 1789  42.010  43.975   7.926
    5AU       S 1790  38.881  44.199   8.136
    5AU     LIG 1791  38.630  44.068   8.482
    5AU     LIG 1792  38.239  44.322   8.604
    5AU     LIG 1793  38.131  44.636   8.950
    5AU       S 1794  38.971  44.547   7.401
    5AU     LIG 1795  38.707  44.891   7.471
    5AU     LIG 1796  38.458  44.805   7.142
    5AU     LIG 1797  38.086  44.816   6.953
    5AU       S 1798  38.456  43.712   7.094
    5AU     LIG 1799  37.998  43.702   7.123
    5AU     LIG 1800  37.696  44.025   7.023
    5AU     LIG 1801  37.342  44.262   6.844
    5AU       S 1802  38.850  44.398   6.912
    5AU     LIG 1803  38.859  44.807   6.814
    5AU     LIG 1804  38.493   0.035   6.673
    5AU     LIG 1805  38.212   0.124   6.296
    5AU       S 1806  38.454  43.313   7.635
    5AU     LIG 1807  38.166  43.239   7.303
    5AU     LIG 1808  37.738  43.203   7.112
    5AU     LIG 1809  37.456  42.844   7.073
    5AU       S 1810  38.599  43.778   8.059
    5AU     LIG 1811  38.193  43.895   8.224
    5AU     LIG 1812  37.800  44.081   8.037
    5AU     LIG 1813  37.674  44.184   7.583
    5AU       S 1814  40.472  42.862   7.627
    5AU     LIG 1815  40.652  42.469   7.488
    5AU     LIG 1816  40.989  42.226   7.714
    5AU     LIG 1817  41.332  42.395   7.987
    5AU       S 1818  40.368  42.792   8.116
    5AU     LIG 1819  40.709  42.554   7.997
    5AU     LIG 1820  40.961  42.450   8.345
    5AU     LIG 1821  40.915  42.108   8.671
    5AU       S 1822  40.757  42.951   7.565
    5AU     LIG 1823  40.893  42.876   7.183
    5AU     LIG 1824  41.281  43.066   7.077
    5AU     LIG 1825  41.683  42.971   7.281
    5AU       S 1826  40.477  42.887   6.894
    5AU     LIG 1827  40.432  42.480   6.710
    5AU     LIG 1828  40.364  42.033   6.624
    5AU     LIG 1829  40.372  41.741   6.257
    5AU       S 1830  38.850  42.947   6.878
    5AU     LIG 1831  38.539  43.065   6.597
    5AU     LIG 1832  38.232  42.796   6.367
    5AU     LIG 1833  38.024  42.485   6.070
    5AU       S 1834  38.495  43.065   7.667
    5AU     LIG 1835  38.134  42.882   7.756
    5AU     LIG 1836  37.777  43.042   7.595
    5AU     LIG 1837  37.340  43.034   7.535
    5AU       S 1838  38.874  42.922   8.344
    5AU     LIG 1839  38.557  42.759   8.075
    5AU     LIG 1840  38.251  42.427   8.088
    5AU     LIG 1841  38.094  42.092   8.348
    5AU       S 1842  38.492  43.358   7.805
    5AU     LIG 1843  38.041  43.345   7.946
    5AU     LIG 1844  37.665  43.074   8.081
    5AU     LIG 1845  37.258  42.868   8.026
    5AU       S 1846  39.118  44.553   7.871
    5AU     LIG 1847  38.835  44.837   7.963
    5AU     LIG 1848  38.457  44.930   8.182
    5AU     LIG 1849  38.405  44.946   8.651
    5AU       S 1850  39.703  44.757   7.881
    5AU     LIG 1851  39.885  44.754   8.282
    5AU     LIG 1852  39.965   0.124   8.546
    5AU     LIG 1853  39.776   0.566   8.571
    5AU       S 1854  39.818  44.936   7.723
    5AU     LIG 1855  39.332   0.044   7.705
    5AU     LIG 1856  39.251   0.393   7.933
    5AU     LIG 1857  39.578   0.689   8.025
    5AU       S 1858  39.671  44.715   7.043
    5AU     LIG 1859  39.633   0.108   7.267
    5AU     LIG 1860  39.742   0.538   7.173
    5AU     LIG 1861  40.013   0.766   6.853
    5AU       S 1862  40.185  44.318   8.363
    5AU     LIG 1863  40.361  44.779   8.467
    5AU     LIG 1864  40.417  44.948   8.855
    5AU     LIG 1865  40.657  44.764   9.211
    5AU       S 1866  39.969  44.728   7.524
    5AU     LIG 1867  40.115   0.157   7.384
    5AU     LIG 1868  39.936   0.467   7.690
    5AU     LIG 1869  40.058   0.517   8.139
    5AU       S 1870  39.566  42.453   8.093
    5AU     LIG 1871  39.918  42.128   8.162
    5AU     LIG 1872  40.072  41.692   8.306
    5AU     LIG 1873  39.923  41.327   8.576
    5AU       S 1874  40.129  42.757   7.972
    5AU     LIG 1875  40.255  42.372   7.827
    5AU     LIG 1876  40.377  41.979   7.990
    5AU     LIG 1877  40.810  42.007   8.170
    5AU       S 1878  39.375  42.389   7.940
    5AU     LIG 1879  39.413  42.003   7.793
    5AU     LIG 1880  39.342  41.596   7.947
    5AU     LIG 1881  39.328  41.161   7.951
    5AU       S 1882  39.114  43.041   8.479
    5AU     LIG 1883  38.898  42.784   8.823
    5AU     LIG 1884  38.637  42.372   8.808
    5AU     LIG 1885  38.236  42.108   8.875
    5AU       S 1886  39.802  42.448   7.283
    5AU     LIG 1887  39.492  42.092   7.280
    5AU     LIG 1888  39.525  41.836   6.942
    5AU     LIG 1889  39.735  41.478   7.008
    5AU       S 1890  39.725  42.476   7.849
    5AU     LIG 1891  39.881  42.107   7.634
    5AU     LIG 1892  39.844  41.719   7.829
    5AU     LIG 1893  39.789  41.344   8.050
    5AU       S 1894  39.518  44.618   6.759
    5AU     LIG 1895  39.424   0.072   6.784
    5AU     LIG 1896  39.768   0.338   6.695
    5AU     LIG 1897  39.763   0.693   6.395
    5AU       S 1898  40.295  44.461   7.150
    5AU     LIG 1899  40.511  44.880   7.011
    5AU     LIG 1900  40.821  44.925   6.634
    5AU     LIG 1901  41.129   0.175   6.317
    5AU       S 1902  39.325  44.626   7.027
    5AU     LIG 1903  39.154  44.979   7.223
    5AU     LIG 1904  39.235   0.418   7.133
    5AU     LIG 1905  39.373   0.643   6.746
    5AU       S 1906  38.876  44.035   6.629
    5AU     LIG 1907  38.697  44.417   6.416
    5AU     LIG 1908  38.724  44.862   6.272
    5AU     LIG 1909  38.982   0.203   6.511
    5AU       S 1910  38.889  42.750   7.102
    5AU     LIG 1911  38.416  42.702   6.975
    5AU     LIG 1912  38.201  42.392   6.684
    5AU     LIG 1913  38.067  42.057   6.395
    5AU       S 1914  39.780  42.467   7.138
    5AU     LIG 1915  39.933  42.345   6.746
    5AU     LIG 1916  39.824  41.964   6.498
    5AU     LIG 1917  39.582  41.535   6.510
    5AU       S 1918  40.066  42.568   7.400
    5AU     LIG 1919  40.245  42.222   7.178
    5AU     LIG 1920  40.035  41.885   6.967
    5AU     LIG 1921  40.086  41.557   6.643
    5AU       S 1922  40.264  43.013   6.678
    5AU     LIG 1923  40.105  42.732   6.402
    5AU     LIG 1924  40.157  42.308   6.253
    5AU     LIG 1925  40.350  42.148   5.872
    6AU     AUC 1926  18.284  31.126   7.520
    6AU     AUC 1927  18.534  31.118   7.358
    6AU     AUC 1928  18.526  31.119   7.693
    6AU     AUC 1929  18.019  31.129   7.360
    6AU     AUC 1930  18.039  31.173   7.684
    6AU     AUC 1931  18.126  31.388   7.483
    6AU     AUC 1932  18.462  31.382   7.489
    6AU     AUC 1933  18.110  30.879   7.536
    6AU     AUC 1934  18.438  30.852   7.543
    6AU     AUC 1935  18.279  30.978   7.790
    6AU     AUC 1936  18.293  31.320   7.756
    6AU     AUC 1937  18.278  30.942   7.274
    6AU     AUC 1938  18.298  31.248   7.251
    6AU     AUC 1939  18.849  31.100   7.206
    6AU     AUC 1940  18.849  31.086   7.549
    6AU     AUC 1941  18.815  31.096   7.897
    6AU     AUC 1942  17.719  31.093   7.218
    6AU     AUC 1943  17.710  31.171   7.538
    6AU     AUC 1944  17.741  31.228   7.858
    6AU     AUC 1945  17.970  31.695   7.420
    6AU     AUC 1946  18.327  31.683   7.412
    6AU     AUC 1947  18.660  31.661   7.460
    6AU     AUC 1948  17.910  30.588   7.556
    6AU     AUC 1949  18.256  30.561   7.540
    6AU     AUC 1950  18.605  30.547   7.555
    6AU     AUC 1951  18.242  30.823   8.100
    6AU     AUC 1952  18.273  31.170   8.085
    6AU     AUC 1953  18.331  31.528   8.039
    6AU     AUC 1954  18.317  30.753   6.995
    6AU     AUC 1955  18.273  31.083   6.941
    6AU     AUC 1956  18.263  31.398   6.933
    6AU     AUC 1957  18.519  30.930   8.009
    6AU     AUC 1958  18.571  31.289   7.984
    6AU     AUC 1959  18.591  30.958   7.058
    6AU     AUC 1960  18.551  31.259   7.069
    6AU     AUC 1961  17.988  31.056   7.996
    6AU     AUC 1962  18.032  31.401   7.942
    6AU     AUC 1963  18.005  30.905   7.094
    6AU     AUC 1964  17.966  31.223   7.055
    6AU     AUC 1965  18.775  31.375   7.353
    6AU     AUC 1966  18.732  31.364   7.684
    6AU     AUC 1967  17.826  31.402   7.348
    6AU     AUC 1968  17.873  31.490   7.673
    6AU     AUC 1969  18.742  30.837   7.401
    6AU     AUC 1970  18.684  30.794   7.745
    6AU     AUC 1971  17.817  30.821   7.379
    6AU     AUC 1972  17.843  30.914   7.713
    6AU     AUC 1973  18.187  31.636   7.738
    6AU     AUC 1974  18.500  31.594   7.761
    6AU     AUC 1975  18.083  30.705   7.822
    6AU     AUC 1976  18.388  30.643   7.817
    6AU     AUC 1977  18.100  31.545   7.170
    6AU     AUC 1978  18.461  31.562   7.196
    6AU     AUC 1979  18.127  30.653   7.263
    6AU     AUC 1980  18.494  30.690   7.269
    6AU    AUSL 1981  18.784  31.042   8.297
    6AU    AUSL 1982  18.523  30.654   8.228
    6AU     AUL 1983  18.827  30.690   8.401
    6AU    AUSL 1984  18.367  30.991   8.445
    6AU    AUSL 1985  18.128  31.381   8.427
    6AU     AUL 1986  18.358  31.293   8.709
    6AU    AUSL 1987  18.471  31.343   8.177
    6AU    AUSL 1988  18.931  31.408   8.107
    6AU     AUL 1989  18.748  31.347   8.437
    6AU    AUSL 1990  18.743  31.156   6.826
    6AU    AUSL 1991  18.570  31.535   6.970
    6AU     AUL 1992  18.845  31.491   6.715
    6AU    AUSL 1993  18.545  30.847   6.593
    6AU    AUSL 1994  19.036  30.886   6.989
    6AU     AUL 1995  18.931  30.991   6.656
    6AU    AUSL 1996  18.362  31.295   6.669
    6AU    AUSL 1997  18.175  30.905   6.806
    6AU     AUL 1998  18.283  30.964   6.470
    6AU    AUSL 1999  17.740  31.344   8.206
    6AU    AUSL 2000  18.091  31.640   8.084
    6AU     AUL 2001  17.913  31.614   8.399
    6AU    AUSL 2002  18.039  31.028   8.173
    6AU    AUSL 2003  17.604  30.924   8.119
    6AU     AUL 2004  17.577  31.126   8.293
    6AU    AUSL 2005  17.737  30.893   6.787
    6AU    AUSL 2006  17.975  30.561   6.967
    6AU     AUL 2007  18.025  30.603   6.646
    6AU    AUSL 2008  17.930  31.254   6.641
    6AU    AUSL 2009  17.644  31.257   7.017
    6AU     AUL 2010  17.526  31.105   6.763
    6AU    AUSL 2011  19.100  31.583   7.499
    6AU    AUSL 2012  18.927  31.345   7.162
    6AU     AUL 2013  19.203  31.464   7.050
    6AU    AUSL 2014  19.256  31.165   7.384
    6AU    AUSL 2015  19.198  30.870   7.760
    6AU     AUL 2016  19.499  30.914   7.544
    6AU    AUSL 2017  18.975  31.232   7.727
    6AU    AUSL 2018  18.749  31.639   7.758
    6AU     AUL 2019  19.080  31.617   7.834
    6AU    AUSL 2020  17.722  31.778   7.460
    6AU    AUSL 2021  17.747  31.543   7.827
    6AU     AUL 2022  17.443  31.794   7.667
    6AU    AUSL 2023  17.525  31.385   7.408
    6AU    AUSL 2024  17.668  31.689   7.046
    6AU     AUL 2025  17.433  31.615   7.199
    6AU    AUSL 2026  17.370  31.357   7.842
    6AU    AUSL 2027  17.346  30.999   7.356
    6AU     AUL 2028  17.204  31.336   7.524
    6AU    AUSL 2029  18.951  30.531   7.615
    6AU    AUSL 2030  18.799  30.828   7.928
    6AU     AUL 2031  19.099  30.715   7.994
    6AU    AUSL 2032  18.923  30.902   7.398
    6AU    AUSL 2033  18.916  30.495   7.180
    6AU     AUL 2034  19.167  30.693   7.270
    6AU    AUSL 2035  17.513  30.628   7.572
    6AU    AUSL 2036  17.705  30.824   7.205
    6AU     AUL 2037  17.341  30.722   7.247
    6AU    AUSL 2038  17.611  31.036   7.706
    6AU    AUSL 2039  17.837  30.668   7.854
    6AU     AUL 2040  17.515  30.663   7.900
    6AU    AUSL 2041  18.364  31.928   7.911
    6AU    AUSL 2042  17.914  31.950   7.814
    6AU     AUL 2043  18.132  31.981   8.164
    6AU    AUSL 2044  18.198  31.830   7.521
    6AU    AUSL 2045  18.445  31.952   7.175
    6AU     AUL 2046  18.192  32.180   7.464
    6AU    AUSL 2047  18.626  32.003   7.568
    6AU    AUSL 2048  18.637  31.735   8.174
    6AU     AUL 2049  18.747  31.975   7.906
    6AU    AUSL 2050  18.209  30.478   7.986
    6AU    AUSL 2051  18.635  30.421   7.878
    6AU     AUL 2052  18.382  30.370   8.247
    6AU    AUSL 2053  17.898  30.271   7.714
    6AU    AUSL 2054  17.951  30.634   8.290
    6AU     AUL 2055  17.874  30.357   8.059
    6AU    AUSL 2056  18.337  30.184   7.683
    6AU    AUSL 2057  18.129  30.434   7.379
    6AU     AUL 2058  18.033  30.070   7.485
    6AU    AUSL 2059  18.281  31.783   6.780
    6AU    AUSL 2060  18.819  31.764   7.238
    6AU     AUL 2061  18.618  31.879   6.883
    6AU    AUSL 2062  18.021  31.907   7.133
    6AU    AUSL 2063  18.044  31.483   6.975
    6AU     AUL 2064  17.949  31.762   6.777
    6AU    AUSL 2065  18.358  30.367   6.998
    6AU    AUSL 2066  17.719  30.382   7.282
    6AU     AUL 2067  18.015  30.238   7.046
    6AU    AUSL 2068  18.561  30.410   7.394
    6AU    AUSL 2069  18.593  30.731   7.000
    6AU     AUL 2070  18.669  30.361   6.995
    6AU       S 2071  18.821  30.231   8.285
    6AU     LIG 2072  18.989  29.795   8.259
    6AU     LIG 2073  19.008  29.357   8.327
    6AU     LIG 2074  19.291  29.312   8.692
    6AU       S 2075  18.735  30.981   8.750
    6AU     LIG 2076  19.085  31.188   8.886
    6AU     LIG 2077  19.313  31.169   9.286
    6AU     LIG 2078  19.490  30.998   9.696
    6AU       S 2079  18.385  30.818   8.653
    6AU     LIG 2080  18.414  30.838   9.109
    6AU     LIG 2081  18.845  30.851   9.324
    6AU     LIG 2082  19.165  30.602   9.581
    6AU       S 2083  17.917  31.177   8.637
    6AU     LIG 2084  17.987  31.151   9.091
    6AU     LIG 2085  17.717  31.216   9.449
    6AU     LIG 2086  17.593  31.218   9.911
    6AU       S 2087  18.379  31.747   8.547
    6AU     LIG 2088  18.620  32.041   8.755
    6AU     LIG 2089  19.029  31.911   8.877
    6AU     LIG 2090  19.366  31.624   8.916
    6AU       S 2091  19.123  31.603   8.308
    6AU     LIG 2092  19.532  31.699   8.442
    6AU     LIG 2093  19.687  32.030   8.706
    6AU     LIG 2094  19.815  32.365   8.993
    6AU       S 2095  18.703  31.274   6.332
    6AU     LIG 2096  18.928  31.267   5.904
    6AU     LIG 2097  19.079  30.908   5.681
    6AU     LIG 2098  19.198  30.494   5.521
    6AU       S 2099  19.075  31.882   6.866
    6AU     LIG 2100  19.053  32.281   6.708
    6AU     LIG 2101  19.263  32.385   6.332
    6AU     LIG 2102  19.415  32.597   5.938
    6AU       S 2103  19.211  30.632   6.789
    6AU     LIG 2104  19.291  30.470   6.341
    6AU     LIG 2105  19.303  30.061   6.132
    6AU     LIG 2106  19.393  29.608   6.239
    6AU       S 2107  18.673  31.088   6.276
    6AU     LIG 2108  18.831  30.713   6.147
    6AU     LIG 2109  18.722  30.538   5.744
    6AU     LIG 2110  18.767  30.697   5.311
    6AU       S 2111  17.854  30.906   6.320
    6AU     LIG 2112  17.908  30.943   5.894
    6AU     LIG 2113  18.078  30.807   5.493
    6AU     LIG 2114  17.986  30.991   5.071
    6AU       S 2115  18.450  31.407   6.448
    6AU     LIG 2116  18.246  31.276   6.066
    6AU     LIG 2117  18.482  31.035   5.751
    6AU     LIG 2118  18.741  31.208   5.405
    6AU       S 2119  17.711  31.305   8.694
    6AU     LIG 2120  17.412  30.999   8.760
    6AU     LIG 2121  17.265  30.804   9.123
    6AU     LIG 2122  17.319  30.917   9.573
    6AU       S 2123  17.652  31.937   8.185
    6AU     LIG 2124  17.397  32.173   8.464
    6AU     LIG 2125  17.230  32.237   8.903
    6AU     LIG 2126  16.838  32.449   9.052
    6AU       S 2127  17.474  30.681   8.386
    6AU     LIG 2128  17.125  30.550   8.622
    6AU     LIG 2129  16.882  30.292   8.338
    6AU     LIG 2130  16.648  29.908   8.211
    6AU       S 2131  17.909  30.994   8.589
    6AU     LIG 2132  17.924  30.691   8.894
    6AU     LIG 2133  17.742  30.696   9.293
    6AU     LIG 2134  17.825  30.790   9.711
    6AU       S 2135  17.668  30.825   6.426
    6AU     LIG 2136  17.574  30.526   6.095
    6AU     LIG 2137  17.591  30.629   5.640
    6AU     LIG 2138  17.632  31.055   5.442
    6AU       S 2139  17.636  30.411   6.815
    6AU     LIG 2140  17.619  30.035   6.644
    6AU     LIG 2141  17.413  29.986   6.267
    6AU     LIG 2142  17.072  29.816   6.030
    6AU       S 2143  17.358  31.524   6.711
    6AU     LIG 2144  17.021  31.805   6.774
    6AU     LIG 2145  16.874  32.108   6.460
    6AU     LIG 2146  16.940  32.256   6.022
    6AU       S 2147  17.863  31.188   6.420
    6AU     LIG 2148  17.586  31.319   6.147
    6AU     LIG 2149  17.766  31.434   5.764
    6AU     LIG 2150  18.117  31.322   5.487
    6AU       S 2151  19.248  31.903   7.129
    6AU     LIG 2152  19.574  31.950   6.813
    6AU     LIG 2153  19.715  32.136   6.408
    6AU     LIG 2154  20.015  32.295   6.115
    6AU       S 2155  19.408  31.610   7.498
    6AU     LIG 2156  19.673  31.991   7.464
    6AU     LIG 2157  20.139  32.052   7.470
    6AU     LIG 2158  20.482  31.882   7.226
    6AU       S 2159  19.522  31.375   7.456
    6AU     LIG 2160  19.944  31.547   7.516
    6AU     LIG 2161  20.367  31.392   7.395
    6AU     LIG 2162  20.807  31.493   7.373
    6AU       S 2163  19.415  30.484   7.749
    6AU     LIG 2164  19.743  30.381   7.995
    6AU     LIG 2165  20.196  30.444   7.954
    6AU     LIG 2166  20.594  30.261   7.867
    6AU       S 2167  19.101  31.879   8.205
    6AU     LIG 2168  19.469  32.166   8.244
    6AU     LIG 2169  19.655  32.516   8.493
    6AU     LIG 2170  19.536  32.811   8.841
    6AU       S 2171  19.420  31.318   7.800
    6AU     LIG 2172  19.610  31.724   7.934
    6AU     LIG 2173  20.049  31.846   7.936
    6AU     LIG 2174  20.481  31.736   7.757
    6AU       S 2175  17.555  31.753   8.109
    6AU     LIG 2176  17.283  31.655   8.446
    6AU     LIG 2177  16.906  31.925   8.560
    6AU     LIG 2178  16.515  32.202   8.655
    6AU       S 2179  17.666  32.097   7.374
    6AU     LIG 2180  17.573  32.502   7.398
    6AU     LIG 2181  17.201  32.464   7.155
    6AU     LIG 2182  16.817  32.245   6.973
    6AU       S 2183  17.137  31.276   7.053
    6AU     LIG 2184  16.727  31.150   6.925
    6AU     LIG 2185  16.466  31.373   7.164
    6AU     LIG 2186  16.623  31.809   7.174
    6AU       S 2187  17.528  31.949   6.864
    6AU     LIG 2188  17.574  32.395   6.810
    6AU     LIG 2189  17.267  32.686   6.648
    6AU     LIG 2190  17.089  32.704   6.228
    6AU       S 2191  17.103  30.889   7.635
    6AU     LIG 2192  16.807  30.834   7.311
    6AU     LIG 2193  16.362  30.817   7.163
    6AU     LIG 2194  15.995  30.581   6.964
    6AU       S 2195  17.253  31.365   8.019
    6AU     LIG 2196  16.872  31.336   8.254
    6AU     LIG 2197  16.527  31.664   8.284
    6AU     LIG 2198  16.494  32.114   8.137
    6AU       S 2199  19.100  30.362   7.628
    6AU     LIG 2200  19.214  29.953   7.476
    6AU     LIG 2201  19.624  29.782   7.604
    6AU     LIG 2202  19.999  30.036   7.721
    6AU       S 2203  19.006  30.298   8.131
    6AU     LIG 2204  19.331  30.031   7.961
    6AU     LIG 2205  19.719  29.871   8.134
    6AU     LIG 2206  19.783  29.833   8.603
    6AU       S 2207  19.394  30.432   7.560
    6AU     LIG 2208  19.568  30.248   7.234
    6AU     LIG 2209  20.017  30.271   7.247
    6AU     LIG 2210  20.354  30.546   7.450
    6AU       S 2211  19.132  30.384   6.904
    6AU     LIG 2212  19.200  30.020   6.664
    6AU     LIG 2213  19.143  29.571   6.697
    6AU     LIG 2214  19.035  29.225   6.412
    6AU       S 2215  17.489  30.513   6.871
    6AU     LIG 2216  17.248  30.461   6.506
    6AU     LIG 2217  16.939  30.165   6.397
    6AU     LIG 2218  16.485  30.133   6.328
    6AU       S 2219  17.118  30.644   7.668
    6AU     LIG 2220  16.766  30.460   7.829
    6AU     LIG 2221  16.571  30.386   7.450
    6AU     LIG 2222  16.463  30.323   7.007
    6AU       S 2223  17.491  30.463   8.301
    6AU     LIG 2224  17.295  30.135   8.051
    6AU     LIG 2225  17.096  29.692   8.058
    6AU     LIG 2226  16.834  29.411   8.362
    6AU       S 2227  17.162  30.930   7.795
    6AU     LIG 2228  17.020  30.807   8.172
    6AU     LIG 2229  16.578  30.859   8.114
    6AU     LIG 2230  16.443  30.869   7.676
    6AU       S 2231  17.795  32.111   7.853
    6AU     LIG 2232  17.512  32.410   7.951
    6AU     LIG 2233  17.112  32.479   8.139
    6AU     LIG 2234  16.955  32.438   8.541
    6AU       S 2235  18.393  32.287   7.916
    6AU     LIG 2236  18.496  32.661   8.208
    6AU     LIG 2237  18.243  33.005   8.417
    6AU     LIG 2238  17.854  33.269   8.412
    6AU       S 2239  18.217  32.428   7.867
    6AU     LIG 2240  17.983  32.710   8.079
    6AU     LIG 2241  18.033  33.137   7.950
    6AU     LIG 2242  18.255  33.356   7.621
    6AU       S 2243  18.362  32.245   7.028
    6AU     LIG 2244  18.430  32.608   7.258
    6AU     LIG 2245  18.505  33.040   7.221
    6AU     LIG 2246  18.462  33.446   6.999
    6AU       S 2247  18.854  31.827   8.360
    6AU     LIG 2248  19.016  32.264   8.500
    6AU     LIG 2249  19.301  32.345   8.842
    6AU     LIG 2250  19.440  32.067   9.188
    6AU       S 2251  18.567  32.363   7.686
    6AU     LIG 2252  18.502  32.848   7.725
    6AU     LIG 2253  18.540  33.202   8.045
    6AU     LIG 2254  18.403  33.512   8.396
    6AU       S 2255  18.175  29.989   8.087
    6AU     LIG 2256  18.494  29.684   8.195
    6AU     LIG 2257  18.481  29.293   8.419
    6AU     LIG 2258  18.309  28.898   8.593
    6AU       S 2259  18.770  30.282   7.988
    6AU     LIG 2260  18.812  29.923   7.804
    6AU     LIG 2261  19.008  29.574   7.791
    6AU     LIG 2262  19.374  29.493   7.996
    6AU       S 2263  17.996  29.923   7.926
    6AU     LIG 2264  17.995  29.511   8.037
    6AU     LIG 2265  17.938  29.230   8.361
    6AU     LIG 2266  17.838  28.796   8.377
    6AU       S 2267  17.719  30.560   8.466
    6AU     LIG 2268  17.513  30.157   8.664
    6AU     LIG 2269  17.165  29.869   8.543
    6AU     LIG 2270  17.019  29.524   8.818
    6AU       S 2271  18.433  29.967   7.277
    6AU     LIG 2272  18.352  29.501   7.195
    6AU     LIG 2273  18.419  29.057   7.114
    6AU     LIG 2274  18.604  28.628   7.018
    6AU       S 2275  18.330  30.024   7.862
    6AU     LIG 2276  18.390  29.645   7.688
    6AU     LIG 2277  18.414  29.259   7.901
    6AU     LIG 2278  18.247  28.917   8.064
    6AU       S 2279  18.236  32.155   6.748
    6AU     LIG 2280  18.337  32.637   6.727
    6AU     LIG 2281  18.541  33.041   6.691
    6AU     LIG 2282  18.589  33.437   6.422
    6AU       S 2283  18.984  31.981   7.200
    6AU     LIG 2284  19.286  32.386   7.144
    6AU     LIG 2285  19.574  32.460   6.793
    6AU     LIG 2286  19.677  32.669   6.409
    6AU       S 2287  18.024  32.175   7.009
    6AU     LIG 2288  17.966  32.603   7.074
    6AU     LIG 2289  18.063  33.047   6.953
    6AU     LIG 2290  18.104  33.331   6.590
    6AU       S 2291  17.573  31.573   6.608
    6AU     LIG 2292  17.340  31.864   6.346
    6AU     LIG 2293  17.368  32.292   6.331
    6AU     LIG 2294  17.620  32.663   6.243
    6AU       S 2295  17.543  30.317   7.101
    6AU     LIG 2296  17.189  30.110   6.901
    6AU     LIG 2297  17.164  29.733   6.646
    6AU     LIG 2298  17.392  29.424   6.378
    6AU       S 2299  18.415  29.999   7.120
    6AU     LIG 2300  18.701  29.880   6.794
    6AU     LIG 2301  18.633  29.464   6.625
    6AU     LIG 2302  18.623  28.990   6.644
    6AU       S 2303  18.679  30.083   7.370
    6AU     LIG 2304  18.858  29.674   7.239
    6AU     LIG 2305  18.897  29.260   7.018
    6AU     LIG 2306  19.127  28.895   6.831
    6AU       S 2307  18.927  30.529   6.666
    6AU     LIG 2308  18.827  30.219   6.375
    6AU     LIG 2309  18.895  29.776   6.288
    6AU     LIG 2310  18.981  29.486   5.939
    7AU     AUC 2311  36.798  24.262   7.535
    7AU     AUC 2312  37.044  24.260   7.368
    7AU     AUC 2313  37.044  24.268   7.703
    7AU     AUC 2314  36.528  24.251   7.383
    7AU     AUC 2315  36.557  24.306   7.704
    7AU     AUC 2316  36.630  24.517   7.494
    7AU     AUC 2317  36.966  24.524   7.491
    7AU     AUC 2318  36.633  24.009   7.564
    7AU     AUC 2319  36.964  23.995   7.561
    7AU     AUC 2320  36.806  24.120   7.808
    7AU     AUC 2321  36.805  24.462   7.765
    7AU     AUC 2322  36.792  24.072   7.296
    7AU     AUC 2323  36.800  24.375   7.263
    7AU     AUC 2324  37.356  24.254   7.211
    7AU     AUC 2325  37.364  24.252   7.555
    7AU     AUC 2326  37.336  24.263   7.904
    7AU     AUC 2327  36.225  24.201   7.251
    7AU     AUC 2328  36.225  24.288   7.571
    7AU     AUC 2329  36.262  24.358   7.884
    7AU     AUC 2330  36.463  24.818   7.425
    7AU     AUC 2331  36.819  24.813   7.406
    7AU     AUC 2332  37.153  24.807   7.442
    7AU     AUC 2333  36.447  23.714   7.596
    7AU     AUC 2334  36.794  23.698   7.569
    7AU     AUC 2335  37.146  23.698   7.573
    7AU     AUC 2336  36.785  23.971   8.121
    7AU     AUC 2337  36.796  24.321   8.099
    7AU     AUC 2338  36.839  24.678   8.043
    7AU     AUC 2339  36.830  23.879   7.020
    7AU     AUC 2340  36.774  24.200   6.959
    7AU     AUC 2341  36.750  24.513   6.938
    7AU     AUC 2342  37.049  24.084   8.022
    7AU     AUC 2343  37.083  24.441   7.992
    7AU     AUC 2344  37.101  24.094   7.073
    7AU     AUC 2345  37.048  24.389   7.072
    7AU     AUC 2346  36.521  24.196   8.022
    7AU     AUC 2347  36.546  24.545   7.953
    7AU     AUC 2348  36.514  24.019   7.124
    7AU     AUC 2349  36.463  24.334   7.077
    7AU     AUC 2350  37.274  24.531   7.349
    7AU     AUC 2351  37.233  24.521   7.685
    7AU     AUC 2352  36.326  24.517   7.369
    7AU     AUC 2353  36.381  24.620   7.688
    7AU     AUC 2354  37.269  23.992   7.419
    7AU     AUC 2355  37.217  23.953   7.759
    7AU     AUC 2356  36.337  23.940   7.421
    7AU     AUC 2357  36.371  24.038   7.750
    7AU     AUC 2358  36.692  24.776   7.738
    7AU     AUC 2359  37.000  24.740   7.757
    7AU     AUC 2360  36.626  23.840   7.854
    7AU     AUC 2361  36.928  23.788   7.838
    7AU     AUC 2362  36.590  24.662   7.177
    7AU     AUC 2363  36.953  24.694   7.188
    7AU     AUC 2364  36.650  23.780   7.294
    7AU     AUC 2365  37.021  23.832   7.291
    7AU    AUSL 2366  37.313  24.209   8.308
    7AU    AUSL 2367  37.062  23.818   8.240
    7AU     AUL 2368  37.360  23.850   8.412
    7AU    AUSL 2369  36.899  24.148   8.464
    7AU    AUSL 2370  36.650  24.541   8.439
    7AU     AUL 2371  36.881  24.450   8.723
    7AU    AUSL 2372  36.988  24.495   8.183
    7AU    AUSL 2373  37.437  24.580   8.111
    7AU     AUL 2374  37.263  24.517   8.442
    7AU    AUSL 2375  37.238  24.283   6.821
    7AU    AUSL 2376  37.051  24.657   6.963
    7AU     AUL 2377  37.320  24.604   6.697
    7AU    AUSL 2378  37.041  23.949   6.615
    7AU    AUSL 2379  37.553  24.047   6.999
    7AU     AUL 2380  37.413  24.089   6.660
    7AU    AUSL 2381  36.848  24.402   6.673
    7AU    AUSL 2382  36.677  24.017   6.834
    7AU     AUL 2383  36.779  24.064   6.494
    7AU    AUSL 2384  36.260  24.483   8.226
    7AU    AUSL 2385  36.607  24.793   8.088
    7AU     AUL 2386  36.435  24.769   8.406
    7AU    AUSL 2387  36.572  24.180   8.193
    7AU    AUSL 2388  36.150  24.046   8.170
    7AU     AUL 2389  36.092  24.259   8.311
    7AU    AUSL 2390  36.238  23.990   6.823
    7AU    AUSL 2391  36.488  23.670   7.004
    7AU     AUL 2392  36.529  23.704   6.686
    7AU    AUSL 2393  36.416  24.353   6.661
    7AU    AUSL 2394  36.137  24.356   7.045
    7AU     AUL 2395  36.020  24.196   6.795
    7AU    AUSL 2396  37.567  24.758   7.479
    7AU    AUSL 2397  37.419  24.493   7.149
    7AU     AUL 2398  37.679  24.618   7.027
    7AU    AUSL 2399  37.761  24.351   7.381
    7AU    AUSL 2400  37.727  24.059   7.767
    7AU     AUL 2401  38.020  24.124   7.548
    7AU    AUSL 2402  37.486  24.407   7.728
    7AU    AUSL 2403  37.240  24.793   7.766
    7AU     AUL 2404  37.577  24.778   7.834
    7AU    AUSL 2405  36.212  24.895   7.471
    7AU    AUSL 2406  36.259  24.675   7.844
    7AU     AUL 2407  35.943  24.912   7.684
    7AU    AUSL 2408  36.034  24.490   7.437
    7AU    AUSL 2409  36.149  24.788   7.063
    7AU     AUL 2410  35.919  24.709   7.227
    7AU    AUSL 2411  35.888  24.478   7.870
    7AU    AUSL 2412  35.862  24.098   7.416
    7AU     AUL 2413  35.709  24.435   7.564
    7AU    AUSL 2414  37.497  23.701   7.631
    7AU    AUSL 2415  37.333  23.995   7.938
    7AU     AUL 2416  37.637  23.899   8.010
    7AU    AUSL 2417  37.446  24.067   7.409
    7AU    AUSL 2418  37.456  23.655   7.199
    7AU     AUL 2419  37.700  23.874   7.283
    7AU    AUSL 2420  36.055  23.739   7.629
    7AU    AUSL 2421  36.219  23.932   7.244
    7AU     AUL 2422  35.862  23.816   7.307
    7AU    AUSL 2423  36.136  24.154   7.755
    7AU    AUSL 2424  36.384  23.795   7.902
    7AU     AUL 2425  36.062  23.784   7.968
    7AU    AUSL 2426  36.867  25.081   7.889
    7AU    AUSL 2427  36.413  25.086   7.809
    7AU     AUL 2428  36.639  25.136   8.151
    7AU    AUSL 2429  36.690  24.962   7.512
    7AU    AUSL 2430  36.922  25.072   7.153
    7AU     AUL 2431  36.679  25.311   7.443
    7AU    AUSL 2432  37.124  25.128   7.532
    7AU    AUSL 2433  37.125  24.897   8.177
    7AU     AUL 2434  37.234  25.133   7.887
    7AU    AUSL 2435  36.760  23.600   8.018
    7AU    AUSL 2436  37.183  23.583   7.894
    7AU     AUL 2437  36.953  23.523   8.276
    7AU    AUSL 2438  36.452  23.401   7.754
    7AU    AUSL 2439  36.533  23.785   8.330
    7AU     AUL 2440  36.435  23.488   8.104
    7AU    AUSL 2441  36.897  23.325   7.704
    7AU    AUSL 2442  36.667  23.563   7.408
    7AU     AUL 2443  36.586  23.199   7.531
    7AU    AUSL 2444  36.748  24.888   6.769
    7AU    AUSL 2445  37.319  24.923   7.174
    7AU     AUL 2446  37.083  24.996   6.845
    7AU    AUSL 2447  36.498  25.021   7.129
    7AU    AUSL 2448  36.530  24.592   6.988
    7AU     AUL 2449  36.417  24.856   6.781
    7AU    AUSL 2450  36.886  23.509   7.018
    7AU    AUSL 2451  36.254  23.494   7.333
    7AU     AUL 2452  36.550  23.356   7.090
    7AU    AUSL 2453  37.101  23.559   7.408
    7AU    AUSL 2454  37.118  23.874   7.027
    7AU     AUL 2455  37.205  23.532   6.990
    7AU       S 2456  37.395  23.390   8.285
    7AU     LIG 2457  37.576  22.929   8.240
    7AU     LIG 2458  37.565  22.509   8.471
    7AU     LIG 2459  37.905  22.305   8.727
    7AU       S 2460  37.276  24.153   8.757
    7AU     LIG 2461  37.555  24.470   8.912
    7AU     LIG 2462  37.777  24.441   9.329
    7AU     LIG 2463  37.823  24.170   9.728
    7AU       S 2464  36.924  23.977   8.667
    7AU     LIG 2465  36.917  24.039   9.119
    7AU     LIG 2466  37.229  24.010   9.484
    7AU     LIG 2467  37.480  23.763   9.804
    7AU       S 2468  36.440  24.336   8.653
    7AU     LIG 2469  36.510  24.359   9.101
    7AU     LIG 2470  36.211  24.297   9.430
    7AU     LIG 2471  36.073  24.514   9.789
    7AU       S 2472  36.896  24.908   8.567
    7AU     LIG 2473  37.121  25.236   8.776
    7AU     LIG 2474  37.471  25.160   9.044
    7AU     LIG 2475  37.834  24.926   8.880
    7AU       S 2476  37.610  24.807   8.310
    7AU     LIG 2477  38.028  24.890   8.387
    7AU     LIG 2478  38.254  25.165   8.657
    7AU     LIG 2479  38.377  25.486   8.942
    7AU       S 2480  37.179  24.366   6.328
    7AU     LIG 2481  37.401  24.381   5.909
    7AU     LIG 2482  37.539  23.963   5.812
    7AU     LIG 2483  37.527  23.522   5.943
    7AU       S 2484  37.534  25.014   6.771
    7AU     LIG 2485  37.512  25.330   6.442
    7AU     LIG 2486  37.809  25.554   6.162
    7AU     LIG 2487  38.175  25.678   5.915
    7AU       S 2488  37.780  23.813   6.813
    7AU     LIG 2489  37.858  23.644   6.352
    7AU     LIG 2490  37.777  23.206   6.279
    7AU     LIG 2491  37.999  22.847   6.442
    7AU       S 2492  37.159  24.167   6.272
    7AU     LIG 2493  37.088  23.794   6.066
    7AU     LIG 2494  37.142  23.692   5.612
    7AU     LIG 2495  37.516  23.694   5.335
    7AU       S 2496  36.351  23.996   6.352
    7AU     LIG 2497  36.567  23.880   5.991
    7AU     LIG 2498  36.623  23.794   5.553
    7AU     LIG 2499  36.375  23.919   5.185
    7AU       S 2500  36.928  24.507   6.439
    7AU     LIG 2501  36.713  24.359   6.074
    7AU     LIG 2502  36.953  24.165   5.741
    7AU     LIG 2503  37.291  24.194   5.427
    7AU       S 2504  36.228  24.462   8.699
    7AU     LIG 2505  35.937  24.160   8.822
    7AU     LIG 2506  35.795  24.039   9.247
    7AU     LIG 2507  35.666  24.194   9.679
    7AU       S 2508  36.161  25.080   8.185
    7AU     LIG 2509  36.171  25.343   8.520
    7AU     LIG 2510  35.903  25.318   8.899
    7AU     LIG 2511  35.558  25.375   9.202
    7AU       S 2512  36.072  23.820   8.470
    7AU     LIG 2513  35.663  23.860   8.332
    7AU     LIG 2514  35.392  23.486   8.301
    7AU     LIG 2515  35.242  23.109   8.515
    7AU       S 2516  36.438  24.153   8.611
    7AU     LIG 2517  36.346  23.896   8.982
    7AU     LIG 2518  36.217  23.782   9.409
    7AU     LIG 2519  36.082  23.945   9.825
    7AU       S 2520  36.176  23.920   6.462
    7AU     LIG 2521  35.989  23.785   6.082
    7AU     LIG 2522  36.123  23.927   5.681
    7AU     LIG 2523  35.980  24.247   5.405
    7AU       S 2524  36.149  23.491   6.861
    7AU     LIG 2525  36.130  23.404   6.434
    7AU     LIG 2526  35.841  23.280   6.106
    7AU     LIG 2527  35.456  23.049   6.003
    7AU       S 2528  35.833  24.610   6.744
    7AU     LIG 2529  35.527  24.916   6.723
    7AU     LIG 2530  35.488  25.264   6.448
    7AU     LIG 2531  35.704  25.548   6.185
    7AU       S 2532  36.354  24.285   6.449
    7AU     LIG 2533  35.998  24.344   6.227
    7AU     LIG 2534  36.173  24.425   5.843
    7AU     LIG 2535  36.491  24.294   5.547
    7AU       S 2536  37.718  25.056   6.960
    7AU     LIG 2537  37.966  25.091   6.519
    7AU     LIG 2538  38.166  25.175   6.093
    7AU     LIG 2539  38.584  25.366   5.957
    7AU       S 2540  37.837  24.831   7.443
    7AU     LIG 2541  37.998  25.110   7.738
    7AU     LIG 2542  38.429  25.246   7.670
    7AU     LIG 2543  38.738  25.171   7.296
    7AU       S 2544  37.997  24.576   7.416
    7AU     LIG 2545  38.374  24.782   7.434
    7AU     LIG 2546  38.758  24.670   7.219
    7AU     LIG 2547  39.128  24.572   6.961
    7AU       S 2548  37.972  23.697   7.765
    7AU     LIG 2549  38.290  23.497   7.999
    7AU     LIG 2550  38.732  23.512   8.050
    7AU     LIG 2551  38.997  23.470   7.740
    7AU       S 2552  37.588  25.072   8.178
    7AU     LIG 2553  37.950  25.375   8.199
    7AU     LIG 2554  38.183  25.648   8.490
    7AU     LIG 2555  38.066  25.901   8.890
    7AU       S 2556  37.962  24.561   7.746
    7AU     LIG 2557  38.287  24.330   7.927
    7AU     LIG 2558  38.699  24.455   7.850
    7AU     LIG 2559  38.770  24.881   7.745
    7AU       S 2560  36.071  24.894   8.125
    7AU     LIG 2561  35.827  24.914   8.522
    7AU     LIG 2562  35.452  25.122   8.727
    7AU     LIG 2563  35.080  25.341   8.949
    7AU       S 2564  36.153  25.216   7.380
    7AU     LIG 2565  35.939  25.550   7.515
    7AU     LIG 2566  35.598  25.322   7.336
    7AU     LIG 2567  35.408  25.369   6.937
    7AU       S 2568  35.640  24.347   7.099
    7AU     LIG 2569  35.212  24.230   7.011
    7AU     LIG 2570  35.004  24.592   7.041
    7AU     LIG 2571  35.260  24.940   7.173
    7AU       S 2572  36.004  25.043   6.898
    7AU     LIG 2573  35.925  25.485   6.972
    7AU     LIG 2574  35.664  25.744   6.679
    7AU     LIG 2575  35.603  26.030   6.310
    7AU       S 2576  35.660  23.995   7.715
    7AU     LIG 2577  35.343  24.044   7.465
    7AU     LIG 2578  34.940  23.910   7.362
    7AU     LIG 2579  34.570  23.857   7.123
    7AU       S 2580  35.775  24.514   8.047
    7AU     LIG 2581  35.372  24.387   8.092
    7AU     LIG 2582  35.021  24.659   8.094
    7AU     LIG 2583  34.738  24.970   7.960
    7AU       S 2584  37.652  23.558   7.643
    7AU     LIG 2585  37.722  23.198   7.393
    7AU     LIG 2586  38.124  23.052   7.497
    7AU     LIG 2587  38.532  23.261   7.593
    7AU       S 2588  37.567  23.472   8.135
    7AU     LIG 2589  37.871  23.219   7.919
    7AU     LIG 2590  38.134  22.897   8.020
    7AU     LIG 2591  38.065  22.715   8.443
    7AU       S 2592  37.949  23.635   7.576
    7AU     LIG 2593  38.114  23.500   7.218
    7AU     LIG 2594  38.473  23.319   7.067
    7AU     LIG 2595  38.874  23.171   7.146
    7AU       S 2596  37.685  23.532   6.955
    7AU     LIG 2597  37.556  23.136   6.849
    7AU     LIG 2598  37.647  22.704   6.766
    7AU     LIG 2599  37.747  22.249   6.709
    7AU       S 2600  36.007  23.610   6.926
    7AU     LIG 2601  35.732  23.690   6.574
    7AU     LIG 2602  35.412  23.507   6.296
    7AU     LIG 2603  35.060  23.185   6.317
    7AU       S 2604  35.665  23.753   7.739
    7AU     LIG 2605  35.373  23.448   7.780
    7AU     LIG 2606  35.039  23.411   7.488
    7AU     LIG 2607  34.845  23.372   7.082
    7AU       S 2608  36.088  23.607   8.388
    7AU     LIG 2609  35.843  23.352   8.098
    7AU     LIG 2610  35.545  22.979   8.112
    7AU     LIG 2611  35.347  22.595   8.316
    7AU       S 2612  35.697  24.044   7.871
    7AU     LIG 2613  35.269  23.894   8.015
    7AU     LIG 2614  34.903  23.732   7.864
    7AU     LIG 2615  34.553  23.941   7.704
    7AU       S 2616  36.280  25.262   7.856
    7AU     LIG 2617  35.993  25.554   8.047
    7AU     LIG 2618  35.692  25.479   8.395
    7AU     LIG 2619  35.484  25.639   8.767
    7AU       S 2620  36.870  25.423   7.854
    7AU     LIG 2621  37.047  25.403   8.284
    7AU     LIG 2622  36.955  25.713   8.600
    7AU     LIG 2623  37.108  26.156   8.627
    7AU       S 2624  36.988  25.585   7.736
    7AU     LIG 2625  36.912  25.858   8.114
    7AU     LIG 2626  36.673  26.236   8.118
    7AU     LIG 2627  36.435  26.470   7.806
    7AU       S 2628  36.819  25.354   6.991
    7AU     LIG 2629  36.886  25.709   7.133
    7AU     LIG 2630  37.020  26.058   6.932
    7AU     LIG 2631  37.200  26.232   6.571
    7AU       S 2632  37.344  25.002   8.352
    7AU     LIG 2633  37.602  25.325   8.580
    7AU     LIG 2634  37.866  25.445   8.892
    7AU     LIG 2635  38.041  25.282   9.281
    7AU       S 2636  37.140  25.416   7.509
    7AU     LIG 2637  37.224  25.901   7.455
    7AU     LIG 2638  37.102  26.179   7.795
    7AU     LIG 2639  37.361  26.233   8.179
    7AU       S 2640  36.759  23.133   8.117
    7AU     LIG 2641  37.077  22.822   8.220
    7AU     LIG 2642  37.034  22.426   8.408
    7AU     LIG 2643  36.846  22.007   8.366
    7AU       S 2644  37.326  23.441   7.998
    7AU     LIG 2645  37.395  23.091   7.785
    7AU     LIG 2646  37.683  22.779   7.742
    7AU     LIG 2647  37.831  22.484   8.050
    7AU       S 2648  36.575  23.057   7.975
    7AU     LIG 2649  36.480  22.709   7.726
    7AU     LIG 2650  36.353  22.317   7.898
    7AU     LIG 2651  36.611  21.926   7.905
    7AU       S 2652  36.339  23.678   8.532
    7AU     LIG 2653  36.092  23.258   8.716
    7AU     LIG 2654  35.722  22.950   8.619
    7AU     LIG 2655  35.350  22.689   8.808
    7AU       S 2656  36.966  23.117   7.286
    7AU     LIG 2657  36.822  22.681   7.251
    7AU     LIG 2658  36.906  22.288   7.032
    7AU     LIG 2659  36.728  21.860   7.042
    7AU       S 2660  36.911  23.161   7.885
    7AU     LIG 2661  36.982  22.786   7.724
    7AU     LIG 2662  36.853  22.382   7.919
    7AU     LIG 2663  37.109  21.983   7.858
    7AU       S 2664  36.684  25.250   6.724
    7AU     LIG 2665  36.541  25.691   6.710
    7AU     LIG 2666  36.705  26.056   6.509
    7AU     LIG 2667  36.834  26.464   6.307
    7AU       S 2668  37.466  25.102   7.134
    7AU     LIG 2669  37.642  25.523   7.080
    7AU     LIG 2670  37.888  25.562   6.703
    7AU     LIG 2671  38.279  25.546   6.422
    7AU       S 2672  36.484  25.276   7.000
    7AU     LIG 2673  36.379  25.660   7.214
    7AU     LIG 2674  36.507  26.076   7.067
    7AU     LIG 2675  36.637  26.435   6.835
    7AU       S 2676  36.040  24.656   6.633
    7AU     LIG 2677  35.954  25.021   6.400
    7AU     LIG 2678  36.108  25.430   6.504
    7AU     LIG 2679  36.116  25.884   6.445
    7AU       S 2680  36.068  23.410   7.156
    7AU     LIG 2681  35.651  23.282   6.931
    7AU     LIG 2682  35.579  23.078   6.528
    7AU     LIG 2683  35.546  22.632   6.372
    7AU       S 2684  36.980  23.145   7.101
    7AU     LIG 2685  37.155  22.803   6.865
    7AU     LIG 2686  37.205  22.409   6.621
    7AU     LIG 2687  36.941  21.990   6.582
    7AU       S 2688  37.209  23.241   7.358
    7AU     LIG 2689  37.359  22.800   7.338
    7AU     LIG 2690  37.419  22.403   7.096
    7AU     LIG 2691  37.320  21.993   6.923
    7AU       S 2692  37.543  23.650   6.716
    7AU     LIG 2693  37.328  23.400   6.446
    7AU     LIG 2694  37.358  22.932   6.396
    7AU     LIG 2695  37.598  22.545   6.275
    8AU     AUC 2696  28.072  31.628   7.533
    8AU     AUC 2697  28.325  31.619   7.374
    8AU     AUC 2698  28.310  31.625   7.708
    8AU     AUC 2699  27.810  31.629   7.372
    8AU     AUC 2700  27.825  31.677   7.694
    8AU     AUC 2701  27.915  31.889   7.490
    8AU     AUC 2702  28.250  31.886   7.500
    8AU     AUC 2703  27.898  31.380   7.552
    8AU     AUC 2704  28.227  31.356   7.560
    8AU     AUC 2705  28.063  31.483   7.804
    8AU     AUC 2706  28.077  31.825   7.767
    8AU     AUC 2707  28.070  31.442   7.290
    8AU     AUC 2708  28.089  31.746   7.263
    8AU     AUC 2709  28.639  31.606   7.229
    8AU     AUC 2710  28.636  31.599   7.573
    8AU     AUC 2711  28.595  31.605   7.922
    8AU     AUC 2712  27.514  31.591   7.224
    8AU     AUC 2713  27.500  31.672   7.546
    8AU     AUC 2714  27.526  31.736   7.865
    8AU     AUC 2715  27.759  32.198   7.422
    8AU     AUC 2716  28.116  32.180   7.415
    8AU     AUC 2717  28.449  32.162   7.460
    8AU     AUC 2718  27.702  31.091   7.570
    8AU     AUC 2719  28.046  31.065   7.558
    8AU     AUC 2720  28.397  31.054   7.576
    8AU     AUC 2721  28.025  31.329   8.114
    8AU     AUC 2722  28.053  31.680   8.097
    8AU     AUC 2723  28.112  32.037   8.048
    8AU     AUC 2724  28.114  31.248   7.011
    8AU     AUC 2725  28.065  31.577   6.956
    8AU     AUC 2726  28.054  31.892   6.939
    8AU     AUC 2727  28.297  31.433   8.027
    8AU     AUC 2728  28.346  31.790   8.003
    8AU     AUC 2729  28.385  31.455   7.080
    8AU     AUC 2730  28.340  31.755   7.081
    8AU     AUC 2731  27.772  31.567   8.007
    8AU     AUC 2732  27.817  31.915   7.947
    8AU     AUC 2733  27.800  31.402   7.105
    8AU     AUC 2734  27.757  31.722   7.065
    8AU     AUC 2735  28.564  31.885   7.366
    8AU     AUC 2736  28.509  31.872   7.701
    8AU     AUC 2737  27.615  31.901   7.356
    8AU     AUC 2738  27.661  31.995   7.677
    8AU     AUC 2739  28.536  31.344   7.426
    8AU     AUC 2740  28.468  31.302   7.767
    8AU     AUC 2741  27.611  31.322   7.391
    8AU     AUC 2742  27.629  31.416   7.726
    8AU     AUC 2743  27.976  32.143   7.740
    8AU     AUC 2744  28.284  32.096   7.770
    8AU     AUC 2745  27.869  31.211   7.838
    8AU     AUC 2746  28.168  31.145   7.833
    8AU     AUC 2747  27.890  32.042   7.176
    8AU     AUC 2748  28.254  32.060   7.201
    8AU     AUC 2749  27.925  31.152   7.276
    8AU     AUC 2750  28.291  31.193   7.290
    8AU    AUSL 2751  28.561  31.544   8.324
    8AU    AUSL 2752  28.292  31.158   8.244
    8AU     AUL 2753  28.584  31.187   8.427
    8AU    AUSL 2754  28.140  31.499   8.462
    8AU    AUSL 2755  27.910  31.904   8.436
    8AU     AUL 2756  28.134  31.802   8.725
    8AU    AUSL 2757  28.251  31.845   8.189
    8AU    AUSL 2758  28.704  31.914   8.138
    8AU     AUL 2759  28.523  31.854   8.456
    8AU    AUSL 2760  28.527  31.643   6.841
    8AU    AUSL 2761  28.355  32.025   6.977
    8AU     AUL 2762  28.633  31.965   6.724
    8AU    AUSL 2763  28.337  31.321   6.614
    8AU    AUSL 2764  28.832  31.397   7.021
    8AU     AUL 2765  28.709  31.469   6.675
    8AU    AUSL 2766  28.156  31.790   6.670
    8AU    AUSL 2767  27.971  31.407   6.822
    8AU     AUL 2768  28.086  31.462   6.489
    8AU    AUSL 2769  27.524  31.865   8.214
    8AU    AUSL 2770  27.882  32.157   8.085
    8AU     AUL 2771  27.702  32.141   8.396
    8AU    AUSL 2772  27.820  31.548   8.184
    8AU    AUSL 2773  27.390  31.441   8.132
    8AU     AUL 2774  27.361  31.648   8.302
    8AU    AUSL 2775  27.531  31.387   6.794
    8AU    AUSL 2776  27.776  31.056   6.972
    8AU     AUL 2777  27.825  31.101   6.657
    8AU    AUSL 2778  27.722  31.751   6.651
    8AU    AUSL 2779  27.434  31.752   7.024
    8AU     AUL 2780  27.318  31.609   6.767
    8AU    AUSL 2781  28.856  32.102   7.511
    8AU    AUSL 2782  28.715  31.844   7.169
    8AU     AUL 2783  28.998  31.977   7.075
    8AU    AUSL 2784  29.041  31.691   7.418
    8AU    AUSL 2785  28.976  31.390   7.808
    8AU     AUL 2786  29.249  31.474   7.635
    8AU    AUSL 2787  28.755  31.749   7.751
    8AU    AUSL 2788  28.525  32.140   7.790
    8AU     AUL 2789  28.867  32.092   7.876
    8AU    AUSL 2790  27.508  32.280   7.460
    8AU    AUSL 2791  27.537  32.052   7.830
    8AU     AUL 2792  27.232  32.294   7.664
    8AU    AUSL 2793  27.316  31.884   7.413
    8AU    AUSL 2794  27.460  32.183   7.047
    8AU     AUL 2795  27.223  32.111   7.199
    8AU    AUSL 2796  27.161  31.861   7.848
    8AU    AUSL 2797  27.144  31.495   7.354
    8AU     AUL 2798  26.996  31.838   7.528
    8AU    AUSL 2799  28.748  31.042   7.650
    8AU    AUSL 2800  28.571  31.337   7.951
    8AU     AUL 2801  28.871  31.223   8.033
    8AU    AUSL 2802  28.721  31.413   7.430
    8AU    AUSL 2803  28.720  31.006   7.216
    8AU     AUL 2804  28.973  31.217   7.313
    8AU    AUSL 2805  27.315  31.125   7.578
    8AU    AUSL 2806  27.508  31.321   7.212
    8AU     AUL 2807  27.151  31.215   7.230
    8AU    AUSL 2808  27.396  31.535   7.714
    8AU    AUSL 2809  27.621  31.173   7.878
    8AU     AUL 2810  27.297  31.175   7.929
    8AU    AUSL 2811  28.160  32.440   7.903
    8AU    AUSL 2812  27.703  32.459   7.808
    8AU     AUL 2813  27.920  32.502   8.152
    8AU    AUSL 2814  27.988  32.331   7.520
    8AU    AUSL 2815  28.236  32.438   7.171
    8AU     AUL 2816  27.994  32.681   7.460
    8AU    AUSL 2817  28.431  32.479   7.554
    8AU    AUSL 2818  28.400  32.244   8.197
    8AU     AUL 2819  28.537  32.474   7.909
    8AU    AUSL 2820  27.987  30.966   8.002
    8AU    AUSL 2821  28.415  30.930   7.893
    8AU     AUL 2822  28.164  30.863   8.256
    8AU    AUSL 2823  27.682  30.782   7.719
    8AU    AUSL 2824  27.754  31.154   8.310
    8AU     AUL 2825  27.653  30.862   8.065
    8AU    AUSL 2826  28.123  30.685   7.695
    8AU    AUSL 2827  27.924  30.939   7.389
    8AU     AUL 2828  27.830  30.580   7.493
    8AU    AUSL 2829  28.067  32.272   6.778
    8AU    AUSL 2830  28.630  32.279   7.195
    8AU     AUL 2831  28.382  32.361   6.865
    8AU    AUSL 2832  27.810  32.408   7.133
    8AU    AUSL 2833  27.837  31.978   6.985
    8AU     AUL 2834  27.742  32.250   6.778
    8AU    AUSL 2835  28.160  30.863   7.017
    8AU    AUSL 2836  27.516  30.879   7.283
    8AU     AUL 2837  27.813  30.739   7.053
    8AU    AUSL 2838  28.358  30.914   7.417
    8AU    AUSL 2839  28.393  31.228   7.027
    8AU     AUL 2840  28.477  30.856   7.031
    8AU       S 2841  28.603  30.728   8.296
    8AU     LIG 2842  28.819  30.302   8.346
    8AU     LIG 2843  29.060  29.910   8.427
    8AU     LIG 2844  29.397  29.676   8.715
    8AU       S 2845  28.508  31.489   8.771
    8AU     LIG 2846  28.884  31.698   8.873
    8AU     LIG 2847  29.147  31.719   9.269
    8AU     LIG 2848  29.237  31.574   9.725
    8AU       S 2849  28.152  31.327   8.669
    8AU     LIG 2850  28.167  31.352   9.128
    8AU     LIG 2851  28.558  31.308   9.424
    8AU     LIG 2852  28.890  31.163   9.758
    8AU       S 2853  27.691  31.714   8.649
    8AU     LIG 2854  27.738  31.689   9.106
    8AU     LIG 2855  27.368  31.668   9.370
    8AU     LIG 2856  27.138  31.805   9.754
    8AU       S 2857  28.159  32.263   8.580
    8AU     LIG 2858  28.441  32.566   8.769
    8AU     LIG 2859  28.868  32.423   8.864
    8AU     LIG 2860  29.190  32.113   8.863
    8AU       S 2861  28.886  32.134   8.352
    8AU     LIG 2862  29.326  32.159   8.358
    8AU     LIG 2863  29.499  32.464   8.638
    8AU     LIG 2864  29.715  32.802   8.850
    8AU       S 2865  28.502  31.745   6.339
    8AU     LIG 2866  28.859  31.709   6.019
    8AU     LIG 2867  29.070  31.358   5.855
    8AU     LIG 2868  28.952  30.948   5.769
    8AU       S 2869  28.818  32.391   6.764
    8AU     LIG 2870  28.781  32.784   6.581
    8AU     LIG 2871  29.055  32.931   6.250
    8AU     LIG 2872  29.318  32.803   5.889
    8AU       S 2873  29.045  31.178   6.837
    8AU     LIG 2874  29.046  31.167   6.351
    8AU     LIG 2875  29.002  30.718   6.238
    8AU     LIG 2876  29.158  30.262   6.292
    8AU       S 2877  28.473  31.549   6.273
    8AU     LIG 2878  28.585  31.202   6.047
    8AU     LIG 2879  28.467  31.070   5.618
    8AU     LIG 2880  28.343  31.287   5.214
    8AU       S 2881  27.663  31.406   6.326
    8AU     LIG 2882  27.964  31.264   6.022
    8AU     LIG 2883  27.967  31.206   5.574
    8AU     LIG 2884  27.738  31.309   5.205
    8AU       S 2885  28.251  31.900   6.442
    8AU     LIG 2886  28.044  31.762   6.071
    8AU     LIG 2887  28.316  31.555   5.753
    8AU     LIG 2888  28.719  31.506   5.517
    8AU       S 2889  27.488  31.850   8.698
    8AU     LIG 2890  27.204  31.551   8.784
    8AU     LIG 2891  27.116  31.275   9.103
    8AU     LIG 2892  27.012  31.320   9.542
    8AU       S 2893  27.433  32.445   8.171
    8AU     LIG 2894  27.333  32.543   8.575
    8AU     LIG 2895  27.105  32.378   8.924
    8AU     LIG 2896  26.691  32.487   9.107
    8AU       S 2897  27.277  31.204   8.417
    8AU     LIG 2898  26.861  31.183   8.209
    8AU     LIG 2899  26.563  30.846   8.276
    8AU     LIG 2900  26.557  30.519   8.653
    8AU       S 2901  27.687  31.527   8.611
    8AU     LIG 2902  27.619  31.230   8.946
    8AU     LIG 2903  27.530  31.182   9.406
    8AU     LIG 2904  27.447  31.384   9.827
    8AU       S 2905  27.473  31.326   6.438
    8AU     LIG 2906  27.274  31.266   6.043
    8AU     LIG 2907  27.449  31.366   5.643
    8AU     LIG 2908  27.382  31.683   5.311
    8AU       S 2909  27.437  30.885   6.801
    8AU     LIG 2910  27.467  30.461   6.691
    8AU     LIG 2911  27.247  30.230   6.372
    8AU     LIG 2912  26.920  30.303   6.033
    8AU       S 2913  27.140  32.028   6.717
    8AU     LIG 2914  26.852  32.342   6.879
    8AU     LIG 2915  26.851  32.780   6.737
    8AU     LIG 2916  26.791  33.038   6.357
    8AU       S 2917  27.665  31.689   6.432
    8AU     LIG 2918  27.319  31.773   6.200
    8AU     LIG 2919  27.464  31.859   5.798
    8AU     LIG 2920  27.840  31.708   5.581
    8AU       S 2921  28.929  32.347   6.841
    8AU     LIG 2922  29.351  32.402   6.727
    8AU     LIG 2923  29.485  32.553   6.336
    8AU     LIG 2924  29.814  32.686   6.046
    8AU       S 2925  29.122  32.178   7.490
    8AU     LIG 2926  29.342  32.485   7.610
    8AU     LIG 2927  29.735  32.489   7.427
    8AU     LIG 2928  30.067  32.232   7.554
    8AU       S 2929  29.296  31.912   7.458
    8AU     LIG 2930  29.494  32.093   7.131
    8AU     LIG 2931  29.895  32.028   6.995
    8AU     LIG 2932  30.241  32.227   7.080
    8AU       S 2933  29.215  31.010   7.809
    8AU     LIG 2934  29.570  30.759   7.984
    8AU     LIG 2935  30.001  30.905   8.000
    8AU     LIG 2936  30.143  31.232   7.724
    8AU       S 2937  28.873  32.389   8.220
    8AU     LIG 2938  29.290  32.622   8.153
    8AU     LIG 2939  29.513  32.954   8.383
    8AU     LIG 2940  29.482  33.246   8.743
    8AU       S 2941  29.274  31.938   7.752
    8AU     LIG 2942  29.654  32.180   7.901
    8AU     LIG 2943  30.080  32.144   8.104
    8AU     LIG 2944  30.461  32.212   8.394
    8AU       S 2945  27.328  32.268   8.111
    8AU     LIG 2946  27.098  32.103   8.465
    8AU     LIG 2947  26.683  32.242   8.642
    8AU     LIG 2948  26.332  32.569   8.677
    8AU       S 2949  27.443  32.600   7.366
    8AU     LIG 2950  27.192  32.983   7.350
    8AU     LIG 2951  26.785  33.025   7.186
    8AU     LIG 2952  26.427  32.742   7.090
    8AU       S 2953  26.918  31.776   7.063
    8AU     LIG 2954  26.438  31.733   7.043
    8AU     LIG 2955  26.032  31.928   7.195
    8AU     LIG 2956  26.058  32.372   7.293
    8AU       S 2957  27.336  32.451   6.880
    8AU     LIG 2958  27.350  32.910   6.861
    8AU     LIG 2959  27.042  33.271   6.775
    8AU     LIG 2960  26.828  33.538   6.439
    8AU       S 2961  26.914  31.385   7.616
    8AU     LIG 2962  26.541  31.385   7.404
    8AU     LIG 2963  26.089  31.406   7.309
    8AU     LIG 2964  25.754  31.092   7.343
    8AU       S 2965  27.036  31.869   8.018
    8AU     LIG 2966  26.668  32.062   8.164
    8AU     LIG 2967  26.345  32.403   8.165
    8AU     LIG 2968  26.043  32.519   7.821
    8AU       S 2969  28.910  30.879   7.664
    8AU     LIG 2970  29.054  30.467   7.527
    8AU     LIG 2971  29.460  30.339   7.680
    8AU     LIG 2972  29.911  30.473   7.714
    8AU       S 2973  28.773  30.802   8.156
    8AU     LIG 2974  29.108  30.562   8.020
    8AU     LIG 2975  29.361  30.286   8.231
    8AU     LIG 2976  29.392  30.202   8.693
    8AU       S 2977  29.210  30.985   7.616
    8AU     LIG 2978  29.327  30.789   7.255
    8AU     LIG 2979  29.675  30.509   7.224
    8AU     LIG 2980  30.109  30.638   7.259
    8AU       S 2981  28.941  30.909   6.945
    8AU     LIG 2982  28.980  30.517   6.744
    8AU     LIG 2983  28.934  30.077   6.727
    8AU     LIG 2984  28.972  29.631   6.660
    8AU       S 2985  27.297  30.991   6.861
    8AU     LIG 2986  27.057  31.008   6.486
    8AU     LIG 2987  26.757  30.702   6.330
    8AU     LIG 2988  26.340  30.502   6.376
    8AU       S 2989  26.935  31.143   7.649
    8AU     LIG 2990  26.594  30.995   7.773
    8AU     LIG 2991  26.241  30.963   7.522
    8AU     LIG 2992  26.141  30.829   7.103
    8AU       S 2993  27.306  30.988   8.351
    8AU     LIG 2994  27.077  30.733   8.060
    8AU     LIG 2995  26.804  30.388   8.164
    8AU     LIG 2996  26.658  30.035   8.419
    8AU       S 2997  26.948  31.432   7.787
    8AU     LIG 2998  26.521  31.475   7.932
    8AU     LIG 2999  26.149  31.203   7.961
    8AU     LIG 3000  25.691  31.144   7.851
    8AU       S 3001  27.566  32.628   7.849
    8AU     LIG 3002  27.118  32.721   7.881
    8AU     LIG 3003  26.887  32.541   8.243
    8AU     LIG 3004  26.834  32.732   8.657
    8AU       S 3005  28.183  32.779   7.872
    8AU     LIG 3006  28.380  32.828   8.255
    8AU     LIG 3007  28.339  33.296   8.227
    8AU     LIG 3008  28.023  33.637   8.087
    8AU       S 3009  28.329  32.949   7.751
    8AU     LIG 3010  28.007  33.276   7.653
    8AU     LIG 3011  27.807  33.709   7.621
    8AU     LIG 3012  27.649  34.028   7.939
    8AU       S 3013  28.155  32.744   7.019
    8AU     LIG 3014  28.199  33.150   7.203
    8AU     LIG 3015  28.259  33.623   7.286
    8AU     LIG 3016  28.421  34.008   7.050
    8AU       S 3017  28.621  32.345   8.369
    8AU     LIG 3018  28.845  32.780   8.500
    8AU     LIG 3019  29.181  32.831   8.801
    8AU     LIG 3020  29.350  32.548   9.134
    8AU       S 3021  28.461  32.767   7.530
    8AU     LIG 3022  28.602  33.253   7.486
    8AU     LIG 3023  28.425  33.562   7.775
    8AU     LIG 3024  28.460  33.933   8.041
    8AU       S 3025  27.948  30.484   8.091
    8AU     LIG 3026  28.332  30.226   8.203
    8AU     LIG 3027  28.402  29.802   8.329
    8AU     LIG 3028  28.077  29.597   8.599
    8AU       S 3029  28.545  30.763   7.988
    8AU     LIG 3030  28.672  30.375   7.847
    8AU     LIG 3031  28.990  30.047   7.913
    8AU     LIG 3032  29.401  29.823   7.993
    8AU       S 3033  27.751  30.424   7.927
    8AU     LIG 3034  27.541  30.037   8.037
    8AU     LIG 3035  27.661  29.655   8.230
    8AU     LIG 3036  28.044  29.522   8.065
    8AU       S 3037  27.564  31.091   8.470
    8AU     LIG 3038  27.635  30.628   8.484
    8AU     LIG 3039  27.282  30.360   8.389
    8AU     LIG 3040  26.993  30.250   8.729
    8AU       S 3041  28.240  30.466   7.302
    8AU     LIG 3042  28.185  30.016   7.200
    8AU     LIG 3043  28.008  29.808   6.886
    8AU     LIG 3044  27.767  29.478   6.732
    8AU       S 3045  28.115  30.512   7.868
    8AU     LIG 3046  28.263  30.138   7.695
    8AU     LIG 3047  28.521  29.798   7.805
    8AU     LIG 3048  28.708  29.459   8.054
    8AU       S 3049  28.009  32.649   6.743
    8AU     LIG 3050  27.896  33.112   6.773
    8AU     LIG 3051  28.179  33.482   6.795
    8AU     LIG 3052  28.334  33.854   6.567
    8AU       S 3053  28.787  32.428   7.131
    8AU     LIG 3054  29.169  32.655   7.142
    8AU     LIG 3055  29.243  32.932   6.760
    8AU     LIG 3056  29.194  33.361   6.541
    8AU       S 3057  27.813  32.663   7.012
    8AU     LIG 3058  27.701  33.034   7.247
    8AU     LIG 3059  27.775  33.470   7.166
    8AU     LIG 3060  27.902  33.874   6.977
    8AU       S 3061  27.360  32.074   6.611
    8AU     LIG 3062  27.147  32.448   6.420
    8AU     LIG 3063  27.284  32.872   6.348
    8AU     LIG 3064  27.254  33.323   6.265
    8AU       S 3065  27.329  30.785   7.084
    8AU     LIG 3066  26.978  30.574   6.795
    8AU     LIG 3067  26.751  30.218   6.537
    8AU     LIG 3068  26.479  30.041   6.162
    8AU       S 3069  28.208  30.508   7.161
    8AU     LIG 3070  28.469  30.305   6.857
    8AU     LIG 3071  28.302  30.029   6.528
    8AU     LIG 3072  27.989  29.731   6.344
    8AU       S 3073  28.493  30.586   7.419
    8AU     LIG 3074  28.671  30.154   7.333
    8AU     LIG 3075  28.607  29.803   7.007
    8AU     LIG 3076  28.419  29.550   6.645
    8AU       S 3077  28.765  31.016   6.720
    8AU     LIG 3078  28.531  30.728   6.536
    8AU     LIG 3079  28.654  30.347   6.358
    8AU     LIG 3080  28.739  29.900   6.276
    9AU     AUC 3081  31.520  17.451   7.522
    9AU     AUC 3082  31.767  17.444   7.357
    9AU     AUC 3083  31.765  17.448   7.692
    9AU     AUC 3084  31.252  17.450   7.368
    9AU     AUC 3085  31.278  17.497   7.690
    9AU     AUC 3086  31.360  17.711   7.484
    9AU     AUC 3087  31.696  17.708   7.483
    9AU     AUC 3088  31.349  17.202   7.544
    9AU     AUC 3089  31.677  17.180   7.545
    9AU     AUC 3090  31.521  17.303   7.792
    9AU     AUC 3091  31.531  17.646   7.756
    9AU     AUC 3092  31.510  17.265   7.280
    9AU     AUC 3093  31.527  17.569   7.251
    9AU     AUC 3094  32.081  17.432   7.201
    9AU     AUC 3095  32.086  17.423   7.546
    9AU     AUC 3096  32.056  17.431   7.894
    9AU     AUC 3097  30.949  17.411   7.233
    9AU     AUC 3098  30.948  17.492   7.554
    9AU     AUC 3099  30.984  17.553   7.869
    9AU     AUC 3100  31.200  18.018   7.420
    9AU     AUC 3101  31.557  18.002   7.402
    9AU     AUC 3102  31.892  17.985   7.440
    9AU     AUC 3103  31.154  16.909   7.569
    9AU     AUC 3104  31.499  16.886   7.547
    9AU     AUC 3105  31.851  16.879   7.554
    9AU     AUC 3106  31.491  17.149   8.102
    9AU     AUC 3107  31.516  17.500   8.087
    9AU     AUC 3108  31.570  17.857   8.036
    9AU     AUC 3109  31.542  17.075   7.000
    9AU     AUC 3110  31.497  17.399   6.945
    9AU     AUC 3111  31.483  17.713   6.929
    9AU     AUC 3112  31.762  17.259   8.008
    9AU     AUC 3113  31.808  17.615   7.983
    9AU     AUC 3114  31.820  17.282   7.059
    9AU     AUC 3115  31.777  17.578   7.062
    9AU     AUC 3116  31.236  17.381   8.004
    9AU     AUC 3117  31.273  17.731   7.943
    9AU     AUC 3118  31.231  17.223   7.105
    9AU     AUC 3119  31.189  17.542   7.064
    9AU     AUC 3120  32.005  17.708   7.342
    9AU     AUC 3121  31.963  17.695   7.678
    9AU     AUC 3122  31.056  17.722   7.358
    9AU     AUC 3123  31.112  17.815   7.679
    9AU     AUC 3124  31.983  17.172   7.407
    9AU     AUC 3125  31.928  17.127   7.745
    9AU     AUC 3126  31.053  17.142   7.396
    9AU     AUC 3127  31.085  17.235   7.727
    9AU     AUC 3128  31.427  17.963   7.733
    9AU     AUC 3129  31.735  17.919   7.753
    9AU     AUC 3130  31.331  17.026   7.832
    9AU     AUC 3131  31.632  16.969   7.817
    9AU     AUC 3132  31.325  17.863   7.169
    9AU     AUC 3133  31.689  17.884   7.183
    9AU     AUC 3134  31.362  16.976   7.270
    9AU     AUC 3135  31.732  17.018   7.272
    9AU    AUSL 3136  32.029  17.371   8.298
    9AU    AUSL 3137  31.760  16.992   8.218
    9AU     AUL 3138  32.058  17.015   8.397
    9AU    AUSL 3139  31.614  17.322   8.453
    9AU    AUSL 3140  31.373  17.717   8.429
    9AU     AUL 3141  31.605  17.622   8.715
    9AU    AUSL 3142  31.712  17.669   8.175
    9AU    AUSL 3143  32.166  17.739   8.105
    9AU     AUL 3144  31.988  17.681   8.435
    9AU    AUSL 3145  31.969  17.470   6.804
    9AU    AUSL 3146  31.789  17.846   6.956
    9AU     AUL 3147  32.058  17.793   6.693
    9AU    AUSL 3148  31.751  17.144   6.601
    9AU    AUSL 3149  32.272  17.224   6.988
    9AU     AUL 3150  32.123  17.237   6.643
    9AU    AUSL 3151  31.578  17.601   6.664
    9AU    AUSL 3152  31.391  17.221   6.820
    9AU     AUL 3153  31.492  17.273   6.474
    9AU    AUSL 3154  30.984  17.671   8.212
    9AU    AUSL 3155  31.341  17.975   8.082
    9AU     AUL 3156  31.166  17.951   8.394
    9AU    AUSL 3157  31.289  17.361   8.179
    9AU    AUSL 3158  30.860  17.240   8.141
    9AU     AUL 3159  30.821  17.448   8.300
    9AU    AUSL 3160  30.951  17.206   6.803
    9AU    AUSL 3161  31.194  16.873   6.974
    9AU     AUL 3162  31.233  16.921   6.661
    9AU    AUSL 3163  31.144  17.566   6.650
    9AU    AUSL 3164  30.866  17.572   7.032
    9AU     AUL 3165  30.743  17.417   6.781
    9AU    AUSL 3166  32.309  17.923   7.476
    9AU    AUSL 3167  32.149  17.667   7.144
    9AU     AUL 3168  32.416  17.786   7.023
    9AU    AUSL 3169  32.488  17.511   7.373
    9AU    AUSL 3170  32.441  17.216   7.760
    9AU     AUL 3171  32.736  17.275   7.551
    9AU    AUSL 3172  32.212  17.573   7.719
    9AU    AUSL 3173  31.980  17.964   7.761
    9AU     AUL 3174  32.317  17.940   7.826
    9AU    AUSL 3175  30.951  18.101   7.465
    9AU    AUSL 3176  30.990  17.872   7.835
    9AU     AUL 3177  30.680  18.115   7.679
    9AU    AUSL 3178  30.761  17.703   7.425
    9AU    AUSL 3179  30.889  18.004   7.054
    9AU     AUL 3180  30.657  17.928   7.216
    9AU    AUSL 3181  30.615  17.681   7.862
    9AU    AUSL 3182  30.582  17.316   7.384
    9AU     AUL 3183  30.442  17.652   7.552
    9AU    AUSL 3184  32.203  16.868   7.617
    9AU    AUSL 3185  32.043  17.163   7.925
    9AU     AUL 3186  32.343  17.055   7.999
    9AU    AUSL 3187  32.163  17.239   7.398
    9AU    AUSL 3188  32.165  16.832   7.184
    9AU     AUL 3189  32.410  17.043   7.276
    9AU    AUSL 3190  30.758  16.947   7.597
    9AU    AUSL 3191  30.939  17.142   7.223
    9AU     AUL 3192  30.580  17.041   7.268
    9AU    AUSL 3193  30.853  17.355   7.729
    9AU    AUSL 3194  31.090  16.986   7.870
    9AU     AUL 3195  30.775  16.969   7.930
    9AU    AUSL 3196  31.610  18.260   7.891
    9AU    AUSL 3197  31.154  18.279   7.810
    9AU     AUL 3198  31.380  18.319   8.148
    9AU    AUSL 3199  31.430  18.153   7.512
    9AU    AUSL 3200  31.668  18.262   7.156
    9AU     AUL 3201  31.431  18.501   7.452
    9AU    AUSL 3202  31.870  18.306   7.536
    9AU    AUSL 3203  31.865  18.066   8.173
    9AU     AUL 3204  31.984  18.300   7.895
    9AU    AUSL 3205  31.456  16.777   7.995
    9AU    AUSL 3206  31.878  16.758   7.870
    9AU     AUL 3207  31.643  16.696   8.253
    9AU    AUSL 3208  31.148  16.592   7.720
    9AU    AUSL 3209  31.223  16.965   8.302
    9AU     AUL 3210  31.138  16.666   8.072
    9AU    AUSL 3211  31.591  16.510   7.672
    9AU    AUSL 3212  31.369  16.758   7.379
    9AU     AUL 3213  31.277  16.394   7.490
    9AU    AUSL 3214  31.494  18.093   6.769
    9AU    AUSL 3215  32.059  18.098   7.179
    9AU     AUL 3216  31.832  18.192   6.849
    9AU    AUSL 3217  31.242  18.227   7.129
    9AU    AUSL 3218  31.265  17.798   6.979
    9AU     AUL 3219  31.161  18.068   6.775
    9AU    AUSL 3220  31.591  16.708   6.990
    9AU    AUSL 3221  30.954  16.701   7.301
    9AU     AUL 3222  31.245  16.561   7.053
    9AU    AUSL 3223  31.803  16.747   7.384
    9AU    AUSL 3224  31.835  17.064   7.011
    9AU     AUL 3225  31.919  16.732   6.958
    9AU       S 3226  32.083  16.562   8.261
    9AU     LIG 3227  32.175  16.193   8.506
    9AU     LIG 3228  32.257  15.816   8.786
    9AU     LIG 3229  32.629  15.622   8.963
    9AU       S 3230  31.994  17.316   8.745
    9AU     LIG 3231  32.306  17.581   8.919
    9AU     LIG 3232  32.503  17.464   9.324
    9AU     LIG 3233  32.550  17.340   9.779
    9AU       S 3234  31.633  17.148   8.650
    9AU     LIG 3235  31.642  17.213   9.096
    9AU     LIG 3236  32.026  17.198   9.377
    9AU     LIG 3237  32.260  16.924   9.679
    9AU       S 3238  31.162  17.522   8.642
    9AU     LIG 3239  31.197  17.497   9.099
    9AU     LIG 3240  30.848  17.332   9.360
    9AU     LIG 3241  30.514  17.379   9.691
    9AU       S 3242  31.629  18.077   8.559
    9AU     LIG 3243  31.900  18.362   8.777
    9AU     LIG 3244  32.271  18.268   9.026
    9AU     LIG 3245  32.573  17.967   9.187
    9AU       S 3246  32.356  17.938   8.294
    9AU     LIG 3247  32.521  18.010   8.664
    9AU     LIG 3248  32.792  18.302   8.848
    9AU     LIG 3249  33.055  18.644   9.026
    9AU       S 3250  31.918  17.551   6.328
    9AU     LIG 3251  32.191  17.614   5.952
    9AU     LIG 3252  32.447  17.311   5.719
    9AU     LIG 3253  32.385  16.871   5.610
    9AU       S 3254  32.291  18.186   6.789
    9AU     LIG 3255  32.283  18.417   6.416
    9AU     LIG 3256  32.469  18.643   6.064
    9AU     LIG 3257  32.860  18.831   5.930
    9AU       S 3258  32.504  16.998   6.808
    9AU     LIG 3259  32.452  16.960   6.293
    9AU     LIG 3260  32.490  16.515   6.145
    9AU     LIG 3261  32.651  16.145   6.382
    9AU       S 3262  31.880  17.368   6.258
    9AU     LIG 3263  32.016  17.108   5.935
    9AU     LIG 3264  31.914  17.059   5.492
    9AU     LIG 3265  32.136  17.145   5.096
    9AU       S 3266  31.058  17.220   6.334
    9AU     LIG 3267  31.232  17.207   5.936
    9AU     LIG 3268  31.328  17.223   5.491
    9AU     LIG 3269  31.217  17.349   5.062
    9AU       S 3270  31.666  17.709   6.439
    9AU     LIG 3271  31.456  17.633   6.083
    9AU     LIG 3272  31.701  17.479   5.740
    9AU     LIG 3273  32.067  17.546   5.446
    9AU       S 3274  30.951  17.653   8.690
    9AU     LIG 3275  30.673  17.329   8.790
    9AU     LIG 3276  30.515  17.033   9.072
    9AU     LIG 3277  30.422  16.898   9.495
    9AU       S 3278  30.898  18.272   8.187
    9AU     LIG 3279  30.605  18.530   8.415
    9AU     LIG 3280  30.386  18.480   8.812
    9AU     LIG 3281  29.949  18.496   8.989
    9AU       S 3282  30.737  17.002   8.414
    9AU     LIG 3283  30.326  16.853   8.554
    9AU     LIG 3284  30.021  16.543   8.414
    9AU     LIG 3285  29.605  16.392   8.575
    9AU       S 3286  31.157  17.331   8.602
    9AU     LIG 3287  31.063  17.034   8.954
    9AU     LIG 3288  30.913  16.824   9.346
    9AU     LIG 3289  30.839  16.976   9.793
    9AU       S 3290  30.867  17.128   6.441
    9AU     LIG 3291  30.759  16.943   6.029
    9AU     LIG 3292  30.813  17.176   5.621
    9AU     LIG 3293  30.879  17.587   5.418
    9AU       S 3294  30.849  16.699   6.821
    9AU     LIG 3295  30.585  16.459   6.526
    9AU     LIG 3296  30.508  16.395   6.074
    9AU     LIG 3297  30.123  16.367   5.832
    9AU       S 3298  30.570  17.835   6.729
    9AU     LIG 3299  30.274  18.134   6.705
    9AU     LIG 3300  30.306  18.548   6.531
    9AU     LIG 3301  30.436  18.627   6.094
    9AU       S 3302  31.066  17.491   6.424
    9AU     LIG 3303  30.922  17.722   6.112
    9AU     LIG 3304  31.131  17.882   5.749
    9AU     LIG 3305  31.386  17.735   5.391
    9AU       S 3306  32.488  18.227   7.038
    9AU     LIG 3307  32.759  18.256   6.627
    9AU     LIG 3308  32.878  18.341   6.165
    9AU     LIG 3309  33.243  18.485   5.878
    9AU       S 3310  32.597  17.972   7.453
    9AU     LIG 3311  32.850  18.282   7.523
    9AU     LIG 3312  33.296  18.267   7.549
    9AU     LIG 3313  33.654  18.496   7.690
    9AU       S 3314  32.741  17.727   7.399
    9AU     LIG 3315  33.021  17.988   7.137
    9AU     LIG 3316  33.491  18.037   7.129
    9AU     LIG 3317  33.929  17.871   7.097
    9AU       S 3318  32.671  16.831   7.762
    9AU     LIG 3319  33.009  16.593   7.951
    9AU     LIG 3320  33.451  16.674   7.954
    9AU     LIG 3321  33.607  16.780   7.538
    9AU       S 3322  32.330  18.207   8.196
    9AU     LIG 3323  32.746  18.336   8.313
    9AU     LIG 3324  32.855  18.727   8.553
    9AU     LIG 3325  32.851  19.096   8.862
    9AU       S 3326  32.700  17.713   7.741
    9AU     LIG 3327  33.013  18.005   7.926
    9AU     LIG 3328  33.435  18.181   8.045
    9AU     LIG 3329  33.905  18.153   8.054
    9AU       S 3330  30.795  18.084   8.122
    9AU     LIG 3331  30.464  18.044   8.435
    9AU     LIG 3332  30.045  18.256   8.510
    9AU     LIG 3333  29.636  18.493   8.546
    9AU       S 3334  30.882  18.421   7.376
    9AU     LIG 3335  30.668  18.845   7.438
    9AU     LIG 3336  30.334  18.919   7.176
    9AU     LIG 3337  30.187  18.506   7.035
    9AU       S 3338  30.362  17.585   7.084
    9AU     LIG 3339  30.000  17.688   6.850
    9AU     LIG 3340  29.651  17.970   6.897
    9AU     LIG 3341  29.574  18.427   7.004
    9AU       S 3342  30.749  18.260   6.884
    9AU     LIG 3343  30.720  18.698   6.928
    9AU     LIG 3344  30.461  19.018   6.698
    9AU     LIG 3345  30.181  19.009   6.328
    9AU       S 3346  30.352  17.208   7.668
    9AU     LIG 3347  30.071  17.147   7.331
    9AU     LIG 3348  29.729  17.315   7.108
    9AU     LIG 3349  29.376  17.079   6.968
    9AU       S 3350  30.486  17.705   8.045
    9AU     LIG 3351  30.056  17.816   8.195
    9AU     LIG 3352  29.670  18.096   8.186
    9AU     LIG 3353  29.530  18.457   7.948
    9AU       S 3354  32.360  16.711   7.632
    9AU     LIG 3355  32.472  16.365   7.393
    9AU     LIG 3356  32.844  16.237   7.575
    9AU     LIG 3357  33.297  16.341   7.598
    9AU       S 3358  32.249  16.632   8.120
    9AU     LIG 3359  32.564  16.343   8.006
    9AU     LIG 3360  32.901  16.197   8.275
    9AU     LIG 3361  32.946  15.990   8.690
    9AU       S 3362  32.656  16.793   7.557
    9AU     LIG 3363  32.906  16.607   7.228
    9AU     LIG 3364  33.352  16.630   7.105
    9AU     LIG 3365  33.807  16.817   7.063
    9AU       S 3366  32.403  16.690   6.969
    9AU     LIG 3367  32.428  16.279   6.855
    9AU     LIG 3368  32.391  15.858   6.728
    9AU     LIG 3369  32.467  15.589   6.370
    9AU       S 3370  30.716  16.820   6.892
    9AU     LIG 3371  30.398  16.925   6.596
    9AU     LIG 3372  30.137  16.685   6.275
    9AU     LIG 3373  29.771  16.391   6.193
    9AU       S 3374  30.377  16.993   7.702
    9AU     LIG 3375  30.210  16.665   7.591
    9AU     LIG 3376  29.815  16.632   7.464
    9AU     LIG 3377  29.485  16.457   7.732
    9AU       S 3378  30.777  16.779   8.342
    9AU     LIG 3379  30.431  16.621   8.081
    9AU     LIG 3380  30.251  16.186   8.117
    9AU     LIG 3381  30.047  16.031   8.507
    9AU       S 3382  30.425  17.249   7.846
    9AU     LIG 3383  30.104  17.056   8.116
    9AU     LIG 3384  29.752  17.196   7.890
    9AU     LIG 3385  29.550  17.062   7.523
    9AU       S 3386  31.010  18.452   7.863
    9AU     LIG 3387  30.547  18.552   7.892
    9AU     LIG 3388  30.153  18.626   8.162
    9AU     LIG 3389  30.049  18.814   8.578
    9AU       S 3390  31.629  18.601   7.861
    9AU     LIG 3391  31.665  18.786   8.255
    9AU     LIG 3392  31.522  19.219   8.377
    9AU     LIG 3393  31.358  19.668   8.470
    9AU       S 3394  31.773  18.759   7.741
    9AU     LIG 3395  31.470  19.086   7.845
    9AU     LIG 3396  31.344  19.509   7.967
    9AU     LIG 3397  31.432  19.955   8.043
    9AU       S 3398  31.579  18.563   7.004
    9AU     LIG 3399  31.615  18.933   7.264
    9AU     LIG 3400  31.739  19.334   7.207
    9AU     LIG 3401  32.033  19.560   6.939
    9AU       S 3402  32.093  18.162   8.356
    9AU     LIG 3403  32.349  18.525   8.580
    9AU     LIG 3404  32.518  18.712   8.969
    9AU     LIG 3405  32.677  18.477   9.335
    9AU       S 3406  31.902  18.583   7.513
    9AU     LIG 3407  32.057  19.073   7.510
    9AU     LIG 3408  31.897  19.380   7.832
    9AU     LIG 3409  31.808  19.615   8.213
    9AU       S 3410  31.458  16.306   8.079
    9AU     LIG 3411  31.842  16.061   8.146
    9AU     LIG 3412  31.996  15.708   8.350
    9AU     LIG 3413  31.843  15.332   8.594
    9AU       S 3414  32.011  16.604   7.970
    9AU     LIG 3415  32.130  16.253   7.760
    9AU     LIG 3416  32.301  15.894   7.977
    9AU     LIG 3417  32.534  15.864   8.368
    9AU       S 3418  31.263  16.229   7.927
    9AU     LIG 3419  31.356  15.760   7.865
    9AU     LIG 3420  31.438  15.294   7.897
    9AU     LIG 3421  31.371  14.930   8.200
    9AU       S 3422  31.011  16.888   8.481
    9AU     LIG 3423  30.736  16.652   8.816
    9AU     LIG 3424  30.404  16.321   8.755
    9AU     LIG 3425  30.422  15.831   8.795
    9AU       S 3426  31.661  16.310   7.251
    9AU     LIG 3427  31.610  15.872   7.110
    9AU     LIG 3428  31.567  15.481   6.883
    9AU     LIG 3429  31.421  15.078   7.035
    9AU       S 3430  31.602  16.339   7.831
    9AU     LIG 3431  31.737  15.974   7.621
    9AU     LIG 3432  31.876  15.618   7.844
    9AU     LIG 3433  31.974  15.251   8.106
    9AU       S 3434  31.439  18.458   6.730
    9AU     LIG 3435  31.237  18.890   6.729
    9AU     LIG 3436  31.400  19.315   6.812
    9AU     LIG 3437  31.678  19.602   6.560
    9AU       S 3438  32.217  18.282   7.137
    9AU     LIG 3439  32.338  18.679   6.874
    9AU     LIG 3440  32.670  18.755   6.533
    9AU     LIG 3441  33.115  18.738   6.378
    9AU       S 3442  31.242  18.475   7.010
    9AU     LIG 3443  31.128  18.838   7.228
    9AU     LIG 3444  30.917  19.162   7.054
    9AU     LIG 3445  30.905  19.286   6.643
    9AU       S 3446  30.780  17.879   6.621
    9AU     LIG 3447  30.720  18.250   6.383
    9AU     LIG 3448  30.817  18.699   6.435
    9AU     LIG 3449  30.690  19.081   6.225
    9AU       S 3450  30.764  16.625   7.127
    9AU     LIG 3451  30.278  16.693   7.071
    9AU     LIG 3452  30.068  16.476   6.733
    9AU     LIG 3453  30.165  16.151   6.407
    9AU       S 3454  31.675  16.365   7.087
    9AU     LIG 3455  31.929  16.141   6.800
    9AU     LIG 3456  31.910  15.744   6.593
    9AU     LIG 3457  31.887  15.350   6.365
    9AU       S 3458  31.914  16.436   7.335
    9AU     LIG 3459  32.103  16.049   7.262
    9AU     LIG 3460  32.075  15.664   7.080
    9AU     LIG 3461  32.221  15.361   6.753
    9AU       S 3462  32.304  16.813   6.729
    9AU     LIG 3463  32.103  16.523   6.506
    9AU     LIG 3464  32.154  16.111   6.317
    9AU     LIG 3465  32.416  15.932   5.969
   10AU     AUC 3466  17.286   0.713   7.537
   10AU     AUC 3467  17.541   0.701   7.379
   10AU     AUC 3468  17.522   0.710   7.715
   10AU     AUC 3469  17.025   0.716   7.374
   10AU     AUC 3470  17.037   0.767   7.696
   10AU     AUC 3471  17.131   0.975   7.490
   10AU     AUC 3472  17.466   0.966   7.501
   10AU     AUC 3473  17.110   0.469   7.558
   10AU     AUC 3474  17.439   0.439   7.570
   10AU     AUC 3475  17.273   0.572   7.810
   10AU     AUC 3476  17.290   0.912   7.768
   10AU     AUC 3477  17.283   0.524   7.298
   10AU     AUC 3478  17.305   0.825   7.266
   10AU     AUC 3479  17.859   0.684   7.235
   10AU     AUC 3480  17.850   0.681   7.577
   10AU     AUC 3481  17.806   0.693   7.928
   10AU     AUC 3482  16.728   0.679   7.226
   10AU     AUC 3483  16.713   0.765   7.545
   10AU     AUC 3484  16.736   0.831   7.863
   10AU     AUC 3485  16.980   1.282   7.415
   10AU     AUC 3486  17.336   1.261   7.411
   10AU     AUC 3487  17.668   1.241   7.459
   10AU     AUC 3488  16.909   0.180   7.582
   10AU     AUC 3489  17.255   0.151   7.572
   10AU     AUC 3490  17.605   0.137   7.590
   10AU     AUC 3491  17.228   0.423   8.123
   10AU     AUC 3492  17.261   0.771   8.101
   10AU     AUC 3493  17.322   1.125   8.048
   10AU     AUC 3494  17.322   0.324   7.023
   10AU     AUC 3495  17.283   0.650   6.961
   10AU     AUC 3496  17.275   0.963   6.941
   10AU     AUC 3497  17.507   0.524   8.036
   10AU     AUC 3498  17.557   0.879   8.008
   10AU     AUC 3499  17.599   0.530   7.088
   10AU     AUC 3500  17.564   0.828   7.085
   10AU     AUC 3501  16.979   0.661   8.008
   10AU     AUC 3502  17.027   1.005   7.946
   10AU     AUC 3503  17.011   0.481   7.113
   10AU     AUC 3504  16.973   0.802   7.067
   10AU     AUC 3505  17.786   0.962   7.368
   10AU     AUC 3506  17.724   0.953   7.706
   10AU     AUC 3507  16.832   0.989   7.353
   10AU     AUC 3508  16.876   1.086   7.673
   10AU     AUC 3509  17.746   0.422   7.443
   10AU     AUC 3510  17.681   0.390   7.778
   10AU     AUC 3511  16.822   0.409   7.396
   10AU     AUC 3512  16.837   0.510   7.728
   10AU     AUC 3513  17.191   1.229   7.737
   10AU     AUC 3514  17.498   1.182   7.769
   10AU     AUC 3515  17.075   0.304   7.846
   10AU     AUC 3516  17.378   0.238   7.846
   10AU     AUC 3517  17.111   1.120   7.172
   10AU     AUC 3518  17.475   1.133   7.201
   10AU     AUC 3519  17.136   0.237   7.290
   10AU     AUC 3520  17.503   0.271   7.304
   10AU    AUSL 3521  17.767   0.641   8.334
   10AU    AUSL 3522  17.503   0.254   8.258
   10AU     AUL 3523  17.799   0.295   8.446
   10AU    AUSL 3524  17.345   0.595   8.468
   10AU    AUSL 3525  17.114   0.997   8.436
   10AU     AUL 3526  17.334   0.903   8.727
   10AU    AUSL 3527  17.458   0.938   8.192
   10AU    AUSL 3528  17.915   1.004   8.139
   10AU     AUL 3529  17.727   0.947   8.463
   10AU    AUSL 3530  17.756   0.707   6.841
   10AU    AUSL 3531  17.581   1.091   6.977
   10AU     AUL 3532  17.853   1.027   6.719
   10AU    AUSL 3533  17.542   0.384   6.631
   10AU    AUSL 3534  18.051   0.458   7.031
   10AU     AUL 3535  17.916   0.464   6.683
   10AU    AUSL 3536  17.376   0.847   6.679
   10AU    AUSL 3537  17.175   0.473   6.834
   10AU     AUL 3538  17.285   0.511   6.493
   10AU    AUSL 3539  16.731   0.958   8.209
   10AU    AUSL 3540  17.092   1.249   8.084
   10AU     AUL 3541  16.906   1.232   8.394
   10AU    AUSL 3542  17.028   0.639   8.187
   10AU    AUSL 3543  16.590   0.539   8.124
   10AU     AUL 3544  16.580   0.730   8.305
   10AU    AUSL 3545  16.734   0.461   6.803
   10AU    AUSL 3546  16.977   0.127   6.986
   10AU     AUL 3547  17.015   0.164   6.681
   10AU    AUSL 3548  16.941   0.817   6.651
   10AU    AUSL 3549  16.653   0.835   7.025
   10AU     AUL 3550  16.536   0.698   6.767
   10AU    AUSL 3551  18.074   1.180   7.520
   10AU    AUSL 3552  17.954   0.922   7.160
   10AU     AUL 3553  18.275   1.121   7.152
   10AU    AUSL 3554  18.258   0.764   7.430
   10AU    AUSL 3555  18.193   0.473   7.810
   10AU     AUL 3556  18.503   0.513   7.604
   10AU    AUSL 3557  17.965   0.829   7.758
   10AU    AUSL 3558  17.733   1.224   7.788
   10AU     AUL 3559  18.061   1.215   7.861
   10AU    AUSL 3560  16.732   1.372   7.450
   10AU    AUSL 3561  16.749   1.148   7.824
   10AU     AUL 3562  16.450   1.396   7.653
   10AU    AUSL 3563  16.529   0.980   7.408
   10AU    AUSL 3564  16.682   1.266   7.039
   10AU     AUL 3565  16.445   1.205   7.192
   10AU    AUSL 3566  16.372   0.961   7.843
   10AU    AUSL 3567  16.357   0.591   7.347
   10AU     AUL 3568  16.210   0.936   7.523
   10AU    AUSL 3569  17.955   0.127   7.668
   10AU    AUSL 3570  17.788   0.428   7.965
   10AU     AUL 3571  18.088   0.323   8.054
   10AU    AUSL 3572  17.931   0.492   7.437
   10AU    AUSL 3573  17.929   0.076   7.237
   10AU     AUL 3574  18.177   0.295   7.327
   10AU    AUSL 3575  16.513   0.224   7.580
   10AU    AUSL 3576  16.722   0.406   7.222
   10AU     AUL 3577  16.367   0.316   7.215
   10AU    AUSL 3578  16.606   0.634   7.708
   10AU    AUSL 3579  16.825   0.269   7.876
   10AU     AUL 3580  16.497   0.267   7.912
   10AU    AUSL 3581  17.374   1.523   7.897
   10AU    AUSL 3582  16.924   1.551   7.800
   10AU     AUL 3583  17.143   1.590   8.150
   10AU    AUSL 3584  17.207   1.417   7.512
   10AU    AUSL 3585  17.461   1.511   7.165
   10AU     AUL 3586  17.216   1.760   7.440
   10AU    AUSL 3587  17.650   1.567   7.551
   10AU    AUSL 3588  17.612   1.333   8.198
   10AU     AUL 3589  17.743   1.564   7.923
   10AU    AUSL 3590  17.189   0.068   8.019
   10AU    AUSL 3591  17.615   0.029   7.904
   10AU     AUL 3592  17.359  44.965   8.276
   10AU    AUSL 3593  16.888  44.871   7.740
   10AU    AUSL 3594  16.936   0.251   8.315
   10AU     AUL 3595  16.852  44.976   8.091
   10AU    AUSL 3596  17.328  44.773   7.721
   10AU    AUSL 3597  17.132   0.025   7.408
   10AU     AUL 3598  17.051  44.678   7.534
   10AU    AUSL 3599  17.296   1.338   6.772
   10AU    AUSL 3600  17.853   1.351   7.195
   10AU     AUL 3601  17.601   1.426   6.861
   10AU    AUSL 3602  17.037   1.485   7.119
   10AU    AUSL 3603  17.056   1.052   6.981
   10AU     AUL 3604  16.970   1.322   6.769
   10AU    AUSL 3605  17.367  44.951   7.028
   10AU    AUSL 3606  16.723  44.964   7.306
   10AU     AUL 3607  17.030  44.821   7.093
   10AU    AUSL 3608  17.563  44.988   7.429
   10AU    AUSL 3609  17.611   0.307   7.044
   10AU     AUL 3610  17.689  44.962   7.011
   10AU       S 3611  17.803  44.848   8.305
   10AU     LIG 3612  17.873  44.501   8.506
   10AU     LIG 3613  18.239  44.332   8.622
   10AU     LIG 3614  18.208  44.127   8.993
   10AU       S 3615  17.704   0.592   8.788
   10AU     LIG 3616  18.119   0.675   8.743
   10AU     LIG 3617  18.313   0.738   9.159
   10AU     LIG 3618  18.210   0.676   9.621
   10AU       S 3619  17.368   0.428   8.682
   10AU     LIG 3620  17.373   0.449   9.145
   10AU     LIG 3621  17.753   0.434   9.441
   10AU     LIG 3622  18.040   0.198   9.737
   10AU       S 3623  16.892   0.812   8.656
   10AU     LIG 3624  16.937   0.754   9.111
   10AU     LIG 3625  16.682   0.724   9.480
   10AU     LIG 3626  16.544   0.825   9.922
   10AU       S 3627  17.361   1.359   8.574
   10AU     LIG 3628  17.616   1.656   8.782
   10AU     LIG 3629  18.044   1.558   8.835
   10AU     LIG 3630  18.234   1.165   8.847
   10AU       S 3631  18.111   1.182   8.329
   10AU     LIG 3632  18.522   1.288   8.440
   10AU     LIG 3633  18.557   1.613   8.774
   10AU     LIG 3634  18.813   1.933   9.007
   10AU       S 3635  17.730   0.777   6.356
   10AU     LIG 3636  18.154   0.670   6.161
   10AU     LIG 3637  18.327   0.329   5.893
   10AU     LIG 3638  18.201  44.988   5.617
   10AU       S 3639  18.034   1.469   6.766
   10AU     LIG 3640  18.004   1.854   6.501
   10AU     LIG 3641  18.220   2.133   6.170
   10AU     LIG 3642  18.590   2.276   5.902
   10AU       S 3643  18.284   0.208   6.872
   10AU     LIG 3644  18.284   0.214   6.390
   10AU     LIG 3645  18.232  44.844   6.135
   10AU     LIG 3646  18.345  44.403   6.021
   10AU       S 3647  17.681   0.607   6.293
   10AU     LIG 3648  17.834   0.262   6.070
   10AU     LIG 3649  17.713   0.137   5.656
   10AU     LIG 3650  17.785   0.171   5.207
   10AU       S 3651  16.854   0.456   6.344
   10AU     LIG 3652  17.004   0.433   5.965
   10AU     LIG 3653  17.055   0.445   5.528
   10AU     LIG 3654  16.867   0.436   5.107
   10AU       S 3655  17.468   0.945   6.453
   10AU     LIG 3656  17.254   0.851   6.088
   10AU     LIG 3657  17.489   0.600   5.799
   10AU     LIG 3658  17.940   0.595   5.671
   10AU       S 3659  16.685   0.940   8.698
   10AU     LIG 3660  16.459   0.565   8.843
   10AU     LIG 3661  16.292   0.373   9.222
   10AU     LIG 3662  16.331   0.416   9.687
   10AU       S 3663  16.661   1.561   8.173
   10AU     LIG 3664  16.384   1.774   8.465
   10AU     LIG 3665  16.182   1.692   8.885
   10AU     LIG 3666  15.892   1.921   9.191
   10AU       S 3667  16.443   0.292   8.383
   10AU     LIG 3668  16.129   0.532   8.436
   10AU     LIG 3669  15.968   0.339   8.807
   10AU     LIG 3670  15.595   0.095   8.832
   10AU       S 3671  16.900   0.619   8.619
   10AU     LIG 3672  16.922   0.291   8.910
   10AU     LIG 3673  16.774   0.238   9.325
   10AU     LIG 3674  16.828   0.319   9.787
   10AU       S 3675  16.661   0.378   6.456
   10AU     LIG 3676  16.393   0.379   6.122
   10AU     LIG 3677  16.553   0.469   5.705
   10AU     LIG 3678  16.483   0.728   5.318
   10AU       S 3679  16.650  44.884   6.813
   10AU     LIG 3680  16.467  44.466   6.645
   10AU     LIG 3681  16.335  44.336   6.246
   10AU     LIG 3682  16.271  44.634   5.944
   10AU       S 3683  16.368   1.119   6.704
   10AU     LIG 3684  16.081   1.465   6.792
   10AU     LIG 3685  15.989   1.854   6.564
   10AU     LIG 3686  15.868   2.034   6.144
   10AU       S 3687  16.869   0.739   6.421
   10AU     LIG 3688  16.616   0.851   6.108
   10AU     LIG 3689  16.777   0.936   5.704
   10AU     LIG 3690  17.185   0.945   5.517
   10AU       S 3691  18.149   1.378   6.808
   10AU     LIG 3692  18.370   1.507   6.396
   10AU     LIG 3693  18.615   1.801   6.141
   10AU     LIG 3694  19.022   1.990   6.029
   10AU       S 3695  18.433   1.199   7.593
   10AU     LIG 3696  18.534   1.450   7.895
   10AU     LIG 3697  18.965   1.575   7.861
   10AU     LIG 3698  19.220   1.943   7.773
   10AU       S 3699  18.507   0.977   7.570
   10AU     LIG 3700  18.925   1.198   7.472
   10AU     LIG 3701  19.303   1.103   7.212
   10AU     LIG 3702  19.745   0.983   7.064
   10AU       S 3703  18.415   0.087   7.829
   10AU     LIG 3704  18.762  44.835   7.943
   10AU     LIG 3705  19.107  44.831   7.732
   10AU     LIG 3706  19.375   0.199   7.763
   10AU       S 3707  18.076   1.460   8.246
   10AU     LIG 3708  18.399   1.759   8.294
   10AU     LIG 3709  18.626   2.071   8.528
   10AU     LIG 3710  18.586   2.391   8.856
   10AU       S 3711  18.394   0.908   7.872
   10AU     LIG 3712  18.824   1.039   7.969
   10AU     LIG 3713  19.254   1.128   7.862
   10AU     LIG 3714  19.479   1.492   7.885
   10AU       S 3715  16.554   1.367   8.097
   10AU     LIG 3716  16.316   1.260   8.438
   10AU     LIG 3717  15.920   1.500   8.478
   10AU     LIG 3718  15.658   1.639   8.809
   10AU       S 3719  16.683   1.693   7.358
   10AU     LIG 3720  16.407   2.059   7.393
   10AU     LIG 3721  16.029   2.135   7.137
   10AU     LIG 3722  15.732   1.801   7.024
   10AU       S 3723  16.144   0.873   7.052
   10AU     LIG 3724  15.795   0.585   7.005
   10AU     LIG 3725  15.361   0.766   7.007
   10AU     LIG 3726  15.063   1.133   6.961
   10AU       S 3727  16.569   1.537   6.869
   10AU     LIG 3728  16.467   1.984   6.766
   10AU     LIG 3729  16.166   2.335   6.574
   10AU     LIG 3730  15.715   2.455   6.426
   10AU       S 3731  16.109   0.482   7.591
   10AU     LIG 3732  15.695   0.539   7.515
   10AU     LIG 3733  15.275   0.572   7.473
   10AU     LIG 3734  14.936   0.526   7.189
   10AU       S 3735  16.253   0.957   8.026
   10AU     LIG 3736  15.892   0.995   8.288
   10AU     LIG 3737  15.639   1.283   8.090
   10AU     LIG 3738  15.698   1.291   7.629
   10AU       S 3739  18.108  44.989   7.695
   10AU     LIG 3740  18.113  44.654   7.515
   10AU     LIG 3741  18.405  44.527   7.766
   10AU     LIG 3742  18.792  44.363   7.735
   10AU       S 3743  17.973  44.902   8.168
   10AU     LIG 3744  18.366  44.767   8.254
   10AU     LIG 3745  18.672  44.646   8.578
   10AU     LIG 3746  18.631  44.411   8.984
   10AU       S 3747  18.407   0.035   7.611
   10AU     LIG 3748  18.802   0.096   7.415
   10AU     LIG 3749  19.225   0.007   7.235
   10AU     LIG 3750  19.343  44.775   6.852
   10AU       S 3751  18.177  44.920   7.051
   10AU     LIG 3752  18.342  44.603   6.815
   10AU     LIG 3753  18.110  44.418   6.497
   10AU     LIG 3754  18.173  44.012   6.308
   10AU       S 3755  16.519   0.049   6.875
   10AU     LIG 3756  16.209   0.307   6.715
   10AU     LIG 3757  15.911   0.221   6.379
   10AU     LIG 3758  15.588   0.078   6.045
   10AU       S 3759  16.134   0.245   7.629
   10AU     LIG 3760  15.794   0.031   7.641
   10AU     LIG 3761  15.466   0.070   7.418
   10AU     LIG 3762  15.377   0.238   7.011
   10AU       S 3763  16.475   0.093   8.338
   10AU     LIG 3764  16.610  44.675   8.395
   10AU     LIG 3765  16.369  44.462   8.115
   10AU     LIG 3766  15.938  44.439   8.273
   10AU       S 3767  16.151   0.532   7.783
   10AU     LIG 3768  15.806   0.380   8.019
   10AU     LIG 3769  15.378   0.258   7.899
   10AU     LIG 3770  14.993   0.200   7.645
   10AU       S 3771  16.794   1.719   7.844
   10AU     LIG 3772  16.410   1.950   7.929
   10AU     LIG 3773  16.029   2.043   8.197
   10AU     LIG 3774  15.923   2.067   8.652
   10AU       S 3775  17.402   1.875   7.871
   10AU     LIG 3776  17.612   2.205   8.122
   10AU     LIG 3777  17.365   2.498   8.394
   10AU     LIG 3778  16.931   2.542   8.562
   10AU       S 3779  17.238   2.010   7.847
   10AU     LIG 3780  16.874   2.225   7.872
   10AU     LIG 3781  16.878   2.604   8.054
   10AU     LIG 3782  17.055   3.012   8.063
   10AU       S 3783  17.384   1.825   7.000
   10AU     LIG 3784  17.400   2.291   7.110
   10AU     LIG 3785  17.467   2.745   7.302
   10AU     LIG 3786  17.574   3.009   7.653
   10AU       S 3787  17.830   1.422   8.380
   10AU     LIG 3788  17.921   1.889   8.443
   10AU     LIG 3789  18.186   2.046   8.791
   10AU     LIG 3790  18.337   1.863   9.192
   10AU       S 3791  17.611   1.917   7.635
   10AU     LIG 3792  17.504   2.344   7.611
   10AU     LIG 3793  17.378   2.626   7.905
   10AU     LIG 3794  17.559   2.955   8.190
   10AU       S 3795  17.126  44.590   8.121
   10AU     LIG 3796  17.371  44.403   8.470
   10AU     LIG 3797  17.381  43.946   8.679
   10AU     LIG 3798  17.331  43.453   8.717
   10AU       S 3799  17.737  44.870   8.008
   10AU     LIG 3800  17.810  44.491   7.886
   10AU     LIG 3801  18.142  44.334   8.125
   10AU     LIG 3802  18.615  44.295   8.219
   10AU       S 3803  16.913  44.541   7.953
   10AU     LIG 3804  16.887  44.193   7.886
   10AU     LIG 3805  17.101  44.056   8.246
   10AU     LIG 3806  16.965  43.709   8.492
   10AU       S 3807  16.696   0.209   8.479
   10AU     LIG 3808  16.464   0.057   8.842
   10AU     LIG 3809  16.473  44.651   8.968
   10AU     LIG 3810  16.394  44.231   9.005
   10AU       S 3811  17.416  44.556   7.290
   10AU     LIG 3812  17.207  44.147   7.259
   10AU     LIG 3813  17.188  43.720   7.011
   10AU     LIG 3814  17.037  43.481   6.610
   10AU       S 3815  17.306  44.584   7.931
   10AU     LIG 3816  17.397  44.134   7.838
   10AU     LIG 3817  17.312  43.670   8.033
   10AU     LIG 3818  17.364  43.236   8.180
   10AU       S 3819  17.241   1.716   6.727
   10AU     LIG 3820  17.129   2.161   6.681
   10AU     LIG 3821  17.388   2.456   6.444
   10AU     LIG 3822  17.773   2.722   6.479
   10AU       S 3823  18.002   1.523   7.112
   10AU     LIG 3824  18.237   1.895   6.968
   10AU     LIG 3825  18.486   2.038   6.606
   10AU     LIG 3826  18.788   2.292   6.378
   10AU       S 3827  17.045   1.743   6.989
   10AU     LIG 3828  16.883   2.135   7.149
   10AU     LIG 3829  16.988   2.586   7.062
   10AU     LIG 3830  17.354   2.785   6.821
   10AU       S 3831  16.590   1.153   6.597
   10AU     LIG 3832  16.414   1.548   6.391
   10AU     LIG 3833  16.385   1.988   6.238
   10AU     LIG 3834  16.237   2.383   6.024
   10AU       S 3835  16.558  44.890   7.120
   10AU     LIG 3836  16.374  44.526   7.132
   10AU     LIG 3837  16.301  44.127   7.023
   10AU     LIG 3838  16.253  43.975   6.602
   10AU       S 3839  17.436  44.578   7.086
   10AU     LIG 3840  17.618  44.505   6.683
   10AU     LIG 3841  17.672  44.117   6.450
   10AU     LIG 3842  17.274  43.851   6.269
   10AU       S 3843  17.639  44.676   7.382
   10AU     LIG 3844  17.934  44.476   7.081
   10AU     LIG 3845  18.169  44.125   6.917
   10AU     LIG 3846  17.997  43.795   6.723
   10AU       S 3847  18.077   0.033   6.786
   10AU     LIG 3848  17.825  44.924   6.464
   10AU     LIG 3849  17.750  44.575   6.166
   10AU     LIG 3850  17.853  44.181   5.950
   11POPC   NC3 3851  43.265  27.634   9.495
   11POPC   PO4 3852  42.711  27.946   9.292
   11POPC   GL1 3853  43.037  27.761   9.020
   11POPC   GL2 3854  43.055  27.427   9.058
   11POPC   C1A 3855  43.099  27.623   8.586
   11POPC   D2A 3856  42.805  27.494   8.281
   11POPC   C3A 3857  42.871  27.588   7.914
   11POPC   C4A 3858  43.030  27.500   7.573
   11POPC   C1B 3859  43.328  27.201   8.739
   11POPC   C2B 3860  43.516  27.291   8.345
   11POPC   C3B 3861  43.399  27.362   7.939
   11POPC   C4B 3862  43.396  27.145   7.527
   12POPC   NC3 3863  18.467  11.003   9.594
   12POPC   PO4 3864  18.208  11.680   9.497
   12POPC   GL1 3865  18.199  11.473   9.123
   12POPC   GL2 3866  18.464  11.299   9.174
   12POPC   C1A 3867  18.130  11.196   8.746
   12POPC   D2A 3868  18.011  11.258   8.305
   12POPC   C3A 3869  18.227  11.144   7.941
   12POPC   C4A 3870  18.156  10.797   7.698
   12POPC   C1B 3871  18.543  11.510   8.775
   12POPC   C2B 3872  18.537  11.299   8.382
   12POPC   C3B 3873  18.639  11.453   7.997
   12POPC   C4B 3874  18.562  11.683   7.652
   13POPC   NC3 3875   0.289  25.049   9.592
   13POPC   PO4 3876   0.735  25.550   9.441
   13POPC   GL1 3877   0.403  25.370   9.204
   13POPC   GL2 3878   0.174  25.652   9.155
   13POPC   C1A 3879   0.373  25.095   8.828
   13POPC   D2A 3880   0.356  25.230   8.364
   13POPC   C3A 3881   0.424  25.012   7.956
   13POPC   C4A 3882   0.658  24.784   7.655
   13POPC   C1B 3883   0.356  25.592   8.744
   13POPC   C2B 3884   0.540  25.709   8.372
   13POPC   C3B 3885   0.572  25.674   7.957
   13POPC   C4B 3886   0.210  25.528   7.769
   14POPC   NC3 3887  43.032   2.246   9.552
   14POPC   PO4 3888  42.992   1.542   9.453
   14POPC   GL1 3889  43.068   1.824   9.155
   14POPC   GL2 3890  43.309   2.086   9.165
   14POPC   C1A 3891  42.882   1.967   8.807
   14POPC   D2A 3892  42.795   2.287   8.521
   14POPC   C3A 3893  42.845   2.097   8.113
   14POPC   C4A 3894  42.982   2.150   7.710
   14POPC   C1B 3895  43.217   2.369   8.842
   14POPC   C2B 3896  43.283   2.190   8.435
   14POPC   C3B 3897  43.293   2.383   8.053
   14POPC   C4B 3898  43.573   2.380   7.685
   15POPC   NC3 3899  40.976   6.529   9.413
   15POPC   PO4 3900  40.580   7.018   9.644
   15POPC   GL1 3901  40.546   6.991   9.183
   15POPC   GL2 3902  40.884   6.971   9.146
   15POPC   C1A 3903  40.417   6.793   8.760
   15POPC   D2A 3904  40.472   6.390   8.498
   15POPC   C3A 3905  40.585   6.343   8.052
   15POPC   C4A 3906  40.929   6.585   7.827
   15POPC   C1B 3907  41.125   7.004   8.798
   15POPC   C2B 3908  40.921   6.828   8.457
   15POPC   C3B 3909  40.807   7.011   8.102
   15POPC   C4B 3910  41.173   7.032   7.876
   16POPC   NC3 3911   2.537  31.016   9.444
   16POPC   PO4 3912   2.476  31.686   9.445
   16POPC   GL1 3913   2.600  31.469   9.104
   16POPC   GL2 3914   2.954  31.452   8.952
   16POPC   C1A 3915   2.519  31.404   8.691
   16POPC   D2A 3916   2.854  31.337   8.431
   16POPC   C3A 3917   2.850  31.623   8.093
   16POPC   C4A 3918   2.658  31.554   7.696
   16POPC   C1B 3919   3.300  31.442   8.630
   16POPC   C2B 3920   3.304  31.430   8.180
   16POPC   C3B 3921   3.219  31.477   7.761
   16POPC   C4B 3922   3.103  31.154   7.477
   17POPC   NC3 3923  41.094  19.590   9.392
   17POPC   PO4 3924  41.662  19.602   9.770
   17POPC   GL1 3925  41.600  19.744   9.283
   17POPC   GL2 3926  41.387  19.581   8.995
   17POPC   C1A 3927  41.809  19.799   8.846
   17POPC   D2A 3928  41.813  19.551   8.436
   17POPC   C3A 3929  41.673  19.612   7.977
   17POPC   C4A 3930  41.638  19.784   7.538
   17POPC   C1B 3931  41.342  19.803   8.604
   17POPC   C2B 3932  41.544  20.029   8.256
   17POPC   C3B 3933  41.332  20.029   7.869
   17POPC   C4B 3934  41.124  19.771   7.564
   18POPC   NC3 3935  41.700  41.510   9.345
   18POPC   PO4 3936  41.059  41.302   9.443
   18POPC   GL1 3937  40.853  41.470   9.079
   18POPC   GL2 3938  40.491  41.376   9.018
   18POPC   C1A 3939  40.787  41.597   8.654
   18POPC   D2A 3940  40.596  41.564   8.256
   18POPC   C3A 3941  40.719  41.664   7.816
   18POPC   C4A 3942  40.558  41.969   7.515
   18POPC   C1B 3943  40.447  41.208   8.634
   18POPC   C2B 3944  40.273  41.197   8.239
   18POPC   C3B 3945  40.266  41.451   7.883
   18POPC   C4B 3946  40.422  41.309   7.532
   19POPC   NC3 3947  29.397   1.037   9.483
   19POPC   PO4 3948  28.947   1.526   9.455
   19POPC   GL1 3949  29.094   1.342   9.136
   19POPC   GL2 3950  29.423   1.348   9.076
   19POPC   C1A 3951  28.876   1.256   8.805
   19POPC   D2A 3952  28.908   1.045   8.473
   19POPC   C3A 3953  28.889   1.218   8.109
   19POPC   C4A 3954  29.001   1.269   7.688
   19POPC   C1B 3955  29.343   0.980   8.803
   19POPC   C2B 3956  29.436   0.954   8.366
   19POPC   C3B 3957  29.323   0.974   7.951
   19POPC   C4B 3958  29.415   1.009   7.523
   20POPC   NC3 3959  11.880  33.792   9.941
   20POPC   PO4 3960  12.448  33.603   9.564
   20POPC   GL1 3961  12.188  33.757   9.203
   20POPC   GL2 3962  11.840  33.773   9.162
   20POPC   C1A 3963  12.202  34.012   8.836
   20POPC   D2A 3964  12.233  33.867   8.413
   20POPC   C3A 3965  12.416  34.090   8.053
   20POPC   C4A 3966  12.472  33.938   7.645
   20POPC   C1B 3967  11.700  34.032   8.801
   20POPC   C2B 3968  11.759  34.082   8.356
   20POPC   C3B 3969  11.954  33.861   7.977
   20POPC   C4B 3970  11.806  33.486   7.750
   21POPC   NC3 3971  38.296  27.158   9.509
   21POPC   PO4 3972  38.239  26.436   9.540
   21POPC   GL1 3973  38.472  26.658   9.205
   21POPC   GL2 3974  38.787  26.483   9.129
   21POPC   C1A 3975  38.462  26.897   8.805
   21POPC   D2A 3976  38.335  26.976   8.370
   21POPC   C3A 3977  38.639  27.039   8.036
   21POPC   C4A 3978  38.513  27.029   7.587
   21POPC   C1B 3979  38.678  26.452   8.671
   21POPC   C2B 3980  38.694  26.567   8.215
   21POPC   C3B 3981  38.756  26.576   7.731
   21POPC   C4B 3982  38.750  26.403   7.285
   22POPC   NC3 3983  37.724  35.697   9.617
   22POPC   PO4 3984  37.661  35.062   9.531
   22POPC   GL1 3985  37.787  35.343   9.185
   22POPC   GL2 3986  37.469  35.456   9.171
   22POPC   C1A 3987  37.905  35.460   8.730
   22POPC   D2A 3988  38.062  35.331   8.325
   22POPC   C3A 3989  37.862  35.503   7.955
   22POPC   C4A 3990  37.712  35.469   7.519
   22POPC   C1B 3991  37.431  35.336   8.748
   22POPC   C2B 3992  37.512  35.409   8.314
   22POPC   C3B 3993  37.343  35.341   7.882
   22POPC   C4B 3994  37.212  35.535   7.491
   23POPC   NC3 3995   9.406  14.842   9.293
   23POPC   PO4 3996   9.871  15.344   9.496
   23POPC   GL1 3997   9.720  15.220   9.090
   23POPC   GL2 3998   9.870  15.499   8.969
   23POPC   C1A 3999   9.413  15.162   8.697
   23POPC   D2A 4000   9.359  15.033   8.241
   23POPC   C3A 4001   9.574  15.253   7.863
   23POPC   C4A 4002   9.853  15.162   7.504
   23POPC   C1B 4003   9.912  15.268   8.625
   23POPC   C2B 4004   9.911  15.214   8.249
   23POPC   C3B 4005  10.012  15.625   8.184
   23POPC   C4B 4006  10.017  15.527   7.805
   24POPC   NC3 4007   1.337  15.023   9.473
   24POPC   PO4 4008   0.824  15.392   9.351
   24POPC   GL1 4009   1.066  15.282   9.054
   24POPC   GL2 4010   1.363  15.490   9.135
   24POPC   C1A 4011   1.058  15.314   8.607
   24POPC   D2A 4012   1.255  15.532   8.270
   24POPC   C3A 4013   1.343  15.265   7.951
   24POPC   C4A 4014   1.083  14.978   7.731
   24POPC   C1B 4015   1.502  15.156   8.819
   24POPC   C2B 4016   1.418  14.979   8.410
   24POPC   C3B 4017   1.677  14.902   8.053
   24POPC   C4B 4018   1.598  14.904   7.635
   25POPC   NC3 4019   2.331  16.726   9.473
   25POPC   PO4 4020   1.756  16.429   9.474
   25POPC   GL1 4021   1.835  16.758   9.162
   25POPC   GL2 4022   1.528  16.996   9.159
   25POPC   C1A 4023   2.095  16.868   8.775
   25POPC   D2A 4024   1.937  16.903   8.349
   25POPC   C3A 4025   2.111  16.968   7.996
   25POPC   C4A 4026   2.157  16.590   7.842
   25POPC   C1B 4027   1.574  16.886   8.724
   25POPC   C2B 4028   1.464  17.018   8.311
   25POPC   C3B 4029   1.649  16.807   7.909
   25POPC   C4B 4030   1.812  16.647   7.479
   26POPC   NC3 4031  41.234  16.458   9.871
   26POPC   PO4 4032  41.756  16.792   9.705
   26POPC   GL1 4033  41.824  16.725   9.235
   26POPC   GL2 4034  41.577  16.972   9.125
   26POPC   C1A 4035  41.947  16.878   8.789
   26POPC   D2A 4036  41.653  16.978   8.425
   26POPC   C3A 4037  41.819  16.773   8.050
   26POPC   C4A 4038  41.916  16.854   7.595
   26POPC   C1B 4039  41.529  16.611   8.793
   26POPC   C2B 4040  41.464  16.296   8.489
   26POPC   C3B 4041  41.378  16.462   8.097
   26POPC   C4B 4042  41.328  16.697   7.747
   27POPC   NC3 4043  32.409  36.101   9.752
   27POPC   PO4 4044  32.026  36.323   9.217
   27POPC   GL1 4045  32.277  36.049   9.000
   27POPC   GL2 4046  32.471  35.855   9.219
   27POPC   C1A 4047  32.420  36.140   8.610
   27POPC   D2A 4048  32.036  36.099   8.381
   27POPC   C3A 4049  32.138  36.045   7.970
   27POPC   C4A 4050  32.381  36.399   7.782
   27POPC   C1B 4051  32.521  35.660   8.773
   27POPC   C2B 4052  32.565  35.753   8.294
   27POPC   C3B 4053  32.654  35.986   7.889
   27POPC   C4B 4054  32.570  35.878   7.423
   28POPC   NC3 4055   4.355  21.907   9.536
   28POPC   PO4 4056   4.519  22.536   9.446
   28POPC   GL1 4057   4.313  22.280   9.111
   28POPC   GL2 4058   4.301  21.913   9.059
   28POPC   C1A 4059   4.115  22.221   8.713
   28POPC   D2A 4060   4.293  22.400   8.380
   28POPC   C3A 4061   4.232  22.267   8.000
   28POPC   C4A 4062   4.568  22.488   7.848
   28POPC   C1B 4063   4.577  22.006   8.746
   28POPC   C2B 4064   4.437  21.921   8.377
   28POPC   C3B 4065   4.583  21.916   7.958
   28POPC   C4B 4066   4.763  21.667   7.696
   29POPC   NC3 4067  41.597  35.308   9.406
   29POPC   PO4 4068  41.112  35.660   9.689
   29POPC   GL1 4069  41.206  35.558   9.201
   29POPC   GL2 4070  41.219  35.154   9.094
   29POPC   C1A 4071  41.376  35.482   8.748
   29POPC   D2A 4072  41.255  35.221   8.382
   29POPC   C3A 4073  41.160  35.345   7.931
   29POPC   C4A 4074  41.404  35.524   7.559
   29POPC   C1B 4075  41.628  35.056   8.810
   29POPC   C2B 4076  41.753  35.142   8.371
   29POPC   C3B 4077  41.531  35.014   7.975
   29POPC   C4B 4078  41.568  35.001   7.549
   30POPC   NC3 4079  23.218  41.854   9.500
   30POPC   PO4 4080  22.532  41.434   9.488
   30POPC   GL1 4081  22.813  41.662   9.240
   30POPC   GL2 4082  22.984  41.347   9.200
   30POPC   C1A 4083  23.070  41.720   8.875
   30POPC   D2A 4084  23.087  41.466   8.559
   30POPC   C3A 4085  22.889  41.673   8.229
   30POPC   C4A 4086  22.936  41.761   7.781
   30POPC   C1B 4087  22.785  41.181   8.856
   30POPC   C2B 4088  22.775  41.096   8.423
   30POPC   C3B 4089  23.028  41.203   8.076
   30POPC   C4B 4090  22.983  41.234   7.654
   31POPC   NC3 4091   1.509   5.830   9.415
   31POPC   PO4 4092   0.817   5.967   9.338
   31POPC   GL1 4093   1.153   5.769   9.069
   31POPC   GL2 4094   1.519   5.575   8.992
   31POPC   C1A 4095   1.014   5.673   8.684
   31POPC   D2A 4096   0.825   5.928   8.392
   31POPC   C3A 4097   1.012   5.915   8.027
   31POPC   C4A 4098   0.981   5.584   7.800
   31POPC   C1B 4099   1.629   5.925   8.752
   31POPC   C2B 4100   1.405   5.891   8.381
   31POPC   C3B 4101   1.456   5.650   8.023
   31POPC   C4B 4102   1.408   5.920   7.688
   32POPC   NC3 4103  43.884   9.469   9.926
   32POPC   PO4 4104  43.793   8.771   9.821
   32POPC   GL1 4105  43.792   8.993   9.328
   32POPC   GL2 4106  43.756   8.735   9.094
   32POPC   C1A 4107  44.052   9.095   8.927
   32POPC   D2A 4108  43.966   9.136   8.467
   32POPC   C3A 4109  44.188   8.939   8.139
   32POPC   C4A 4110  44.114   8.687   7.777
   32POPC   C1B 4111  43.656   8.785   8.686
   32POPC   C2B 4112  43.508   8.717   8.291
   32POPC   C3B 4113  43.666   8.865   7.961
   32POPC   C4B 4114  43.774   9.106   7.648
   33POPC   NC3 4115   8.678  13.332   9.444
   33POPC   PO4 4116   8.022  13.687   9.499
   33POPC   GL1 4117   8.326  13.633   9.206
   33POPC   GL2 4118   8.249  13.285   9.164
   33POPC   C1A 4119   8.405  13.630   8.780
   33POPC   D2A 4120   8.435  13.905   8.421
   33POPC   C3A 4121   8.334  13.644   8.061
   33POPC   C4A 4122   8.506  13.385   7.691
   33POPC   C1B 4123   7.923  13.430   8.874
   33POPC   C2B 4124   7.981  13.551   8.452
   33POPC   C3B 4125   7.823  13.435   8.047
   33POPC   C4B 4126   8.009  13.549   7.692
   34POPC   NC3 4127  40.161   9.516   9.510
   34POPC   PO4 4128  40.000  10.135   9.555
   34POPC   GL1 4129  40.034   9.868   9.166
   34POPC   GL2 4130  40.391   9.737   9.118
   34POPC   C1A 4131  39.907   9.862   8.713
   34POPC   D2A 4132  39.602   9.997   8.396
   34POPC   C3A 4133  39.635   9.838   7.967
   34POPC   C4A 4134  39.951   9.634   7.665
   34POPC   C1B 4135  40.380  10.064   8.827
   34POPC   C2B 4136  40.392   9.879   8.450
   34POPC   C3B 4137  40.110   9.778   8.173
   34POPC   C4B 4138  40.043  10.099   7.900
   35POPC   NC3 4139  42.335  27.932   9.558
   35POPC   PO4 4140  42.664  27.216   9.536
   35POPC   GL1 4141  42.522  27.476   9.149
   35POPC   GL2 4142  42.256  27.765   9.083
   35POPC   C1A 4143  42.595  27.626   8.723
   35POPC   D2A 4144  42.351  27.807   8.367
   35POPC   C3A 4145  42.348  27.564   8.007
   35POPC   C4A 4146  42.514  27.199   7.837
   35POPC   C1B 4147  42.094  27.538   8.717
   35POPC   C2B 4148  41.886  27.297   8.397
   35POPC   C3B 4149  41.978  27.194   7.973
   35POPC   C4B 4150  42.107  27.325   7.562
   36POPC   NC3 4151  24.986  23.124   9.335
   36POPC   PO4 4152  25.031  22.567   9.742
   36POPC   GL1 4153  25.187  22.584   9.261
   36POPC   GL2 4154  25.485  22.802   9.179
   36POPC   C1A 4155  25.106  22.746   8.807
   36POPC   D2A 4156  25.217  22.629   8.406
   36POPC   C3A 4157  24.978  22.823   8.094
   36POPC   C4A 4158  25.070  22.926   7.689
   36POPC   C1B 4159  25.586  22.835   8.709
   36POPC   C2B 4160  25.490  23.048   8.285
   36POPC   C3B 4161  25.630  23.073   7.831
   36POPC   C4B 4162  25.575  23.090   7.366
   37POPC   NC3 4163  11.899  40.307   9.625
   37POPC   PO4 4164  12.204  39.680   9.555
   37POPC   GL1 4165  12.355  39.745   9.111
   37POPC   GL2 4166  12.481  39.531   8.869
   37POPC   C1A 4167  12.243  39.967   8.711
   37POPC   D2A 4168  12.307  40.264   8.429
   37POPC   C3A 4169  12.235  40.224   8.004
   37POPC   C4A 4170  11.810  40.137   7.876
   37POPC   C1B 4171  11.993  39.534   8.769
   37POPC   C2B 4172  11.863  39.804   8.431
   37POPC   C3B 4173  12.083  39.738   8.076
   37POPC   C4B 4174  11.786  39.632   7.792
   38POPC   NC3 4175  10.766  22.761   9.583
   38POPC   PO4 4176  10.115  23.143   9.506
   38POPC   GL1 4177  10.253  22.937   9.086
   38POPC   GL2 4178  10.546  22.756   9.125
   38POPC   C1A 4179  10.374  22.896   8.644
   38POPC   D2A 4180  10.496  23.118   8.276
   38POPC   C3A 4181  10.317  23.000   7.902
   38POPC   C4A 4182  10.479  23.039   7.501
   38POPC   C1B 4183  10.766  22.577   8.760
   38POPC   C2B 4184  10.648  22.595   8.291
   38POPC   C3B 4185  10.793  22.778   7.871
   38POPC   C4B 4186  10.888  22.716   7.426
   39POPC   NC3 4187  27.334  27.431   9.411
   39POPC   PO4 4188  27.987  27.560   9.578
   39POPC   GL1 4189  27.705  27.702   9.212
   39POPC   GL2 4190  27.676  27.382   9.028
   39POPC   C1A 4191  27.520  27.865   8.799
   39POPC   D2A 4192  27.678  27.791   8.357
   39POPC   C3A 4193  27.517  27.943   7.986
   39POPC   C4A 4194  27.570  27.600   7.717
   39POPC   C1B 4195  27.485  27.393   8.621
   39POPC   C2B 4196  27.301  27.312   8.207
   39POPC   C3B 4197  27.320  27.168   7.780
   39POPC   C4B 4198  27.334  27.365   7.290
   40POPC   NC3 4199  32.564  32.950   9.498
   40POPC   PO4 4200  31.979  33.189   9.708
   40POPC   GL1 4201  32.187  33.213   9.242
   40POPC   GL2 4202  32.365  32.907   9.035
   40POPC   C1A 4203  32.063  33.228   8.801
   40POPC   D2A 4204  32.249  33.269   8.413
   40POPC   C3A 4205  32.003  33.238   8.051
   40POPC   C4A 4206  32.106  33.082   7.636
   40POPC   C1B 4207  32.126  32.732   8.687
   40POPC   C2B 4208  32.113  32.775   8.272
   40POPC   C3B 4209  32.406  32.902   7.991
   40POPC   C4B 4210  32.410  32.673   7.599
   41POPC   NC3 4211  24.796  26.290   9.486
   41POPC   PO4 4212  24.350  25.812   9.595
   41POPC   GL1 4213  24.627  25.892   9.220
   41POPC   GL2 4214  24.421  26.171   9.097
   41POPC   C1A 4215  24.871  26.144   8.861
   41POPC   D2A 4216  24.621  26.178   8.507
   41POPC   C3A 4217  24.680  26.128   8.080
   41POPC   C4A 4218  24.670  25.791   7.788
   41POPC   C1B 4219  24.216  25.947   8.716
   41POPC   C2B 4220  24.155  26.086   8.262
   41POPC   C3B 4221  24.222  26.053   7.816
   41POPC   C4B 4222  24.004  25.823   7.490
   42POPC   NC3 4223  12.033  40.880   9.465
   42POPC   PO4 4224  12.165  40.174   9.289
   42POPC   GL1 4225  11.958  40.490   9.134
   42POPC   GL2 4226  12.193  40.756   8.999
   42POPC   C1A 4227  11.885  40.449   8.723
   42POPC   D2A 4228  12.057  40.727   8.451
   42POPC   C3A 4229  11.931  40.637   8.049
   42POPC   C4A 4230  11.900  40.936   7.723
   42POPC   C1B 4231  12.523  40.650   8.689
   42POPC   C2B 4232  12.507  40.664   8.217
   42POPC   C3B 4233  12.384  40.755   7.825
   42POPC   C4B 4234  12.315  40.883   7.399
   43POPC   NC3 4235   8.422   4.564   9.637
   43POPC   PO4 4236   8.272   5.124   9.575
   43POPC   GL1 4237   8.287   4.927   9.173
   43POPC   GL2 4238   8.048   4.697   9.254
   43POPC   C1A 4239   8.386   5.049   8.709
   43POPC   D2A 4240   8.423   5.089   8.202
   43POPC   C3A 4241   8.162   5.418   7.914
   43POPC   C4A 4242   7.849   5.707   7.686
   43POPC   C1B 4243   7.885   4.826   8.853
   43POPC   C2B 4244   8.051   4.791   8.447
   43POPC   C3B 4245   7.946   4.978   8.086
   43POPC   C4B 4246   8.199   4.947   7.719
   44POPC   NC3 4247   9.628  16.523   9.865
   44POPC   PO4 4248   9.163  16.882   9.472
   44POPC   GL1 4249   9.056  16.762   9.096
   44POPC   GL2 4250   8.691  16.709   9.154
   44POPC   C1A 4251   9.283  16.749   8.685
   44POPC   D2A 4252   9.394  16.476   8.329
   44POPC   C3A 4253   9.215  16.657   7.965
   44POPC   C4A 4254   9.056  17.113   7.944
   44POPC   C1B 4255   8.732  16.833   8.714
   44POPC   C2B 4256   8.843  16.638   8.327
   44POPC   C3B 4257   8.718  16.740   7.894
   44POPC   C4B 4258   8.814  16.502   7.512
   45POPC   NC3 4259   7.786  27.503   9.427
   45POPC   PO4 4260   8.462  27.441   9.445
   45POPC   GL1 4261   8.237  27.535   9.105
   45POPC   GL2 4262   8.063  27.803   9.122
   45POPC   C1A 4263   8.131  27.560   8.679
   45POPC   D2A 4264   8.445  27.683   8.412
   45POPC   C3A 4265   8.206  27.698   8.049
   45POPC   C4A 4266   8.183  27.552   7.642
   45POPC   C1B 4267   8.338  27.997   8.823
   45POPC   C2B 4268   8.196  28.121   8.427
   45POPC   C3B 4269   8.049  28.189   8.060
   45POPC   C4B 4270   7.939  27.998   7.702
   46POPC   NC3 4271  27.134  36.415   9.544
   46POPC   PO4 4272  27.526  35.892   9.397
   46POPC   GL1 4273  27.552  36.195   9.091
   46POPC   GL2 4274  27.275  36.375   9.063
   46POPC   C1A 4275  27.803  36.300   8.758
   46POPC   D2A 4276  27.814  36.062   8.382
   46POPC   C3A 4277  27.431  36.064   8.152
   46POPC   C4A 4278  27.544  36.025   7.733
   46POPC   C1B 4279  27.283  36.330   8.643
   46POPC   C2B 4280  27.549  36.522   8.361
   46POPC   C3B 4281  27.693  36.492   7.966
   46POPC   C4B 4282  27.422  36.537   7.619
   47POPC   NC3 4283  21.717  36.955   9.389
   47POPC   PO4 4284  22.388  36.873   9.236
   47POPC   GL1 4285  22.034  36.922   8.979
   47POPC   GL2 4286  21.809  36.675   8.977
   47POPC   C1A 4287  22.015  36.940   8.541
   47POPC   D2A 4288  22.416  37.032   8.357
   47POPC   C3A 4289  22.353  37.156   7.950
   47POPC   C4A 4290  21.908  37.259   7.847
   47POPC   C1B 4291  22.163  36.446   8.785
   47POPC   C2B 4292  22.370  36.525   8.423
   47POPC   C3B 4293  22.184  36.666   8.063
   47POPC   C4B 4294  22.334  36.749   7.651
   48POPC   NC3 4295  42.301  41.552   9.544
   48POPC   PO4 4296  41.714  41.145   9.620
   48POPC   GL1 4297  41.640  41.040   9.139
   48POPC   GL2 4298  41.349  41.209   9.056
   48POPC   C1A 4299  41.764  41.264   8.716
   48POPC   D2A 4300  41.751  41.643   8.490
   48POPC   C3A 4301  41.681  41.562   8.077
   48POPC   C4A 4302  41.710  41.201   7.859
   48POPC   C1B 4303  41.287  41.507   8.718
   48POPC   C2B 4304  41.118  41.580   8.278
   48POPC   C3B 4305  41.218  41.601   7.859
   48POPC   C4B 4306  41.516  41.756   7.579
   49POPC   NC3 4307   2.169  34.168   9.306
   49POPC   PO4 4308   1.881  34.759   9.500
   49POPC   GL1 4309   1.970  34.609   9.115
   49POPC   GL2 4310   2.272  34.723   9.122
   49POPC   C1A 4311   1.954  34.497   8.675
   49POPC   D2A 4312   1.901  34.324   8.281
   49POPC   C3A 4313   1.983  34.612   7.959
   49POPC   C4A 4314   1.855  34.563   7.533
   49POPC   C1B 4315   2.331  34.849   8.743
   49POPC   C2B 4316   2.377  34.682   8.343
   49POPC   C3B 4317   2.315  34.989   8.011
   49POPC   C4B 4318   2.267  34.941   7.588
   50POPC   NC3 4319  11.249  36.867   9.931
   50POPC   PO4 4320  11.400  37.311   9.431
   50POPC   GL1 4321  11.353  36.985   9.153
   50POPC   GL2 4322  11.677  36.867   9.072
   50POPC   C1A 4323  11.249  36.778   8.742
   50POPC   D2A 4324  11.132  36.670   8.287
   50POPC   C3A 4325  11.378  36.814   7.916
   50POPC   C4A 4326  11.630  36.741   7.546
   50POPC   C1B 4327  11.556  37.206   8.733
   50POPC   C2B 4328  11.273  37.168   8.338
   50POPC   C3B 4329  11.284  37.332   7.905
   50POPC   C4B 4330  11.646  37.241   7.664
   51POPC   NC3 4331  34.900  18.562   9.454
   51POPC   PO4 4332  35.549  18.559   9.613
   51POPC   GL1 4333  35.345  18.382   9.247
   51POPC   GL2 4334  35.616  18.537   9.076
   51POPC   C1A 4335  35.172  18.485   8.827
   51POPC   D2A 4336  35.446  18.468   8.472
   51POPC   C3A 4337  35.299  18.571   8.089
   51POPC   C4A 4338  35.134  18.271   7.813
   51POPC   C1B 4339  35.902  18.567   8.725
   51POPC   C2B 4340  35.948  18.443   8.305
   51POPC   C3B 4341  35.827  18.639   7.961
   51POPC   C4B 4342  35.548  18.533   7.657
   52POPC   NC3 4343  14.053  28.825   9.476
   52POPC   PO4 4344  13.487  29.129   9.566
   52POPC   GL1 4345  13.665  29.161   9.135
   52POPC   GL2 4346  13.998  29.296   9.132
   52POPC   C1A 4347  13.622  29.069   8.677
   52POPC   D2A 4348  13.917  29.104   8.318
   52POPC   C3A 4349  13.839  28.821   8.020
   52POPC   C4A 4350  13.610  28.980   7.697
   52POPC   C1B 4351  13.922  29.475   8.722
   52POPC   C2B 4352  13.696  29.570   8.334
   52POPC   C3B 4353  13.523  29.479   7.919
   52POPC   C4B 4354  13.500  29.666   7.516
   53POPC   NC3 4355   2.278  20.980   9.517
   53POPC   PO4 4356   1.993  20.343   9.448
   53POPC   GL1 4357   2.026  20.647   9.155
   53POPC   GL2 4358   1.680  20.663   9.086
   53POPC   C1A 4359   1.980  20.508   8.724
   53POPC   D2A 4360   2.208  20.448   8.381
   53POPC   C3A 4361   1.987  20.619   8.068
   53POPC   C4A 4362   2.184  20.601   7.717
   53POPC   C1B 4363   1.751  20.976   8.823
   53POPC   C2B 4364   1.985  20.976   8.451
   53POPC   C3B 4365   1.812  21.094   8.079
   53POPC   C4B 4366   1.723  20.899   7.716
   54POPC   NC3 4367  43.260  10.192   9.713
   54POPC   PO4 4368  43.041  10.812   9.486
   54POPC   GL1 4369  43.147  10.552   9.164
   54POPC   GL2 4370  43.294  10.228   9.213
   54POPC   C1A 4371  43.126  10.724   8.759
   54POPC   D2A 4372  43.097  10.959   8.396
   54POPC   C3A 4373  43.228  10.740   8.072
   54POPC   C4A 4374  43.174  10.590   7.685
   54POPC   C1B 4375  43.187  10.205   8.776
   54POPC   C2B 4376  43.109  10.338   8.399
   54POPC   C3B 4377  43.146  10.200   8.008
   54POPC   C4B 4378  43.432  10.089   7.721
   55POPC   NC3 4379  44.005  38.894   9.481
   55POPC   PO4 4380  44.014  39.584   9.608
   55POPC   GL1 4381  43.800  39.314   9.231
   55POPC   GL2 4382  43.693  38.914   9.109
   55POPC   C1A 4383  43.721  39.301   8.785
   55POPC   D2A 4384  43.916  39.485   8.455
   55POPC   C3A 4385  43.742  39.503   8.073
   55POPC   C4A 4386  43.611  39.472   7.655
   55POPC   C1B 4387  44.009  38.882   8.782
   55POPC   C2B 4388  43.855  38.981   8.343
   55POPC   C3B 4389  43.822  39.023   7.884
   55POPC   C4B 4390  44.216  38.944   7.658
   56POPC   NC3 4391  33.082  40.164   9.318
   56POPC   PO4 4392  32.528  40.049   9.691
   56POPC   GL1 4393  32.658  39.824   9.231
   56POPC   GL2 4394  32.994  39.687   9.100
   56POPC   C1A 4395  32.727  39.970   8.772
   56POPC   D2A 4396  32.967  40.251   8.498
   56POPC   C3A 4397  32.926  40.067   8.079
   56POPC   C4A 4398  33.166  40.008   7.692
   56POPC   C1B 4399  33.234  39.882   8.756
   56POPC   C2B 4400  33.183  39.716   8.363
   56POPC   C3B 4401  33.349  39.571   7.950
   56POPC   C4B 4402  33.184  39.520   7.513
   57POPC   NC3 4403  41.980  18.847   9.369
   57POPC   PO4 4404  42.510  18.329   9.439
   57POPC   GL1 4405  42.245  18.466   9.141
   57POPC   GL2 4406  42.441  18.736   9.017
   57POPC   C1A 4407  42.146  18.254   8.773
   57POPC   D2A 4408  42.348  18.118   8.398
   57POPC   C3A 4409  42.214  18.146   8.008
   57POPC   C4A 4410  42.334  18.058   7.568
   57POPC   C1B 4411  42.634  18.365   8.801
   57POPC   C2B 4412  42.808  18.296   8.429
   57POPC   C3B 4413  42.636  18.431   8.068
   57POPC   C4B 4414  42.762  18.288   7.705
   58POPC   NC3 4415   7.927  16.184   9.335
   58POPC   PO4 4416   7.404  15.901   9.525
   58POPC   GL1 4417   7.460  16.045   9.129
   58POPC   GL2 4418   7.739  15.893   8.979
   58POPC   C1A 4419   7.306  16.006   8.710
   58POPC   D2A 4420   7.402  16.300   8.391
   58POPC   C3A 4421   7.176  16.277   8.010
   58POPC   C4A 4422   7.263  15.912   7.808
   58POPC   C1B 4423   7.790  16.287   8.731
   58POPC   C2B 4424   7.927  16.278   8.320
   58POPC   C3B 4425   7.690  16.195   7.969
   58POPC   C4B 4426   7.527  16.364   7.620
   59POPC   NC3 4427  28.752   2.953   9.497
   59POPC   PO4 4428  28.113   2.645   9.482
   59POPC   GL1 4429  28.387   2.681   9.116
   59POPC   GL2 4430  28.558   2.976   9.042
   59POPC   C1A 4431  28.331   2.684   8.685
   59POPC   D2A 4432  28.482   2.540   8.331
   59POPC   C3A 4433  28.150   2.604   8.045
   59POPC   C4A 4434  28.127   2.843   7.663
   59POPC   C1B 4435  28.512   3.160   8.650
   59POPC   C2B 4436  28.331   3.041   8.264
   59POPC   C3B 4437  28.559   2.884   7.919
   59POPC   C4B 4438  28.900   3.120   7.783
   60POPC   NC3 4439   1.718  19.935   9.480
   60POPC   PO4 4440   2.376  19.781   9.379
   60POPC   GL1 4441   2.045  19.826   9.072
   60POPC   GL2 4442   1.746  19.601   9.092
   60POPC   C1A 4443   2.042  19.969   8.644
   60POPC   D2A 4444   2.302  19.962   8.258
   60POPC   C3A 4445   2.076  20.142   7.925
   60POPC   C4A 4446   2.162  20.155   7.458
   60POPC   C1B 4447   1.861  19.448   8.699
   60POPC   C2B 4448   2.014  19.555   8.331
   60POPC   C3B 4449   1.912  19.647   7.953
   60POPC   C4B 4450   1.557  19.494   7.759
   61POPC   NC3 4451   8.622   2.911   9.500
   61POPC   PO4 4452   7.895   2.743   9.618
   61POPC   GL1 4453   8.131   2.743   9.263
   61POPC   GL2 4454   8.211   3.068   9.264
   61POPC   C1A 4455   8.286   2.669   8.846
   61POPC   D2A 4456   8.423   2.596   8.431
   61POPC   C3A 4457   8.171   2.537   8.062
   61POPC   C4A 4458   8.309   2.742   7.699
   61POPC   C1B 4459   8.032   3.120   8.875
   61POPC   C2B 4460   7.993   3.268   8.454
   61POPC   C3B 4461   8.259   3.079   8.127
   61POPC   C4B 4462   8.056   3.188   7.735
   62POPC   NC3 4463   4.888  42.503   9.587
   62POPC   PO4 4464   5.230  41.840   9.532
   62POPC   GL1 4465   5.180  42.180   9.194
   62POPC   GL2 4466   4.972  42.509   9.108
   62POPC   C1A 4467   5.186  42.241   8.746
   62POPC   D2A 4468   5.093  42.037   8.353
   62POPC   C3A 4469   5.236  42.178   7.955
   62POPC   C4A 4470   5.067  42.261   7.526
   62POPC   C1B 4471   4.962  42.702   8.722
   62POPC   C2B 4472   5.084  42.565   8.325
   62POPC   C3B 4473   4.926  42.572   7.921
   62POPC   C4B 4474   4.786  42.914   7.692
   63POPC   NC3 4475  37.764   5.996   9.471
   63POPC   PO4 4476  38.157   5.471   9.385
   63POPC   GL1 4477  37.929   5.722   9.096
   63POPC   GL2 4478  37.594   5.665   9.076
   63POPC   C1A 4479  37.816   5.975   8.722
   63POPC   D2A 4480  37.735   5.825   8.299
   63POPC   C3A 4481  37.840   6.048   7.926
   63POPC   C4A 4482  37.942   5.993   7.495
   63POPC   C1B 4483  37.326   5.786   8.741
   63POPC   C2B 4484  37.225   5.897   8.332
   63POPC   C3B 4485  37.318   5.980   7.922
   63POPC   C4B 4486  37.146   5.748   7.608
   64POPC   NC3 4487  30.202  31.274   9.598
   64POPC   PO4 4488  30.746  31.753   9.447
   64POPC   GL1 4489  30.714  31.541   9.082
   64POPC   GL2 4490  30.588  31.229   9.226
   64POPC   C1A 4491  30.932  31.351   8.737
   64POPC   D2A 4492  30.912  31.105   8.354
   64POPC   C3A 4493  31.020  31.300   7.951
   64POPC   C4A 4494  30.868  31.215   7.524
   64POPC   C1B 4495  30.456  31.223   8.791
   64POPC   C2B 4496  30.559  31.467   8.400
   64POPC   C3B 4497  30.519  31.497   7.949
   64POPC   C4B 4498  30.383  31.885   7.748
   65POPC   NC3 4499  29.717  26.643   9.519
   65POPC   PO4 4500  29.969  27.284   9.481
   65POPC   GL1 4501  29.807  27.037   9.084
   65POPC   GL2 4502  29.915  26.704   9.074
   65POPC   C1A 4503  29.862  26.894   8.618
   65POPC   D2A 4504  29.965  26.533   8.356
   65POPC   C3A 4505  29.986  26.620   7.943
   65POPC   C4A 4506  29.849  27.011   7.779
   65POPC   C1B 4507  29.750  26.434   8.818
   65POPC   C2B 4508  29.488  26.389   8.459
   65POPC   C3B 4509  29.461  26.455   8.006
   65POPC   C4B 4510  29.628  26.573   7.573
   66POPC   NC3 4511  42.199   9.665   9.612
   66POPC   PO4 4512  42.796  10.001   9.594
   66POPC   GL1 4513  42.726   9.845   9.168
   66POPC   GL2 4514  42.502   9.549   9.183
   66POPC   C1A 4515  42.796   9.880   8.720
   66POPC   D2A 4516  42.879   9.881   8.303
   66POPC   C3A 4517  42.618   9.890   7.975
   66POPC   C4A 4518  42.482   9.534   7.708
   66POPC   C1B 4519  42.313   9.794   8.828
   66POPC   C2B 4520  42.293   9.896   8.378
   66POPC   C3B 4521  42.117   9.813   7.961
   66POPC   C4B 4522  42.097   9.932   7.527
   67POPC   NC3 4523  38.036  27.885   9.425
   67POPC   PO4 4524  37.552  28.402   9.440
   67POPC   GL1 4525  37.836  28.280   9.131
   67POPC   GL2 4526  37.932  28.606   9.154
   67POPC   C1A 4527  37.730  28.140   8.704
   67POPC   D2A 4528  37.390  28.221   8.422
   67POPC   C3A 4529  37.557  28.104   8.031
   67POPC   C4A 4530  37.979  28.181   7.830
   67POPC   C1B 4531  37.602  28.610   8.814
   67POPC   C2B 4532  37.697  28.635   8.391
   67POPC   C3B 4533  37.581  28.609   7.955
   67POPC   C4B 4534  37.736  28.632   7.518
   68POPC   NC3 4535  13.364   8.538   9.517
   68POPC   PO4 4536  14.037   8.652   9.427
   68POPC   GL1 4537  13.807   8.873   9.128
   68POPC   GL2 4538  13.453   8.811   9.088
   68POPC   C1A 4539  13.753   9.053   8.728
   68POPC   D2A 4540  13.555   9.113   8.375
   68POPC   C3A 4541  13.756   9.076   7.996
   68POPC   C4A 4542  13.555   8.941   7.620
   68POPC   C1B 4543  13.312   8.747   8.661
   68POPC   C2B 4544  13.326   8.677   8.223
   68POPC   C3B 4545  13.149   8.736   7.849
   68POPC   C4B 4546  13.208   8.656   7.399
   69POPC   NC3 4547  42.807  41.080   9.344
   69POPC   PO4 4548  42.085  41.243   9.270
   69POPC   GL1 4549  42.459  41.376   9.086
   69POPC   GL2 4550  42.442  41.741   9.077
   69POPC   C1A 4551  42.701  41.368   8.727
   69POPC   D2A 4552  42.936  41.213   8.396
   69POPC   C3A 4553  42.637  41.229   8.055
   69POPC   C4A 4554  42.648  41.560   7.761
   69POPC   C1B 4555  42.259  41.648   8.677
   69POPC   C2B 4556  42.188  41.359   8.339
   69POPC   C3B 4557  42.163  41.418   7.903
   69POPC   C4B 4558  41.996  41.790   7.718
   70POPC   NC3 4559  33.731  29.338   9.589
   70POPC   PO4 4560  33.570  28.669   9.542
   70POPC   GL1 4561  33.770  29.012   9.190
   70POPC   GL2 4562  33.854  29.454   9.118
   70POPC   C1A 4563  33.903  29.108   8.758
   70POPC   D2A 4564  33.660  28.987   8.409
   70POPC   C3A 4565  33.807  29.089   7.994
   70POPC   C4A 4566  33.527  28.960   7.631
   70POPC   C1B 4567  33.642  29.576   8.739
   70POPC   C2B 4568  33.707  29.538   8.277
   70POPC   C3B 4569  33.810  29.585   7.855
   70POPC   C4B 4570  34.211  29.405   7.811
   71POPC   NC3 4571  18.536  37.332   9.507
   71POPC   PO4 4572  18.597  36.636   9.498
   71POPC   GL1 4573  18.424  36.933   9.174
   71POPC   GL2 4574  18.654  37.188   9.049
   71POPC   C1A 4575  18.124  36.983   8.811
   71POPC   D2A 4576  17.886  36.861   8.441
   71POPC   C3A 4577  18.020  36.925   8.040
   71POPC   C4A 4578  18.036  36.637   7.725
   71POPC   C1B 4579  18.622  37.009   8.694
   71POPC   C2B 4580  18.435  36.991   8.328
   71POPC   C3B 4581  18.512  36.943   7.891
   71POPC   C4B 4582  18.435  37.200   7.548
   72POPC   NC3 4583  13.335  41.550   9.526
   72POPC   PO4 4584  13.449  42.188   9.408
   72POPC   GL1 4585  13.708  41.860   9.201
   72POPC   GL2 4586  13.688  41.475   9.153
   72POPC   C1A 4587  13.574  41.801   8.778
   72POPC   D2A 4588  13.745  41.690   8.393
   72POPC   C3A 4589  13.490  41.663   8.038
   72POPC   C4A 4590  13.556  41.508   7.617
   72POPC   C1B 4591  13.566  41.292   8.717
   72POPC   C2B 4592  13.290  41.241   8.377
   72POPC   C3B 4593  13.324  41.177   7.944
   72POPC   C4B 4594  13.076  41.378   7.649
   73POPC   NC3 4595   7.403  38.820   9.585
   73POPC   PO4 4596   7.250  39.561   9.524
   73POPC   GL1 4597   7.390  39.296   9.172
   73POPC   GL2 4598   7.228  38.961   9.104
   73POPC   C1A 4599   7.344  39.303   8.706
   73POPC   D2A 4600   7.346  39.534   8.298
   73POPC   C3A 4601   7.506  39.326   7.938
   73POPC   C4A 4602   7.407  39.245   7.506
   73POPC   C1B 4603   7.278  38.794   8.672
   73POPC   C2B 4604   7.424  38.880   8.230
   73POPC   C3B 4605   7.196  38.892   7.838
   73POPC   C4B 4606   7.349  38.682   7.416
   74POPC   NC3 4607   4.750  12.781   9.617
   74POPC   PO4 4608   5.350  12.646   9.793
   74POPC   GL1 4609   5.068  12.916   9.284
   74POPC   GL2 4610   4.853  12.666   9.121
   74POPC   C1A 4611   5.128  13.006   8.820
   74POPC   D2A 4612   5.160  12.687   8.482
   74POPC   C3A 4613   5.061  12.845   8.070
   74POPC   C4A 4614   5.221  12.813   7.659
   74POPC   C1B 4615   4.560  12.552   8.785
   74POPC   C2B 4616   4.559  12.420   8.327
   74POPC   C3B 4617   4.802  12.450   7.898
   74POPC   C4B 4618   4.877  12.578   7.398
   75POPC   NC3 4619  30.972  35.732   9.515
   75POPC   PO4 4620  30.609  35.175   9.478
   75POPC   GL1 4621  30.493  35.297   9.106
   75POPC   GL2 4622  30.581  35.616   9.163
   75POPC   C1A 4623  30.332  35.203   8.728
   75POPC   D2A 4624  30.616  35.103   8.408
   75POPC   C3A 4625  30.640  35.222   7.979
   75POPC   C4A 4626  31.038  35.358   7.783
   75POPC   C1B 4627  30.421  35.723   8.755
   75POPC   C2B 4628  30.364  35.543   8.324
   75POPC   C3B 4629  30.530  35.708   7.906
   75POPC   C4B 4630  30.370  35.571   7.489
   76POPC   NC3 4631  11.761  37.064   9.556
   76POPC   PO4 4632  12.403  37.191   9.519
   76POPC   GL1 4633  12.206  36.976   9.190
   76POPC   GL2 4634  12.519  37.003   9.026
   76POPC   C1A 4635  12.067  37.055   8.754
   76POPC   D2A 4636  12.099  37.203   8.312
   76POPC   C3A 4637  11.974  36.966   7.926
   76POPC   C4A 4638  12.057  37.025   7.458
   76POPC   C1B 4639  12.452  36.724   8.674
   76POPC   C2B 4640  12.341  36.741   8.235
   76POPC   C3B 4641  12.461  36.848   7.823
   76POPC   C4B 4642  12.559  37.049   7.452
   77POPC   NC3 4643  15.607  19.231   9.342
   77POPC   PO4 4644  16.187  18.984   9.568
   77POPC   GL1 4645  16.058  19.046   9.186
   77POPC   GL2 4646  16.076  19.388   9.165
   77POPC   C1A 4647  15.921  18.887   8.806
   77POPC   D2A 4648  15.813  18.952   8.392
   77POPC   C3A 4649  16.128  18.896   8.094
   77POPC   C4A 4650  15.993  18.750   7.705
   77POPC   C1B 4651  16.205  19.306   8.718
   77POPC   C2B 4652  16.044  19.419   8.279
   77POPC   C3B 4653  16.064  19.333   7.824
   77POPC   C4B 4654  16.329  19.324   7.418
   78POPC   NC3 4655  22.065  41.125   9.480
   78POPC   PO4 4656  21.881  41.819   9.523
   78POPC   GL1 4657  22.062  41.538   9.184
   78POPC   GL2 4658  22.360  41.554   9.032
   78POPC   C1A 4659  21.908  41.464   8.766
   78POPC   D2A 4660  21.929  41.696   8.374
   78POPC   C3A 4661  21.853  41.471   7.980
   78POPC   C4A 4662  22.009  41.429   7.559
   78POPC   C1B 4663  22.578  41.606   8.679
   78POPC   C2B 4664  22.423  41.447   8.318
   78POPC   C3B 4665  22.580  41.396   7.937
   78POPC   C4B 4666  22.499  41.585   7.578
   79POPC   NC3 4667   1.269  23.476   9.416
   79POPC   PO4 4668   1.493  24.177   9.384
   79POPC   GL1 4669   1.256  23.923   9.094
   79POPC   GL2 4670   0.922  24.040   8.979
   79POPC   C1A 4671   1.397  23.686   8.751
   79POPC   D2A 4672   1.563  23.839   8.377
   79POPC   C3A 4673   1.480  23.621   8.036
   79POPC   C4A 4674   1.379  23.768   7.653
   79POPC   C1B 4675   0.882  23.723   8.719
   79POPC   C2B 4676   1.056  23.663   8.338
   79POPC   C3B 4677   0.909  23.635   7.919
   79POPC   C4B 4678   0.987  23.466   7.508
   80POPC   NC3 4679  19.044  36.550   9.451
   80POPC   PO4 4680  18.997  37.244   9.415
   80POPC   GL1 4681  19.111  36.935   9.118
   80POPC   GL2 4682  18.861  36.703   9.022
   80POPC   C1A 4683  19.216  37.015   8.726
   80POPC   D2A 4684  19.464  37.161   8.379
   80POPC   C3A 4685  19.277  37.055   7.992
   80POPC   C4A 4686  19.442  36.920   7.620
   80POPC   C1B 4687  18.918  36.612   8.610
   80POPC   C2B 4688  18.882  36.730   8.170
   80POPC   C3B 4689  18.866  36.556   7.740
   80POPC   C4B 4690  18.948  36.578   7.276
   81POPC   NC3 4691   0.952  39.016   9.674
   81POPC   PO4 4692   1.393  39.398   9.743
   81POPC   GL1 4693   1.275  39.230   9.301
   81POPC   GL2 4694   1.122  38.871   9.216
   81POPC   C1A 4695   1.509  39.136   8.901
   81POPC   D2A 4696   1.477  39.018   8.441
   81POPC   C3A 4697   1.425  39.340   8.097
   81POPC   C4A 4698   1.501  39.405   7.642
   81POPC   C1B 4699   1.039  38.989   8.794
   81POPC   C2B 4700   1.107  39.390   8.569
   81POPC   C3B 4701   0.924  39.451   8.156
   81POPC   C4B 4702   0.989  39.243   7.759
   82POPC   NC3 4703  30.366  41.501   9.492
   82POPC   PO4 4704  29.730  41.531   9.695
   82POPC   GL1 4705  29.768  41.579   9.278
   82POPC   GL2 4706  30.065  41.791   9.223
   82POPC   C1A 4707  29.757  41.380   8.917
   82POPC   D2A 4708  30.034  41.405   8.586
   82POPC   C3A 4709  29.801  41.555   8.230
   82POPC   C4A 4710  29.866  41.447   7.777
   82POPC   C1B 4711  30.272  41.789   8.844
   82POPC   C2B 4712  30.178  41.907   8.444
   82POPC   C3B 4713  30.285  41.753   8.102
   82POPC   C4B 4714  30.250  41.759   7.717
   83POPC   NC3 4715  41.618  38.125   9.361
   83POPC   PO4 4716  41.623  37.421   9.457
   83POPC   GL1 4717  41.519  37.662   9.120
   83POPC   GL2 4718  41.293  37.444   8.882
   83POPC   C1A 4719  41.705  37.891   8.761
   83POPC   D2A 4720  41.638  37.774   8.339
   83POPC   C3A 4721  41.746  37.962   7.933
   83POPC   C4A 4722  41.421  37.719   7.762
   83POPC   C1B 4723  41.720  37.378   8.718
   83POPC   C2B 4724  41.958  37.259   8.365
   83POPC   C3B 4725  41.839  37.446   8.002
   83POPC   C4B 4726  41.689  37.298   7.626
   84POPC   NC3 4727  32.767   0.648   9.519
   84POPC   PO4 4728  33.047   0.109   9.754
   84POPC   GL1 4729  32.999   0.240   9.289
   84POPC   GL2 4730  33.238   0.491   9.191
   84POPC   C1A 4731  32.828   0.439   8.891
   84POPC   D2A 4732  32.873   0.455   8.460
   84POPC   C3A 4733  33.172   0.287   8.180
   84POPC   C4A 4734  33.095   0.328   7.744
   84POPC   C1B 4735  33.333   0.381   8.770
   84POPC   C2B 4736  33.415   0.689   8.461
   84POPC   C3B 4737  33.521   0.650   8.031
   84POPC   C4B 4738  33.471   0.900   7.675
   85POPC   NC3 4739  20.123  26.046   9.557
   85POPC   PO4 4740  20.814  25.870   9.488
   85POPC   GL1 4741  20.679  26.102   9.141
   85POPC   GL2 4742  20.420  25.969   9.103
   85POPC   C1A 4743  20.783  26.096   8.707
   85POPC   D2A 4744  20.886  26.329   8.336
   85POPC   C3A 4745  20.827  26.088   7.971
   85POPC   C4A 4746  20.714  26.265   7.606
   85POPC   C1B 4747  20.325  25.838   8.680
   85POPC   C2B 4748  20.274  25.617   8.303
   85POPC   C3B 4749  20.228  25.657   7.864
   85POPC   C4B 4750  20.523  25.811   7.627
   86POPC   NC3 4751   8.380  44.869   9.546
   86POPC   PO4 4752   8.801   0.426   9.593
   86POPC   GL1 4753   8.997   0.733   9.273
   86POPC   GL2 4754   9.092   0.457   9.064
   86POPC   C1A 4755   9.132   0.913   8.842
   86POPC   D2A 4756   9.094   0.596   8.514
   86POPC   C3A 4757   9.069   0.670   8.077
   86POPC   C4A 4758   9.129   0.386   7.730
   86POPC   C1B 4759   8.779   0.277   8.788
   86POPC   C2B 4760   8.861   0.140   8.398
   86POPC   C3B 4761   8.721   0.242   8.017
   86POPC   C4B 4762   8.669  45.000   7.646
   87POPC   NC3 4763  12.991  40.962   9.587
   87POPC   PO4 4764  12.390  40.591   9.578
   87POPC   GL1 4765  12.639  40.837   9.238
   87POPC   GL2 4766  12.893  40.586   9.218
   87POPC   C1A 4767  12.927  40.931   8.850
   87POPC   D2A 4768  12.959  40.800   8.402
   87POPC   C3A 4769  12.838  41.086   8.082
   87POPC   C4A 4770  12.637  41.166   7.692
   87POPC   C1B 4771  13.007  40.413   8.793
   87POPC   C2B 4772  12.841  40.284   8.382
   87POPC   C3B 4773  12.859  40.421   7.974
   87POPC   C4B 4774  13.023  40.301   7.609
   88POPC   NC3 4775   4.306   8.662   9.786
   88POPC   PO4 4776   4.042   9.165   9.418
   88POPC   GL1 4777   4.185   9.186   9.004
   88POPC   GL2 4778   4.002   8.938   8.932
   88POPC   C1A 4779   4.440   9.014   8.646
   88POPC   D2A 4780   4.720   9.158   8.312
   88POPC   C3A 4781   4.636   8.992   7.921
   88POPC   C4A 4782   4.536   8.645   7.691
   88POPC   C1B 4783   3.907   9.117   8.572
   88POPC   C2B 4784   3.909   8.829   8.281
   88POPC   C3B 4785   4.121   8.841   7.913
   88POPC   C4B 4786   4.180   8.975   7.510
   89POPC   NC3 4787  23.665   3.879   9.707
   89POPC   PO4 4788  23.947   3.252   9.482
   89POPC   GL1 4789  23.680   3.410   9.182
   89POPC   GL2 4790  23.682   3.765   9.187
   89POPC   C1A 4791  23.456   3.494   8.811
   89POPC   D2A 4792  23.512   3.768   8.489
   89POPC   C3A 4793  23.475   3.533   8.099
   89POPC   C4A 4794  23.620   3.483   7.691
   89POPC   C1B 4795  23.975   3.663   8.829
   89POPC   C2B 4796  24.166   3.797   8.429
   89POPC   C3B 4797  23.983   3.753   8.014
   89POPC   C4B 4798  24.128   3.476   7.704
   90POPC   NC3 4799  35.407  21.045   9.795
   90POPC   PO4 4800  34.989  21.550   9.638
   90POPC   GL1 4801  35.140  21.642   9.169
   90POPC   GL2 4802  35.465  21.475   9.087
   90POPC   C1A 4803  35.183  21.727   8.722
   90POPC   D2A 4804  35.524  21.575   8.409
   90POPC   C3A 4805  35.450  21.393   8.017
   90POPC   C4A 4806  35.370  21.498   7.584
   90POPC   C1B 4807  35.316  21.247   8.727
   90POPC   C2B 4808  35.051  21.371   8.347
   90POPC   C3B 4809  34.999  21.193   7.895
   90POPC   C4B 4810  35.377  21.005   7.693
   91POPC   NC3 4811  23.826  42.633   9.347
   91POPC   PO4 4812  23.571  42.123   9.676
   91POPC   GL1 4813  23.546  42.164   9.228
   91POPC   GL2 4814  23.793  41.994   9.040
   91POPC   C1A 4815  23.325  42.166   8.820
   91POPC   D2A 4816  23.379  42.392   8.432
   91POPC   C3A 4817  23.590  42.314   8.034
   91POPC   C4A 4818  23.455  42.491   7.599
   91POPC   C1B 4819  23.800  42.354   8.761
   91POPC   C2B 4820  23.864  42.667   8.469
   91POPC   C3B 4821  24.056  42.484   8.153
   91POPC   C4B 4822  23.970  42.510   7.739
   92POPC   NC3 4823  18.660  11.805   9.519
   92POPC   PO4 4824  19.322  11.965   9.456
   92POPC   GL1 4825  19.031  12.061   9.156
   92POPC   GL2 4826  19.293  12.004   8.949
   92POPC   C1A 4827  18.815  11.949   8.784
   92POPC   D2A 4828  18.783  11.754   8.393
   92POPC   C3A 4829  18.942  11.894   8.013
   92POPC   C4A 4830  18.900  12.122   7.664
   92POPC   C1B 4831  19.204  12.290   8.652
   92POPC   C2B 4832  19.307  12.215   8.229
   92POPC   C3B 4833  19.260  12.423   7.858
   92POPC   C4B 4834  19.335  12.394   7.436
   93POPC   NC3 4835   6.729   1.709   9.488
   93POPC   PO4 4836   6.226   2.241   9.624
   93POPC   GL1 4837   6.524   2.307   9.195
   93POPC   GL2 4838   6.832   2.117   9.157
   93POPC   C1A 4839   6.423   2.252   8.774
   93POPC   D2A 4840   6.255   2.264   8.384
   93POPC   C3A 4841   6.492   2.123   8.029
   93POPC   C4A 4842   6.435   1.784   7.720
   93POPC   C1B 4843   6.752   1.846   8.785
   93POPC   C2B 4844   6.757   1.732   8.357
   93POPC   C3B 4845   6.908   1.831   7.960
   93POPC   C4B 4846   6.905   1.800   7.532
   94POPC   NC3 4847  34.102  35.863   9.535
   94POPC   PO4 4848  33.752  36.481   9.485
   94POPC   GL1 4849  33.967  36.285   9.132
   94POPC   GL2 4850  34.018  35.917   9.061
   94POPC   C1A 4851  33.758  36.200   8.754
   94POPC   D2A 4852  33.495  35.969   8.481
   94POPC   C3A 4853  33.625  35.971   8.050
   94POPC   C4A 4854  33.840  36.230   7.746
   94POPC   C1B 4855  34.125  35.704   8.711
   94POPC   C2B 4856  34.307  35.687   8.291
   94POPC   C3B 4857  34.142  35.768   7.855
   94POPC   C4B 4858  34.127  35.459   7.501
   95POPC   NC3 4859  18.292   3.774   9.364
   95POPC   PO4 4860  17.914   3.225   9.570
   95POPC   GL1 4861  18.033   3.457   9.093
   95POPC   GL2 4862  18.427   3.634   8.933
   95POPC   C1A 4863  18.054   3.533   8.651
   95POPC   D2A 4864  18.364   3.514   8.339
   95POPC   C3A 4865  18.082   3.486   7.985
   95POPC   C4A 4866  18.176   3.417   7.548
   95POPC   C1B 4867  18.504   3.951   8.624
   95POPC   C2B 4868  18.694   3.908   8.209
   95POPC   C3B 4869  18.558   3.663   7.839
   95POPC   C4B 4870  18.580   3.679   7.383
   96POPC   NC3 4871  11.857  13.822   9.311
   96POPC   PO4 4872  12.370  13.348   9.487
   96POPC   GL1 4873  12.171  13.435   9.112
   96POPC   GL2 4874  12.288  13.771   9.072
   96POPC   C1A 4875  11.887  13.430   8.733
   96POPC   D2A 4876  11.709  13.653   8.387
   96POPC   C3A 4877  11.764  13.488   7.977
   96POPC   C4A 4878  11.687  13.815   7.678
   96POPC   C1B 4879  12.402  13.572   8.692
   96POPC   C2B 4880  12.223  13.406   8.335
   96POPC   C3B 4881  12.270  13.668   8.025
   96POPC   C4B 4882  12.595  13.670   7.762
   97POPC   NC3 4883  20.925   6.454   9.556
   97POPC   PO4 4884  20.288   6.775   9.721
   97POPC   GL1 4885  20.487   6.647   9.311
   97POPC   GL2 4886  20.566   6.920   9.099
   97POPC   C1A 4887  20.482   6.435   8.883
   97POPC   D2A 4888  20.533   6.273   8.474
   97POPC   C3A 4889  20.636   6.451   8.084
   97POPC   C4A 4890  20.636   6.626   7.698
   97POPC   C1B 4891  20.858   6.768   8.813
   97POPC   C2B 4892  20.875   6.720   8.423
   97POPC   C3B 4893  20.690   6.952   8.092
   97POPC   C4B 4894  20.917   7.071   7.736
   98POPC   NC3 4895  36.644   3.540   9.289
   98POPC   PO4 4896  37.257   3.881   9.245
   98POPC   GL1 4897  37.002   3.683   8.959
   98POPC   GL2 4898  37.079   3.332   9.038
   98POPC   C1A 4899  36.672   3.643   8.620
   98POPC   D2A 4900  36.513   3.473   8.209
   98POPC   C3A 4901  36.836   3.663   7.967
   98POPC   C4A 4902  37.148   3.986   8.016
   98POPC   C1B 4903  37.124   3.387   8.584
   98POPC   C2B 4904  37.272   3.463   8.206
   98POPC   C3B 4905  37.078   3.225   7.882
   98POPC   C4B 4906  36.656   3.203   7.706
   99POPC   NC3 4907  32.555  24.806   9.479
   99POPC   PO4 4908  32.459  24.151   9.619
   99POPC   GL1 4909  32.434  24.363   9.166
   99POPC   GL2 4910  32.441  24.710   9.006
   99POPC   C1A 4911  32.300  24.307   8.702
   99POPC   D2A 4912  32.097  24.204   8.281
   99POPC   C3A 4913  32.356  24.354   7.913
   99POPC   C4A 4914  32.203  24.406   7.492
   99POPC   C1B 4915  32.164  24.826   8.660
   99POPC   C2B 4916  32.175  24.711   8.228
   99POPC   C3B 4917  32.249  24.858   7.804
   99POPC   C4B 4918  32.363  24.907   7.364
  100POPC   NC3 4919  38.105   3.038   9.519
  100POPC   PO4 4920  38.829   2.802   9.615
  100POPC   GL1 4921  38.715   2.818   9.174
  100POPC   GL2 4922  38.349   2.851   9.088
  100POPC   C1A 4923  38.709   2.903   8.720
  100POPC   D2A 4924  38.672   3.242   8.423
  100POPC   C3A 4925  38.660   3.049   8.049
  100POPC   C4A 4926  38.643   2.678   7.821
  100POPC   C1B 4927  38.301   2.566   8.724
  100POPC   C2B 4928  38.355   2.654   8.258
  100POPC   C3B 4929  38.209   2.445   7.894
  100POPC   C4B 4930  38.184   2.194   7.544
  101POPC   NC3 4931   2.103  30.176   9.767
  101POPC   PO4 4932   2.058  30.805   9.451
  101POPC   GL1 4933   2.066  30.590   9.087
  101POPC   GL2 4934   1.722  30.538   9.045
  101POPC   C1A 4935   2.061  30.487   8.646
  101POPC   D2A 4936   2.004  30.825   8.368
  101POPC   C3A 4937   2.253  30.840   8.011
  101POPC   C4A 4938   2.331  30.606   7.674
  101POPC   C1B 4939   1.686  30.959   8.802
  101POPC   C2B 4940   1.615  31.164   8.377
  101POPC   C3B 4941   1.705  31.168   7.902
  101POPC   C4B 4942   1.909  30.930   7.535
  102POPC   NC3 4943  20.398  19.342   9.509
  102POPC   PO4 4944  19.810  19.081   9.580
  102POPC   GL1 4945  19.837  18.914   9.180
  102POPC   GL2 4946  20.171  18.975   9.178
  102POPC   C1A 4947  19.812  19.030   8.742
  102POPC   D2A 4948  19.640  19.132   8.365
  102POPC   C3A 4949  19.824  18.955   7.995
  102POPC   C4A 4950  19.708  18.645   7.709
  102POPC   C1B 4951  20.061  19.414   8.952
  102POPC   C2B 4952  19.852  19.566   8.551
  102POPC   C3B 4953  19.852  19.474   8.075
  102POPC   C4B 4954  20.071  19.264   7.684
  103POPC   NC3 4955   0.363  11.774   9.540
  103POPC   PO4 4956   0.200  12.463   9.505
  103POPC   GL1 4957   0.267  12.142   9.199
  103POPC   GL2 4958   0.063  12.230   9.022
  103POPC   C1A 4959   0.424  11.824   8.886
  103POPC   D2A 4960   0.766  11.867   8.576
  103POPC   C3A 4961   0.736  11.859   8.118
  103POPC   C4A 4962   0.457  11.904   7.748
  103POPC   C1B 4963   0.518  12.310   8.796
  103POPC   C2B 4964   0.462  12.245   8.367
  103POPC   C3B 4965   0.565  12.347   7.992
  103POPC   C4B 4966   0.481  12.369   7.546
  104POPC   NC3 4967   1.055   5.985   9.733
  104POPC   PO4 4968   0.377   6.039   9.620
  104POPC   GL1 4969   0.333   5.998   9.161
  104POPC   GL2 4970   0.070   6.171   9.039
  104POPC   C1A 4971   0.502   5.831   8.770
  104POPC   D2A 4972   0.311   5.872   8.363
  104POPC   C3A 4973   0.514   5.861   7.970
  104POPC   C4A 4974   0.679   6.244   7.726
  104POPC   C1B 4975   0.006   5.767   8.796
  104POPC   C2B 4976   0.007   5.486   8.415
  104POPC   C3B 4977   0.012   5.652   7.998
  104POPC   C4B 4978   0.080   6.001   7.726
  105POPC   NC3 4979  16.454  22.760   9.614
  105POPC   PO4 4980  16.944  23.269   9.603
  105POPC   GL1 4981  16.806  23.022   9.274
  105POPC   GL2 4982  16.724  22.671   9.188
  105POPC   C1A 4983  16.745  23.138   8.876
  105POPC   D2A 4984  16.674  22.932   8.538
  105POPC   C3A 4985  16.795  23.061   8.143
  105POPC   C4A 4986  16.632  22.909   7.771
  105POPC   C1B 4987  17.001  22.690   8.854
  105POPC   C2B 4988  17.130  22.768   8.428
  105POPC   C3B 4989  16.967  22.579   8.027
  105POPC   C4B 4990  16.991  22.507   7.559
  106POPC   NC3 4991  27.754  16.906   9.595
  106POPC   PO4 4992  27.683  16.266   9.460
  106POPC   GL1 4993  27.445  16.578   9.253
  106POPC   GL2 4994  27.459  16.947   9.177
  106POPC   C1A 4995  27.359  16.620   8.825
  106POPC   D2A 4996  27.540  16.837   8.521
  106POPC   C3A 4997  27.474  16.653   8.126
  106POPC   C4A 4998  27.717  16.760   7.758
  106POPC   C1B 4999  27.264  17.145   8.827
  106POPC   C2B 5000  27.290  17.293   8.391
  106POPC   C3B 5001  27.508  17.144   8.042
  106POPC   C4B 5002  27.197  16.915   7.754
  107POPC   NC3 5003  42.135  16.146   9.571
  107POPC   PO4 5004  42.572  15.647   9.528
  107POPC   GL1 5005  42.411  15.884   9.195
  107POPC   GL2 5006  42.318  15.581   9.052
  107POPC   C1A 5007  42.473  16.057   8.778
  107POPC   D2A 5008  42.543  16.231   8.360
  107POPC   C3A 5009  42.572  15.962   7.983
  107POPC   C4A 5010  42.295  16.010   7.621
  107POPC   C1B 5011  42.069  15.755   8.751
  107POPC   C2B 5012  42.231  15.810   8.374
  107POPC   C3B 5013  42.060  15.771   8.025
  107POPC   C4B 5014  41.817  15.877   7.732
  108POPC   NC3 5015  38.062  12.584   9.440
  108POPC   PO4 5016  38.399  13.069   9.759
  108POPC   GL1 5017  38.377  12.970   9.296
  108POPC   GL2 5018  38.657  12.773   9.242
  108POPC   C1A 5019  38.269  12.836   8.833
  108POPC   D2A 5020  38.448  12.579   8.437
  108POPC   C3A 5021  38.218  12.741   8.106
  108POPC   C4A 5022  38.259  13.076   7.780
  108POPC   C1B 5023  38.762  12.927   8.870
  108POPC   C2B 5024  38.606  13.038   8.490
  108POPC   C3B 5025  38.693  12.930   8.084
  108POPC   C4B 5026  38.592  12.649   7.731
  109POPC   NC3 5027   5.604  34.688   9.403
  109POPC   PO4 5028   6.143  34.335   9.480
  109POPC   GL1 5029   5.899  34.368   9.101
  109POPC   GL2 5030   5.681  34.100   9.049
  109POPC   C1A 5031   5.707  34.640   8.752
  109POPC   D2A 5032   5.604  34.565   8.309
  109POPC   C3A 5033   5.862  34.835   7.982
  109POPC   C4A 5034   5.741  35.127   7.653
  109POPC   C1B 5035   5.805  34.165   8.628
  109POPC   C2B 5036   5.991  34.193   8.234
  109POPC   C3B 5037   5.816  34.346   7.871
  109POPC   C4B 5038   5.520  34.170   7.593
  110POPC   NC3 5039  25.625  20.755   9.446
  110POPC   PO4 5040  24.917  20.650   9.578
  110POPC   GL1 5041  25.188  20.711   9.155
  110POPC   GL2 5042  25.477  20.530   8.984
  110POPC   C1A 5043  25.118  20.733   8.697
  110POPC   D2A 5044  25.267  20.905   8.308
  110POPC   C3A 5045  25.160  20.666   7.936
  110POPC   C4A 5046  25.453  20.399   7.703
  110POPC   C1B 5047  25.731  20.705   8.655
  110POPC   C2B 5048  25.789  20.974   8.303
  110POPC   C3B 5049  25.579  20.934   7.899
  110POPC   C4B 5050  25.602  20.869   7.416
  111POPC   NC3 5051   9.249  20.367   9.383
  111POPC   PO4 5052   9.034  19.959   9.911
  111POPC   GL1 5053   8.855  19.840   9.439
  111POPC   GL2 5054   9.132  19.898   9.234
  111POPC   C1A 5055   8.803  19.643   8.962
  111POPC   D2A 5056   8.962  19.568   8.502
  111POPC   C3A 5057   8.793  19.638   8.045
  111POPC   C4A 5058   8.908  19.825   7.628
  111POPC   C1B 5059   9.172  19.988   8.780
  111POPC   C2B 5060   9.362  19.874   8.366
  111POPC   C3B 5061   9.286  20.015   7.947
  111POPC   C4B 5062   9.133  20.449   7.838
  112POPC   NC3 5063  29.672  23.378   9.421
  112POPC   PO4 5064  30.276  23.680   9.566
  112POPC   GL1 5065  30.126  23.531   9.180
  112POPC   GL2 5066  29.951  23.834   9.111
  112POPC   C1A 5067  30.067  23.596   8.709
  112POPC   D2A 5068  29.716  23.663   8.481
  112POPC   C3A 5069  29.881  23.528   8.147
  112POPC   C4A 5070  29.887  23.511   7.739
  112POPC   C1B 5071  29.692  24.056   8.814
  112POPC   C2B 5072  29.614  24.159   8.395
  112POPC   C3B 5073  29.729  23.996   7.989
  112POPC   C4B 5074  29.798  24.188   7.599
  113POPC   NC3 5075  10.287  21.900   9.412
  113POPC   PO4 5076  10.896  21.483   9.598
  113POPC   GL1 5077  10.774  21.353   9.200
  113POPC   GL2 5078  10.781  21.005   9.190
  113POPC   C1A 5079  10.615  21.542   8.821
  113POPC   D2A 5080  10.710  21.686   8.425
  113POPC   C3A 5081  10.568  21.552   8.048
  113POPC   C4A 5082  10.662  21.731   7.678
  113POPC   C1B 5083  10.485  21.056   8.854
  113POPC   C2B 5084  10.497  21.185   8.426
  113POPC   C3B 5085  10.657  21.052   8.038
  113POPC   C4B 5086  10.465  21.148   7.646
  114POPC   NC3 5087   9.319   4.243   9.382
  114POPC   PO4 5088   8.716   4.215   9.550
  114POPC   GL1 5089   8.771   3.967   9.165
  114POPC   GL2 5090   9.116   3.826   9.130
  114POPC   C1A 5091   8.737   4.197   8.750
  114POPC   D2A 5092   9.061   4.375   8.445
  114POPC   C3A 5093   9.044   4.380   7.996
  114POPC   C4A 5094   9.038   4.794   7.786
  114POPC   C1B 5095   9.251   3.989   8.731
  114POPC   C2B 5096   9.366   3.942   8.306
  114POPC   C3B 5097   9.146   3.857   7.927
  114POPC   C4B 5098   9.009   4.071   7.557
  115POPC   NC3 5099   2.791  29.524   9.449
  115POPC   PO4 5100   2.574  28.880   9.507
  115POPC   GL1 5101   2.726  29.066   9.147
  115POPC   GL2 5102   2.439  28.888   9.014
  115POPC   C1A 5103   2.885  29.254   8.752
  115POPC   D2A 5104   2.924  29.469   8.334
  115POPC   C3A 5105   2.867  29.245   7.918
  115POPC   C4A 5106   2.603  29.413   7.620
  115POPC   C1B 5107   2.483  28.946   8.630
  115POPC   C2B 5108   2.569  29.076   8.275
  115POPC   C3B 5109   2.357  29.032   7.905
  115POPC   C4B 5110   2.586  28.849   7.643
  116POPC   NC3 5111  44.442  19.453   9.462
  116POPC   PO4 5112  44.328  20.156   9.446
  116POPC   GL1 5113  44.507  19.842   9.101
  116POPC   GL2 5114  44.744  19.548   9.070
  116POPC   C1A 5115  44.549  19.756   8.642
  116POPC   D2A 5116  44.778  19.988   8.334
  116POPC   C3A 5117  44.644  20.062   7.897
  116POPC   C4A 5118  44.495  20.056   7.433
  116POPC   C1B 5119  44.809  19.294   8.711
  116POPC   C2B 5120  44.884  19.470   8.350
  116POPC   C3B 5121  44.657  19.575   8.024
  116POPC   C4B 5122  44.676  19.612   7.627
  117POPC   NC3 5123  32.596  22.053   9.475
  117POPC   PO4 5124  31.951  22.208   9.677
  117POPC   GL1 5125  32.109  22.347   9.220
  117POPC   GL2 5126  32.306  22.096   9.069
  117POPC   C1A 5127  32.120  22.378   8.716
  117POPC   D2A 5128  32.118  22.105   8.359
  117POPC   C3A 5129  32.380  22.155   8.002
  117POPC   C4A 5130  32.234  22.426   7.677
  117POPC   C1B 5131  32.414  21.864   8.701
  117POPC   C2B 5132  32.658  21.754   8.344
  117POPC   C3B 5133  32.645  21.738   7.893
  117POPC   C4B 5134  32.729  21.920   7.474
  118POPC   NC3 5135  42.128  25.380   9.417
  118POPC   PO4 5136  42.752  25.544   9.623
  118POPC   GL1 5137  42.613  25.361   9.231
  118POPC   GL2 5138  42.572  25.016   9.168
  118POPC   C1A 5139  42.558  25.372   8.781
  118POPC   D2A 5140  42.479  25.152   8.401
  118POPC   C3A 5141  42.328  25.373   8.076
  118POPC   C4A 5142  42.520  25.521   7.744
  118POPC   C1B 5143  42.242  24.928   8.793
  118POPC   C2B 5144  42.014  24.973   8.345
  118POPC   C3B 5145  42.045  25.006   7.843
  118POPC   C4B 5146  41.875  25.066   7.396
  119POPC   NC3 5147  15.335  39.985   9.624
  119POPC   PO4 5148  14.669  40.136   9.630
  119POPC   GL1 5149  15.048  40.133   9.237
  119POPC   GL2 5150  15.333  39.862   9.141
  119POPC   C1A 5151  15.242  40.186   8.778
  119POPC   D2A 5152  14.971  40.131   8.436
  119POPC   C3A 5153  15.060  40.230   8.037
  119POPC   C4A 5154  15.047  40.112   7.627
  119POPC   C1B 5155  15.289  39.510   8.861
  119POPC   C2B 5156  15.357  39.426   8.448
  119POPC   C3B 5157  15.337  39.792   8.186
  119POPC   C4B 5158  14.990  39.703   7.924
  120POPC   NC3 5159  18.852  41.896   9.478
  120POPC   PO4 5160  18.900  41.212   9.481
  120POPC   GL1 5161  19.075  41.499   9.175
  120POPC   GL2 5162  19.352  41.687   9.316
  120POPC   C1A 5163  18.995  41.650   8.744
  120POPC   D2A 5164  18.832  41.886   8.368
  120POPC   C3A 5165  18.762  41.709   7.948
  120POPC   C4A 5166  18.910  41.526   7.524
  120POPC   C1B 5167  19.458  41.812   8.899
  120POPC   C2B 5168  19.470  41.656   8.498
  120POPC   C3B 5169  19.252  41.646   8.145
  120POPC   C4B 5170  19.374  41.600   7.724
  121POPC   NC3 5171  21.321   4.053   9.609
  121POPC   PO4 5172  21.580   4.667   9.347
  121POPC   GL1 5173  21.263   4.422   9.183
  121POPC   GL2 5174  21.485   4.162   9.150
  121POPC   C1A 5175  21.123   4.214   8.788
  121POPC   D2A 5176  21.274   4.320   8.360
  121POPC   C3A 5177  21.029   4.216   7.995
  121POPC   C4A 5178  21.057   4.077   7.551
  121POPC   C1B 5179  21.633   4.331   8.763
  121POPC   C2B 5180  21.709   4.637   8.456
  121POPC   C3B 5181  21.636   4.585   8.026
  121POPC   C4B 5182  21.785   4.370   7.671
  122POPC   NC3 5183  34.791  24.821   9.561
  122POPC   PO4 5184  34.627  25.500   9.590
  122POPC   GL1 5185  34.425  25.449   9.196
  122POPC   GL2 5186  34.524  25.104   9.188
  122POPC   C1A 5187  34.357  25.518   8.744
  122POPC   D2A 5188  34.452  25.711   8.330
  122POPC   C3A 5189  34.718  25.477   8.081
  122POPC   C4A 5190  34.672  25.371   7.669
  122POPC   C1B 5191  34.357  24.968   8.810
  122POPC   C2B 5192  34.220  25.077   8.410
  122POPC   C3B 5193  34.255  25.186   7.975
  122POPC   C4B 5194  33.971  25.102   7.631
  123POPC   NC3 5195  37.989  44.744   9.584
  123POPC   PO4 5196  37.486  44.465   9.465
  123POPC   GL1 5197  37.598  44.641   9.090
  123POPC   GL2 5198  37.495  44.956   9.004
  123POPC   C1A 5199  37.721  44.579   8.676
  123POPC   D2A 5200  37.977  44.715   8.353
  123POPC   C3A 5201  37.786  44.594   7.962
  123POPC   C4A 5202  37.548  44.684   7.599
  123POPC   C1B 5203  37.244  44.755   8.707
  123POPC   C2B 5204  37.393  44.737   8.312
  123POPC   C3B 5205  37.366  44.957   7.984
  123POPC   C4B 5206  37.539   0.198   7.688
  124POPC   NC3 5207  33.344  27.233   9.415
  124POPC   PO4 5208  33.072  27.723   9.741
  124POPC   GL1 5209  33.087  27.664   9.255
  124POPC   GL2 5210  33.407  27.822   9.247
  124POPC   C1A 5211  32.940  27.426   8.854
  124POPC   D2A 5212  33.117  27.187   8.517
  124POPC   C3A 5213  32.931  27.315   8.117
  124POPC   C4A 5214  32.873  27.429   7.692
  124POPC   C1B 5215  33.386  27.687   8.817
  124POPC   C2B 5216  33.104  27.712   8.451
  124POPC   C3B 5217  33.179  27.761   8.016
  124POPC   C4B 5218  33.394  27.984   7.685
  125POPC   NC3 5219  26.367   3.388   9.351
  125POPC   PO4 5220  26.936   3.784   9.476
  125POPC   GL1 5221  26.749   3.662   9.129
  125POPC   GL2 5222  26.791   3.278   9.072
  125POPC   C1A 5223  26.806   3.649   8.713
  125POPC   D2A 5224  26.689   3.556   8.318
  125POPC   C3A 5225  26.990   3.565   8.006
  125POPC   C4A 5226  26.895   3.612   7.592
  125POPC   C1B 5227  26.510   3.188   8.673
  125POPC   C2B 5228  26.444   3.142   8.195
  125POPC   C3B 5229  26.473   3.446   7.863
  125POPC   C4B 5230  26.471   3.366   7.442
  126POPC   NC3 5231  33.619   7.090   9.531
  126POPC   PO4 5232  33.932   7.670   9.709
  126POPC   GL1 5233  33.835   7.487   9.259
  126POPC   GL2 5234  33.994   7.150   9.182
  126POPC   C1A 5235  33.706   7.462   8.794
  126POPC   D2A 5236  33.636   7.627   8.357
  126POPC   C3A 5237  33.480   7.430   7.960
  126POPC   C4A 5238  33.699   7.245   7.624
  126POPC   C1B 5239  34.224   7.241   8.808
  126POPC   C2B 5240  34.068   7.361   8.425
  126POPC   C3B 5241  34.009   7.470   8.013
  126POPC   C4B 5242  34.156   7.746   7.696
  127POPC   NC3 5243   1.562  30.805   9.462
  127POPC   PO4 5244   0.945  30.419   9.650
  127POPC   GL1 5245   1.097  30.628   9.246
  127POPC   GL2 5246   1.200  31.004   9.152
  127POPC   C1A 5247   1.268  30.567   8.830
  127POPC   D2A 5248   1.547  30.597   8.465
  127POPC   C3A 5249   1.317  30.689   8.092
  127POPC   C4A 5250   1.045  30.527   7.786
  127POPC   C1B 5251   1.193  31.113   8.688
  127POPC   C2B 5252   1.145  31.165   8.211
  127POPC   C3B 5253   1.199  31.081   7.784
  127POPC   C4B 5254   1.447  31.133   7.409
  128POPC   NC3 5255  32.881  31.719   9.694
  128POPC   PO4 5256  33.101  31.092   9.464
  128POPC   GL1 5257  32.893  31.307   9.121
  128POPC   GL2 5258  32.889  31.651   9.166
  128POPC   C1A 5259  32.801  31.460   8.704
  128POPC   D2A 5260  32.997  31.685   8.345
  128POPC   C3A 5261  33.036  31.447   8.005
  128POPC   C4A 5262  32.675  31.385   7.765
  128POPC   C1B 5263  33.195  31.806   8.804
  128POPC   C2B 5264  33.347  32.042   8.430
  128POPC   C3B 5265  33.321  31.920   7.984
  128POPC   C4B 5266  33.002  31.842   7.688
  129POPC   NC3 5267  19.383  19.342   9.472
  129POPC   PO4 5268  18.935  18.836   9.372
  129POPC   GL1 5269  19.011  19.156   9.083
  129POPC   GL2 5270  19.344  19.018   9.035
  129POPC   C1A 5271  18.792  19.277   8.689
  129POPC   D2A 5272  18.680  19.065   8.305
  129POPC   C3A 5273  18.956  19.019   7.972
  129POPC   C4A 5274  18.928  18.826   7.592
  129POPC   C1B 5275  19.367  19.357   8.743
  129POPC   C2B 5276  19.191  19.490   8.364
  129POPC   C3B 5277  19.336  19.376   8.003
  129POPC   C4B 5278  19.408  19.064   7.713
  130POPC   NC3 5279  14.502   6.258   9.455
  130POPC   PO4 5280  14.572   6.952   9.452
  130POPC   GL1 5281  14.433   6.677   9.127
  130POPC   GL2 5282  14.672   6.471   8.989
  130POPC   C1A 5283  14.369   6.759   8.678
  130POPC   D2A 5284  14.501   6.811   8.257
  130POPC   C3A 5285  14.266   6.683   7.955
  130POPC   C4A 5286  14.039   6.685   7.611
  130POPC   C1B 5287  14.312   6.265   8.792
  130POPC   C2B 5288  14.224   6.370   8.362
  130POPC   C3B 5289  14.191   6.179   7.963
  130POPC   C4B 5290  14.446   6.339   7.619
  131POPC   NC3 5291  13.883  35.976   9.474
  131POPC   PO4 5292  13.374  36.288   9.748
  131POPC   GL1 5293  13.516  36.157   9.227
  131POPC   GL2 5294  13.282  35.977   9.081
  131POPC   C1A 5295  13.704  35.862   8.858
  131POPC   D2A 5296  13.547  35.860   8.438
  131POPC   C3A 5297  13.785  36.183   8.251
  131POPC   C4A 5298  13.848  36.077   7.856
  131POPC   C1B 5299  13.387  36.251   8.724
  131POPC   C2B 5300  13.269  36.325   8.308
  131POPC   C3B 5301  13.392  36.317   7.885
  131POPC   C4B 5302  13.166  36.401   7.507
  132POPC   NC3 5303  16.143  42.198   9.690
  132POPC   PO4 5304  16.752  42.287   9.412
  132POPC   GL1 5305  16.622  42.277   9.062
  132POPC   GL2 5306  16.268  42.217   9.075
  132POPC   C1A 5307  16.775  42.409   8.750
  132POPC   D2A 5308  16.672  42.612   8.443
  132POPC   C3A 5309  16.730  42.445   8.057
  132POPC   C4A 5310  16.776  42.602   7.646
  132POPC   C1B 5311  16.376  42.017   8.718
  132POPC   C2B 5312  16.595  42.084   8.400
  132POPC   C3B 5313  16.479  41.983   8.058
  132POPC   C4B 5314  16.566  42.134   7.697
  133POPC   NC3 5315  31.701   3.871   9.321
  133POPC   PO4 5316  31.353   3.412   9.680
  133POPC   GL1 5317  31.479   3.393   9.241
  133POPC   GL2 5318  31.225   3.280   9.011
  133POPC   C1A 5319  31.702   3.234   8.877
  133POPC   D2A 5320  31.717   3.450   8.485
  133POPC   C3A 5321  31.531   3.260   8.116
  133POPC   C4A 5322  31.397   3.513   7.774
  133POPC   C1B 5323  31.199   3.466   8.662
  133POPC   C2B 5324  31.254   3.664   8.310
  133POPC   C3B 5325  31.146   3.922   8.006
  133POPC   C4B 5326  31.225   3.995   7.629
  134POPC   NC3 5327  39.837  35.101   9.527
  134POPC   PO4 5328  39.613  35.752   9.415
  134POPC   GL1 5329  39.848  35.435   9.139
  134POPC   GL2 5330  40.167  35.210   9.161
  134POPC   C1A 5331  39.907  35.295   8.742
  134POPC   D2A 5332  39.729  35.414   8.391
  134POPC   C3A 5333  39.921  35.232   8.072
  134POPC   C4A 5334  39.852  35.241   7.673
  134POPC   C1B 5335  40.362  35.481   8.839
  134POPC   C2B 5336  40.275  35.469   8.410
  134POPC   C3B 5337  40.272  35.567   7.985
  134POPC   C4B 5338  40.345  35.355   7.620
  135POPC   NC3 5339  14.953  38.236   9.541
  135POPC   PO4 5340  15.338  38.773   9.500
  135POPC   GL1 5341  15.258  38.574   9.130
  135POPC   GL2 5342  15.035  38.288   9.044
  135POPC   C1A 5343  15.476  38.494   8.768
  135POPC   D2A 5344  15.111  38.435   8.525
  135POPC   C3A 5345  15.071  38.604   8.116
  135POPC   C4A 5346  15.360  38.512   7.766
  135POPC   C1B 5347  15.364  38.017   8.856
  135POPC   C2B 5348  15.579  38.046   8.467
  135POPC   C3B 5349  15.407  38.081   8.063
  135POPC   C4B 5350  14.987  38.135   7.934
  136POPC   NC3 5351  25.675  41.799   9.478
  136POPC   PO4 5352  25.041  42.012   9.298
  136POPC   GL1 5353  25.287  41.811   9.015
  136POPC   GL2 5354  25.156  41.520   9.115
  136POPC   C1A 5355  25.171  41.614   8.600
  136POPC   D2A 5356  24.879  41.620   8.258
  136POPC   C3A 5357  25.124  41.715   7.890
  136POPC   C4A 5358  25.015  41.907   7.475
  136POPC   C1B 5359  24.973  41.184   8.847
  136POPC   C2B 5360  25.013  40.975   8.445
  136POPC   C3B 5361  25.167  41.227   8.106
  136POPC   C4B 5362  24.952  41.284   7.704
  137POPC   NC3 5363  11.377  43.804   9.759
  137POPC   PO4 5364  10.973  43.420   9.552
  137POPC   GL1 5365  11.230  43.684   9.249
  137POPC   GL2 5366  11.105  44.049   9.231
  137POPC   C1A 5367  11.427  43.851   8.843
  137POPC   D2A 5368  11.662  43.752   8.449
  137POPC   C3A 5369  11.693  43.985   8.071
  137POPC   C4A 5370  11.526  43.918   7.631
  137POPC   C1B 5371  10.962  44.067   8.792
  137POPC   C2B 5372  11.070  43.841   8.444
  137POPC   C3B 5373  11.201  43.915   8.062
  137POPC   C4B 5374  11.134  44.223   7.770
  138POPC   NC3 5375  24.189  30.572   9.454
  138POPC   PO4 5376  24.618  31.079   9.365
  138POPC   GL1 5377  24.379  30.833   9.054
  138POPC   GL2 5378  24.007  30.913   9.095
  138POPC   C1A 5379  24.444  30.468   8.756
  138POPC   D2A 5380  24.604  30.426   8.324
  138POPC   C3A 5381  24.749  30.794   8.116
  138POPC   C4A 5382  24.829  30.912   7.705
  138POPC   C1B 5383  23.953  30.592   8.776
  138POPC   C2B 5384  24.083  30.468   8.353
  138POPC   C3B 5385  24.219  30.633   7.945
  138POPC   C4B 5386  24.558  30.412   7.791
  139POPC   NC3 5387  15.209  32.151   9.628
  139POPC   PO4 5388  14.747  32.573   9.422
  139POPC   GL1 5389  14.915  32.259   9.168
  139POPC   GL2 5390  15.236  32.143   9.096
  139POPC   C1A 5391  14.888  32.305   8.744
  139POPC   D2A 5392  15.086  32.571   8.462
  139POPC   C3A 5393  15.111  32.595   8.061
  139POPC   C4A 5394  15.161  32.345   7.675
  139POPC   C1B 5395  15.432  32.264   8.672
  139POPC   C2B 5396  15.384  32.179   8.213
  139POPC   C3B 5397  15.547  32.050   7.778
  139POPC   C4B 5398  15.440  32.061   7.308
  140POPC   NC3 5399  38.745  37.870   9.434
  140POPC   PO4 5400  38.144  37.527   9.505
  140POPC   GL1 5401  38.324  37.697   9.149
  140POPC   GL2 5402  38.249  38.006   9.266
  140POPC   C1A 5403  38.545  37.588   8.767
  140POPC   D2A 5404  38.356  37.372   8.389
  140POPC   C3A 5405  38.522  37.501   8.003
  140POPC   C4A 5406  38.717  37.558   7.591
  140POPC   C1B 5407  38.159  38.074   8.842
  140POPC   C2B 5408  38.354  37.964   8.486
  140POPC   C3B 5409  38.337  38.101   8.093
  140POPC   C4B 5410  38.308  37.872   7.743
  141POPC   NC3 5411  15.140  19.901   9.294
  141POPC   PO4 5412  15.274  19.388   9.621
  141POPC   GL1 5413  15.207  19.432   9.124
  141POPC   GL2 5414  14.891  19.541   8.994
  141POPC   C1A 5415  15.290  19.581   8.695
  141POPC   D2A 5416  15.077  19.626   8.312
  141POPC   C3A 5417  15.255  19.986   8.156
  141POPC   C4A 5418  15.318  20.045   7.733
  141POPC   C1B 5419  14.842  19.874   8.697
  141POPC   C2B 5420  14.728  20.003   8.276
  141POPC   C3B 5421  14.841  19.947   7.848
  141POPC   C4B 5422  15.124  19.564   7.786
  142POPC   NC3 5423  26.661  10.598   9.644
  142POPC   PO4 5424  27.317  10.599   9.568
  142POPC   GL1 5425  26.982  10.630   9.196
  142POPC   GL2 5426  26.631  10.759   9.146
  142POPC   C1A 5427  26.911  10.352   8.810
  142POPC   D2A 5428  27.051  10.177   8.400
  142POPC   C3A 5429  26.986  10.409   8.035
  142POPC   C4A 5430  26.686  10.366   7.738
  142POPC   C1B 5431  26.838  10.880   8.759
  142POPC   C2B 5432  26.851  10.807   8.322
  142POPC   C3B 5433  26.780  10.892   7.873
  142POPC   C4B 5434  26.536  10.771   7.483
  143POPC   NC3 5435  35.597  43.817   9.524
  143POPC   PO4 5436  35.236  44.382   9.355
  143POPC   GL1 5437  35.563  44.163   9.128
  143POPC   GL2 5438  35.481  43.805   9.044
  143POPC   C1A 5439  35.431  44.188   8.696
  143POPC   D2A 5440  35.026  44.180   8.488
  143POPC   C3A 5441  35.178  44.020   8.126
  143POPC   C4A 5442  35.427  44.152   7.804
  143POPC   C1B 5443  35.450  43.671   8.621
  143POPC   C2B 5444  35.579  43.685   8.197
  143POPC   C3B 5445  35.409  43.640   7.783
  143POPC   C4B 5446  35.583  43.580   7.350
  144POPC   NC3 5447   6.249  22.938   9.523
  144POPC   PO4 5448   5.656  22.852   9.448
  144POPC   GL1 5449   5.728  23.076   9.110
  144POPC   GL2 5450   6.040  23.243   9.124
  144POPC   C1A 5451   5.640  22.966   8.723
  144POPC   D2A 5452   5.788  22.831   8.358
  144POPC   C3A 5453   5.795  23.158   8.090
  144POPC   C4A 5454   5.912  22.987   7.720
  144POPC   C1B 5455   5.959  23.394   8.678
  144POPC   C2B 5456   6.206  23.443   8.270
  144POPC   C3B 5457   6.147  23.412   7.803
  144POPC   C4B 5458   6.190  23.256   7.351
  145POPC   NC3 5459  22.030  21.237   9.404
  145POPC   PO4 5460  22.224  21.861   9.744
  145POPC   GL1 5461  22.237  21.674   9.271
  145POPC   GL2 5462  21.886  21.637   9.138
  145POPC   C1A 5463  22.202  21.502   8.788
  145POPC   D2A 5464  22.310  21.477   8.370
  145POPC   C3A 5465  22.259  21.187   8.061
  145POPC   C4A 5466  22.291  21.431   7.707
  145POPC   C1B 5467  21.785  21.864   8.781
  145POPC   C2B 5468  21.778  21.583   8.430
  145POPC   C3B 5469  21.877  21.626   7.996
  145POPC   C4B 5470  21.689  21.765   7.596
  146POPC   NC3 5471  42.953  12.700   9.685
  146POPC   PO4 5472  42.989  13.313   9.554
  146POPC   GL1 5473  43.023  13.028   9.216
  146POPC   GL2 5474  42.833  12.717   9.177
  146POPC   C1A 5475  43.109  13.144   8.809
  146POPC   D2A 5476  43.010  13.282   8.439
  146POPC   C3A 5477  43.127  13.141   8.045
  146POPC   C4A 5478  43.005  13.252   7.610
  146POPC   C1B 5479  43.005  12.659   8.775
  146POPC   C2B 5480  42.854  12.756   8.333
  146POPC   C3B 5481  42.992  12.660   7.895
  146POPC   C4B 5482  43.343  12.377   7.811
  147POPC   NC3 5483  21.296  44.332   9.403
  147POPC   PO4 5484  21.675  44.914   9.442
  147POPC   GL1 5485  21.382  44.766   9.109
  147POPC   GL2 5486  21.026  44.722   9.231
  147POPC   C1A 5487  21.365  44.430   8.775
  147POPC   D2A 5488  21.486  44.236   8.405
  147POPC   C3A 5489  21.501  44.528   8.056
  147POPC   C4A 5490  21.557  44.390   7.622
  147POPC   C1B 5491  20.899  44.633   8.818
  147POPC   C2B 5492  21.080  44.683   8.410
  147POPC   C3B 5493  20.979  44.521   8.039
  147POPC   C4B 5494  21.098  44.602   7.667
  148POPC   NC3 5495  37.689  36.348   9.458
  148POPC   PO4 5496  37.294  35.781   9.515
  148POPC   GL1 5497  37.509  35.966   9.171
  148POPC   GL2 5498  37.829  35.906   9.170
  148POPC   C1A 5499  37.387  36.202   8.785
  148POPC   D2A 5500  37.621  36.204   8.379
  148POPC   C3A 5501  37.462  36.223   7.933
  148POPC   C4A 5502  37.561  36.346   7.477
  148POPC   C1B 5503  37.855  35.958   8.766
  148POPC   C2B 5504  38.062  35.871   8.397
  148POPC   C3B 5505  37.958  36.033   8.027
  148POPC   C4B 5506  37.824  35.935   7.672
  149POPC   NC3 5507   7.419  17.042   9.404
  149POPC   PO4 5508   7.867  16.536   9.625
  149POPC   GL1 5509   7.688  16.626   9.209
  149POPC   GL2 5510   7.319  16.561   9.180
  149POPC   C1A 5511   7.687  16.808   8.792
  149POPC   D2A 5512   7.525  16.960   8.409
  149POPC   C3A 5513   7.530  16.686   8.059
  149POPC   C4A 5514   7.793  16.791   7.718
  149POPC   C1B 5515   7.067  16.704   8.802
  149POPC   C2B 5516   7.084  16.684   8.346
  149POPC   C3B 5517   7.038  16.764   7.927
  149POPC   C4B 5518   7.314  16.990   7.707
  150POPC   NC3 5519  36.183  28.438   9.544
  150POPC   PO4 5520  35.533  28.277   9.444
  150POPC   GL1 5521  35.900  28.405   9.121
  150POPC   GL2 5522  36.163  28.677   9.085
  150POPC   C1A 5523  36.157  28.285   8.722
  150POPC   D2A 5524  35.927  28.228   8.331
  150POPC   C3A 5525  36.024  28.200   7.902
  150POPC   C4A 5526  35.977  28.289   7.452
  150POPC   C1B 5527  35.964  28.750   8.669
  150POPC   C2B 5528  36.094  28.698   8.215
  150POPC   C3B 5529  36.172  28.683   7.747
  150POPC   C4B 5530  36.319  28.663   7.296
  151POPC   NC3 5531  11.495  34.069   9.428
  151POPC   PO4 5532  11.244  34.713   9.352
  151POPC   GL1 5533  11.457  34.446   9.067
  151POPC   GL2 5534  11.166  34.310   8.947
  151POPC   C1A 5535  11.527  34.465   8.617
  151POPC   D2A 5536  11.759  34.687   8.346
  151POPC   C3A 5537  11.528  34.520   8.024
  151POPC   C4A 5538  11.264  34.341   7.772
  151POPC   C1B 5539  11.117  34.715   8.728
  151POPC   C2B 5540  11.271  34.851   8.333
  151POPC   C3B 5541  11.121  34.824   7.906
  151POPC   C4B 5542  10.829  34.572   7.701
  152POPC   NC3 5543   1.858  15.077  10.007
  152POPC   PO4 5544   1.532  15.558   9.648
  152POPC   GL1 5545   1.810  15.306   9.337
  152POPC   GL2 5546   2.033  15.553   9.154
  152POPC   C1A 5547   1.990  15.075   8.954
  152POPC   D2A 5548   1.923  14.956   8.512
  152POPC   C3A 5549   2.163  15.101   8.139
  152POPC   C4A 5550   2.115  14.967   7.708
  152POPC   C1B 5551   1.858  15.531   8.722
  152POPC   C2B 5552   1.749  15.405   8.291
  152POPC   C3B 5553   1.831  15.375   7.843
  152POPC   C4B 5554   2.219  15.453   7.607
  153POPC   NC3 5555  28.614  15.328   9.673
  153POPC   PO4 5556  28.154  14.830   9.561
  153POPC   GL1 5557  28.408  15.075   9.265
  153POPC   GL2 5558  28.137  15.099   9.118
  153POPC   C1A 5559  28.558  14.983   8.820
  153POPC   D2A 5560  28.611  15.294   8.515
  153POPC   C3A 5561  28.542  15.183   8.108
  153POPC   C4A 5562  28.715  15.398   7.788
  153POPC   C1B 5563  28.264  15.414   8.867
  153POPC   C2B 5564  28.152  15.510   8.436
  153POPC   C3B 5565  28.030  15.343   8.098
  153POPC   C4B 5566  28.192  15.405   7.735
  154POPC   NC3 5567  39.717  15.149   9.442
  154POPC   PO4 5568  40.358  15.389   9.523
  154POPC   GL1 5569  40.157  15.250   9.164
  154POPC   GL2 5570  40.071  14.901   9.150
  154POPC   C1A 5571  40.083  15.243   8.725
  154POPC   D2A 5572  40.043  15.116   8.299
  154POPC   C3A 5573  39.980  15.288   7.922
  154POPC   C4A 5574  40.268  15.497   7.700
  154POPC   C1B 5575  39.732  14.897   8.834
  154POPC   C2B 5576  39.679  14.803   8.403
  154POPC   C3B 5577  39.843  14.708   7.985
  154POPC   C4B 5578  40.158  14.864   7.695
  155POPC   NC3 5579  11.075  23.676   9.616
  155POPC   PO4 5580  11.705  23.792   9.586
  155POPC   GL1 5581  11.379  23.937   9.241
  155POPC   GL2 5582  11.211  23.643   9.103
  155POPC   C1A 5583  11.123  24.070   8.857
  155POPC   D2A 5584  11.014  23.732   8.533
  155POPC   C3A 5585  11.075  23.722   8.084
  155POPC   C4A 5586  11.188  24.082   7.850
  155POPC   C1B 5587  11.506  23.773   8.736
  155POPC   C2B 5588  11.490  23.940   8.296
  155POPC   C3B 5589  11.545  23.623   7.927
  155POPC   C4B 5590  11.797  23.430   7.583
  156POPC   NC3 5591   3.710  36.588   9.260
  156POPC   PO4 5592   3.348  36.350   9.759
  156POPC   GL1 5593   3.269  36.210   9.304
  156POPC   GL2 5594   3.559  36.038   9.205
  156POPC   C1A 5595   3.270  36.314   8.833
  156POPC   D2A 5596   3.533  36.337   8.416
  156POPC   C3A 5597   3.345  36.299   7.986
  156POPC   C4A 5598   3.233  35.994   7.651
  156POPC   C1B 5599   3.679  35.998   8.772
  156POPC   C2B 5600   3.539  35.799   8.375
  156POPC   C3B 5601   3.645  35.902   7.958
  156POPC   C4B 5602   3.856  36.181   7.693
  157POPC   NC3 5603  21.823  31.262   9.291
  157POPC   PO4 5604  21.417  31.573   9.789
  157POPC   GL1 5605  21.355  31.530   9.291
  157POPC   GL2 5606  21.503  31.769   9.117
  157POPC   C1A 5607  21.369  31.328   8.811
  157POPC   D2A 5608  21.159  31.063   8.459
  157POPC   C3A 5609  21.049  31.219   8.029
  157POPC   C4A 5610  21.049  31.616   7.803
  157POPC   C1B 5611  21.468  31.806   8.657
  157POPC   C2B 5612  21.340  31.553   8.297
  157POPC   C3B 5613  21.526  31.425   7.902
  157POPC   C4B 5614  21.485  31.621   7.505
  158POPC   NC3 5615  38.162  14.933   9.431
  158POPC   PO4 5616  38.434  15.615   9.575
  158POPC   GL1 5617  38.478  15.327   9.209
  158POPC   GL2 5618  38.179  15.343   9.007
  158POPC   C1A 5619  38.603  15.231   8.754
  158POPC   D2A 5620  38.352  15.215   8.365
  158POPC   C3A 5621  38.543  15.156   7.968
  158POPC   C4A 5622  38.340  15.058   7.567
  158POPC   C1B 5623  38.052  14.985   8.715
  158POPC   C2B 5624  38.181  14.716   8.378
  158POPC   C3B 5625  38.119  14.868   8.002
  158POPC   C4B 5626  37.941  14.709   7.669
  159POPC   NC3 5627  39.597  27.379   9.539
  159POPC   PO4 5628  38.937  27.149   9.586
  159POPC   GL1 5629  39.123  27.406   9.253
  159POPC   GL2 5630  39.323  27.670   9.189
  159POPC   C1A 5631  39.241  27.301   8.832
  159POPC   D2A 5632  39.408  27.407   8.454
  159POPC   C3A 5633  39.165  27.317   8.097
  159POPC   C4A 5634  39.268  27.470   7.703
  159POPC   C1B 5635  39.252  27.815   8.791
  159POPC   C2B 5636  39.007  27.832   8.440
  159POPC   C3B 5637  39.179  27.835   8.044
  159POPC   C4B 5638  39.421  27.950   7.690
  160POPC   NC3 5639  26.988  28.694   9.668
  160POPC   PO4 5640  26.550  28.298   9.397
  160POPC   GL1 5641  26.956  28.316   9.228
  160POPC   GL2 5642  26.920  28.669   9.170
  160POPC   C1A 5643  27.068  28.166   8.815
  160POPC   D2A 5644  26.778  28.100   8.481
  160POPC   C3A 5645  26.890  28.222   8.063
  160POPC   C4A 5646  26.857  28.040   7.678
  160POPC   C1B 5647  27.118  28.681   8.786
  160POPC   C2B 5648  27.037  28.574   8.404
  160POPC   C3B 5649  27.002  28.720   8.005
  160POPC   C4B 5650  26.783  28.590   7.628
  161POPC   NC3 5651  23.402  31.871   9.417
  161POPC   PO4 5652  23.625  32.504   9.469
  161POPC   GL1 5653  23.754  32.363   9.070
  161POPC   GL2 5654  24.001  32.096   9.132
  161POPC   C1A 5655  23.631  32.427   8.652
  161POPC   D2A 5656  23.558  32.512   8.229
  161POPC   C3A 5657  23.447  32.110   8.008
  161POPC   C4A 5658  23.383  32.350   7.603
  161POPC   C1B 5659  24.028  32.119   8.694
  161POPC   C2B 5660  23.894  32.153   8.266
  161POPC   C3B 5661  23.860  32.307   7.823
  161POPC   C4B 5662  23.850  32.128   7.420
  162POPC   NC3 5663  41.382  40.017   9.482
  162POPC   PO4 5664  41.961  39.625   9.340
  162POPC   GL1 5665  41.668  39.803   9.113
  162POPC   GL2 5666  41.386  39.608   9.208
  162POPC   C1A 5667  41.679  39.936   8.704
  162POPC   D2A 5668  41.837  39.949   8.268
  162POPC   C3A 5669  41.606  40.251   8.074
  162POPC   C4A 5670  41.231  40.347   7.812
  162POPC   C1B 5671  41.253  39.656   8.816
  162POPC   C2B 5672  41.381  39.641   8.422
  162POPC   C3B 5673  41.282  39.862   8.076
  162POPC   C4B 5674  41.465  39.890   7.700
  163POPC   NC3 5675   4.255  15.019   9.613
  163POPC   PO4 5676   4.808  15.444   9.469
  163POPC   GL1 5677   4.496  15.248   9.183
  163POPC   GL2 5678   4.164  15.148   9.138
  163POPC   C1A 5679   4.530  15.081   8.762
  163POPC   D2A 5680   4.720  14.894   8.391
  163POPC   C3A 5681   4.630  15.211   8.117
  163POPC   C4A 5682   4.319  15.184   7.828
  163POPC   C1B 5683   4.005  15.142   8.726
  163POPC   C2B 5684   4.133  15.081   8.321
  163POPC   C3B 5685   3.950  14.890   8.020
  163POPC   C4B 5686   3.852  15.043   7.661
  164POPC   NC3 5687   7.807  10.705   9.453
  164POPC   PO4 5688   8.356  10.315   9.676
  164POPC   GL1 5689   8.160  10.381   9.238
  164POPC   GL2 5690   8.223  10.735   9.137
  164POPC   C1A 5691   8.053  10.429   8.767
  164POPC   D2A 5692   8.077  10.335   8.300
  164POPC   C3A 5693   8.352  10.460   7.932
  164POPC   C4A 5694   8.362  10.301   7.472
  164POPC   C1B 5695   8.030  10.939   8.754
  164POPC   C2B 5696   7.782  10.743   8.431
  164POPC   C3B 5697   7.914  10.753   8.013
  164POPC   C4B 5698   7.991  10.609   7.571
  165POPC   NC3 5699   2.019  44.804   9.594
  165POPC   PO4 5700   2.395  44.382   9.217
  165POPC   GL1 5701   2.066  44.655   9.104
  165POPC   GL2 5702   2.110   0.032   9.136
  165POPC   C1A 5703   1.972  44.663   8.691
  165POPC   D2A 5704   2.111  44.485   8.327
  165POPC   C3A 5705   2.107  44.794   8.035
  165POPC   C4A 5706   2.272  44.725   7.650
  165POPC   C1B 5707   2.040   0.194   8.713
  165POPC   C2B 5708   1.741   0.029   8.417
  165POPC   C3B 5709   1.687   0.076   7.994
  165POPC   C4B 5710   1.769  44.859   7.613
  166POPC   NC3 5711  40.967  10.547   9.441
  166POPC   PO4 5712  40.726   9.851   9.491
  166POPC   GL1 5713  40.764  10.204   9.125
  166POPC   GL2 5714  41.140  10.305   9.001
  166POPC   C1A 5715  40.782  10.615   8.827
  166POPC   D2A 5716  41.123  10.736   8.524
  166POPC   C3A 5717  40.986  10.583   8.124
  166POPC   C4A 5718  40.629  10.728   7.883
  166POPC   C1B 5719  41.019  10.239   8.574
  166POPC   C2B 5720  40.614  10.353   8.422
  166POPC   C3B 5721  40.511  10.238   8.054
  166POPC   C4B 5722  40.866  10.112   7.853
  167POPC   NC3 5723  35.248  26.486   9.618
  167POPC   PO4 5724  35.567  27.136   9.521
  167POPC   GL1 5725  35.328  26.867   9.238
  167POPC   GL2 5726  35.500  26.561   9.123
  167POPC   C1A 5727  35.144  26.838   8.831
  167POPC   D2A 5728  35.089  26.663   8.411
  167POPC   C3A 5729  35.108  26.886   8.018
  167POPC   C4A 5730  34.912  27.127   7.692
  167POPC   C1B 5731  35.612  26.734   8.685
  167POPC   C2B 5732  35.571  26.818   8.233
  167POPC   C3B 5733  35.504  26.615   7.813
  167POPC   C4B 5734  35.519  26.583   7.359
  168POPC   NC3 5735  10.742  20.248   9.448
  168POPC   PO4 5736  11.325  20.029   9.673
  168POPC   GL1 5737  11.276  19.874   9.264
  168POPC   GL2 5738  11.445  20.177   9.163
  168POPC   C1A 5739  11.327  19.530   8.962
  168POPC   D2A 5740  11.302  19.552   8.519
  168POPC   C3A 5741  11.532  19.399   8.176
  168POPC   C4A 5742  11.404  19.599   7.784
  168POPC   C1B 5743  11.403  20.001   8.764
  168POPC   C2B 5744  11.153  20.047   8.401
  168POPC   C3B 5745  11.066  19.964   7.978
  168POPC   C4B 5746  11.193  20.163   7.621
  169POPC   NC3 5747  37.991   0.633   9.549
  169POPC   PO4 5748  37.307   0.376   9.509
  169POPC   GL1 5749  37.481   0.466   9.136
  169POPC   GL2 5750  37.820   0.323   9.158
  169POPC   C1A 5751  37.619   0.489   8.710
  169POPC   D2A 5752  37.593   0.205   8.377
  169POPC   C3A 5753  37.598   0.513   8.070
  169POPC   C4A 5754  37.669   0.686   7.681
  169POPC   C1B 5755  37.934   0.091   8.774
  169POPC   C2B 5756  38.082   0.214   8.351
  169POPC   C3B 5757  37.988   0.052   7.922
  169POPC   C4B 5758  38.120  44.793   7.551
  170POPC   NC3 5759  33.560  39.207   9.579
  170POPC   PO4 5760  34.210  39.474   9.541
  170POPC   GL1 5761  33.909  39.568   9.193
  170POPC   GL2 5762  33.535  39.477   9.149
  170POPC   C1A 5763  33.926  39.402   8.773
  170POPC   D2A 5764  34.050  39.588   8.401
  170POPC   C3A 5765  34.033  39.351   8.013
  170POPC   C4A 5766  34.039  39.514   7.596
  170POPC   C1B 5767  33.412  39.414   8.733
  170POPC   C2B 5768  33.586  39.336   8.347
  170POPC   C3B 5769  33.597  39.067   7.990
  170POPC   C4B 5770  33.618  39.248   7.609
  171POPC   NC3 5771  43.006  15.656   9.396
  171POPC   PO4 5772  43.428  16.119   9.520
  171POPC   GL1 5773  43.165  16.080   9.135
  171POPC   GL2 5774  42.823  16.241   9.100
  171POPC   C1A 5775  42.980  15.920   8.746
  171POPC   D2A 5776  42.742  15.745   8.435
  171POPC   C3A 5777  42.991  15.560   8.117
  171POPC   C4A 5778  43.095  15.776   7.773
  171POPC   C1B 5779  42.866  16.453   8.711
  171POPC   C2B 5780  43.063  16.277   8.356
  171POPC   C3B 5781  43.074  16.275   7.910
  171POPC   C4B 5782  42.726  16.311   7.633
  172POPC   NC3 5783   7.178   9.964   9.487
  172POPC   PO4 5784   7.315   9.381   9.816
  172POPC   GL1 5785   7.355   9.511   9.296
  172POPC   GL2 5786   7.116   9.732   9.032
  172POPC   C1A 5787   7.564   9.644   8.859
  172POPC   D2A 5788   7.457   9.747   8.458
  172POPC   C3A 5789   7.717   9.816   8.108
  172POPC   C4A 5790   7.631   9.667   7.721
  172POPC   C1B 5791   7.100  10.046   8.678
  172POPC   C2B 5792   7.106  10.156   8.225
  172POPC   C3B 5793   7.205   9.943   7.802
  172POPC   C4B 5794   7.175   9.680   7.408
  173POPC   NC3 5795  31.258  27.722   9.620
  173POPC   PO4 5796  30.554  27.667   9.511
  173POPC   GL1 5797  30.566  27.540   9.106
  173POPC   GL2 5798  30.463  27.900   9.057
  173POPC   C1A 5799  30.781  27.267   8.771
  173POPC   D2A 5800  30.904  27.027   8.369
  173POPC   C3A 5801  30.829  27.261   7.984
  173POPC   C4A 5802  31.122  27.378   7.643
  173POPC   C1B 5803  30.860  27.800   8.800
  173POPC   C2B 5804  30.889  27.613   8.374
  173POPC   C3B 5805  30.916  27.760   7.937
  173POPC   C4B 5806  30.923  27.799   7.471
  174POPC   NC3 5807  16.666  19.138   9.592
  174POPC   PO4 5808  17.090  18.669   9.278
  174POPC   GL1 5809  16.765  18.892   9.021
  174POPC   GL2 5810  16.547  19.147   9.102
  174POPC   C1A 5811  16.622  18.926   8.575
  174POPC   D2A 5812  16.937  19.086   8.267
  174POPC   C3A 5813  16.882  18.870   7.897
  174POPC   C4A 5814  16.480  18.888   7.656
  174POPC   C1B 5815  16.721  19.372   8.759
  174POPC   C2B 5816  16.565  19.487   8.379
  174POPC   C3B 5817  16.511  19.259   8.039
  174POPC   C4B 5818  16.743  19.319   7.706
  175POPC   NC3 5819   0.982  44.842   9.558
  175POPC   PO4 5820   1.606  44.529   9.539
  175POPC   GL1 5821   1.267  44.604   9.191
  175POPC   GL2 5822   1.087  44.940   9.090
  175POPC   C1A 5823   1.475  44.586   8.801
  175POPC   D2A 5824   1.589  44.296   8.477
  175POPC   C3A 5825   1.620  44.574   8.157
  175POPC   C4A 5826   1.335  44.730   7.858
  175POPC   C1B 5827   1.017  44.770   8.725
  175POPC   C2B 5828   1.216  44.813   8.358
  175POPC   C3B 5829   0.929  44.949   8.046
  175POPC   C4B 5830   0.879  44.894   7.593
  176POPC   NC3 5831  43.300  17.928   9.386
  176POPC   PO4 5832  43.344  18.569   9.392
  176POPC   GL1 5833  43.162  18.520   9.038
  176POPC   GL2 5834  42.990  18.237   9.120
  176POPC   C1A 5835  43.262  18.395   8.648
  176POPC   D2A 5836  43.315  18.085   8.342
  176POPC   C3A 5837  43.217  18.292   7.969
  176POPC   C4A 5838  43.430  18.612   7.714
  176POPC   C1B 5839  42.983  17.954   8.760
  176POPC   C2B 5840  42.893  17.793   8.351
  176POPC   C3B 5841  42.704  17.854   7.975
  176POPC   C4B 5842  42.911  17.822   7.575
  177POPC   NC3 5843  42.872  40.338   9.487
  177POPC   PO4 5844  43.242  40.925   9.471
  177POPC   GL1 5845  43.062  40.693   9.159
  177POPC   GL2 5846  43.294  40.470   9.205
  177POPC   C1A 5847  42.958  40.823   8.761
  177POPC   D2A 5848  42.827  40.660   8.416
  177POPC   C3A 5849  42.983  40.845   8.053
  177POPC   C4A 5850  43.105  40.697   7.619
  177POPC   C1B 5851  43.465  40.712   8.828
  177POPC   C2B 5852  43.351  40.790   8.411
  177POPC   C3B 5853  43.458  40.636   8.002
  177POPC   C4B 5854  43.621  40.856   7.689
  178POPC   NC3 5855  13.346  17.002   9.485
  178POPC   PO4 5856  13.865  17.461   9.557
  178POPC   GL1 5857  13.585  17.462   9.230
  178POPC   GL2 5858  13.692  17.146   9.139
  178POPC   C1A 5859  13.482  17.499   8.802
  178POPC   D2A 5860  13.716  17.528   8.419
  178POPC   C3A 5861  13.560  17.666   8.070
  178POPC   C4A 5862  13.501  17.456   7.739
  178POPC   C1B 5863  13.945  17.261   8.816
  178POPC   C2B 5864  13.985  17.087   8.428
  178POPC   C3B 5865  14.039  17.297   8.054
  178POPC   C4B 5866  13.963  17.302   7.635
  179POPC   NC3 5867  29.329   5.849   9.533
  179POPC   PO4 5868  28.703   5.460   9.527
  179POPC   GL1 5869  29.008   5.654   9.177
  179POPC   GL2 5870  29.044   6.006   9.152
  179POPC   C1A 5871  29.336   5.745   8.838
  179POPC   D2A 5872  29.176   5.870   8.410
  179POPC   C3A 5873  29.338   5.727   8.004
  179POPC   C4A 5874  29.318   5.622   7.526
  179POPC   C1B 5875  29.220   6.245   8.807
  179POPC   C2B 5876  29.031   6.357   8.398
  179POPC   C3B 5877  28.941   6.311   7.977
  179POPC   C4B 5878  29.108   6.049   7.698
  180POPC   NC3 5879  42.955  34.445   9.688
  180POPC   PO4 5880  43.610  34.322   9.802
  180POPC   GL1 5881  43.390  34.462   9.378
  180POPC   GL2 5882  43.288  34.211   9.122
  180POPC   C1A 5883  43.197  34.716   9.012
  180POPC   D2A 5884  43.126  34.916   8.579
  180POPC   C3A 5885  42.828  34.719   8.276
  180POPC   C4A 5886  42.868  34.609   7.845
  180POPC   C1B 5887  43.483  34.369   8.780
  180POPC   C2B 5888  43.244  34.387   8.423
  180POPC   C3B 5889  43.275  34.232   8.023
  180POPC   C4B 5890  43.320  34.361   7.626
  181POPC   NC3 5891   6.996  39.177   9.509
  181POPC   PO4 5892   6.467  39.573   9.616
  181POPC   GL1 5893   6.586  39.413   9.181
  181POPC   GL2 5894   6.732  39.123   9.073
  181POPC   C1A 5895   6.436  39.397   8.728
  181POPC   D2A 5896   6.214  39.522   8.313
  181POPC   C3A 5897   6.447  39.382   7.956
  181POPC   C4A 5898   6.889  39.316   7.825
  181POPC   C1B 5899   6.702  38.911   8.665
  181POPC   C2B 5900   6.473  38.725   8.288
  181POPC   C3B 5901   6.636  38.878   7.885
  181POPC   C4B 5902   6.489  39.089   7.526
  182POPC   NC3 5903  17.954   3.685   9.730
  182POPC   PO4 5904  18.480   4.155   9.503
  182POPC   GL1 5905  18.365   4.185   9.066
  182POPC   GL2 5906  18.069   4.018   8.994
  182POPC   C1A 5907  18.241   4.483   8.746
  182POPC   D2A 5908  18.063   4.510   8.333
  182POPC   C3A 5909  18.353   4.679   8.039
  182POPC   C4A 5910  18.322   4.587   7.641
  182POPC   C1B 5911  17.996   4.065   8.603
  182POPC   C2B 5912  18.112   3.951   8.246
  182POPC   C3B 5913  18.307   4.152   7.998
  182POPC   C4B 5914  18.379   4.090   7.631
  183POPC   NC3 5915  14.818   9.493   9.671
  183POPC   PO4 5916  15.209  10.043   9.544
  183POPC   GL1 5917  15.183   9.625   9.290
  183POPC   GL2 5918  14.852   9.493   9.167
  183POPC   C1A 5919  15.202   9.623   8.831
  183POPC   D2A 5920  15.447   9.827   8.540
  183POPC   C3A 5921  15.374   9.707   8.117
  183POPC   C4A 5922  15.395   9.975   7.771
  183POPC   C1B 5923  14.691   9.698   8.799
  183POPC   C2B 5924  14.883   9.682   8.361
  183POPC   C3B 5925  14.874   9.632   7.881
  183POPC   C4B 5926  14.742   9.422   7.461
  184POPC   NC3 5927  19.328  20.201   9.446
  184POPC   PO4 5928  18.964  19.612   9.536
  184POPC   GL1 5929  18.981  19.932   9.192
  184POPC   GL2 5930  19.193  19.673   9.082
  184POPC   C1A 5931  18.989  20.239   8.787
  184POPC   D2A 5932  18.800  20.190   8.345
  184POPC   C3A 5933  18.983  19.928   7.991
  184POPC   C4A 5934  19.292  20.000   7.644
  184POPC   C1B 5935  18.937  19.753   8.726
  184POPC   C2B 5936  18.699  19.690   8.374
  184POPC   C3B 5937  18.717  19.486   8.011
  184POPC   C4B 5938  18.994  19.538   7.663
  185POPC   NC3 5939  28.427  25.407   9.510
  185POPC   PO4 5940  27.765  25.206   9.456
  185POPC   GL1 5941  28.152  25.147   9.137
  185POPC   GL2 5942  28.537  25.249   9.060
  185POPC   C1A 5943  28.171  25.373   8.728
  185POPC   D2A 5944  28.083  25.325   8.283
  185POPC   C3A 5945  28.354  25.508   7.950
  185POPC   C4A 5946  28.373  25.116   7.813
  185POPC   C1B 5947  28.652  25.537   8.734
  185POPC   C2B 5948  28.624  25.341   8.340
  185POPC   C3B 5949  28.841  25.240   7.947
  185POPC   C4B 5950  28.919  25.589   7.687
  186POPC   NC3 5951  32.620  20.497   9.387
  186POPC   PO4 5952  31.980  20.296   9.564
  186POPC   GL1 5953  32.057  20.632   9.247
  186POPC   GL2 5954  32.225  20.385   9.084
  186POPC   C1A 5955  32.097  20.780   8.779
  186POPC   D2A 5956  31.919  20.646   8.361
  186POPC   C3A 5957  32.180  20.832   7.986
  186POPC   C4A 5958  32.074  21.046   7.588
  186POPC   C1B 5959  32.511  20.468   8.747
  186POPC   C2B 5960  32.415  20.571   8.362
  186POPC   C3B 5961  32.285  20.323   7.989
  186POPC   C4B 5962  32.424  20.454   7.594
  187POPC   NC3 5963   2.416  12.541   9.493
  187POPC   PO4 5964   2.822  13.110   9.463
  187POPC   GL1 5965   2.690  12.823   9.152
  187POPC   GL2 5966   2.807  12.461   9.131
  187POPC   C1A 5967   2.763  12.816   8.729
  187POPC   D2A 5968   2.852  13.032   8.370
  187POPC   C3A 5969   2.656  12.910   8.007
  187POPC   C4A 5970   2.809  12.975   7.627
  187POPC   C1B 5971   2.430  12.459   8.850
  187POPC   C2B 5972   2.348  12.658   8.447
  187POPC   C3B 5973   2.357  12.501   8.035
  187POPC   C4B 5974   2.542  12.521   7.596
  188POPC   NC3 5975  34.529  34.819   9.550
  188POPC   PO4 5976  34.437  34.094   9.607
  188POPC   GL1 5977  34.485  34.416   9.216
  188POPC   GL2 5978  34.794  34.673   9.126
  188POPC   C1A 5979  34.512  34.484   8.760
  188POPC   D2A 5980  34.355  34.289   8.402
  188POPC   C3A 5981  34.522  34.294   7.999
  188POPC   C4A 5982  34.459  34.590   7.703
  188POPC   C1B 5983  35.013  34.495   8.747
  188POPC   C2B 5984  34.904  34.434   8.315
  188POPC   C3B 5985  34.962  34.560   7.885
  188POPC   C4B 5986  34.919  34.861   7.559
  189POPC   NC3 5987   6.884   3.647   9.214
  189POPC   PO4 5988   6.334   3.842   9.379
  189POPC   GL1 5989   6.416   3.692   9.018
  189POPC   GL2 5990   6.489   3.342   8.963
  189POPC   C1A 5991   6.550   3.829   8.640
  189POPC   D2A 5992   6.893   3.717   8.374
  189POPC   C3A 5993   6.782   3.794   7.945
  189POPC   C4A 5994   6.485   3.590   7.702
  189POPC   C1B 5995   6.857   3.108   8.754
  189POPC   C2B 5996   6.946   2.975   8.343
  189POPC   C3B 5997   6.808   3.275   8.053
  189POPC   C4B 5998   6.952   3.400   7.688
  190POPC   NC3 5999  28.040  39.492   9.485
  190POPC   PO4 6000  28.492  38.896   9.652
  190POPC   GL1 6001  28.305  39.082   9.267
  190POPC   GL2 6002  28.463  39.423   9.182
  190POPC   C1A 6003  28.313  39.076   8.798
  190POPC   D2A 6004  28.128  38.921   8.400
  190POPC   C3A 6005  28.330  38.938   7.986
  190POPC   C4A 6006  28.669  39.046   7.662
  190POPC   C1B 6007  28.268  39.606   8.802
  190POPC   C2B 6008  28.334  39.476   8.389
  190POPC   C3B 6009  28.441  39.425   7.944
  190POPC   C4B 6010  28.471  39.524   7.488
  191POPC   NC3 6011  14.864  33.999   9.523
  191POPC   PO4 6012  15.469  33.621   9.516
  191POPC   GL1 6013  15.254  33.876   9.153
  191POPC   GL2 6014  14.941  34.049   9.052
  191POPC   C1A 6015  15.150  33.797   8.695
  191POPC   D2A 6016  15.425  33.646   8.407
  191POPC   C3A 6017  15.188  33.513   8.039
  191POPC   C4A 6018  15.296  33.707   7.648
  191POPC   C1B 6019  14.668  34.122   8.708
  191POPC   C2B 6020  14.826  34.232   8.307
  191POPC   C3B 6021  14.690  34.130   7.905
  191POPC   C4B 6022  14.838  33.919   7.543
  192POPC   NC3 6023   9.576  37.881   9.693
  192POPC   PO4 6024  10.261  37.875   9.709
  192POPC   GL1 6025   9.939  37.843   9.313
  192POPC   GL2 6026   9.556  37.914   9.180
  192POPC   C1A 6027   9.918  37.680   8.877
  192POPC   D2A 6028   9.786  37.834   8.464
  192POPC   C3A 6029   9.782  37.655   8.062
  192POPC   C4A 6030   9.361  37.689   7.881
  192POPC   C1B 6031   9.403  37.679   8.769
  192POPC   C2B 6032   9.436  37.425   8.343
  192POPC   C3B 6033   9.647  37.179   7.937
  192POPC   C4B 6034   9.960  37.098   7.560
  193POPC   NC3 6035  41.901  13.870   9.476
  193POPC   PO4 6036  41.131  13.739   9.416
  193POPC   GL1 6037  41.445  13.535   9.155
  193POPC   GL2 6038  41.776  13.519   9.123
  193POPC   C1A 6039  41.436  13.404   8.745
  193POPC   D2A 6040  41.276  13.671   8.464
  193POPC   C3A 6041  41.322  13.461   8.140
  193POPC   C4A 6042  41.466  13.520   7.761
  193POPC   C1B 6043  41.968  13.531   8.732
  193POPC   C2B 6044  42.059  13.297   8.389
  193POPC   C3B 6045  41.869  13.494   8.064
  193POPC   C4B 6046  41.983  13.848   7.792
  194POPC   NC3 6047  39.369  13.807   9.588
  194POPC   PO4 6048  38.838  13.451   9.462
  194POPC   GL1 6049  39.108  13.622   9.138
  194POPC   GL2 6050  39.454  13.512   9.190
  194POPC   C1A 6051  39.065  13.719   8.684
  194POPC   D2A 6052  38.917  13.946   8.334
  194POPC   C3A 6053  39.017  13.749   7.933
  194POPC   C4A 6054  38.910  14.048   7.616
  194POPC   C1B 6055  39.538  13.615   8.807
  194POPC   C2B 6056  39.509  13.395   8.438
  194POPC   C3B 6057  39.536  13.593   8.067
  194POPC   C4B 6058  39.511  13.650   7.684
  195POPC   NC3 6059   0.148   3.003   9.479
  195POPC   PO4 6060   0.536   2.469   9.604
  195POPC   GL1 6061   0.382   2.584   9.201
  195POPC   GL2 6062   0.480   2.886   9.000
  195POPC   C1A 6063   0.327   2.451   8.771
  195POPC   D2A 6064   0.405   2.706   8.373
  195POPC   C3A 6065   0.373   2.496   7.952
  195POPC   C4A 6066   0.470   2.518   7.506
  195POPC   C1B 6067   0.100   2.959   8.761
  195POPC   C2B 6068  44.942   2.974   8.338
  195POPC   C3B 6069   0.188   2.968   7.955
  195POPC   C4B 6070   0.305   3.017   7.477
  196POPC   NC3 6071  25.188  31.694   9.530
  196POPC   PO4 6072  25.603  31.264   9.340
  196POPC   GL1 6073  25.211  31.241   9.184
  196POPC   GL2 6074  25.250  31.571   9.033
  196POPC   C1A 6075  25.154  31.043   8.800
  196POPC   D2A 6076  25.337  30.926   8.396
  196POPC   C3A 6077  25.198  31.078   8.038
  196POPC   C4A 6078  25.197  31.397   7.751
  196POPC   C1B 6079  25.299  31.510   8.586
  196POPC   C2B 6080  25.113  31.676   8.198
  196POPC   C3B 6081  25.379  31.852   7.870
  196POPC   C4B 6082  25.650  31.650   7.523
  197POPC   NC3 6083   8.398   3.885   9.535
  197POPC   PO4 6084   7.994   4.379   9.648
  197POPC   GL1 6085   8.070   4.141   9.259
  197POPC   GL2 6086   8.368   4.298   9.186
  197POPC   C1A 6087   8.235   3.998   8.805
  197POPC   D2A 6088   8.333   4.178   8.379
  197POPC   C3A 6089   8.247   4.104   7.922
  197POPC   C4A 6090   8.172   4.438   7.570
  197POPC   C1B 6091   8.322   4.526   8.811
  197POPC   C2B 6092   8.555   4.630   8.436
  197POPC   C3B 6093   8.468   4.584   7.997
  197POPC   C4B 6094   8.686   4.473   7.614
  198POPC   NC3 6095  27.136  42.070   9.659
  198POPC   PO4 6096  27.689  42.455   9.570
  198POPC   GL1 6097  27.580  42.235   9.177
  198POPC   GL2 6098  27.855  41.999   9.179
  198POPC   C1A 6099  27.434  42.436   8.760
  198POPC   D2A 6100  27.373  42.691   8.364
  198POPC   C3A 6101  27.359  42.527   7.963
  198POPC   C4A 6102  27.119  42.385   7.587
  198POPC   C1B 6103  27.899  42.151   8.742
  198POPC   C2B 6104  27.732  42.303   8.326
  198POPC   C3B 6105  27.660  42.119   7.935
  198POPC   C4B 6106  27.934  41.847   7.648
  199POPC   NC3 6107   4.982   6.311   9.591
  199POPC   PO4 6108   5.242   6.914   9.453
  199POPC   GL1 6109   4.998   6.654   9.217
  199POPC   GL2 6110   4.897   6.902   9.053
  199POPC   C1A 6111   4.777   6.429   8.889
  199POPC   D2A 6112   4.825   6.284   8.465
  199POPC   C3A 6113   5.065   6.311   8.061
  199POPC   C4A 6114   4.858   6.609   7.813
  199POPC   C1B 6115   5.029   6.826   8.670
  199POPC   C2B 6116   5.306   6.991   8.410
  199POPC   C3B 6117   5.119   7.001   8.040
  199POPC   C4B 6118   5.340   6.725   7.864
  200POPC   NC3 6119  10.257   1.767   9.380
  200POPC   PO4 6120   9.586   2.098   9.521
  200POPC   GL1 6121   9.739   1.936   9.167
  200POPC   GL2 6122  10.033   2.181   9.168
  200POPC   C1A 6123   9.528   1.899   8.748
  200POPC   D2A 6124   9.549   1.650   8.353
  200POPC   C3A 6125   9.594   1.876   7.962
  200POPC   C4A 6126   9.553   1.793   7.526
  200POPC   C1B 6127  10.051   1.952   8.766
  200POPC   C2B 6128   9.937   1.994   8.345
  200POPC   C3B 6129   9.958   2.242   7.985
  200POPC   C4B 6130   9.878   2.223   7.560
  201POPC   NC3 6131  31.818  37.086   9.621
  201POPC   PO4 6132  31.192  36.821   9.456
  201POPC   GL1 6133  31.358  37.016   9.130
  201POPC   GL2 6134  31.677  36.946   9.150
  201POPC   C1A 6135  31.401  36.806   8.731
  201POPC   D2A 6136  31.393  36.915   8.320
  201POPC   C3A 6137  31.368  36.621   7.982
  201POPC   C4A 6138  31.362  36.754   7.557
  201POPC   C1B 6139  31.898  36.794   8.765
  201POPC   C2B 6140  31.936  36.934   8.333
  201POPC   C3B 6141  31.712  36.994   7.916
  201POPC   C4B 6142  31.821  36.993   7.442
  202POPC   NC3 6143  37.589   6.959   9.371
  202POPC   PO4 6144  37.474   6.288   9.271
  202POPC   GL1 6145  37.525   6.636   8.990
  202POPC   GL2 6146  37.883   6.739   9.029
  202POPC   C1A 6147  37.629   6.687   8.574
  202POPC   D2A 6148  37.587   6.327   8.314
  202POPC   C3A 6149  37.500   6.468   7.915
  202POPC   C4A 6150  37.544   6.268   7.517
  202POPC   C1B 6151  37.949   7.079   8.750
  202POPC   C2B 6152  37.888   7.083   8.275
  202POPC   C3B 6153  37.925   6.782   7.912
  202POPC   C4B 6154  37.649   6.799   7.542
  203POPC   NC3 6155  41.712  29.386   9.696
  203POPC   PO4 6156  41.362  30.020   9.516
  203POPC   GL1 6157  41.582  29.878   9.188
  203POPC   GL2 6158  41.289  29.847   9.016
  203POPC   C1A 6159  41.894  29.966   8.870
  203POPC   D2A 6160  42.040  29.812   8.477
  203POPC   C3A 6161  41.886  29.922   8.076
  203POPC   C4A 6162  41.756  29.561   7.864
  203POPC   C1B 6163  41.401  30.124   8.745
  203POPC   C2B 6164  41.530  29.932   8.427
  203POPC   C3B 6165  41.375  29.868   8.033
  203POPC   C4B 6166  41.435  30.177   7.713
  204POPC   NC3 6167  32.850   7.998   9.255
  204POPC   PO4 6168  32.949   8.627   9.345
  204POPC   GL1 6169  33.253   8.495   9.044
  204POPC   GL2 6170  33.506   8.304   9.195
  204POPC   C1A 6171  33.243   8.333   8.638
  204POPC   D2A 6172  32.918   8.212   8.329
  204POPC   C3A 6173  33.029   8.373   7.914
  204POPC   C4A 6174  32.912   8.232   7.503
  204POPC   C1B 6175  33.454   7.920   8.905
  204POPC   C2B 6176  33.187   7.776   8.548
  204POPC   C3B 6177  33.244   7.886   8.101
  204POPC   C4B 6178  33.331   8.040   7.669
  205POPC   NC3 6179   2.391  30.267   9.313
  205POPC   PO4 6180   3.033  29.932   9.420
  205POPC   GL1 6181   2.870  30.135   9.105
  205POPC   GL2 6182   2.625  29.865   9.079
  205POPC   C1A 6183   2.917  29.994   8.686
  205POPC   D2A 6184   2.704  29.928   8.309
  205POPC   C3A 6185   2.879  29.784   7.925
  205POPC   C4A 6186   2.959  30.179   7.788
  205POPC   C1B 6187   2.391  29.995   8.721
  205POPC   C2B 6188   2.202  29.970   8.335
  205POPC   C3B 6189   2.404  30.067   7.915
  205POPC   C4B 6190   2.284  30.089   7.500
  206POPC   NC3 6191  25.013   3.072   9.433
  206POPC   PO4 6192  25.580   2.707   9.676
  206POPC   GL1 6193  25.394   2.773   9.224
  206POPC   GL2 6194  25.266   2.478   9.004
  206POPC   C1A 6195  25.234   2.947   8.835
  206POPC   D2A 6196  25.253   2.989   8.420
  206POPC   C3A 6197  25.204   2.712   8.099
  206POPC   C4A 6198  25.310   2.754   7.676
  206POPC   C1B 6199  25.077   2.527   8.592
  206POPC   C2B 6200  24.840   2.378   8.229
  206POPC   C3B 6201  24.968   2.342   7.785
  206POPC   C4B 6202  25.103   2.428   7.339
  207POPC   NC3 6203  21.640   3.472   9.627
  207POPC   PO4 6204  21.015   3.699   9.658
  207POPC   GL1 6205  21.134   3.657   9.223
  207POPC   GL2 6206  21.492   3.657   9.186
  207POPC   C1A 6207  21.254   3.385   8.837
  207POPC   D2A 6208  21.508   3.415   8.435
  207POPC   C3A 6209  21.355   3.583   8.040
  207POPC   C4A 6210  21.214   3.554   7.603
  207POPC   C1B 6211  21.498   3.830   8.757
  207POPC   C2B 6212  21.646   3.953   8.339
  207POPC   C3B 6213  21.494   4.049   7.911
  207POPC   C4B 6214  21.619   3.873   7.501
  208POPC   NC3 6215  41.760  11.805   9.584
  208POPC   PO4 6216  41.180  11.928   9.396
  208POPC   GL1 6217  41.400  12.086   9.048
  208POPC   GL2 6218  41.784  12.090   9.113
  208POPC   C1A 6219  41.281  12.152   8.618
  208POPC   D2A 6220  41.267  11.877   8.296
  208POPC   C3A 6221  41.211  11.980   7.918
  208POPC   C4A 6222  41.324  12.329   7.765
  208POPC   C1B 6223  41.740  11.940   8.678
  208POPC   C2B 6224  41.730  12.058   8.247
  208POPC   C3B 6225  41.821  12.149   7.827
  208POPC   C4B 6226  41.976  12.497   7.574
  209POPC   NC3 6227  35.454  34.846   9.523
  209POPC   PO4 6228  34.865  34.463   9.573
  209POPC   GL1 6229  35.229  34.407   9.248
  209POPC   GL2 6230  35.329  34.738   9.060
  209POPC   C1A 6231  35.517  34.295   8.888
  209POPC   D2A 6232  35.715  34.303   8.456
  209POPC   C3A 6233  35.396  34.444   8.150
  209POPC   C4A 6234  35.409  34.343   7.741
  209POPC   C1B 6235  35.234  34.941   8.672
  209POPC   C2B 6236  35.145  34.930   8.222
  209POPC   C3B 6237  35.388  34.865   7.824
  209POPC   C4B 6238  35.743  34.852   7.531
  210POPC   NC3 6239   8.431  40.913   9.517
  210POPC   PO4 6240   7.747  40.986   9.646
  210POPC   GL1 6241   8.000  40.965   9.223
  210POPC   GL2 6242   8.277  40.714   9.075
  210POPC   C1A 6243   8.016  41.026   8.763
  210POPC   D2A 6244   8.369  41.008   8.512
  210POPC   C3A 6245   8.231  40.869   8.126
  210POPC   C4A 6246   8.217  40.569   7.838
  210POPC   C1B 6247   8.331  40.510   8.657
  210POPC   C2B 6248   8.601  40.570   8.267
  210POPC   C3B 6249   8.677  40.801   7.869
  210POPC   C4B 6250   8.636  40.918   7.416
  211POPC   NC3 6251  27.938  28.947   9.488
  211POPC   PO4 6252  27.474  29.428   9.360
  211POPC   GL1 6253  27.631  29.056   9.089
  211POPC   GL2 6254  27.952  29.128   8.948
  211POPC   C1A 6255  27.599  28.889   8.661
  211POPC   D2A 6256  27.684  29.138   8.280
  211POPC   C3A 6257  27.447  28.985   7.951
  211POPC   C4A 6258  27.556  28.924   7.532
  211POPC   C1B 6259  27.617  29.400   8.718
  211POPC   C2B 6260  27.243  29.330   8.470
  211POPC   C3B 6261  27.221  29.458   8.026
  211POPC   C4B 6262  27.598  29.435   7.750
  212POPC   NC3 6263  21.393  19.416   9.573
  212POPC   PO4 6264  21.856  18.960   9.449
  212POPC   GL1 6265  21.485  19.011   9.231
  212POPC   GL2 6266  21.308  18.705   9.288
  212POPC   C1A 6267  21.411  19.285   8.895
  212POPC   D2A 6268  21.582  19.380   8.482
  212POPC   C3A 6269  21.334  19.301   8.124
  212POPC   C4A 6270  21.407  19.085   7.742
  212POPC   C1B 6271  21.281  18.761   8.832
  212POPC   C2B 6272  21.321  18.889   8.435
  212POPC   C3B 6273  21.173  18.731   8.053
  212POPC   C4B 6274  21.035  18.740   7.646
  213POPC   NC3 6275  30.680  11.670   9.489
  213POPC   PO4 6276  30.691  12.406   9.458
  213POPC   GL1 6277  30.742  12.068   9.176
  213POPC   GL2 6278  30.445  11.950   9.137
  213POPC   C1A 6279  30.906  11.879   8.805
  213POPC   D2A 6280  30.891  12.112   8.427
  213POPC   C3A 6281  30.828  11.928   8.050
  213POPC   C4A 6282  30.982  11.580   7.859
  213POPC   C1B 6283  30.450  12.119   8.739
  213POPC   C2B 6284  30.364  12.012   8.337
  213POPC   C3B 6285  30.325  12.076   7.917
  213POPC   C4B 6286  30.258  12.110   7.476
  214POPC   NC3 6287  42.281  35.913   9.816
  214POPC   PO4 6288  42.584  36.303   9.407
  214POPC   GL1 6289  42.267  36.171   9.160
  214POPC   GL2 6290  42.171  35.836   9.178
  214POPC   C1A 6291  42.398  36.106   8.743
  214POPC   D2A 6292  42.458  36.404   8.408
  214POPC   C3A 6293  42.447  36.183   8.033
  214POPC   C4A 6294  42.424  35.937   7.651
  214POPC   C1B 6295  41.909  35.986   8.813
  214POPC   C2B 6296  42.037  36.085   8.381
  214POPC   C3B 6297  42.103  35.792   8.031
  214POPC   C4B 6298  41.933  35.721   7.603
  215POPC   NC3 6299  39.345  32.011   9.490
  215POPC   PO4 6300  38.861  32.479   9.439
  215POPC   GL1 6301  39.126  32.294   9.136
  215POPC   GL2 6302  39.409  32.468   9.070
  215POPC   C1A 6303  39.233  32.067   8.744
  215POPC   D2A 6304  39.016  31.991   8.319
  215POPC   C3A 6305  39.340  32.029   8.010
  215POPC   C4A 6306  39.419  32.429   7.957
  215POPC   C1B 6307  39.621  32.465   8.675
  215POPC   C2B 6308  39.727  32.682   8.280
  215POPC   C3B 6309  39.760  32.770   7.810
  215POPC   C4B 6310  39.712  32.598   7.416
  216POPC   NC3 6311  38.571  29.405   9.584
  216POPC   PO4 6312  38.339  28.742   9.530
  216POPC   GL1 6313  38.534  29.059   9.211
  216POPC   GL2 6314  38.412  29.416   9.110
  216POPC   C1A 6315  38.508  29.068   8.758
  216POPC   D2A 6316  38.519  29.295   8.383
  216POPC   C3A 6317  38.492  29.031   8.039
  216POPC   C4A 6318  38.609  29.041   7.642
  216POPC   C1B 6319  38.125  29.405   8.732
  216POPC   C2B 6320  38.089  29.538   8.283
  216POPC   C3B 6321  38.186  29.420   7.851
  216POPC   C4B 6322  38.002  29.613   7.466
  217POPC   NC3 6323  39.912  38.935   9.592
  217POPC   PO4 6324  40.085  39.616   9.485
  217POPC   GL1 6325  40.086  39.302   9.192
  217POPC   GL2 6326  39.731  39.192   9.179
  217POPC   C1A 6327  40.027  39.235   8.758
  217POPC   D2A 6328  39.985  39.006   8.387
  217POPC   C3A 6329  40.204  39.210   8.059
  217POPC   C4A 6330  40.234  39.034   7.656
  217POPC   C1B 6331  39.577  39.016   8.779
  217POPC   C2B 6332  39.541  39.244   8.389
  217POPC   C3B 6333  39.700  39.165   7.949
  217POPC   C4B 6334  39.759  39.056   7.497
  218POPC   NC3 6335  15.205  31.033   9.813
  218POPC   PO4 6336  15.123  31.689   9.697
  218POPC   GL1 6337  15.200  31.632   9.231
  218POPC   GL2 6338  14.925  31.752   9.012
  218POPC   C1A 6339  15.202  31.418   8.785
  218POPC   D2A 6340  15.335  31.506   8.342
  218POPC   C3A 6341  15.100  31.409   7.970
  218POPC   C4A 6342  15.067  31.076   7.662
  218POPC   C1B 6343  15.098  31.877   8.614
  218POPC   C2B 6344  14.957  31.889   8.200
  218POPC   C3B 6345  15.016  31.863   7.764
  218POPC   C4B 6346  15.299  31.611   7.515
  219POPC   NC3 6347  21.359  22.102   9.660
  219POPC   PO4 6348  21.772  22.660   9.757
  219POPC   GL1 6349  21.570  22.403   9.331
  219POPC   GL2 6350  21.483  22.021   9.181
  219POPC   C1A 6351  21.421  22.416   8.869
  219POPC   D2A 6352  21.559  22.556   8.454
  219POPC   C3A 6353  21.539  22.326   8.072
  219POPC   C4A 6354  21.311  22.451   7.725
  219POPC   C1B 6355  21.125  21.988   8.909
  219POPC   C2B 6356  21.227  21.905   8.481
  219POPC   C3B 6357  21.099  21.932   8.077
  219POPC   C4B 6358  21.249  21.956   7.708
  220POPC   NC3 6359  38.276  41.111   9.555
  220POPC   PO4 6360  38.621  40.548   9.644
  220POPC   GL1 6361  38.544  40.816   9.223
  220POPC   GL2 6362  38.220  41.013   9.076
  220POPC   C1A 6363  38.523  40.737   8.775
  220POPC   D2A 6364  38.641  40.908   8.391
  220POPC   C3A 6365  38.522  40.651   8.067
  220POPC   C4A 6366  38.461  40.672   7.655
  220POPC   C1B 6367  38.246  41.156   8.678
  220POPC   C2B 6368  38.262  41.259   8.271
  220POPC   C3B 6369  38.490  41.156   7.939
  220POPC   C4B 6370  38.864  40.983   7.897
  221POPC   NC3 6371   8.322  31.285   9.409
  221POPC   PO4 6372   8.588  31.810   9.399
  221POPC   GL1 6373   8.380  31.790   9.000
  221POPC   GL2 6374   8.122  31.515   9.018
  221POPC   C1A 6375   8.286  31.666   8.562
  221POPC   D2A 6376   8.161  31.271   8.427
  221POPC   C3A 6377   8.371  31.362   8.091
  221POPC   C4A 6378   8.414  31.822   8.024
  221POPC   C1B 6379   7.875  31.821   8.816
  221POPC   C2B 6380   7.679  31.806   8.436
  221POPC   C3B 6381   7.856  31.568   8.137
  221POPC   C4B 6382   8.031  31.540   7.758
  222POPC   NC3 6383  31.258   6.148   9.852
  222POPC   PO4 6384  30.776   5.921   9.382
  222POPC   GL1 6385  30.575   6.104   9.005
  222POPC   GL2 6386  30.287   5.860   9.049
  222POPC   C1A 6387  30.773   6.078   8.569
  222POPC   D2A 6388  30.954   5.673   8.382
  222POPC   C3A 6389  31.005   5.732   7.943
  222POPC   C4A 6390  30.800   6.121   7.800
  222POPC   C1B 6391  30.367   5.756   8.600
  222POPC   C2B 6392  30.507   5.851   8.160
  222POPC   C3B 6393  30.534   5.691   7.726
  222POPC   C4B 6394  30.276   5.629   7.379
  223POPC   NC3 6395   6.738  24.436   9.598
  223POPC   PO4 6396   6.207  24.328   9.266
  223POPC   GL1 6397   6.589  24.409   9.040
  223POPC   GL2 6398   6.918  24.552   9.138
  223POPC   C1A 6399   6.707  24.368   8.622
  223POPC   D2A 6400   6.774  24.297   8.189
  223POPC   C3A 6401   6.499  24.328   7.865
  223POPC   C4A 6402   6.606  24.480   7.443
  223POPC   C1B 6403   6.828  24.859   8.818
  223POPC   C2B 6404   6.596  24.851   8.437
  223POPC   C3B 6405   6.652  24.787   8.051
  223POPC   C4B 6406   6.942  24.674   7.777
  224POPC   NC3 6407  22.560  12.404   9.613
  224POPC   PO4 6408  22.198  12.969   9.584
  224POPC   GL1 6409  22.090  12.918   9.196
  224POPC   GL2 6410  22.284  13.200   9.098
  224POPC   C1A 6411  21.988  12.880   8.785
  224POPC   D2A 6412  22.221  12.893   8.400
  224POPC   C3A 6413  21.944  12.966   8.057
  224POPC   C4A 6414  21.954  12.664   7.801
  224POPC   C1B 6415  22.471  13.306   8.692
  224POPC   C2B 6416  22.424  13.348   8.247
  224POPC   C3B 6417  22.416  13.075   7.908
  224POPC   C4B 6418  22.132  13.281   7.671
  225POPC   NC3 6419  15.766  37.655   9.582
  225POPC   PO4 6420  16.444  37.609   9.790
  225POPC   GL1 6421  16.224  37.703   9.337
  225POPC   GL2 6422  15.993  37.443   9.170
  225POPC   C1A 6423  16.061  37.882   8.900
  225POPC   D2A 6424  15.953  37.702   8.468
  225POPC   C3A 6425  16.174  37.839   8.094
  225POPC   C4A 6426  16.191  37.788   7.668
  225POPC   C1B 6427  15.809  37.315   8.765
  225POPC   C2B 6428  15.943  37.184   8.358
  225POPC   C3B 6429  15.945  37.418   7.971
  225POPC   C4B 6430  15.838  37.392   7.525
  226POPC   NC3 6431  10.775   3.615   9.377
  226POPC   PO4 6432  11.439   3.602   9.567
  226POPC   GL1 6433  11.250   3.625   9.186
  226POPC   GL2 6434  11.395   3.337   9.081
  226POPC   C1A 6435  11.050   3.540   8.783
  226POPC   D2A 6436  11.186   3.740   8.458
  226POPC   C3A 6437  11.146   3.547   8.102
  226POPC   C4A 6438  11.168   3.531   7.693
  226POPC   C1B 6439  11.592   3.588   8.750
  226POPC   C2B 6440  11.658   3.632   8.281
  226POPC   C3B 6441  11.642   3.709   7.837
  226POPC   C4B 6442  11.654   3.418   7.454
  227POPC   NC3 6443   4.830  10.275   9.704
  227POPC   PO4 6444   5.131  10.862   9.587
  227POPC   GL1 6445   5.115  10.487   9.288
  227POPC   GL2 6446   4.833  10.241   9.192
  227POPC   C1A 6447   5.070  10.534   8.827
  227POPC   D2A 6448   5.036  10.350   8.420
  227POPC   C3A 6449   5.051  10.590   8.063
  227POPC   C4A 6450   5.060  10.474   7.587
  227POPC   C1B 6451   4.650  10.152   8.768
  227POPC   C2B 6452   4.629  10.050   8.317
  227POPC   C3B 6453   4.557  10.395   8.024
  227POPC   C4B 6454   4.693  10.796   7.781
  228POPC   NC3 6455  13.719   5.640   9.526
  228POPC   PO4 6456  13.249   6.198   9.441
  228POPC   GL1 6457  13.436   5.862   9.147
  228POPC   GL2 6458  13.770   5.664   9.037
  228POPC   C1A 6459  13.340   5.647   8.768
  228POPC   D2A 6460  13.582   5.511   8.436
  228POPC   C3A 6461  13.430   5.773   8.133
  228POPC   C4A 6462  13.292   5.771   7.726
  228POPC   C1B 6463  13.828   6.029   8.801
  228POPC   C2B 6464  13.826   6.045   8.375
  228POPC   C3B 6465  13.962   5.736   8.117
  228POPC   C4B 6466  13.818   5.627   7.738
  229POPC   NC3 6467  22.508  20.860   9.621
  229POPC   PO4 6468  22.083  20.416   9.409
  229POPC   GL1 6469  22.167  20.526   9.046
  229POPC   GL2 6470  22.338  20.807   9.086
  229POPC   C1A 6471  21.868  20.613   8.746
  229POPC   D2A 6472  21.832  20.413   8.385
  229POPC   C3A 6473  21.729  20.599   8.002
  229POPC   C4A 6474  21.903  20.737   7.619
  229POPC   C1B 6475  22.320  20.750   8.609
  229POPC   C2B 6476  22.227  20.670   8.161
  229POPC   C3B 6477  22.399  20.786   7.740
  229POPC   C4B 6478  22.570  20.579   7.363
  230POPC   NC3 6479  36.567   8.840   9.743
  230POPC   PO4 6480  36.827   9.343   9.492
  230POPC   GL1 6481  36.789   9.049   9.139
  230POPC   GL2 6482  37.044   8.765   9.110
  230POPC   C1A 6483  36.718   8.854   8.710
  230POPC   D2A 6484  36.721   8.561   8.331
  230POPC   C3A 6485  36.656   8.817   7.970
  230POPC   C4A 6486  36.935   9.140   7.855
  230POPC   C1B 6487  37.357   8.533   8.843
  230POPC   C2B 6488  37.511   8.578   8.407
  230POPC   C3B 6489  37.271   8.804   8.097
  230POPC   C4B 6490  37.420   8.994   7.730
  231POPC   NC3 6491  26.551   7.323   9.341
  231POPC   PO4 6492  27.196   7.473   9.530
  231POPC   GL1 6493  27.054   7.560   9.180
  231POPC   GL2 6494  26.774   7.782   9.234
  231POPC   C1A 6495  26.935   7.558   8.797
  231POPC   D2A 6496  26.716   7.413   8.459
  231POPC   C3A 6497  26.862   7.495   8.050
  231POPC   C4A 6498  27.029   7.385   7.636
  231POPC   C1B 6499  26.492   7.784   8.861
  231POPC   C2B 6500  26.512   7.860   8.435
  231POPC   C3B 6501  26.439   7.779   7.987
  231POPC   C4B 6502  26.559   7.565   7.596
  232POPC   NC3 6503   0.282  23.528   9.565
  232POPC   PO4 6504   0.871  23.738   9.420
  232POPC   GL1 6505   0.483  23.840   9.146
  232POPC   GL2 6506   0.268  23.527   9.075
  232POPC   C1A 6507   0.465  24.077   8.721
  232POPC   D2A 6508   0.556  23.869   8.301
  232POPC   C3A 6509   0.434  23.946   7.894
  232POPC   C4A 6510   0.035  23.775   7.733
  232POPC   C1B 6511   0.393  23.577   8.692
  232POPC   C2B 6512   0.628  23.374   8.399
  232POPC   C3B 6513   0.444  23.426   8.030
  232POPC   C4B 6514   0.669  23.168   7.756
  233POPC   NC3 6515   6.708   0.055   9.454
  233POPC   PO4 6516   6.224   0.551   9.542
  233POPC   GL1 6517   6.423   0.535   9.127
  233POPC   GL2 6518   6.763   0.525   9.100
  233POPC   C1A 6519   6.458   0.479   8.683
  233POPC   D2A 6520   6.429   0.735   8.311
  233POPC   C3A 6521   6.584   0.469   7.982
  233POPC   C4A 6522   6.535   0.225   7.605
  233POPC   C1B 6523   6.965   0.307   8.760
  233POPC   C2B 6524   6.930   0.233   8.321
  233POPC   C3B 6525   6.889   0.036   7.916
  233POPC   C4B 6526   6.953  44.968   7.444
  234POPC   NC3 6527  31.773  29.718   9.454
  234POPC   PO4 6528  31.343  30.228   9.479
  234POPC   GL1 6529  31.437  29.996   9.134
  234POPC   GL2 6530  31.762  30.142   9.133
  234POPC   C1A 6531  31.257  29.823   8.724
  234POPC   D2A 6532  31.465  29.603   8.355
  234POPC   C3A 6533  31.578  29.754   7.976
  234POPC   C4A 6534  31.239  29.942   7.852
  234POPC   C1B 6535  31.757  29.893   8.760
  234POPC   C2B 6536  31.782  30.052   8.337
  234POPC   C3B 6537  31.746  30.227   7.912
  234POPC   C4B 6538  31.578  30.071   7.501
  235POPC   NC3 6539   2.010  26.258   9.580
  235POPC   PO4 6540   2.006  26.878   9.585
  235POPC   GL1 6541   1.992  26.855   9.166
  235POPC   GL2 6542   1.910  26.503   9.109
  235POPC   C1A 6543   2.114  26.804   8.746
  235POPC   D2A 6544   2.018  26.439   8.473
  235POPC   C3A 6545   2.064  26.559   8.041
  235POPC   C4A 6546   1.905  26.891   7.742
  235POPC   C1B 6547   1.611  26.692   8.817
  235POPC   C2B 6548   1.716  26.942   8.455
  235POPC   C3B 6549   1.590  26.760   8.095
  235POPC   C4B 6550   1.396  26.747   7.695
  236POPC   NC3 6551  38.771  40.133   9.753
  236POPC   PO4 6552  38.399  39.576   9.570
  236POPC   GL1 6553  38.332  39.803   9.202
  236POPC   GL2 6554  38.507  40.146   9.191
  236POPC   C1A 6555  38.498  39.720   8.789
  236POPC   D2A 6556  38.810  39.782   8.453
  236POPC   C3A 6557  38.661  39.933   8.057
  236POPC   C4A 6558  38.648  39.856   7.600
  236POPC   C1B 6559  38.592  40.223   8.718
  236POPC   C2B 6560  38.312  40.271   8.333
  236POPC   C3B 6561  38.270  40.246   7.859
  236POPC   C4B 6562  38.358  40.250   7.385
  237POPC   NC3 6563  32.694  41.426   9.477
  237POPC   PO4 6564  32.908  42.110   9.612
  237POPC   GL1 6565  32.854  41.875   9.246
  237POPC   GL2 6566  33.148  41.622   9.176
  237POPC   C1A 6567  32.764  41.696   8.850
  237POPC   D2A 6568  32.977  41.439   8.569
  237POPC   C3A 6569  32.823  41.587   8.190
  237POPC   C4A 6570  32.761  41.624   7.735
  237POPC   C1B 6571  33.432  41.534   8.797
  237POPC   C2B 6572  33.451  41.419   8.316
  237POPC   C3B 6573  33.216  41.436   7.909
  237POPC   C4B 6574  33.238  41.614   7.496
  238POPC   NC3 6575  40.077  35.780   9.450
  238POPC   PO4 6576  39.953  36.355   9.489
  238POPC   GL1 6577  39.912  36.117   9.122
  238POPC   GL2 6578  39.693  36.316   8.985
  238POPC   C1A 6579  39.916  35.820   8.759
  238POPC   D2A 6580  39.984  35.865   8.304
  238POPC   C3A 6581  39.786  35.733   7.915
  238POPC   C4A 6582  39.976  35.685   7.474
  238POPC   C1B 6583  40.026  36.390   8.713
  238POPC   C2B 6584  40.072  36.354   8.328
  238POPC   C3B 6585  40.046  36.433   7.953
  238POPC   C4B 6586  40.025  36.150   7.674
  239POPC   NC3 6587  25.353  29.025   9.426
  239POPC   PO4 6588  25.199  29.661   9.418
  239POPC   GL1 6589  24.986  29.377   9.123
  239POPC   GL2 6590  24.914  29.019   9.170
  239POPC   C1A 6591  25.186  29.206   8.751
  239POPC   D2A 6592  25.300  29.443   8.381
  239POPC   C3A 6593  25.278  29.229   7.989
  239POPC   C4A 6594  25.102  29.455   7.603
  239POPC   C1B 6595  25.000  28.709   8.829
  239POPC   C2B 6596  25.248  28.728   8.457
  239POPC   C3B 6597  25.118  28.729   8.029
  239POPC   C4B 6598  24.993  28.964   7.659
  240POPC   NC3 6599  10.045  22.664   9.457
  240POPC   PO4 6600   9.434  22.972   9.352
  240POPC   GL1 6601   9.726  22.949   9.084
  240POPC   GL2 6602   9.876  23.290   9.071
  240POPC   C1A 6603   9.570  22.816   8.664
  240POPC   D2A 6604   9.404  22.935   8.241
  240POPC   C3A 6605   9.541  22.654   7.899
  240POPC   C4A 6606   9.514  22.655   7.443
  240POPC   C1B 6607   9.944  23.150   8.681
  240POPC   C2B 6608   9.935  22.962   8.285
  240POPC   C3B 6609   9.815  23.147   7.903
  240POPC   C4B 6610  10.037  23.321   7.534
  241POPC   NC3 6611  33.212  22.495   9.493
  241POPC   PO4 6612  32.987  21.804   9.544
  241POPC   GL1 6613  33.237  22.010   9.249
  241POPC   GL2 6614  32.993  22.181   9.132
  241POPC   C1A 6615  33.385  22.093   8.806
  241POPC   D2A 6616  33.081  22.244   8.474
  241POPC   C3A 6617  33.000  22.062   8.073
  241POPC   C4A 6618  33.201  22.126   7.683
  241POPC   C1B 6619  32.704  22.268   8.839
  241POPC   C2B 6620  32.580  22.301   8.453
  241POPC   C3B 6621  32.743  22.516   8.129
  241POPC   C4B 6622  32.756  22.381   7.709
  242POPC   NC3 6623   0.124  12.822   9.783
  242POPC   PO4 6624   0.568  13.092   9.299
  242POPC   GL1 6625   0.243  13.020   9.047
  242POPC   GL2 6626   0.242  12.699   9.052
  242POPC   C1A 6627   0.233  13.044   8.616
  242POPC   D2A 6628   0.315  13.288   8.265
  242POPC   C3A 6629   0.105  13.077   7.907
  242POPC   C4A 6630   0.415  12.802   7.803
  242POPC   C1B 6631   0.117  12.557   8.652
  242POPC   C2B 6632   0.146  12.661   8.247
  242POPC   C3B 6633   0.054  12.431   7.909
  242POPC   C4B 6634  44.990  12.633   7.538
  243POPC   NC3 6635   4.661   9.554   9.506
  243POPC   PO4 6636   5.158   9.958   9.634
  243POPC   GL1 6637   5.201   9.845   9.192
  243POPC   GL2 6638   4.870   9.729   9.063
  243POPC   C1A 6639   5.395   9.697   8.804
  243POPC   D2A 6640   5.214   9.873   8.444
  243POPC   C3A 6641   5.344   9.955   8.050
  243POPC   C4A 6642   4.967  10.107   7.918
  243POPC   C1B 6643   4.958   9.406   8.757
  243POPC   C2B 6644   5.156   9.379   8.396
  243POPC   C3B 6645   4.952   9.607   8.068
  243POPC   C4B 6646   4.751   9.455   7.715
  244POPC   NC3 6647   7.639   1.418   9.739
  244POPC   PO4 6648   8.123   0.937   9.532
  244POPC   GL1 6649   8.296   1.037   9.107
  244POPC   GL2 6650   8.403   1.424   9.111
  244POPC   C1A 6651   8.216   0.965   8.670
  244POPC   D2A 6652   8.381   1.113   8.270
  244POPC   C3A 6653   8.147   1.057   7.885
  244POPC   C4A 6654   7.951   0.994   7.479
  244POPC   C1B 6655   8.476   1.730   8.774
  244POPC   C2B 6656   8.608   1.589   8.344
  244POPC   C3B 6657   8.428   1.524   7.928
  244POPC   C4B 6658   8.290   1.418   7.512
  245POPC   NC3 6659  31.554  34.404   9.576
  245POPC   PO4 6660  31.887  34.877   9.261
  245POPC   GL1 6661  31.636  34.457   9.079
  245POPC   GL2 6662  31.465  34.112   9.154
  245POPC   C1A 6663  31.446  34.335   8.694
  245POPC   D2A 6664  31.133  34.539   8.499
  245POPC   C3A 6665  31.380  34.597   8.163
  245POPC   C4A 6666  31.575  34.755   7.809
  245POPC   C1B 6667  31.045  34.100   8.888
  245POPC   C2B 6668  30.829  34.137   8.499
  245POPC   C3B 6669  30.901  34.300   8.097
  245POPC   C4B 6670  31.119  34.450   7.752
  246POPC   NC3 6671  42.991  25.002   9.519
  246POPC   PO4 6672  43.234  25.640   9.347
  246POPC   GL1 6673  43.098  25.353   9.065
  246POPC   GL2 6674  43.376  25.170   9.021
  246POPC   C1A 6675  43.049  25.412   8.622
  246POPC   D2A 6676  42.798  25.531   8.288
  246POPC   C3A 6677  42.971  25.382   7.928
  246POPC   C4A 6678  43.392  25.345   7.846
  246POPC   C1B 6679  43.255  24.951   8.643
  246POPC   C2B 6680  43.215  25.036   8.214
  246POPC   C3B 6681  43.135  24.894   7.773
  246POPC   C4B 6682  43.143  24.779   7.284
  247POPC   NC3 6683  18.635  43.347   9.304
  247POPC   PO4 6684  18.021  43.360   9.566
  247POPC   GL1 6685  18.161  43.171   9.195
  247POPC   GL2 6686  18.230  42.835   9.225
  247POPC   C1A 6687  18.115  43.057   8.771
  247POPC   D2A 6688  18.326  43.152   8.401
  247POPC   C3A 6689  18.142  43.190   8.037
  247POPC   C4A 6690  18.078  42.910   7.682
  247POPC   C1B 6691  18.428  42.674   8.835
  247POPC   C2B 6692  18.569  42.703   8.427
  247POPC   C3B 6693  18.384  42.722   8.056
  247POPC   C4B 6694  18.417  42.558   7.678
  248POPC   NC3 6695  43.695  33.100   9.572
  248POPC   PO4 6696  44.315  32.969   9.346
  248POPC   GL1 6697  43.911  32.954   9.119
  248POPC   GL2 6698  43.682  33.249   9.087
  248POPC   C1A 6699  43.818  32.975   8.677
  248POPC   D2A 6700  44.001  33.238   8.373
  248POPC   C3A 6701  43.889  33.206   7.941
  248POPC   C4A 6702  44.152  33.233   7.588
  248POPC   C1B 6703  43.491  33.363   8.693
  248POPC   C2B 6704  43.500  33.363   8.257
  248POPC   C3B 6705  43.418  33.364   7.823
  248POPC   C4B 6706  43.673  33.382   7.481
  249POPC   NC3 6707  41.597  32.561   9.475
  249POPC   PO4 6708  41.639  33.202   9.490
  249POPC   GL1 6709  41.639  32.944   9.121
  249POPC   GL2 6710  41.926  32.703   9.117
  249POPC   C1A 6711  41.426  32.855   8.725
  249POPC   D2A 6712  41.614  32.936   8.301
  249POPC   C3A 6713  41.426  32.884   7.904
  249POPC   C4A 6714  41.413  33.079   7.516
  249POPC   C1B 6715  41.937  32.892   8.703
  249POPC   C2B 6716  42.111  32.776   8.307
  249POPC   C3B 6717  41.969  32.764   7.866
  249POPC   C4B 6718  41.852  32.828   7.418
  250POPC   NC3 6719  25.299  22.221   9.628
  250POPC   PO4 6720  24.786  21.772   9.567
  250POPC   GL1 6721  24.956  22.091   9.266
  250POPC   GL2 6722  25.306  22.012   9.169
  250POPC   C1A 6723  24.985  22.260   8.836
  250POPC   D2A 6724  25.108  22.128   8.421
  250POPC   C3A 6725  25.013  22.298   8.075
  250POPC   C4A 6726  24.917  22.438   7.696
  250POPC   C1B 6727  25.478  22.046   8.769
  250POPC   C2B 6728  25.541  21.879   8.330
  250POPC   C3B 6729  25.475  22.115   7.946
  250POPC   C4B 6730  25.415  22.574   7.873
  251POPC   NC3 6731  19.168  10.520   9.554
  251POPC   PO4 6732  18.573  10.365   9.762
  251POPC   GL1 6733  18.745  10.308   9.312
  251POPC   GL2 6734  18.876  10.645   9.168
  251POPC   C1A 6735  18.875  10.235   8.854
  251POPC   D2A 6736  19.203  10.236   8.547
  251POPC   C3A 6737  19.002  10.174   8.160
  251POPC   C4A 6738  18.982  10.429   7.823
  251POPC   C1B 6739  19.137  10.676   8.813
  251POPC   C2B 6740  18.970  10.689   8.385
  251POPC   C3B 6741  19.208  10.821   8.041
  251POPC   C4B 6742  19.196  10.807   7.589
  252POPC   NC3 6743  37.437  25.422   9.698
  252POPC   PO4 6744  37.812  25.889   9.598
  252POPC   GL1 6745  37.605  25.963   9.206
  252POPC   GL2 6746  37.296  25.791   9.309
  252POPC   C1A 6747  37.623  26.146   8.764
  252POPC   D2A 6748  37.931  26.069   8.425
  252POPC   C3A 6749  37.859  25.900   8.036
  252POPC   C4A 6750  37.599  26.091   7.741
  252POPC   C1B 6751  37.388  25.684   8.862
  252POPC   C2B 6752  37.443  25.784   8.414
  252POPC   C3B 6753  37.410  25.644   7.991
  252POPC   C4B 6754  37.633  25.557   7.604
  253POPC   NC3 6755   4.238   0.010   9.436
  253POPC   PO4 6756   4.043  44.368   9.458
  253POPC   GL1 6757   4.037  44.411   9.030
  253POPC   GL2 6758   4.309  44.636   9.071
  253POPC   C1A 6759   4.189  44.528   8.603
  253POPC   D2A 6760   4.426  44.401   8.262
  253POPC   C3A 6761   4.142  44.484   7.925
  253POPC   C4A 6762   4.102  44.874   7.681
  253POPC   C1B 6763   4.466  44.933   8.803
  253POPC   C2B 6764   4.635  44.878   8.436
  253POPC   C3B 6765   4.478  44.860   8.040
  253POPC   C4B 6766   4.604   0.073   7.708
  254POPC   NC3 6767  19.610   8.084   9.458
  254POPC   PO4 6768  18.926   8.161   9.482
  254POPC   GL1 6769  19.188   8.174   9.137
  254POPC   GL2 6770  19.256   7.854   9.044
  254POPC   C1A 6771  19.080   8.159   8.692
  254POPC   D2A 6772  18.814   8.190   8.381
  254POPC   C3A 6773  19.073   8.236   8.039
  254POPC   C4A 6774  18.949   8.300   7.631
  254POPC   C1B 6775  19.428   7.776   8.662
  254POPC   C2B 6776  19.471   7.971   8.269
  254POPC   C3B 6777  19.225   7.731   7.987
  254POPC   C4B 6778  19.044   7.503   7.660
  255POPC   NC3 6779   1.521  42.460   9.558
  255POPC   PO4 6780   0.968  42.026   9.605
  255POPC   GL1 6781   1.023  42.201   9.168
  255POPC   GL2 6782   1.272  42.442   9.108
  255POPC   C1A 6783   1.124  42.194   8.702
  255POPC   D2A 6784   1.310  42.358   8.371
  255POPC   C3A 6785   1.103  42.170   8.050
  255POPC   C4A 6786   1.012  42.268   7.645
  255POPC   C1B 6787   1.564  42.097   8.932
  255POPC   C2B 6788   1.710  41.984   8.511
  255POPC   C3B 6789   1.631  42.091   8.066
  255POPC   C4B 6790   1.460  42.475   7.859
  256POPC   NC3 6791  26.402  36.506   9.338
  256POPC   PO4 6792  25.994  36.951   9.732
  256POPC   GL1 6793  25.957  36.854   9.263
  256POPC   GL2 6794  25.891  36.488   9.232
  256POPC   C1A 6795  25.976  36.974   8.802
  256POPC   D2A 6796  25.849  37.152   8.386
  256POPC   C3A 6797  25.894  36.899   7.973
  256POPC   C4A 6798  25.860  36.999   7.507
  256POPC   C1B 6799  26.050  36.458   8.787
  256POPC   C2B 6800  26.264  36.470   8.387
  256POPC   C3B 6801  26.341  36.558   7.944
  256POPC   C4B 6802  26.134  36.587   7.566
  257POPC   NC3 6803  21.633  38.713   9.280
  257POPC   PO4 6804  21.338  39.163   9.767
  257POPC   GL1 6805  21.356  39.266   9.320
  257POPC   GL2 6806  21.109  39.536   9.298
  257POPC   C1A 6807  21.548  39.250   8.899
  257POPC   D2A 6808  21.487  39.302   8.448
  257POPC   C3A 6809  21.662  39.128   8.074
  257POPC   C4A 6810  21.535  39.070   7.609
  257POPC   C1B 6811  21.106  39.533   8.832
  257POPC   C2B 6812  20.977  39.270   8.459
  257POPC   C3B 6813  21.159  39.070   8.087
  257POPC   C4B 6814  21.052  39.195   7.710
  258POPC   NC3 6815  44.355  27.788   9.294
  258POPC   PO4 6816  43.755  27.620   9.539
  258POPC   GL1 6817  43.625  27.535   9.115
  258POPC   GL2 6818  43.983  27.549   9.041
  258POPC   C1A 6819  43.605  27.637   8.719
  258POPC   D2A 6820  43.921  27.578   8.438
  258POPC   C3A 6821  43.765  27.724   8.081
  258POPC   C4A 6822  43.780  27.547   7.677
  258POPC   C1B 6823  44.292  27.354   8.774
  258POPC   C2B 6824  44.428  27.439   8.373
  258POPC   C3B 6825  44.190  27.418   7.983
  258POPC   C4B 6826  44.257  27.441   7.514
  259POPC   NC3 6827  36.200  21.613   9.574
  259POPC   PO4 6828  35.836  21.019   9.606
  259POPC   GL1 6829  35.909  21.149   9.173
  259POPC   GL2 6830  35.968  21.517   9.144
  259POPC   C1A 6831  35.825  21.290   8.732
  259POPC   D2A 6832  36.041  21.538   8.440
  259POPC   C3A 6833  35.955  21.315   8.108
  259POPC   C4A 6834  35.911  21.484   7.737
  259POPC   C1B 6835  36.318  21.405   8.854
  259POPC   C2B 6836  36.554  21.574   8.453
  259POPC   C3B 6837  36.431  21.473   8.036
  259POPC   C4B 6838  36.419  21.533   7.603
  260POPC   NC3 6839  27.503   8.597   9.553
  260POPC   PO4 6840  27.938   9.127   9.354
  260POPC   GL1 6841  27.695   8.861   9.118
  260POPC   GL2 6842  27.496   9.082   8.993
  260POPC   C1A 6843  27.848   8.732   8.742
  260POPC   D2A 6844  27.784   8.819   8.350
  260POPC   C3A 6845  27.400   8.626   8.195
  260POPC   C4A 6846  27.292   8.601   7.746
  260POPC   C1B 6847  27.355   8.896   8.647
  260POPC   C2B 6848  27.407   9.136   8.265
  260POPC   C3B 6849  27.616   8.980   7.893
  260POPC   C4B 6850  27.850   8.840   7.580
  261POPC   NC3 6851  35.991   7.611   9.470
  261POPC   PO4 6852  36.388   7.123   9.494
  261POPC   GL1 6853  36.272   7.324   9.143
  261POPC   GL2 6854  35.921   7.224   9.136
  261POPC   C1A 6855  36.304   7.498   8.760
  261POPC   D2A 6856  36.478   7.537   8.378
  261POPC   C3A 6857  36.307   7.451   8.009
  261POPC   C4A 6858  36.019   7.633   7.725
  261POPC   C1B 6859  35.999   7.086   8.721
  261POPC   C2B 6860  35.905   7.326   8.358
  261POPC   C3B 6861  35.858   7.197   7.937
  261POPC   C4B 6862  36.156   7.170   7.605
  262POPC   NC3 6863  29.216  35.915   9.523
  262POPC   PO4 6864  28.918  36.492   9.800
  262POPC   GL1 6865  29.047  36.356   9.305
  262POPC   GL2 6866  28.856  36.004   9.190
  262POPC   C1A 6867  29.293  36.340   8.870
  262POPC   D2A 6868  29.097  36.387   8.448
  262POPC   C3A 6869  29.325  36.353   8.066
  262POPC   C4A 6870  29.221  36.263   7.615
  262POPC   C1B 6871  28.928  36.019   8.766
  262POPC   C2B 6872  28.815  35.889   8.382
  262POPC   C3B 6873  28.926  36.026   7.976
  262POPC   C4B 6874  28.708  35.953   7.589
  263POPC   NC3 6875  13.801  42.924   9.605
  263POPC   PO4 6876  14.136  43.429   9.376
  263POPC   GL1 6877  13.796  43.172   9.184
  263POPC   GL2 6878  13.439  43.132   9.275
  263POPC   C1A 6879  13.795  42.907   8.854
  263POPC   D2A 6880  13.630  42.932   8.458
  263POPC   C3A 6881  13.847  43.159   8.148
  263POPC   C4A 6882  13.681  42.940   7.809
  263POPC   C1B 6883  13.309  43.137   8.832
  263POPC   C2B 6884  13.365  43.382   8.434
  263POPC   C3B 6885  13.343  43.285   7.999
  263POPC   C4B 6886  13.243  43.404   7.586
  264POPC   NC3 6887  35.966  10.152   9.383
  264POPC   PO4 6888  36.344   9.693   9.738
  264POPC   GL1 6889  36.299   9.726   9.261
  264POPC   GL2 6890  35.934   9.695   9.149
  264POPC   C1A 6891  36.316   9.845   8.816
  264POPC   D2A 6892  36.314   9.662   8.406
  264POPC   C3A 6893  36.196   9.828   8.014
  264POPC   C4A 6894  36.269   9.795   7.586
  264POPC   C1B 6895  35.780   9.883   8.760
  264POPC   C2B 6896  35.907  10.067   8.367
  264POPC   C3B 6897  35.722  10.014   7.952
  264POPC   C4B 6898  35.788   9.619   7.718
  265POPC   NC3 6899  26.438  38.823   9.524
  265POPC   PO4 6900  26.809  39.364   9.422
  265POPC   GL1 6901  26.630  39.270   9.058
  265POPC   GL2 6902  26.659  38.926   9.077
  265POPC   C1A 6903  26.836  39.282   8.660
  265POPC   D2A 6904  26.937  39.485   8.273
  265POPC   C3A 6905  26.885  39.253   7.876
  265POPC   C4A 6906  26.786  39.417   7.422
  265POPC   C1B 6907  26.856  38.753   8.721
  265POPC   C2B 6908  26.729  38.618   8.320
  265POPC   C3B 6909  26.901  38.714   7.933
  265POPC   C4B 6910  26.722  38.882   7.584
  266POPC   NC3 6911   0.395  14.693   9.547
  266POPC   PO4 6912   0.617  14.083   9.429
  266POPC   GL1 6913   0.530  14.401   9.128
  266POPC   GL2 6914   0.277  14.641   9.064
  266POPC   C1A 6915   0.649  14.483   8.690
  266POPC   D2A 6916   0.778  14.262   8.297
  266POPC   C3A 6917   0.598  14.288   7.900
  266POPC   C4A 6918   0.340  13.939   7.725
  266POPC   C1B 6919   0.157  14.314   8.776
  266POPC   C2B 6920   0.226  14.247   8.343
  266POPC   C3B 6921   0.080  14.375   7.950
  266POPC   C4B 6922   0.320  14.754   7.803
  267POPC   NC3 6923  23.522  19.059   9.686
  267POPC   PO4 6924  22.833  19.115   9.594
  267POPC   GL1 6925  23.104  19.151   9.229
  267POPC   GL2 6926  23.194  18.849   9.015
  267POPC   C1A 6927  23.127  19.286   8.771
  267POPC   D2A 6928  23.223  19.077   8.380
  267POPC   C3A 6929  23.142  19.239   7.966
  267POPC   C4A 6930  23.133  19.298   7.516
  267POPC   C1B 6931  22.755  18.950   8.860
  267POPC   C2B 6932  22.636  19.251   8.542
  267POPC   C3B 6933  22.634  19.319   8.099
  267POPC   C4B 6934  22.722  19.079   7.742
  268POPC   NC3 6935   6.237   3.368   9.426
  268POPC   PO4 6936   5.706   3.776   9.511
  268POPC   GL1 6937   5.917   3.659   9.143
  268POPC   GL2 6938   5.760   3.368   9.100
  268POPC   C1A 6939   6.068   3.547   8.704
  268POPC   D2A 6940   6.194   3.690   8.312
  268POPC   C3A 6941   6.143   3.399   8.012
  268POPC   C4A 6942   5.934   3.627   7.723
  268POPC   C1B 6943   5.591   3.684   8.768
  268POPC   C2B 6944   5.672   3.740   8.331
  268POPC   C3B 6945   5.530   3.462   8.002
  268POPC   C4B 6946   5.537   3.336   7.585
  269POPC   NC3 6947  24.549  37.708   9.639
  269POPC   PO4 6948  24.108  37.383   9.290
  269POPC   GL1 6949  24.530  37.553   9.163
  269POPC   GL2 6950  24.657  37.927   9.197
  269POPC   C1A 6951  24.793  37.578   8.835
  269POPC   D2A 6952  24.571  37.598   8.454
  269POPC   C3A 6953  24.827  37.555   8.099
  269POPC   C4A 6954  24.721  37.460   7.706
  269POPC   C1B 6955  24.488  38.018   8.810
  269POPC   C2B 6956  24.295  38.055   8.439
  269POPC   C3B 6957  24.437  37.944   8.069
  269POPC   C4B 6958  24.402  38.171   7.727
  270POPC   NC3 6959   6.593  41.846   9.501
  270POPC   PO4 6960   6.916  42.482   9.510
  270POPC   GL1 6961   6.771  42.248   9.175
  270POPC   GL2 6962   6.984  41.929   9.164
  270POPC   C1A 6963   6.593  42.388   8.760
  270POPC   D2A 6964   6.473  42.195   8.352
  270POPC   C3A 6965   6.525  42.401   7.965
  270POPC   C4A 6966   6.812  42.651   7.736
  270POPC   C1B 6967   7.030  42.128   8.759
  270POPC   C2B 6968   7.189  42.415   8.499
  270POPC   C3B 6969   6.996  42.301   8.142
  270POPC   C4B 6970   6.933  42.146   7.746
  271POPC   NC3 6971  39.710  20.372   9.709
  271POPC   PO4 6972  39.873  21.029   9.566
  271POPC   GL1 6973  39.859  20.661   9.274
  271POPC   GL2 6974  40.133  20.395   9.224
  271POPC   C1A 6975  40.005  20.696   8.844
  271POPC   D2A 6976  40.146  20.711   8.426
  271POPC   C3A 6977  39.881  20.878   8.154
  271POPC   C4A 6978  40.034  20.897   7.765
  271POPC   C1B 6979  40.312  20.268   8.795
  271POPC   C2B 6980  40.368  20.268   8.299
  271POPC   C3B 6981  40.105  20.386   7.887
  271POPC   C4B 6982  40.109  20.223   7.392
  272POPC   NC3 6983  12.430  32.218   9.534
  272POPC   PO4 6984  11.792  32.471   9.620
  272POPC   GL1 6985  11.998  32.248   9.253
  272POPC   GL2 6986  11.966  31.866   9.254
  272POPC   C1A 6987  12.260  32.335   8.877
  272POPC   D2A 6988  12.262  32.517   8.453
  272POPC   C3A 6989  12.047  32.354   8.117
  272POPC   C4A 6990  12.185  32.278   7.721
  272POPC   C1B 6991  12.186  31.806   8.839
  272POPC   C2B 6992  12.332  31.984   8.448
  272POPC   C3B 6993  12.205  31.861   8.046
  272POPC   C4B 6994  11.878  31.871   7.725
  273POPC   NC3 6995  35.246  12.152   9.406
  273POPC   PO4 6996  35.768  11.754   9.401
  273POPC   GL1 6997  35.629  12.048   9.088
  273POPC   GL2 6998  35.571  12.432   9.077
  273POPC   C1A 6999  35.443  12.063   8.715
  273POPC   D2A 7000  35.577  11.972   8.332
  273POPC   C3A 7001  35.404  12.037   7.966
  273POPC   C4A 7002  35.023  11.968   7.770
  273POPC   C1B 7003  35.225  12.513   8.752
  273POPC   C2B 7004  35.322  12.441   8.311
  273POPC   C3B 7005  35.186  12.479   7.876
  273POPC   C4B 7006  35.319  12.718   7.515
  274POPC   NC3 7007  30.682  12.910   9.536
  274POPC   PO4 7008  31.145  13.280   9.280
  274POPC   GL1 7009  30.862  12.952   9.051
  274POPC   GL2 7010  30.457  12.942   9.090
  274POPC   C1A 7011  30.707  12.989   8.626
  274POPC   D2A 7012  30.654  13.120   8.205
  274POPC   C3A 7013  30.929  12.961   7.932
  274POPC   C4A 7014  30.933  12.681   7.605
  274POPC   C1B 7015  30.426  12.616   8.832
  274POPC   C2B 7016  30.547  12.508   8.392
  274POPC   C3B 7017  30.504  12.613   7.947
  274POPC   C4B 7018  30.129  12.600   7.683
  275POPC   NC3 7019  23.366   6.517   9.577
  275POPC   PO4 7020  22.661   6.448   9.526
  275POPC   GL1 7021  22.898   6.494   9.154
  275POPC   GL2 7022  23.272   6.446   9.090
  275POPC   C1A 7023  22.876   6.772   8.783
  275POPC   D2A 7024  23.135   6.836   8.430
  275POPC   C3A 7025  23.004   6.767   8.022
  275POPC   C4A 7026  23.141   6.966   7.626
  275POPC   C1B 7027  23.106   6.325   8.706
  275POPC   C2B 7028  23.235   6.351   8.298
  275POPC   C3B 7029  23.372   6.469   7.878
  275POPC   C4B 7030  23.412   6.446   7.429
  276POPC   NC3 7031   9.402  13.612   9.775
  276POPC   PO4 7032   8.843  13.781   9.424
  276POPC   GL1 7033   8.885  13.922   9.027
  276POPC   GL2 7034   9.220  14.168   9.067
  276POPC   C1A 7035   8.909  13.643   8.685
  276POPC   D2A 7036   8.689  13.458   8.366
  276POPC   C3A 7037   8.851  13.631   7.984
  276POPC   C4A 7038   9.100  13.307   7.841
  276POPC   C1B 7039   9.269  14.021   8.651
  276POPC   C2B 7040   9.015  13.994   8.312
  276POPC   C3B 7041   9.148  14.092   7.896
  276POPC   C4B 7042   9.096  13.874   7.511
  277POPC   NC3 7043  38.720  12.003   9.621
  277POPC   PO4 7044  37.992  12.168   9.611
  277POPC   GL1 7045  38.304  12.047   9.286
  277POPC   GL2 7046  38.555  12.284   9.223
  277POPC   C1A 7047  38.563  11.900   8.903
  277POPC   D2A 7048  38.500  12.051   8.457
  277POPC   C3A 7049  38.685  12.235   8.070
  277POPC   C4A 7050  38.538  11.941   7.770
  277POPC   C1B 7051  38.297  12.330   8.851
  277POPC   C2B 7052  38.043  12.292   8.466
  277POPC   C3B 7053  38.180  12.207   8.052
  277POPC   C4B 7054  38.142  12.458   7.702
  278POPC   NC3 7055   2.820  17.210   9.416
  278POPC   PO4 7056   3.081  17.851   9.514
  278POPC   GL1 7057   2.955  17.644   9.115
  278POPC   GL2 7058   2.992  17.263   8.950
  278POPC   C1A 7059   2.725  17.672   8.730
  278POPC   D2A 7060   2.798  17.464   8.345
  278POPC   C3A 7061   2.779  17.749   7.996
  278POPC   C4A 7062   3.042  17.756   7.628
  278POPC   C1B 7063   2.591  17.172   8.762
  278POPC   C2B 7064   2.364  17.172   8.394
  278POPC   C3B 7065   2.480  17.305   7.970
  278POPC   C4B 7066   2.815  17.290   7.733
  279POPC   NC3 7067  39.652  39.807   9.507
  279POPC   PO4 7068  40.076  40.388   9.513
  279POPC   GL1 7069  40.149  40.155   9.153
  279POPC   GL2 7070  40.397  39.852   9.139
  279POPC   C1A 7071  40.393  40.213   8.783
  279POPC   D2A 7072  40.328  39.941   8.436
  279POPC   C3A 7073  40.317  40.138   8.023
  279POPC   C4A 7074  40.116  40.175   7.635
  279POPC   C1B 7075  40.023  39.772   8.843
  279POPC   C2B 7076  39.891  39.613   8.453
  279POPC   C3B 7077  40.021  39.710   8.064
  279POPC   C4B 7078  39.985  39.531   7.694
  280POPC   NC3 7079  21.171  32.701   9.559
  280POPC   PO4 7080  21.670  33.166   9.492
  280POPC   GL1 7081  21.448  32.955   9.221
  280POPC   GL2 7082  21.659  32.694   9.168
  280POPC   C1A 7083  21.269  33.068   8.877
  280POPC   D2A 7084  21.487  33.107   8.504
  280POPC   C3A 7085  21.284  33.140   8.152
  280POPC   C4A 7086  21.413  33.142   7.786
  280POPC   C1B 7087  21.498  32.649   8.754
  280POPC   C2B 7088  21.286  32.614   8.380
  280POPC   C3B 7089  21.281  32.657   7.961
  280POPC   C4B 7090  20.998  32.887   7.712
  281POPC   NC3 7091   2.101   4.786   9.354
  281POPC   PO4 7092   1.721   5.390   9.446
  281POPC   GL1 7093   1.966   5.216   9.084
  281POPC   GL2 7094   2.340   5.136   9.054
  281POPC   C1A 7095   1.884   5.046   8.678
  281POPC   D2A 7096   1.937   5.175   8.246
  281POPC   C3A 7097   1.834   5.301   7.847
  281POPC   C4A 7098   1.819   5.105   7.457
  281POPC   C1B 7099   2.370   4.748   8.775
  281POPC   C2B 7100   2.173   4.721   8.370
  281POPC   C3B 7101   2.058   4.795   7.924
  281POPC   C4B 7102   2.399   4.708   7.660
  282POPC   NC3 7103  16.555  38.055   9.679
  282POPC   PO4 7104  17.027  37.519   9.523
  282POPC   GL1 7105  16.725  37.676   9.278
  282POPC   GL2 7106  16.917  37.875   9.032
  282POPC   C1A 7107  16.493  37.597   8.896
  282POPC   D2A 7108  16.443  37.561   8.449
  282POPC   C3A 7109  16.766  37.438   8.143
  282POPC   C4A 7110  16.675  37.633   7.765
  282POPC   C1B 7111  17.016  38.138   8.692
  282POPC   C2B 7112  17.048  37.850   8.341
  282POPC   C3B 7113  17.139  37.762   7.920
  282POPC   C4B 7114  17.084  37.758   7.444
  283POPC   NC3 7115  11.852   2.482   9.318
  283POPC   PO4 7116  12.203   3.077   9.471
  283POPC   GL1 7117  12.182   2.836   9.161
  283POPC   GL2 7118  12.517   2.862   9.135
  283POPC   C1A 7119  12.084   2.682   8.769
  283POPC   D2A 7120  11.871   2.510   8.438
  283POPC   C3A 7121  11.999   2.681   8.095
  283POPC   C4A 7122  12.122   2.619   7.715
  283POPC   C1B 7123  12.370   3.113   8.792
  283POPC   C2B 7124  12.297   2.963   8.402
  283POPC   C3B 7125  12.444   2.922   7.988
  283POPC   C4B 7126  12.640   3.181   7.725
  284POPC   NC3 7127  13.284  31.971   9.729
  284POPC   PO4 7128  13.805  32.370   9.517
  284POPC   GL1 7129  13.580  32.422   9.157
  284POPC   GL2 7130  13.391  32.137   9.244
  284POPC   C1A 7131  13.647  32.215   8.759
  284POPC   D2A 7132  13.517  31.899   8.454
  284POPC   C3A 7133  13.738  31.907   8.083
  284POPC   C4A 7134  13.715  32.223   7.807
  284POPC   C1B 7135  13.158  32.227   8.880
  284POPC   C2B 7136  13.229  32.423   8.508
  284POPC   C3B 7137  13.293  32.235   8.112
  284POPC   C4B 7138  12.986  32.058   7.846
  285POPC   NC3 7139  35.996  31.766   9.649
  285POPC   PO4 7140  36.245  32.477   9.567
  285POPC   GL1 7141  36.026  32.270   9.258
  285POPC   GL2 7142  36.205  32.016   9.125
  285POPC   C1A 7143  36.054  32.415   8.826
  285POPC   D2A 7144  35.887  32.263   8.437
  285POPC   C3A 7145  36.089  32.086   8.124
  285POPC   C4A 7146  36.102  32.264   7.736
  285POPC   C1B 7147  36.287  31.997   8.677
  285POPC   C2B 7148  36.441  32.323   8.421
  285POPC   C3B 7149  36.562  32.259   8.002
  285POPC   C4B 7150  36.489  31.815   7.872
  286POPC   NC3 7151   3.985  25.278   9.503
  286POPC   PO4 7152   4.561  24.973   9.579
  286POPC   GL1 7153   4.527  25.177   9.217
  286POPC   GL2 7154   4.549  24.865   9.078
  286POPC   C1A 7155   4.311  25.319   8.849
  286POPC   D2A 7156   4.093  25.529   8.536
  286POPC   C3A 7157   4.151  25.332   8.115
  286POPC   C4A 7158   4.266  25.325   7.655
  286POPC   C1B 7159   4.649  24.933   8.695
  286POPC   C2B 7160   4.381  24.943   8.394
  286POPC   C3B 7161   4.510  24.747   8.073
  286POPC   C4B 7162   4.565  24.898   7.686
  287POPC   NC3 7163  42.569   8.000   9.460
  287POPC   PO4 7164  42.161   8.542   9.460
  287POPC   GL1 7165  42.431   8.393   9.143
  287POPC   GL2 7166  42.270   8.046   9.071
  287POPC   C1A 7167  42.512   8.341   8.722
  287POPC   D2A 7168  42.626   8.327   8.308
  287POPC   C3A 7169  42.369   8.254   7.959
  287POPC   C4A 7170  42.332   8.526   7.627
  287POPC   C1B 7171  42.477   7.832   8.747
  287POPC   C2B 7172  42.294   7.936   8.359
  287POPC   C3B 7173  42.386   7.736   7.957
  287POPC   C4B 7174  42.577   7.748   7.558
  288POPC   NC3 7175  15.066  25.433   9.652
  288POPC   PO4 7176  14.480  25.258   9.508
  288POPC   GL1 7177  14.829  25.346   9.189
  288POPC   GL2 7178  15.183  25.256   9.194
  288POPC   C1A 7179  14.818  25.516   8.761
  288POPC   D2A 7180  14.895  25.338   8.371
  288POPC   C3A 7181  15.056  25.497   8.013
  288POPC   C4A 7182  14.990  25.094   7.824
  288POPC   C1B 7183  15.260  25.280   8.769
  288POPC   C2B 7184  15.417  25.433   8.409
  288POPC   C3B 7185  15.750  25.445   8.141
  288POPC   C4B 7186  15.495  25.389   7.763
  289POPC   NC3 7187  32.055   2.364   9.447
  289POPC   PO4 7188  32.574   1.827   9.517
  289POPC   GL1 7189  32.465   2.038   9.157
  289POPC   GL2 7190  32.150   1.896   9.143
  289POPC   C1A 7191  32.300   2.104   8.716
  289POPC   D2A 7192  32.359   2.208   8.298
  289POPC   C3A 7193  32.042   2.402   8.057
  289POPC   C4A 7194  32.102   2.256   7.668
  289POPC   C1B 7195  32.210   1.597   8.780
  289POPC   C2B 7196  32.396   1.683   8.378
  289POPC   C3B 7197  32.257   1.813   7.954
  289POPC   C4B 7198  32.492   1.697   7.569
  290POPC   NC3 7199   3.980   3.011   9.531
  290POPC   PO4 7200   4.494   2.547   9.549
  290POPC   GL1 7201   4.420   2.841   9.253
  290POPC   GL2 7202   4.120   2.691   9.160
  290POPC   C1A 7203   4.545   2.899   8.838
  290POPC   D2A 7204   4.543   2.665   8.445
  290POPC   C3A 7205   4.562   2.899   8.063
  290POPC   C4A 7206   4.373   2.929   7.648
  290POPC   C1B 7207   4.030   2.867   8.793
  290POPC   C2B 7208   3.983   2.671   8.387
  290POPC   C3B 7209   4.030   2.871   7.994
  290POPC   C4B 7210   3.889   2.903   7.540
  291POPC   NC3 7211  22.395  36.431   9.434
  291POPC   PO4 7212  21.680  36.502   9.496
  291POPC   GL1 7213  21.885  36.208   9.153
  291POPC   GL2 7214  22.168  35.998   9.205
  291POPC   C1A 7215  21.923  36.001   8.735
  291POPC   D2A 7216  21.856  36.216   8.374
  291POPC   C3A 7217  21.985  36.012   8.005
  291POPC   C4A 7218  22.234  36.244   7.753
  291POPC   C1B 7219  22.394  35.862   8.847
  291POPC   C2B 7220  22.380  36.022   8.418
  291POPC   C3B 7221  22.520  35.864   8.014
  291POPC   C4B 7222  22.278  35.576   7.777
  292POPC   NC3 7223  32.765  29.506   9.566
  292POPC   PO4 7224  32.177  29.862   9.628
  292POPC   GL1 7225  32.192  29.836   9.191
  292POPC   GL2 7226  32.504  29.739   9.203
  292POPC   C1A 7227  32.258  29.955   8.786
  292POPC   D2A 7228  32.371  30.169   8.407
  292POPC   C3A 7229  32.205  29.955   8.056
  292POPC   C4A 7230  32.023  29.882   7.669
  292POPC   C1B 7231  32.505  29.507   8.843
  292POPC   C2B 7232  32.494  29.666   8.454
  292POPC   C3B 7233  32.446  29.499   8.124
  292POPC   C4B 7234  32.455  29.593   7.758
  293POPC   NC3 7235  19.634  20.902   9.520
  293POPC   PO4 7236  20.091  20.452   9.547
  293POPC   GL1 7237  20.014  20.707   9.195
  293POPC   GL2 7238  19.716  20.489   9.167
  293POPC   C1A 7239  20.032  20.646   8.740
  293POPC   D2A 7240  19.887  20.471   8.360
  293POPC   C3A 7241  20.052  20.648   8.000
  293POPC   C4A 7242  19.904  20.571   7.583
  293POPC   C1B 7243  19.582  20.833   8.895
  293POPC   C2B 7244  19.604  20.892   8.442
  293POPC   C3B 7245  19.556  20.766   8.000
  293POPC   C4B 7246  19.559  20.968   7.575
  294POPC   NC3 7247  30.342  44.969   9.500
  294POPC   PO4 7248  30.305  44.316   9.802
  294POPC   GL1 7249  30.565  44.497   9.357
  294POPC   GL2 7250  30.776  44.827   9.243
  294POPC   C1A 7251  30.707  44.504   8.864
  294POPC   D2A 7252  30.534  44.651   8.430
  294POPC   C3A 7253  30.558  44.468   7.998
  294POPC   C4A 7254  30.779  44.564   7.585
  294POPC   C1B 7255  30.556   0.032   8.864
  294POPC   C2B 7256  30.635   0.159   8.434
  294POPC   C3B 7257  30.814  44.927   8.065
  294POPC   C4B 7258  30.912   0.065   7.659
  295POPC   NC3 7259  16.650   8.288   9.503
  295POPC   PO4 7260  17.107   7.774   9.406
  295POPC   GL1 7261  16.879   8.030   9.113
  295POPC   GL2 7262  16.609   8.302   9.008
  295POPC   C1A 7263  17.046   8.278   8.820
  295POPC   D2A 7264  16.781   8.405   8.491
  295POPC   C3A 7265  16.944   8.309   8.092
  295POPC   C4A 7266  16.870   8.229   7.672
  295POPC   C1B 7267  16.579   7.965   8.663
  295POPC   C2B 7268  16.576   7.973   8.228
  295POPC   C3B 7269  16.476   7.882   7.818
  295POPC   C4B 7270  16.378   8.142   7.473
  296POPC   NC3 7271  15.510  14.640   9.531
  296POPC   PO4 7272  15.526  14.030   9.462
  296POPC   GL1 7273  15.242  14.230   9.176
  296POPC   GL2 7274  15.053  14.584   9.225
  296POPC   C1A 7275  15.261  14.251   8.745
  296POPC   D2A 7276  14.948  14.314   8.459
  296POPC   C3A 7277  15.056  14.110   8.097
  296POPC   C4A 7278  15.200  14.113   7.714
  296POPC   C1B 7279  15.094  14.727   8.787
  296POPC   C2B 7280  15.427  14.657   8.456
  296POPC   C3B 7281  15.488  14.474   8.043
  296POPC   C4B 7282  15.133  14.619   7.826
  297POPC   NC3 7283  37.186  19.487   9.460
  297POPC   PO4 7284  36.744  18.899   9.575
  297POPC   GL1 7285  36.856  18.939   9.129
  297POPC   GL2 7286  37.081  18.631   9.106
  297POPC   C1A 7287  36.715  19.116   8.686
  297POPC   D2A 7288  37.003  19.203   8.342
  297POPC   C3A 7289  36.750  19.265   7.974
  297POPC   C4A 7290  36.953  19.223   7.593
  297POPC   C1B 7291  37.045  18.750   8.693
  297POPC   C2B 7292  36.805  18.730   8.339
  297POPC   C3B 7293  36.940  18.796   7.930
  297POPC   C4B 7294  36.653  18.782   7.626
  298POPC   NC3 7295  36.271  12.283   9.545
  298POPC   PO4 7296  36.555  11.681   9.701
  298POPC   GL1 7297  36.436  11.805   9.269
  298POPC   GL2 7298  36.427  12.156   9.086
  298POPC   C1A 7299  36.370  11.699   8.837
  298POPC   D2A 7300  36.439  11.892   8.425
  298POPC   C3A 7301  36.269  11.748   8.006
  298POPC   C4A 7302  35.991  11.943   7.713
  298POPC   C1B 7303  36.042  12.299   8.899
  298POPC   C2B 7304  35.798  12.394   8.528
  298POPC   C3B 7305  35.787  12.380   8.054
  298POPC   C4B 7306  35.659  12.331   7.613
  299POPC   NC3 7307  15.454  44.795   9.458
  299POPC   PO4 7308  14.875  44.401   9.619
  299POPC   GL1 7309  14.845  44.373   9.191
  299POPC   GL2 7310  15.161  44.513   9.141
  299POPC   C1A 7311  14.802  44.499   8.766
  299POPC   D2A 7312  14.939  44.646   8.369
  299POPC   C3A 7313  15.013  44.889   8.054
  299POPC   C4A 7314  15.060  44.673   7.682
  299POPC   C1B 7315  15.271  44.710   8.744
  299POPC   C2B 7316  15.434  44.931   8.367
  299POPC   C3B 7317  15.522  44.767   7.963
  299POPC   C4B 7318  15.530  44.571   7.552
  300POPC   NC3 7319  30.448  40.345   9.420
  300POPC   PO4 7320  30.885  39.797   9.411
  300POPC   GL1 7321  30.821  40.131   9.147
  300POPC   GL2 7322  30.497  40.019   9.014
  300POPC   C1A 7323  30.979  40.332   8.804
  300POPC   D2A 7324  31.010  40.078   8.444
  300POPC   C3A 7325  30.763  40.090   8.060
  300POPC   C4A 7326  30.377  39.962   7.926
  300POPC   C1B 7327  30.773  39.748   8.772
  300POPC   C2B 7328  30.781  39.631   8.356
  300POPC   C3B 7329  30.719  39.571   7.926
  300POPC   C4B 7330  30.623  39.740   7.507
  301POPC   NC3 7331   4.518  44.309   9.395
  301POPC   PO4 7332   4.411  43.610   9.511
  301POPC   GL1 7333   4.441  43.853   9.148
  301POPC   GL2 7334   4.087  43.903   9.165
  301POPC   C1A 7335   4.355  44.077   8.754
  301POPC   D2A 7336   4.085  44.024   8.374
  301POPC   C3A 7337   4.339  43.952   8.031
  301POPC   C4A 7338   4.536  44.221   7.761
  301POPC   C1B 7339   4.136  43.621   8.790
  301POPC   C2B 7340   4.219  43.517   8.334
  301POPC   C3B 7341   4.125  43.534   7.855
  301POPC   C4B 7342   4.297  43.785   7.516
  302POPC   NC3 7343  31.176   1.502   9.425
  302POPC   PO4 7344  31.822   1.905   9.540
  302POPC   GL1 7345  31.712   1.614   9.212
  302POPC   GL2 7346  31.408   1.669   9.006
  302POPC   C1A 7347  31.740   1.364   8.825
  302POPC   D2A 7348  31.508   1.429   8.440
  302POPC   C3A 7349  31.579   1.117   8.131
  302POPC   C4A 7350  31.656   1.132   7.684
  302POPC   C1B 7351  31.185   1.300   8.811
  302POPC   C2B 7352  31.125   1.090   8.434
  302POPC   C3B 7353  31.115   1.256   8.046
  302POPC   C4B 7354  31.317   1.500   7.739
  303POPC   NC3 7355  30.657   7.639   9.654
  303POPC   PO4 7356  31.041   7.145   9.384
  303POPC   GL1 7357  30.864   7.332   9.113
  303POPC   GL2 7358  30.572   7.428   9.193
  303POPC   C1A 7359  30.750   7.290   8.734
  303POPC   D2A 7360  30.814   7.553   8.419
  303POPC   C3A 7361  30.776   7.360   8.033
  303POPC   C4A 7362  30.879   7.617   7.704
  303POPC   C1B 7363  30.491   7.717   8.852
  303POPC   C2B 7364  30.335   7.752   8.403
  303POPC   C3B 7365  30.435   7.742   7.950
  303POPC   C4B 7366  30.452   7.851   7.475
  304POPC   NC3 7367  27.809   1.559   9.622
  304POPC   PO4 7368  27.548   0.948   9.819
  304POPC   GL1 7369  27.514   1.076   9.348
  304POPC   GL2 7370  27.614   1.350   9.194
  304POPC   C1A 7371  27.370   1.004   8.902
  304POPC   D2A 7372  27.257   1.151   8.464
  304POPC   C3A 7373  27.499   1.197   8.053
  304POPC   C4A 7374  27.380   1.086   7.619
  304POPC   C1B 7375  27.709   1.358   8.744
  304POPC   C2B 7376  27.911   1.331   8.347
  304POPC   C3B 7377  27.920   1.518   7.924
  304POPC   C4B 7378  27.654   1.561   7.530
  305POPC   NC3 7379  32.426   3.266   9.666
  305POPC   PO4 7380  31.899   3.620   9.640
  305POPC   GL1 7381  32.046   3.414   9.251
  305POPC   GL2 7382  32.362   3.218   9.175
  305POPC   C1A 7383  32.149   3.473   8.801
  305POPC   D2A 7384  32.216   3.284   8.396
  305POPC   C3A 7385  32.011   3.512   8.054
  305POPC   C4A 7386  32.098   3.700   7.655
  305POPC   C1B 7387  32.640   3.304   8.821
  305POPC   C2B 7388  32.699   3.540   8.436
  305POPC   C3B 7389  32.553   3.420   8.038
  305POPC   C4B 7390  32.335   3.253   7.704
  306POPC   NC3 7391  25.728  23.189   9.548
  306POPC   PO4 7392  26.234  22.826   9.516
  306POPC   GL1 7393  26.073  22.755   9.117
  306POPC   GL2 7394  25.921  23.053   9.091
  306POPC   C1A 7395  26.104  22.852   8.663
  306POPC   D2A 7396  26.120  22.636   8.291
  306POPC   C3A 7397  26.256  22.847   7.926
  306POPC   C4A 7398  26.455  23.006   7.545
  306POPC   C1B 7399  25.806  23.279   8.717
  306POPC   C2B 7400  25.966  23.229   8.312
  306POPC   C3B 7401  26.211  23.345   7.978
  306POPC   C4B 7402  26.040  23.298   7.560
  307POPC   NC3 7403  34.787  38.220   9.767
  307POPC   PO4 7404  34.231  38.592   9.644
  307POPC   GL1 7405  34.618  38.488   9.335
  307POPC   GL2 7406  34.613  38.804   9.230
  307POPC   C1A 7407  34.858  38.456   8.890
  307POPC   D2A 7408  34.710  38.329   8.441
  307POPC   C3A 7409  34.952  38.325   8.071
  307POPC   C4A 7410  34.938  38.186   7.643
  307POPC   C1B 7411  34.645  38.945   8.833
  307POPC   C2B 7412  34.652  38.814   8.437
  307POPC   C3B 7413  34.552  38.634   8.024
  307POPC   C4B 7414  34.552  38.773   7.582
  308POPC   NC3 7415  38.129  33.181   9.585
  308POPC   PO4 7416  38.602  32.797   9.908
  308POPC   GL1 7417  38.409  32.756   9.398
  308POPC   GL2 7418  38.447  33.070   9.190
  308POPC   C1A 7419  38.442  32.693   8.892
  308POPC   D2A 7420  38.699  32.781   8.513
  308POPC   C3A 7421  38.467  32.790   8.119
  308POPC   C4A 7422  38.451  33.133   7.835
  308POPC   C1B 7423  38.107  33.120   8.874
  308POPC   C2B 7424  38.041  33.272   8.446
  308POPC   C3B 7425  37.960  33.148   8.011
  308POPC   C4B 7426  38.040  32.774   7.777
  309POPC   NC3 7427   4.915  34.490   9.555
  309POPC   PO4 7428   5.533  34.241   9.532
  309POPC   GL1 7429   5.255  34.366   9.174
  309POPC   GL2 7430   4.891  34.256   9.108
  309POPC   C1A 7431   5.208  34.462   8.726
  309POPC   D2A 7432   4.963  34.390   8.339
  309POPC   C3A 7433   5.260  34.362   7.996
  309POPC   C4A 7434   5.400  34.755   7.862
  309POPC   C1B 7435   4.638  34.350   8.764
  309POPC   C2B 7436   4.411  34.616   8.483
  309POPC   C3B 7437   4.635  34.857   8.204
  309POPC   C4B 7438   4.897  34.685   7.892
  310POPC   NC3 7439  18.737  25.712   9.386
  310POPC   PO4 7440  19.128  26.195   9.659
  310POPC   GL1 7441  19.270  26.207   9.232
  310POPC   GL2 7442  19.299  25.848   9.215
  310POPC   C1A 7443  19.017  26.112   8.835
  310POPC   D2A 7444  18.833  25.914   8.462
  310POPC   C3A 7445  19.045  26.066   8.093
  310POPC   C4A 7446  19.034  26.234   7.684
  310POPC   C1B 7447  19.248  25.656   8.827
  310POPC   C2B 7448  19.329  25.782   8.429
  310POPC   C3B 7449  19.275  25.607   8.036
  310POPC   C4B 7450  19.207  25.767   7.642
  311POPC   NC3 7451  31.204  39.443   9.391
  311POPC   PO4 7452  31.580  38.866   9.562
  311POPC   GL1 7453  31.600  39.051   9.177
  311POPC   GL2 7454  31.259  39.057   9.067
  311POPC   C1A 7455  31.680  38.916   8.744
  311POPC   D2A 7456  31.808  39.192   8.398
  311POPC   C3A 7457  31.584  39.374   8.085
  311POPC   C4A 7458  31.587  39.718   7.803
  311POPC   C1B 7459  31.334  39.265   8.675
  311POPC   C2B 7460  31.122  39.255   8.247
  311POPC   C3B 7461  31.157  39.347   7.789
  311POPC   C4B 7462  31.144  39.049   7.439
  312POPC   NC3 7463  20.459   4.704   9.285
  312POPC   PO4 7464  20.893   4.320   9.660
  312POPC   GL1 7465  20.765   4.299   9.200
  312POPC   GL2 7466  20.781   4.568   8.915
  312POPC   C1A 7467  20.602   4.066   8.869
  312POPC   D2A 7468  20.766   4.011   8.459
  312POPC   C3A 7469  20.565   4.268   8.187
  312POPC   C4A 7470  20.555   4.131   7.769
  312POPC   C1B 7471  20.378   4.466   8.669
  312POPC   C2B 7472  20.090   4.532   8.349
  312POPC   C3B 7473  20.318   4.675   7.989
  312POPC   C4B 7474  20.735   4.608   7.850
  313POPC   NC3 7475  14.629  39.718   9.402
  313POPC   PO4 7476  13.960  40.118   9.545
  313POPC   GL1 7477  14.254  40.133   9.243
  313POPC   GL2 7478  14.581  40.061   9.050
  313POPC   C1A 7479  14.141  40.087   8.833
  313POPC   D2A 7480  14.438  40.111   8.536
  313POPC   C3A 7481  14.190  40.237   8.177
  313POPC   C4A 7482  14.017  40.099   7.805
  313POPC   C1B 7483  14.869  39.798   8.812
  313POPC   C2B 7484  14.793  39.650   8.397
  313POPC   C3B 7485  14.603  39.953   8.085
  313POPC   C4B 7486  14.559  39.946   7.663
  314POPC   NC3 7487   6.102   5.011   9.591
  314POPC   PO4 7488   5.592   5.387   9.323
  314POPC   GL1 7489   5.906   5.196   9.079
  314POPC   GL2 7490   5.941   4.850   9.146
  314POPC   C1A 7491   5.888   5.093   8.639
  314POPC   D2A 7492   5.962   5.320   8.278
  314POPC   C3A 7493   5.705   5.221   7.924
  314POPC   C4A 7494   5.833   5.374   7.484
  314POPC   C1B 7495   6.230   4.781   8.836
  314POPC   C2B 7496   6.130   4.689   8.393
  314POPC   C3B 7497   6.332   4.699   7.982
  314POPC   C4B 7498   6.082   4.963   7.689
  315POPC   NC3 7499  30.181   8.479   9.704
  315POPC   PO4 7500  29.607   8.131   9.462
  315POPC   GL1 7501  29.791   7.995   9.078
  315POPC   GL2 7502  30.156   7.994   9.188
  315POPC   C1A 7503  29.691   8.016   8.618
  315POPC   D2A 7504  29.866   7.921   8.204
  315POPC   C3A 7505  29.619   8.120   7.855
  315POPC   C4A 7506  29.776   8.343   7.493
  315POPC   C1B 7507  30.176   8.115   8.754
  315POPC   C2B 7508  30.105   8.421   8.448
  315POPC   C3B 7509  30.019   8.407   8.018
  315POPC   C4B 7510  30.236   8.259   7.681
  316POPC   NC3 7511  11.352   9.826   9.625
  316POPC   PO4 7512  10.670   9.812   9.681
  316POPC   GL1 7513  10.964   9.644   9.370
  316POPC   GL2 7514  10.983   9.973   9.270
  316POPC   C1A 7515  11.318   9.638   8.998
  316POPC   D2A 7516  11.364   9.783   8.544
  316POPC   C3A 7517  11.313   9.593   8.123
  316POPC   C4A 7518  11.048   9.629   7.754
  316POPC   C1B 7519  10.855   9.801   8.898
  316POPC   C2B 7520  10.839   9.859   8.489
  316POPC   C3B 7521  10.990   9.998   8.119
  316POPC   C4B 7522  11.189  10.123   7.747
  317POPC   NC3 7523   2.383  32.543   9.569
  317POPC   PO4 7524   1.850  32.154   9.520
  317POPC   GL1 7525   2.101  32.097   9.170
  317POPC   GL2 7526   2.447  32.167   9.240
  317POPC   C1A 7527   1.880  32.017   8.800
  317POPC   D2A 7528   1.655  32.248   8.481
  317POPC   C3A 7529   1.811  32.120   8.096
  317POPC   C4A 7530   1.708  32.308   7.700
  317POPC   C1B 7531   2.333  32.419   8.868
  317POPC   C2B 7532   2.173  32.282   8.482
  317POPC   C3B 7533   2.251  32.359   8.077
  317POPC   C4B 7534   2.205  32.381   7.683
  318POPC   NC3 7535  37.426  13.349   9.331
  318POPC   PO4 7536  37.817  13.691   9.710
  318POPC   GL1 7537  37.827  13.586   9.172
  318POPC   GL2 7538  37.615  13.412   8.881
  318POPC   C1A 7539  37.849  13.842   8.766
  318POPC   D2A 7540  37.862  13.665   8.386
  318POPC   C3A 7541  37.517  13.712   8.113
  318POPC   C4A 7542  37.528  13.684   7.684
  318POPC   C1B 7543  38.042  13.305   8.757
  318POPC   C2B 7544  38.165  13.220   8.314
  318POPC   C3B 7545  37.929  13.428   7.949
  318POPC   C4B 7546  37.846  13.309   7.523
  319POPC   NC3 7547  40.434  25.647   9.509
  319POPC   PO4 7548  40.688  25.020   9.388
  319POPC   GL1 7549  40.849  25.164   9.039
  319POPC   GL2 7550  40.770  25.516   9.121
  319POPC   C1A 7551  40.640  25.215   8.695
  319POPC   D2A 7552  40.511  24.975   8.372
  319POPC   C3A 7553  40.658  25.249   8.076
  319POPC   C4A 7554  40.508  25.307   7.701
  319POPC   C1B 7555  41.078  25.541   8.805
  319POPC   C2B 7556  41.049  25.353   8.415
  319POPC   C3B 7557  41.164  25.462   8.031
  319POPC   C4B 7558  40.912  25.594   7.705
  320POPC   NC3 7559  18.481  22.085   9.480
  320POPC   PO4 7560  19.163  22.281   9.480
  320POPC   GL1 7561  19.013  22.237   9.093
  320POPC   GL2 7562  18.719  22.440   9.181
  320POPC   C1A 7563  19.177  21.984   8.724
  320POPC   D2A 7564  19.192  21.815   8.297
  320POPC   C3A 7565  18.963  22.054   7.965
  320POPC   C4A 7566  19.160  22.287   7.633
  320POPC   C1B 7567  18.595  22.226   8.803
  320POPC   C2B 7568  18.752  22.142   8.418
  320POPC   C3B 7569  18.545  22.316   8.077
  320POPC   C4B 7570  18.488  22.472   7.716
  321POPC   NC3 7571  10.002  31.177   9.489
  321POPC   PO4 7572   9.584  31.754   9.466
  321POPC   GL1 7573   9.670  31.529   9.134
  321POPC   GL2 7574  10.021  31.522   9.112
  321POPC   C1A 7575   9.694  31.655   8.711
  321POPC   D2A 7576   9.745  31.441   8.340
  321POPC   C3A 7577   9.968  31.513   7.973
  321POPC   C4A 7578   9.690  31.492   7.664
  321POPC   C1B 7579   9.869  31.177   8.792
  321POPC   C2B 7580   9.939  30.965   8.366
  321POPC   C3B 7581  10.179  31.041   7.981
  321POPC   C4B 7582  10.016  31.127   7.582
  322POPC   NC3 7583  16.224  44.782   9.576
  322POPC   PO4 7584  15.757   0.118   9.599
  322POPC   GL1 7585  15.911  44.907   9.180
  322POPC   GL2 7586  15.679  44.631   9.041
  322POPC   C1A 7587  16.028  44.802   8.732
  322POPC   D2A 7588  15.954   0.043   8.382
  322POPC   C3A 7589  16.111  44.905   8.020
  322POPC   C4A 7590  15.966  44.552   7.781
  322POPC   C1B 7591  15.661  44.380   8.701
  322POPC   C2B 7592  15.418  44.427   8.329
  322POPC   C3B 7593  15.567  44.247   7.961
  322POPC   C4B 7594  15.858  44.047   7.732
  323POPC   NC3 7595  26.571   4.826   9.533
  323POPC   PO4 7596  27.088   5.289   9.525
  323POPC   GL1 7597  26.946   4.963   9.202
  323POPC   GL2 7598  26.591   5.037   9.049
  323POPC   C1A 7599  26.977   4.898   8.756
  323POPC   D2A 7600  26.773   5.127   8.433
  323POPC   C3A 7601  26.943   5.008   8.079
  323POPC   C4A 7602  26.961   5.229   7.735
  323POPC   C1B 7603  26.459   4.783   8.632
  323POPC   C2B 7604  26.440   4.843   8.135
  323POPC   C3B 7605  26.632   4.841   7.701
  323POPC   C4B 7606  26.783   4.609   7.329
  324POPC   NC3 7607  17.860  42.023   9.469
  324POPC   PO4 7608  17.400  41.554   9.475
  324POPC   GL1 7609  17.702  41.462   9.157
  324POPC   GL2 7610  17.837  41.108   9.092
  324POPC   C1A 7611  17.508  41.530   8.775
  324POPC   D2A 7612  17.291  41.658   8.409
  324POPC   C3A 7613  17.517  41.853   8.074
  324POPC   C4A 7614  17.341  41.690   7.697
  324POPC   C1B 7615  17.912  41.220   8.697
  324POPC   C2B 7616  17.806  41.488   8.353
  324POPC   C3B 7617  17.611  41.357   7.998
  324POPC   C4B 7618  17.691  41.331   7.580
  325POPC   NC3 7619  11.227  25.062   9.692
  325POPC   PO4 7620  11.488  25.550   9.456
  325POPC   GL1 7621  11.138  25.302   9.211
  325POPC   GL2 7622  11.065  24.925   9.211
  325POPC   C1A 7623  11.009  25.184   8.786
  325POPC   D2A 7624  11.246  25.201   8.417
  325POPC   C3A 7625  11.147  25.222   7.974
  325POPC   C4A 7626  11.503  25.329   7.716
  325POPC   C1B 7627  11.454  24.948   8.995
  325POPC   C2B 7628  11.581  24.796   8.604
  325POPC   C3B 7629  11.581  24.886   8.172
  325POPC   C4B 7630  11.539  24.833   7.755
  326POPC   NC3 7631   0.853  25.090   9.363
  326POPC   PO4 7632   1.492  25.311   9.650
  326POPC   GL1 7633   1.465  25.109   9.268
  326POPC   GL2 7634   1.224  25.396   9.144
  326POPC   C1A 7635   1.546  25.159   8.837
  326POPC   D2A 7636   1.347  25.368   8.528
  326POPC   C3A 7637   1.349  25.254   8.111
  326POPC   C4A 7638   1.460  25.428   7.716
  326POPC   C1B 7639   0.887  25.399   8.789
  326POPC   C2B 7640   0.869  25.212   8.373
  326POPC   C3B 7641   0.862  25.269   7.931
  326POPC   C4B 7642   1.002  25.158   7.539
  327POPC   NC3 7643  25.680  28.294   9.478
  327POPC   PO4 7644  25.040  28.678   9.514
  327POPC   GL1 7645  25.229  28.419   9.190
  327POPC   GL2 7646  24.931  28.223   9.093
  327POPC   C1A 7647  25.478  28.399   8.785
  327POPC   D2A 7648  25.763  28.550   8.440
  327POPC   C3A 7649  25.603  28.534   8.030
  327POPC   C4A 7650  25.477  28.804   7.677
  327POPC   C1B 7651  25.031  28.174   8.661
  327POPC   C2B 7652  25.255  28.255   8.287
  327POPC   C3B 7653  25.206  28.255   7.837
  327POPC   C4B 7654  24.918  28.095   7.558
  328POPC   NC3 7655  22.664  26.496   9.712
  328POPC   PO4 7656  23.142  27.052   9.556
  328POPC   GL1 7657  23.004  26.910   9.179
  328POPC   GL2 7658  22.898  27.220   9.116
  328POPC   C1A 7659  22.884  26.846   8.745
  328POPC   D2A 7660  22.917  26.629   8.382
  328POPC   C3A 7661  22.603  26.603   8.086
  328POPC   C4A 7662  22.739  26.559   7.663
  328POPC   C1B 7663  23.135  27.291   8.753
  328POPC   C2B 7664  23.083  27.136   8.361
  328POPC   C3B 7665  22.864  27.047   7.995
  328POPC   C4B 7666  23.050  26.963   7.618
  329POPC   NC3 7667  37.705   1.554   9.480
  329POPC   PO4 7668  37.305   2.187   9.570
  329POPC   GL1 7669  37.643   2.184   9.269
  329POPC   GL2 7670  37.679   1.891   9.089
  329POPC   C1A 7671  37.742   2.327   8.842
  329POPC   D2A 7672  37.642   2.105   8.459
  329POPC   C3A 7673  37.759   2.262   8.048
  329POPC   C4A 7674  37.698   2.095   7.648
  329POPC   C1B 7675  37.395   1.736   8.753
  329POPC   C2B 7676  37.513   1.480   8.385
  329POPC   C3B 7677  37.636   1.630   7.955
  329POPC   C4B 7678  37.563   1.633   7.485
  330POPC   NC3 7679  25.866   3.149   9.637
  330POPC   PO4 7680  26.165   3.775   9.486
  330POPC   GL1 7681  25.880   3.688   9.152
  330POPC   GL2 7682  25.876   3.331   9.170
  330POPC   C1A 7683  25.821   3.592   8.724
  330POPC   D2A 7684  26.144   3.475   8.426
  330POPC   C3A 7685  26.003   3.348   8.021
  330POPC   C4A 7686  26.008   3.524   7.607
  330POPC   C1B 7687  25.746   3.084   8.835
  330POPC   C2B 7688  25.673   3.232   8.399
  330POPC   C3B 7689  25.548   3.099   7.990
  330POPC   C4B 7690  25.757   3.101   7.633
  331POPC   NC3 7691   0.749  31.434   9.770
  331POPC   PO4 7692   0.364  31.855   9.506
  331POPC   GL1 7693   0.191  31.520   9.218
  331POPC   GL2 7694   0.471  31.544   9.070
  331POPC   C1A 7695   0.049  31.375   8.796
  331POPC   D2A 7696   0.187  31.251   8.373
  331POPC   C3A 7697   0.297  31.604   8.088
  331POPC   C4A 7698   0.097  31.576   7.688
  331POPC   C1B 7699   0.577  31.294   8.722
  331POPC   C2B 7700   0.686  31.341   8.318
  331POPC   C3B 7701   0.744  31.349   7.889
  331POPC   C4B 7702   0.591  31.620   7.565
  332POPC   NC3 7703  39.086   1.099   9.452
  332POPC   PO4 7704  38.912   1.752   9.474
  332POPC   GL1 7705  39.085   1.460   9.077
  332POPC   GL2 7706  39.350   1.173   9.032
  332POPC   C1A 7707  39.288   1.397   8.601
  332POPC   D2A 7708  39.162   1.366   8.152
  332POPC   C3A 7709  39.441   1.139   7.843
  332POPC   C4A 7710  39.367   0.753   7.530
  332POPC   C1B 7711  38.944   1.055   8.770
  332POPC   C2B 7712  38.836   0.929   8.321
  332POPC   C3B 7713  39.026   0.850   7.925
  332POPC   C4B 7714  38.918   0.996   7.517
  333POPC   NC3 7715  27.979  26.301   9.488
  333POPC   PO4 7716  28.519  25.861   9.517
  333POPC   GL1 7717  28.292  26.024   9.195
  333POPC   GL2 7718  27.987  25.819   9.255
  333POPC   C1A 7719  28.462  26.120   8.809
  333POPC   D2A 7720  28.520  26.198   8.385
  333POPC   C3A 7721  28.705  25.884   8.110
  333POPC   C4A 7722  28.636  25.999   7.676
  333POPC   C1B 7723  27.996  25.857   8.804
  333POPC   C2B 7724  28.237  25.787   8.421
  333POPC   C3B 7725  28.201  25.993   8.017
  333POPC   C4B 7726  28.156  25.869   7.584
  334POPC   NC3 7727  29.661  14.071   9.409
  334POPC   PO4 7728  29.924  14.769   9.481
  334POPC   GL1 7729  29.929  14.639   9.098
  334POPC   GL2 7730  29.664  14.446   9.068
  334POPC   C1A 7731  30.071  14.420   8.754
  334POPC   D2A 7732  30.051  14.184   8.365
  334POPC   C3A 7733  30.076  14.416   7.992
  334POPC   C4A 7734  30.144  14.286   7.586
  334POPC   C1B 7735  29.661  14.133   8.744
  334POPC   C2B 7736  29.502  14.042   8.355
  334POPC   C3B 7737  29.703  14.072   7.954
  334POPC   C4B 7738  29.656  14.405   7.639
  335POPC   NC3 7739  37.688   7.855   9.415
  335POPC   PO4 7740  37.867   8.468   9.385
  335POPC   GL1 7741  37.795   8.221   9.081
  335POPC   GL2 7742  38.101   8.013   9.147
  335POPC   C1A 7743  37.593   8.084   8.715
  335POPC   D2A 7744  37.431   7.847   8.397
  335POPC   C3A 7745  37.581   8.128   8.123
  335POPC   C4A 7746  37.394   8.393   7.839
  335POPC   C1B 7747  38.120   8.128   8.731
  335POPC   C2B 7748  38.035   8.267   8.352
  335POPC   C3B 7749  38.105   8.064   7.992
  335POPC   C4B 7750  37.897   8.247   7.708
  336POPC   NC3 7751  15.726  33.233   9.647
  336POPC   PO4 7752  16.232  32.837   9.427
  336POPC   GL1 7753  16.045  33.141   9.164
  336POPC   GL2 7754  15.674  33.044   9.170
  336POPC   C1A 7755  16.119  33.078   8.708
  336POPC   D2A 7756  16.079  32.790   8.345
  336POPC   C3A 7757  15.918  32.978   7.975
  336POPC   C4A 7758  16.141  33.321   7.875
  336POPC   C1B 7759  15.688  33.327   8.810
  336POPC   C2B 7760  15.706  33.217   8.377
  336POPC   C3B 7761  15.689  33.491   7.998
  336POPC   C4B 7762  15.737  33.463   7.576
  337POPC   NC3 7763  34.221  41.642   9.476
  337POPC   PO4 7764  34.912  41.703   9.202
  337POPC   GL1 7765  34.515  41.620   9.067
  337POPC   GL2 7766  34.549  41.298   9.224
  337POPC   C1A 7767  34.390  41.695   8.660
  337POPC   D2A 7768  34.669  41.900   8.360
  337POPC   C3A 7769  34.623  41.683   7.979
  337POPC   C4A 7770  34.313  41.350   7.894
  337POPC   C1B 7771  34.529  41.187   8.770
  337POPC   C2B 7772  34.565  41.256   8.335
  337POPC   C3B 7773  34.755  41.127   7.954
  337POPC   C4B 7774  35.048  41.344   7.723
  338POPC   NC3 7775   8.831  21.017   9.440
  338POPC   PO4 7776   9.136  21.598   9.524
  338POPC   GL1 7777   8.937  21.406   9.145
  338POPC   GL2 7778   9.044  21.093   8.980
  338POPC   C1A 7779   8.751  21.484   8.768
  338POPC   D2A 7780   8.635  21.635   8.379
  338POPC   C3A 7781   8.853  21.455   8.044
  338POPC   C4A 7782   8.850  21.567   7.644
  338POPC   C1B 7783   9.413  20.988   8.693
  338POPC   C2B 7784   9.465  21.073   8.229
  338POPC   C3B 7785   9.269  21.248   7.848
  338POPC   C4B 7786   9.217  21.329   7.381
  339POPC   NC3 7787   4.818  22.868   9.565
  339POPC   PO4 7788   4.196  23.182   9.412
  339POPC   GL1 7789   4.483  23.109   9.113
  339POPC   GL2 7790   4.425  22.778   8.980
  339POPC   C1A 7791   4.348  23.214   8.690
  339POPC   D2A 7792   4.355  22.902   8.383
  339POPC   C3A 7793   4.304  23.050   7.975
  339POPC   C4A 7794   4.304  22.837   7.584
  339POPC   C1B 7795   4.005  22.724   8.779
  339POPC   C2B 7796   3.828  22.557   8.425
  339POPC   C3B 7797   3.949  22.686   8.037
  339POPC   C4B 7798   3.807  22.811   7.653
  340POPC   NC3 7799  44.186   8.854   9.607
  340POPC   PO4 7800  44.717   9.173   9.852
  340POPC   GL1 7801  44.642   9.146   9.399
  340POPC   GL2 7802  44.493   9.431   9.248
  340POPC   C1A 7803  44.699   9.082   8.931
  340POPC   D2A 7804  44.758   8.867   8.521
  340POPC   C3A 7805  44.785   9.021   8.110
  340POPC   C4A 7806  44.534   8.981   7.762
  340POPC   C1B 7807  44.388   9.457   8.788
  340POPC   C2B 7808  44.463   9.308   8.398
  340POPC   C3B 7809  44.390   9.432   7.981
  340POPC   C4B 7810  44.123   9.492   7.634
  341POPC   NC3 7811  23.487   5.591  10.042
  341POPC   PO4 7812  23.783   5.147   9.575
  341POPC   GL1 7813  23.568   5.067   9.192
  341POPC   GL2 7814  23.433   4.746   9.089
  341POPC   C1A 7815  23.563   5.181   8.766
  341POPC   D2A 7816  23.712   5.018   8.399
  341POPC   C3A 7817  23.470   5.081   8.077
  341POPC   C4A 7818  23.394   5.190   7.669
  341POPC   C1B 7819  23.886   4.792   8.869
  341POPC   C2B 7820  24.061   4.666   8.457
  341POPC   C3B 7821  23.964   4.768   8.023
  341POPC   C4B 7822  23.626   4.753   7.730
  342POPC   NC3 7823  44.252  43.168   9.597
  342POPC   PO4 7824  43.629  42.920   9.438
  342POPC   GL1 7825  43.804  43.009   9.075
  342POPC   GL2 7826  44.057  43.253   9.120
  342POPC   C1A 7827  44.063  42.907   8.758
  342POPC   D2A 7828  44.192  43.068   8.408
  342POPC   C3A 7829  43.856  43.212   8.182
  342POPC   C4A 7830  43.860  42.934   7.836
  342POPC   C1B 7831  44.131  43.462   8.737
  342POPC   C2B 7832  44.390  43.528   8.361
  342POPC   C3B 7833  44.303  43.355   7.956
  342POPC   C4B 7834  44.077  43.356   7.575
  343POPC   NC3 7835  19.453  15.469   9.555
  343POPC   PO4 7836  18.890  14.945   9.638
  343POPC   GL1 7837  19.002  15.212   9.321
  343POPC   GL2 7838  19.302  15.052   9.255
  343POPC   C1A 7839  18.829  15.224   8.894
  343POPC   D2A 7840  18.866  14.999   8.497
  343POPC   C3A 7841  18.991  15.119   8.091
  343POPC   C4A 7842  18.884  15.304   7.698
  343POPC   C1B 7843  19.308  15.332   8.911
  343POPC   C2B 7844  19.320  15.295   8.467
  343POPC   C3B 7845  19.491  15.340   8.048
  343POPC   C4B 7846  19.397  15.565   7.691
  344POPC   NC3 7847  40.282   7.954   9.397
  344POPC   PO4 7848  40.841   8.255   9.650
  344POPC   GL1 7849  40.910   8.245   9.192
  344POPC   GL2 7850  40.693   7.989   9.115
  344POPC   C1A 7851  40.693   8.448   8.838
  344POPC   D2A 7852  40.579   8.341   8.399
  344POPC   C3A 7853  40.818   8.342   8.012
  344POPC   C4A 7854  40.512   8.441   7.728
  344POPC   C1B 7855  40.860   7.989   8.720
  344POPC   C2B 7856  40.953   7.873   8.334
  344POPC   C3B 7857  40.617   7.896   8.078
  344POPC   C4B 7858  40.461   7.940   7.673
  345POPC   NC3 7859  13.275   4.784   9.261
  345POPC   PO4 7860  13.751   5.164   9.588
  345POPC   GL1 7861  13.700   5.062   9.164
  345POPC   GL2 7862  13.431   5.270   9.107
  345POPC   C1A 7863  13.777   4.828   8.783
  345POPC   D2A 7864  13.775   5.029   8.387
  345POPC   C3A 7865  13.677   4.863   8.009
  345POPC   C4A 7866  13.828   5.099   7.683
  345POPC   C1B 7867  13.347   5.107   8.700
  345POPC   C2B 7868  13.276   4.993   8.282
  345POPC   C3B 7869  13.416   5.293   7.950
  345POPC   C4B 7870  13.446   5.364   7.509
  346POPC   NC3 7871  39.736  40.718   9.532
  346POPC   PO4 7872  40.148  41.223   9.433
  346POPC   GL1 7873  40.219  40.911   9.083
  346POPC   GL2 7874  39.943  40.646   9.079
  346POPC   C1A 7875  40.098  40.841   8.636
  346POPC   D2A 7876  39.869  40.894   8.260
  346POPC   C3A 7877  40.075  40.981   7.826
  346POPC   C4A 7878  39.908  41.271   7.520
  346POPC   C1B 7879  39.922  40.373   8.744
  346POPC   C2B 7880  40.069  40.412   8.353
  346POPC   C3B 7881  39.923  40.511   7.945
  346POPC   C4B 7882  39.809  40.663   7.523
  347POPC   NC3 7883  26.279  28.665   9.407
  347POPC   PO4 7884  26.079  28.039   9.569
  347POPC   GL1 7885  26.118  28.203   9.159
  347POPC   GL2 7886  25.903  28.482   9.060
  347POPC   C1A 7887  26.184  28.221   8.732
  347POPC   D2A 7888  25.886  28.064   8.432
  347POPC   C3A 7889  26.069  28.238   8.065
  347POPC   C4A 7890  26.412  28.298   7.786
  347POPC   C1B 7891  26.109  28.738   8.763
  347POPC   C2B 7892  26.323  28.599   8.382
  347POPC   C3B 7893  26.244  28.734   7.988
  347POPC   C4B 7894  25.954  28.601   7.669
  348POPC   NC3 7895  13.330  10.253   9.492
  348POPC   PO4 7896  14.023  10.226   9.476
  348POPC   GL1 7897  13.787  10.435   9.085
  348POPC   GL2 7898  13.432  10.403   9.036
  348POPC   C1A 7899  13.673  10.683   8.690
  348POPC   D2A 7900  13.648  10.453   8.296
  348POPC   C3A 7901  13.570  10.499   7.856
  348POPC   C4A 7902  13.816  10.452   7.523
  348POPC   C1B 7903  13.299  10.310   8.641
  348POPC   C2B 7904  13.094  10.223   8.274
  348POPC   C3B 7905  13.141  10.216   7.849
  348POPC   C4B 7906  13.180  10.203   7.390
  349POPC   NC3 7907  21.961  37.904   9.589
  349POPC   PO4 7908  22.571  37.638   9.530
  349POPC   GL1 7909  22.388  37.670   9.119
  349POPC   GL2 7910  22.014  37.720   9.088
  349POPC   C1A 7911  22.339  37.427   8.733
  349POPC   D2A 7912  22.149  37.467   8.341
  349POPC   C3A 7913  22.316  37.654   7.971
  349POPC   C4A 7914  22.275  37.496   7.551
  349POPC   C1B 7915  21.827  37.353   8.832
  349POPC   C2B 7916  21.664  37.340   8.402
  349POPC   C3B 7917  21.748  37.692   8.122
  349POPC   C4B 7918  21.846  37.757   7.725
  350POPC   NC3 7919  35.651  32.485   9.582
  350POPC   PO4 7920  35.503  31.866   9.618
  350POPC   GL1 7921  35.416  32.145   9.246
  350POPC   GL2 7922  35.579  32.462   9.102
  350POPC   C1A 7923  35.156  32.208   8.883
  350POPC   D2A 7924  35.378  32.043   8.524
  350POPC   C3A 7925  35.295  32.147   8.133
  350POPC   C4A 7926  35.513  32.082   7.754
  350POPC   C1B 7927  35.550  32.487   8.728
  350POPC   C2B 7928  35.478  32.572   8.346
  350POPC   C3B 7929  35.716  32.480   8.002
  350POPC   C4B 7930  35.680  32.542   7.571
  351POPC   NC3 7931  27.569  10.193   9.537
  351POPC   PO4 7932  27.773  10.818   9.363
  351POPC   GL1 7933  27.519  10.547   9.086
  351POPC   GL2 7934  27.302  10.246   9.128
  351POPC   C1A 7935  27.320  10.628   8.694
  351POPC   D2A 7936  27.269  11.052   8.519
  351POPC   C3A 7937  27.244  11.080   8.084
  351POPC   C4A 7938  27.552  10.960   7.847
  351POPC   C1B 7939  27.429  10.063   8.763
  351POPC   C2B 7940  27.548  10.238   8.415
  351POPC   C3B 7941  27.467  10.574   8.184
  351POPC   C4B 7942  27.439  10.445   7.784
  352POPC   NC3 7943  39.755   4.561   9.238
  352POPC   PO4 7944  40.013   4.024   9.512
  352POPC   GL1 7945  39.931   4.079   9.079
  352POPC   GL2 7946  39.569   4.131   9.012
  352POPC   C1A 7947  40.133   4.102   8.683
  352POPC   D2A 7948  40.075   3.978   8.251
  352POPC   C3A 7949  40.229   4.275   7.927
  352POPC   C4A 7950  40.046   4.241   7.513
  352POPC   C1B 7951  39.707   4.379   8.633
  352POPC   C2B 7952  40.011   4.498   8.352
  352POPC   C3B 7953  39.901   4.716   8.017
  352POPC   C4B 7954  39.690   4.556   7.683
  353POPC   NC3 7955  22.380  18.300   9.646
  353POPC   PO4 7956  21.843  18.056   9.416
  353POPC   GL1 7957  21.954  18.121   9.015
  353POPC   GL2 7958  22.204  18.308   9.130
  353POPC   C1A 7959  21.944  18.466   8.707
  353POPC   D2A 7960  22.102  18.495   8.301
  353POPC   C3A 7961  21.976  18.128   8.132
  353POPC   C4A 7962  22.019  17.970   7.776
  353POPC   C1B 7963  22.438  18.353   8.777
  353POPC   C2B 7964  22.450  18.128   8.432
  353POPC   C3B 7965  22.466  18.242   8.003
  353POPC   C4B 7966  22.241  18.440   7.678
  354POPC   NC3 7967  13.465   7.548   9.616
  354POPC   PO4 7968  14.084   7.656   9.505
  354POPC   GL1 7969  13.752   7.495   9.179
  354POPC   GL2 7970  13.354   7.483   9.130
  354POPC   C1A 7971  13.706   7.561   8.730
  354POPC   D2A 7972  13.873   7.501   8.308
  354POPC   C3A 7973  13.599   7.493   7.957
  354POPC   C4A 7974  13.683   7.446   7.486
  354POPC   C1B 7975  13.366   7.188   8.782
  354POPC   C2B 7976  13.495   7.102   8.360
  354POPC   C3B 7977  13.266   7.120   7.985
  354POPC   C4B 7978  13.334   7.062   7.539
  355POPC   NC3 7979   8.071   9.953   9.594
  355POPC   PO4 7980   7.847   9.401   9.410
  355POPC   GL1 7981   7.904   9.841   9.140
  355POPC   GL2 7982   8.246   9.896   9.042
  355POPC   C1A 7983   7.906   9.962   8.657
  355POPC   D2A 7984   8.202   9.829   8.343
  355POPC   C3A 7985   8.176   9.987   7.933
  355POPC   C4A 7986   7.973  10.005   7.577
  355POPC   C1B 7987   8.084   9.513   8.777
  355POPC   C2B 7988   7.900   9.413   8.355
  355POPC   C3B 7989   8.085   9.473   7.913
  355POPC   C4B 7990   8.349   9.212   7.594
  356POPC   NC3 7991  10.074   0.073   9.369
  356POPC   PO4 7992  10.563   0.528   9.568
  356POPC   GL1 7993  10.518   0.677   9.157
  356POPC   GL2 7994  10.152   0.597   9.127
  356POPC   C1A 7995  10.787   0.626   8.772
  356POPC   D2A 7996  10.665   0.501   8.359
  356POPC   C3A 7997  10.845   0.474   7.985
  356POPC   C4A 7998  10.654   0.310   7.648
  356POPC   C1B 7999  10.267   0.560   8.699
  356POPC   C2B 8000  10.260   0.798   8.303
  356POPC   C3B 8001  10.382   0.709   7.909
  356POPC   C4B 8002  10.157   0.422   7.723
  357POPC   NC3 8003  38.786  24.931   9.570
  357POPC   PO4 8004  39.405  25.240   9.528
  357POPC   GL1 8005  39.220  25.271   9.171
  357POPC   GL2 8006  39.096  24.976   9.100
  357POPC   C1A 8007  39.324  25.362   8.758
  357POPC   D2A 8008  39.159  25.503   8.370
  357POPC   C3A 8009  39.376  25.355   8.007
  357POPC   C4A 8010  39.558  24.930   7.867
  357POPC   C1B 8011  38.824  25.269   8.829
  357POPC   C2B 8012  38.653  25.416   8.412
  357POPC   C3B 8013  38.839  25.349   7.979
  357POPC   C4B 8014  38.827  25.567   7.580
  358POPC   NC3 8015  13.522  44.956   9.528
  358POPC   PO4 8016  13.895  44.321   9.435
  358POPC   GL1 8017  13.508  44.548   9.224
  358POPC   GL2 8018  13.250  44.368   9.150
  358POPC   C1A 8019  13.263  44.813   8.872
  358POPC   D2A 8020  13.494  44.972   8.521
  358POPC   C3A 8021  13.374  44.926   8.120
  358POPC   C4A 8022  13.590  44.642   7.900
  358POPC   C1B 8023  13.509  44.413   8.732
  358POPC   C2B 8024  13.324  44.472   8.343
  358POPC   C3B 8025  13.236  44.281   7.971
  358POPC   C4B 8026  13.353  44.314   7.515
  359POPC   NC3 8027  34.883  43.209   9.454
  359POPC   PO4 8028  34.258  43.085   9.427
  359POPC   GL1 8029  34.468  43.351   9.167
  359POPC   GL2 8030  34.701  43.093   9.003
  359POPC   C1A 8031  34.549  43.530   8.778
  359POPC   D2A 8032  34.594  43.266   8.430
  359POPC   C3A 8033  34.434  43.404   8.056
  359POPC   C4A 8034  34.604  43.339   7.674
  359POPC   C1B 8035  34.507  42.775   8.733
  359POPC   C2B 8036  34.389  42.802   8.303
  359POPC   C3B 8037  34.642  42.939   7.967
  359POPC   C4B 8038  34.771  42.747   7.572
  360POPC   NC3 8039   4.024  10.339   9.618
  360POPC   PO4 8040   4.148  11.033   9.646
  360POPC   GL1 8041   4.423  10.775   9.341
  360POPC   GL2 8042   4.369  10.461   9.272
  360POPC   C1A 8043   4.587  10.700   8.887
  360POPC   D2A 8044   4.679  10.742   8.438
  360POPC   C3A 8045   4.308  10.809   8.192
  360POPC   C4A 8046   4.209  10.694   7.777
  360POPC   C1B 8047   4.143  10.428   8.891
  360POPC   C2B 8048   4.237  10.351   8.461
  360POPC   C3B 8049   4.011  10.328   8.073
  360POPC   C4B 8050   4.099  10.201   7.648
  361POPC   NC3 8051   0.480  25.958   9.480
  361POPC   PO4 8052  44.979  26.338   9.382
  361POPC   GL1 8053   0.256  26.188   9.081
  361POPC   GL2 8054   0.612  26.308   9.134
  361POPC   C1A 8055   0.263  26.078   8.675
  361POPC   D2A 8056   0.032  26.026   8.325
  361POPC   C3A 8057   0.234  26.046   7.937
  361POPC   C4A 8058   0.206  26.018   7.478
  361POPC   C1B 8059   0.718  25.968   8.872
  361POPC   C2B 8060   0.728  26.151   8.502
  361POPC   C3B 8061   0.834  26.131   8.088
  361POPC   C4B 8062   0.689  26.119   7.686
  362POPC   NC3 8063  23.078  28.174   9.571
  362POPC   PO4 8064  22.564  28.468   9.244
  362POPC   GL1 8065  23.019  28.424   9.110
  362POPC   GL2 8066  22.996  28.093   9.081
  362POPC   C1A 8067  23.188  28.374   8.695
  362POPC   D2A 8068  22.891  28.562   8.383
  362POPC   C3A 8069  22.876  28.489   7.948
  362POPC   C4A 8070  22.711  28.547   7.543
  362POPC   C1B 8071  22.769  28.117   8.675
  362POPC   C2B 8072  22.993  28.060   8.263
  362POPC   C3B 8073  22.974  28.015   7.801
  362POPC   C4B 8074  23.049  28.235   7.344
  363POPC   NC3 8075  28.714  36.757   9.477
  363POPC   PO4 8076  28.234  37.279   9.598
  363POPC   GL1 8077  28.278  36.974   9.247
  363POPC   GL2 8078  28.593  37.015   9.066
  363POPC   C1A 8079  28.086  36.745   8.883
  363POPC   D2A 8080  28.191  36.706   8.435
  363POPC   C3A 8081  28.154  37.025   8.104
  363POPC   C4A 8082  28.092  36.766   7.753
  363POPC   C1B 8083  28.362  37.171   8.742
  363POPC   C2B 8084  28.574  37.073   8.397
  363POPC   C3B 8085  28.674  37.055   7.989
  363POPC   C4B 8086  28.596  36.955   7.584
  364POPC   NC3 8087   1.324  11.894   9.385
  364POPC   PO4 8088   0.688  12.122   9.469
  364POPC   GL1 8089   0.940  12.150   9.120
  364POPC   GL2 8090   1.220  12.397   9.195
  364POPC   C1A 8091   1.215  12.047   8.767
  364POPC   D2A 8092   1.283  11.744   8.461
  364POPC   C3A 8093   1.475  11.879   8.095
  364POPC   C4A 8094   1.387  11.935   7.703
  364POPC   C1B 8095   1.025  12.518   8.801
  364POPC   C2B 8096   0.953  12.326   8.414
  364POPC   C3B 8097   1.107  12.272   8.029
  364POPC   C4B 8098   0.906  12.118   7.687
  365POPC   NC3 8099  27.890  44.881   9.563
  365POPC   PO4 8100  27.306  44.564   9.447
  365POPC   GL1 8101  27.665  44.658   9.162
  365POPC   GL2 8102  27.851  44.321   9.151
  365POPC   C1A 8103  27.632  44.857   8.739
  365POPC   D2A 8104  27.517  44.628   8.306
  365POPC   C3A 8105  27.621  44.816   7.908
  365POPC   C4A 8106  27.737   0.215   7.788
  365POPC   C1B 8107  27.552  44.338   8.777
  365POPC   C2B 8108  27.214  44.224   8.474
  365POPC   C3B 8109  27.137  44.338   8.083
  365POPC   C4B 8110  27.509  44.318   7.844
  366POPC   NC3 8111  10.568  11.850   9.547
  366POPC   PO4 8112  10.526  12.472   9.889
  366POPC   GL1 8113  10.686  12.327   9.382
  366POPC   GL2 8114  10.845  12.024   9.178
  366POPC   C1A 8115  10.758  12.386   8.868
  366POPC   D2A 8116  10.695  12.153   8.484
  366POPC   C3A 8117  10.689  12.281   8.085
  366POPC   C4A 8118  10.453  12.104   7.768
  366POPC   C1B 8119  10.517  11.879   8.867
  366POPC   C2B 8120  10.252  11.851   8.522
  366POPC   C3B 8121  10.405  11.749   8.142
  366POPC   C4B 8122  10.322  11.595   7.753
  367POPC   NC3 8123  39.020   8.652   9.487
  367POPC   PO4 8124  39.101   7.893   9.557
  367POPC   GL1 8125  39.118   8.211   9.189
  367POPC   GL2 8126  39.429   8.407   9.086
  367POPC   C1A 8127  39.131   8.217   8.735
  367POPC   D2A 8128  38.928   8.272   8.373
  367POPC   C3A 8129  39.123   8.431   8.007
  367POPC   C4A 8130  39.186   8.197   7.650
  367POPC   C1B 8131  39.630   8.270   8.733
  367POPC   C2B 8132  39.484   8.321   8.352
  367POPC   C3B 8133  39.609   8.268   7.955
  367POPC   C4B 8134  39.581   8.545   7.654
  368POPC   NC3 8135  23.202  24.931   9.993
  368POPC   PO4 8136  22.627  24.724   9.659
  368POPC   GL1 8137  22.656  24.606   9.216
  368POPC   GL2 8138  22.990  24.606   9.224
  368POPC   C1A 8139  22.813  24.424   8.804
  368POPC   D2A 8140  23.064  24.459   8.435
  368POPC   C3A 8141  22.868  24.431   8.065
  368POPC   C4A 8142  22.893  24.119   7.780
  368POPC   C1B 8143  23.260  24.692   8.845
  368POPC   C2B 8144  23.217  24.933   8.444
  368POPC   C3B 8145  23.357  24.836   8.022
  368POPC   C4B 8146  23.109  24.687   7.670
  369POPC   NC3 8147   8.003  42.365   9.662
  369POPC   PO4 8148   8.577  42.033   9.476
  369POPC   GL1 8149   8.426  42.399   9.236
  369POPC   GL2 8150   8.142  42.387   9.069
  369POPC   C1A 8151   8.568  42.476   8.777
  369POPC   D2A 8152   8.492  42.427   8.303
  369POPC   C3A 8153   8.595  42.496   7.872
  369POPC   C4A 8154   8.447  42.225   7.555
  369POPC   C1B 8155   8.097  42.339   8.655
  369POPC   C2B 8156   7.971  42.566   8.313
  369POPC   C3B 8157   8.001  42.380   7.879
  369POPC   C4B 8158   7.656  42.229   7.621
  370POPC   NC3 8159  30.027  24.079   9.541
  370POPC   PO4 8160  29.750  24.699   9.393
  370POPC   GL1 8161  29.858  24.451   9.078
  370POPC   GL2 8162  30.170  24.314   9.099
  370POPC   C1A 8163  29.914  24.509   8.643
  370POPC   D2A 8164  30.095  24.649   8.255
  370POPC   C3A 8165  29.839  24.630   7.866
  370POPC   C4A 8166  29.513  24.597   7.516
  370POPC   C1B 8167  30.215  24.086   8.732
  370POPC   C2B 8168  30.112  23.996   8.328
  370POPC   C3B 8169  30.169  24.243   7.959
  370POPC   C4B 8170  30.327  24.240   7.559
  371POPC   NC3 8171  28.973  15.705   9.396
  371POPC   PO4 8172  29.463  16.171   9.521
  371POPC   GL1 8173  29.244  16.154   9.101
  371POPC   GL2 8174  29.170  15.804   8.941
  371POPC   C1A 8175  29.127  16.218   8.654
  371POPC   D2A 8176  29.107  15.990   8.248
  371POPC   C3A 8177  29.374  15.979   7.871
  371POPC   C4A 8178  29.305  15.837   7.463
  371POPC   C1B 8179  28.807  15.791   8.630
  371POPC   C2B 8180  28.653  15.777   8.192
  371POPC   C3B 8181  28.877  15.887   7.779
  371POPC   C4B 8182  28.798  15.859   7.298
  372POPC   NC3 8183  32.097   6.563   9.499
  372POPC   PO4 8184  32.729   6.845   9.594
  372POPC   GL1 8185  32.531   6.621   9.248
  372POPC   GL2 8186  32.245   6.828   9.086
  372POPC   C1A 8187  32.481   6.421   8.851
  372POPC   D2A 8188  32.392   6.699   8.491
  372POPC   C3A 8189  32.325   6.534   8.066
  372POPC   C4A 8190  32.366   6.849   7.751
  372POPC   C1B 8191  31.977   6.544   8.813
  372POPC   C2B 8192  31.871   6.673   8.414
  372POPC   C3B 8193  31.931   6.824   8.022
  372POPC   C4B 8194  31.871   6.723   7.595
  373POPC   NC3 8195   8.335  16.652   9.536
  373POPC   PO4 8196   7.876  17.117   9.382
  373POPC   GL1 8197   8.139  16.860   9.080
  373POPC   GL2 8198   8.196  16.515   9.072
  373POPC   C1A 8199   8.173  16.727   8.623
  373POPC   D2A 8200   7.987  16.780   8.245
  373POPC   C3A 8201   8.172  16.546   7.927
  373POPC   C4A 8202   8.329  16.761   7.569
  373POPC   C1B 8203   8.520  16.380   8.765
  373POPC   C2B 8204   8.474  16.269   8.319
  373POPC   C3B 8205   8.587  16.268   7.905
  373POPC   C4B 8206   8.406  16.222   7.496
  374POPC   NC3 8207   3.538  13.742   9.533
  374POPC   PO4 8208   3.764  13.109   9.476
  374POPC   GL1 8209   3.604  13.423   9.135
  374POPC   GL2 8210   3.794  13.777   9.089
  374POPC   C1A 8211   3.314  13.492   8.767
  374POPC   D2A 8212   3.258  13.331   8.336
  374POPC   C3A 8213   3.330  13.588   7.976
  374POPC   C4A 8214   3.484  13.533   7.569
  374POPC   C1B 8215   4.059  13.963   8.737
  374POPC   C2B 8216   4.135  13.797   8.293
  374POPC   C3B 8217   3.892  13.693   7.895
  374POPC   C4B 8218   3.981  13.584   7.460
  375POPC   NC3 8219  32.568  30.318   9.611
  375POPC   PO4 8220  32.134  30.838   9.451
  375POPC   GL1 8221  32.042  30.671   9.094
  375POPC   GL2 8222  32.226  30.359   9.109
  375POPC   C1A 8223  32.214  30.814   8.723
  375POPC   D2A 8224  32.507  30.670   8.444
  375POPC   C3A 8225  32.379  30.868   8.092
  375POPC   C4A 8226  32.342  30.975   7.702
  375POPC   C1B 8227  31.977  30.362   8.695
  375POPC   C2B 8228  32.005  30.539   8.266
  375POPC   C3B 8229  32.192  30.459   7.829
  375POPC   C4B 8230  32.025  30.323   7.410
  376POPC   NC3 8231  40.466  34.861   9.397
  376POPC   PO4 8232  40.932  34.680   9.775
  376POPC   GL1 8233  40.918  34.613   9.272
  376POPC   GL2 8234  40.647  34.344   9.212
  376POPC   C1A 8235  40.760  34.610   8.802
  376POPC   D2A 8236  40.927  34.477   8.401
  376POPC   C3A 8237  41.024  34.819   8.098
  376POPC   C4A 8238  41.139  34.727   7.680
  376POPC   C1B 8239  40.300  34.368   8.881
  376POPC   C2B 8240  40.281  34.437   8.427
  376POPC   C3B 8241  40.531  34.621   8.100
  376POPC   C4B 8242  40.587  34.496   7.704
  377POPC   NC3 8243   7.327   5.973   9.539
  377POPC   PO4 8244   7.479   5.381   9.697
  377POPC   GL1 8245   7.306   5.559   9.228
  377POPC   GL2 8246   7.328   5.905   9.044
  377POPC   C1A 8247   7.264   5.501   8.747
  377POPC   D2A 8248   7.222   5.659   8.301
  377POPC   C3A 8249   7.357   5.788   7.881
  377POPC   C4A 8250   7.207   6.229   7.724
  377POPC   C1B 8251   7.473   5.965   8.627
  377POPC   C2B 8252   7.449   6.138   8.225
  377POPC   C3B 8253   7.694   6.183   7.850
  377POPC   C4B 8254   8.046   6.217   7.545
  378POPC   NC3 8255  12.950  32.725   9.718
  378POPC   PO4 8256  12.858  32.130   9.734
  378POPC   GL1 8257  12.856  32.089   9.278
  378POPC   GL2 8258  12.908  32.441   9.278
  378POPC   C1A 8259  12.691  32.044   8.826
  378POPC   D2A 8260  12.858  32.078   8.381
  378POPC   C3A 8261  12.577  32.262   8.073
  378POPC   C4A 8262  12.436  32.660   7.938
  378POPC   C1B 8263  12.743  32.571   8.888
  378POPC   C2B 8264  12.751  32.593   8.454
  378POPC   C3B 8265  12.990  32.684   8.122
  378POPC   C4B 8266  13.097  32.552   7.743
  379POPC   NC3 8267  24.665  18.449   9.620
  379POPC   PO4 8268  24.040  18.599   9.528
  379POPC   GL1 8269  24.289  18.497   9.150
  379POPC   GL2 8270  24.643  18.557   9.116
  379POPC   C1A 8271  24.398  18.290   8.742
  379POPC   D2A 8272  24.246  18.108   8.360
  379POPC   C3A 8273  24.332  18.268   7.969
  379POPC   C4A 8274  24.694  18.217   7.770
  379POPC   C1B 8275  24.893  18.471   8.738
  379POPC   C2B 8276  24.716  18.420   8.344
  379POPC   C3B 8277  24.798  18.641   8.019
  379POPC   C4B 8278  25.148  18.491   7.831
  380POPC   NC3 8279  35.861  14.020   9.441
  380POPC   PO4 8280  36.326  13.564   9.715
  380POPC   GL1 8281  36.156  13.626   9.335
  380POPC   GL2 8282  36.338  13.950   9.293
  380POPC   C1A 8283  35.965  13.627   8.921
  380POPC   D2A 8284  35.975  13.844   8.519
  380POPC   C3A 8285  36.144  13.635   8.160
  380POPC   C4A 8286  36.058  13.731   7.759
  380POPC   C1B 8287  36.308  14.002   8.870
  380POPC   C2B 8288  36.555  13.970   8.495
  380POPC   C3B 8289  36.503  14.020   8.025
  380POPC   C4B 8290  36.511  14.004   7.527
  381POPC   NC3 8291   5.216   1.101   9.695
  381POPC   PO4 8292   5.492   1.656   9.436
  381POPC   GL1 8293   5.374   1.297   9.247
  381POPC   GL2 8294   5.030   1.318   9.255
  381POPC   C1A 8295   5.330   1.121   8.853
  381POPC   D2A 8296   5.366   0.931   8.451
  381POPC   C3A 8297   5.170   1.222   8.194
  381POPC   C4A 8298   5.203   1.390   7.810
  381POPC   C1B 8299   4.841   1.329   8.845
  381POPC   C2B 8300   4.680   1.212   8.439
  381POPC   C3B 8301   4.696   1.248   7.986
  381POPC   C4B 8302   4.542   1.019   7.612
  382POPC   NC3 8303  37.032   2.550   9.441
  382POPC   PO4 8304  36.675   3.076   9.272
  382POPC   GL1 8305  36.725   2.711   9.090
  382POPC   GL2 8306  37.045   2.817   9.011
  382POPC   C1A 8307  36.733   2.470   8.744
  382POPC   D2A 8308  36.526   2.643   8.389
  382POPC   C3A 8309  36.581   2.515   8.001
  382POPC   C4A 8310  36.507   2.649   7.597
  382POPC   C1B 8311  36.932   2.915   8.617
  382POPC   C2B 8312  37.034   2.601   8.338
  382POPC   C3B 8313  37.076   2.658   7.953
  382POPC   C4B 8314  36.979   2.797   7.613
  383POPC   NC3 8315  34.840  35.635   9.504
  383POPC   PO4 8316  34.275  35.230   9.564
  383POPC   GL1 8317  34.418  35.496   9.201
  383POPC   GL2 8318  34.704  35.278   9.157
  383POPC   C1A 8319  34.593  35.541   8.742
  383POPC   D2A 8320  34.732  35.351   8.339
  383POPC   C3A 8321  34.627  35.563   7.916
  383POPC   C4A 8322  34.546  35.747   7.490
  383POPC   C1B 8323  34.732  35.035   8.778
  383POPC   C2B 8324  34.606  34.840   8.405
  383POPC   C3B 8325  34.670  34.962   8.004
  383POPC   C4B 8326  34.490  35.147   7.667
  384POPC   NC3 8327  27.328  25.617   9.159
  384POPC   PO4 8328  27.469  26.161   9.499
  384POPC   GL1 8329  27.590  26.099   9.080
  384POPC   GL2 8330  27.852  26.348   8.990
  384POPC   C1A 8331  27.513  25.948   8.644
  384POPC   D2A 8332  27.753  25.931   8.307
  384POPC   C3A 8333  27.527  25.955   7.951
  384POPC   C4A 8334  27.795  26.192   7.777
  384POPC   C1B 8335  27.473  26.433   8.712
  384POPC   C2B 8336  27.293  26.297   8.291
  384POPC   C3B 8337  27.296  26.409   7.842
  384POPC   C4B 8338  27.404  26.182   7.437
  385POPC   NC3 8339   4.864  16.311   9.544
  385POPC   PO4 8340   5.090  16.880   9.752
  385POPC   GL1 8341   5.014  16.831   9.302
  385POPC   GL2 8342   4.967  16.517   9.109
  385POPC   C1A 8343   5.203  16.903   8.889
  385POPC   D2A 8344   5.188  16.610   8.550
  385POPC   C3A 8345   5.240  16.683   8.113
  385POPC   C4A 8346   5.163  16.458   7.745
  385POPC   C1B 8347   4.733  16.457   8.757
  385POPC   C2B 8348   4.815  16.266   8.386
  385POPC   C3B 8349   4.758  16.486   8.029
  385POPC   C4B 8350   4.675  16.523   7.585
  386POPC   NC3 8351  22.128   1.055   9.547
  386POPC   PO4 8352  22.283   1.647   9.243
  386POPC   GL1 8353  22.276   1.218   9.068
  386POPC   GL2 8354  21.933   1.050   9.085
  386POPC   C1A 8355  22.219   1.199   8.613
  386POPC   D2A 8356  22.127   1.581   8.328
  386POPC   C3A 8357  22.080   1.477   7.878
  386POPC   C4A 8358  22.380   1.221   7.657
  386POPC   C1B 8359  21.809   0.822   8.748
  386POPC   C2B 8360  21.877   0.903   8.356
  386POPC   C3B 8361  22.131   0.966   8.038
  386POPC   C4B 8362  21.883   1.028   7.727
  387POPC   NC3 8363  22.065  44.315   9.419
  387POPC   PO4 8364  22.358  43.703   9.477
  387POPC   GL1 8365  22.377  43.806   9.081
  387POPC   GL2 8366  22.036  43.908   9.058
  387POPC   C1A 8367  22.477  43.797   8.642
  387POPC   D2A 8368  22.348  43.634   8.250
  387POPC   C3A 8369  22.448  43.742   7.883
  387POPC   C4A 8370  22.154  43.756   7.575
  387POPC   C1B 8371  22.273  44.239   8.823
  387POPC   C2B 8372  22.457  44.291   8.459
  387POPC   C3B 8373  22.290  44.167   8.094
  387POPC   C4B 8374  22.376  44.207   7.690
  388POPC   NC3 8375  38.400  18.114   9.477
  388POPC   PO4 8376  38.924  18.580   9.539
  388POPC   GL1 8377  38.629  18.521   9.226
  388POPC   GL2 8378  38.779  18.200   9.139
  388POPC   C1A 8379  38.365  18.422   8.855
  388POPC   D2A 8380  38.212  18.326   8.420
  388POPC   C3A 8381  38.321  18.465   8.050
  388POPC   C4A 8382  38.119  18.668   7.753
  388POPC   C1B 8383  38.662  18.004   8.780
  388POPC   C2B 8384  38.460  17.857   8.444
  388POPC   C3B 8385  38.379  17.973   8.064
  388POPC   C4B 8386  38.637  17.978   7.693
  389POPC   NC3 8387  37.602  34.222   9.488
  389POPC   PO4 8388  37.806  33.542   9.602
  389POPC   GL1 8389  37.687  33.784   9.230
  389POPC   GL2 8390  37.946  34.013   9.137
  389POPC   C1A 8391  37.466  33.963   8.862
  389POPC   D2A 8392  37.240  33.922   8.468
  389POPC   C3A 8393  37.531  34.011   8.167
  389POPC   C4A 8394  37.484  34.032   7.754
  389POPC   C1B 8395  37.949  34.156   8.724
  389POPC   C2B 8396  37.928  34.300   8.300
  389POPC   C3B 8397  38.042  34.049   7.925
  389POPC   C4B 8398  37.911  33.900   7.521
  390POPC   NC3 8399  29.654  29.550   9.454
  390POPC   PO4 8400  30.146  29.114   9.484
  390POPC   GL1 8401  30.066  29.090   9.068
  390POPC   GL2 8402  29.780  29.257   9.048
  390POPC   C1A 8403  29.933  28.943   8.656
  390POPC   D2A 8404  29.725  28.939   8.255
  390POPC   C3A 8405  30.020  28.942   7.932
  390POPC   C4A 8406  30.014  29.143   7.535
  390POPC   C1B 8407  29.876  29.444   8.695
  390POPC   C2B 8408  29.733  29.484   8.305
  390POPC   C3B 8409  29.851  29.496   7.905
  390POPC   C4B 8410  29.573  29.569   7.564
  391POPC   NC3 8411  28.024  38.708   9.559
  391POPC   PO4 8412  27.476  38.350   9.714
  391POPC   GL1 8413  27.702  38.471   9.260
  391POPC   GL2 8414  27.911  38.754   9.067
  391POPC   C1A 8415  27.834  38.291   8.849
  391POPC   D2A 8416  27.632  38.362   8.443
  391POPC   C3A 8417  27.805  38.235   8.071
  391POPC   C4A 8418  27.680  38.296   7.639
  391POPC   C1B 8419  27.492  38.703   8.830
  391POPC   C2B 8420  27.291  38.762   8.399
  391POPC   C3B 8421  27.389  38.558   7.995
  391POPC   C4B 8422  27.384  38.696   7.546
  392POPC   NC3 8423   2.078  41.700   9.635
  392POPC   PO4 8424   2.122  40.993   9.602
  392POPC   GL1 8425   2.025  41.309   9.319
  392POPC   GL2 8426   2.288  41.516   9.197
  392POPC   C1A 8427   1.908  41.348   8.914
  392POPC   D2A 8428   1.944  41.382   8.473
  392POPC   C3A 8429   1.916  41.661   8.107
  392POPC   C4A 8430   1.896  41.473   7.688
  392POPC   C1B 8431   2.171  41.772   8.819
  392POPC   C2B 8432   2.327  41.712   8.411
  392POPC   C3B 8433   2.389  41.972   8.038
  392POPC   C4B 8434   2.212  41.858   7.687
  393POPC   NC3 8435  42.980  43.799   9.626
  393POPC   PO4 8436  42.341  43.804   9.422
  393POPC   GL1 8437  42.656  43.961   9.124
  393POPC   GL2 8438  42.670  43.681   8.874
  393POPC   C1A 8439  42.608  44.143   8.703
  393POPC   D2A 8440  42.359  44.052   8.346
  393POPC   C3A 8441  42.523  44.090   7.976
  393POPC   C4A 8442  42.466  44.146   7.560
  393POPC   C1B 8443  42.307  43.628   8.625
  393POPC   C2B 8444  42.215  43.577   8.174
  393POPC   C3B 8445  42.360  43.633   7.745
  393POPC   C4B 8446  42.631  43.419   7.447
  394POPC   NC3 8447  44.871  28.408   9.416
  394POPC   PO4 8448  44.520  27.894   9.719
  394POPC   GL1 8449  44.385  28.279   9.313
  394POPC   GL2 8450  44.471  28.620   9.164
  394POPC   C1A 8451  44.507  28.275   8.806
  394POPC   D2A 8452  44.735  28.059   8.484
  394POPC   C3A 8453  44.655  28.284   8.125
  394POPC   C4A 8454  44.877  28.192   7.787
  394POPC   C1B 8455  44.734  28.730   8.739
  394POPC   C2B 8456  44.614  28.803   8.282
  394POPC   C3B 8457  44.623  28.718   7.806
  394POPC   C4B 8458  44.738  28.849   7.369
  395POPC   NC3 8459  30.698   1.722   9.857
  395POPC   PO4 8460  30.852   1.144   9.550
  395POPC   GL1 8461  30.801   1.227   9.142
  395POPC   GL2 8462  30.657   1.557   9.126
  395POPC   C1A 8463  30.720   1.028   8.750
  395POPC   D2A 8464  30.641   1.162   8.324
  395POPC   C3A 8465  30.742   0.944   7.954
  395POPC   C4A 8466  30.806   1.259   7.641
  395POPC   C1B 8467  30.473   1.735   8.717
  395POPC   C2B 8468  30.367   1.603   8.277
  395POPC   C3B 8469  30.466   1.590   7.822
  395POPC   C4B 8470  30.544   1.590   7.339
  396POPC   NC3 8471  23.702  14.787   9.533
  396POPC   PO4 8472  23.231  14.250   9.348
  396POPC   GL1 8473  23.700  14.397   9.182
  396POPC   GL2 8474  23.967  14.721   9.115
  396POPC   C1A 8475  23.787  14.427   8.735
  396POPC   D2A 8476  23.541  14.555   8.385
  396POPC   C3A 8477  23.711  14.376   8.025
  396POPC   C4A 8478  23.695  14.587   7.680
  396POPC   C1B 8479  24.186  14.805   8.705
  396POPC   C2B 8480  24.291  14.623   8.277
  396POPC   C3B 8481  24.185  14.612   7.806
  396POPC   C4B 8482  24.046  14.657   7.323
  397POPC   NC3 8483  34.803  29.048   9.487
  397POPC   PO4 8484  34.166  29.226   9.434
  397POPC   GL1 8485  34.452  29.346   9.120
  397POPC   GL2 8486  34.831  29.323   9.070
  397POPC   C1A 8487  34.476  29.210   8.673
  397POPC   D2A 8488  34.567  28.878   8.357
  397POPC   C3A 8489  34.360  28.885   7.937
  397POPC   C4A 8490  34.479  29.026   7.534
  397POPC   C1B 8491  34.982  29.111   8.709
  397POPC   C2B 8492  34.978  29.276   8.316
  397POPC   C3B 8493  34.692  29.300   7.975
  397POPC   C4B 8494  34.653  29.515   7.583
  398POPC   NC3 8495  33.909  21.099   9.638
  398POPC   PO4 8496  34.331  21.630   9.465
  398POPC   GL1 8497  33.965  21.436   9.231
  398POPC   GL2 8498  33.576  21.404   9.275
  398POPC   C1A 8499  33.941  21.290   8.815
  398POPC   D2A 8500  34.132  21.203   8.421
  398POPC   C3A 8501  33.949  21.260   8.037
  398POPC   C4A 8502  33.605  21.247   7.751
  398POPC   C1B 8503  33.520  21.580   8.841
  398POPC   C2B 8504  33.561  21.373   8.419
  398POPC   C3B 8505  33.594  21.647   8.056
  398POPC   C4B 8506  33.565  21.761   7.602
  399POPC   NC3 8507   3.319   2.287   9.482
  399POPC   PO4 8508   3.818   1.813   9.479
  399POPC   GL1 8509   3.524   1.764   9.134
  399POPC   GL2 8510   3.479   2.102   9.063
  399POPC   C1A 8511   3.498   1.793   8.675
  399POPC   D2A 8512   3.904   1.785   8.462
  399POPC   C3A 8513   3.788   1.735   8.062
  399POPC   C4A 8514   3.448   1.606   7.804
  399POPC   C1B 8515   3.187   2.252   8.757
  399POPC   C2B 8516   3.076   1.987   8.414
  399POPC   C3B 8517   3.324   2.023   8.048
  399POPC   C4B 8518   3.409   2.324   7.718
  400POPC   NC3 8519  38.664  36.279   9.669
  400POPC   PO4 8520  38.116  35.951   9.580
  400POPC   GL1 8521  38.354  36.104   9.245
  400POPC   GL2 8522  38.486  36.444   9.216
  400POPC   C1A 8523  38.343  36.122   8.811
  400POPC   D2A 8524  38.433  36.361   8.438
  400POPC   C3A 8525  38.449  36.114   8.074
  400POPC   C4A 8526  38.316  36.103   7.643
  400POPC   C1B 8527  38.747  36.498   8.847
  400POPC   C2B 8528  38.946  36.497   8.435
  400POPC   C3B 8529  38.904  36.311   8.022
  400POPC   C4B 8530  38.789  36.327   7.574
  401POPC   NC3 8531  26.112  44.126   9.353
  401POPC   PO4 8532  26.252  43.538   9.674
  401POPC   GL1 8533  26.212  43.605   9.193
  401POPC   GL2 8534  25.871  43.534   9.124
  401POPC   C1A 8535  26.310  43.774   8.737
  401POPC   D2A 8536  26.347  44.080   8.378
  401POPC   C3A 8537  26.131  43.956   8.011
  401POPC   C4A 8538  25.934  43.972   7.623
  401POPC   C1B 8539  25.682  43.740   8.763
  401POPC   C2B 8540  25.727  43.869   8.326
  401POPC   C3B 8541  25.660  43.632   7.920
  401POPC   C4B 8542  25.693  43.576   7.448
  402POPC   NC3 8543  15.728  26.500   9.477
  402POPC   PO4 8544  15.544  27.134   9.461
  402POPC   GL1 8545  15.903  26.970   9.109
  402POPC   GL2 8546  15.975  26.592   9.041
  402POPC   C1A 8547  16.192  26.966   8.704
  402POPC   D2A 8548  16.382  27.127   8.274
  402POPC   C3A 8549  16.142  27.082   7.875
  402POPC   C4A 8550  15.729  27.030   7.789
  402POPC   C1B 8551  15.757  26.693   8.672
  402POPC   C2B 8552  15.895  26.854   8.286
  402POPC   C3B 8553  16.092  26.594   8.002
  402POPC   C4B 8554  15.945  26.379   7.679
  403POPC   NC3 8555  18.197  21.524   9.629
  403POPC   PO4 8556  18.553  21.000   9.761
  403POPC   GL1 8557  18.280  21.152   9.286
  403POPC   GL2 8558  18.001  21.442   9.186
  403POPC   C1A 8559  18.251  21.260   8.802
  403POPC   D2A 8560  18.498  21.185   8.422
  403POPC   C3A 8561  18.318  21.363   8.136
  403POPC   C4A 8562  18.200  21.168   7.796
  403POPC   C1B 8563  17.824  21.682   8.823
  403POPC   C2B 8564  17.892  21.555   8.388
  403POPC   C3B 8565  17.941  21.615   7.924
  403POPC   C4B 8566  18.298  21.615   7.603
  404POPC   NC3 8567   7.202  25.709   9.518
  404POPC   PO4 8568   7.646  26.197   9.596
  404POPC   GL1 8569   7.555  25.964   9.214
  404POPC   GL2 8570   7.808  26.134   9.061
  404POPC   C1A 8571   7.290  25.957   8.800
  404POPC   D2A 8572   7.328  26.188   8.389
  404POPC   C3A 8573   7.154  26.084   7.955
  404POPC   C4A 8574   7.388  26.018   7.566
  404POPC   C1B 8575   7.776  25.818   8.743
  404POPC   C2B 8576   7.597  25.752   8.355
  404POPC   C3B 8577   7.659  26.025   8.009
  404POPC   C4B 8578   7.900  26.044   7.628
  405POPC   NC3 8579   8.838  18.015   9.382
  405POPC   PO4 8580   9.294  18.375   9.498
  405POPC   GL1 8581   9.190  18.466   9.142
  405POPC   GL2 8582   8.826  18.471   9.115
  405POPC   C1A 8583   9.156  18.186   8.805
  405POPC   D2A 8584   8.876  18.183   8.474
  405POPC   C3A 8585   9.115  18.183   8.113
  405POPC   C4A 8586   9.221  18.304   7.723
  405POPC   C1B 8587   8.974  18.676   8.722
  405POPC   C2B 8588   8.908  18.662   8.273
  405POPC   C3B 8589   8.738  18.437   7.883
  405POPC   C4B 8590   8.810  18.361   7.437
  406POPC   NC3 8591  13.754  32.827   9.514
  406POPC   PO4 8592  13.183  33.128   9.714
  406POPC   GL1 8593  13.446  33.279   9.279
  406POPC   GL2 8594  13.827  33.156   9.131
  406POPC   C1A 8595  13.506  33.364   8.799
  406POPC   D2A 8596  13.859  33.216   8.524
  406POPC   C3A 8597  13.792  33.145   8.082
  406POPC   C4A 8598  13.614  33.119   7.687
  406POPC   C1B 8599  13.747  32.786   8.805
  406POPC   C2B 8600  13.691  32.568   8.386
  406POPC   C3B 8601  13.537  32.684   7.993
  406POPC   C4B 8602  13.881  32.706   7.740
  407POPC   NC3 8603  33.015  38.708   9.509
  407POPC   PO4 8604  32.905  38.055   9.694
  407POPC   GL1 8605  33.087  38.235   9.294
  407POPC   GL2 8606  33.455  38.274   9.176
  407POPC   C1A 8607  33.006  38.247   8.845
  407POPC   D2A 8608  33.152  38.276   8.404
  407POPC   C3A 8609  32.817  38.415   8.144
  407POPC   C4A 8610  32.828  38.647   7.782
  407POPC   C1B 8611  33.408  38.562   8.785
  407POPC   C2B 8612  33.379  38.822   8.415
  407POPC   C3B 8613  33.273  38.659   8.023
  407POPC   C4B 8614  33.352  38.375   7.723
  408POPC   NC3 8615  12.281  12.227   9.587
  408POPC   PO4 8616  11.789  11.881   9.448
  408POPC   GL1 8617  12.018  12.167   9.149
  408POPC   GL2 8618  12.321  12.011   9.123
  408POPC   C1A 8619  12.025  12.096   8.686
  408POPC   D2A 8620  11.735  12.148   8.358
  408POPC   C3A 8621  11.940  12.136   7.964
  408POPC   C4A 8622  11.862  11.818   7.682
  408POPC   C1B 8623  12.518  12.124   8.747
  408POPC   C2B 8624  12.424  11.966   8.370
  408POPC   C3B 8625  12.462  12.023   7.974
  408POPC   C4B 8626  12.284  12.106   7.577
  409POPC   NC3 8627   6.028  15.921   9.601
  409POPC   PO4 8628   5.371  16.246   9.382
  409POPC   GL1 8629   5.706  16.072   9.082
  409POPC   GL2 8630   6.064  16.058   9.133
  409POPC   C1A 8631   5.816  16.032   8.652
  409POPC   D2A 8632   5.669  15.836   8.287
  409POPC   C3A 8633   5.806  16.047   7.954
  409POPC   C4A 8634   5.825  16.156   7.544
  409POPC   C1B 8635   6.294  15.915   8.798
  409POPC   C2B 8636   6.285  16.111   8.393
  409POPC   C3B 8637   6.312  16.001   7.993
  409POPC   C4B 8638   6.230  15.880   7.604
  410POPC   NC3 8639  41.351   4.007   9.445
  410POPC   PO4 8640  41.939   3.789   9.680
  410POPC   GL1 8641  41.669   3.700   9.219
  410POPC   GL2 8642  41.544   3.416   9.049
  410POPC   C1A 8643  41.372   3.787   8.797
  410POPC   D2A 8644  41.438   3.538   8.422
  410POPC   C3A 8645  41.631   3.662   8.056
  410POPC   C4A 8646  41.602   3.850   7.659
  410POPC   C1B 8647  41.336   3.152   8.726
  410POPC   C2B 8648  41.228   3.014   8.305
  410POPC   C3B 8649  41.250   3.314   7.990
  410POPC   C4B 8650  41.554   3.314   7.658
  411POPC   NC3 8651  21.278  37.741   9.585
  411POPC   PO4 8652  21.118  37.075   9.469
  411POPC   GL1 8653  21.120  37.494   9.154
  411POPC   GL2 8654  21.452  37.669   9.094
  411POPC   C1A 8655  21.235  37.417   8.689
  411POPC   D2A 8656  21.188  37.130   8.293
  411POPC   C3A 8657  21.387  37.368   7.962
  411POPC   C4A 8658  21.257  37.815   7.967
  411POPC   C1B 8659  21.606  37.783   8.713
  411POPC   C2B 8660  21.442  37.974   8.413
  411POPC   C3B 8661  21.668  38.244   8.176
  411POPC   C4B 8662  21.694  38.228   7.759
  412POPC   NC3 8663  13.551  36.613   9.466
  412POPC   PO4 8664  14.116  36.342   9.277
  412POPC   GL1 8665  13.800  36.655   9.032
  412POPC   GL2 8666  13.594  36.997   9.137
  412POPC   C1A 8667  13.482  36.756   8.689
  412POPC   D2A 8668  13.621  36.697   8.253
  412POPC   C3A 8669  13.419  36.823   7.878
  412POPC   C4A 8670  13.363  36.902   7.413
  412POPC   C1B 8671  13.843  37.115   8.796
  412POPC   C2B 8672  13.745  37.218   8.390
  412POPC   C3B 8673  13.892  37.086   8.021
  412POPC   C4B 8674  13.818  36.992   7.612
  413POPC   NC3 8675  31.338  44.091   9.365
  413POPC   PO4 8676  31.942  43.794   9.423
  413POPC   GL1 8677  31.671  43.739   9.118
  413POPC   GL2 8678  31.536  43.439   9.252
  413POPC   C1A 8679  31.500  43.918   8.717
  413POPC   D2A 8680  31.350  44.093   8.308
  413POPC   C3A 8681  31.434  43.846   7.941
  413POPC   C4A 8682  31.494  43.950   7.498
  413POPC   C1B 8683  31.528  43.383   8.784
  413POPC   C2B 8684  31.420  43.547   8.373
  413POPC   C3B 8685  31.109  43.461   8.072
  413POPC   C4B 8686  31.106  43.614   7.638
  414POPC   NC3 8687  12.874  34.970   9.492
  414POPC   PO4 8688  12.735  35.584   9.437
  414POPC   GL1 8689  13.123  35.477   9.152
  414POPC   GL2 8690  13.263  35.113   9.188
  414POPC   C1A 8691  13.089  35.448   8.678
  414POPC   D2A 8692  12.703  35.299   8.430
  414POPC   C3A 8693  12.693  35.511   8.008
  414POPC   C4A 8694  12.970  35.553   7.657
  414POPC   C1B 8695  12.931  35.000   8.865
  414POPC   C2B 8696  13.002  34.863   8.477
  414POPC   C3B 8697  12.996  35.044   8.091
  414POPC   C4B 8698  12.777  35.038   7.758
  415POPC   NC3 8699  16.902  36.642   9.323
  415POPC   PO4 8700  17.446  36.830   9.595
  415POPC   GL1 8701  17.598  36.710   9.202
  415POPC   GL2 8702  17.337  36.513   9.097
  415POPC   C1A 8703  17.565  36.952   8.823
  415POPC   D2A 8704  17.462  37.264   8.504
  415POPC   C3A 8705  17.501  37.125   8.095
  415POPC   C4A 8706  17.622  36.951   7.728
  415POPC   C1B 8707  17.196  36.602   8.715
  415POPC   C2B 8708  17.410  36.687   8.377
  415POPC   C3B 8709  17.287  36.623   7.992
  415POPC   C4B 8710  17.165  36.788   7.624
  416POPC   NC3 8711  16.622  34.496   9.816
  416POPC   PO4 8712  16.540  34.883   9.276
  416POPC   GL1 8713  16.813  34.544   9.213
  416POPC   GL2 8714  16.650  34.263   9.335
  416POPC   C1A 8715  16.953  34.394   8.835
  416POPC   D2A 8716  16.670  34.555   8.510
  416POPC   C3A 8717  16.829  34.684   8.117
  416POPC   C4A 8718  16.767  34.571   7.712
  416POPC   C1B 8719  16.490  34.209   8.912
  416POPC   C2B 8720  16.387  34.034   8.526
  416POPC   C3B 8721  16.508  34.228   8.128
  416POPC   C4B 8722  16.478  34.156   7.719
  417POPC   NC3 8723  31.216  32.239   9.897
  417POPC   PO4 8724  30.645  32.382   9.575
  417POPC   GL1 8725  30.599  32.378   9.146
  417POPC   GL2 8726  30.611  32.051   9.030
  417POPC   C1A 8727  30.835  32.451   8.773
  417POPC   D2A 8728  31.051  32.310   8.413
  417POPC   C3A 8729  30.788  32.527   8.146
  417POPC   C4A 8730  30.447  32.394   7.862
  417POPC   C1B 8731  30.963  31.925   8.777
  417POPC   C2B 8732  30.990  31.742   8.399
  417POPC   C3B 8733  30.773  31.912   8.094
  417POPC   C4B 8734  30.927  32.186   7.833
  418POPC   NC3 8735  40.776  22.598   9.529
  418POPC   PO4 8736  40.545  22.040   9.651
  418POPC   GL1 8737  40.685  22.171   9.223
  418POPC   GL2 8738  40.904  22.455   9.066
  418POPC   C1A 8739  40.554  22.246   8.791
  418POPC   D2A 8740  40.627  22.506   8.454
  418POPC   C3A 8741  40.511  22.245   8.156
  418POPC   C4A 8742  40.549  22.169   7.766
  418POPC   C1B 8743  41.072  22.301   8.678
  418POPC   C2B 8744  40.968  22.089   8.283
  418POPC   C3B 8745  41.026  22.274   7.864
  418POPC   C4B 8746  41.307  22.488   7.557
  419POPC   NC3 8747  39.851  26.384   9.507
  419POPC   PO4 8748  39.932  27.062   9.534
  419POPC   GL1 8749  39.985  26.817   9.189
  419POPC   GL2 8750  40.293  26.642   9.213
  419POPC   C1A 8751  40.076  26.911   8.784
  419POPC   D2A 8752  40.032  26.775   8.406
  419POPC   C3A 8753  40.158  26.983   8.062
  419POPC   C4A 8754  39.978  26.911   7.687
  419POPC   C1B 8755  40.364  26.484   8.787
  419POPC   C2B 8756  40.247  26.315   8.375
  419POPC   C3B 8757  40.324  26.497   7.948
  419POPC   C4B 8758  40.444  26.756   7.537
  420POPC   NC3 8759   2.905  13.980   9.460
  420POPC   PO4 8760   2.552  14.465   9.207
  420POPC   GL1 8761   3.037  14.329   9.110
  420POPC   GL2 8762   3.223  13.961   9.064
  420POPC   C1A 8763   3.212  14.597   8.801
  420POPC   D2A 8764   3.125  14.823   8.383
  420POPC   C3A 8765   2.960  14.549   8.020
  420POPC   C4A 8766   2.523  14.625   7.839
  420POPC   C1B 8767   2.858  13.939   8.799
  420POPC   C2B 8768   2.578  14.166   8.542
  420POPC   C3B 8769   2.607  14.169   8.098
  420POPC   C4B 8770   2.966  13.930   7.913
  421POPC   NC3 8771  36.398  20.862   9.404
  421POPC   PO4 8772  35.893  20.439   9.581
  421POPC   GL1 8773  36.007  20.550   9.146
  421POPC   GL2 8774  36.393  20.574   8.992
  421POPC   C1A 8775  35.966  20.396   8.707
  421POPC   D2A 8776  36.250  20.398   8.342
  421POPC   C3A 8777  35.989  20.380   7.969
  421POPC   C4A 8778  35.806  20.756   7.792
  421POPC   C1B 8779  36.133  20.882   8.769
  421POPC   C2B 8780  35.982  20.841   8.349
  421POPC   C3B 8781  36.291  20.801   8.014
  421POPC   C4B 8782  36.222  21.074   7.727
  422POPC   NC3 8783  20.558  33.440   9.381
  422POPC   PO4 8784  20.732  34.092   9.470
  422POPC   GL1 8785  20.886  33.886   9.076
  422POPC   GL2 8786  20.989  33.569   8.995
  422POPC   C1A 8787  20.836  33.916   8.604
  422POPC   D2A 8788  20.486  33.860   8.306
  422POPC   C3A 8789  20.606  33.801   7.872
  422POPC   C4A 8790  20.430  33.908   7.468
  422POPC   C1B 8791  20.547  33.520   8.747
  422POPC   C2B 8792  20.339  33.330   8.385
  422POPC   C3B 8793  20.205  33.464   7.988
  422POPC   C4B 8794  20.383  33.414   7.587
  423POPC   NC3 8795   3.894  28.892   9.545
  423POPC   PO4 8796   3.207  29.271   9.411
  423POPC   GL1 8797   3.387  28.979   9.145
  423POPC   GL2 8798   3.725  29.151   9.107
  423POPC   C1A 8799   3.193  28.814   8.754
  423POPC   D2A 8800   3.086  28.989   8.355
  423POPC   C3A 8801   3.311  28.942   8.002
  423POPC   C4A 8802   3.696  29.123   7.855
  423POPC   C1B 8803   3.453  29.259   8.713
  423POPC   C2B 8804   3.421  29.402   8.275
  423POPC   C3B 8805   3.307  29.470   7.863
  423POPC   C4B 8806   3.069  29.506   7.440
  424POPC   NC3 8807   3.918   9.597   9.410
  424POPC   PO4 8808   4.423  10.073   9.592
  424POPC   GL1 8809   4.377   9.964   9.156
  424POPC   GL2 8810   4.349   9.642   9.119
  424POPC   C1A 8811   4.116   9.923   8.760
  424POPC   D2A 8812   3.971   9.633   8.411
  424POPC   C3A 8813   4.049   9.815   7.993
  424POPC   C4A 8814   4.484   9.893   7.814
  424POPC   C1B 8815   4.462   9.541   8.688
  424POPC   C2B 8816   4.450   9.571   8.230
  424POPC   C3B 8817   4.268   9.359   7.871
  424POPC   C4B 8818   4.225   9.471   7.432
  425POPC   NC3 8819   2.729  11.240   9.826
  425POPC   PO4 8820   2.318  11.051   9.312
  425POPC   GL1 8821   2.575  11.186   8.967
  425POPC   GL2 8822   2.935  11.331   9.103
  425POPC   C1A 8823   2.507  11.288   8.572
  425POPC   D2A 8824   2.769  11.155   8.278
  425POPC   C3A 8825   2.600  10.898   7.960
  425POPC   C4A 8826   2.650  11.267   7.714
  425POPC   C1B 8827   2.884  11.579   8.774
  425POPC   C2B 8828   2.792  11.710   8.410
  425POPC   C3B 8829   2.748  11.616   8.052
  425POPC   C4B 8830   2.953  11.722   7.684
  426POPC   NC3 8831  41.806   8.857   9.404
  426POPC   PO4 8832  41.160   9.180   9.447
  426POPC   GL1 8833  41.397   9.018   9.119
  426POPC   GL2 8834  41.654   9.248   9.120
  426POPC   C1A 8835  41.659   8.808   8.776
  426POPC   D2A 8836  41.628   8.527   8.431
  426POPC   C3A 8837  41.737   8.734   8.031
  426POPC   C4A 8838  41.503   8.728   7.628
  426POPC   C1B 8839  41.492   9.275   8.677
  426POPC   C2B 8840  41.587   9.194   8.250
  426POPC   C3B 8841  41.562   9.192   7.819
  426POPC   C4B 8842  41.199   9.155   7.573
  427POPC   NC3 8843  32.348  44.032   9.565
  427POPC   PO4 8844  32.318  43.384   9.740
  427POPC   GL1 8845  32.516  43.600   9.321
  427POPC   GL2 8846  32.284  43.827   9.076
  427POPC   C1A 8847  32.674  43.639   8.865
  427POPC   D2A 8848  32.398  43.529   8.458
  427POPC   C3A 8849  32.391  43.842   8.104
  427POPC   C4A 8850  32.382  44.221   7.831
  427POPC   C1B 8851  31.989  43.711   8.712
  427POPC   C2B 8852  31.848  43.873   8.274
  427POPC   C3B 8853  31.932  43.961   7.795
  427POPC   C4B 8854  31.956  43.748   7.371
  428POPC   NC3 8855  31.986  22.683   9.592
  428POPC   PO4 8856  32.518  23.152   9.616
  428POPC   GL1 8857  32.404  22.869   9.320
  428POPC   GL2 8858  32.088  23.021   9.220
  428POPC   C1A 8859  32.441  22.712   8.932
  428POPC   D2A 8860  32.419  22.778   8.535
  428POPC   C3A 8861  32.243  22.622   8.167
  428POPC   C4A 8862  32.475  22.849   7.832
  428POPC   C1B 8863  31.941  22.840   8.851
  428POPC   C2B 8864  31.971  22.969   8.438
  428POPC   C3B 8865  32.027  23.064   8.024
  428POPC   C4B 8866  31.968  22.857   7.682
  429POPC   NC3 8867  43.474  11.908   9.587
  429POPC   PO4 8868  43.017  12.318   9.454
  429POPC   GL1 8869  43.141  11.958   9.201
  429POPC   GL2 8870  42.946  12.167   8.962
  429POPC   C1A 8871  43.312  11.829   8.800
  429POPC   D2A 8872  43.230  12.083   8.418
  429POPC   C3A 8873  43.110  11.873   8.046
  429POPC   C4A 8874  43.272  11.896   7.631
  429POPC   C1B 8875  42.626  12.347   8.705
  429POPC   C2B 8876  42.663  12.108   8.396
  429POPC   C3B 8877  42.694  12.248   8.055
  429POPC   C4B 8878  42.865  12.183   7.700
  430POPC   NC3 8879  21.074  43.726   9.453
  430POPC   PO4 8880  21.667  44.050   9.418
  430POPC   GL1 8881  21.519  43.772   9.120
  430POPC   GL2 8882  21.251  43.976   9.041
  430POPC   C1A 8883  21.708  43.725   8.718
  430POPC   D2A 8884  21.971  43.953   8.427
  430POPC   C3A 8885  21.759  44.054   7.999
  430POPC   C4A 8886  21.276  44.093   7.914
  430POPC   C1B 8887  21.217  43.785   8.657
  430POPC   C2B 8888  21.422  43.734   8.263
  430POPC   C3B 8889  21.160  43.583   7.941
  430POPC   C4B 8890  20.748  43.506   7.880
  431POPC   NC3 8891  36.856  35.898   9.628
  431POPC   PO4 8892  37.233  36.415   9.502
  431POPC   GL1 8893  37.035  36.098   9.189
  431POPC   GL2 8894  36.720  36.075   9.088
  431POPC   C1A 8895  37.146  35.752   8.857
  431POPC   D2A 8896  37.237  35.852   8.402
  431POPC   C3A 8897  37.066  35.850   7.961
  431POPC   C4A 8898  37.145  36.037   7.538
  431POPC   C1B 8899  36.867  36.128   8.692
  431POPC   C2B 8900  36.688  36.116   8.316
  431POPC   C3B 8901  36.545  35.922   7.991
  431POPC   C4B 8902  36.655  36.077   7.649
  432POPC   NC3 8903  44.464  15.063   9.574
  432POPC   PO4 8904   0.067  15.005   9.499
  432POPC   GL1 8905  44.831  15.274   9.184
  432POPC   GL2 8906  44.523  15.107   9.085
  432POPC   C1A 8907  44.648  15.453   8.751
  432POPC   D2A 8908  44.583  15.245   8.332
  432POPC   C3A 8909  44.695  15.435   7.930
  432POPC   C4A 8910  44.757  15.151   7.573
  432POPC   C1B 8911  44.357  14.764   8.854
  432POPC   C2B 8912  44.153  14.759   8.462
  432POPC   C3B 8913  44.205  14.945   8.069
  432POPC   C4B 8914  44.413  14.833   7.715
  433POPC   NC3 8915  24.838  35.991   9.542
  433POPC   PO4 8916  24.380  36.447   9.410
  433POPC   GL1 8917  24.565  36.125   9.121
  433POPC   GL2 8918  24.540  35.774   9.158
  433POPC   C1A 8919  24.720  36.102   8.702
  433POPC   D2A 8920  24.491  36.327   8.373
  433POPC   C3A 8921  24.462  36.418   7.930
  433POPC   C4A 8922  24.074  36.295   7.711
  433POPC   C1B 8923  24.531  35.594   8.791
  433POPC   C2B 8924  24.633  35.686   8.415
  433POPC   C3B 8925  24.534  35.876   8.049
  433POPC   C4B 8926  24.798  36.065   7.757
  434POPC   NC3 8927  40.680   0.920   9.540
  434POPC   PO4 8928  40.323   1.552   9.510
  434POPC   GL1 8929  40.464   1.286   9.193
  434POPC   GL2 8930  40.820   1.354   9.171
  434POPC   C1A 8931  40.602   1.125   8.787
  434POPC   D2A 8932  40.921   0.974   8.535
  434POPC   C3A 8933  40.918   1.016   8.109
  434POPC   C4A 8934  40.698   1.209   7.770
  434POPC   C1B 8935  41.093   1.372   8.778
  434POPC   C2B 8936  41.244   1.415   8.357
  434POPC   C3B 8937  41.172   1.410   7.909
  434POPC   C4B 8938  41.124   1.631   7.526
  435POPC   NC3 8939  25.572  44.965   9.419
  435POPC   PO4 8940  24.959  44.560   9.517
  435POPC   GL1 8941  25.037  44.458   9.099
  435POPC   GL2 8942  25.387  44.572   9.090
  435POPC   C1A 8943  25.094  44.626   8.667
  435POPC   D2A 8944  25.380  44.823   8.352
  435POPC   C3A 8945  25.224  44.806   7.957
  435POPC   C4A 8946  25.068  44.403   7.872
  435POPC   C1B 8947  25.632  44.528   8.739
  435POPC   C2B 8948  25.880  44.351   8.418
  435POPC   C3B 8949  25.744  44.298   8.002
  435POPC   C4B 8950  25.572  44.546   7.693
  436POPC   NC3 8951  24.609  34.335   9.762
  436POPC   PO4 8952  24.261  33.783   9.473
  436POPC   GL1 8953  24.609  33.754   9.183
  436POPC   GL2 8954  24.583  33.441   9.042
  436POPC   C1A 8955  24.745  33.878   8.737
  436POPC   D2A 8956  24.467  34.072   8.403
  436POPC   C3A 8957  24.568  33.859   8.020
  436POPC   C4A 8958  24.720  33.927   7.601
  436POPC   C1B 8959  24.310  33.631   8.789
  436POPC   C2B 8960  24.394  33.551   8.408
  436POPC   C3B 8961  24.419  33.350   8.055
  436POPC   C4B 8962  24.378  33.537   7.660
  437POPC   NC3 8963  13.090  43.463   9.458
  437POPC   PO4 8964  12.659  43.918   9.576
  437POPC   GL1 8965  12.705  43.712   9.206
  437POPC   GL2 8966  13.035  43.877   9.166
  437POPC   C1A 8967  12.704  43.845   8.788
  437POPC   D2A 8968  12.835  43.689   8.395
  437POPC   C3A 8969  12.622  43.828   8.062
  437POPC   C4A 8970  12.632  43.747   7.621
  437POPC   C1B 8971  13.225  43.775   8.765
  437POPC   C2B 8972  13.284  43.900   8.329
  437POPC   C3B 8973  13.123  43.794   7.902
  437POPC   C4B 8974  13.079  43.872   7.431
  438POPC   NC3 8975  11.389   3.127   9.555
  438POPC   PO4 8976  11.410   2.467   9.480
  438POPC   GL1 8977  11.284   2.807   9.186
  438POPC   GL2 8978  11.648   2.913   9.163
  438POPC   C1A 8979  11.138   3.017   8.786
  438POPC   D2A 8980  10.956   3.160   8.387
  438POPC   C3A 8981  11.194   3.032   7.991
  438POPC   C4A 8982  11.086   2.668   7.734
  438POPC   C1B 8983  11.548   2.697   8.776
  438POPC   C2B 8984  11.435   2.788   8.372
  438POPC   C3B 8985  11.514   2.559   8.001
  438POPC   C4B 8986  11.560   2.680   7.564
  439POPC   NC3 8987  44.126  17.584   9.631
  439POPC   PO4 8988  43.490  17.517   9.459
  439POPC   GL1 8989  43.794  17.672   9.183
  439POPC   GL2 8990  44.115  17.495   9.119
  439POPC   C1A 8991  43.806  17.628   8.743
  439POPC   D2A 8992  44.003  17.497   8.388
  439POPC   C3A 8993  43.731  17.574   8.089
  439POPC   C4A 8994  43.923  17.861   7.825
  439POPC   C1B 8995  44.053  17.167   8.777
  439POPC   C2B 8996  44.194  17.024   8.347
  439POPC   C3B 8997  44.118  17.192   7.914
  439POPC   C4B 8998  44.222  17.347   7.481
  440POPC   NC3 8999  35.467  18.099   9.661
  440POPC   PO4 9000  35.365  17.435   9.593
  440POPC   GL1 9001  35.288  17.510   9.177
  440POPC   GL2 9002  35.298  17.858   9.229
  440POPC   C1A 9003  35.518  17.586   8.802
  440POPC   D2A 9004  35.405  17.489   8.393
  440POPC   C3A 9005  35.614  17.267   8.125
  440POPC   C4A 9006  35.433  17.426   7.769
  440POPC   C1B 9007  35.180  17.966   8.843
  440POPC   C2B 9008  35.099  17.889   8.451
  440POPC   C3B 9009  35.182  17.805   8.029
  440POPC   C4B 9010  35.000  17.817   7.618
  441POPC   NC3 9011   7.596   9.086   9.612
  441POPC   PO4 9012   7.155   8.663   9.575
  441POPC   GL1 9013   6.948   8.768   9.179
  441POPC   GL2 9014   7.127   9.066   9.162
  441POPC   C1A 9015   7.123   8.780   8.735
  441POPC   D2A 9016   7.488   8.810   8.438
  441POPC   C3A 9017   7.405   8.867   7.980
  441POPC   C4A 9018   7.728   9.124   7.755
  441POPC   C1B 9019   7.229   9.282   8.821
  441POPC   C2B 9020   7.163   9.211   8.417
  441POPC   C3B 9021   7.432   9.358   8.121
  441POPC   C4B 9022   7.234   9.366   7.776
  442POPC   NC3 9023   8.768  25.737   9.419
  442POPC   PO4 9024   9.099  25.106   9.498
  442POPC   GL1 9025   9.054  25.363   9.195
  442POPC   GL2 9026   8.681  25.268   9.216
  442POPC   C1A 9027   9.311  25.338   8.827
  442POPC   D2A 9028   9.417  25.461   8.426
  442POPC   C3A 9029   9.346  25.211   8.114
  442POPC   C4A 9030   9.200  25.263   7.732
  442POPC   C1B 9031   8.747  25.400   8.811
  442POPC   C2B 9032   8.936  25.272   8.458
  442POPC   C3B 9033   8.823  25.337   8.050
  442POPC   C4B 9034   8.738  25.624   7.703
  443POPC   NC3 9035  22.873   4.785   9.376
  443POPC   PO4 9036  22.971   5.499   9.484
  443POPC   GL1 9037  23.075   5.225   9.136
  443POPC   GL2 9038  22.738   5.152   9.063
  443POPC   C1A 9039  23.080   5.039   8.699
  443POPC   D2A 9040  23.165   4.782   8.338
  443POPC   C3A 9041  23.052   4.834   7.888
  443POPC   C4A 9042  22.898   5.182   7.574
  443POPC   C1B 9043  22.592   4.835   8.735
  443POPC   C2B 9044  22.671   4.752   8.273
  443POPC   C3B 9045  22.532   4.910   7.874
  443POPC   C4B 9046  22.561   4.821   7.425
  444POPC   NC3 9047  21.185   1.864   9.612
  444POPC   PO4 9048  21.629   2.305   9.435
  444POPC   GL1 9049  21.491   2.042   9.071
  444POPC   GL2 9050  21.231   1.798   9.117
  444POPC   C1A 9051  21.324   2.022   8.634
  444POPC   D2A 9052  21.132   2.319   8.326
  444POPC   C3A 9053  21.082   2.170   7.898
  444POPC   C4A 9054  21.375   2.113   7.575
  444POPC   C1B 9055  21.158   1.528   8.767
  444POPC   C2B 9056  21.293   1.570   8.360
  444POPC   C3B 9057  21.294   1.718   7.930
  444POPC   C4B 9058  20.972   1.759   7.575
  445POPC   NC3 9059   8.619  19.368   9.547
  445POPC   PO4 9060   8.051  19.026   9.535
  445POPC   GL1 9061   8.164  18.930   9.135
  445POPC   GL2 9062   8.222  19.272   9.072
  445POPC   C1A 9063   7.947  18.752   8.777
  445POPC   D2A 9064   7.652  18.843   8.441
  445POPC   C3A 9065   7.769  18.815   8.012
  445POPC   C4A 9066   8.058  18.994   7.722
  445POPC   C1B 9067   8.197  19.167   8.652
  445POPC   C2B 9068   8.096  19.149   8.223
  445POPC   C3B 9069   8.274  19.419   7.915
  445POPC   C4B 9070   8.573  19.432   7.578
  446POPC   NC3 9071  18.406  23.942   9.472
  446POPC   PO4 9072  17.895  23.545   9.715
  446POPC   GL1 9073  17.962  23.785   9.285
  446POPC   GL2 9074  18.245  23.612   9.108
  446POPC   C1A 9075  17.956  23.868   8.807
  446POPC   D2A 9076  17.963  23.629   8.410
  446POPC   C3A 9077  18.039  23.812   7.973
  446POPC   C4A 9078  18.019  23.904   7.518
  446POPC   C1B 9079  18.480  23.859   8.797
  446POPC   C2B 9080  18.334  24.008   8.403
  446POPC   C3B 9081  18.532  23.889   8.006
  446POPC   C4B 9082  18.496  23.564   7.692
  447POPC   NC3 9083   8.706  21.746   9.426
  447POPC   PO4 9084   8.963  22.334   9.601
  447POPC   GL1 9085   9.015  22.090   9.236
  447POPC   GL2 9086   8.715  22.196   9.073
  447POPC   C1A 9087   9.051  21.900   8.834
  447POPC   D2A 9088   8.861  22.084   8.486
  447POPC   C3A 9089   8.989  21.934   8.095
  447POPC   C4A 9090   8.882  22.092   7.711
  447POPC   C1B 9091   9.065  22.426   8.858
  447POPC   C2B 9092   9.204  22.510   8.459
  447POPC   C3B 9093   9.063  22.453   8.071
  447POPC   C4B 9094   9.069  22.602   7.685
  448POPC   NC3 9095  14.037  39.032   9.512
  448POPC   PO4 9096  14.542  38.508   9.554
  448POPC   GL1 9097  14.484  38.467   9.145
  448POPC   GL2 9098  14.480  38.835   9.150
  448POPC   C1A 9099  14.611  38.264   8.759
  448POPC   D2A 9100  14.692  38.222   8.336
  448POPC   C3A 9101  14.415  38.242   8.041
  448POPC   C4A 9102  14.475  38.440   7.652
  448POPC   C1B 9103  14.815  38.755   8.867
  448POPC   C2B 9104  14.620  38.702   8.485
  448POPC   C3B 9105  14.576  38.735   8.077
  448POPC   C4B 9106  14.706  38.902   7.705
  449POPC   NC3 9107  26.415  21.367   9.486
  449POPC   PO4 9108  27.116  21.265   9.472
  449POPC   GL1 9109  26.794  21.318   9.147
  449POPC   GL2 9110  26.739  21.655   9.150
  449POPC   C1A 9111  26.574  21.309   8.746
  449POPC   D2A 9112  26.866  21.269   8.411
  449POPC   C3A 9113  26.925  21.495   8.043
  449POPC   C4A 9114  26.809  21.390   7.636
  449POPC   C1B 9115  26.926  21.691   8.747
  449POPC   C2B 9116  27.253  21.629   8.451
  449POPC   C3B 9117  27.342  21.763   8.033
  449POPC   C4B 9118  27.117  21.832   7.623
  450POPC   NC3 9119  41.776  28.434   9.751
  450POPC   PO4 9120  41.212  28.299   9.391
  450POPC   GL1 9121  41.633  28.422   9.240
  450POPC   GL2 9122  41.886  28.143   9.295
  450POPC   C1A 9123  41.714  28.599   8.823
  450POPC   D2A 9124  41.624  28.451   8.399
  450POPC   C3A 9125  41.552  28.694   8.034
  450POPC   C4A 9126  41.734  28.603   7.614
  450POPC   C1B 9127  41.994  28.162   8.843
  450POPC   C2B 9128  42.106  28.266   8.381
  450POPC   C3B 9129  41.839  28.198   7.984
  450POPC   C4B 9130  41.393  28.263   7.834
  451POPC   NC3 9131  15.820   8.411   9.636
  451POPC   PO4 9132  15.897   9.139   9.520
  451POPC   GL1 9133  15.848   9.036   9.094
  451POPC   GL2 9134  16.188   9.011   9.092
  451POPC   C1A 9135  16.000   8.795   8.682
  451POPC   D2A 9136  15.995   8.516   8.285
  451POPC   C3A 9137  15.876   8.802   7.950
  451POPC   C4A 9138  15.954   9.052   7.605
  451POPC   C1B 9139  16.100   9.294   8.735
  451POPC   C2B 9140  16.064   9.147   8.322
  451POPC   C3B 9141  16.122   9.385   7.967
  451POPC   C4B 9142  16.417   9.409   7.680
  452POPC   NC3 9143   3.757   3.901   9.285
  452POPC   PO4 9144   3.288   3.498   9.584
  452POPC   GL1 9145   3.417   3.512   9.154
  452POPC   GL2 9146   3.216   3.823   9.136
  452POPC   C1A 9147   3.747   3.421   8.801
  452POPC   D2A 9148   3.906   3.509   8.356
  452POPC   C3A 9149   3.578   3.495   8.034
  452POPC   C4A 9150   3.503   3.214   7.712
  452POPC   C1B 9151   3.354   3.935   8.725
  452POPC   C2B 9152   3.548   3.913   8.329
  452POPC   C3B 9153   3.433   3.981   7.889
  452POPC   C4B 9154   3.562   3.693   7.550
  453POPC   NC3 9155  32.584  34.987   9.700
  453POPC   PO4 9156  32.306  35.640   9.662
  453POPC   GL1 9157  32.363  35.351   9.276
  453POPC   GL2 9158  32.698  35.169   9.242
  453POPC   C1A 9159  32.087  35.412   8.882
  453POPC   D2A 9160  32.086  35.588   8.450
  453POPC   C3A 9161  31.862  35.344   8.132
  453POPC   C4A 9162  32.008  35.022   7.842
  453POPC   C1B 9163  32.500  35.100   8.852
  453POPC   C2B 9164  32.298  35.084   8.451
  453POPC   C3B 9165  32.372  35.313   8.080
  453POPC   C4B 9166  32.495  35.137   7.707
  454POPC   NC3 9167  14.765  30.197   9.483
  454POPC   PO4 9168  14.192  29.779   9.364
  454POPC   GL1 9169  14.198  30.014   9.038
  454POPC   GL2 9170  14.560  30.098   9.027
  454POPC   C1A 9171  14.325  29.814   8.702
  454POPC   D2A 9172  14.709  29.696   8.567
  454POPC   C3A 9173  14.677  29.702   8.137
  454POPC   C4A 9174  14.371  29.765   7.847
  454POPC   C1B 9175  14.340  30.318   8.667
  454POPC   C2B 9176  14.552  30.167   8.356
  454POPC   C3B 9177  14.906  30.217   8.144
  454POPC   C4B 9178  14.723  30.188   7.787
  455POPC   NC3 9179  44.468  14.303   9.484
  455POPC   PO4 9180   0.085  14.353   9.639
  455POPC   GL1 9181  44.919  14.321   9.237
  455POPC   GL2 9182  44.767  14.666   9.243
  455POPC   C1A 9183  44.651  14.336   8.849
  455POPC   D2A 9184  44.697  14.218   8.424
  455POPC   C3A 9185  44.476  14.451   8.105
  455POPC   C4A 9186  44.519  14.309   7.695
  455POPC   C1B 9187  44.880  14.841   8.840
  455POPC   C2B 9188  44.747  14.750   8.437
  455POPC   C3B 9189  44.836  14.858   8.009
  455POPC   C4B 9190  44.881  14.672   7.590
  456POPC   NC3 9191   7.570   4.160   9.680
  456POPC   PO4 9192   7.098   4.042   9.287
  456POPC   GL1 9193   7.400   4.196   9.082
  456POPC   GL2 9194   7.620   4.426   9.250
  456POPC   C1A 9195   7.455   4.094   8.664
  456POPC   D2A 9196   7.455   4.038   8.260
  456POPC   C3A 9197   7.419   4.413   8.065
  456POPC   C4A 9198   7.283   4.454   7.676
  456POPC   C1B 9199   7.846   4.329   8.868
  456POPC   C2B 9200   7.841   4.334   8.444
  456POPC   C3B 9201   7.944   4.472   8.066
  456POPC   C4B 9202   7.745   4.664   7.749
  457POPC   NC3 9203  37.248   4.571   9.826
  457POPC   PO4 9204  36.748   4.908   9.481
  457POPC   GL1 9205  36.992   5.081   9.131
  457POPC   GL2 9206  37.322   5.217   9.247
  457POPC   C1A 9207  37.066   4.935   8.715
  457POPC   D2A 9208  37.388   4.888   8.399
  457POPC   C3A 9209  37.137   4.924   8.054
  457POPC   C4A 9210  36.758   5.166   8.049
  457POPC   C1B 9211  37.413   5.277   8.807
  457POPC   C2B 9212  37.180   5.382   8.419
  457POPC   C3B 9213  37.253   5.431   7.989
  457POPC   C4B 9214  37.037   5.203   7.625
  458POPC   NC3 9215  30.520  40.840   9.923
  458POPC   PO4 9216  30.932  40.524   9.488
  458POPC   GL1 9217  30.731  40.693   9.138
  458POPC   GL2 9218  30.471  40.852   9.281
  458POPC   C1A 9219  30.608  40.696   8.685
  458POPC   D2A 9220  30.852  40.536   8.339
  458POPC   C3A 9221  30.868  40.570   7.903
  458POPC   C4A 9222  30.495  40.653   7.705
  458POPC   C1B 9223  30.522  41.153   8.931
  458POPC   C2B 9224  30.513  41.181   8.504
  458POPC   C3B 9225  30.588  40.944   8.123
  458POPC   C4B 9226  30.823  41.068   7.740
  459POPC   NC3 9227  22.630  31.077   9.388
  459POPC   PO4 9228  22.764  30.416   9.462
  459POPC   GL1 9229  22.973  30.712   9.152
  459POPC   GL2 9230  23.138  30.418   9.097
  459POPC   C1A 9231  23.000  31.008   8.795
  459POPC   D2A 9232  22.838  30.933   8.372
  459POPC   C3A 9233  22.968  30.789   7.930
  459POPC   C4A 9234  23.266  30.817   7.599
  459POPC   C1B 9235  23.090  30.531   8.691
  459POPC   C2B 9236  23.193  30.579   8.332
  459POPC   C3B 9237  22.823  30.384   8.183
  459POPC   C4B 9238  22.839  30.315   7.764
  460POPC   NC3 9239  14.571  43.211   9.392
  460POPC   PO4 9240  14.198  42.671   9.564
  460POPC   GL1 9241  14.458  42.755   9.188
  460POPC   GL2 9242  14.260  43.030   9.038
  460POPC   C1A 9243  14.573  42.804   8.738
  460POPC   D2A 9244  14.204  42.966   8.507
  460POPC   C3A 9245  14.343  42.953   8.108
  460POPC   C4A 9246  14.428  42.726   7.757
  460POPC   C1B 9247  14.467  43.342   8.738
  460POPC   C2B 9248  14.287  43.457   8.326
  460POPC   C3B 9249  14.276  43.397   7.903
  460POPC   C4B 9250  14.589  43.198   7.619
  461POPC   NC3 9251  16.475  36.203   9.660
  461POPC   PO4 9252  17.050  36.233   9.448
  461POPC   GL1 9253  16.749  36.114   9.176
  461POPC   GL2 9254  16.425  36.275   9.167
  461POPC   C1A 9255  16.689  35.885   8.798
  461POPC   D2A 9256  16.634  36.032   8.390
  461POPC   C3A 9257  16.899  35.824   8.109
  461POPC   C4A 9258  16.835  35.896   7.694
  461POPC   C1B 9259  16.624  36.411   8.769
  461POPC   C2B 9260  16.804  36.523   8.384
  461POPC   C3B 9261  16.817  36.358   7.956
  461POPC   C4B 9262  16.702  36.566   7.568
  462POPC   NC3 9263  24.898   3.582   9.823
  462POPC   PO4 9264  25.590   3.522   9.596
  462POPC   GL1 9265  25.375   3.485   9.227
  462POPC   GL2 9266  25.104   3.711   9.306
  462POPC   C1A 9267  25.339   3.437   8.786
  462POPC   D2A 9268  24.997   3.423   8.514
  462POPC   C3A 9269  25.193   3.429   8.118
  462POPC   C4A 9270  25.567   3.615   7.903
  462POPC   C1B 9271  25.113   3.879   8.883
  462POPC   C2B 9272  25.271   3.897   8.459
  462POPC   C3B 9273  25.102   3.948   8.055
  462POPC   C4B 9274  25.093   3.699   7.689
  463POPC   NC3 9275   7.642  28.409   9.613
  463POPC   PO4 9276   7.032  27.995   9.552
  463POPC   GL1 9277   7.387  28.226   9.194
  463POPC   GL2 9278   7.402  28.563   9.101
  463POPC   C1A 9279   7.337  28.226   8.738
  463POPC   D2A 9280   7.283  28.046   8.336
  463POPC   C3A 9281   7.540  28.146   8.012
  463POPC   C4A 9282   7.359  28.432   7.769
  463POPC   C1B 9283   7.518  28.714   8.726
  463POPC   C2B 9284   7.280  28.631   8.362
  463POPC   C3B 9285   7.224  28.873   8.005
  463POPC   C4B 9286   7.555  28.925   7.737
  464POPC   NC3 9287  38.763   0.336   9.450
  464POPC   PO4 9288  38.143   0.170   9.545
  464POPC   GL1 9289  38.337   0.285   9.143
  464POPC   GL2 9290  38.319   0.648   9.148
  464POPC   C1A 9291  38.587   0.421   8.761
  464POPC   D2A 9292  38.485   0.526   8.319
  464POPC   C3A 9293  38.720   0.336   7.968
  464POPC   C4A 9294  38.914   0.420   7.551
  464POPC   C1B 9295  38.113   0.586   8.744
  464POPC   C2B 9296  37.980   0.706   8.337
  464POPC   C3B 9297  38.106   0.536   7.923
  464POPC   C4B 9298  38.347   0.298   7.584
  465POPC   NC3 9299  16.822  26.950   9.479
  465POPC   PO4 9300  16.158  26.678   9.511
  465POPC   GL1 9301  16.466  26.687   9.216
  465POPC   GL2 9302  16.519  27.039   9.068
  465POPC   C1A 9303  16.577  26.590   8.822
  465POPC   D2A 9304  16.430  26.606   8.402
  465POPC   C3A 9305  16.601  26.495   7.989
  465POPC   C4A 9306  16.405  26.565   7.567
  465POPC   C1B 9307  16.751  27.022   8.650
  465POPC   C2B 9308  16.837  26.896   8.227
  465POPC   C3B 9309  16.632  26.968   7.806
  465POPC   C4B 9310  16.849  27.168   7.442
  466POPC   NC3 9311  42.033  33.461   9.495
  466POPC   PO4 9312  42.622  33.109   9.539
  466POPC   GL1 9313  42.386  32.967   9.176
  466POPC   GL2 9314  42.116  33.181   9.098
  466POPC   C1A 9315  42.433  32.980   8.736
  466POPC   D2A 9316  42.633  33.142   8.390
  466POPC   C3A 9317  42.473  32.982   8.020
  466POPC   C4A 9318  42.345  33.001   7.568
  466POPC   C1B 9319  42.029  33.413   8.755
  466POPC   C2B 9320  42.147  33.300   8.359
  466POPC   C3B 9321  42.073  33.276   7.942
  466POPC   C4B 9322  41.863  33.329   7.577
  467POPC   NC3 9323  22.608  13.241   9.581
  467POPC   PO4 9324  22.980  12.624   9.651
  467POPC   GL1 9325  23.048  12.841   9.226
  467POPC   GL2 9326  23.373  12.981   9.115
  467POPC   C1A 9327  22.953  13.002   8.794
  467POPC   D2A 9328  22.908  13.253   8.411
  467POPC   C3A 9329  23.005  12.996   8.084
  467POPC   C4A 9330  23.141  12.750   7.786
  467POPC   C1B 9331  23.439  12.701   8.758
  467POPC   C2B 9332  23.138  12.638   8.435
  467POPC   C3B 9333  23.033  12.371   8.094
  467POPC   C4B 9334  23.302  12.246   7.779
  468POPC   NC3 9335  23.412  13.830   9.503
  468POPC   PO4 9336  23.726  13.292   9.646
  468POPC   GL1 9337  23.839  13.561   9.305
  468POPC   GL2 9338  23.534  13.479   9.147
  468POPC   C1A 9339  23.930  13.597   8.843
  468POPC   D2A 9340  23.681  13.540   8.458
  468POPC   C3A 9341  23.930  13.683   8.132
  468POPC   C4A 9342  23.989  13.741   7.715
  468POPC   C1B 9343  23.481  13.863   8.836
  468POPC   C2B 9344  23.589  14.034   8.419
  468POPC   C3B 9345  23.504  13.911   7.974
  468POPC   C4B 9346  23.523  14.123   7.549
  469POPC   NC3 9347  34.006   3.749   9.487
  469POPC   PO4 9348  34.521   3.359   9.467
  469POPC   GL1 9349  34.423   3.630   9.137
  469POPC   GL2 9350  34.698   3.883   9.154
  469POPC   C1A 9351  34.347   3.423   8.732
  469POPC   D2A 9352  34.294   3.100   8.403
  469POPC   C3A 9353  34.377   3.220   7.983
  469POPC   C4A 9354  34.695   3.472   7.799
  469POPC   C1B 9355  34.788   3.687   8.747
  469POPC   C2B 9356  34.666   3.654   8.308
  469POPC   C3B 9357  34.758   3.979   7.998
  469POPC   C4B 9358  34.819   4.047   7.549
  470POPC   NC3 9359  37.623   3.709   9.482
  470POPC   PO4 9360  37.627   2.987   9.568
  470POPC   GL1 9361  37.591   3.164   9.155
  470POPC   GL2 9362  37.908   3.309   9.099
  470POPC   C1A 9363  37.589   3.233   8.696
  470POPC   D2A 9364  37.810   3.414   8.356
  470POPC   C3A 9365  37.684   3.361   7.923
  470POPC   C4A 9366  37.355   3.626   7.726
  470POPC   C1B 9367  37.917   3.670   8.807
  470POPC   C2B 9368  37.582   3.856   8.543
  470POPC   C3B 9369  37.630   3.835   8.113
  470POPC   C4B 9370  38.054   3.724   7.985
  471POPC   NC3 9371   2.277  43.319   9.623
  471POPC   PO4 9372   1.942  42.755   9.523
  471POPC   GL1 9373   1.956  42.965   9.135
  471POPC   GL2 9374   2.243  43.171   9.093
  471POPC   C1A 9375   2.068  42.843   8.704
  471POPC   D2A 9376   2.241  43.146   8.459
  471POPC   C3A 9377   2.247  43.137   8.039
  471POPC   C4A 9378   2.322  42.812   7.736
  471POPC   C1B 9379   1.895  43.329   8.793
  471POPC   C2B 9380   1.731  43.159   8.397
  471POPC   C3B 9381   1.762  43.343   7.989
  471POPC   C4B 9382   2.123  43.618   7.845
  472POPC   NC3 9383  41.312  16.408   9.338
  472POPC   PO4 9384  40.903  16.828   9.693
  472POPC   GL1 9385  40.815  16.701   9.288
  472POPC   GL2 9386  41.093  16.781   9.065
  472POPC   C1A 9387  40.617  16.827   8.901
  472POPC   D2A 9388  40.549  16.627   8.509
  472POPC   C3A 9389  40.741  16.827   8.133
  472POPC   C4A 9390  40.553  17.003   7.755
  472POPC   C1B 9391  40.999  16.453   8.736
  472POPC   C2B 9392  40.902  16.289   8.302
  472POPC   C3B 9393  40.895  16.417   7.853
  472POPC   C4B 9394  41.010  16.407   7.404
  473POPC   NC3 9395  27.145  29.152   9.213
  473POPC   PO4 9396  26.610  28.973   9.572
  473POPC   GL1 9397  26.558  29.030   9.148
  473POPC   GL2 9398  26.543  29.372   9.145
  473POPC   C1A 9399  26.613  28.819   8.745
  473POPC   D2A 9400  26.690  29.004   8.321
  473POPC   C3A 9401  26.645  29.042   7.872
  473POPC   C4A 9402  27.020  29.124   7.676
  473POPC   C1B 9403  26.733  29.308   8.733
  473POPC   C2B 9404  26.794  29.529   8.354
  473POPC   C3B 9405  26.699  29.556   7.951
  473POPC   C4B 9406  26.925  29.643   7.578
  474POPC   NC3 9407   5.162  39.582   9.496
  474POPC   PO4 9408   5.078  38.840   9.513
  474POPC   GL1 9409   5.106  39.161   9.170
  474POPC   GL2 9410   4.973  39.516   9.042
  474POPC   C1A 9411   5.282  39.224   8.756
  474POPC   D2A 9412   5.059  39.440   8.457
  474POPC   C3A 9413   5.205  39.400   8.076
  474POPC   C4A 9414   5.355  39.051   7.884
  474POPC   C1B 9415   4.750  39.215   8.813
  474POPC   C2B 9416   4.587  38.927   8.530
  474POPC   C3B 9417   4.604  38.972   8.117
  474POPC   C4B 9418   4.852  39.121   7.791
  475POPC   NC3 9419  20.966  26.354   9.479
  475POPC   PO4 9420  21.581  25.966   9.523
  475POPC   GL1 9421  21.505  25.955   9.113
  475POPC   GL2 9422  21.157  25.938   9.089
  475POPC   C1A 9423  21.637  25.936   8.693
  475POPC   D2A 9424  21.598  25.858   8.281
  475POPC   C3A 9425  21.372  26.121   8.012
  475POPC   C4A 9426  21.211  26.024   7.629
  475POPC   C1B 9427  21.183  25.723   8.713
  475POPC   C2B 9428  21.073  25.822   8.322
  475POPC   C3B 9429  21.219  25.629   7.948
  475POPC   C4B 9430  21.666  25.574   7.866
  476POPC   NC3 9431  22.669   5.395   9.867
  476POPC   PO4 9432  22.157   5.793   9.640
  476POPC   GL1 9433  22.229   5.834   9.198
  476POPC   GL2 9434  22.558   5.661   9.150
  476POPC   C1A 9435  22.050   6.108   8.845
  476POPC   D2A 9436  22.174   6.333   8.453
  476POPC   C3A 9437  22.300   6.116   8.111
  476POPC   C4A 9438  22.011   5.906   7.846
  476POPC   C1B 9439  22.446   5.818   8.719
  476POPC   C2B 9440  22.324   5.634   8.323
  476POPC   C3B 9441  22.486   5.688   7.892
  476POPC   C4B 9442  22.563   6.100   7.643
  477POPC   NC3 9443  25.858   5.529   9.471
  477POPC   PO4 9444  26.387   5.982   9.428
  477POPC   GL1 9445  26.042   5.909   9.171
  477POPC   GL2 9446  26.240   5.611   9.105
  477POPC   C1A 9447  25.892   5.767   8.756
  477POPC   D2A 9448  26.082   5.748   8.360
  477POPC   C3A 9449  25.844   5.776   7.986
  477POPC   C4A 9450  25.705   6.055   7.705
  477POPC   C1B 9451  26.381   5.937   8.777
  477POPC   C2B 9452  26.410   6.168   8.399
  477POPC   C3B 9453  26.375   5.989   7.993
  477POPC   C4B 9454  26.287   5.562   7.897
  478POPC   NC3 9455  19.526  38.589   9.420
  478POPC   PO4 9456  20.153  38.319   9.657
  478POPC   GL1 9457  20.090  38.189   9.212
  478POPC   GL2 9458  19.791  38.321   9.068
  478POPC   C1A 9459  20.181  38.266   8.767
  478POPC   D2A 9460  19.972  38.439   8.402
  478POPC   C3A 9461  20.122  38.237   8.021
  478POPC   C4A 9462  19.951  38.133   7.617
  478POPC   C1B 9463  19.704  38.075   8.684
  478POPC   C2B 9464  19.621  38.127   8.218
  478POPC   C3B 9465  19.652  38.493   7.945
  478POPC   C4B 9466  19.835  38.634   7.553
  479POPC   NC3 9467  20.720  37.287   9.390
  479POPC   PO4 9468  20.627  37.946   9.449
  479POPC   GL1 9469  20.388  37.777   9.120
  479POPC   GL2 9470  20.371  37.429   9.067
  479POPC   C1A 9471  20.460  37.833   8.696
  479POPC   D2A 9472  20.585  37.998   8.307
  479POPC   C3A 9473  20.483  37.691   8.014
  479POPC   C4A 9474  20.503  37.540   7.574
  479POPC   C1B 9475  20.730  37.419   8.756
  479POPC   C2B 9476  20.895  37.567   8.320
  479POPC   C3B 9477  20.893  37.421   7.872
  479POPC   C4B 9478  20.967  37.321   7.395
  480POPC   NC3 9479  28.253  12.670   9.526
  480POPC   PO4 9480  28.544  13.296   9.379
  480POPC   GL1 9481  28.521  12.845   9.119
  480POPC   GL2 9482  28.252  12.529   9.058
  480POPC   C1A 9483  28.560  12.673   8.688
  480POPC   D2A 9484  28.382  12.898   8.362
  480POPC   C3A 9485  28.255  12.798   7.976
  480POPC   C4A 9486  28.459  12.750   7.592
  480POPC   C1B 9487  28.088  12.363   8.703
  480POPC   C2B 9488  28.305  12.378   8.295
  480POPC   C3B 9489  28.661  12.487   8.038
  480POPC   C4B 9490  28.780  12.321   7.648
  481POPC   NC3 9491  25.868  16.455   9.843
  481POPC   PO4 9492  25.297  16.637   9.495
  481POPC   GL1 9493  25.250  16.796   9.115
  481POPC   GL2 9494  25.594  16.766   9.042
  481POPC   C1A 9495  25.057  17.000   8.772
  481POPC   D2A 9496  25.205  17.095   8.348
  481POPC   C3A 9497  24.997  16.980   7.973
  481POPC   C4A 9498  25.172  16.794   7.638
  481POPC   C1B 9499  25.430  16.676   8.643
  481POPC   C2B 9500  25.118  16.406   8.476
  481POPC   C3B 9501  25.134  16.366   8.033
  481POPC   C4B 9502  25.266  16.300   7.604
  482POPC   NC3 9503  24.217  23.205   9.363
  482POPC   PO4 9504  24.707  22.739   9.312
  482POPC   GL1 9505  24.669  22.970   8.940
  482POPC   GL2 9506  24.604  23.297   8.958
  482POPC   C1A 9507  24.739  23.050   8.503
  482POPC   D2A 9508  24.435  23.004   8.182
  482POPC   C3A 9509  24.545  22.821   7.801
  482POPC   C4A 9510  24.214  22.557   7.715
  482POPC   C1B 9511  24.360  23.414   8.625
  482POPC   C2B 9512  24.572  23.505   8.253
  482POPC   C3B 9513  24.744  23.310   7.900
  482POPC   C4B 9514  24.685  23.211   7.456
  483POPC   NC3 9515  29.722  11.496   9.455
  483POPC   PO4 9516  30.304  10.973   9.352
  483POPC   GL1 9517  29.935  11.160   9.141
  483POPC   GL2 9518  30.014  10.924   8.949
  483POPC   C1A 9519  29.678  11.230   8.744
  483POPC   D2A 9520  29.791  11.431   8.372
  483POPC   C3A 9521  29.690  11.257   8.010
  483POPC   C4A 9522  29.833  11.287   7.598
  483POPC   C1B 9523  30.176  11.154   8.653
  483POPC   C2B 9524  30.041  10.999   8.277
  483POPC   C3B 9525  30.193  11.159   7.916
  483POPC   C4B 9526  30.346  11.064   7.507
  484POPC   NC3 9527  24.763  29.832   9.448
  484POPC   PO4 9528  24.154  30.112   9.456
  484POPC   GL1 9529  24.450  30.122   9.165
  484POPC   GL2 9530  24.302  29.787   9.083
  484POPC   C1A 9531  24.649  30.002   8.793
  484POPC   D2A 9532  24.402  29.978   8.433
  484POPC   C3A 9533  24.610  29.987   8.060
  484POPC   C4A 9534  24.744  29.920   7.688
  484POPC   C1B 9535  24.417  29.545   8.726
  484POPC   C2B 9536  24.599  29.520   8.309
  484POPC   C3B 9537  24.270  29.615   8.013
  484POPC   C4B 9538  24.270  29.790   7.589
  485POPC   NC3 9539  29.209  10.943   9.441
  485POPC   PO4 9540  29.422  10.344   9.458
  485POPC   GL1 9541  29.174  10.529   9.117
  485POPC   GL2 9542  28.816  10.433   9.157
  485POPC   C1A 9543  29.223  10.410   8.678
  485POPC   D2A 9544  29.039  10.333   8.277
  485POPC   C3A 9545  29.225  10.614   7.948
  485POPC   C4A 9546  29.373  10.626   7.495
  485POPC   C1B 9547  28.798  10.665   8.777
  485POPC   C2B 9548  28.888  10.817   8.343
  485POPC   C3B 9549  28.785  10.849   7.877
  485POPC   C4B 9550  28.482  11.034   7.598
  486POPC   NC3 9551  34.099  22.034   9.538
  486POPC   PO4 9552  33.670  22.497   9.539
  486POPC   GL1 9553  33.808  22.280   9.198
  486POPC   GL2 9554  33.726  21.918   9.217
  486POPC   C1A 9555  33.835  22.378   8.794
  486POPC   D2A 9556  33.531  22.490   8.495
  486POPC   C3A 9557  33.510  22.142   8.210
  486POPC   C4A 9558  33.804  22.081   7.894
  486POPC   C1B 9559  33.977  21.852   8.880
  486POPC   C2B 9560  33.955  21.693   8.485
  486POPC   C3B 9561  34.172  21.709   8.133
  486POPC   C4B 9562  34.055  21.678   7.733
  487POPC   NC3 9563   4.721  35.331   9.653
  487POPC   PO4 9564   5.150  34.859   9.366
  487POPC   GL1 9565   5.280  35.233   9.165
  487POPC   GL2 9566   5.079  35.522   9.233
  487POPC   C1A 9567   5.286  35.238   8.717
  487POPC   D2A 9568   5.202  34.910   8.387
  487POPC   C3A 9569   5.081  35.134   8.035
  487POPC   C4A 9570   4.746  35.160   7.780
  487POPC   C1B 9571   5.047  35.754   8.839
  487POPC   C2B 9572   5.107  35.625   8.418
  487POPC   C3B 9573   4.994  35.704   8.028
  487POPC   C4B 9574   5.128  35.507   7.671
  488POPC   NC3 9575  11.720  17.361   9.532
  488POPC   PO4 9576  12.349  17.536   9.562
  488POPC   GL1 9577  12.106  17.489   9.198
  488POPC   GL2 9578  11.821  17.714   9.101
  488POPC   C1A 9579  12.056  17.342   8.791
  488POPC   D2A 9580  12.096  17.572   8.404
  488POPC   C3A 9581  12.048  17.408   7.983
  488POPC   C4A 9582  12.206  17.692   7.719
  488POPC   C1B 9583  11.628  17.559   8.687
  488POPC   C2B 9584  11.613  17.528   8.237
  488POPC   C3B 9585  11.673  17.772   7.876
  488POPC   C4B 9586  11.796  17.677   7.436
  489POPC   NC3 9587  21.282  27.976   9.742
  489POPC   PO4 9588  21.428  27.297   9.651
  489POPC   GL1 9589  21.514  27.293   9.156
  489POPC   GL2 9590  21.696  27.534   8.993
  489POPC   C1A 9591  21.257  27.354   8.730
  489POPC   D2A 9592  21.341  27.371   8.266
  489POPC   C3A 9593  21.053  27.377   7.920
  489POPC   C4A 9594  21.420  27.518   7.735
  489POPC   C1B 9595  21.656  27.623   8.568
  489POPC   C2B 9596  21.693  27.870   8.196
  489POPC   C3B 9597  21.591  27.999   7.779
  489POPC   C4B 9598  21.630  27.804   7.363
  490POPC   NC3 9599   3.030  37.243   9.348
  490POPC   PO4 9600   3.519  37.749   9.499
  490POPC   GL1 9601   3.425  37.755   9.096
  490POPC   GL2 9602   3.432  37.432   9.080
  490POPC   C1A 9603   3.573  37.695   8.662
  490POPC   D2A 9604   3.351  37.655   8.254
  490POPC   C3A 9605   3.588  37.847   7.906
  490POPC   C4A 9606   3.851  37.601   7.609
  490POPC   C1B 9607   3.192  37.303   8.723
  490POPC   C2B 9608   3.199  37.160   8.312
  490POPC   C3B 9609   3.506  37.228   8.003
  490POPC   C4B 9610   3.340  37.451   7.703
  491POPC   NC3 9611  38.787  23.010   9.686
  491POPC   PO4 9612  39.488  22.835   9.561
  491POPC   GL1 9613  39.365  22.852   9.147
  491POPC   GL2 9614  39.046  22.759   9.266
  491POPC   C1A 9615  39.285  22.981   8.711
  491POPC   D2A 9616  39.363  22.860   8.284
  491POPC   C3A 9617  39.400  23.094   7.909
  491POPC   C4A 9618  39.354  22.694   7.732
  491POPC   C1B 9619  38.829  22.742   8.886
  491POPC   C2B 9620  38.880  22.734   8.432
  491POPC   C3B 9621  38.904  23.006   8.044
  491POPC   C4B 9622  38.971  22.981   7.605
  492POPC   NC3 9623  23.704  39.275   9.686
  492POPC   PO4 9624  24.084  39.662   9.375
  492POPC   GL1 9625  23.952  39.288   9.204
  492POPC   GL2 9626  23.628  39.390   9.195
  492POPC   C1A 9627  23.979  39.091   8.799
  492POPC   D2A 9628  23.866  39.269   8.406
  492POPC   C3A 9629  24.044  39.113   8.020
  492POPC   C4A 9630  23.839  39.342   7.694
  492POPC   C1B 9631  23.715  39.564   8.807
  492POPC   C2B 9632  23.458  39.603   8.461
  492POPC   C3B 9633  23.425  39.455   8.041
  492POPC   C4B 9634  23.190  39.605   7.688
  493POPC   NC3 9635   1.374  16.663   9.537
  493POPC   PO4 9636   0.855  17.044   9.618
  493POPC   GL1 9637   0.989  16.846   9.213
  493POPC   GL2 9638   1.210  16.564   9.084
  493POPC   C1A 9639   1.063  16.940   8.765
  493POPC   D2A 9640   0.992  16.805   8.349
  493POPC   C3A 9641   1.142  16.929   7.945
  493POPC   C4A 9642   1.248  16.678   7.640
  493POPC   C1B 9643   1.367  16.412   8.693
  493POPC   C2B 9644   1.406  16.508   8.264
  493POPC   C3B 9645   1.292  16.237   7.951
  493POPC   C4B 9646   1.089  16.230   7.533
  494POPC   NC3 9647  43.277  22.739   9.570
  494POPC   PO4 9648  43.213  23.434   9.682
  494POPC   GL1 9649  43.098  23.289   9.218
  494POPC   GL2 9650  43.008  22.958   9.197
  494POPC   C1A 9651  43.285  23.121   8.790
  494POPC   D2A 9652  43.242  22.831   8.450
  494POPC   C3A 9653  43.306  23.045   8.061
  494POPC   C4A 9654  43.059  23.048   7.701
  494POPC   C1B 9655  42.813  22.917   8.803
  494POPC   C2B 9656  42.750  22.628   8.479
  494POPC   C3B 9657  42.782  22.813   8.095
  494POPC   C4B 9658  42.758  22.642   7.701
  495POPC   NC3 9659  15.981  13.990   9.400
  495POPC   PO4 9660  15.972  14.686   9.453
  495POPC   GL1 9661  15.754  14.395   9.153
  495POPC   GL2 9662  15.529  14.633   9.018
  495POPC   C1A 9663  15.765  14.132   8.758
  495POPC   D2A 9664  16.031  13.908   8.408
  495POPC   C3A 9665  15.969  14.002   7.945
  495POPC   C4A 9666  16.001  14.108   7.482
  495POPC   C1B 9667  15.856  14.630   8.719
  495POPC   C2B 9668  15.915  14.399   8.340
  495POPC   C3B 9669  16.053  14.496   7.947
  495POPC   C4B 9670  16.036  14.612   7.544
  496POPC   NC3 9671  31.280  28.915   9.318
  496POPC   PO4 9672  31.715  29.321   9.675
  496POPC   GL1 9673  31.616  29.293   9.219
  496POPC   GL2 9674  31.746  28.985   9.058
  496POPC   C1A 9675  31.502  29.360   8.792
  496POPC   D2A 9676  31.725  29.170   8.423
  496POPC   C3A 9677  31.508  29.201   8.000
  496POPC   C4A 9678  31.272  29.456   7.710
  496POPC   C1B 9679  31.442  28.859   8.709
  496POPC   C2B 9680  31.482  28.728   8.299
  496POPC   C3B 9681  31.203  28.764   8.006
  496POPC   C4B 9682  31.200  28.964   7.647
  497POPC   NC3 9683  42.184   0.237   9.528
  497POPC   PO4 9684  42.674   0.659   9.414
  497POPC   GL1 9685  42.536   0.413   9.085
  497POPC   GL2 9686  42.329   0.120   9.049
  497POPC   C1A 9687  42.425   0.507   8.665
  497POPC   D2A 9688  42.205   0.498   8.272
  497POPC   C3A 9689  42.459   0.793   8.037
  497POPC   C4A 9690  42.712   0.640   7.721
  497POPC   C1B 9691  42.273   0.020   8.593
  497POPC   C2B 9692  42.201  44.981   8.123
  497POPC   C3B 9693  42.242   0.136   7.699
  497POPC   C4B 9694  42.088  44.974   7.284
  498POPC   NC3 9695  21.583  28.858   9.626
  498POPC   PO4 9696  21.243  29.500   9.472
  498POPC   GL1 9697  21.430  29.342   9.103
  498POPC   GL2 9698  21.721  29.177   9.240
  498POPC   C1A 9699  21.315  29.118   8.667
  498POPC   D2A 9700  21.314  28.862   8.239
  498POPC   C3A 9701  21.155  29.100   7.876
  498POPC   C4A 9702  21.148  29.538   7.806
  498POPC   C1B 9703  21.812  29.198   8.803
  498POPC   C2B 9704  21.678  29.444   8.423
  498POPC   C3B 9705  21.577  29.347   8.024
  498POPC   C4B 9706  21.647  28.977   7.771
  499POPC   NC3 9707  43.569  44.501   9.482
  499POPC   PO4 9708  44.147  44.406   9.797
  499POPC   GL1 9709  44.039  44.611   9.297
  499POPC   GL2 9710  44.034  44.943   9.143
  499POPC   C1A 9711  43.691  44.697   8.879
  499POPC   D2A 9712  43.460  44.598   8.455
  499POPC   C3A 9713  43.660  44.583   8.064
  499POPC   C4A 9714  43.786  44.832   7.692
  499POPC   C1B 9715  44.177  44.774   8.795
  499POPC   C2B 9716  43.965  44.740   8.430
  499POPC   C3B 9717  44.159  44.746   8.039
  499POPC   C4B 9718  44.264  44.651   7.638
  500POPC   NC3 9719  38.994  17.320   9.344
  500POPC   PO4 9720  39.474  17.746   9.481
  500POPC   GL1 9721  39.446  17.532   9.130
  500POPC   GL2 9722  39.552  17.233   9.202
  500POPC   C1A 9723  39.383  17.657   8.702
  500POPC   D2A 9724  39.467  17.885   8.317
  500POPC   C3A 9725  39.267  17.678   7.967
  500POPC   C4A 9726  39.312  17.594   7.538
  500POPC   C1B 9727  39.359  17.149   8.806
  500POPC   C2B 9728  39.296  17.287   8.372
  500POPC   C3B 9729  39.398  17.170   7.977
  500POPC   C4B 9730  39.215  17.122   7.584
  501POPC   NC3 9731  17.297  24.483   9.570
  501POPC   PO4 9732  17.755  24.998   9.641
  501POPC   GL1 9733  17.731  24.715   9.305
  501POPC   GL2 9734  17.441  24.707   9.169
  501POPC   C1A 9735  17.810  24.597   8.853
  501POPC   D2A 9736  17.733  24.246   8.568
  501POPC   C3A 9737  17.812  24.268   8.142
  501POPC   C4A 9738  17.750  24.598   7.855
  501POPC   C1B 9739  17.319  24.361   8.894
  501POPC   C2B 9740  17.230  24.355   8.459
  501POPC   C3B 9741  17.241  24.328   8.007
  501POPC   C4B 9742  17.166  24.667   7.743
  502POPC   NC3 9743  15.295  41.686   9.554
  502POPC   PO4 9744  15.287  41.096   9.228
  502POPC   GL1 9745  15.214  41.510   9.049
  502POPC   GL2 9746  14.941  41.734   9.133
  502POPC   C1A 9747  15.218  41.453   8.602
  502POPC   D2A 9748  15.330  41.107   8.348
  502POPC   C3A 9749  15.193  41.269   7.974
  502POPC   C4A 9750  15.487  41.512   7.784
  502POPC   C1B 9751  14.978  41.888   8.728
  502POPC   C2B 9752  14.873  41.739   8.295
  502POPC   C3B 9753  15.027  41.798   7.879
  502POPC   C4B 9754  14.963  41.972   7.453
  503POPC   NC3 9755   1.611   2.156   9.279
  503POPC   PO4 9756   2.143   2.008   9.653
  503POPC   GL1 9757   2.067   1.841   9.203
  503POPC   GL2 9758   1.748   1.655   9.127
  503POPC   C1A 9759   2.228   1.775   8.781
  503POPC   D2A 9760   2.315   2.034   8.392
  503POPC   C3A 9761   2.072   2.026   8.026
  503POPC   C4A 9762   2.127   1.905   7.610
  503POPC   C1B 9763   1.536   1.799   8.770
  503POPC   C2B 9764   1.657   2.046   8.439
  503POPC   C3B 9765   1.580   1.864   8.091
  503POPC   C4B 9766   1.505   1.782   7.687
  504POPC   NC3 9767  34.348  16.824   9.437
  504POPC   PO4 9768  35.022  16.718   9.517
  504POPC   GL1 9769  34.812  16.849   9.165
  504POPC   GL2 9770  34.824  17.194   9.190
  504POPC   C1A 9771  34.905  16.859   8.729
  504POPC   D2A 9772  34.700  16.754   8.363
  504POPC   C3A 9773  34.758  16.862   7.951
  504POPC   C4A 9774  34.553  16.626   7.647
  504POPC   C1B 9775  34.567  17.252   8.794
  504POPC   C2B 9776  34.458  17.208   8.309
  504POPC   C3B 9777  34.342  17.160   7.838
  504POPC   C4B 9778  33.995  17.105   7.529
  505POPC   NC3 9779  28.640  37.524   9.626
  505POPC   PO4 9780  28.477  38.082   9.807
  505POPC   GL1 9781  28.339  37.819   9.344
  505POPC   GL2 9782  28.403  37.489   9.172
  505POPC   C1A 9783  28.048  37.809   8.950
  505POPC   D2A 9784  27.947  37.922   8.495
  505POPC   C3A 9785  28.110  37.794   8.077
  505POPC   C4A 9786  27.913  37.846   7.696
  505POPC   C1B 9787  28.506  37.673   8.783
  505POPC   C2B 9788  28.466  37.564   8.352
  505POPC   C3B 9789  28.614  37.541   7.920
  505POPC   C4B 9790  28.582  37.459   7.442
  506POPC   NC3 9791  21.025  13.211   9.558
  506POPC   PO4 9792  20.404  12.998   9.464
  506POPC   GL1 9793  20.389  12.721   9.107
  506POPC   GL2 9794  20.767  12.679   9.096
  506POPC   C1A 9795  20.469  12.705   8.678
  506POPC   D2A 9796  20.413  12.999   8.382
  506POPC   C3A 9797  20.527  12.907   7.980
  506POPC   C4A 9798  20.543  13.105   7.579
  506POPC   C1B 9799  20.983  12.696   8.726
  506POPC   C2B 9800  20.825  12.580   8.305
  506POPC   C3B 9801  20.987  12.680   7.888
  506POPC   C4B 9802  20.900  12.797   7.436
  507POPC   NC3 9803   0.903   2.749   9.661
  507POPC   PO4 9804   1.510   2.967   9.511
  507POPC   GL1 9805   1.348   2.775   9.117
  507POPC   GL2 9806   0.962   2.727   9.143
  507POPC   C1A 9807   1.296   2.767   8.652
  507POPC   D2A 9808   1.464   2.514   8.278
  507POPC   C3A 9809   1.387   2.693   7.892
  507POPC   C4A 9810   1.181   3.031   7.702
  507POPC   C1B 9811   0.827   2.571   8.743
  507POPC   C2B 9812   0.936   2.531   8.329
  507POPC   C3B 9813   0.829   2.743   7.984
  507POPC   C4B 9814   0.958   2.515   7.687
  508POPC   NC3 9815  28.289   5.675   9.529
  508POPC   PO4 9816  28.310   6.344   9.533
  508POPC   GL1 9817  28.538   6.096   9.196
  508POPC   GL2 9818  28.512   5.722   9.087
  508POPC   C1A 9819  28.736   6.052   8.767
  508POPC   D2A 9820  28.613   6.036   8.358
  508POPC   C3A 9821  28.790   5.807   8.046
  508POPC   C4A 9822  28.605   5.983   7.684
  508POPC   C1B 9823  28.279   5.675   8.704
  508POPC   C2B 9824  28.265   5.506   8.279
  508POPC   C3B 9825  28.254   5.671   7.858
  508POPC   C4B 9826  28.373   5.559   7.438
  509POPC   NC3 9827  16.664   7.655   9.410
  509POPC   PO4 9828  16.217   7.175   9.480
  509POPC   GL1 9829  16.460   7.090   9.103
  509POPC   GL2 9830  16.760   7.268   9.101
  509POPC   C1A 9831  16.557   7.240   8.649
  509POPC   D2A 9832  16.766   7.506   8.351
  509POPC   C3A 9833  16.725   7.418   7.943
  509POPC   C4A 9834  16.944   7.223   7.610
  509POPC   C1B 9835  16.942   7.623   8.808
  509POPC   C2B 9836  17.054   7.931   8.448
  509POPC   C3B 9837  17.057   7.811   8.027
  509POPC   C4B 9838  16.939   7.731   7.615
  510POPC   NC3 9839  31.667  36.118   9.425
  510POPC   PO4 9840  31.050  36.153   9.354
  510POPC   GL1 9841  31.207  36.320   9.036
  510POPC   GL2 9842  31.464  36.490   9.139
  510POPC   C1A 9843  31.126  36.385   8.604
  510POPC   D2A 9844  31.264  36.107   8.274
  510POPC   C3A 9845  31.570  36.153   7.980
  510POPC   C4A 9846  31.424  36.235   7.576
  510POPC   C1B 9847  31.619  36.329   8.738
  510POPC   C2B 9848  31.662  36.479   8.381
  510POPC   C3B 9849  31.936  36.507   8.072
  510POPC   C4B 9850  31.820  36.522   7.695
  511POPC   NC3 9851   0.630  38.199   9.390
  511POPC   PO4 9852   0.405  37.694   9.816
  511POPC   GL1 9853   0.578  37.714   9.340
  511POPC   GL2 9854   0.296  37.868   9.183
  511POPC   C1A 9855   0.734  37.590   8.900
  511POPC   D2A 9856   0.425  37.534   8.524
  511POPC   C3A 9857   0.556  37.575   8.098
  511POPC   C4A 9858   0.756  37.666   7.720
  511POPC   C1B 9859   0.444  37.990   8.773
  511POPC   C2B 9860   0.430  38.034   8.320
  511POPC   C3B 9861   0.423  38.015   7.875
  511POPC   C4B 9862   0.234  37.613   7.698
  512POPC   NC3 9863   3.937  31.868   9.509
  512POPC   PO4 9864   4.376  32.365   9.457
  512POPC   GL1 9865   4.329  32.132   9.119
  512POPC   GL2 9866   4.079  31.926   9.044
  512POPC   C1A 9867   4.391  32.244   8.728
  512POPC   D2A 9868   4.596  32.166   8.375
  512POPC   C3A 9869   4.342  32.445   8.190
  512POPC   C4A 9870   4.206  32.493   7.810
  512POPC   C1B 9871   4.171  31.797   8.662
  512POPC   C2B 9872   4.104  32.000   8.287
  512POPC   C3B 9873   4.027  31.877   7.881
  512POPC   C4B 9874   4.205  31.868   7.484
  513POPC   NC3 9875  15.329  34.908  10.014
  513POPC   PO4 9876  15.039  34.525   9.526
  513POPC   GL1 9877  15.055  34.543   9.097
  513POPC   GL2 9878  15.411  34.442   9.105
  513POPC   C1A 9879  15.107  34.372   8.709
  513POPC   D2A 9880  15.340  34.423   8.378
  513POPC   C3A 9881  15.143  34.606   8.063
  513POPC   C4A 9882  15.390  34.529   7.752
  513POPC   C1B 9883  15.423  34.769   8.747
  513POPC   C2B 9884  15.354  35.014   8.350
  513POPC   C3B 9885  15.400  35.064   7.889
  513POPC   C4B 9886  15.220  34.923   7.486
  514POPC   NC3 9887   0.125  27.688   9.364
  514POPC   PO4 9888   0.415  27.232   9.485
  514POPC   GL1 9889   0.515  27.476   9.128
  514POPC   GL2 9890   0.720  27.760   9.123
  514POPC   C1A 9891   0.357  27.599   8.717
  514POPC   D2A 9892   0.357  27.906   8.343
  514POPC   C3A 9893   0.129  27.751   7.951
  514POPC   C4A 9894   0.118  27.431   7.605
  514POPC   C1B 9895   0.760  27.895   8.716
  514POPC   C2B 9896   0.913  27.956   8.306
  514POPC   C3B 9897   0.693  27.786   7.961
  514POPC   C4B 9898   0.817  27.823   7.564
  515POPC   NC3 9899   1.392  28.143   9.467
  515POPC   PO4 9900   0.995  28.702   9.569
  515POPC   GL1 9901   0.978  28.407   9.188
  515POPC   GL2 9902   1.300  28.503   9.111
  515POPC   C1A 9903   1.164  28.226   8.731
  515POPC   D2A 9904   1.478  28.295   8.376
  515POPC   C3A 9905   1.271  28.242   8.014
  515POPC   C4A 9906   0.889  28.257   7.800
  515POPC   C1B 9907   1.485  28.749   8.767
  515POPC   C2B 9908   1.701  28.768   8.385
  515POPC   C3B 9909   1.593  28.672   7.993
  515POPC   C4B 9910   1.538  28.467   7.637
  516POPC   NC3 9911   2.951  31.734   9.416
  516POPC   PO4 9912   2.849  32.468   9.470
  516POPC   GL1 9913   2.981  32.218   9.162
  516POPC   GL2 9914   2.812  31.943   8.976
  516POPC   C1A 9915   2.851  32.396   8.761
  516POPC   D2A 9916   2.685  32.209   8.416
  516POPC   C3A 9917   2.758  32.476   8.091
  516POPC   C4A 9918   2.784  32.445   7.668
  516POPC   C1B 9919   2.404  31.898   8.766
  516POPC   C2B 9920   2.371  31.809   8.307
  516POPC   C3B 9921   2.587  32.015   7.936
  516POPC   C4B 9922   2.499  32.032   7.508
  517POPC   NC3 9923  13.221  43.143   9.936
  517POPC   PO4 9924  12.692  43.246   9.527
  517POPC   GL1 9925  12.852  43.164   9.129
  517POPC   GL2 9926  13.009  42.860   9.167
  517POPC   C1A 9927  12.829  43.321   8.743
  517POPC   D2A 9928  12.920  43.167   8.346
  517POPC   C3A 9929  12.833  43.370   7.963
  517POPC   C4A 9930  12.806  43.139   7.593
  517POPC   C1B 9931  12.921  42.798   8.736
  517POPC   C2B 9932  13.152  42.713   8.357
  517POPC   C3B 9933  13.053  42.858   7.957
  517POPC   C4B 9934  13.252  42.822   7.579
  518POPC   NC3 9935  38.741  34.650   9.482
  518POPC   PO4 9936  38.108  34.314   9.525
  518POPC   GL1 9937  38.385  34.364   9.185
  518POPC   GL2 9938  38.350  34.735   9.128
  518POPC   C1A 9939  38.384  34.432   8.745
  518POPC   D2A 9940  38.236  34.709   8.457
  518POPC   C3A 9941  38.329  34.515   8.081
  518POPC   C4A 9942  38.243  34.705   7.734
  518POPC   C1B 9943  38.672  34.827   8.813
  518POPC   C2B 9944  38.764  34.709   8.348
  518POPC   C3B 9945  38.755  34.689   7.864
  518POPC   C4B 9946  38.905  34.850   7.438
  519POPC   NC3 9947  22.418  16.942   9.496
  519POPC   PO4 9948  21.857  16.765   9.249
  519POPC   GL1 9949  22.223  16.859   9.006
  519POPC   GL2 9950  22.553  16.698   9.063
  519POPC   C1A 9951  22.292  16.652   8.614
  519POPC   D2A 9952  22.192  16.307   8.328
  519POPC   C3A 9953  21.928  16.497   8.046
  519POPC   C4A 9954  21.887  16.864   7.844
  519POPC   C1B 9955  22.651  17.019   8.758
  519POPC   C2B 9956  22.495  17.066   8.354
  519POPC   C3B 9957  22.430  16.855   7.963
  519POPC   C4B 9958  22.375  16.452   7.801
  520POPC   NC3 9959  15.520  12.357   9.785
  520POPC   PO4 9960  16.040  11.964   9.744
  520POPC   GL1 9961  15.969  11.805   9.271
  520POPC   GL2 9962  16.189  11.980   9.106
  520POPC   C1A 9963  15.768  11.868   8.858
  520POPC   D2A 9964  15.859  12.025   8.481
  520POPC   C3A 9965  15.684  11.813   8.108
  520POPC   C4A 9966  15.498  11.724   7.695
  520POPC   C1B 9967  16.233  12.299   8.807
  520POPC   C2B 9968  16.308  12.288   8.394
  520POPC   C3B 9969  16.114  12.115   8.061
  520POPC   C4B 9970  16.108  12.287   7.724
  521POPC   NC3 9971  31.946  41.252   9.559
  521POPC   PO4 9972  32.224  41.920   9.558
  521POPC   GL1 9973  32.355  41.688   9.170
  521POPC   GL2 9974  32.277  41.334   9.164
  521POPC   C1A 9975  32.243  41.569   8.721
  521POPC   D2A 9976  32.159  41.379   8.319
  521POPC   C3A 9977  32.342  41.679   8.022
  521POPC   C4A 9978  32.271  41.920   7.662
  521POPC   C1B 9979  32.604  41.209   8.866
  521POPC   C2B 9980  32.586  41.129   8.441
  521POPC   C3B 9981  32.557  41.210   8.004
  521POPC   C4B 9982  32.576  41.178   7.563
  522POPC   NC3 9983  35.386   2.421   9.465
  522POPC   PO4 9984  34.960   2.994   9.389
  522POPC   GL1 9985  35.244   2.789   9.116
  522POPC   GL2 9986  35.571   2.867   9.159
  522POPC   C1A 9987  35.349   2.696   8.694
  522POPC   D2A 9988  35.147   2.722   8.292
  522POPC   C3A 9989  35.350   2.714   7.895
  522POPC   C4A 9990  35.645   2.564   7.601
  522POPC   C1B 9991  35.835   2.713   8.830
  522POPC   C2B 9992  35.785   2.612   8.424
  522POPC   C3B 9993  35.807   2.875   8.050
  522POPC   C4B 9994  35.662   3.068   7.675
  523POPC   NC3 9995  28.204  19.257   9.637
  523POPC   PO4 9996  28.684  19.820   9.394
  523POPC   GL1 9997  28.578  19.894   8.999
  523POPC   GL2 9998  28.278  19.719   9.013
  523POPC   C1A 9999  28.523  19.725   8.591
  523POPC   D2A10000  28.190  19.644   8.356
  523POPC   C3A10001  28.304  19.880   8.054
  523POPC   C4A10002  28.495  19.765   7.703
  523POPC   C1B10003  28.175  20.080   8.747
  523POPC   C2B10004  27.959  20.120   8.378
  523POPC   C3B10005  27.939  20.293   8.005
  523POPC   C4B10006  28.191  20.192   7.677
  524POPC   NC310007  17.262   9.696   9.594
  524POPC   PO410008  17.758  10.145   9.614
  524POPC   GL110009  17.590   9.846   9.233
  524POPC   GL210010  17.772   9.537   9.084
  524POPC   C1A10011  17.415   9.785   8.793
  524POPC   D2A10012  17.582   9.777   8.364
  524POPC   C3A10013  17.369   9.598   8.004
  524POPC   C4A10014  17.231   9.783   7.625
  524POPC   C1B10015  17.741   9.387   8.667
  524POPC   C2B10016  17.765   9.327   8.241
  524POPC   C3B10017  17.934   9.314   7.851
  524POPC   C4B10018  17.788   9.313   7.425
  525POPC   NC310019  29.877  44.171   9.690
  525POPC   PO410020  29.794  44.836   9.503
  525POPC   GL110021  30.043  44.558   9.275
  525POPC   GL210022  29.763  44.444   9.128
  525POPC   C1A10023  30.212  44.633   8.842
  525POPC   D2A10024  30.136  44.971   8.485
  525POPC   C3A10025  30.141  44.838   8.042
  525POPC   C4A10026  30.430  44.913   7.722
  525POPC   C1B10027  29.743  44.776   8.743
  525POPC   C2B10028  29.659  44.752   8.279
  525POPC   C3B10029  29.723  44.610   7.813
  525POPC   C4B10030  29.624  44.578   7.344
  526POPC   NC310031  19.023  21.122   9.688
  526POPC   PO410032  18.619  21.637   9.453
  526POPC   GL110033  18.792  21.222   9.248
  526POPC   GL210034  19.177  21.116   9.198
  526POPC   C1A10035  18.788  21.278   8.825
  526POPC   D2A10036  18.740  21.635   8.529
  526POPC   C3A10037  18.853  21.465   8.150
  526POPC   C4A10038  18.701  21.112   7.922
  526POPC   C1B10039  19.304  21.404   8.882
  526POPC   C2B10040  19.423  21.371   8.457
  526POPC   C3B10041  19.366  21.391   8.012
  526POPC   C4B10042  19.286  21.747   7.761
  527POPC   NC310043  18.739  15.272   9.904
  527POPC   PO410044  18.115  15.195   9.538
  527POPC   GL110045  18.252  15.150   9.135
  527POPC   GL210046  18.546  15.001   9.253
  527POPC   C1A10047  18.043  15.101   8.741
  527POPC   D2A10048  17.886  15.178   8.308
  527POPC   C3A10049  18.198  15.083   7.980
  527POPC   C4A10050  18.136  14.838   7.609
  527POPC   C1B10051  18.515  14.830   8.839
  527POPC   C2B10052  18.374  14.845   8.442
  527POPC   C3B10053  18.603  14.766   8.097
  527POPC   C4B10054  18.629  14.858   7.688
  528POPC   NC310055  39.202  35.532   9.476
  528POPC   PO410056  39.439  34.874   9.533
  528POPC   GL110057  39.233  35.116   9.210
  528POPC   GL210058  38.880  35.089   9.250
  528POPC   C1A10059  39.364  35.321   8.812
  528POPC   D2A10060  39.271  35.153   8.392
  528POPC   C3A10061  39.416  35.288   7.991
  528POPC   C4A10062  39.357  35.058   7.625
  528POPC   C1B10063  38.799  35.330   8.892
  528POPC   C2B10064  38.925  35.520   8.499
  528POPC   C3B10065  38.897  35.340   8.079
  528POPC   C4B10066  39.009  35.414   7.663
  529POPC   NC310067  12.999  15.249   9.413
  529POPC   PO410068  12.458  15.630   9.478
  529POPC   GL110069  12.399  15.372   9.133
  529POPC   GL210070  12.560  15.014   9.175
  529POPC   C1A10071  12.576  15.349   8.740
  529POPC   D2A10072  12.913  15.394   8.456
  529POPC   C3A10073  12.771  15.419   8.031
  529POPC   C4A10074  13.135  15.455   7.787
  529POPC   C1B10075  12.840  14.928   8.793
  529POPC   C2B10076  12.671  14.956   8.376
  529POPC   C3B10077  12.909  14.912   8.029
  529POPC   C4B10078  12.761  15.033   7.701
  530POPC   NC310079  28.672  11.304   9.638
  530POPC   PO410080  29.267  11.409   9.458
  530POPC   GL110081  29.268  11.344   9.043
  530POPC   GL210082  29.521  11.612   9.025
  530POPC   C1A10083  29.216  10.993   8.748
  530POPC   D2A10084  29.402  10.946   8.349
  530POPC   C3A10085  29.183  11.135   8.050
  530POPC   C4A10086  29.345  11.088   7.682
  530POPC   C1B10087  29.411  11.752   8.692
  530POPC   C2B10088  29.298  11.446   8.452
  530POPC   C3B10089  29.348  11.627   8.079
  530POPC   C4B10090  29.429  11.586   7.690
  531POPC   NC310091  39.849  24.061   9.265
  531POPC   PO410092  40.199  23.539   9.544
  531POPC   GL110093  40.050  23.641   9.108
  531POPC   GL210094  39.815  23.453   8.921
  531POPC   C1A10095  40.187  23.825   8.730
  531POPC   D2A10096  40.069  23.960   8.339
  531POPC   C3A10097  40.268  23.779   7.997
  531POPC   C4A10098  40.124  23.667   7.638
  531POPC   C1B10099  39.685  23.843   8.671
  531POPC   C2B10100  39.556  23.990   8.282
  531POPC   C3B10101  39.774  23.953   7.896
  531POPC   C4B10102  39.774  23.952   7.419
  532POPC   NC310103  33.319  12.141   9.621
  532POPC   PO410104  32.679  12.278   9.426
  532POPC   GL110105  32.973  12.063   9.210
  532POPC   GL210106  33.158  12.324   9.161
  532POPC   C1A10107  33.155  11.946   8.793
  532POPC   D2A10108  33.194  11.845   8.354
  532POPC   C3A10109  32.955  12.056   7.993
  532POPC   C4A10110  33.069  11.936   7.522
  532POPC   C1B10111  32.943  12.419   8.783
  532POPC   C2B10112  33.146  12.387   8.379
  532POPC   C3B10113  33.102  12.536   7.948
  532POPC   C4B10114  32.846  12.387   7.600
  533POPC   NC310115  31.878  13.065   9.875
  533POPC   PO410116  32.445  12.976   9.468
  533POPC   GL110117  32.219  12.883   9.079
  533POPC   GL210118  32.039  12.560   9.015
  533POPC   C1A10119  32.074  12.910   8.658
  533POPC   D2A10120  32.363  13.010   8.385
  533POPC   C3A10121  32.227  12.924   8.017
  533POPC   C4A10122  31.829  12.995   7.867
  533POPC   C1B10123  32.345  12.435   8.744
  533POPC   C2B10124  32.048  12.367   8.435
  533POPC   C3B10125  31.990  12.484   8.037
  533POPC   C4B10126  32.439  12.443   7.902
  534POPC   NC310127  14.967  43.939   9.635
  534POPC   PO410128  15.574  43.571   9.566
  534POPC   GL110129  15.196  43.588   9.299
  534POPC   GL210130  15.175  43.946   9.158
  534POPC   C1A10131  14.939  43.534   8.938
  534POPC   D2A10132  15.123  43.673   8.588
  534POPC   C3A10133  15.049  43.689   8.135
  534POPC   C4A10134  15.176  43.593   7.719
  534POPC   C1B10135  15.204  44.171   8.771
  534POPC   C2B10136  14.994  44.146   8.390
  534POPC   C3B10137  15.069  44.213   7.974
  534POPC   C4B10138  14.868  44.152   7.599
  535POPC   NC310139  29.364  25.330   9.576
  535POPC   PO410140  28.760  25.055   9.507
  535POPC   GL110141  29.040  25.227   9.187
  535POPC   GL210142  29.388  25.065   9.141
  535POPC   C1A10143  29.082  25.228   8.753
  535POPC   D2A10144  29.427  25.247   8.461
  535POPC   C3A10145  29.300  25.438   8.093
  535POPC   C4A10146  29.328  25.266   7.686
  535POPC   C1B10147  29.511  25.460   8.934
  535POPC   C2B10148  29.818  25.552   8.622
  535POPC   C3B10149  29.802  25.591   8.201
  535POPC   C4B10150  29.670  25.630   7.788
  536POPC   NC310151   6.575  34.222   9.534
  536POPC   PO410152   7.125  33.986   9.451
  536POPC   GL110153   6.851  34.255   9.099
  536POPC   GL210154   6.445  34.294   9.058
  536POPC   C1A10155   6.736  34.534   8.705
  536POPC   D2A10156   6.862  34.756   8.288
  536POPC   C3A10157   6.816  34.602   7.883
  536POPC   C4A10158   6.956  34.713   7.441
  536POPC   C1B10159   6.289  34.291   8.663
  536POPC   C2B10160   6.485  34.343   8.274
  536POPC   C3B10161   6.386  34.298   7.858
  536POPC   C4B10162   6.535  34.395   7.435
  537POPC   NC310163  28.311  27.586   9.908
  537POPC   PO410164  28.671  27.259   9.453
  537POPC   GL110165  28.446  27.587   9.236
  537POPC   GL210166  28.167  27.505   9.082
  537POPC   C1A10167  28.542  27.672   8.778
  537POPC   D2A10168  28.524  27.468   8.361
  537POPC   C3A10169  28.558  27.654   7.934
  537POPC   C4A10170  28.643  27.435   7.496
  537POPC   C1B10171  28.018  27.605   8.689
  537POPC   C2B10172  28.173  27.808   8.325
  537POPC   C3B10173  28.025  27.702   7.943
  537POPC   C4B10174  28.214  27.697   7.546
  538POPC   NC310175   5.812  17.656   9.850
  538POPC   PO410176   5.574  17.224   9.351
  538POPC   GL110177   5.922  17.294   9.096
  538POPC   GL210178   5.845  17.547   8.861
  538POPC   C1A10179   6.195  17.222   8.719
  538POPC   D2A10180   6.210  17.558   8.434
  538POPC   C3A10181   6.093  17.378   8.087
  538POPC   C4A10182   5.887  17.484   7.778
  538POPC   C1B10183   5.621  17.908   8.724
  538POPC   C2B10184   5.446  17.823   8.349
  538POPC   C3B10185   5.462  17.638   7.998
  538POPC   C4B10186   5.395  17.992   7.767
  539POPC   NC310187  23.018  44.568   9.587
  539POPC   PO410188  22.717   0.154   9.611
  539POPC   GL110189  22.863  44.850   9.214
  539POPC   GL210190  23.236  44.766   9.169
  539POPC   C1A10191  22.857  44.644   8.791
  539POPC   D2A10192  22.723  44.719   8.362
  539POPC   C3A10193  22.722  44.433   8.024
  539POPC   C4A10194  22.837  44.418   7.600
  539POPC   C1B10195  23.388  44.759   8.750
  539POPC   C2B10196  23.217  44.563   8.363
  539POPC   C3B10197  23.160  44.672   7.932
  539POPC   C4B10198  23.279  44.650   7.488
  540POPC   NC310199  37.434  41.711   9.555
  540POPC   PO410200  37.918  41.343   9.776
  540POPC   GL110201  37.839  41.364   9.328
  540POPC   GL210202  37.483  41.388   9.182
  540POPC   C1A10203  37.830  41.382   8.836
  540POPC   D2A10204  37.772  41.626   8.462
  540POPC   C3A10205  37.786  41.349   8.120
  540POPC   C4A10206  38.073  41.411   7.783
  540POPC   C1B10207  37.312  41.261   8.789
  540POPC   C2B10208  37.308  41.418   8.367
  540POPC   C3B10209  37.213  41.692   8.031
  540POPC   C4B10210  37.557  41.604   7.750
  541POPC   NC310211   0.806  17.411   9.303
  541POPC   PO410212   1.423  17.460   9.632
  541POPC   GL110213   1.313  17.480   9.221
  541POPC   GL210214   1.237  17.801   9.109
  541POPC   C1A10215   1.364  17.362   8.787
  541POPC   D2A10216   1.089  17.356   8.446
  541POPC   C3A10217   1.233  17.460   8.049
  541POPC   C4A10218   1.160  17.451   7.626
  541POPC   C1B10219   0.979  17.761   8.755
  541POPC   C2B10220   0.869  17.834   8.329
  541POPC   C3B10221   0.796  17.687   7.913
  541POPC   C4B10222   0.877  17.863   7.479
  542POPC   NC310223  19.443   5.812   9.561
  542POPC   PO410224  18.888   6.062   9.324
  542POPC   GL110225  19.245   5.955   9.106
  542POPC   GL210226  19.261   5.579   9.145
  542POPC   C1A10227  19.167   5.926   8.701
  542POPC   D2A10228  19.214   6.152   8.342
  542POPC   C3A10229  19.105   5.878   8.044
  542POPC   C4A10230  19.331   5.781   7.730
  542POPC   C1B10231  19.049   5.422   8.758
  542POPC   C2B10232  18.864   5.462   8.317
  542POPC   C3B10233  18.838   5.501   7.842
  542POPC   C4B10234  18.702   5.785   7.507
  543POPC   NC310235   4.365  27.087   9.379
  543POPC   PO410236   4.579  26.383   9.409
  543POPC   GL110237   4.297  26.669   9.063
  543POPC   GL210238   4.386  26.967   8.894
  543POPC   C1A10239   4.032  26.696   8.690
  543POPC   D2A10240   4.238  26.735   8.323
  543POPC   C3A10241   4.126  26.822   7.913
  543POPC   C4A10242   4.256  26.825   7.469
  543POPC   C1B10243   4.768  27.178   8.820
  543POPC   C2B10244   4.825  27.352   8.441
  543POPC   C3B10245   4.586  27.179   8.093
  543POPC   C4B10246   4.712  27.071   7.659
  544POPC   NC310247   3.628   5.513   9.504
  544POPC   PO410248   3.114   5.984   9.584
  544POPC   GL110249   3.414   6.066   9.218
  544POPC   GL210250   3.482   5.725   9.083
  544POPC   C1A10251   3.617   6.099   8.764
  544POPC   D2A10252   3.704   5.750   8.419
  544POPC   C3A10253   3.737   5.875   7.971
  544POPC   C4A10254   3.420   6.118   7.729
  544POPC   C1B10255   3.277   5.702   8.723
  544POPC   C2B10256   3.139   5.584   8.345
  544POPC   C3B10257   3.323   5.592   7.971
  544POPC   C4B10258   3.497   5.637   7.552
  545POPC   NC310259   2.770  44.173   9.454
  545POPC   PO410260   2.643  43.451   9.365
  545POPC   GL110261   2.970  43.570   9.071
  545POPC   GL210262   3.062  43.934   9.097
  545POPC   C1A10263   2.876  43.540   8.642
  545POPC   D2A10264   2.608  43.459   8.294
  545POPC   C3A10265   2.756  43.655   7.929
  545POPC   C4A10266   2.540  43.831   7.586
  545POPC   C1B10267   2.850  44.069   8.717
  545POPC   C2B10268   2.975  44.217   8.306
  545POPC   C3B10269   2.844  44.164   7.883
  545POPC   C4B10270   2.961  44.073   7.461
  546POPC   NC310271  35.665  27.413   9.873
  546POPC   PO410272  35.151  27.810   9.655
  546POPC   GL110273  35.146  27.672   9.208
  546POPC   GL210274  35.414  27.441   9.148
  546POPC   C1A10275  35.332  27.833   8.811
  546POPC   D2A10276  35.277  27.670   8.422
  546POPC   C3A10277  35.229  27.840   8.014
  546POPC   C4A10278  35.356  27.504   7.741
  546POPC   C1B10279  35.160  27.338   8.821
  546POPC   C2B10280  35.231  27.166   8.435
  546POPC   C3B10281  35.025  27.373   8.107
  546POPC   C4B10282  34.808  27.625   7.807
  547POPC   NC310283  37.999  15.712   9.396
  547POPC   PO410284  37.413  16.094   9.479
  547POPC   GL110285  37.569  15.919   9.120
  547POPC   GL210286  37.483  15.574   9.094
  547POPC   C1A10287  37.634  16.137   8.737
  547POPC   D2A10288  37.452  16.416   8.443
  547POPC   C3A10289  37.698  16.306   8.087
  547POPC   C4A10290  37.511  16.066   7.786
  547POPC   C1B10291  37.842  15.654   8.773
  547POPC   C2B10292  37.919  15.504   8.366
  547POPC   C3B10293  37.798  15.742   8.013
  547POPC   C4B10294  37.973  15.929   7.593
  548POPC   NC310295  17.542  37.365   9.584
  548POPC   PO410296  17.449  38.073   9.751
  548POPC   GL110297  17.510  37.854   9.322
  548POPC   GL210298  17.791  37.723   9.179
  548POPC   C1A10299  17.429  37.882   8.862
  548POPC   D2A10300  17.601  37.938   8.453
  548POPC   C3A10301  17.577  37.650   8.144
  548POPC   C4A10302  17.605  37.755   7.726
  548POPC   C1B10303  17.823  37.535   8.752
  548POPC   C2B10304  17.953  37.362   8.322
  548POPC   C3B10305  17.914  37.371   7.813
  548POPC   C4B10306  17.614  37.361   7.412
  549POPC   NC310307  16.196  13.023   9.469
  549POPC   PO410308  15.873  13.561   9.551
  549POPC   GL110309  15.700  13.576   9.205
  549POPC   GL210310  15.839  13.249   9.137
  549POPC   C1A10311  15.900  13.649   8.832
  549POPC   D2A10312  15.748  13.448   8.517
  549POPC   C3A10313  15.919  13.483   8.146
  549POPC   C4A10314  15.907  13.545   7.727
  549POPC   C1B10315  16.150  13.207   8.812
  549POPC   C2B10316  16.364  13.275   8.398
  549POPC   C3B10317  16.296  13.167   7.964
  549POPC   C4B10318  16.271  13.263   7.519
  550POPC   NC310319  10.015  20.287   9.680
  550POPC   PO410320   9.541  20.734   9.824
  550POPC   GL110321   9.716  20.609   9.386
  550POPC   GL210322   9.713  20.929   9.159
  550POPC   C1A10323   9.705  20.468   8.923
  550POPC   D2A10324   9.765  20.629   8.480
  550POPC   C3A10325   9.705  20.500   8.034
  550POPC   C4A10326   9.486  20.798   7.768
  550POPC   C1B10327  10.033  20.847   8.871
  550POPC   C2B10328  10.272  20.726   8.502
  550POPC   C3B10329  10.232  20.783   8.077
  550POPC   C4B10330   9.996  20.827   7.712
  551POPC   NC310331  40.740  35.820   9.465
  551POPC   PO410332  40.927  36.416   9.669
  551POPC   GL110333  40.767  36.288   9.264
  551POPC   GL210334  40.409  36.200   9.296
  551POPC   C1A10335  40.867  36.180   8.837
  551POPC   D2A10336  41.072  36.362   8.482
  551POPC   C3A10337  40.890  36.164   8.122
  551POPC   C4A10338  40.758  36.308   7.699
  551POPC   C1B10339  40.383  36.004   8.879
  551POPC   C2B10340  40.534  35.909   8.463
  551POPC   C3B10341  40.401  36.053   8.057
  551POPC   C4B10342  40.481  35.893   7.666
  552POPC   NC310343  14.489  10.218   9.511
  552POPC   PO410344  14.364   9.564   9.676
  552POPC   GL110345  14.329   9.570   9.226
  552POPC   GL210346  14.242   9.906   9.137
  552POPC   C1A10347  14.165   9.485   8.798
  552POPC   D2A10348  14.350   9.638   8.428
  552POPC   C3A10349  14.212   9.680   8.022
  552POPC   C4A10350  14.445   9.818   7.642
  552POPC   C1B10351  14.223  10.061   8.712
  552POPC   C2B10352  13.995  10.053   8.305
  552POPC   C3B10353  14.050  10.125   7.832
  552POPC   C4B10354  14.056  10.048   7.357
  553POPC   NC310355  18.611  24.923   9.465
  553POPC   PO410356  19.092  25.419   9.443
  553POPC   GL110357  19.030  25.095   9.178
  553POPC   GL210358  19.358  24.977   9.134
  553POPC   C1A10359  18.851  25.213   8.791
  553POPC   D2A10360  19.013  25.375   8.434
  553POPC   C3A10361  18.908  25.216   8.052
  553POPC   C4A10362  18.775  25.503   7.717
  553POPC   C1B10363  19.397  25.175   8.764
  553POPC   C2B10364  19.518  25.291   8.375
  553POPC   C3B10365  19.446  25.114   8.000
  553POPC   C4B10366  19.250  25.235   7.662
  554POPC   NC310367  42.594   8.755   9.487
  554POPC   PO410368  42.158   9.246   9.438
  554POPC   GL110369  42.260   8.972   9.149
  554POPC   GL210370  42.606   9.051   9.069
  554POPC   C1A10371  42.257   8.797   8.769
  554POPC   D2A10372  42.551   8.828   8.452
  554POPC   C3A10373  42.372   8.769   8.079
  554POPC   C4A10374  42.401   9.017   7.736
  554POPC   C1B10375  42.460   9.292   8.728
  554POPC   C2B10376  42.362   9.377   8.284
  554POPC   C3B10377  42.043   9.306   7.962
  554POPC   C4B10378  42.065   9.345   7.510
  555POPC   NC310379   7.594  41.456   9.589
  555POPC   PO410380   6.897  41.483   9.474
  555POPC   GL110381   7.255  41.408   9.184
  555POPC   GL210382   7.462  41.718   9.182
  555POPC   C1A10383   7.602  41.320   8.865
  555POPC   D2A10384   7.705  41.592   8.480
  555POPC   C3A10385   7.504  41.494   8.099
  555POPC   C4A10386   7.271  41.442   7.707
  555POPC   C1B10387   7.323  41.733   8.772
  555POPC   C2B10388   7.323  41.929   8.353
  555POPC   C3B10389   7.335  41.930   7.906
  555POPC   C4B10390   7.309  41.899   7.435
  556POPC   NC310391   9.165  12.592   9.473
  556POPC   PO410392   9.158  13.324   9.494
  556POPC   GL110393   9.136  13.005   9.164
  556POPC   GL210394   8.834  12.849   9.113
  556POPC   C1A10395   9.233  12.822   8.756
  556POPC   D2A10396   9.214  13.069   8.363
  556POPC   C3A10397   9.182  12.829   7.992
  556POPC   C4A10398   9.256  12.594   7.615
  556POPC   C1B10399   8.740  12.991   8.672
  556POPC   C2B10400   8.716  12.975   8.202
  556POPC   C3B10401   8.733  12.896   7.753
  556POPC   C4B10402   8.578  12.971   7.320
  557POPC   NC310403  25.032  43.343   9.438
  557POPC   PO410404  25.508  42.949   9.686
  557POPC   GL110405  25.330  42.928   9.279
  557POPC   GL210406  25.451  43.234   9.151
  557POPC   C1A10407  25.203  42.905   8.836
  557POPC   D2A10408  25.393  43.055   8.457
  557POPC   C3A10409  25.235  43.058   8.072
  557POPC   C4A10410  25.563  43.097   7.824
  557POPC   C1B10411  25.255  43.432   8.810
  557POPC   C2B10412  25.290  43.577   8.402
  557POPC   C3B10413  25.069  43.545   8.029
  557POPC   C4B10414  25.246  43.444   7.629
  558POPC   NC310415  15.776   4.630   9.598
  558POPC   PO410416  16.183   4.019   9.704
  558POPC   GL110417  16.069   4.115   9.258
  558POPC   GL210418  16.037   4.480   9.207
  558POPC   C1A10419  15.878   4.020   8.821
  558POPC   D2A10420  15.835   4.218   8.374
  558POPC   C3A10421  15.747   4.012   7.925
  558POPC   C4A10422  15.728   4.059   7.424
  558POPC   C1B10423  15.894   4.581   8.815
  558POPC   C2B10424  16.060   4.692   8.406
  558POPC   C3B10425  15.967   4.555   7.980
  558POPC   C4B10426  16.154   4.668   7.563
  559POPC   NC310427  12.480  16.086   9.440
  559POPC   PO410428  13.107  16.370   9.300
  559POPC   GL110429  12.806  16.185   9.041
  559POPC   GL210430  12.463  16.265   8.992
  559POPC   C1A10431  12.743  15.838   8.772
  559POPC   D2A10432  12.621  15.803   8.335
  559POPC   C3A10433  12.987  15.902   8.007
  559POPC   C4A10434  13.160  15.943   7.551
  559POPC   C1B10435  12.405  16.218   8.612
  559POPC   C2B10436  12.269  16.176   8.242
  559POPC   C3B10437  12.496  16.051   7.905
  559POPC   C4B10438  12.795  16.277   7.682
  560POPC   NC310439  30.457   3.242   9.310
  560POPC   PO410440  30.987   3.560   9.325
  560POPC   GL110441  30.803   3.663   8.975
  560POPC   GL210442  30.714   3.328   8.876
  560POPC   C1A10443  30.740   3.709   8.549
  560POPC   D2A10444  30.737   3.326   8.321
  560POPC   C3A10445  30.937   3.457   7.978
  560POPC   C4A10446  30.805   3.716   7.679
  560POPC   C1B10447  30.319   3.260   8.651
  560POPC   C2B10448  30.149   3.306   8.233
  560POPC   C3B10449  30.427   3.473   7.930
  560POPC   C4B10450  30.515   3.364   7.467
  561POPC   NC310451  38.174   8.778   9.517
  561POPC   PO410452  38.791   9.055   9.360
  561POPC   GL110453  38.418   9.028   9.147
  561POPC   GL210454  38.611   8.890   8.926
  561POPC   C1A10455  38.214   9.103   8.747
  561POPC   D2A10456  38.445   9.020   8.401
  561POPC   C3A10457  38.229   9.083   8.025
  561POPC   C4A10458  38.406   9.036   7.661
  561POPC   C1B10459  38.860   8.627   8.759
  561POPC   C2B10460  39.170   8.715   8.477
  561POPC   C3B10461  38.904   8.878   8.170
  561POPC   C4B10462  38.757   8.714   7.804
  562POPC   NC310463  26.064  35.579   9.500
  562POPC   PO410464  25.658  35.085   9.413
  562POPC   GL110465  26.016  35.230   9.117
  562POPC   GL210466  26.284  35.032   9.035
  562POPC   C1A10467  26.086  35.611   8.850
  562POPC   D2A10468  25.996  35.819   8.466
  562POPC   C3A10469  26.129  35.587   8.131
  562POPC   C4A10470  26.040  35.652   7.709
  562POPC   C1B10471  26.275  35.204   8.651
  562POPC   C2B10472  25.890  35.262   8.448
  562POPC   C3B10473  25.906  35.145   8.011
  562POPC   C4B10474  26.380  35.187   7.887
  563POPC   NC310475  18.078  33.919   9.616
  563POPC   PO410476  18.642  33.618   9.552
  563POPC   GL110477  18.442  33.911   9.243
  563POPC   GL210478  18.552  34.240   9.318
  563POPC   C1A10479  18.272  33.875   8.818
  563POPC   D2A10480  17.935  33.777   8.498
  563POPC   C3A10481  18.124  33.796   8.077
  563POPC   C4A10482  18.561  33.703   7.924
  563POPC   C1B10483  18.722  34.186   8.877
  563POPC   C2B10484  18.604  34.018   8.449
  563POPC   C3B10485  18.523  34.194   8.066
  563POPC   C4B10486  18.317  34.097   7.701
  564POPC   NC310487  21.729  24.802   9.528
  564POPC   PO410488  21.324  24.223   9.489
  564POPC   GL110489  21.327  24.219   9.035
  564POPC   GL210490  21.654  24.323   9.115
  564POPC   C1A10491  21.418  24.278   8.564
  564POPC   D2A10492  21.143  24.532   8.265
  564POPC   C3A10493  21.141  24.623   7.814
  564POPC   C4A10494  21.107  24.409   7.418
  564POPC   C1B10495  21.448  24.700   8.863
  564POPC   C2B10496  21.579  24.761   8.414
  564POPC   C3B10497  21.587  24.484   8.035
  564POPC   C4B10498  21.628  24.758   7.693
  565POPC   NC310499  17.131  26.000   9.536
  565POPC   PO410500  17.798  25.936   9.695
  565POPC   GL110501  17.580  26.046   9.289
  565POPC   GL210502  17.641  26.399   9.323
  565POPC   C1A10503  17.444  25.922   8.827
  565POPC   D2A10504  17.444  25.722   8.379
  565POPC   C3A10505  17.426  25.843   7.917
  565POPC   C4A10506  17.737  25.926   7.541
  565POPC   C1B10507  17.691  26.366   8.872
  565POPC   C2B10508  17.649  26.384   8.421
  565POPC   C3B10509  17.649  26.294   7.981
  565POPC   C4B10510  17.465  26.442   7.612
  566POPC   NC310511  27.706  24.754   9.277
  566POPC   PO410512  27.157  24.214   9.259
  566POPC   GL110513  27.358  24.485   9.033
  566POPC   GL210514  27.641  24.278   9.048
  566POPC   C1A10515  27.485  24.558   8.616
  566POPC   D2A10516  27.476  24.399   8.203
  566POPC   C3A10517  27.383  24.604   7.877
  566POPC   C4A10518  27.735  24.801   7.703
  566POPC   C1B10519  27.906  24.279   8.689
  566POPC   C2B10520  27.979  24.428   8.266
  566POPC   C3B10521  27.802  24.304   7.837
  566POPC   C4B10522  27.701  24.003   7.491
  567POPC   NC310523  18.150  14.741   9.449
  567POPC   PO410524  18.377  14.154   9.568
  567POPC   GL110525  18.185  14.286   9.203
  567POPC   GL210526  18.499  14.478   9.200
  567POPC   C1A10527  18.133  14.484   8.811
  567POPC   D2A10528  18.308  14.357   8.408
  567POPC   C3A10529  18.131  14.561   8.066
  567POPC   C4A10530  18.031  14.349   7.710
  567POPC   C1B10531  18.622  14.325   8.835
  567POPC   C2B10532  18.820  14.500   8.488
  567POPC   C3B10533  18.771  14.262   8.147
  567POPC   C4B10534  18.525  14.352   7.784
  568POPC   NC310535  37.538  40.978   9.590
  568POPC   PO410536  38.084  40.643   9.382
  568POPC   GL110537  37.671  40.659   9.172
  568POPC   GL210538  37.712  40.949   9.094
  568POPC   C1A10539  37.441  40.737   8.763
  568POPC   D2A10540  37.609  40.988   8.443
  568POPC   C3A10541  37.430  40.845   8.067
  568POPC   C4A10542  37.417  40.647   7.682
  568POPC   C1B10543  37.956  40.742   8.750
  568POPC   C2B10544  38.128  40.771   8.355
  568POPC   C3B10545  38.066  40.866   7.936
  568POPC   C4B10546  37.761  41.021   7.711
  569POPC   NC310547  41.632  10.231   9.525
  569POPC   PO410548  41.385  10.789   9.474
  569POPC   GL110549  41.568  10.584   9.080
  569POPC   GL210550  41.678  10.220   9.043
  569POPC   C1A10551  41.507  10.419   8.624
  569POPC   D2A10552  41.571  10.527   8.201
  569POPC   C3A10553  41.361  10.464   7.802
  569POPC   C4A10554  41.257  10.406   7.361
  569POPC   C1B10555  41.928  10.115   8.689
  569POPC   C2B10556  41.792  10.062   8.278
  569POPC   C3B10557  41.786  10.201   7.853
  569POPC   C4B10558  41.888  10.669   7.823
  570POPC   NC310559  19.099   7.720   9.497
  570POPC   PO410560  18.730   7.183   9.408
  570POPC   GL110561  18.949   7.409   9.109
  570POPC   GL210562  19.284   7.346   9.080
  570POPC   C1A10563  18.968   7.541   8.698
  570POPC   D2A10564  18.810   7.702   8.332
  570POPC   C3A10565  18.739   7.406   8.052
  570POPC   C4A10566  18.960   7.063   7.873
  570POPC   C1B10567  19.387   7.259   8.674
  570POPC   C2B10568  19.213   7.293   8.269
  570POPC   C3B10569  19.447   7.254   7.889
  570POPC   C4B10570  19.347   7.125   7.507
  571POPC   NC310571  33.433   9.841   9.441
  571POPC   PO410572  34.052   9.936   9.653
  571POPC   GL110573  33.908   9.836   9.202
  571POPC   GL210574  34.005   9.474   9.116
  571POPC   C1A10575  33.863   9.901   8.743
  571POPC   D2A10576  33.590   9.789   8.360
  571POPC   C3A10577  33.586  10.014   7.950
  571POPC   C4A10578  33.740   9.902   7.551
  571POPC   C1B10579  33.895   9.273   8.720
  571POPC   C2B10580  33.789   9.315   8.311
  571POPC   C3B10581  33.835   9.573   7.943
  571POPC   C4B10582  34.052   9.514   7.555
  572POPC   NC310583  44.202  10.516   9.808
  572POPC   PO410584  43.527  10.606   9.653
  572POPC   GL110585  43.764  10.433   9.299
  572POPC   GL210586  44.137  10.387   9.284
  572POPC   C1A10587  43.630  10.435   8.866
  572POPC   D2A10588  43.534  10.610   8.453
  572POPC   C3A10589  43.634  10.436   8.050
  572POPC   C4A10590  43.677  10.554   7.594
  572POPC   C1B10591  44.172  10.423   8.803
  572POPC   C2B10592  44.091  10.296   8.340
  572POPC   C3B10593  44.110  10.461   7.867
  572POPC   C4B10594  44.104  10.335   7.382
  573POPC   NC310595   6.526  29.914   9.587
  573POPC   PO410596   7.177  29.973   9.491
  573POPC   GL110597   6.801  29.746   9.173
  573POPC   GL210598   6.411  29.817   9.119
  573POPC   C1A10599   6.681  29.608   8.756
  573POPC   D2A10600   6.715  29.832   8.362
  573POPC   C3A10601   6.510  29.719   7.987
  573POPC   C4A10602   6.809  29.763   7.670
  573POPC   C1B10603   6.566  30.097   8.806
  573POPC   C2B10604   6.462  30.337   8.462
  573POPC   C3B10605   6.582  30.243   8.060
  573POPC   C4B10606   6.486  30.165   7.665
  574POPC   NC310607  34.341  32.326   9.557
  574POPC   PO410608  34.587  31.730   9.574
  574POPC   GL110609  34.714  31.950   9.212
  574POPC   GL210610  34.712  32.324   9.190
  574POPC   C1A10611  34.669  31.953   8.781
  574POPC   D2A10612  34.775  32.277   8.500
  574POPC   C3A10613  34.724  32.196   8.073
  574POPC   C4A10614  34.998  32.235   7.738
  574POPC   C1B10615  34.359  32.359   8.910
  574POPC   C2B10616  34.247  32.425   8.500
  574POPC   C3B10617  34.166  32.440   8.064
  574POPC   C4B10618  34.464  32.497   7.730
  575POPC   NC310619  13.926  20.587   9.417
  575POPC   PO410620  13.355  20.844   9.475
  575POPC   GL110621  13.459  20.606   9.106
  575POPC   GL210622  13.634  20.280   9.068
  575POPC   C1A10623  13.508  20.649   8.687
  575POPC   D2A10624  13.511  20.454   8.327
  575POPC   C3A10625  13.391  20.695   7.956
  575POPC   C4A10626  13.559  20.754   7.534
  575POPC   C1B10627  13.899  20.275   8.662
  575POPC   C2B10628  14.068  20.379   8.227
  575POPC   C3B10629  14.018  20.636   7.804
  575POPC   C4B10630  14.009  20.639   7.303
  576POPC   NC310631  15.695  16.914   9.627
  576POPC   PO410632  16.119  16.452   9.597
  576POPC   GL110633  15.976  16.733   9.230
  576POPC   GL210634  15.674  16.521   9.246
  576POPC   C1A10635  16.133  16.899   8.797
  576POPC   D2A10636  16.008  16.746   8.381
  576POPC   C3A10637  16.142  16.796   7.947
  576POPC   C4A10638  15.926  16.807   7.509
  576POPC   C1B10639  15.785  16.493   8.804
  576POPC   C2B10640  15.717  16.336   8.377
  576POPC   C3B10641  15.953  16.330   7.997
  576POPC   C4B10642  15.917  16.307   7.552
  577POPC   NC310643  18.605  34.763   9.514
  577POPC   PO410644  18.045  34.374   9.741
  577POPC   GL110645  18.130  34.560   9.336
  577POPC   GL210646  18.026  34.266   9.209
  577POPC   C1A10647  18.362  34.542   8.922
  577POPC   D2A10648  18.561  34.527   8.513
  577POPC   C3A10649  18.308  34.706   8.195
  577POPC   C4A10650  18.345  34.611   7.775
  577POPC   C1B10651  17.923  34.244   8.798
  577POPC   C2B10652  18.143  34.236   8.428
  577POPC   C3B10653  18.007  34.298   8.038
  577POPC   C4B10654  17.797  34.084   7.711
  578POPC   NC310655  13.824  31.689   9.332
  578POPC   PO410656  13.271  31.224   9.306
  578POPC   GL110657  13.616  31.313   9.037
  578POPC   GL210658  13.605  31.633   8.878
  578POPC   C1A10659  13.939  31.236   8.730
  578POPC   D2A10660  13.959  31.533   8.409
  578POPC   C3A10661  13.708  31.389   8.079
  578POPC   C4A10662  13.762  31.397   7.644
  578POPC   C1B10663  13.444  31.366   8.536
  578POPC   C2B10664  13.229  31.542   8.170
  578POPC   C3B10665  13.359  31.718   7.771
  578POPC   C4B10666  13.437  31.643   7.341
  579POPC   NC310667   3.859  35.276   9.514
  579POPC   PO410668   3.149  35.491   9.568
  579POPC   GL110669   3.415  35.521   9.240
  579POPC   GL210670   3.440  35.173   9.222
  579POPC   C1A10671   3.553  35.506   8.809
  579POPC   D2A10672   3.758  35.275   8.458
  579POPC   C3A10673   3.733  35.414   8.067
  579POPC   C4A10674   3.416  35.486   7.783
  579POPC   C1B10675   3.561  35.004   8.835
  579POPC   C2B10676   3.279  35.135   8.487
  579POPC   C3B10677   3.295  35.088   8.089
  579POPC   C4B10678   3.651  34.927   7.904
  580POPC   NC310679  44.327  30.161   9.628
  580POPC   PO410680  44.855  29.743   9.562
  580POPC   GL110681  44.716  29.912   9.177
  580POPC   GL210682  44.552  29.604   9.095
  580POPC   C1A10683  44.893  30.017   8.766
  580POPC   D2A10684   0.019  29.804   8.384
  580POPC   C3A10685  44.890  29.986   7.977
  580POPC   C4A10686  44.705  30.147   7.589
  580POPC   C1B10687  44.448  29.734   8.670
  580POPC   C2B10688  44.151  29.699   8.317
  580POPC   C3B10689  44.200  29.573   7.882
  580POPC   C4B10690  44.602  29.654   7.710
  581POPC   NC310691  27.231  29.628   9.680
  581POPC   PO410692  26.602  29.719   9.534
  581POPC   GL110693  26.758  29.842   9.157
  581POPC   GL210694  26.578  30.081   8.987
  581POPC   C1A10695  26.982  29.743   8.786
  581POPC   D2A10696  27.207  29.844   8.410
  581POPC   C3A10697  27.036  29.952   8.015
  581POPC   C4A10698  27.201  30.306   7.751
  581POPC   C1B10699  26.445  29.718   8.765
  581POPC   C2B10700  26.312  29.656   8.349
  581POPC   C3B10701  26.391  29.965   7.987
  581POPC   C4B10702  26.687  30.171   7.714
  582POPC   NC310703  31.340   4.622   9.873
  582POPC   PO410704  31.367   5.114   9.410
  582POPC   GL110705  31.354   5.241   9.027
  582POPC   GL210706  31.480   4.926   8.922
  582POPC   C1A10707  31.400   5.291   8.598
  582POPC   D2A10708  31.519   5.039   8.276
  582POPC   C3A10709  31.395   5.296   7.949
  582POPC   C4A10710  31.536   5.732   7.970
  582POPC   C1B10711  31.162   4.833   8.700
  582POPC   C2B10712  31.181   4.654   8.341
  582POPC   C3B10713  31.150   4.834   7.965
  582POPC   C4B10714  31.551   4.821   7.799
  583POPC   NC310715   1.854  11.046   9.400
  583POPC   PO410716   2.283  11.434   9.732
  583POPC   GL110717   2.044  11.505   9.270
  583POPC   GL210718   1.749  11.643   9.204
  583POPC   C1A10719   2.034  11.413   8.820
  583POPC   D2A10720   1.943  11.170   8.453
  583POPC   C3A10721   2.240  11.200   8.146
  583POPC   C4A10722   2.157  11.208   7.749
  583POPC   C1B10723   1.678  11.822   8.816
  583POPC   C2B10724   1.803  11.682   8.434
  583POPC   C3B10725   1.847  11.526   8.019
  583POPC   C4B10726   1.860  11.742   7.599
  584POPC   NC310727  22.983  19.662   9.526
  584POPC   PO410728  22.970  20.362   9.519
  584POPC   GL110729  23.048  20.101   9.184
  584POPC   GL210730  22.736  19.949   9.138
  584POPC   C1A10731  23.009  20.158   8.733
  584POPC   D2A10732  22.993  20.080   8.305
  584POPC   C3A10733  23.006  19.724   8.053
  584POPC   C4A10734  23.016  19.976   7.722
  584POPC   C1B10735  22.788  19.694   8.777
  584POPC   C2B10736  22.589  19.758   8.383
  584POPC   C3B10737  22.541  19.936   7.967
  584POPC   C4B10738  22.618  19.616   7.655
  585POPC   NC310739   4.860  37.978   9.436
  585POPC   PO410740   5.264  37.576   9.545
  585POPC   GL110741   5.110  37.646   9.124
  585POPC   GL210742   4.755  37.569   9.123
  585POPC   C1A10743   5.005  37.572   8.686
  585POPC   D2A10744   5.047  37.866   8.383
  585POPC   C3A10745   5.359  37.699   8.100
  585POPC   C4A10746   5.247  37.663   7.678
  585POPC   C1B10747   4.641  37.924   8.800
  585POPC   C2B10748   4.486  37.864   8.357
  585POPC   C3B10749   4.737  37.799   7.983
  585POPC   C4B10750   4.803  37.860   7.561
  586POPC   NC310751  18.024  22.515   9.895
  586POPC   PO410752  18.016  21.953   9.581
  586POPC   GL110753  18.107  21.971   9.165
  586POPC   GL210754  18.200  22.350   9.120
  586POPC   C1A10755  18.325  21.786   8.823
  586POPC   D2A10756  18.279  21.951   8.420
  586POPC   C3A10757  18.474  21.828   8.046
  586POPC   C4A10758  18.168  22.064   7.802
  586POPC   C1B10759  17.946  22.220   8.755
  586POPC   C2B10760  17.824  22.220   8.328
  586POPC   C3B10761  18.021  22.493   8.038
  586POPC   C4B10762  17.977  22.555   7.603
  587POPC   NC310763  38.857  39.398   9.633
  587POPC   PO410764  39.447  38.988   9.574
  587POPC   GL110765  39.207  39.102   9.204
  587POPC   GL210766  39.277  39.468   9.260
  587POPC   C1A10767  39.074  38.950   8.760
  587POPC   D2A10768  38.900  38.994   8.331
  587POPC   C3A10769  39.180  39.203   8.026
  587POPC   C4A10770  39.261  39.084   7.617
  587POPC   C1B10771  39.490  39.536   8.855
  587POPC   C2B10772  39.337  39.711   8.462
  587POPC   C3B10773  39.488  39.634   8.043
  587POPC   C4B10774  39.482  39.517   7.612
  588POPC   NC310775  34.367   5.691   9.489
  588POPC   PO410776  35.058   5.656   9.376
  588POPC   GL110777  34.663   5.746   9.090
  588POPC   GL210778  34.360   5.981   8.978
  588POPC   C1A10779  34.351   5.515   8.811
  588POPC   D2A10780  34.337   5.786   8.459
  588POPC   C3A10781  34.264   5.612   8.066
  588POPC   C4A10782  34.494   5.692   7.655
  588POPC   C1B10783  34.720   6.083   8.698
  588POPC   C2B10784  34.844   6.217   8.284
  588POPC   C3B10785  34.528   6.040   8.019
  588POPC   C4B10786  34.454   6.195   7.613
  589POPC   NC310787  11.780  26.609   9.416
  589POPC   PO410788  12.206  27.086   9.505
  589POPC   GL110789  12.341  26.908   9.115
  589POPC   GL210790  12.408  27.204   8.968
  589POPC   C1A10791  12.227  26.653   8.752
  589POPC   D2A10792  12.374  26.706   8.328
  589POPC   C3A10793  12.218  26.487   7.974
  589POPC   C4A10794  12.047  26.623   7.608
  589POPC   C1B10795  11.930  27.042   8.855
  589POPC   C2B10796  11.848  26.933   8.420
  589POPC   C3B10797  12.010  26.949   8.004
  589POPC   C4B10798  11.807  27.074   7.619
  590POPC   NC310799   2.903  21.601   9.636
  590POPC   PO410800   2.306  21.720   9.482
  590POPC   GL110801   2.592  21.580   9.188
  590POPC   GL210802   2.800  21.252   9.226
  590POPC   C1A10803   2.619  21.443   8.772
  590POPC   D2A10804   2.808  21.565   8.407
  590POPC   C3A10805   2.619  21.433   8.021
  590POPC   C4A10806   2.889  21.556   7.695
  590POPC   C1B10807   2.887  20.996   8.823
  590POPC   C2B10808   2.941  21.071   8.348
  590POPC   C3B10809   3.000  21.067   7.884
  590POPC   C4B10810   3.055  21.173   7.416
  591POPC   NC310811  42.379   3.639   9.728
  591POPC   PO410812  42.720   4.175   9.426
  591POPC   GL110813  42.538   3.794   9.091
  591POPC   GL210814  42.161   3.647   9.112
  591POPC   C1A10815  42.454   3.409   8.786
  591POPC   D2A10816  42.540   3.257   8.359
  591POPC   C3A10817  42.476   3.632   8.101
  591POPC   C4A10818  42.429   3.581   7.666
  591POPC   C1B10819  41.891   3.647   8.743
  591POPC   C2B10820  42.059   3.441   8.374
  591POPC   C3B10821  42.043   3.375   7.916
  591POPC   C4B10822  41.963   3.548   7.475
  592POPC   NC310823  20.166  21.480   9.660
  592POPC   PO410824  19.477  21.337   9.582
  592POPC   GL110825  19.694  21.341   9.215
  592POPC   GL210826  19.857  21.657   9.241
  592POPC   C1A10827  19.826  21.236   8.793
  592POPC   D2A10828  20.079  21.118   8.448
  592POPC   C3A10829  19.861  21.175   8.061
  592POPC   C4A10830  20.050  21.056   7.665
  592POPC   C1B10831  19.721  21.725   8.832
  592POPC   C2B10832  19.882  21.599   8.432
  592POPC   C3B10833  19.786  21.745   8.054
  592POPC   C4B10834  19.738  21.552   7.710
  593POPC   NC310835   4.183  11.877   9.525
  593POPC   PO410836   4.489  12.411   9.458
  593POPC   GL110837   4.389  12.192   9.134
  593POPC   GL210838   4.047  12.187   9.154
  593POPC   C1A10839   4.473  12.038   8.717
  593POPC   D2A10840   4.324  11.923   8.311
  593POPC   C3A10841   4.532  12.014   7.929
  593POPC   C4A10842   4.418  11.901   7.516
  593POPC   C1B10843   4.066  12.437   8.820
  593POPC   C2B10844   4.019  12.372   8.409
  593POPC   C3B10845   4.151  12.338   8.011
  593POPC   C4B10846   3.991  12.121   7.676
  594POPC   NC310847  11.072  15.612   9.776
  594POPC   PO410848  11.574  15.187   9.501
  594POPC   GL110849  11.331  15.017   9.191
  594POPC   GL210850  11.565  14.886   9.005
  594POPC   C1A10851  11.160  15.218   8.808
  594POPC   D2A10852  11.021  15.414   8.432
  594POPC   C3A10853  11.267  15.323   8.066
  594POPC   C4A10854  11.111  15.222   7.716
  594POPC   C1B10855  11.528  14.956   8.588
  594POPC   C2B10856  11.162  14.911   8.329
  594POPC   C3B10857  11.274  14.800   7.929
  594POPC   C4B10858  11.438  14.626   7.564
  595POPC   NC310859  19.809  22.771   9.608
  595POPC   PO410860  19.714  23.457   9.530
  595POPC   GL110861  19.731  23.241   9.130
  595POPC   GL210862  19.896  22.891   9.130
  595POPC   C1A10863  19.806  23.105   8.694
  595POPC   D2A10864  20.097  22.994   8.355
  595POPC   C3A10865  19.854  23.039   7.999
  595POPC   C4A10866  19.942  23.359   7.747
  595POPC   C1B10867  20.163  22.705   8.789
  595POPC   C2B10868  20.067  22.458   8.412
  595POPC   C3B10869  19.885  22.504   7.990
  595POPC   C4B10870  19.513  22.635   7.766
  596POPC   NC310871  40.215  24.042   9.624
  596POPC   PO410872  39.846  24.524   9.212
  596POPC   GL110873  40.046  24.326   8.900
  596POPC   GL210874  40.316  24.115   9.104
  596POPC   C1A10875  40.074  24.460   8.470
  596POPC   D2A10876  40.097  24.765   8.135
  596POPC   C3A10877  39.940  24.632   7.724
  596POPC   C4A10878  39.613  24.724   7.378
  596POPC   C1B10879  40.491  24.293   8.711
  596POPC   C2B10880  40.582  24.424   8.319
  596POPC   C3B10881  40.283  24.301   8.029
  596POPC   C4B10882  40.167  24.182   7.669
  597POPC   NC310883   5.948  24.673   9.404
  597POPC   PO410884   5.588  24.110   9.353
  597POPC   GL110885   5.759  24.313   9.007
  597POPC   GL210886   5.812  24.699   8.937
  597POPC   C1A10887   5.792  24.339   8.583
  597POPC   D2A10888   5.734  24.669   8.327
  597POPC   C3A10889   5.708  24.492   7.935
  597POPC   C4A10890   5.520  24.541   7.551
  597POPC   C1B10891   6.205  24.644   8.714
  597POPC   C2B10892   6.268  24.465   8.335
  597POPC   C3B10893   6.160  24.706   8.003
  597POPC   C4B10894   6.111  24.528   7.606
  598POPC   NC310895   6.398  19.300   9.568
  598POPC   PO410896   6.723  18.741   9.535
  598POPC   GL110897   6.720  18.979   9.168
  598POPC   GL210898   6.832  19.341   9.262
  598POPC   C1A10899   6.755  18.811   8.721
  598POPC   D2A10900   6.982  18.688   8.359
  598POPC   C3A10901   6.784  18.815   7.971
  598POPC   C4A10902   6.835  18.740   7.534
  598POPC   C1B10903   6.845  19.315   8.811
  598POPC   C2B10904   6.638  19.196   8.395
  598POPC   C3B10905   6.820  19.324   8.012
  598POPC   C4B10906   6.835  19.256   7.569
  599POPC   NC310907  34.597   6.782   9.494
  599POPC   PO410908  34.527   6.140   9.412
  599POPC   GL110909  34.597   6.459   9.087
  599POPC   GL210910  34.304   6.740   9.083
  599POPC   C1A10911  34.626   6.693   8.679
  599POPC   D2A10912  34.415   6.974   8.354
  599POPC   C3A10913  34.605   6.914   7.940
  599POPC   C4A10914  34.810   6.552   7.777
  599POPC   C1B10915  34.204   6.428   8.784
  599POPC   C2B10916  34.360   6.312   8.420
  599POPC   C3B10917  34.367   6.501   8.027
  599POPC   C4B10918  34.323   6.674   7.575
  600POPC   NC310919  44.907  31.875   9.442
  600POPC   PO410920  44.516  31.365   9.511
  600POPC   GL110921  44.658  31.498   9.147
  600POPC   GL210922  44.522  31.784   9.121
  600POPC   C1A10923  44.539  31.351   8.742
  600POPC   D2A10924  44.693  31.085   8.409
  600POPC   C3A10925  44.584  31.335   8.043
  600POPC   C4A10926  44.584  31.479   7.638
  600POPC   C1B10927  44.802  31.828   8.771
  600POPC   C2B10928  44.854  31.659   8.362
  600POPC   C3B10929  44.746  31.857   7.947
  600POPC   C4B10930  44.365  31.963   7.688
  601POPC   NC310931  30.698  21.884   9.527
  601POPC   PO410932  30.606  22.561   9.516
  601POPC   GL110933  30.675  22.412   9.122
  601POPC   GL210934  30.526  22.094   9.090
  601POPC   C1A10935  30.522  22.485   8.720
  601POPC   D2A10936  30.646  22.601   8.322
  601POPC   C3A10937  30.809  22.259   8.163
  601POPC   C4A10938  30.904  22.274   7.774
  601POPC   C1B10939  30.503  21.831   8.734
  601POPC   C2B10940  30.663  21.777   8.318
  601POPC   C3B10941  30.521  21.933   7.900
  601POPC   C4B10942  30.694  21.916   7.481
  602POPC   NC310943  42.639  34.196   9.191
  602POPC   PO410944  42.030  33.910   9.388
  602POPC   GL110945  42.289  33.762   9.111
  602POPC   GL210946  42.514  33.508   9.233
  602POPC   C1A10947  42.236  33.877   8.702
  602POPC   D2A10948  41.971  33.786   8.364
  602POPC   C3A10949  42.157  33.778   7.984
  602POPC   C4A10950  42.346  34.032   7.681
  602POPC   C1B10951  42.551  33.484   8.780
  602POPC   C2B10952  42.538  33.649   8.369
  602POPC   C3B10953  42.599  33.513   7.977
  602POPC   C4B10954  42.390  33.516   7.601
  603POPC   NC310955  37.636  29.922   9.450
  603POPC   PO410956  38.147  29.606   9.567
  603POPC   GL110957  38.010  29.747   9.105
  603POPC   GL210958  37.752  30.019   8.984
  603POPC   C1A10959  38.137  29.906   8.673
  603POPC   D2A10960  38.083  30.121   8.289
  603POPC   C3A10961  37.886  29.894   7.963
  603POPC   C4A10962  37.806  30.056   7.592
  603POPC   C1B10963  37.325  30.097   8.835
  603POPC   C2B10964  37.289  30.124   8.404
  603POPC   C3B10965  37.422  30.145   7.967
  603POPC   C4B10966  37.403  29.770   7.726
  604POPC   NC310967   3.101  10.130   9.623
  604POPC   PO410968   3.520   9.645   9.618
  604POPC   GL110969   3.559   9.910   9.230
  604POPC   GL210970   3.874  10.085   9.204
  604POPC   C1A10971   3.622   9.710   8.794
  604POPC   D2A10972   3.498   9.415   8.427
  604POPC   C3A10973   3.301   9.503   8.011
  604POPC   C4A10974   3.467   9.618   7.619
  604POPC   C1B10975   3.660  10.232   8.845
  604POPC   C2B10976   3.742  10.085   8.441
  604POPC   C3B10977   3.536   9.964   8.091
  604POPC   C4B10978   3.613  10.104   7.714
  605POPC   NC310979   3.499  34.422   9.708
  605POPC   PO410980   3.544  33.815   9.804
  605POPC   GL110981   3.563  33.826   9.265
  605POPC   GL210982   3.430  34.168   9.179
  605POPC   C1A10983   3.538  33.844   8.810
  605POPC   D2A10984   3.300  33.905   8.441
  605POPC   C3A10985   3.476  33.721   8.109
  605POPC   C4A10986   3.641  33.870   7.745
  605POPC   C1B10987   3.139  34.242   8.839
  605POPC   C2B10988   2.983  34.286   8.370
  605POPC   C3B10989   3.243  34.158   7.975
  605POPC   C4B10990   3.277  34.117   7.500
  606POPC   NC310991  40.143  22.269   9.577
  606POPC   PO410992  39.550  21.935   9.638
  606POPC   GL110993  39.790  22.095   9.224
  606POPC   GL210994  40.172  22.106   9.108
  606POPC   C1A10995  39.829  21.978   8.771
  606POPC   D2A10996  39.747  21.830   8.380
  606POPC   C3A10997  39.723  22.180   8.122
  606POPC   C4A10998  40.070  22.123   7.907
  606POPC   C1B10999  40.084  22.447   8.775
  606POPC   C2B11000  40.101  22.508   8.296
  606POPC   C3B11001  40.271  22.585   7.849
  606POPC   C4B11002  40.214  22.318   7.439
  607POPC   NC311003   6.134  44.272   9.496
  607POPC   PO411004   6.664  43.946   9.770
  607POPC   GL111005   6.554  44.001   9.340
  607POPC   GL211006   6.504  43.704   9.185
  607POPC   C1A11007   6.693  44.063   8.903
  607POPC   D2A11008   6.522  44.250   8.535
  607POPC   C3A11009   6.593  44.068   8.133
  607POPC   C4A11010   6.907  44.076   7.832
  607POPC   C1B11011   6.288  43.592   8.818
  607POPC   C2B11012   6.203  43.747   8.399
  607POPC   C3B11013   6.324  43.627   7.958
  607POPC   C4B11014   6.510  43.843   7.597
  608POPC   NC311015  26.756  35.591   9.529
  608POPC   PO411016  26.655  36.213   9.601
  608POPC   GL111017  26.794  36.265   9.159
  608POPC   GL211018  26.680  35.950   9.125
  608POPC   C1A11019  26.754  36.344   8.689
  608POPC   D2A11020  26.934  36.295   8.267
  608POPC   C3A11021  26.706  36.203   7.886
  608POPC   C4A11022  27.036  36.153   7.587
  608POPC   C1B11023  27.024  35.902   8.840
  608POPC   C2B11024  27.026  35.805   8.410
  608POPC   C3B11025  27.017  35.818   7.974
  608POPC   C4B11026  27.218  35.668   7.595
  609POPC   NC311027  17.985  35.524   9.481
  609POPC   PO411028  17.433  35.133   9.515
  609POPC   GL111029  17.572  35.428   9.196
  609POPC   GL211030  17.859  35.230   9.089
  609POPC   C1A11031  17.660  35.675   8.802
  609POPC   D2A11032  17.685  35.556   8.343
  609POPC   C3A11033  17.286  35.428   8.117
  609POPC   C4A11034  17.162  35.511   7.690
  609POPC   C1B11035  17.571  35.147   8.771
  609POPC   C2B11036  17.492  35.014   8.388
  609POPC   C3B11037  17.694  35.101   8.030
  609POPC   C4B11038  17.481  35.085   7.650
  610POPC   NC311039  33.491  25.891   9.454
  610POPC   PO411040  34.086  26.306   9.543
  610POPC   GL111041  33.886  26.108   9.169
  610POPC   GL211042  33.551  26.250   9.089
  610POPC   C1A11043  34.011  25.918   8.761
  610POPC   D2A11044  33.857  26.078   8.377
  610POPC   C3A11045  34.074  25.936   8.011
  610POPC   C4A11046  33.865  25.976   7.610
  610POPC   C1B11047  33.520  25.878   8.809
  610POPC   C2B11048  33.514  25.720   8.423
  610POPC   C3B11049  33.581  25.836   8.018
  610POPC   C4B11050  33.349  25.960   7.697
  611POPC   NC311051  22.657  37.249   9.294
  611POPC   PO411052  22.833  36.597   9.552
  611POPC   GL111053  22.843  36.642   9.116
  611POPC   GL211054  23.023  36.935   9.069
  611POPC   C1A11055  22.762  36.771   8.669
  611POPC   D2A11056  22.910  36.988   8.287
  611POPC   C3A11057  22.779  36.833   7.898
  611POPC   C4A11058  22.933  36.826   7.454
  611POPC   C1B11059  22.962  37.246   8.726
  611POPC   C2B11060  23.212  37.404   8.396
  611POPC   C3B11061  23.301  37.154   8.014
  611POPC   C4B11062  23.319  37.196   7.598
  612POPC   NC311063  13.712  13.075   9.375
  612POPC   PO411064  13.615  12.432   9.353
  612POPC   GL111065  13.636  12.679   9.033
  612POPC   GL211066  13.331  12.833   9.056
  612POPC   C1A11067  13.879  12.748   8.674
  612POPC   D2A11068  14.011  12.902   8.272
  612POPC   C3A11069  13.895  12.683   7.928
  612POPC   C4A11070  13.714  12.870   7.559
  612POPC   C1B11071  13.286  12.626   8.668
  612POPC   C2B11072  13.516  12.662   8.302
  612POPC   C3B11073  13.438  12.968   8.007
  612POPC   C4B11074  13.208  12.967   7.610
  613POPC   NC311075   5.098  26.528   9.473
  613POPC   PO411076   4.808  27.205   9.526
  613POPC   GL111077   5.048  26.965   9.201
  613POPC   GL211078   4.786  26.782   9.168
  613POPC   C1A11079   5.229  26.707   8.837
  613POPC   D2A11080   5.128  26.553   8.388
  613POPC   C3A11081   5.076  26.904   8.045
  613POPC   C4A11082   5.235  27.154   7.691
  613POPC   C1B11083   4.728  26.620   8.780
  613POPC   C2B11084   4.716  26.826   8.419
  613POPC   C3B11085   4.619  26.676   7.983
  613POPC   C4B11086   4.676  26.568   7.559
  614POPC   NC311087  40.659  26.313   9.548
  614POPC   PO411088  40.946  25.704   9.580
  614POPC   GL111089  40.897  25.996   9.239
  614POPC   GL211090  40.563  26.023   9.123
  614POPC   C1A11091  41.058  26.062   8.834
  614POPC   D2A11092  41.049  25.874   8.414
  614POPC   C3A11093  41.005  25.995   7.998
  614POPC   C4A11094  40.949  26.067   7.541
  614POPC   C1B11095  40.576  26.030   8.677
  614POPC   C2B11096  40.527  25.874   8.269
  614POPC   C3B11097  40.530  25.947   7.841
  614POPC   C4B11098  40.551  25.765   7.410
  615POPC   NC311099  38.418   6.498   9.688
  615POPC   PO411100  38.027   7.076   9.542
  615POPC   GL111101  38.326   6.790   9.277
  615POPC   GL211102  38.276   6.433   9.202
  615POPC   C1A11103  38.368   6.786   8.824
  615POPC   D2A11104  38.607   6.876   8.443
  615POPC   C3A11105  38.494   6.634   8.089
  615POPC   C4A11106  38.435   6.797   7.694
  615POPC   C1B11107  38.563   6.288   8.879
  615POPC   C2B11108  38.694   6.296   8.459
  615POPC   C3B11109  38.660   6.114   8.063
  615POPC   C4B11110  38.331   6.177   7.796
  616POPC   NC311111  15.737  23.036   9.539
  616POPC   PO411112  16.292  23.201   9.695
  616POPC   GL111113  16.325  23.183   9.219
  616POPC   GL211114  16.256  22.854   9.149
  616POPC   C1A11115  16.239  23.127   8.722
  616POPC   D2A11116  16.286  22.997   8.241
  616POPC   C3A11117  16.083  23.182   7.905
  616POPC   C4A11118  16.277  23.177   7.531
  616POPC   C1B11119  16.356  22.609   8.796
  616POPC   C2B11120  16.070  22.592   8.456
  616POPC   C3B11121  15.916  22.709   8.063
  616POPC   C4B11122  16.164  22.688   7.715
  617POPC   NC311123  12.329   4.689   9.567
  617POPC   PO411124  12.163   4.003   9.604
  617POPC   GL111125  12.019   4.385   9.285
  617POPC   GL211126  12.346   4.504   9.086
  617POPC   C1A11127  11.704   4.352   8.912
  617POPC   D2A11128  11.802   4.029   8.573
  617POPC   C3A11129  11.885   4.113   8.115
  617POPC   C4A11130  12.250   4.121   7.817
  617POPC   C1B11131  12.030   4.711   8.809
  617POPC   C2B11132  11.882   4.553   8.431
  617POPC   C3B11133  12.091   4.582   8.041
  617POPC   C4B11134  12.065   4.704   7.643
  618POPC   NC311135   7.854  13.242   9.507
  618POPC   PO411136   8.458  12.859   9.463
  618POPC   GL111137   8.333  12.791   9.056
  618POPC   GL211138   7.996  12.824   9.087
  618POPC   C1A11139   8.217  13.045   8.700
  618POPC   D2A11140   7.919  13.041   8.392
  618POPC   C3A11141   8.218  13.121   8.076
  618POPC   C4A11142   8.209  12.964   7.691
  618POPC   C1B11143   7.843  12.596   8.714
  618POPC   C2B11144   7.918  12.535   8.258
  618POPC   C3B11145   7.758  12.779   7.916
  618POPC   C4B11146   7.678  12.636   7.464
  619POPC   NC311147  42.486  38.132   9.470
  619POPC   PO411148  41.948  38.417   9.206
  619POPC   GL111149  42.337  38.341   9.027
  619POPC   GL211150  42.486  38.603   9.186
  619POPC   C1A11151  42.437  38.312   8.599
  619POPC   D2A11152  42.247  38.465   8.245
  619POPC   C3A11153  42.509  38.423   7.913
  619POPC   C4A11154  42.164  38.247   7.719
  619POPC   C1B11155  42.429  38.808   8.787
  619POPC   C2B11156  42.641  38.751   8.379
  619POPC   C3B11157  42.521  38.944   7.982
  619POPC   C4B11158  42.529  38.915   7.530
  620POPC   NC311159  22.989  33.956   9.651
  620POPC   PO411160  22.442  33.526   9.598
  620POPC   GL111161  22.751  33.550   9.244
  620POPC   GL211162  22.908  33.896   9.153
  620POPC   C1A11163  22.945  33.512   8.827
  620POPC   D2A11164  22.950  33.750   8.445
  620POPC   C3A11165  23.139  33.660   8.006
  620POPC   C4A11166  23.221  33.975   7.720
  620POPC   C1B11167  22.949  34.171   8.770
  620POPC   C2B11168  22.822  34.249   8.347
  620POPC   C3B11169  22.676  33.925   8.051
  620POPC   C4B11170  22.719  33.889   7.622
  621POPC   NC311171  19.296  23.562   9.365
  621POPC   PO411172  18.612  23.502   9.438
  621POPC   GL111173  18.833  23.726   9.148
  621POPC   GL211174  18.989  24.033   9.306
  621POPC   C1A11175  19.042  23.595   8.759
  621POPC   D2A11176  19.230  23.598   8.347
  621POPC   C3A11177  18.908  23.528   8.065
  621POPC   C4A11178  18.923  23.305   7.690
  621POPC   C1B11179  19.033  24.092   8.853
  621POPC   C2B11180  18.856  23.950   8.438
  621POPC   C3B11181  19.012  24.043   8.032
  621POPC   C4B11182  18.916  23.854   7.657
  622POPC   NC311183  22.036  34.336   9.552
  622POPC   PO411184  22.214  35.038   9.621
  622POPC   GL111185  22.149  34.761   9.277
  622POPC   GL211186  22.369  34.489   9.156
  622POPC   C1A11187  22.007  34.711   8.869
  622POPC   D2A11188  22.161  34.666   8.459
  622POPC   C3A11189  21.966  34.514   8.110
  622POPC   C4A11190  21.959  34.666   7.711
  622POPC   C1B11191  22.215  34.242   8.772
  622POPC   C2B11192  22.320  34.202   8.301
  622POPC   C3B11193  22.284  34.183   7.809
  622POPC   C4B11194  22.247  33.958   7.394
  623POPC   NC311195  41.777  24.896   9.669
  623POPC   PO411196  41.311  24.432   9.581
  623POPC   GL111197  41.671  24.554   9.283
  623POPC   GL211198  41.911  24.270   9.272
  623POPC   C1A11199  41.750  24.708   8.848
  623POPC   D2A11200  41.503  24.594   8.465
  623POPC   C3A11201  41.692  24.699   8.066
  623POPC   C4A11202  41.682  24.644   7.626
  623POPC   C1B11203  41.733  24.191   8.860
  623POPC   C2B11204  41.822  24.168   8.412
  623POPC   C3B11205  41.639  24.212   8.010
  623POPC   C4B11206  41.540  24.155   7.582
  624POPC   NC311207  15.461  13.657   9.709
  624POPC   PO411208  14.913  13.283   9.510
  624POPC   GL111209  14.875  13.457   9.143
  624POPC   GL211210  15.184  13.665   9.213
  624POPC   C1A11211  15.077  13.359   8.777
  624POPC   D2A11212  15.282  13.342   8.365
  624POPC   C3A11213  15.090  13.530   8.008
  624POPC   C4A11214  15.161  13.592   7.589
  624POPC   C1B11215  15.398  13.756   8.809
  624POPC   C2B11216  15.484  13.898   8.373
  624POPC   C3B11217  15.515  13.786   7.930
  624POPC   C4B11218  15.564  13.869   7.444
  625POPC   NC311219  16.986  35.021   9.390
  625POPC   PO411220  16.460  35.237   9.722
  625POPC   GL111221  16.557  35.415   9.272
  625POPC   GL211222  16.383  35.742   9.184
  625POPC   C1A11223  16.730  35.371   8.828
  625POPC   D2A11224  16.776  35.126   8.423
  625POPC   C3A11225  16.765  35.320   8.010
  625POPC   C4A11226  16.961  35.041   7.723
  625POPC   C1B11227  16.250  35.558   8.786
  625POPC   C2B11228  16.452  35.542   8.386
  625POPC   C3B11229  16.402  35.759   7.972
  625POPC   C4B11230  16.394  35.771   7.505
  626POPC   NC311231  19.513  36.059   9.820
  626POPC   PO411232  19.009  35.896   9.426
  626POPC   GL111233  19.053  35.920   9.034
  626POPC   GL211234  19.142  36.257   9.045
  626POPC   C1A11235  18.818  36.102   8.686
  626POPC   D2A11236  18.969  36.239   8.277
  626POPC   C3A11237  18.811  36.041   7.931
  626POPC   C4A11238  18.973  36.078   7.537
  626POPC   C1B11239  19.379  36.513   8.821
  626POPC   C2B11240  19.387  36.656   8.391
  626POPC   C3B11241  19.317  36.514   7.998
  626POPC   C4B11242  19.338  36.412   7.604
  627POPC   NC311243   8.659  15.818   9.447
  627POPC   PO411244   9.345  16.013   9.549
  627POPC   GL111245   9.013  16.176   9.263
  627POPC   GL211246   9.031  15.863   9.099
  627POPC   C1A11247   9.036  16.317   8.835
  627POPC   D2A11248   9.172  16.036   8.523
  627POPC   C3A11249   9.021  16.153   8.153
  627POPC   C4A11250   9.004  16.055   7.750
  627POPC   C1B11251   8.733  15.910   8.787
  627POPC   C2B11252   8.706  15.803   8.395
  627POPC   C3B11253   8.605  15.783   8.009
  627POPC   C4B11254   8.615  15.726   7.602
  628POPC   NC311255   0.718  34.035   9.466
  628POPC   PO411256   0.265  33.612   9.468
  628POPC   GL111257   0.197  33.856   9.126
  628POPC   GL211258   0.371  34.127   9.102
  628POPC   C1A11259   0.187  33.811   8.681
  628POPC   D2A11260   0.097  33.642   8.261
  628POPC   C3A11261   0.408  33.811   7.991
  628POPC   C4A11262   0.446  33.982   7.593
  628POPC   C1B11263   0.727  34.079   8.796
  628POPC   C2B11264   0.721  34.044   8.346
  628POPC   C3B11265   0.952  33.984   7.964
  628POPC   C4B11266   0.860  33.687   7.636
  629POPC   NC311267   0.133  44.732   9.390
  629POPC   PO411268   0.777  44.422   9.475
  629POPC   GL111269   0.640  44.577   9.102
  629POPC   GL211270   0.337  44.371   9.060
  629POPC   C1A11271   0.612  44.475   8.669
  629POPC   D2A11272   0.830  44.479   8.302
  629POPC   C3A11273   0.537  44.614   8.045
  629POPC   C4A11274   0.446  44.531   7.663
  629POPC   C1B11275   0.059  44.617   8.773
  629POPC   C2B11276   0.084  44.828   8.385
  629POPC   C3B11277   0.055  44.757   7.969
  629POPC   C4B11278  44.933  44.491   7.659
  630POPC   NC311279  44.737  23.337   9.668
  630POPC   PO411280  44.125  23.133   9.645
  630POPC   GL111281  44.445  22.932   9.292
  630POPC   GL211282  44.816  23.000   9.236
  630POPC   C1A11283  44.518  22.965   8.838
  630POPC   D2A11284  44.556  23.140   8.419
  630POPC   C3A11285  44.325  22.873   8.131
  630POPC   C4A11286  44.468  22.483   7.957
  630POPC   C1B11287   0.019  22.823   8.850
  630POPC   C2B11288  44.929  22.647   8.427
  630POPC   C3B11289  44.897  22.918   8.068
  630POPC   C4B11290  44.633  23.001   7.745
  631POPC   NC311291  37.145  39.104   9.448
  631POPC   PO411292  36.667  39.547   9.570
  631POPC   GL111293  36.782  39.381   9.176
  631POPC   GL211294  36.745  39.060   9.124
  631POPC   C1A11295  37.046  39.267   8.782
  631POPC   D2A11296  36.886  39.448   8.402
  631POPC   C3A11297  36.837  39.411   7.979
  631POPC   C4A11298  37.150  39.509   7.693
  631POPC   C1B11299  36.722  38.852   8.777
  631POPC   C2B11300  36.975  38.872   8.473
  631POPC   C3B11301  36.913  38.932   8.079
  631POPC   C4B11302  36.870  38.888   7.669
  632POPC   NC311303  30.203  13.348   9.660
  632POPC   PO411304  30.191  13.959   9.393
  632POPC   GL111305  29.982  13.871   9.068
  632POPC   GL211306  29.824  13.554   9.151
  632POPC   C1A11307  30.067  13.786   8.686
  632POPC   D2A11308  29.839  13.662   8.333
  632POPC   C3A11309  30.018  13.553   7.955
  632POPC   C4A11310  30.243  13.805   7.662
  632POPC   C1B11311  29.563  13.624   8.788
  632POPC   C2B11312  29.367  13.483   8.403
  632POPC   C3B11313  29.408  13.656   8.006
  632POPC   C4B11314  29.607  13.515   7.655
  633POPC   NC311315   7.797  15.846   9.783
  633POPC   PO411316   8.362  16.182   9.475
  633POPC   GL111317   8.348  16.027   9.083
  633POPC   GL211318   8.232  15.738   9.075
  633POPC   C1A11319   8.210  15.995   8.656
  633POPC   D2A11320   8.167  15.798   8.281
  633POPC   C3A11321   8.158  16.024   7.918
  633POPC   C4A11322   7.952  16.036   7.535
  633POPC   C1B11323   7.962  15.550   8.702
  633POPC   C2B11324   7.656  15.758   8.365
  633POPC   C3B11325   7.757  15.686   7.909
  633POPC   C4B11326   8.185  15.526   7.819
  634POPC   NC311327  14.469   8.727   9.578
  634POPC   PO411328  15.006   9.103   9.524
  634POPC   GL111329  14.682   9.024   9.209
  634POPC   GL211330  14.308   9.047   9.203
  634POPC   C1A11331  14.595   9.185   8.797
  634POPC   D2A11332  14.662   8.969   8.399
  634POPC   C3A11333  14.582   9.286   8.137
  634POPC   C4A11334  14.379   9.279   7.779
  634POPC   C1B11335  14.213   8.861   8.784
  634POPC   C2B11336  14.160   9.086   8.386
  634POPC   C3B11337  14.226   8.838   8.000
  634POPC   C4B11338  14.053   8.930   7.592
  635POPC   NC311339  12.741  36.879   9.477
  635POPC   PO411340  13.154  36.477   9.274
  635POPC   GL111341  12.932  36.635   9.031
  635POPC   GL211342  13.088  36.938   9.071
  635POPC   C1A11343  12.903  36.476   8.652
  635POPC   D2A11344  12.858  36.704   8.312
  635POPC   C3A11345  12.925  36.537   7.961
  635POPC   C4A11346  12.955  36.855   7.691
  635POPC   C1B11347  12.889  37.023   8.709
  635POPC   C2B11348  12.602  37.154   8.417
  635POPC   C3B11349  12.794  37.162   8.057
  635POPC   C4B11350  12.922  37.381   7.717
  636POPC   NC311351   4.841  28.850   9.434
  636POPC   PO411352   5.225  29.397   9.431
  636POPC   GL111353   5.153  29.132   9.126
  636POPC   GL211354   5.253  28.783   9.148
  636POPC   C1A11355   5.081  29.142   8.735
  636POPC   D2A11356   5.084  29.355   8.423
  636POPC   C3A11357   4.816  29.431   8.118
  636POPC   C4A11358   5.057  29.297   7.761
  636POPC   C1B11359   5.147  28.650   8.726
  636POPC   C2B11360   5.173  28.832   8.310
  636POPC   C3B11361   5.158  28.813   7.865
  636POPC   C4B11362   5.291  28.802   7.437
  637POPC   NC311363  31.577  20.542   9.510
  637POPC   PO411364  31.691  21.253   9.567
  637POPC   GL111365  31.624  20.956   9.202
  637POPC   GL211366  31.323  21.039   9.051
  637POPC   C1A11367  31.600  20.625   8.824
  637POPC   D2A11368  31.448  20.343   8.448
  637POPC   C3A11369  31.601  20.449   8.016
  637POPC   C4A11370  31.668  20.910   7.884
  637POPC   C1B11371  31.201  20.936   8.685
  637POPC   C2B11372  31.418  20.874   8.338
  637POPC   C3B11373  31.192  20.734   7.999
  637POPC   C4B11374  31.321  20.640   7.606
  638POPC   NC311375  10.970  14.640   9.563
  638POPC   PO411376  10.532  14.052   9.546
  638POPC   GL111377  10.590  14.378   9.248
  638POPC   GL211378  10.286  14.420   9.169
  638POPC   C1A11379  10.647  14.511   8.788
  638POPC   D2A11380  10.682  14.694   8.333
  638POPC   C3A11381  10.551  14.417   7.966
  638POPC   C4A11382  10.462  13.972   7.889
  638POPC   C1B11383  10.145  14.471   8.772
  638POPC   C2B11384  10.108  14.326   8.325
  638POPC   C3B11385  10.065  14.304   7.866
  638POPC   C4B11386  10.234  14.250   7.435
  639POPC   NC311387  14.718  11.191   9.485
  639POPC   PO411388  14.023  11.222   9.514
  639POPC   GL111389  14.238  11.198   9.117
  639POPC   GL211390  14.593  11.339   9.019
  639POPC   C1A11391  14.230  11.196   8.681
  639POPC   D2A11392  14.559  11.307   8.417
  639POPC   C3A11393  14.296  11.372   8.082
  639POPC   C4A11394  14.023  11.131   7.815
  639POPC   C1B11395  14.641  10.929   8.839
  639POPC   C2B11396  14.730  10.802   8.411
  639POPC   C3B11397  14.477  10.893   8.051
  639POPC   C4B11398  14.533  11.136   7.665
  640POPC   NC311399  16.514  17.483   9.554
  640POPC   PO411400  17.081  17.747   9.469
  640POPC   GL111401  16.837  17.545   9.168
  640POPC   GL211402  16.598  17.775   9.150
  640POPC   C1A11403  16.865  17.318   8.790
  640POPC   D2A11404  16.929  17.509   8.393
  640POPC   C3A11405  16.961  17.262   7.993
  640POPC   C4A11406  16.994  17.241   7.515
  640POPC   C1B11407  16.373  17.498   8.861
  640POPC   C2B11408  16.350  17.621   8.414
  640POPC   C3B11409  16.546  17.529   8.066
  640POPC   C4B11410  16.600  17.543   7.678
  641POPC   NC311411  12.374  19.732   9.506
  641POPC   PO411412  12.978  19.992   9.438
  641POPC   GL111413  12.688  19.916   9.127
  641POPC   GL211414  12.660  19.599   9.112
  641POPC   C1A11415  12.818  19.926   8.723
  641POPC   D2A11416  13.078  19.720   8.445
  641POPC   C3A11417  12.910  19.727   8.036
  641POPC   C4A11418  12.737  20.094   7.848
  641POPC   C1B11419  12.747  19.370   8.746
  641POPC   C2B11420  12.580  19.378   8.345
  641POPC   C3B11421  12.428  19.522   7.991
  641POPC   C4B11422  12.693  19.424   7.685
  642POPC   NC311423  38.306  38.618   9.932
  642POPC   PO411424  38.672  38.509   9.408
  642POPC   GL111425  38.521  38.380   9.038
  642POPC   GL211426  38.664  38.073   8.979
  642POPC   C1A11427  38.486  38.450   8.607
  642POPC   D2A11428  38.295  38.795   8.366
  642POPC   C3A11429  38.187  38.661   7.953
  642POPC   C4A11430  38.029  38.315   7.728
  642POPC   C1B11431  38.848  38.013   8.628
  642POPC   C2B11432  38.810  37.943   8.210
  642POPC   C3B11433  38.849  38.024   7.771
  642POPC   C4B11434  38.545  38.330   7.693
  643POPC   NC311435  18.471  15.510   9.437
  643POPC   PO411436  18.081  16.101   9.428
  643POPC   GL111437  18.202  15.899   9.078
  643POPC   GL211438  18.573  15.880   9.093
  643POPC   C1A11439  18.041  15.877   8.651
  643POPC   D2A11440  18.023  15.676   8.234
  643POPC   C3A11441  18.168  15.909   7.878
  643POPC   C4A11442  18.416  16.311   7.825
  643POPC   C1B11443  18.425  15.528   8.793
  643POPC   C2B11444  18.379  15.343   8.399
  643POPC   C3B11445  18.518  15.502   8.002
  643POPC   C4B11446  18.531  15.671   7.577
  644POPC   NC311447  22.022  33.726   9.550
  644POPC   PO411448  22.496  34.255   9.590
  644POPC   GL111449  22.394  33.959   9.224
  644POPC   GL211450  22.246  33.615   9.121
  644POPC   C1A11451  22.544  33.847   8.792
  644POPC   D2A11452  22.431  33.614   8.451
  644POPC   C3A11453  22.156  33.733   8.150
  644POPC   C4A11454  22.316  33.649   7.787
  644POPC   C1B11455  21.990  33.566   8.741
  644POPC   C2B11456  21.975  33.282   8.378
  644POPC   C3B11457  21.852  33.345   7.942
  644POPC   C4B11458  21.829  33.684   7.646
  645POPC   NC311459  14.761  31.860   9.470
  645POPC   PO411460  14.202  31.375   9.405
  645POPC   GL111461  14.361  31.371   8.991
  645POPC   GL211462  14.419  31.717   9.068
  645POPC   C1A11463  14.504  31.250   8.542
  645POPC   D2A11464  14.701  31.111   8.117
  645POPC   C3A11465  14.593  31.464   7.840
  645POPC   C4A11466  14.145  31.631   7.899
  645POPC   C1B11467  14.548  31.907   8.690
  645POPC   C2B11468  14.462  31.762   8.291
  645POPC   C3B11469  14.527  31.966   7.914
  645POPC   C4B11470  14.483  31.893   7.488
  646POPC   NC311471  24.185  35.085   9.542
  646POPC   PO411472  24.529  35.656   9.650
  646POPC   GL111473  24.660  35.302   9.325
  646POPC   GL211474  24.384  35.225   9.094
  646POPC   C1A11475  24.829  35.187   8.887
  646POPC   D2A11476  24.541  35.146   8.514
  646POPC   C3A11477  24.663  35.299   8.110
  646POPC   C4A11478  24.446  35.401   7.761
  646POPC   C1B11479  24.141  35.003   8.827
  646POPC   C2B11480  24.014  35.035   8.409
  646POPC   C3B11481  24.245  35.021   8.056
  646POPC   C4B11482  24.198  34.965   7.653
  647POPC   NC311483  37.725   5.403   9.507
  647POPC   PO411484  37.609   4.758   9.572
  647POPC   GL111485  37.720   4.895   9.140
  647POPC   GL211486  37.872   5.213   9.072
  647POPC   C1A11487  37.825   4.941   8.678
  647POPC   D2A11488  38.082   5.030   8.341
  647POPC   C3A11489  37.877   4.961   7.959
  647POPC   C4A11490  37.513   5.074   7.747
  647POPC   C1B11491  37.874   5.450   8.677
  647POPC   C2B11492  37.675   5.321   8.309
  647POPC   C3B11493  37.858   5.459   7.941
  647POPC   C4B11494  37.639   5.613   7.661
  648POPC   NC311495  19.932   2.642   9.680
  648POPC   PO411496  19.973   2.302   9.123
  648POPC   GL111497  19.988   2.691   8.978
  648POPC   GL211498  19.846   2.877   9.233
  648POPC   C1A11499  19.922   2.704   8.539
  648POPC   D2A11500  19.765   2.365   8.239
  648POPC   C3A11501  19.828   2.460   7.813
  648POPC   C4A11502  20.130   2.762   7.836
  648POPC   C1B11503  19.573   2.966   8.855
  648POPC   C2B11504  19.644   3.137   8.470
  648POPC   C3B11505  19.655   2.877   8.132
  648POPC   C4B11506  19.680   2.969   7.748
  649POPC   NC311507  34.358   9.716   9.395
  649POPC   PO411508  34.502   9.067   9.469
  649POPC   GL111509  34.791   8.997   9.108
  649POPC   GL211510  34.586   8.718   8.921
  649POPC   C1A11511  35.012   8.928   8.721
  649POPC   D2A11512  34.674   8.902   8.433
  649POPC   C3A11513  34.694   9.090   8.057
  649POPC   C4A11514  34.732   8.752   7.792
  649POPC   C1B11515  34.383   9.113   8.791
  649POPC   C2B11516  34.309   9.261   8.382
  649POPC   C3B11517  34.157   9.182   7.980
  649POPC   C4B11518  34.365   9.097   7.634
  650POPC   NC311519  17.345  17.052   9.473
  650POPC   PO411520  17.532  16.400   9.527
  650POPC   GL111521  17.379  16.624   9.187
  650POPC   GL211522  17.638  16.793   9.063
  650POPC   C1A11523  17.278  16.518   8.760
  650POPC   D2A11524  17.507  16.653   8.441
  650POPC   C3A11525  17.392  16.485   8.050
  650POPC   C4A11526  17.556  16.663   7.729
  650POPC   C1B11527  17.288  17.006   8.826
  650POPC   C2B11528  17.132  17.025   8.428
  650POPC   C3B11529  17.413  17.015   8.095
  650POPC   C4B11530  17.457  17.178   7.713
  651POPC   NC311531  31.159  38.655   9.491
  651POPC   PO411532  31.791  38.288   9.553
  651POPC   GL111533  31.566  38.265   9.131
  651POPC   GL211534  31.393  38.567   9.057
  651POPC   C1A11535  31.529  38.290   8.651
  651POPC   D2A11536  31.754  38.251   8.243
  651POPC   C3A11537  31.488  38.284   7.836
  651POPC   C4A11538  31.222  38.572   7.568
  651POPC   C1B11539  31.207  38.738   8.670
  651POPC   C2B11540  31.453  38.818   8.287
  651POPC   C3B11541  31.443  38.929   7.858
  651POPC   C4B11542  31.643  38.874   7.456
  652POPC   NC311543  24.869  38.654   9.583
  652POPC   PO411544  24.394  38.194   9.596
  652POPC   GL111545  24.357  38.362   9.182
  652POPC   GL211546  24.668  38.552   9.119
  652POPC   C1A11547  24.247  38.482   8.755
  652POPC   D2A11548  24.159  38.748   8.411
  652POPC   C3A11549  24.162  38.526   8.032
  652POPC   C4A11550  24.220  38.694   7.613
  652POPC   C1B11551  24.790  38.486   8.705
  652POPC   C2B11552  24.603  38.442   8.316
  652POPC   C3B11553  24.642  38.594   7.919
  652POPC   C4B11554  24.706  38.530   7.492
  653POPC   NC311555  32.799   6.359   9.602
  653POPC   PO411556  33.256   6.938   9.785
  653POPC   GL111557  33.155   6.830   9.324
  653POPC   GL211558  33.271   6.486   9.313
  653POPC   C1A11559  32.872   6.797   8.918
  653POPC   D2A11560  32.868   6.523   8.525
  653POPC   C3A11561  32.788   6.716   8.112
  653POPC   C4A11562  32.717   6.453   7.743
  653POPC   C1B11563  33.273   6.510   8.860
  653POPC   C2B11564  33.347   6.668   8.411
  653POPC   C3B11565  33.206   6.461   8.039
  653POPC   C4B11566  33.134   6.699   7.658
  654POPC   NC311567  41.549   2.254   9.530
  654POPC   PO411568  41.763   1.587   9.473
  654POPC   GL111569  41.590   1.837   9.120
  654POPC   GL211570  41.507   2.194   9.027
  654POPC   C1A11571  41.483   1.775   8.671
  654POPC   D2A11572  41.402   1.966   8.308
  654POPC   C3A11573  41.446   1.834   7.942
  654POPC   C4A11574  41.272   2.079   7.689
  654POPC   C1B11575  41.856   2.111   8.755
  654POPC   C2B11576  41.950   1.933   8.386
  654POPC   C3B11577  41.962   1.916   7.953
  654POPC   C4B11578  41.746   2.212   7.709
  655POPC   NC311579  44.253  40.034   9.588
  655POPC   PO411580  43.616  40.224   9.524
  655POPC   GL111581  43.864  40.002   9.191
  655POPC   GL211582  44.193  40.198   9.127
  655POPC   C1A11583  43.673  39.823   8.789
  655POPC   D2A11584  43.781  39.984   8.367
  655POPC   C3A11585  43.563  39.966   7.972
  655POPC   C4A11586  43.897  39.914   7.670
  655POPC   C1B11587  44.342  40.394   8.782
  655POPC   C2B11588  44.255  40.217   8.408
  655POPC   C3B11589  44.417  40.287   8.026
  655POPC   C4B11590  44.315  40.216   7.635
  656POPC   NC311591   6.587  22.005   9.643
  656POPC   PO411592   6.630  22.680   9.601
  656POPC   GL111593   6.480  22.341   9.265
  656POPC   GL211594   6.544  21.978   9.146
  656POPC   C1A11595   6.407  22.354   8.801
  656POPC   D2A11596   6.708  22.370   8.440
  656POPC   C3A11597   6.542  22.473   8.056
  656POPC   C4A11598   6.351  22.091   7.959
  656POPC   C1B11599   6.865  22.004   8.813
  656POPC   C2B11600   6.947  21.875   8.394
  656POPC   C3B11601   6.900  22.030   7.969
  656POPC   C4B11602   6.906  21.862   7.528
  657POPC   NC311603  25.804   4.772   9.411
  657POPC   PO411604  26.275   5.229   9.509
  657POPC   GL111605  26.090   5.119   9.156
  657POPC   GL211606  26.123   4.792   9.014
  657POPC   C1A11607  26.120   5.285   8.757
  657POPC   D2A11608  26.260   5.256   8.380
  657POPC   C3A11609  25.888   5.292   8.182
  657POPC   C4A11610  25.846   5.289   7.777
  657POPC   C1B11611  25.910   4.852   8.581
  657POPC   C2B11612  25.886   4.778   8.117
  657POPC   C3B11613  26.135   4.762   7.712
  657POPC   C4B11614  26.324   4.798   7.247
  658POPC   NC311615  20.165  11.939   9.574
  658POPC   PO411616  19.826  11.372   9.543
  658POPC   GL111617  19.911  11.107   9.173
  658POPC   GL211618  20.228  11.255   9.205
  658POPC   C1A11619  19.749  11.023   8.781
  658POPC   D2A11620  19.559  11.305   8.517
  658POPC   C3A11621  19.698  11.299   8.109
  658POPC   C4A11622  19.562  11.440   7.723
  658POPC   C1B11623  20.104  11.414   8.815
  658POPC   C2B11624  20.098  11.271   8.442
  658POPC   C3B11625  20.197  11.430   8.073
  658POPC   C4B11626  20.074  11.228   7.720
  659POPC   NC311627   2.071   0.901   9.851
  659POPC   PO411628   2.050   0.276   9.594
  659POPC   GL111629   2.038   0.603   9.266
  659POPC   GL211630   1.816   0.469   9.068
  659POPC   C1A11631   2.162   0.773   8.834
  659POPC   D2A11632   2.112   0.733   8.391
  659POPC   C3A11633   2.095   0.335   8.169
  659POPC   C4A11634   2.084   0.297   7.718
  659POPC   C1B11635   1.697   0.619   8.688
  659POPC   C2B11636   1.619   0.512   8.276
  659POPC   C3B11637   1.834   0.726   7.937
  659POPC   C4B11638   1.799   0.774   7.508
  660POPC   NC311639  23.371  40.172   9.540
  660POPC   PO411640  22.763  39.811   9.365
  660POPC   GL111641  23.058  40.055   9.142
  660POPC   GL211642  23.181  39.801   8.886
  660POPC   C1A11643  23.111  40.290   8.774
  660POPC   D2A11644  23.094  40.042   8.417
  660POPC   C3A11645  22.864  40.180   8.082
  660POPC   C4A11646  22.996  40.096   7.679
  660POPC   C1B11647  22.734  39.870   8.727
  660POPC   C2B11648  22.529  39.814   8.334
  660POPC   C3B11649  22.724  39.734   7.903
  660POPC   C4B11650  22.744  39.694   7.459
  661POPC   NC311651  15.694  31.509   9.542
  661POPC   PO411652  16.320  31.266   9.457
  661POPC   GL111653  15.930  31.210   9.176
  661POPC   GL211654  15.673  31.498   9.052
  661POPC   C1A11655  15.992  31.279   8.720
  661POPC   D2A11656  15.821  31.292   8.319
  661POPC   C3A11657  16.105  31.470   7.999
  661POPC   C4A11658  16.171  31.303   7.591
  661POPC   C1B11659  15.608  31.765   8.706
  661POPC   C2B11660  15.741  31.809   8.271
  661POPC   C3B11661  15.619  31.563   7.908
  661POPC   C4B11662  15.795  31.663   7.510
  662POPC   NC311663  31.076  31.376   9.411
  662POPC   PO411664  31.688  31.689   9.376
  662POPC   GL111665  31.492  31.371   9.137
  662POPC   GL211666  31.302  31.615   8.977
  662POPC   C1A11667  31.392  31.168   8.771
  662POPC   D2A11668  31.342  31.374   8.392
  662POPC   C3A11669  31.693  31.438   8.143
  662POPC   C4A11670  31.576  31.228   7.809
  662POPC   C1B11671  31.723  31.554   8.723
  662POPC   C2B11672  31.996  31.744   8.452
  662POPC   C3B11673  31.998  31.853   8.015
  662POPC   C4B11674  31.699  31.775   7.683
  663POPC   NC311675  28.682  26.797   9.418
  663POPC   PO411676  29.263  26.757   9.541
  663POPC   GL111677  29.289  26.934   9.168
  663POPC   GL211678  28.950  26.895   9.012
  663POPC   C1A11679  29.395  26.785   8.794
  663POPC   D2A11680  29.084  26.755   8.526
  663POPC   C3A11681  29.099  26.800   8.129
  663POPC   C4A11682  29.164  26.748   7.719
  663POPC   C1B11683  28.764  27.126   8.670
  663POPC   C2B11684  28.988  27.296   8.306
  663POPC   C3B11685  28.855  27.205   7.908
  663POPC   C4B11686  28.653  26.825   7.833
  664POPC   NC311687  43.315  24.128   9.492
  664POPC   PO411688  42.849  24.550   9.561
  664POPC   GL111689  43.130  24.534   9.226
  664POPC   GL211690  43.032  24.796   9.062
  664POPC   C1A11691  43.328  24.432   8.820
  664POPC   D2A11692  43.542  24.583   8.451
  664POPC   C3A11693  43.241  24.508   8.162
  664POPC   C4A11694  43.270  24.394   7.771
  664POPC   C1B11695  42.760  24.877   8.727
  664POPC   C2B11696  42.797  24.767   8.299
  664POPC   C3B11697  42.634  24.960   7.928
  664POPC   C4B11698  42.693  24.773   7.543
  665POPC   NC311699   6.923  10.931   9.526
  665POPC   PO411700   6.686  10.351   9.471
  665POPC   GL111701   6.478  10.608   9.146
  665POPC   GL211702   6.433  10.978   9.164
  665POPC   C1A11703   6.391  10.553   8.715
  665POPC   D2A11704   6.628  10.435   8.368
  665POPC   C3A11705   6.420  10.463   7.993
  665POPC   C4A11706   6.755  10.226   7.867
  665POPC   C1B11707   6.684  10.973   8.765
  665POPC   C2B11708   6.591  10.934   8.295
  665POPC   C3B11709   6.830  10.770   7.947
  665POPC   C4B11710   7.068  10.969   7.630
  666POPC   NC311711  33.432  10.835   9.550
  666POPC   PO411712  34.003  10.564   9.338
  666POPC   GL111713  34.063  10.316   9.041
  666POPC   GL211714  34.373  10.156   9.142
  666POPC   C1A11715  33.774  10.415   8.721
  666POPC   D2A11716  33.605  10.311   8.358
  666POPC   C3A11717  33.826  10.490   8.018
  666POPC   C4A11718  33.510  10.571   7.788
  666POPC   C1B11719  34.376  10.119   8.695
  666POPC   C2B11720  34.140  10.236   8.355
  666POPC   C3B11721  34.093  10.077   7.945
  666POPC   C4B11722  34.029  10.315   7.554
  667POPC   NC311723  44.826   3.989   9.578
  667POPC   PO411724  44.529   4.591   9.627
  667POPC   GL111725  44.572   4.314   9.229
  667POPC   GL211726  44.859   4.125   9.093
  667POPC   C1A11727  44.462   4.144   8.783
  667POPC   D2A11728  44.676   4.011   8.366
  667POPC   C3A11729  44.496   4.060   7.947
  667POPC   C4A11730  44.576   4.285   7.553
  667POPC   C1B11731  44.976   4.271   8.701
  667POPC   C2B11732   0.030   4.413   8.291
  667POPC   C3B11733  44.957   4.276   7.875
  667POPC   C4B11734   0.074   4.355   7.453
  668POPC   NC311735   0.783   2.252   9.297
  668POPC   PO411736   0.389   1.843   9.564
  668POPC   GL111737   0.335   2.005   9.171
  668POPC   GL211738   0.624   1.835   9.054
  668POPC   C1A11739   0.205   1.931   8.750
  668POPC   D2A11740  44.910   1.960   8.392
  668POPC   C3A11741   0.080   2.063   7.992
  668POPC   C4A11742   0.327   2.057   7.619
  668POPC   C1B11743   0.718   2.061   8.683
  668POPC   C2B11744   0.535   2.207   8.347
  668POPC   C3B11745   0.731   2.142   7.972
  668POPC   C4B11746   0.831   2.040   7.551
  669POPC   NC311747  35.496  20.790   9.367
  669POPC   PO411748  35.427  20.166   9.267
  669POPC   GL111749  35.416  20.498   8.958
  669POPC   GL211750  35.193  20.819   8.967
  669POPC   C1A11751  35.488  20.720   8.577
  669POPC   D2A11752  35.443  20.768   8.157
  669POPC   C3A11753  35.467  20.373   7.913
  669POPC   C4A11754  35.270  20.345   7.527
  669POPC   C1B11755  34.964  20.928   8.588
  669POPC   C2B11756  34.884  20.759   8.214
  669POPC   C3B11757  35.039  20.668   7.844
  669POPC   C4B11758  35.024  20.802   7.397
  670POPC   NC311759  18.852   9.652   9.564
  670POPC   PO411760  19.294  10.113   9.372
  670POPC   GL111761  19.022   9.837   9.123
  670POPC   GL211762  19.109   9.461   9.155
  670POPC   C1A11763  19.106   9.738   8.699
  670POPC   D2A11764  19.440   9.812   8.407
  670POPC   C3A11765  19.306   9.797   7.990
  670POPC   C4A11766  19.419  10.155   7.756
  670POPC   C1B11767  18.720   9.464   8.914
  670POPC   C2B11768  18.727   9.466   8.475
  670POPC   C3B11769  18.802   9.678   8.089
  670POPC   C4B11770  18.848   9.532   7.667
  671POPC   NC311771  23.153  36.249   9.529
  671POPC   PO411772  22.512  35.992   9.578
  671POPC   GL111773  22.735  36.138   9.199
  671POPC   GL211774  23.079  36.014   9.067
  671POPC   C1A11775  22.676  36.275   8.781
  671POPC   D2A11776  22.893  35.985   8.526
  671POPC   C3A11777  23.031  36.019   8.097
  671POPC   C4A11778  22.949  35.976   7.665
  671POPC   C1B11779  23.170  36.383   8.780
  671POPC   C2B11780  23.039  36.484   8.335
  671POPC   C3B11781  23.159  36.486   7.873
  671POPC   C4B11782  23.176  36.360   7.427
  672POPC   NC311783  13.591  27.985   9.659
  672POPC   PO411784  13.659  28.604   9.339
  672POPC   GL111785  13.752  28.274   9.149
  672POPC   GL211786  13.497  28.020   9.149
  672POPC   C1A11787  13.818  28.286   8.737
  672POPC   D2A11788  13.634  28.538   8.428
  672POPC   C3A11789  13.726  28.313   8.061
  672POPC   C4A11790  13.571  28.277   7.646
  672POPC   C1B11791  13.309  28.309   8.803
  672POPC   C2B11792  13.050  28.257   8.406
  672POPC   C3B11793  13.123  28.366   7.950
  672POPC   C4B11794  13.236  28.671   7.611
  673POPC   NC311795   6.676  15.333   9.586
  673POPC   PO411796   6.042  15.504   9.364
  673POPC   GL111797   6.382  15.268   9.182
  673POPC   GL211798   6.687  15.065   9.160
  673POPC   C1A11799   6.417  15.399   8.799
  673POPC   D2A11800   6.404  15.194   8.427
  673POPC   C3A11801   6.735  15.299   8.184
  673POPC   C4A11802   6.477  15.514   7.908
  673POPC   C1B11803   6.510  14.885   8.833
  673POPC   C2B11804   6.758  14.844   8.496
  673POPC   C3B11805   6.742  14.796   8.094
  673POPC   C4B11806   6.938  14.989   7.783
  674POPC   NC311807  22.192  14.200   9.632
  674POPC   PO411808  21.711  14.578   9.575
  674POPC   GL111809  21.983  14.419   9.168
  674POPC   GL211810  22.250  14.153   9.117
  674POPC   C1A11811  22.011  14.322   8.713
  674POPC   D2A11812  21.785  14.095   8.392
  674POPC   C3A11813  21.940  14.167   7.964
  674POPC   C4A11814  22.238  14.440   7.819
  674POPC   C1B11815  22.468  14.080   8.715
  674POPC   C2B11816  22.628  14.288   8.373
  674POPC   C3B11817  22.712  14.376   7.969
  674POPC   C4B11818  22.573  14.115   7.624
  675POPC   NC311819   4.478   5.371   9.370
  675POPC   PO411820   3.902   5.236   9.751
  675POPC   GL111821   4.011   5.010   9.296
  675POPC   GL211822   4.267   4.724   9.201
  675POPC   C1A11823   4.143   5.074   8.835
  675POPC   D2A11824   4.011   5.158   8.418
  675POPC   C3A11825   4.256   5.185   8.075
  675POPC   C4A11826   4.247   5.214   7.669
  675POPC   C1B11827   4.570   4.780   8.831
  675POPC   C2B11828   4.600   4.975   8.404
  675POPC   C3B11829   4.693   4.949   7.931
  675POPC   C4B11830   4.651   5.015   7.454
  676POPC   NC311831  14.175  37.408   9.418
  676POPC   PO411832  14.758  37.074   9.505
  676POPC   GL111833  14.673  37.448   9.216
  676POPC   GL211834  14.526  37.817   9.232
  676POPC   C1A11835  14.462  37.492   8.818
  676POPC   D2A11836  14.445  37.800   8.479
  676POPC   C3A11837  14.485  37.659   8.056
  676POPC   C4A11838  14.224  37.397   7.787
  676POPC   C1B11839  14.215  37.992   8.907
  676POPC   C2B11840  14.028  38.117   8.516
  676POPC   C3B11841  13.930  38.131   8.087
  676POPC   C4B11842  14.107  37.901   7.758
  677POPC   NC311843   6.049   1.508   9.322
  677POPC   PO411844   5.721   1.101   9.665
  677POPC   GL111845   5.828   1.054   9.216
  677POPC   GL211846   6.149   0.956   9.212
  677POPC   C1A11847   5.828   1.194   8.787
  677POPC   D2A11848   5.637   1.377   8.426
  677POPC   C3A11849   5.655   1.167   8.028
  677POPC   C4A11850   5.676   1.384   7.628
  677POPC   C1B11851   6.269   0.953   8.757
  677POPC   C2B11852   6.169   1.248   8.378
  677POPC   C3B11853   6.087   1.429   7.979
  677POPC   C4B11854   6.092   1.089   7.693
  678POPC   NC311855  13.337  25.410   9.630
  678POPC   PO411856  12.779  25.202   9.295
  678POPC   GL111857  13.031  25.431   9.001
  678POPC   GL211858  12.912  25.735   9.115
  678POPC   C1A11859  13.011  25.354   8.539
  678POPC   D2A11860  12.669  25.290   8.217
  678POPC   C3A11861  12.811  24.991   7.859
  678POPC   C4A11862  13.220  24.980   7.593
  678POPC   C1B11863  12.616  25.651   8.764
  678POPC   C2B11864  12.428  25.760   8.369
  678POPC   C3B11865  12.590  25.738   7.938
  678POPC   C4B11866  12.979  25.485   7.869
  679POPC   NC311867   9.343  41.141   9.455
  679POPC   PO411868   9.811  40.536   9.467
  679POPC   GL111869   9.672  40.579   9.134
  679POPC   GL211870   9.657  40.911   9.121
  679POPC   C1A11871   9.758  40.588   8.720
  679POPC   D2A11872   9.881  40.480   8.332
  679POPC   C3A11873  10.088  40.663   8.005
  679POPC   C4A11874   9.777  40.652   7.693
  679POPC   C1B11875   9.423  41.003   8.758
  679POPC   C2B11876   9.576  40.903   8.346
  679POPC   C3B11877   9.674  41.087   7.973
  679POPC   C4B11878   9.378  41.371   7.776
  680POPC   NC311879   1.275  26.426   9.640
  680POPC   PO411880   0.999  27.001   9.580
  680POPC   GL111881   1.189  26.859   9.174
  680POPC   GL211882   1.507  27.058   9.155
  680POPC   C1A11883   1.010  26.836   8.739
  680POPC   D2A11884   0.849  26.615   8.367
  680POPC   C3A11885   0.954  26.685   7.946
  680POPC   C4A11886   0.954  26.540   7.507
  680POPC   C1B11887   1.368  27.199   8.736
  680POPC   C2B11888   1.216  27.039   8.298
  680POPC   C3B11889   1.438  27.226   7.905
  680POPC   C4B11890   1.570  27.186   7.424
  681POPC   NC311891  42.593  32.633   9.525
  681POPC   PO411892  41.983  32.263   9.524
  681POPC   GL111893  42.264  32.315   9.167
  681POPC   GL211894  42.599  32.365   9.086
  681POPC   C1A11895  42.234  32.474   8.745
  681POPC   D2A11896  42.003  32.279   8.409
  681POPC   C3A11897  42.230  32.243   8.030
  681POPC   C4A11898  42.340  32.140   7.610
  681POPC   C1B11899  42.820  32.626   8.821
  681POPC   C2B11900  42.674  32.640   8.413
  681POPC   C3B11901  42.881  32.659   8.034
  681POPC   C4B11902  42.586  32.566   7.725
  682POPC   NC311903  21.495  20.637   9.584
  682POPC   PO411904  22.058  20.876   9.701
  682POPC   GL111905  21.778  20.794   9.224
  682POPC   GL211906  21.657  20.369   9.155
  682POPC   C1A11907  21.392  20.700   8.887
  682POPC   D2A11908  21.485  20.802   8.446
  682POPC   C3A11909  21.234  20.934   8.098
  682POPC   C4A11910  21.424  20.899   7.696
  682POPC   C1B11911  21.541  20.178   8.724
  682POPC   C2B11912  21.351  20.305   8.273
  682POPC   C3B11913  21.276  20.434   7.814
  682POPC   C4B11914  21.060  20.618   7.420
  683POPC   NC311915   2.836   6.156   9.907
  683POPC   PO411916   2.406   5.799   9.545
  683POPC   GL111917   2.601   5.911   9.168
  683POPC   GL211918   2.956   5.837   9.103
  683POPC   C1A11919   2.647   6.142   8.797
  683POPC   D2A11920   2.505   5.996   8.429
  683POPC   C3A11921   2.651   6.069   8.040
  683POPC   C4A11922   2.475   5.906   7.695
  683POPC   C1B11923   2.762   5.650   8.732
  683POPC   C2B11924   2.650   5.519   8.318
  683POPC   C3B11925   2.798   5.592   7.938
  683POPC   C4B11926   3.009   5.830   7.647
  684POPC   NC311927  24.960  41.689   9.607
  684POPC   PO411928  24.318  41.386   9.591
  684POPC   GL111929  24.618  41.513   9.261
  684POPC   GL211930  24.786  41.194   9.319
  684POPC   C1A11931  24.698  41.683   8.822
  684POPC   D2A11932  24.509  41.942   8.472
  684POPC   C3A11933  24.384  41.726   8.098
  684POPC   C4A11934  24.633  41.729   7.749
  684POPC   C1B11935  24.473  41.145   8.953
  684POPC   C2B11936  24.566  41.274   8.523
  684POPC   C3B11937  24.639  41.167   8.099
  684POPC   C4B11938  24.443  41.261   7.721
  685POPC   NC311939   7.940  25.051   9.554
  685POPC   PO411940   8.349  25.592   9.541
  685POPC   GL111941   8.174  25.362   9.198
  685POPC   GL211942   7.868  25.545   9.169
  685POPC   C1A11943   8.319  25.141   8.792
  685POPC   D2A11944   8.446  25.379   8.396
  685POPC   C3A11945   8.308  25.275   8.011
  685POPC   C4A11946   8.262  25.443   7.626
  685POPC   C1B11947   7.853  25.311   8.811
  685POPC   C2B11948   7.938  25.303   8.396
  685POPC   C3B11949   7.829  25.114   8.014
  685POPC   C4B11950   7.705  25.211   7.623
  686POPC   NC311951   6.783  44.405   9.878
  686POPC   PO411952   6.298  44.774   9.547
  686POPC   GL111953   6.551  44.526   9.274
  686POPC   GL211954   6.337  44.378   9.050
  686POPC   C1A11955   6.778  44.573   8.878
  686POPC   D2A11956   6.861  44.727   8.459
  686POPC   C3A11957   7.082  44.481   8.153
  686POPC   C4A11958   6.885  44.565   7.749
  686POPC   C1B11959   6.254  44.658   8.748
  686POPC   C2B11960   6.346  44.675   8.308
  686POPC   C3B11961   6.415  44.701   7.907
  686POPC   C4B11962   6.418  44.329   7.730
  687POPC   NC311963  24.180  13.197   9.595
  687POPC   PO411964  24.362  12.538   9.480
  687POPC   GL111965  24.366  12.826   9.146
  687POPC   GL211966  24.477  13.185   9.164
  687POPC   C1A11967  24.587  12.809   8.751
  687POPC   D2A11968  24.352  12.830   8.395
  687POPC   C3A11969  24.479  12.900   8.027
  687POPC   C4A11970  24.654  12.609   7.761
  687POPC   C1B11971  24.229  13.182   8.783
  687POPC   C2B11972  24.071  13.246   8.381
  687POPC   C3B11973  24.079  13.225   7.945
  687POPC   C4B11974  24.072  12.897   7.678
  688POPC   NC311975  43.717  26.200   9.492
  688POPC   PO411976  44.100  25.632   9.540
  688POPC   GL111977  43.988  25.861   9.205
  688POPC   GL211978  43.671  25.758   9.131
  688POPC   C1A11979  43.835  26.131   8.839
  688POPC   D2A11980  43.701  25.968   8.445
  688POPC   C3A11981  43.604  26.269   8.143
  688POPC   C4A11982  43.812  26.084   7.769
  688POPC   C1B11983  43.531  25.568   8.747
  688POPC   C2B11984  43.473  25.521   8.317
  688POPC   C3B11985  43.808  25.627   8.030
  688POPC   C4B11986  44.229  25.607   7.833
  689POPC   NC311987  44.424  33.460   9.398
  689POPC   PO411988  44.813  32.994   9.611
  689POPC   GL111989  44.798  33.123   9.158
  689POPC   GL211990  44.886  33.451   9.153
  689POPC   C1A11991  44.676  32.923   8.726
  689POPC   D2A11992  44.746  32.640   8.353
  689POPC   C3A11993  44.637  32.821   7.930
  689POPC   C4A11994  44.737  32.893   7.476
  689POPC   C1B11995  44.893  33.380   8.684
  689POPC   C2B11996  44.789  33.208   8.263
  689POPC   C3B11997  44.914  33.268   7.818
  689POPC   C4B11998  44.924  33.365   7.345
  690POPC   NC311999  10.815  12.812   9.664
  690POPC   PO412000  10.306  13.100   9.342
  690POPC   GL112001  10.636  13.097   9.093
  690POPC   GL212002  10.691  12.780   9.162
  690POPC   C1A12003  10.776  12.912   8.687
  690POPC   D2A12004  10.578  12.755   8.301
  690POPC   C3A12005  10.681  13.046   7.966
  690POPC   C4A12006  10.660  13.189   7.497
  690POPC   C1B12007  10.339  12.658   8.804
  690POPC   C2B12008  10.201  12.381   8.442
  690POPC   C3B12009  10.176  12.514   8.010
  690POPC   C4B12010  10.516  12.614   7.740
  691POPC   NC312011  16.144  35.529   9.573
  691POPC   PO412012  15.626  35.109   9.614
  691POPC   GL112013  15.809  35.270   9.242
  691POPC   GL212014  16.130  35.181   9.100
  691POPC   C1A12015  15.744  35.380   8.817
  691POPC   D2A12016  15.887  35.219   8.449
  691POPC   C3A12017  16.046  35.399   8.115
  691POPC   C4A12018  15.829  35.348   7.770
  691POPC   C1B12019  16.335  35.073   8.685
  691POPC   C2B12020  16.310  34.919   8.281
  691POPC   C3B12021  16.433  34.945   7.878
  691POPC   C4B12022  16.343  35.307   7.679
  692POPC   NC312023  14.733  27.149   9.179
  692POPC   PO412024  15.069  27.651   9.463
  692POPC   GL112025  15.010  27.574   9.101
  692POPC   GL212026  15.353  27.446   9.050
  692POPC   C1A12027  15.044  27.761   8.731
  692POPC   D2A12028  15.279  27.595   8.415
  692POPC   C3A12029  14.980  27.402   8.120
  692POPC   C4A12030  14.871  27.635   7.722
  692POPC   C1B12031  15.561  27.173   8.716
  692POPC   C2B12032  15.499  27.182   8.230
  692POPC   C3B12033  15.362  27.360   7.791
  692POPC   C4B12034  15.299  27.019   7.452
  693POPC   NC312035  24.184  28.935   9.478
  693POPC   PO412036  24.417  29.502   9.514
  693POPC   GL112037  24.457  29.267   9.160
  693POPC   GL212038  24.122  29.308   9.141
  693POPC   C1A12039  24.638  29.082   8.767
  693POPC   D2A12040  24.869  29.058   8.378
  693POPC   C3A12041  24.652  28.963   8.020
  693POPC   C4A12042  24.615  29.355   7.738
  693POPC   C1B12043  24.115  29.133   8.780
  693POPC   C2B12044  24.315  29.106   8.380
  693POPC   C3B12045  24.182  29.107   7.964
  693POPC   C4B12046  24.017  28.984   7.599
  694POPC   NC312047  15.554  43.125   9.456
  694POPC   PO412048  14.959  42.791   9.393
  694POPC   GL112049  15.135  43.041   9.085
  694POPC   GL212050  15.463  42.911   8.999
  694POPC   C1A12051  14.992  43.107   8.657
  694POPC   D2A12052  14.771  43.286   8.305
  694POPC   C3A12053  14.993  43.175   7.941
  694POPC   C4A12054  15.258  42.842   7.824
  694POPC   C1B12055  15.452  43.316   8.771
  694POPC   C2B12056  15.367  43.310   8.322
  694POPC   C3B12057  15.569  43.223   7.938
  694POPC   C4B12058  15.550  43.111   7.498
  695POPC   NC312059  37.121  29.530   9.413
  695POPC   PO412060  37.226  30.145   9.511
  695POPC   GL112061  36.909  29.938   9.186
  695POPC   GL212062  36.709  29.587   9.147
  695POPC   C1A12063  36.829  29.918   8.761
  695POPC   D2A12064  36.968  29.691   8.426
  695POPC   C3A12065  36.962  29.927   8.074
  695POPC   C4A12066  36.897  29.850   7.700
  695POPC   C1B12067  36.476  29.525   8.808
  695POPC   C2B12068  36.583  29.366   8.386
  695POPC   C3B12069  36.676  29.449   7.951
  695POPC   C4B12070  36.328  29.632   7.746
  696POPC   NC312071  26.073   7.055   9.749
  696POPC   PO412072  26.217   7.661   9.446
  696POPC   GL112073  26.126   7.452   9.066
  696POPC   GL212074  25.817   7.400   9.172
  696POPC   C1A12075  26.222   7.369   8.623
  696POPC   D2A12076  26.344   7.162   8.227
  696POPC   C3A12077  26.149   7.372   7.886
  696POPC   C4A12078  25.833   7.165   7.646
  696POPC   C1B12079  25.703   7.442   8.741
  696POPC   C2B12080  25.788   7.261   8.307
  696POPC   C3B12081  25.679   7.534   7.945
  696POPC   C4B12082  25.472   7.744   7.636
  697POPC   NC312083   1.498  10.186   9.538
  697POPC   PO412084   0.883  10.539   9.657
  697POPC   GL112085   0.945  10.700   9.270
  697POPC   GL212086   1.313  10.724   9.280
  697POPC   C1A12087   0.904  10.564   8.848
  697POPC   D2A12088   1.085  10.362   8.497
  697POPC   C3A12089   0.960  10.534   8.132
  697POPC   C4A12090   0.882  10.376   7.752
  697POPC   C1B12091   1.346  10.842   8.834
  697POPC   C2B12092   1.430  10.737   8.381
  697POPC   C3B12093   1.493  10.569   7.955
  697POPC   C4B12094   1.632  10.782   7.569
  698POPC   NC312095  40.004   8.840   9.389
  698POPC   PO412096  39.701   9.459   9.455
  698POPC   GL112097  39.948   9.358   9.063
  698POPC   GL212098  40.042   9.033   8.926
  698POPC   C1A12099  40.231   9.452   8.704
  698POPC   D2A12100  40.406   9.254   8.329
  698POPC   C3A12101  40.121   9.291   7.986
  698POPC   C4A12102  39.855   8.999   7.745
  698POPC   C1B12103  40.200   8.643   8.727
  698POPC   C2B12104  40.020   8.371   8.428
  698POPC   C3B12105  40.002   8.574   8.036
  698POPC   C4B12106  40.320   8.837   7.960
  699POPC   NC312107  12.205  20.726   9.460
  699POPC   PO412108  11.989  20.110   9.518
  699POPC   GL112109  12.240  20.201   9.162
  699POPC   GL212110  12.057  20.504   9.028
  699POPC   C1A12111  12.357  20.224   8.721
  699POPC   D2A12112  12.130  20.357   8.328
  699POPC   C3A12113  12.326  20.451   7.894
  699POPC   C4A12114  12.475  20.658   7.483
  699POPC   C1B12115  12.096  20.772   8.656
  699POPC   C2B12116  11.826  20.804   8.271
  699POPC   C3B12117  11.873  20.743   7.826
  699POPC   C4B12118  11.771  20.852   7.370
  700POPC   NC312119  36.112  11.477   9.587
  700POPC   PO412120  36.554  10.976   9.742
  700POPC   GL112121  36.385  11.102   9.290
  700POPC   GL212122  36.091  11.251   9.138
  700POPC   C1A12123  36.472  11.173   8.818
  700POPC   D2A12124  36.392  11.376   8.416
  700POPC   C3A12125  36.143  11.258   8.079
  700POPC   C4A12126  36.254  11.099   7.697
  700POPC   C1B12127  35.975  11.379   8.730
  700POPC   C2B12128  35.952  11.646   8.405
  700POPC   C3B12129  35.738  11.612   8.021
  700POPC   C4B12130  35.866  11.436   7.687
  701POPC   NC312131  22.424  38.727   9.516
  701POPC   PO412132  21.851  38.354   9.478
  701POPC   GL112133  22.118  38.477   9.187
  701POPC   GL212134  22.344  38.212   9.250
  701POPC   C1A12135  22.112  38.491   8.766
  701POPC   D2A12136  22.402  38.467   8.423
  701POPC   C3A12137  22.171  38.461   8.052
  701POPC   C4A12138  22.326  38.603   7.675
  701POPC   C1B12139  22.408  38.083   8.814
  701POPC   C2B12140  22.473  37.955   8.388
  701POPC   C3B12141  22.548  38.110   7.994
  701POPC   C4B12142  22.225  38.087   7.699
  702POPC   NC312143  27.898  15.340   9.480
  702POPC   PO412144  27.405  14.897   9.498
  702POPC   GL112145  27.565  15.145   9.171
  702POPC   GL212146  27.436  15.433   9.234
  702POPC   C1A12147  27.795  15.180   8.771
  702POPC   D2A12148  27.676  15.009   8.400
  702POPC   C3A12149  27.553  15.191   8.062
  702POPC   C4A12150  27.675  15.343   7.715
  702POPC   C1B12151  27.307  15.302   8.774
  702POPC   C2B12152  27.151  15.274   8.355
  702POPC   C3B12153  27.198  15.583   8.021
  702POPC   C4B12154  27.350  15.744   7.649
  703POPC   NC312155  37.699  28.925   9.492
  703POPC   PO412156  37.529  29.546   9.214
  703POPC   GL112157  37.663  29.170   9.044
  703POPC   GL212158  38.015  29.112   9.151
  703POPC   C1A12159  37.517  29.079   8.646
  703POPC   D2A12160  37.541  29.083   8.222
  703POPC   C3A12161  37.682  29.386   7.927
  703POPC   C4A12162  37.484  29.059   7.707
  703POPC   C1B12163  38.014  28.908   8.754
  703POPC   C2B12164  38.069  29.012   8.344
  703POPC   C3B12165  37.958  28.956   7.932
  703POPC   C4B12166  37.931  29.119   7.515
  704POPC   NC312167  40.424  19.912   9.480
  704POPC   PO412168  41.100  20.049   9.319
  704POPC   GL112169  40.739  20.020   9.073
  704POPC   GL212170  40.675  19.697   9.117
  704POPC   C1A12171  40.745  20.064   8.634
  704POPC   D2A12172  41.039  20.118   8.298
  704POPC   C3A12173  40.820  19.954   7.975
  704POPC   C4A12174  40.491  20.120   7.758
  704POPC   C1B12175  40.353  19.715   8.811
  704POPC   C2B12176  40.389  19.756   8.377
  704POPC   C3B12177  40.486  19.534   7.999
  704POPC   C4B12178  40.628  19.669   7.596
  705POPC   NC312179  31.762  41.958   9.456
  705POPC   PO412180  31.475  41.353   9.497
  705POPC   GL112181  31.492  41.637   9.157
  705POPC   GL212182  31.849  41.635   9.074
  705POPC   C1A12183  31.395  41.694   8.729
  705POPC   D2A12184  31.161  41.550   8.347
  705POPC   C3A12185  31.318  41.581   7.952
  705POPC   C4A12186  31.527  41.268   7.748
  705POPC   C1B12187  31.765  41.324   8.744
  705POPC   C2B12188  31.636  41.338   8.297
  705POPC   C3B12189  31.845  41.587   7.957
  705POPC   C4B12190  32.119  41.325   7.733
  706POPC   NC312191  25.458  25.637   9.506
  706POPC   PO412192  25.087  25.138   9.561
  706POPC   GL112193  25.206  25.322   9.196
  706POPC   GL212194  25.040  25.595   9.158
  706POPC   C1A12195  25.414  25.339   8.823
  706POPC   D2A12196  25.341  25.086   8.475
  706POPC   C3A12197  25.312  25.288   8.103
  706POPC   C4A12198  25.524  25.242   7.722
  706POPC   C1B12199  24.821  25.647   8.801
  706POPC   C2B12200  24.944  25.503   8.420
  706POPC   C3B12201  24.797  25.370   8.028
  706POPC   C4B12202  25.056  25.425   7.687
  707POPC   NC312203  17.102  14.306   9.540
  707POPC   PO412204  17.755  14.525   9.514
  707POPC   GL112205  17.591  14.242   9.212
  707POPC   GL212206  17.372  14.478   9.159
  707POPC   C1A12207  17.705  14.160   8.780
  707POPC   D2A12208  17.781  14.460   8.447
  707POPC   C3A12209  17.712  14.245   8.095
  707POPC   C4A12210  17.553  14.212   7.703
  707POPC   C1B12211  17.366  14.527   8.758
  707POPC   C2B12212  17.271  14.380   8.345
  707POPC   C3B12213  17.334  14.590   7.957
  707POPC   C4B12214  17.315  14.610   7.499
  708POPC   NC312215  30.742   8.639   9.315
  708POPC   PO412216  31.354   9.119   9.415
  708POPC   GL112217  30.981   9.107   9.126
  708POPC   GL212218  30.603   9.079   9.104
  708POPC   C1A12219  30.913   8.911   8.742
  708POPC   D2A12220  30.717   9.051   8.391
  708POPC   C3A12221  30.842   8.840   8.033
  708POPC   C4A12222  30.580   8.643   7.738
  708POPC   C1B12223  30.381   9.299   8.758
  708POPC   C2B12224  30.399   9.451   8.322
  708POPC   C3B12225  30.505   9.222   7.934
  708POPC   C4B12226  30.424   9.106   7.487
  709POPC   NC312227  11.689   4.006   9.487
  709POPC   PO412228  11.035   4.175   9.649
  709POPC   GL112229  11.242   4.182   9.271
  709POPC   GL212230  11.223   4.542   9.229
  709POPC   C1A12231  11.303   4.043   8.858
  709POPC   D2A12232  11.382   4.286   8.493
  709POPC   C3A12233  11.375   4.075   8.131
  709POPC   C4A12234  11.329   4.179   7.744
  709POPC   C1B12235  10.975   4.473   8.860
  709POPC   C2B12236  10.987   4.577   8.437
  709POPC   C3B12237  11.046   4.501   8.034
  709POPC   C4B12238  10.860   4.414   7.627
  710POPC   NC312239   8.350  39.119   9.472
  710POPC   PO412240   7.695  39.171   9.643
  710POPC   GL112241   7.911  39.315   9.255
  710POPC   GL212242   8.106  39.626   9.145
  710POPC   C1A12243   7.844  39.223   8.825
  710POPC   D2A12244   7.797  39.223   8.364
  710POPC   C3A12245   8.064  38.939   8.079
  710POPC   C4A12246   8.256  38.996   7.645
  710POPC   C1B12247   8.189  39.586   8.715
  710POPC   C2B12248   8.319  39.321   8.387
  710POPC   C3B12249   8.220  39.399   7.976
  710POPC   C4B12250   8.374  39.529   7.591
  711POPC   NC312251  32.171  39.801   9.513
  711POPC   PO412252  32.531  40.314   9.254
  711POPC   GL112253  32.225  40.013   9.039
  711POPC   GL212254  32.056  39.670   9.050
  711POPC   C1A12255  32.195  39.937   8.610
  711POPC   D2A12256  32.452  40.242   8.421
  711POPC   C3A12257  32.449  40.290   8.000
  711POPC   C4A12258  32.741  40.332   7.676
  711POPC   C1B12259  31.784  39.605   8.697
  711POPC   C2B12260  31.807  39.804   8.269
  711POPC   C3B12261  32.045  39.928   7.932
  711POPC   C4B12262  32.468  39.795   7.861
  712POPC   NC312263   5.045  20.232   9.524
  712POPC   PO412264   5.205  20.941   9.445
  712POPC   GL112265   5.013  20.656   9.163
  712POPC   GL212266   5.282  20.427   9.113
  712POPC   C1A12267   4.982  20.608   8.709
  712POPC   D2A12268   5.215  20.754   8.358
  712POPC   C3A12269   4.995  20.805   7.997
  712POPC   C4A12270   5.074  20.737   7.572
  712POPC   C1B12271   5.261  20.178   8.706
  712POPC   C2B12272   5.118  20.260   8.276
  712POPC   C3B12273   5.039  20.281   7.833
  712POPC   C4B12274   5.250  20.297   7.419
  713POPC   NC312275  26.662  41.649   9.536
  713POPC   PO412276  26.484  41.004   9.392
  713POPC   GL112277  26.573  41.351   9.134
  713POPC   GL212278  26.930  41.320   9.169
  713POPC   C1A12279  26.628  41.711   8.848
  713POPC   D2A12280  26.628  41.957   8.455
  713POPC   C3A12281  26.648  41.719   8.112
  713POPC   C4A12282  26.457  41.473   7.754
  713POPC   C1B12283  27.125  41.609   8.891
  713POPC   C2B12284  27.070  41.711   8.505
  713POPC   C3B12285  27.147  41.578   8.153
  713POPC   C4B12286  26.967  41.585   7.760
  714POPC   NC312287  21.243  25.655   9.503
  714POPC   PO412288  21.302  24.999   9.450
  714POPC   GL112289  21.596  25.151   9.160
  714POPC   GL212290  21.456  25.454   9.069
  714POPC   C1A12291  21.786  25.132   8.743
  714POPC   D2A12292  21.885  25.366   8.354
  714POPC   C3A12293  21.839  25.109   7.986
  714POPC   C4A12294  21.819  25.233   7.533
  714POPC   C1B12295  21.123  25.215   8.857
  714POPC   C2B12296  20.996  24.968   8.504
  714POPC   C3B12297  20.963  25.064   8.058
  714POPC   C4B12298  21.322  25.157   7.778
  715POPC   NC312299   7.500   0.009   9.503
  715POPC   PO412300   6.972  44.655   9.550
  715POPC   GL112301   7.205  44.436   9.190
  715POPC   GL212302   7.530  44.635   9.157
  715POPC   C1A12303   7.266  44.514   8.728
  715POPC   D2A12304   7.334  44.955   8.577
  715POPC   C3A12305   7.342  44.952   8.140
  715POPC   C4A12306   7.358  44.758   7.732
  715POPC   C1B12307   7.774  44.569   8.791
  715POPC   C2B12308   7.642  44.604   8.370
  715POPC   C3B12309   7.791  44.709   7.999
  715POPC   C4B12310   7.941  44.534   7.687
  716POPC   NC312311  10.194  27.687   9.808
  716POPC   PO412312  10.819  27.777   9.587
  716POPC   GL112313  10.623  27.486   9.243
  716POPC   GL212314  10.248  27.403   9.185
  716POPC   C1A12315  10.594  27.610   8.800
  716POPC   D2A12316  10.378  27.645   8.388
  716POPC   C3A12317  10.683  27.618   8.054
  716POPC   C4A12318  10.694  27.811   7.665
  716POPC   C1B12319  10.227  27.262   8.736
  716POPC   C2B12320  10.240  27.090   8.336
  716POPC   C3B12321  10.277  27.321   7.980
  716POPC   C4B12322  10.332  27.242   7.579
  717POPC   NC312323  24.632  22.375   9.577
  717POPC   PO412324  24.049  22.059   9.637
  717POPC   GL112325  24.238  22.281   9.263
  717POPC   GL212326  24.437  22.029   9.260
  717POPC   C1A12327  24.468  22.424   8.833
  717POPC   D2A12328  24.713  22.524   8.459
  717POPC   C3A12329  24.523  22.384   8.079
  717POPC   C4A12330  24.480  22.147   7.699
  717POPC   C1B12331  24.599  21.941   8.927
  717POPC   C2B12332  24.603  22.009   8.501
  717POPC   C3B12333  24.635  21.865   8.090
  717POPC   C4B12334  24.924  21.922   7.747
  718POPC   NC312335  40.691  18.048   9.486
  718POPC   PO412336  40.737  18.756   9.521
  718POPC   GL112337  40.747  18.469   9.146
  718POPC   GL212338  40.922  18.152   9.061
  718POPC   C1A12339  40.660  18.423   8.717
  718POPC   D2A12340  40.865  18.240   8.419
  718POPC   C3A12341  40.695  18.386   8.081
  718POPC   C4A12342  40.892  18.463   7.744
  718POPC   C1B12343  40.773  17.868   8.770
  718POPC   C2B12344  40.920  17.736   8.380
  718POPC   C3B12345  40.774  17.885   8.012
  718POPC   C4B12346  40.950  17.966   7.643
  719POPC   NC312347  14.824  19.281   9.429
  719POPC   PO412348  15.380  18.875   9.548
  719POPC   GL112349  15.242  18.920   9.108
  719POPC   GL212350  14.913  19.003   9.036
  719POPC   C1A12351  15.397  19.086   8.679
  719POPC   D2A12352  15.485  19.327   8.254
  719POPC   C3A12353  15.587  19.106   7.852
  719POPC   C4A12354  15.544  18.821   7.479
  719POPC   C1B12355  14.892  19.150   8.679
  719POPC   C2B12356  14.755  18.938   8.352
  719POPC   C3B12357  14.994  19.156   8.072
  719POPC   C4B12358  15.091  19.007   7.681
  720POPC   NC312359  17.527  17.691   9.484
  720POPC   PO412360  17.816  17.063   9.474
  720POPC   GL112361  17.668  17.306   9.113
  720POPC   GL212362  17.320  17.406   9.121
  720POPC   C1A12363  17.646  17.314   8.652
  720POPC   D2A12364  17.873  17.500   8.340
  720POPC   C3A12365  17.825  17.452   7.940
  720POPC   C4A12366  17.690  17.624   7.603
  720POPC   C1B12367  17.221  17.716   8.838
  720POPC   C2B12368  17.401  17.756   8.478
  720POPC   C3B12369  17.377  17.515   8.144
  720POPC   C4B12370  17.217  17.622   7.758
  721POPC   NC312371   4.887   0.220   9.579
  721POPC   PO412372   5.381   0.663   9.741
  721POPC   GL112373   5.197   0.577   9.321
  721POPC   GL212374   4.944   0.805   9.215
  721POPC   C1A12375   5.148   0.355   8.898
  721POPC   D2A12376   5.106   0.146   8.466
  721POPC   C3A12377   5.171   0.408   8.059
  721POPC   C4A12378   5.198   0.436   7.610
  721POPC   C1B12379   4.942   0.813   8.733
  721POPC   C2B12380   4.890   0.793   8.254
  721POPC   C3B12381   5.047   0.901   7.799
  721POPC   C4B12382   4.913   0.797   7.343
  722POPC   NC312383  17.271  33.343   9.490
  722POPC   PO412384  17.774  33.205   9.828
  722POPC   GL112385  17.603  33.009   9.304
  722POPC   GL212386  17.401  32.701   9.151
  722POPC   C1A12387  17.562  33.021   8.769
  722POPC   D2A12388  17.498  32.834   8.286
  722POPC   C3A12389  17.612  32.886   7.781
  722POPC   C4A12390  18.014  32.787   7.549
  722POPC   C1B12391  17.081  32.854   8.800
  722POPC   C2B12392  16.969  32.920   8.362
  722POPC   C3B12393  17.131  32.982   7.959
  722POPC   C4B12394  17.157  32.656   7.654
  723POPC   NC312395  24.110  24.681   9.657
  723POPC   PO412396  24.673  24.229   9.519
  723POPC   GL112397  24.513  24.411   9.147
  723POPC   GL212398  24.189  24.269   9.079
  723POPC   C1A12399  24.505  24.792   8.867
  723POPC   D2A12400  24.191  24.896   8.556
  723POPC   C3A12401  24.330  24.813   8.154
  723POPC   C4A12402  24.414  25.067   7.834
  723POPC   C1B12403  24.290  24.387   8.649
  723POPC   C2B12404  24.239  24.308   8.231
  723POPC   C3B12405  24.461  24.394   7.871
  723POPC   C4B12406  24.202  24.632   7.649
  724POPC   NC312407   3.973  37.518   9.538
  724POPC   PO412408   4.410  38.095   9.503
  724POPC   GL112409   4.282  37.766   9.173
  724POPC   GL212410   3.934  37.679   9.062
  724POPC   C1A12411   4.350  37.512   8.764
  724POPC   D2A12412   4.460  37.306   8.336
  724POPC   C3A12413   4.302  37.510   7.934
  724POPC   C4A12414   4.338  37.619   7.465
  724POPC   C1B12415   4.077  37.973   8.752
  724POPC   C2B12416   3.921  37.936   8.336
  724POPC   C3B12417   4.078  37.967   7.935
  724POPC   C4B12418   4.382  38.083   7.689
  725POPC   NC312419  40.049   1.212   9.648
  725POPC   PO412420  39.437   1.384   9.488
  725POPC   GL112421  39.808   1.403   9.221
  725POPC   GL212422  39.971   1.087   9.147
  725POPC   C1A12423  40.103   1.519   8.892
  725POPC   D2A12424  40.222   1.329   8.509
  725POPC   C3A12425  39.992   1.480   8.147
  725POPC   C4A12426  40.225   1.495   7.794
  725POPC   C1B12427  39.779   1.146   8.726
  725POPC   C2B12428  39.887   0.996   8.303
  725POPC   C3B12429  39.969   1.032   7.873
  725POPC   C4B12430  39.831   0.937   7.480
  726POPC   NC312431  11.558  10.758   9.924
  726POPC   PO412432  11.226  10.303   9.583
  726POPC   GL112433  11.320  10.323   9.135
  726POPC   GL212434  11.535  10.078   9.155
  726POPC   C1A12435  11.259  10.558   8.773
  726POPC   D2A12436  10.936  10.713   8.477
  726POPC   C3A12437  11.016  10.533   8.078
  726POPC   C4A12438  11.285  10.629   7.727
  726POPC   C1B12439  11.602  10.183   8.721
  726POPC   C2B12440  11.451  10.221   8.272
  726POPC   C3B12441  11.655  10.272   7.861
  726POPC   C4B12442  11.588  10.170   7.397
  727POPC   NC312443  34.316  25.864   9.622
  727POPC   PO412444  34.914  26.155   9.513
  727POPC   GL112445  34.715  25.904   9.202
  727POPC   GL212446  34.380  25.983   9.141
  727POPC   C1A12447  34.701  25.950   8.740
  727POPC   D2A12448  34.894  26.189   8.394
  727POPC   C3A12449  34.676  26.205   8.021
  727POPC   C4A12450  34.530  25.856   7.791
  727POPC   C1B12451  34.316  26.305   8.844
  727POPC   C2B12452  34.335  26.186   8.442
  727POPC   C3B12453  34.203  26.414   8.117
  727POPC   C4B12454  34.284  26.336   7.720
  728POPC   NC312455  26.541  23.172   9.446
  728POPC   PO412456  26.806  22.523   9.471
  728POPC   GL112457  26.869  22.852   9.153
  728POPC   GL212458  27.132  22.575   9.072
  728POPC   C1A12459  26.562  23.005   8.819
  728POPC   D2A12460  26.468  23.111   8.373
  728POPC   C3A12461  26.865  23.200   8.168
  728POPC   C4A12462  27.077  23.097   7.798
  728POPC   C1B12463  26.940  22.683   8.674
  728POPC   C2B12464  26.647  22.641   8.325
  728POPC   C3B12465  26.758  22.709   7.893
  728POPC   C4B12466  27.191  22.606   7.773
  729POPC   NC312467  26.341  25.680   9.406
  729POPC   PO412468  26.366  25.097   9.603
  729POPC   GL112469  26.146  25.006   9.246
  729POPC   GL212470  26.040  25.342   9.128
  729POPC   C1A12471  25.917  24.873   8.889
  729POPC   D2A12472  25.709  24.697   8.529
  729POPC   C3A12473  25.723  24.910   8.115
  729POPC   C4A12474  26.009  25.070   7.791
  729POPC   C1B12475  26.266  25.359   8.714
  729POPC   C2B12476  26.335  25.322   8.244
  729POPC   C3B12477  26.243  25.517   7.855
  729POPC   C4B12478  25.900  25.567   7.581
  730POPC   NC312479   0.406  15.396   9.549
  730POPC   PO412480   0.883  14.802   9.568
  730POPC   GL112481   0.694  14.923   9.167
  730POPC   GL212482   0.375  15.146   9.118
  730POPC   C1A12483   0.631  14.999   8.727
  730POPC   D2A12484   0.364  14.972   8.384
  730POPC   C3A12485   0.683  14.979   8.072
  730POPC   C4A12486   0.616  15.145   7.677
  730POPC   C1B12487   0.141  15.327   8.767
  730POPC   C2B12488   0.102  15.428   8.312
  730POPC   C3B12489   0.163  15.259   7.885
  730POPC   C4B12490   0.042  15.552   7.521
  731POPC   NC312491  43.592  43.430   9.338
  731POPC   PO412492  42.997  43.577   9.224
  731POPC   GL112493  43.170  43.893   9.006
  731POPC   GL212494  43.476  43.995   9.205
  731POPC   C1A12495  43.066  43.896   8.564
  731POPC   D2A12496  42.726  43.681   8.307
  731POPC   C3A12497  42.856  43.718   7.878
  731POPC   C4A12498  43.024  44.143   7.832
  731POPC   C1B12499  43.519  44.219   8.818
  731POPC   C2B12500  43.535  44.102   8.366
  731POPC   C3B12501  43.530  44.110   7.911
  731POPC   C4B12502  43.362  43.837   7.607
  732POPC   NC312503  34.199  30.202   9.775
  732POPC   PO412504  34.510  30.191   9.199
  732POPC   GL112505  34.474  30.666   9.120
  732POPC   GL212506  34.134  30.760   9.226
  732POPC   C1A12507  34.772  30.861   8.836
  732POPC   D2A12508  34.738  30.610   8.489
  732POPC   C3A12509  34.671  30.756   8.111
  732POPC   C4A12510  34.896  30.644   7.778
  732POPC   C1B12511  34.099  30.511   8.812
  732POPC   C2B12512  34.288  30.326   8.412
  732POPC   C3B12513  34.310  30.369   7.953
  732POPC   C4B12514  34.350  30.759   7.701
  733POPC   NC312515   9.878  28.605   9.560
  733POPC   PO412516   9.500  28.043   9.467
  733POPC   GL112517   9.651  28.349   9.111
  733POPC   GL212518   9.864  28.677   9.051
  733POPC   C1A12519   9.900  28.279   8.696
  733POPC   D2A12520   9.909  27.999   8.324
  733POPC   C3A12521   9.763  28.180   7.904
  733POPC   C4A12522   9.820  28.580   7.712
  733POPC   C1B12523   9.523  28.620   8.718
  733POPC   C2B12524   9.590  28.428   8.310
  733POPC   C3B12525   9.383  28.581   7.981
  733POPC   C4B12526   9.316  28.633   7.572
  734POPC   NC312527  37.551  16.531   9.470
  734POPC   PO412528  38.082  16.888   9.556
  734POPC   GL112529  37.802  16.947   9.200
  734POPC   GL212530  37.442  16.973   9.209
  734POPC   C1A12531  37.687  16.681   8.848
  734POPC   D2A12532  37.939  16.527   8.534
  734POPC   C3A12533  37.784  16.786   8.245
  734POPC   C4A12534  37.529  16.781   7.889
  734POPC   C1B12535  37.252  16.989   8.790
  734POPC   C2B12536  37.301  16.931   8.358
  734POPC   C3B12537  37.163  17.122   7.991
  734POPC   C4B12538  37.254  17.049   7.538
  735POPC   NC312539  24.000   1.247   9.344
  735POPC   PO412540  23.665   0.885   9.727
  735POPC   GL112541  23.557   1.156   9.182
  735POPC   GL212542  23.599   1.510   9.182
  735POPC   C1A12543  23.370   1.155   8.768
  735POPC   D2A12544  23.545   1.209   8.370
  735POPC   C3A12545  23.484   0.948   8.040
  735POPC   C4A12546  23.626   0.963   7.636
  735POPC   C1B12547  23.767   1.504   8.756
  735POPC   C2B12548  23.935   1.526   8.343
  735POPC   C3B12549  23.879   1.329   7.940
  735POPC   C4B12550  24.141   1.467   7.604
  736POPC   NC312551  28.120  42.221   9.574
  736POPC   PO412552  28.791  42.377   9.682
  736POPC   GL112553  28.627  42.284   9.212
  736POPC   GL212554  28.287  42.366   9.113
  736POPC   C1A12555  28.765  42.306   8.778
  736POPC   D2A12556  28.760  42.508   8.388
  736POPC   C3A12557  28.464  42.533   8.067
  736POPC   C4A12558  28.464  42.389   7.646
  736POPC   C1B12559  28.298  42.498   8.680
  736POPC   C2B12560  28.332  42.164   8.397
  736POPC   C3B12561  28.164  42.134   8.001
  736POPC   C4B12562  27.987  42.518   7.828
  737POPC   NC312563  27.808  41.414   9.564
  737POPC   PO412564  27.148  41.614   9.556
  737POPC   GL112565  27.465  41.658   9.264
  737POPC   GL212566  27.461  41.306   9.182
  737POPC   C1A12567  27.657  41.646   8.850
  737POPC   D2A12568  27.567  41.831   8.449
  737POPC   C3A12569  27.660  41.615   8.063
  737POPC   C4A12570  27.442  41.714   7.709
  737POPC   C1B12571  27.306  41.150   8.767
  737POPC   C2B12572  27.227  41.067   8.303
  737POPC   C3B12573  27.318  41.221   7.857
  737POPC   C4B12574  27.672  41.266   7.604
  738POPC   NC312575  32.063  43.345   9.356
  738POPC   PO412576  31.502  43.054   9.694
  738POPC   GL112577  31.473  42.936   9.278
  738POPC   GL212578  31.818  42.922   9.224
  738POPC   C1A12579  31.232  42.958   8.895
  738POPC   D2A12580  31.322  42.835   8.470
  738POPC   C3A12581  31.491  43.089   8.154
  738POPC   C4A12582  31.421  43.230   7.752
  738POPC   C1B12583  31.692  42.752   8.836
  738POPC   C2B12584  31.854  42.772   8.415
  738POPC   C3B12585  31.929  42.887   7.981
  738POPC   C4B12586  31.719  42.854   7.635
  739POPC   NC312587  10.376  36.481   9.632
  739POPC   PO412588  10.778  35.981   9.520
  739POPC   GL112589  10.768  36.236   9.167
  739POPC   GL212590  10.422  36.321   9.143
  739POPC   C1A12591  10.667  36.134   8.731
  739POPC   D2A12592  10.817  36.297   8.368
  739POPC   C3A12593  10.707  36.121   7.978
  739POPC   C4A12594  10.988  35.978   7.654
  739POPC   C1B12595  10.273  36.434   8.731
  739POPC   C2B12596  10.318  36.239   8.313
  739POPC   C3B12597  10.262  36.339   7.878
  739POPC   C4B12598  10.140  36.182   7.482
  740POPC   NC312599  30.151  33.465   9.332
  740POPC   PO412600  29.627  33.845   9.592
  740POPC   GL112601  29.758  34.030   9.167
  740POPC   GL212602  30.040  33.891   9.094
  740POPC   C1A12603  29.910  34.199   8.739
  740POPC   D2A12604  29.837  33.996   8.363
  740POPC   C3A12605  29.736  34.085   7.973
  740POPC   C4A12606  29.471  33.782   7.781
  740POPC   C1B12607  30.168  33.677   8.709
  740POPC   C2B12608  30.108  33.579   8.304
  740POPC   C3B12609  30.203  33.868   7.997
  740POPC   C4B12610  30.012  33.751   7.665
  741POPC   NC312611  15.374  42.551   9.359
  741POPC   PO412612  14.955  42.018   9.532
  741POPC   GL112613  15.055  42.232   9.142
  741POPC   GL212614  15.361  42.036   9.152
  741POPC   C1A12615  15.026  42.562   8.789
  741POPC   D2A12616  15.350  42.731   8.497
  741POPC   C3A12617  15.302  42.454   8.139
  741POPC   C4A12618  15.073  42.349   7.757
  741POPC   C1B12619  15.383  42.210   8.729
  741POPC   C2B12620  15.313  41.985   8.344
  741POPC   C3B12621  15.484  42.010   7.926
  741POPC   C4B12622  15.633  42.315   7.632
  742POPC   NC312623  23.716  44.320   9.506
  742POPC   PO412624  23.604  44.943   9.491
  742POPC   GL112625  23.774  44.759   9.123
  742POPC   GL212626  23.770  44.414   9.011
  742POPC   C1A12627  23.917  44.880   8.740
  742POPC   D2A12628  23.743  44.680   8.383
  742POPC   C3A12629  23.757  44.993   8.091
  742POPC   C4A12630  23.503   0.006   7.774
  742POPC   C1B12631  24.113  44.415   8.697
  742POPC   C2B12632  24.233  44.594   8.300
  742POPC   C3B12633  23.997  44.575   7.904
  742POPC   C4B12634  24.145  44.389   7.515
  743POPC   NC312635  36.478   1.225   9.420
  743POPC   PO412636  37.205   1.389   9.427
  743POPC   GL112637  36.924   1.277   9.111
  743POPC   GL212638  36.759   1.574   9.124
  743POPC   C1A12639  36.863   1.029   8.716
  743POPC   D2A12640  37.012   1.215   8.331
  743POPC   C3A12641  36.753   1.201   7.983
  743POPC   C4A12642  36.751   0.859   7.685
  743POPC   C1B12643  36.583   1.467   8.731
  743POPC   C2B12644  36.747   1.657   8.358
  743POPC   C3B12645  37.120   1.687   8.132
  743POPC   C4B12646  37.180   1.439   7.794
  744POPC   NC312647  10.714  24.640   9.498
  744POPC   PO412648  10.717  23.941   9.533
  744POPC   GL112649  10.684  24.262   9.124
  744POPC   GL212650  10.660  24.648   8.996
  744POPC   C1A12651  10.716  24.282   8.653
  744POPC   D2A12652  10.896  24.165   8.278
  744POPC   C3A12653  10.724  24.366   7.936
  744POPC   C4A12654  10.380  24.256   7.730
  744POPC   C1B12655  10.281  24.535   8.708
  744POPC   C2B12656  10.311  24.405   8.268
  744POPC   C3B12657  10.237  24.688   7.913
  744POPC   C4B12658  10.235  24.670   7.452
  745POPC   NC312659  41.608   4.402   9.851
  745POPC   PO412660  41.797   4.186   9.305
  745POPC   GL112661  41.605   4.165   9.009
  745POPC   GL212662  41.345   4.352   9.088
  745POPC   C1A12663  41.685   4.160   8.617
  745POPC   D2A12664  41.686   4.468   8.341
  745POPC   C3A12665  41.625   4.214   8.019
  745POPC   C4A12666  41.748   4.361   7.650
  745POPC   C1B12667  41.173   4.271   8.751
  745POPC   C2B12668  41.168   4.444   8.401
  745POPC   C3B12669  41.272   4.599   8.034
  745POPC   C4B12670  41.237   4.391   7.693
  746POPC   NC312671  23.483  15.755  10.250
  746POPC   PO412672  23.533  16.001   9.588
  746POPC   GL112673  23.795  15.938   9.243
  746POPC   GL212674  24.020  15.653   9.388
  746POPC   C1A12675  23.799  16.067   8.784
  746POPC   D2A12676  23.571  15.983   8.380
  746POPC   C3A12677  23.714  16.080   7.978
  746POPC   C4A12678  23.631  16.014   7.549
  746POPC   C1B12679  23.997  15.590   8.962
  746POPC   C2B12680  23.906  15.627   8.537
  746POPC   C3B12681  23.861  15.612   8.115
  746POPC   C4B12682  24.112  15.395   7.824
  747POPC   NC312683  31.959  24.292   9.405
  747POPC   PO412684  31.501  24.632   9.781
  747POPC   GL112685  31.415  24.520   9.297
  747POPC   GL212686  31.484  24.191   9.199
  747POPC   C1A12687  31.543  24.613   8.858
  747POPC   D2A12688  31.379  24.878   8.497
  747POPC   C3A12689  31.448  24.684   8.082
  747POPC   C4A12690  31.833  24.545   7.868
  747POPC   C1B12691  31.247  24.172   8.826
  747POPC   C2B12692  31.393  24.320   8.453
  747POPC   C3B12693  31.581  24.173   8.110
  747POPC   C4B12694  31.312  24.210   7.799
  748POPC   NC312695   6.231  13.406   9.554
  748POPC   PO412696   5.573  13.583   9.524
  748POPC   GL112697   5.865  13.510   9.187
  748POPC   GL212698   5.951  13.827   9.042
  748POPC   C1A12699   5.847  13.292   8.773
  748POPC   D2A12700   6.081  13.147   8.412
  748POPC   C3A12701   5.883  13.232   7.993
  748POPC   C4A12702   5.948  13.465   7.611
  748POPC   C1B12703   5.563  13.716   8.803
  748POPC   C2B12704   5.508  13.530   8.381
  748POPC   C3B12705   5.648  13.702   7.978
  748POPC   C4B12706   5.928  14.062   7.903
  749POPC   NC312707  38.488   9.413   9.480
  749POPC   PO412708  38.002   9.916   9.389
  749POPC   GL112709  38.322   9.770   9.145
  749POPC   GL212710  38.135   9.472   9.097
  749POPC   C1A12711  38.596   9.556   8.823
  749POPC   D2A12712  38.577   9.497   8.374
  749POPC   C3A12713  38.722   9.743   8.046
  749POPC   C4A12714  38.730   9.812   7.587
  749POPC   C1B12715  38.095   9.628   8.720
  749POPC   C2B12716  38.067   9.429   8.371
  749POPC   C3B12717  38.102   9.602   8.008
  749POPC   C4B12718  38.376   9.522   7.753
  750POPC   NC312719  26.199  20.580   9.566
  750POPC   PO412720  25.577  20.287   9.402
  750POPC   GL112721  25.942  20.368   9.181
  750POPC   GL212722  25.988  20.717   9.105
  750POPC   C1A12723  26.070  20.293   8.777
  750POPC   D2A12724  25.810  20.230   8.419
  750POPC   C3A12725  25.755  20.505   8.112
  750POPC   C4A12726  25.938  20.650   7.734
  750POPC   C1B12727  26.241  20.815   8.756
  750POPC   C2B12728  26.183  20.631   8.384
  750POPC   C3B12729  26.341  20.676   8.011
  750POPC   C4B12730  26.632  20.458   7.800
  751POPC   NC312731  43.771  38.887  10.004
  751POPC   PO412732  43.795  38.488   9.458
  751POPC   GL112733  43.813  38.394   9.065
  751POPC   GL212734  44.032  38.110   9.127
  751POPC   C1A12735  43.728  38.494   8.633
  751POPC   D2A12736  44.143  38.546   8.398
  751POPC   C3A12737  44.089  38.555   7.953
  751POPC   C4A12738  44.206  38.423   7.512
  751POPC   C1B12739  43.867  38.008   8.731
  751POPC   C2B12740  43.849  38.119   8.291
  751POPC   C3B12741  43.935  38.080   7.863
  751POPC   C4B12742  43.750  38.167   7.457
  752POPC   NC312743   5.295  27.278   9.515
  752POPC   PO412744   4.873  27.776   9.646
  752POPC   GL112745   4.972  27.816   9.203
  752POPC   GL212746   5.003  27.484   9.146
  752POPC   C1A12747   5.133  27.738   8.741
  752POPC   D2A12748   5.272  27.570   8.345
  752POPC   C3A12749   4.992  27.538   7.984
  752POPC   C4A12750   4.832  27.897   7.768
  752POPC   C1B12751   5.294  27.258   8.854
  752POPC   C2B12752   5.354  27.052   8.473
  752POPC   C3B12753   5.522  27.201   8.095
  752POPC   C4B12754   5.503  27.555   7.850
  753POPC   NC312755  27.755  37.989   9.598
  753POPC   PO412756  27.439  37.419   9.350
  753POPC   GL112757  27.555  37.733   9.090
  753POPC   GL212758  27.422  38.061   9.229
  753POPC   C1A12759  27.651  37.549   8.690
  753POPC   D2A12760  27.799  37.454   8.272
  753POPC   C3A12761  27.555  37.513   7.894
  753POPC   C4A12762  27.681  37.471   7.420
  753POPC   C1B12763  27.352  38.101   8.787
  753POPC   C2B12764  27.425  37.875   8.377
  753POPC   C3B12765  27.383  38.007   7.976
  753POPC   C4B12766  27.391  37.881   7.577
  754POPC   NC312767   3.705   4.816   9.673
  754POPC   PO412768   3.163   5.149   9.479
  754POPC   GL112769   3.511   5.132   9.198
  754POPC   GL212770   3.476   4.807   9.213
  754POPC   C1A12771   3.652   5.294   8.781
  754POPC   D2A12772   3.516   5.261   8.346
  754POPC   C3A12773   3.729   5.280   7.944
  754POPC   C4A12774   3.447   4.945   7.756
  754POPC   C1B12775   3.741   4.769   8.904
  754POPC   C2B12776   3.672   4.801   8.531
  754POPC   C3B12777   3.760   4.810   8.138
  754POPC   C4B12778   3.949   4.827   7.757
  755POPC   NC312779  33.368   8.844   9.404
  755POPC   PO412780  32.947   9.230   9.661
  755POPC   GL112781  32.986   9.115   9.199
  755POPC   GL212782  32.676   9.239   9.141
  755POPC   C1A12783  33.039   8.887   8.761
  755POPC   D2A12784  32.997   8.724   8.324
  755POPC   C3A12785  33.223   8.856   7.945
  755POPC   C4A12786  33.119   8.752   7.490
  755POPC   C1B12787  32.809   9.347   8.777
  755POPC   C2B12788  32.763   9.199   8.400
  755POPC   C3B12789  32.843   9.361   8.038
  755POPC   C4B12790  32.981   9.225   7.696
  756POPC   NC312791   2.384  34.576   9.598
  756POPC   PO412792   3.078  34.495   9.517
  756POPC   GL112793   2.758  34.581   9.204
  756POPC   GL212794   2.612  34.318   9.115
  756POPC   C1A12795   2.780  34.612   8.727
  756POPC   D2A12796   2.894  34.803   8.296
  756POPC   C3A12797   2.727  34.620   7.960
  756POPC   C4A12798   2.855  34.317   7.701
  756POPC   C1B12799   2.398  34.271   8.725
  756POPC   C2B12800   2.336  34.042   8.383
  756POPC   C3B12801   2.362  34.248   8.019
  756POPC   C4B12802   2.362  34.442   7.650
  757POPC   NC312803  11.789  27.379   9.503
  757POPC   PO412804  12.280  27.845   9.498
  757POPC   GL112805  12.142  27.612   9.194
  757POPC   GL212806  11.863  27.831   9.162
  757POPC   C1A12807  12.045  27.511   8.793
  757POPC   D2A12808  12.227  27.300   8.436
  757POPC   C3A12809  12.072  27.442   8.033
  757POPC   C4A12810  12.275  27.288   7.677
  757POPC   C1B12811  12.122  28.008   8.823
  757POPC   C2B12812  12.116  27.816   8.403
  757POPC   C3B12813  12.177  27.960   8.007
  757POPC   C4B12814  11.994  27.798   7.652
  758POPC   NC312815  20.784  18.628   9.496
  758POPC   PO412816  20.933  19.343   9.473
  758POPC   GL112817  20.676  19.129   9.156
  758POPC   GL212818  20.914  18.945   9.107
  758POPC   C1A12819  20.431  19.075   8.760
  758POPC   D2A12820  20.276  19.298   8.398
  758POPC   C3A12821  20.354  19.028   8.052
  758POPC   C4A12822  20.528  18.964   7.646
  758POPC   C1B12823  20.949  19.164   8.725
  758POPC   C2B12824  20.813  19.054   8.345
  758POPC   C3B12825  20.884  19.118   7.954
  758POPC   C4B12826  20.968  19.238   7.536
  759POPC   NC312827  18.049  18.127   9.439
  759POPC   PO412828  18.552  18.463   9.561
  759POPC   GL112829  18.634  18.308   9.140
  759POPC   GL212830  18.477  17.975   9.155
  759POPC   C1A12831  18.387  18.405   8.764
  759POPC   D2A12832  17.958  18.497   8.564
  759POPC   C3A12833  17.949  18.393   8.129
  759POPC   C4A12834  18.270  18.321   7.845
  759POPC   C1B12835  18.246  17.907   8.771
  759POPC   C2B12836  18.321  17.720   8.384
  759POPC   C3B12837  18.133  17.861   8.050
  759POPC   C4B12838  18.150  17.840   7.674
  760POPC   NC312839  36.126  29.506   9.507
  760POPC   PO412840  36.298  28.881   9.558
  760POPC   GL112841  36.476  29.084   9.191
  760POPC   GL212842  36.139  29.212   9.098
  760POPC   C1A12843  36.403  29.034   8.735
  760POPC   D2A12844  36.099  29.193   8.425
  760POPC   C3A12845  36.304  29.118   8.025
  760POPC   C4A12846  36.394  29.139   7.596
  760POPC   C1B12847  35.922  29.509   8.821
  760POPC   C2B12848  35.739  29.599   8.397
  760POPC   C3B12849  35.907  29.462   8.015
  760POPC   C4B12850  35.823  29.062   7.855
  761POPC   NC312851  24.473  14.153   9.592
  761POPC   PO412852  24.537  13.502   9.578
  761POPC   GL112853  24.641  13.719   9.234
  761POPC   GL212854  24.885  13.960   9.289
  761POPC   C1A12855  24.495  13.627   8.848
  761POPC   D2A12856  24.312  13.684   8.474
  761POPC   C3A12857  24.513  13.440   8.157
  761POPC   C4A12858  24.463  13.553   7.762
  761POPC   C1B12859  24.714  14.089   8.870
  761POPC   C2B12860  24.668  14.039   8.412
  761POPC   C3B12861  24.813  13.885   7.995
  761POPC   C4B12862  24.822  13.837   7.527
  762POPC   NC312863  39.738  33.518   9.619
  762POPC   PO412864  40.057  34.206   9.676
  762POPC   GL112865  39.897  33.935   9.344
  762POPC   GL212866  40.135  33.656   9.220
  762POPC   C1A12867  39.757  33.936   8.904
  762POPC   D2A12868  40.070  33.968   8.589
  762POPC   C3A12869  40.014  33.913   8.140
  762POPC   C4A12870  39.889  33.874   7.681
  762POPC   C1B12871  40.346  33.482   8.820
  762POPC   C2B12872  40.425  33.254   8.410
  762POPC   C3B12873  40.281  33.457   8.034
  762POPC   C4B12874  40.386  33.775   7.824
  763POPC   NC312875  21.611  22.968  10.091
  763POPC   PO412876  21.203  22.902   9.572
  763POPC   GL112877  21.349  22.850   9.150
  763POPC   GL212878  21.702  22.803   9.074
  763POPC   C1A12879  21.332  22.941   8.726
  763POPC   D2A12880  21.116  22.983   8.352
  763POPC   C3A12881  21.356  22.855   8.056
  763POPC   C4A12882  21.384  23.117   7.729
  763POPC   C1B12883  21.871  22.994   8.756
  763POPC   C2B12884  21.760  23.009   8.372
  763POPC   C3B12885  21.864  22.783   8.049
  763POPC   C4B12886  21.726  22.759   7.689
  764POPC   NC312887   0.474  10.726   9.563
  764POPC   PO412888   0.268  10.124   9.509
  764POPC   GL112889   0.518  10.378   9.176
  764POPC   GL212890   0.464  10.760   9.072
  764POPC   C1A12891   0.429  10.413   8.721
  764POPC   D2A12892   0.587  10.273   8.385
  764POPC   C3A12893   0.449  10.410   8.026
  764POPC   C4A12894   0.442  10.160   7.660
  764POPC   C1B12895   0.153  10.844   8.736
  764POPC   C2B12896   0.017  10.688   8.321
  764POPC   C3B12897   0.115  10.771   7.877
  764POPC   C4B12898   0.453  10.647   7.552
  765POPC   NC312899  34.594  18.380  10.060
  765POPC   PO412900  34.993  18.075   9.589
  765POPC   GL112901  34.854  18.162   9.170
  765POPC   GL212902  34.527  18.225   9.251
  765POPC   C1A12903  34.742  18.200   8.728
  765POPC   D2A12904  34.884  18.307   8.305
  765POPC   C3A12905  34.669  18.111   7.917
  765POPC   C4A12906  34.486  17.876   7.540
  765POPC   C1B12907  34.287  18.357   8.896
  765POPC   C2B12908  34.300  18.295   8.446
  765POPC   C3B12909  34.320  18.458   8.031
  765POPC   C4B12910  34.201  18.287   7.621
  766POPC   NC312911  22.522  11.490   9.694
  766POPC   PO412912  21.899  11.397   9.582
  766POPC   GL112913  21.862  11.397   9.103
  766POPC   GL212914  22.037  11.100   8.971
  766POPC   C1A12915  21.963  11.501   8.630
  766POPC   D2A12916  22.019  11.230   8.227
  766POPC   C3A12917  21.959  11.393   7.779
  766POPC   C4A12918  22.141  11.498   7.328
  766POPC   C1B12919  22.344  11.139   8.628
  766POPC   C2B12920  22.501  11.015   8.207
  766POPC   C3B12921  22.432  11.145   7.786
  766POPC   C4B12922  22.626  11.417   7.496
  767POPC   NC312923  27.655  35.503   9.595
  767POPC   PO412924  27.092  35.274   9.601
  767POPC   GL112925  27.392  35.377   9.202
  767POPC   GL212926  27.689  35.131   9.217
  767POPC   C1A12927  27.555  35.639   8.822
  767POPC   D2A12928  27.488  35.600   8.398
  767POPC   C3A12929  27.749  35.659   8.046
  767POPC   C4A12930  27.717  35.531   7.618
  767POPC   C1B12931  27.608  35.144   8.778
  767POPC   C2B12932  27.498  35.084   8.370
  767POPC   C3B12933  27.692  35.146   8.002
  767POPC   C4B12934  27.645  35.015   7.614
  768POPC   NC312935  31.244  40.174   9.471
  768POPC   PO412936  31.704  39.681   9.476
  768POPC   GL112937  31.570  39.914   9.151
  768POPC   GL212938  31.758  40.194   9.090
  768POPC   C1A12939  31.275  39.866   8.830
  768POPC   D2A12940  31.346  39.693   8.429
  768POPC   C3A12941  31.179  39.785   8.071
  768POPC   C4A12942  31.065  39.899   7.688
  768POPC   C1B12943  31.693  40.102   8.667
  768POPC   C2B12944  31.471  40.210   8.299
  768POPC   C3B12945  31.527  40.224   7.861
  768POPC   C4B12946  31.749  40.208   7.459
  769POPC   NC312947  23.646  37.387   9.353
  769POPC   PO412948  23.455  38.105   9.507
  769POPC   GL112949  23.715  37.854   9.174
  769POPC   GL212950  24.099  37.897   9.148
  769POPC   C1A12951  23.569  37.683   8.749
  769POPC   D2A12952  23.524  37.870   8.340
  769POPC   C3A12953  23.478  37.631   7.965
  769POPC   C4A12954  23.673  37.561   7.569
  769POPC   C1B12955  24.085  37.681   8.708
  769POPC   C2B12956  24.027  37.644   8.234
  769POPC   C3B12957  24.139  37.642   7.781
  769POPC   C4B12958  24.013  37.930   7.457
  770POPC   NC312959  38.837  32.949   9.545
  770POPC   PO412960  39.430  33.196   9.467
  770POPC   GL112961  39.210  32.935   9.163
  770POPC   GL212962  38.904  32.785   9.053
  770POPC   C1A12963  39.298  32.883   8.733
  770POPC   D2A12964  39.543  33.144   8.463
  770POPC   C3A12965  39.414  33.094   8.020
  770POPC   C4A12966  39.232  32.801   7.689
  770POPC   C1B12967  38.868  33.174   8.846
  770POPC   C2B12968  39.031  33.213   8.430
  770POPC   C3B12969  38.913  33.035   8.053
  770POPC   C4B12970  38.966  33.226   7.675
  771POPC   NC312971  10.851  34.501   9.518
  771POPC   PO412972  10.442  35.047   9.639
  771POPC   GL112973  10.605  34.890   9.218
  771POPC   GL212974  10.672  34.529   9.043
  771POPC   C1A12975  10.691  34.974   8.774
  771POPC   D2A12976  10.780  34.782   8.347
  771POPC   C3A12977  10.495  34.757   8.026
  771POPC   C4A12978  10.248  34.380   7.918
  771POPC   C1B12979  10.770  34.338   8.626
  771POPC   C2B12980  10.997  34.296   8.216
  771POPC   C3B12981  10.823  34.082   7.830
  771POPC   C4B12982  10.513  34.247   7.472
  772POPC   NC312983  28.705  17.763   9.544
  772POPC   PO412984  29.052  17.082   9.553
  772POPC   GL112985  29.040  17.368   9.208
  772POPC   GL212986  28.732  17.452   9.129
  772POPC   C1A12987  29.072  17.282   8.752
  772POPC   D2A12988  29.235  17.086   8.365
  772POPC   C3A12989  29.261  17.338   7.999
  772POPC   C4A12990  28.875  17.273   7.841
  772POPC   C1B12991  28.912  17.781   8.865
  772POPC   C2B12992  29.064  17.709   8.444
  772POPC   C3B12993  28.967  17.761   8.021
  772POPC   C4B12994  29.050  17.693   7.584
  773POPC   NC312995   1.123   3.174   9.335
  773POPC   PO412996   0.968   3.807   9.539
  773POPC   GL112997   1.138   3.694   9.152
  773POPC   GL212998   1.062   4.019   9.070
  773POPC   C1A12999   1.020   3.473   8.753
  773POPC   D2A13000   1.237   3.252   8.402
  773POPC   C3A13001   1.079   3.413   8.006
  773POPC   C4A13002   1.311   3.548   7.655
  773POPC   C1B13003   1.217   3.953   8.700
  773POPC   C2B13004   1.183   3.780   8.334
  773POPC   C3B13005   1.109   3.925   7.925
  773POPC   C4B13006   0.960   3.871   7.446
  774POPC   NC313007  15.529   1.413   9.406
  774POPC   PO413008  15.127   0.976   9.407
  774POPC   GL113009  15.241   1.084   9.024
  774POPC   GL213010  15.152   1.380   9.026
  774POPC   C1A13011  15.401   1.175   8.598
  774POPC   D2A13012  15.159   1.143   8.220
  774POPC   C3A13013  15.320   0.951   7.840
  774POPC   C4A13014  15.266   1.084   7.424
  774POPC   C1B13015  15.180   1.631   8.658
  774POPC   C2B13016  15.296   1.648   8.239
  774POPC   C3B13017  15.244   1.472   7.804
  774POPC   C4B13018  15.380   1.596   7.346
  775POPC   NC313019  24.922  19.796   9.476
  775POPC   PO413020  24.335  19.851   9.729
  775POPC   GL113021  24.362  19.773   9.213
  775POPC   GL213022  24.189  20.088   9.064
  775POPC   C1A13023  24.698  19.706   8.802
  775POPC   D2A13024  25.046  19.710   8.459
  775POPC   C3A13025  24.893  19.669   8.000
  775POPC   C4A13026  24.584  19.973   7.841
  775POPC   C1B13027  24.315  20.024   8.631
  775POPC   C2B13028  24.482  19.717   8.320
  775POPC   C3B13029  24.339  19.533   7.935
  775POPC   C4B13030  24.256  19.725   7.522
  776POPC   NC313031  10.277  38.367   9.588
  776POPC   PO413032  10.843  38.753   9.504
  776POPC   GL113033  10.542  38.596   9.200
  776POPC   GL213034  10.806  38.619   8.991
  776POPC   C1A13035  10.223  38.535   8.867
  776POPC   D2A13036  10.160  38.599   8.415
  776POPC   C3A13037  10.558  38.696   8.162
  776POPC   C4A13038  10.684  38.536   7.740
  776POPC   C1B13039  10.679  38.239   8.805
  776POPC   C2B13040  10.556  38.228   8.393
  776POPC   C3B13041  10.736  38.160   8.064
  776POPC   C4B13042  10.805  37.989   7.703
  777POPC   NC313043  35.423  21.731   9.559
  777POPC   PO413044  35.139  22.385   9.434
  777POPC   GL113045  35.244  22.147   9.090
  777POPC   GL213046  35.539  21.980   9.124
  777POPC   C1A13047  35.367  22.190   8.665
  777POPC   D2A13048  35.281  22.005   8.280
  777POPC   C3A13049  35.342  22.263   7.939
  777POPC   C4A13050  35.229  21.995   7.658
  777POPC   C1B13051  35.748  21.841   8.784
  777POPC   C2B13052  35.796  21.991   8.366
  777POPC   C3B13053  35.635  21.857   7.956
  777POPC   C4B13054  35.685  21.883   7.521
  778POPC   NC313055   0.284  16.097   9.400
  778POPC   PO413056   0.631  15.760   9.800
  778POPC   GL113057   0.713  15.877   9.292
  778POPC   GL213058   0.438  15.671   9.122
  778POPC   C1A13059   0.583  16.035   8.826
  778POPC   D2A13060   0.351  15.898   8.449
  778POPC   C3A13061   0.481  16.134   8.093
  778POPC   C4A13062   0.624  16.087   7.673
  778POPC   C1B13063   0.607  15.512   8.744
  778POPC   C2B13064   0.628  15.440   8.296
  778POPC   C3B13065   0.475  15.646   7.938
  778POPC   C4B13066   0.523  15.601   7.501
  779POPC   NC313067  18.067  26.328   9.624
  779POPC   PO413068  18.285  25.781   9.315
  779POPC   GL113069  18.042  26.052   9.083
  779POPC   GL213070  18.146  26.388   9.118
  779POPC   C1A13071  18.048  26.084   8.637
  779POPC   D2A13072  18.275  25.797   8.377
  779POPC   C3A13073  18.078  25.852   7.979
  779POPC   C4A13074  18.097  26.230   7.748
  779POPC   C1B13075  18.498  26.259   8.806
  779POPC   C2B13076  18.483  26.283   8.333
  779POPC   C3B13077  18.562  26.082   7.914
  779POPC   C4B13078  18.552  26.288   7.498
  780POPC   NC313079  15.598  25.583   9.256
  780POPC   PO413080  15.915  26.081   9.569
  780POPC   GL113081  15.963  26.066   9.166
  780POPC   GL213082  16.071  25.748   9.152
  780POPC   C1A13083  16.170  26.184   8.787
  780POPC   D2A13084  16.256  26.109   8.364
  780POPC   C3A13085  15.895  26.117   8.109
  780POPC   C4A13086  15.868  25.879   7.732
  780POPC   C1B13087  16.267  25.651   8.783
  780POPC   C2B13088  16.217  25.532   8.376
  780POPC   C3B13089  16.266  25.705   8.019
  780POPC   C4B13090  16.335  26.096   7.854
  781POPC   NC313091  20.998  29.125   9.344
  781POPC   PO413092  20.488  29.423   9.579
  781POPC   GL113093  20.587  29.359   9.139
  781POPC   GL213094  20.486  29.014   9.152
  781POPC   C1A13095  20.800  29.196   8.756
  781POPC   D2A13096  20.858  29.060   8.363
  781POPC   C3A13097  20.738  29.341   8.069
  781POPC   C4A13098  20.713  29.284   7.658
  781POPC   C1B13099  20.296  29.158   8.752
  781POPC   C2B13100  20.278  29.321   8.340
  781POPC   C3B13101  20.288  29.163   7.923
  781POPC   C4B13102  20.264  29.130   7.488
  782POPC   NC313103  43.078  29.270   9.512
  782POPC   PO413104  43.578  28.980   9.629
  782POPC   GL113105  43.278  29.031   9.146
  782POPC   GL213106  43.158  29.409   9.035
  782POPC   C1A13107  43.328  29.029   8.727
  782POPC   D2A13108  43.221  29.246   8.359
  782POPC   C3A13109  43.052  28.985   8.052
  782POPC   C4A13110  43.235  28.992   7.656
  782POPC   C1B13111  42.899  29.424   8.734
  782POPC   C2B13112  42.692  29.281   8.400
  782POPC   C3B13113  42.783  29.407   7.994
  782POPC   C4B13114  43.213  29.511   7.878
  783POPC   NC313115  28.681   6.592   9.463
  783POPC   PO413116  28.049   6.970   9.391
  783POPC   GL113117  28.305   6.727   9.142
  783POPC   GL213118  28.583   6.928   9.075
  783POPC   C1A13119  28.403   6.457   8.814
  783POPC   D2A13120  28.225   6.386   8.415
  783POPC   C3A13121  28.458   6.445   8.041
  783POPC   C4A13122  28.258   6.397   7.641
  783POPC   C1B13123  28.390   6.992   8.670
  783POPC   C2B13124  28.428   7.033   8.218
  783POPC   C3B13125  28.727   6.873   7.919
  783POPC   C4B13126  28.717   6.580   7.589
  784POPC   NC313127  20.766  23.052   9.537
  784POPC   PO413128  20.243  22.629   9.498
  784POPC   GL113129  20.401  22.945   9.190
  784POPC   GL213130  20.243  23.278   9.237
  784POPC   C1A13131  20.650  22.921   8.817
  784POPC   D2A13132  20.613  23.067   8.403
  784POPC   C3A13133  20.637  22.812   8.060
  784POPC   C4A13134  20.940  22.794   7.764
  784POPC   C1B13135  20.284  23.304   8.748
  784POPC   C2B13136  20.383  23.499   8.304
  784POPC   C3B13137  20.414  23.250   7.908
  784POPC   C4B13138  20.233  22.815   7.739
  785POPC   NC313139  21.673   5.809   9.709
  785POPC   PO413140  21.359   6.375   9.751
  785POPC   GL113141  21.360   6.069   9.384
  785POPC   GL213142  21.723   5.966   9.241
  785POPC   C1A13143  21.283   5.915   8.941
  785POPC   D2A13144  21.207   5.675   8.571
  785POPC   C3A13145  21.325   5.801   8.183
  785POPC   C4A13146  21.439   5.570   7.810
  785POPC   C1B13147  21.595   6.304   9.015
  785POPC   C2B13148  21.580   6.212   8.591
  785POPC   C3B13149  21.724   6.157   8.180
  785POPC   C4B13150  21.527   6.062   7.801
  786POPC   NC313151  39.853  17.034   9.569
  786POPC   PO413152  40.048  16.321   9.716
  786POPC   GL113153  40.102  16.624   9.364
  786POPC   GL213154  39.768  16.609   9.240
  786POPC   C1A13155  40.184  16.557   8.902
  786POPC   D2A13156  40.008  16.536   8.477
  786POPC   C3A13157  40.255  16.625   8.098
  786POPC   C4A13158  40.054  16.617   7.717
  786POPC   C1B13159  39.805  16.891   8.896
  786POPC   C2B13160  39.655  16.918   8.474
  786POPC   C3B13161  39.854  16.935   8.124
  786POPC   C4B13162  40.044  17.127   7.831
  787POPC   NC313163  28.678  38.208   9.405
  787POPC   PO413164  29.239  38.674   9.544
  787POPC   GL113165  29.101  38.424   9.193
  787POPC   GL213166  29.104  38.627   8.989
  787POPC   C1A13167  28.915  38.228   8.774
  787POPC   D2A13168  28.813  37.921   8.464
  787POPC   C3A13169  28.759  38.037   8.053
  787POPC   C4A13170  29.072  38.236   7.859
  787POPC   C1B13171  29.006  38.935   8.743
  787POPC   C2B13172  29.063  38.706   8.404
  787POPC   C3B13173  29.053  38.753   7.978
  787POPC   C4B13174  29.067  38.642   7.549
  788POPC   NC313175  42.076   5.195   9.460
  788POPC   PO413176  42.719   5.115   9.503
  788POPC   GL113177  42.545   5.137   9.132
  788POPC   GL213178  42.422   5.466   9.083
  788POPC   C1A13179  42.291   4.989   8.812
  788POPC   D2A13180  42.370   4.907   8.420
  788POPC   C3A13181  42.064   4.908   8.102
  788POPC   C4A13182  42.053   5.054   7.698
  788POPC   C1B13183  42.527   5.416   8.627
  788POPC   C2B13184  42.422   5.352   8.160
  788POPC   C3B13185  42.561   5.266   7.725
  788POPC   C4B13186  42.784   5.255   7.320
  789POPC   NC313187  32.703  10.522   9.382
  789POPC   PO413188  33.125  11.117   9.367
  789POPC   GL113189  33.033  10.843   9.092
  789POPC   GL213190  33.238  10.553   9.112
  789POPC   C1A13191  33.220  10.884   8.720
  789POPC   D2A13192  33.082  10.958   8.364
  789POPC   C3A13193  33.133  10.604   8.152
  789POPC   C4A13194  32.984  10.679   7.774
  789POPC   C1B13195  32.930  10.437   8.758
  789POPC   C2B13196  32.864  10.193   8.383
  789POPC   C3B13197  32.832  10.236   7.985
  789POPC   C4B13198  33.178  10.202   7.722
  790POPC   NC313199  30.653  13.895   9.290
  790POPC   PO413200  30.704  13.380   9.685
  790POPC   GL113201  30.646  13.387   9.242
  790POPC   GL213202  30.332  13.484   9.188
  790POPC   C1A13203  30.781  13.499   8.792
  790POPC   D2A13204  30.815  13.765   8.443
  790POPC   C3A13205  31.017  13.532   8.118
  790POPC   C4A13206  30.923  13.487   7.681
  790POPC   C1B13207  30.312  13.323   8.797
  790POPC   C2B13208  30.339  13.469   8.396
  790POPC   C3B13209  30.522  13.608   8.037
  790POPC   C4B13210  30.431  13.330   7.716
  791POPC   NC313211   5.695   6.985   9.398
  791POPC   PO413212   5.456   6.305   9.529
  791POPC   GL113213   5.560   6.542   9.165
  791POPC   GL213214   5.435   6.836   8.979
  791POPC   C1A13215   5.792   6.482   8.781
  791POPC   D2A13216   6.066   6.423   8.419
  791POPC   C3A13217   5.925   6.337   8.032
  791POPC   C4A13218   5.577   6.301   7.774
  791POPC   C1B13219   5.767   6.992   8.696
  791POPC   C2B13220   5.804   6.861   8.263
  791POPC   C3B13221   5.838   6.792   7.824
  791POPC   C4B13222   6.112   6.932   7.538
  792POPC   NC313223  21.900   1.913   9.352
  792POPC   PO413224  22.465   2.279   9.493
  792POPC   GL113225  22.316   2.162   9.102
  792POPC   GL213226  21.981   2.290   9.005
  792POPC   C1A13227  22.349   2.082   8.672
  792POPC   D2A13228  22.114   2.138   8.289
  792POPC   C3A13229  22.253   1.946   7.909
  792POPC   C4A13230  22.608   1.622   7.894
  792POPC   C1B13231  21.842   1.952   8.704
  792POPC   C2B13232  21.690   1.858   8.307
  792POPC   C3B13233  21.736   2.023   7.926
  792POPC   C4B13234  21.831   1.842   7.525
  793POPC   NC313235  15.958  43.832   9.549
  793POPC   PO413236  15.860  44.499   9.482
  793POPC   GL113237  15.835  44.127   9.142
  793POPC   GL213238  16.105  43.842   9.075
  793POPC   C1A13239  15.603  43.844   8.840
  793POPC   D2A13240  15.489  43.945   8.404
  793POPC   C3A13241  15.552  43.724   8.032
  793POPC   C4A13242  15.673  43.591   7.610
  793POPC   C1B13243  16.053  44.039   8.657
  793POPC   C2B13244  15.962  43.921   8.249
  793POPC   C3B13245  16.043  43.616   7.928
  793POPC   C4B13246  16.423  43.463   7.817
  794POPC   NC313247   4.756  38.504   9.612
  794POPC   PO413248   4.175  38.771   9.746
  794POPC   GL113249   4.311  38.678   9.334
  794POPC   GL213250   4.648  38.857   9.234
  794POPC   C1A13251   4.032  38.543   8.973
  794POPC   D2A13252   3.832  38.386   8.584
  794POPC   C3A13253   4.119  38.404   8.205
  794POPC   C4A13254   4.057  38.481   7.761
  794POPC   C1B13255   4.546  38.550   8.898
  794POPC   C2B13256   4.562  38.358   8.499
  794POPC   C3B13257   4.647  38.314   8.067
  794POPC   C4B13258   4.528  38.626   7.776
  795POPC   NC313259  33.306  30.238   9.486
  795POPC   PO413260  33.834  29.797   9.642
  795POPC   GL113261  33.740  30.049   9.293
  795POPC   GL213262  33.497  29.830   9.227
  795POPC   C1A13263  33.819  30.045   8.858
  795POPC   D2A13264  34.079  29.844   8.549
  795POPC   C3A13265  33.972  29.983   8.150
  795POPC   C4A13266  33.860  30.103   7.765
  795POPC   C1B13267  33.308  29.978   8.836
  795POPC   C2B13268  33.452  29.955   8.426
  795POPC   C3B13269  33.341  29.836   8.023
  795POPC   C4B13270  33.420  29.910   7.586
  796POPC   NC313271   4.791  43.493   9.296
  796POPC   PO413272   5.013  44.131   9.404
  796POPC   GL113273   5.024  43.883   9.048
  796POPC   GL213274   5.261  43.598   9.118
  796POPC   C1A13275   5.033  44.056   8.623
  796POPC   D2A13276   5.319  44.173   8.296
  796POPC   C3A13277   5.041  44.115   7.945
  796POPC   C4A13278   4.769  43.768   7.804
  796POPC   C1B13279   5.290  43.629   8.659
  796POPC   C2B13280   5.176  43.564   8.243
  796POPC   C3B13281   5.354  43.719   7.860
  796POPC   C4B13282   5.595  44.081   7.869
  797POPC   NC313283  16.916  19.954   9.511
  797POPC   PO413284  16.388  19.530   9.619
  797POPC   GL113285  16.506  19.665   9.210
  797POPC   GL213286  16.834  19.561   9.200
  797POPC   C1A13287  16.493  19.819   8.780
  797POPC   D2A13288  16.781  19.949   8.435
  797POPC   C3A13289  16.819  19.847   7.975
  797POPC   C4A13290  16.768  20.164   7.619
  797POPC   C1B13291  17.055  19.740   8.829
  797POPC   C2B13292  17.187  19.635   8.404
  797POPC   C3B13293  17.179  19.461   7.990
  797POPC   C4B13294  17.098  19.630   7.571
  798POPC   NC313295  13.157  38.559   9.562
  798POPC   PO413296  13.095  37.943   9.360
  798POPC   GL113297  13.080  38.331   9.092
  798POPC   GL213298  13.166  38.721   9.086
  798POPC   C1A13299  12.708  38.529   8.906
  798POPC   D2A13300  12.473  38.661   8.528
  798POPC   C3A13301  12.505  38.342   8.212
  798POPC   C4A13302  12.687  38.419   7.832
  798POPC   C1B13303  13.188  38.577   8.647
  798POPC   C2B13304  13.080  38.412   8.207
  798POPC   C3B13305  13.146  38.604   7.791
  798POPC   C4B13306  13.235  38.886   7.434
  799POPC   NC313307   7.813  32.116   9.634
  799POPC   PO413308   8.235  32.557   9.449
  799POPC   GL113309   7.978  32.552   9.129
  799POPC   GL213310   7.961  32.207   9.118
  799POPC   C1A13311   8.205  32.456   8.735
  799POPC   D2A13312   8.213  32.146   8.400
  799POPC   C3A13313   8.304  32.352   8.006
  799POPC   C4A13314   8.032  32.434   7.680
  799POPC   C1B13315   7.731  32.310   8.704
  799POPC   C2B13316   7.745  32.273   8.236
  799POPC   C3B13317   7.920  32.015   7.925
  799POPC   C4B13318   7.932  31.975   7.463
  800POPC   NC313319  19.752  10.078   9.471
  800POPC   PO413320  19.990   9.396   9.392
  800POPC   GL113321  19.849   9.669   9.109
  800POPC   GL213322  19.528   9.759   9.093
  800POPC   C1A13323  19.887   9.867   8.723
  800POPC   D2A13324  20.101   9.804   8.340
  800POPC   C3A13325  19.874   9.919   7.984
  800POPC   C4A13326  20.000   9.746   7.613
  800POPC   C1B13327  19.535   9.441   8.769
  800POPC   C2B13328  19.722   9.416   8.317
  800POPC   C3B13329  19.643   9.452   7.853
  800POPC   C4B13330  19.700   9.390   7.379
  801POPC   NC313331  23.626  34.323   9.575
  801POPC   PO413332  23.734  34.996   9.598
  801POPC   GL113333  23.757  34.907   9.179
  801POPC   GL213334  23.519  34.641   9.176
  801POPC   C1A13335  23.663  34.839   8.731
  801POPC   D2A13336  23.807  34.553   8.419
  801POPC   C3A13337  23.792  34.754   8.033
  801POPC   C4A13338  23.805  34.617   7.609
  801POPC   C1B13339  23.484  34.352   8.802
  801POPC   C2B13340  23.333  34.272   8.381
  801POPC   C3B13341  23.393  34.419   7.931
  801POPC   C4B13342  23.385  34.366   7.448
  802POPC   NC313343  16.674  37.238   9.635
  802POPC   PO413344  16.467  36.651   9.505
  802POPC   GL113345  16.498  36.845   9.116
  802POPC   GL213346  16.437  37.189   9.187
  802POPC   C1A13347  16.780  36.918   8.758
  802POPC   D2A13348  17.022  37.008   8.384
  802POPC   C3A13349  16.835  36.880   8.022
  802POPC   C4A13350  16.757  37.076   7.690
  802POPC   C1B13351  16.286  37.124   8.760
  802POPC   C2B13352  16.490  37.055   8.376
  802POPC   C3B13353  16.361  37.135   8.015
  802POPC   C4B13354  16.307  37.276   7.625
  803POPC   NC313355  44.938  41.287   9.344
  803POPC   PO413356   0.175  40.749   9.632
  803POPC   GL113357  44.870  40.781   9.224
  803POPC   GL213358  44.540  40.963   9.274
  803POPC   C1A13359  44.836  40.507   8.839
  803POPC   D2A13360  44.765  40.347   8.403
  803POPC   C3A13361  44.847  40.586   8.010
  803POPC   C4A13362  44.545  40.696   7.712
  803POPC   C1B13363  44.587  40.977   8.824
  803POPC   C2B13364  44.816  40.881   8.459
  803POPC   C3B13365  44.691  41.062   8.096
  803POPC   C4B13366  44.911  41.156   7.749
  804POPC   NC313367  20.393   5.514   9.473
  804POPC   PO413368  20.654   6.098   9.419
  804POPC   GL113369  20.389   5.876   9.126
  804POPC   GL213370  20.643   5.592   9.053
  804POPC   C1A13371  20.269   5.897   8.708
  804POPC   D2A13372  20.019   5.981   8.386
  804POPC   C3A13373  20.169   6.232   8.101
  804POPC   C4A13374  20.434   6.114   7.760
  804POPC   C1B13375  20.778   5.881   8.799
  804POPC   C2B13376  20.730   5.821   8.414
  804POPC   C3B13377  20.837   5.997   8.097
  804POPC   C4B13378  21.012   5.858   7.768
  805POPC   NC313379  44.279  13.493   9.507
  805POPC   PO413380  43.820  13.868   9.604
  805POPC   GL113381  43.889  13.743   9.204
  805POPC   GL213382  43.789  14.088   9.136
  805POPC   C1A13383  44.088  13.587   8.818
  805POPC   D2A13384  44.118  13.368   8.432
  805POPC   C3A13385  44.119  13.580   8.086
  805POPC   C4A13386  44.121  13.345   7.708
  805POPC   C1B13387  43.691  13.905   8.751
  805POPC   C2B13388  43.713  13.715   8.386
  805POPC   C3B13389  43.684  13.820   7.960
  805POPC   C4B13390  43.764  13.659   7.579
  806POPC   NC313391  31.162  21.215   9.492
  806POPC   PO413392  30.592  21.473   9.702
  806POPC   GL113393  30.540  21.518   9.210
  806POPC   GL213394  30.616  21.178   9.203
  806POPC   C1A13395  30.316  21.360   8.808
  806POPC   D2A13396  30.352  21.172   8.372
  806POPC   C3A13397  30.480  21.421   8.012
  806POPC   C4A13398  30.913  21.597   7.839
  806POPC   C1B13399  30.856  21.342   8.844
  806POPC   C2B13400  30.943  21.289   8.382
  806POPC   C3B13401  30.857  21.094   7.968
  806POPC   C4B13402  31.120  21.099   7.564
  807POPC   NC313403   5.771   2.428   9.406
  807POPC   PO413404   6.204   2.909   9.522
  807POPC   GL113405   6.150   2.657   9.168
  807POPC   GL213406   5.846   2.850   9.119
  807POPC   C1A13407   5.994   2.525   8.749
  807POPC   D2A13408   6.038   2.750   8.335
  807POPC   C3A13409   6.097   2.493   7.969
  807POPC   C4A13410   5.801   2.328   7.687
  807POPC   C1B13411   5.956   3.053   8.753
  807POPC   C2B13412   5.810   3.223   8.361
  807POPC   C3B13413   5.802   3.023   7.919
  807POPC   C4B13414   5.632   2.847   7.517
  808POPC   NC313415  32.033  33.604   9.545
  808POPC   PO413416  32.611  33.813   9.546
  808POPC   GL113417  32.357  33.774   9.184
  808POPC   GL213418  32.020  33.948   9.172
  808POPC   C1A13419  32.282  33.711   8.766
  808POPC   D2A13420  32.261  33.965   8.405
  808POPC   C3A13421  32.255  33.671   8.110
  808POPC   C4A13422  32.361  33.514   7.741
  808POPC   C1B13423  31.857  34.046   8.760
  808POPC   C2B13424  31.777  34.142   8.301
  808POPC   C3B13425  32.006  34.030   7.888
  808POPC   C4B13426  32.406  34.181   7.770
  809POPC   NC313427  20.815  42.449   9.456
  809POPC   PO413428  20.156  42.222   9.522
  809POPC   GL113429  20.439  42.221   9.161
  809POPC   GL213430  20.313  42.546   9.154
  809POPC   C1A13431  20.796  42.270   8.825
  809POPC   D2A13432  20.941  42.286   8.393
  809POPC   C3A13433  20.669  42.068   8.134
  809POPC   C4A13434  20.563  42.172   7.705
  809POPC   C1B13435  20.442  42.631   8.814
  809POPC   C2B13436  20.612  42.672   8.456
  809POPC   C3B13437  20.535  42.542   8.071
  809POPC   C4B13438  20.681  42.691   7.680
  810POPC   NC313439  35.528  43.013   9.523
  810POPC   PO413440  35.193  43.547   9.492
  810POPC   GL113441  35.190  43.373   9.085
  810POPC   GL213442  35.286  43.044   9.079
  810POPC   C1A13443  35.046  43.306   8.687
  810POPC   D2A13444  35.226  43.337   8.290
  810POPC   C3A13445  35.390  43.120   7.978
  810POPC   C4A13446  35.070  43.128   7.694
  810POPC   C1B13447  35.078  42.817   8.790
  810POPC   C2B13448  34.943  42.885   8.392
  810POPC   C3B13449  35.086  42.710   8.029
  810POPC   C4B13450  35.277  42.652   7.667
  811POPC   NC313451  27.258  11.020   9.381
  811POPC   PO413452  27.649  11.714   9.515
  811POPC   GL113453  27.788  11.549   9.068
  811POPC   GL213454  27.558  11.247   8.963
  811POPC   C1A13455  27.865  11.484   8.613
  811POPC   D2A13456  27.723  11.214   8.289
  811POPC   C3A13457  27.692  11.430   7.912
  811POPC   C4A13458  27.528  11.441   7.495
  811POPC   C1B13459  27.771  10.889   8.703
  811POPC   C2B13460  27.945  10.755   8.293
  811POPC   C3B13461  28.086  11.041   7.933
  811POPC   C4B13462  27.912  11.105   7.502
  812POPC   NC313463  14.212  26.479   9.708
  812POPC   PO413464  14.568  27.067   9.620
  812POPC   GL113465  14.274  26.907   9.282
  812POPC   GL213466  14.369  26.549   9.218
  812POPC   C1A13467  14.228  26.961   8.801
  812POPC   D2A13468  14.610  26.884   8.493
  812POPC   C3A13469  14.552  27.003   8.048
  812POPC   C4A13470  14.146  26.994   7.782
  812POPC   C1B13471  14.394  26.476   8.770
  812POPC   C2B13472  14.187  26.623   8.371
  812POPC   C3B13473  14.326  26.514   7.958
  812POPC   C4B13474  14.236  26.185   7.665
  813POPC   NC313475  18.094   4.483   9.401
  813POPC   PO413476  18.407   5.117   9.582
  813POPC   GL113477  18.332   5.311   9.198
  813POPC   GL213478  18.017   5.154   9.072
  813POPC   C1A13479  18.575   5.158   8.850
  813POPC   D2A13480  18.483   4.888   8.512
  813POPC   C3A13481  18.377   5.168   8.196
  813POPC   C4A13482  18.486   5.136   7.770
  813POPC   C1B13483  17.885   4.904   8.695
  813POPC   C2B13484  17.854   4.975   8.258
  813POPC   C3B13485  17.929   4.857   7.874
  813POPC   C4B13486  18.095   5.020   7.489
  814POPC   NC313487  41.824  30.281   9.460
  814POPC   PO413488  41.770  30.929   9.426
  814POPC   GL113489  41.409  30.771   9.156
  814POPC   GL213490  41.390  30.401   9.174
  814POPC   C1A13491  41.255  30.622   8.726
  814POPC   D2A13492  41.423  30.441   8.305
  814POPC   C3A13493  41.491  30.688   7.923
  814POPC   C4A13494  41.832  30.955   7.918
  814POPC   C1B13495  41.743  30.498   8.856
  814POPC   C2B13496  41.915  30.317   8.495
  814POPC   C3B13497  41.926  30.435   8.083
  814POPC   C4B13498  41.874  30.387   7.673
  815POPC   NC313499  20.200  41.666   9.551
  815POPC   PO413500  20.928  41.616   9.507
  815POPC   GL113501  20.758  41.591   9.105
  815POPC   GL213502  20.396  41.692   9.073
  815POPC   C1A13503  20.674  41.399   8.727
  815POPC   D2A13504  20.626  41.550   8.307
  815POPC   C3A13505  20.658  41.263   7.954
  815POPC   C4A13506  20.350  41.311   7.619
  815POPC   C1B13507  20.443  41.925   8.675
  815POPC   C2B13508  20.212  41.876   8.290
  815POPC   C3B13509  20.350  41.728   7.919
  815POPC   C4B13510  20.724  41.704   7.724
  816POPC   NC313511  24.703  16.500   9.502
  816POPC   PO413512  24.439  17.132   9.506
  816POPC   GL113513  24.528  16.887   9.136
  816POPC   GL213514  24.774  16.614   9.015
  816POPC   C1A13515  24.549  16.962   8.708
  816POPC   D2A13516  24.767  16.777   8.407
  816POPC   C3A13517  24.520  16.872   8.112
  816POPC   C4A13518  24.396  16.808   7.737
  816POPC   C1B13519  24.387  16.463   8.844
  816POPC   C2B13520  24.271  16.536   8.433
  816POPC   C3B13521  24.355  16.387   8.018
  816POPC   C4B13522  24.022  16.379   7.712
  817POPC   NC313523   2.542   1.838   9.460
  817POPC   PO413524   2.279   1.238   9.595
  817POPC   GL113525   2.637   1.328   9.254
  817POPC   GL213526   3.028   1.399   9.286
  817POPC   C1A13527   2.849   1.072   8.905
  817POPC   D2A13528   2.676   0.924   8.528
  817POPC   C3A13529   2.743   1.165   8.159
  817POPC   C4A13530   2.750   1.079   7.729
  817POPC   C1B13531   3.242   1.390   8.870
  817POPC   C2B13532   3.099   1.469   8.432
  817POPC   C3B13533   2.966   1.623   8.009
  817POPC   C4B13534   3.027   1.482   7.557
  818POPC   NC313535  44.257   8.135   9.462
  818POPC   PO413536  44.830   8.489   9.512
  818POPC   GL113537  44.766   8.361   9.114
  818POPC   GL213538  44.604   8.057   9.090
  818POPC   C1A13539  44.665   8.365   8.683
  818POPC   D2A13540  44.422   8.499   8.349
  818POPC   C3A13541  44.686   8.500   8.022
  818POPC   C4A13542  44.554   8.476   7.616
  818POPC   C1B13543  44.484   7.846   8.718
  818POPC   C2B13544  44.606   7.985   8.333
  818POPC   C3B13545  44.740   7.980   7.940
  818POPC   C4B13546  44.553   7.975   7.518
  819POPC   NC313547  19.524  41.155   9.453
  819POPC   PO413548  19.750  41.705   9.665
  819POPC   GL113549  19.855  41.746   9.199
  819POPC   GL213550  19.735  41.412   9.046
  819POPC   C1A13551  19.968  41.739   8.756
  819POPC   D2A13552  19.943  41.391   8.471
  819POPC   C3A13553  19.822  41.574   8.090
  819POPC   C4A13554  19.925  41.724   7.674
  819POPC   C1B13555  19.370  41.268   8.826
  819POPC   C2B13556  19.270  41.148   8.421
  819POPC   C3B13557  19.479  41.190   8.035
  819POPC   C4B13558  19.796  41.227   7.708
  820POPC   NC313559  36.538  36.507   9.337
  820POPC   PO413560  35.886  36.664   9.418
  820POPC   GL113561  36.150  36.898   9.176
  820POPC   GL213562  36.386  36.766   8.916
  820POPC   C1A13563  36.012  37.140   8.845
  820POPC   D2A13564  36.146  37.007   8.473
  820POPC   C3A13565  36.090  37.237   8.130
  820POPC   C4A13566  36.368  36.959   7.894
  820POPC   C1B13567  35.969  36.619   8.764
  820POPC   C2B13568  35.730  36.630   8.441
  820POPC   C3B13569  35.941  36.725   8.077
  820POPC   C4B13570  35.899  36.542   7.706
  821POPC   NC313571  15.740  24.705   9.527
  821POPC   PO413572  16.194  24.189   9.571
  821POPC   GL113573  16.227  24.411   9.189
  821POPC   GL213574  16.433  24.688   9.276
  821POPC   C1A13575  15.986  24.334   8.815
  821POPC   D2A13576  15.749  24.450   8.427
  821POPC   C3A13577  15.834  24.218   8.036
  821POPC   C4A13578  15.847  24.440   7.636
  821POPC   C1B13579  16.418  24.698   8.819
  821POPC   C2B13580  16.232  24.600   8.462
  821POPC   C3B13581  16.106  24.652   8.056
  821POPC   C4B13582  16.284  24.699   7.676
  822POPC   NC313583  40.539  40.266   9.473
  822POPC   PO413584  40.976  39.694   9.498
  822POPC   GL113585  40.948  39.948   9.141
  822POPC   GL213586  41.265  40.128   9.005
  822POPC   C1A13587  40.763  39.837   8.741
  822POPC   D2A13588  40.869  39.696   8.334
  822POPC   C3A13589  40.544  39.681   8.061
  822POPC   C4A13590  40.441  39.785   7.669
  822POPC   C1B13591  40.923  40.340   8.807
  822POPC   C2B13592  40.722  40.289   8.404
  822POPC   C3B13593  40.822  40.120   8.028
  822POPC   C4B13594  40.763  40.256   7.619
  823POPC   NC313595   6.472  28.855   9.483
  823POPC   PO413596   6.608  29.464   9.560
  823POPC   GL113597   6.760  29.213   9.181
  823POPC   GL213598   6.908  28.860   9.195
  823POPC   C1A13599   6.586  29.109   8.771
  823POPC   D2A13600   6.560  29.323   8.355
  823POPC   C3A13601   6.469  29.194   7.932
  823POPC   C4A13602   6.525  29.379   7.521
  823POPC   C1B13603   7.007  28.824   8.751
  823POPC   C2B13604   6.776  28.839   8.331
  823POPC   C3B13605   6.756  28.783   7.862
  823POPC   C4B13606   6.612  28.886   7.467
  824POPC   NC313607  20.646  16.607   9.728
  824POPC   PO413608  20.730  16.041   9.477
  824POPC   GL113609  20.600  16.440   9.229
  824POPC   GL213610  20.477  16.809   9.263
  824POPC   C1A13611  20.633  16.624   8.813
  824POPC   D2A13612  20.428  16.792   8.443
  824POPC   C3A13613  20.592  16.777   8.070
  824POPC   C4A13614  20.476  16.777   7.672
  824POPC   C1B13615  20.398  17.098   8.864
  824POPC   C2B13616  20.677  17.251   8.540
  824POPC   C3B13617  20.844  17.266   8.136
  824POPC   C4B13618  20.860  17.143   7.725
  825POPC   NC313619  13.031   9.455   9.427
  825POPC   PO413620  12.395   9.523   9.525
  825POPC   GL113621  12.651   9.709   9.172
  825POPC   GL213622  12.969   9.915   9.173
  825POPC   C1A13623  12.849   9.627   8.773
  825POPC   D2A13624  12.830   9.805   8.377
  825POPC   C3A13625  12.828   9.629   7.989
  825POPC   C4A13626  13.180   9.728   7.763
  825POPC   C1B13627  12.829  10.145   8.760
  825POPC   C2B13628  12.542  10.219   8.413
  825POPC   C3B13629  12.643  10.120   7.992
  825POPC   C4B13630  12.724  10.358   7.630
  826POPC   NC313631   1.437  34.050   9.616
  826POPC   PO413632   0.914  33.635   9.604
  826POPC   GL113633   1.116  33.829   9.231
  826POPC   GL213634   1.469  33.824   9.144
  826POPC   C1A13635   1.101  33.618   8.824
  826POPC   D2A13636   1.140  33.756   8.404
  826POPC   C3A13637   1.095  33.472   8.060
  826POPC   C4A13638   1.357  33.656   7.780
  826POPC   C1B13639   1.278  34.093   8.807
  826POPC   C2B13640   1.208  34.272   8.419
  826POPC   C3B13641   1.454  34.101   8.118
  826POPC   C4B13642   1.424  34.163   7.722
  827POPC   NC313643   7.626  24.005   9.756
  827POPC   PO413644   7.307  23.366   9.514
  827POPC   GL113645   7.384  23.642   9.180
  827POPC   GL213646   7.503  23.991   9.245
  827POPC   C1A13647   7.263  23.651   8.754
  827POPC   D2A13648   7.519  23.749   8.441
  827POPC   C3A13649   7.580  23.513   8.120
  827POPC   C4A13650   7.576  23.478   7.693
  827POPC   C1B13651   7.123  24.090   8.974
  827POPC   C2B13652   7.119  24.074   8.488
  827POPC   C3B13653   7.222  23.884   8.066
  827POPC   C4B13654   7.518  23.972   7.762
  828POPC   NC313655   4.597   4.408   9.477
  828POPC   PO413656   4.139   4.016   9.564
  828POPC   GL113657   4.328   4.061   9.173
  828POPC   GL213658   4.173   3.776   9.055
  828POPC   C1A13659   4.285   4.336   8.808
  828POPC   D2A13660   4.156   4.662   8.531
  828POPC   C3A13661   4.293   4.663   8.118
  828POPC   C4A13662   4.393   4.584   7.688
  828POPC   C1B13663   4.187   3.860   8.622
  828POPC   C2B13664   4.424   4.068   8.293
  828POPC   C3B13665   4.319   4.108   7.893
  828POPC   C4B13666   3.936   3.860   7.875
  829POPC   NC313667   9.739  24.461   9.629
  829POPC   PO413668  10.280  24.740   9.327
  829POPC   GL113669   9.911  24.453   9.143
  829POPC   GL213670   9.525  24.312   9.193
  829POPC   C1A13671   9.783  24.283   8.749
  829POPC   D2A13672   9.839  24.546   8.422
  829POPC   C3A13673   9.837  24.332   8.046
  829POPC   C4A13674   9.799  24.548   7.687
  829POPC   C1B13675   9.296  24.445   8.829
  829POPC   C2B13676   9.360  24.387   8.389
  829POPC   C3B13677   9.389  24.582   8.006
  829POPC   C4B13678   9.258  24.349   7.654
  830POPC   NC313679  23.604   2.147   9.522
  830POPC   PO413680  24.064   1.692   9.294
  830POPC   GL113681  23.903   2.015   9.070
  830POPC   GL213682  23.562   2.014   9.049
  830POPC   C1A13683  23.806   2.009   8.621
  830POPC   D2A13684  23.541   2.206   8.385
  830POPC   C3A13685  23.752   2.146   8.032
  830POPC   C4A13686  23.746   1.792   7.777
  830POPC   C1B13687  23.284   2.286   8.837
  830POPC   C2B13688  23.185   2.561   8.475
  830POPC   C3B13689  23.354   2.553   8.034
  830POPC   C4B13690  23.481   2.284   7.636
  831POPC   NC313691   1.528   7.607   9.382
  831POPC   PO413692   1.186   7.087   9.437
  831POPC   GL113693   1.082   7.289   9.113
  831POPC   GL213694   1.048   7.639   9.191
  831POPC   C1A13695   1.278   7.231   8.747
  831POPC   D2A13696   1.496   7.200   8.388
  831POPC   C3A13697   1.250   7.238   8.060
  831POPC   C4A13698   1.254   7.322   7.657
  831POPC   C1B13699   1.278   7.744   8.814
  831POPC   C2B13700   1.240   7.646   8.403
  831POPC   C3B13701   1.332   7.739   7.984
  831POPC   C4B13702   1.292   7.802   7.561
  832POPC   NC313703  44.350  21.804   9.449
  832POPC   PO413704  44.948  21.623   9.433
  832POPC   GL113705  44.672  21.509   9.134
  832POPC   GL213706  44.536  21.167   9.152
  832POPC   C1A13707  44.691  21.400   8.722
  832POPC   D2A13708  44.840  21.173   8.385
  832POPC   C3A13709  44.922  21.501   8.104
  832POPC   C4A13710  44.942  21.476   7.689
  832POPC   C1B13711  44.273  21.119   8.778
  832POPC   C2B13712  44.340  21.304   8.364
  832POPC   C3B13713  44.492  21.222   7.940
  832POPC   C4B13714  44.273  21.203   7.553
  833POPC   NC313715  42.309  44.253   9.398
  833POPC   PO413716  42.499  44.863   9.504
  833POPC   GL113717  42.651  44.679   9.133
  833POPC   GL213718  42.317  44.605   9.028
  833POPC   C1A13719  42.662  44.672   8.679
  833POPC   D2A13720  42.383  44.555   8.392
  833POPC   C3A13721  42.535  44.594   8.020
  833POPC   C4A13722  42.334  44.656   7.667
  833POPC   C1B13723  42.126  44.291   8.763
  833POPC   C2B13724  41.909  44.289   8.373
  833POPC   C3B13725  42.013  44.475   8.004
  833POPC   C4B13726  41.968  44.338   7.566
  834POPC   NC313727  36.367   4.287   9.886
  834POPC   PO413728  36.344   4.013   9.289
  834POPC   GL113729  36.241   4.342   9.038
  834POPC   GL213730  36.031   4.625   9.090
  834POPC   C1A13731  36.117   4.297   8.617
  834POPC   D2A13732  35.811   4.134   8.335
  834POPC   C3A13733  35.782   4.306   7.949
  834POPC   C4A13734  35.778   4.025   7.670
  834POPC   C1B13735  35.780   4.649   8.721
  834POPC   C2B13736  35.947   4.661   8.296
  834POPC   C3B13737  36.267   4.409   8.075
  834POPC   C4B13738  36.233   4.306   7.625
  835POPC   NC313739  25.777  10.204   9.667
  835POPC   PO413740  26.178  10.706   9.626
  835POPC   GL113741  26.220  10.438   9.256
  835POPC   GL213742  26.129  10.706   9.038
  835POPC   C1A13743  26.087  10.213   8.835
  835POPC   D2A13744  26.020  10.380   8.380
  835POPC   C3A13745  25.850  10.137   7.983
  835POPC   C4A13746  25.903  10.095   7.519
  835POPC   C1B13747  26.448  10.539   8.730
  835POPC   C2B13748  26.557  10.355   8.345
  835POPC   C3B13749  26.372  10.607   8.040
  835POPC   C4B13750  26.111  10.528   7.698
  836POPC   NC313751  28.233  23.078   9.574
  836POPC   PO413752  28.849  23.204   9.264
  836POPC   GL113753  28.416  23.023   9.102
  836POPC   GL213754  28.109  22.784   9.181
  836POPC   C1A13755  28.308  22.850   8.716
  836POPC   D2A13756  28.441  22.604   8.404
  836POPC   C3A13757  28.390  22.817   8.035
  836POPC   C4A13758  28.601  23.153   7.859
  836POPC   C1B13759  27.950  23.150   8.926
  836POPC   C2B13760  28.038  23.291   8.511
  836POPC   C3B13761  27.910  23.195   8.098
  836POPC   C4B13762  28.107  23.128   7.712
  837POPC   NC313763   8.595  29.785   9.543
  837POPC   PO413764   8.878  30.353   9.537
  837POPC   GL113765   8.876  30.011   9.159
  837POPC   GL213766   9.224  29.877   9.053
  837POPC   C1A13767   8.816  29.631   8.848
  837POPC   D2A13768   8.724  29.455   8.412
  837POPC   C3A13769   8.897  29.536   7.988
  837POPC   C4A13770   8.714  29.806   7.699
  837POPC   C1B13771   9.191  29.937   8.617
  837POPC   C2B13772   9.015  29.991   8.205
  837POPC   C3B13773   9.171  30.002   7.768
  837POPC   C4B13774   9.038  30.109   7.338
  838POPC   NC313775  23.586   4.566   9.754
  838POPC   PO413776  24.045   4.088   9.523
  838POPC   GL113777  23.645   4.249   9.338
  838POPC   GL213778  23.857   4.501   9.265
  838POPC   C1A13779  23.470   4.238   8.907
  838POPC   D2A13780  23.536   4.576   8.598
  838POPC   C3A13781  23.553   4.486   8.175
  838POPC   C4A13782  23.510   4.049   8.060
  838POPC   C1B13783  23.958   4.183   8.897
  838POPC   C2B13784  23.842   4.178   8.481
  838POPC   C3B13785  24.013   4.265   8.089
  838POPC   C4B13786  23.807   4.258   7.709
  839POPC   NC313787   1.499  32.478   9.488
  839POPC   PO413788   1.003  31.994   9.528
  839POPC   GL113789   1.168  32.135   9.185
  839POPC   GL213790   1.053  32.456   9.196
  839POPC   C1A13791   1.348  31.987   8.825
  839POPC   D2A13792   1.182  32.060   8.442
  839POPC   C3A13793   1.312  32.118   8.031
  839POPC   C4A13794   1.256  32.124   7.592
  839POPC   C1B13795   1.326  32.505   8.820
  839POPC   C2B13796   1.411  32.738   8.459
  839POPC   C3B13797   1.432  32.617   8.057
  839POPC   C4B13798   1.323  32.638   7.652
  840POPC   NC313799   2.361   6.300   9.441
  840POPC   PO413800   2.806   6.611   9.873
  840POPC   GL113801   2.803   6.627   9.397
  840POPC   GL213802   2.926   6.324   9.259
  840POPC   C1A13803   2.728   6.628   8.920
  840POPC   D2A13804   2.863   6.536   8.478
  840POPC   C3A13805   2.667   6.578   8.058
  840POPC   C4A13806   2.776   6.788   7.670
  840POPC   C1B13807   3.132   6.257   8.840
  840POPC   C2B13808   3.060   6.076   8.440
  840POPC   C3B13809   3.098   6.295   8.065
  840POPC   C4B13810   2.936   6.321   7.653
  841POPC   NC313811  33.939  18.783   9.619
  841POPC   PO413812  34.124  19.344   9.500
  841POPC   GL113813  33.910  19.086   9.153
  841POPC   GL213814  33.987  18.736   9.115
  841POPC   C1A13815  33.701  18.948   8.725
  841POPC   D2A13816  33.553  18.821   8.291
  841POPC   C3A13817  33.557  19.133   7.944
  841POPC   C4A13818  33.901  19.236   7.711
  841POPC   C1B13819  34.205  18.850   8.753
  841POPC   C2B13820  34.079  18.791   8.352
  841POPC   C3B13821  33.953  18.796   7.949
  841POPC   C4B13822  34.059  18.769   7.513
  842POPC   NC313823   3.497  19.740   9.474
  842POPC   PO413824   2.987  20.235   9.422
  842POPC   GL113825   3.305  20.069   9.154
  842POPC   GL213826   3.280  19.715   9.011
  842POPC   C1A13827   3.688  19.977   8.871
  842POPC   D2A13828   3.543  19.695   8.557
  842POPC   C3A13829   3.576  19.645   8.129
  842POPC   C4A13830   3.764  19.874   7.848
  842POPC   C1B13831   3.172  20.039   8.677
  842POPC   C2B13832   3.289  20.153   8.264
  842POPC   C3B13833   3.211  19.982   7.888
  842POPC   C4B13834   3.246  19.998   7.460
  843POPC   NC313835  19.895  37.028   9.665
  843POPC   PO413836  19.575  36.444   9.568
  843POPC   GL113837  19.692  36.746   9.200
  843POPC   GL213838  19.906  37.084   9.159
  843POPC   C1A13839  19.714  36.872   8.747
  843POPC   D2A13840  19.924  36.897   8.358
  843POPC   C3A13841  19.737  36.805   8.019
  843POPC   C4A13842  19.828  36.562   7.680
  843POPC   C1B13843  20.161  37.114   8.754
  843POPC   C2B13844  20.158  37.359   8.360
  843POPC   C3B13845  20.259  37.234   7.953
  843POPC   C4B13846  20.092  37.002   7.639
  844POPC   NC313847  13.906   4.313   9.734
  844POPC   PO413848  14.551   4.350   9.495
  844POPC   GL113849  14.160   4.203   9.279
  844POPC   GL213850  14.079   4.484   9.115
  844POPC   C1A13851  14.185   4.046   8.850
  844POPC   D2A13852  14.468   4.142   8.497
  844POPC   C3A13853  14.300   4.185   8.068
  844POPC   C4A13854  14.589   4.101   7.701
  844POPC   C1B13855  14.240   4.590   8.732
  844POPC   C2B13856  14.091   4.632   8.329
  844POPC   C3B13857  14.156   4.741   7.919
  844POPC   C4B13858  14.211   4.438   7.635
  845POPC   NC313859  23.920  38.265   9.513
  845POPC   PO413860  23.598  38.843   9.593
  845POPC   GL113861  23.602  38.684   9.164
  845POPC   GL213862  23.619  38.346   9.098
  845POPC   C1A13863  23.733  38.649   8.723
  845POPC   D2A13864  23.654  38.821   8.355
  845POPC   C3A13865  23.704  38.717   7.959
  845POPC   C4A13866  23.724  38.851   7.534
  845POPC   C1B13867  23.840  38.145   8.763
  845POPC   C2B13868  23.847  38.283   8.359
  845POPC   C3B13869  23.895  38.083   7.968
  845POPC   C4B13870  23.869  38.362   7.630
  846POPC   NC313871  21.806  42.266   9.612
  846POPC   PO413872  21.276  42.583   9.460
  846POPC   GL113873  21.494  42.398   9.141
  846POPC   GL213874  21.468  42.088   9.264
  846POPC   C1A13875  21.316  42.328   8.763
  846POPC   D2A13876  21.420  42.448   8.405
  846POPC   C3A13877  21.364  42.319   8.066
  846POPC   C4A13878  21.681  42.313   7.771
  846POPC   C1B13879  21.150  41.912   8.981
  846POPC   C2B13880  20.974  41.811   8.577
  846POPC   C3B13881  21.064  41.762   8.118
  846POPC   C4B13882  21.073  42.066   7.761
  847POPC   NC313883  15.530  40.966   9.596
  847POPC   PO413884  16.193  40.800   9.531
  847POPC   GL113885  15.957  40.817   9.151
  847POPC   GL213886  16.144  40.542   9.017
  847POPC   C1A13887  15.895  40.933   8.718
  847POPC   D2A13888  15.944  41.175   8.335
  847POPC   C3A13889  15.702  41.041   7.974
  847POPC   C4A13890  15.658  40.654   7.709
  847POPC   C1B13891  16.251  40.588   8.585
  847POPC   C2B13892  15.943  40.640   8.262
  847POPC   C3B13893  16.001  40.369   7.940
  847POPC   C4B13894  16.404  40.470   7.810
  848POPC   NC313895  31.087  29.806   9.454
  848POPC   PO413896  30.666  30.218   9.572
  848POPC   GL113897  30.714  30.057   9.171
  848POPC   GL213898  30.982  30.245   9.114
  848POPC   C1A13899  30.762  29.714   8.856
  848POPC   D2A13900  30.666  29.547   8.427
  848POPC   C3A13901  30.966  29.582   8.117
  848POPC   C4A13902  30.798  29.720   7.731
  848POPC   C1B13903  30.945  30.260   8.700
  848POPC   C2B13904  31.049  30.086   8.312
  848POPC   C3B13905  30.810  30.215   7.941
  848POPC   C4B13906  30.714  30.203   7.522
  849POPC   NC313907  40.137  23.113   9.713
  849POPC   PO413908  40.865  23.044   9.647
  849POPC   GL113909  40.957  22.972   9.215
  849POPC   GL213910  40.647  23.013   9.184
  849POPC   C1A13911  41.032  22.885   8.793
  849POPC   D2A13912  40.764  23.018   8.460
  849POPC   C3A13913  40.844  22.797   8.066
  849POPC   C4A13914  41.059  22.951   7.686
  849POPC   C1B13915  40.516  22.766   8.888
  849POPC   C2B13916  40.278  22.887   8.568
  849POPC   C3B13917  40.322  22.993   8.158
  849POPC   C4B13918  40.516  23.053   7.776
  850POPC   NC313919  41.070  11.504   9.567
  850POPC   PO413920  40.685  10.928   9.396
  850POPC   GL113921  40.898  11.223   9.148
  850POPC   GL213922  41.098  11.510   9.076
  850POPC   C1A13923  40.881  11.124   8.740
  850POPC   D2A13924  40.666  10.913   8.383
  850POPC   C3A13925  40.678  11.213   8.053
  850POPC   C4A13926  40.451  11.503   7.811
  850POPC   C1B13927  41.242  11.632   8.742
  850POPC   C2B13928  40.980  11.497   8.428
  850POPC   C3B13929  41.130  11.445   8.068
  850POPC   C4B13930  41.028  11.539   7.707
  851POPC   NC313931  36.750   9.801   9.539
  851POPC   PO413932  37.319   9.473   9.714
  851POPC   GL113933  37.185   9.687   9.290
  851POPC   GL213934  36.825   9.599   9.068
  851POPC   C1A13935  37.150   9.930   8.904
  851POPC   D2A13936  36.824   9.802   8.566
  851POPC   C3A13937  36.976   9.813   8.110
  851POPC   C4A13938  36.880   9.925   7.674
  851POPC   C1B13939  36.540   9.358   8.778
  851POPC   C2B13940  36.556   9.226   8.316
  851POPC   C3B13941  36.582   9.501   7.932
  851POPC   C4B13942  36.693   9.472   7.503
  852POPC   NC313943  17.166  20.805   9.450
  852POPC   PO413944  17.715  20.504   9.668
  852POPC   GL113945  17.589  20.597   9.245
  852POPC   GL213946  17.674  20.283   9.104
  852POPC   C1A13947  17.485  20.651   8.795
  852POPC   D2A13948  17.364  20.433   8.410
  852POPC   C3A13949  17.517  20.668   8.060
  852POPC   C4A13950  17.658  20.597   7.668
  852POPC   C1B13951  17.931  20.283   8.767
  852POPC   C2B13952  17.877  20.462   8.387
  852POPC   C3B13953  17.831  20.253   8.006
  852POPC   C4B13954  18.097  20.316   7.638
  853POPC   NC313955  39.634  32.772   9.427
  853POPC   PO413956  40.098  33.218   9.548
  853POPC   GL113957  40.030  32.999   9.151
  853POPC   GL213958  39.695  33.044   9.008
  853POPC   C1A13959  40.113  32.740   8.773
  853POPC   D2A13960  40.389  32.664   8.413
  853POPC   C3A13961  40.197  32.665   8.044
  853POPC   C4A13962  40.271  33.010   7.764
  853POPC   C1B13963  39.830  33.428   8.863
  853POPC   C2B13964  39.966  33.470   8.453
  853POPC   C3B13965  39.932  33.134   8.144
  853POPC   C4B13966  39.812  33.257   7.737
  854POPC   NC313967  35.170  41.349   9.358
  854POPC   PO413968  35.553  41.901   9.516
  854POPC   GL113969  35.504  41.675   9.110
  854POPC   GL213970  35.541  41.313   8.970
  854POPC   C1A13971  35.388  41.712   8.678
  854POPC   D2A13972  35.573  41.629   8.295
  854POPC   C3A13973  35.346  41.716   7.939
  854POPC   C4A13974  35.458  41.607   7.513
  854POPC   C1B13975  35.181  41.222   8.678
  854POPC   C2B13976  35.169  41.323   8.226
  854POPC   C3B13977  35.519  41.231   7.891
  854POPC   C4B13978  35.407  41.121   7.431
  855POPC   NC313979  20.267  43.269   9.535
  855POPC   PO413980  19.889  43.856   9.381
  855POPC   GL113981  20.082  43.804   8.995
  855POPC   GL213982  20.341  44.058   8.920
  855POPC   C1A13983  19.969  43.820   8.568
  855POPC   D2A13984  19.564  43.789   8.417
  855POPC   C3A13985  19.547  43.505   8.075
  855POPC   C4A13986  19.868  43.473   7.733
  855POPC   C1B13987  20.162  44.289   8.617
  855POPC   C2B13988  20.094  44.175   8.216
  855POPC   C3B13989  19.871  43.895   8.000
  855POPC   C4B13990  19.530  43.886   7.735
  856POPC   NC313991  41.272  21.135   9.637
  856POPC   PO413992  41.626  21.652   9.542
  856POPC   GL113993  41.501  21.384   9.231
  856POPC   GL213994  41.859  21.277   9.168
  856POPC   C1A13995  41.345  21.315   8.811
  856POPC   D2A13996  41.508  21.176   8.419
  856POPC   C3A13997  41.471  21.395   8.030
  856POPC   C4A13998  41.262  21.498   7.627
  856POPC   C1B13999  41.780  21.588   8.861
  856POPC   C2B14000  41.752  21.650   8.453
  856POPC   C3B14001  41.846  21.791   8.065
  856POPC   C4B14002  41.753  21.670   7.653
  857POPC   NC314003  24.256  23.969   9.491
  857POPC   PO414004  24.635  23.445   9.428
  857POPC   GL114005  24.558  23.787   9.134
  857POPC   GL214006  24.241  23.656   9.079
  857POPC   C1A14007  24.722  23.820   8.705
  857POPC   D2A14008  24.649  24.004   8.310
  857POPC   C3A14009  24.839  23.837   7.930
  857POPC   C4A14010  24.692  23.717   7.504
  857POPC   C1B14011  24.218  23.900   8.740
  857POPC   C2B14012  24.168  23.812   8.326
  857POPC   C3B14013  24.333  23.894   7.906
  857POPC   C4B14014  24.151  23.740   7.532
  858POPC   NC314015  43.996   1.850   9.634
  858POPC   PO414016  43.572   2.345   9.545
  858POPC   GL114017  43.808   2.186   9.202
  858POPC   GL214018  43.762   1.829   9.127
  858POPC   C1A14019  43.692   2.183   8.775
  858POPC   D2A14020  43.961   2.176   8.450
  858POPC   C3A14021  43.790   2.152   8.084
  858POPC   C4A14022  44.033   1.888   7.852
  858POPC   C1B14023  44.019   1.710   8.742
  858POPC   C2B14024  43.988   1.579   8.286
  858POPC   C3B14025  43.648   1.564   8.007
  858POPC   C4B14026  43.340   1.892   8.002
  859POPC   NC314027  23.973  12.321   9.327
  859POPC   PO414028  23.590  11.833   9.600
  859POPC   GL114029  23.687  11.915   9.174
  859POPC   GL214030  23.571  12.210   8.992
  859POPC   C1A14031  23.809  11.797   8.746
  859POPC   D2A14032  24.006  11.872   8.340
  859POPC   C3A14033  23.698  12.043   8.037
  859POPC   C4A14034  23.555  11.853   7.609
  859POPC   C1B14035  23.752  12.296   8.586
  859POPC   C2B14036  24.126  12.367   8.362
  859POPC   C3B14037  24.038  12.496   7.969
  859POPC   C4B14038  23.890  12.244   7.600
  860POPC   NC314039  22.808  15.514   9.650
  860POPC   PO414040  23.302  15.041   9.431
  860POPC   GL114041  23.063  15.234   9.141
  860POPC   GL214042  22.701  15.270   9.219
  860POPC   C1A14043  23.186  15.172   8.719
  860POPC   D2A14044  23.236  15.018   8.277
  860POPC   C3A14045  22.975  15.186   7.927
  860POPC   C4A14046  22.938  14.984   7.549
  860POPC   C1B14047  22.667  15.182   8.781
  860POPC   C2B14048  22.836  15.369   8.402
  860POPC   C3B14049  22.676  15.572   8.049
  860POPC   C4B14050  22.445  15.347   7.761
  861POPC   NC314051  35.592  22.436   9.363
  861POPC   PO414052  35.854  21.912   9.519
  861POPC   GL114053  36.091  22.008   9.172
  861POPC   GL214054  35.948  22.276   9.008
  861POPC   C1A14055  36.257  21.902   8.761
  861POPC   D2A14056  36.322  22.036   8.343
  861POPC   C3A14057  36.123  21.869   7.992
  861POPC   C4A14058  36.192  21.976   7.559
  861POPC   C1B14059  35.802  22.439   8.618
  861POPC   C2B14060  35.812  22.458   8.164
  861POPC   C3B14061  35.852  22.306   7.757
  861POPC   C4B14062  36.134  22.467   7.425
  862POPC   NC314063  13.958  18.856   9.690
  862POPC   PO414064  13.319  19.052   9.470
  862POPC   GL114065  13.724  19.049   9.222
  862POPC   GL214066  13.660  18.782   8.943
  862POPC   C1A14067  13.893  19.192   8.820
  862POPC   D2A14068  13.650  18.972   8.466
  862POPC   C3A14069  13.809  19.008   8.053
  862POPC   C4A14070  13.684  19.304   7.748
  862POPC   C1B14071  13.436  18.520   8.670
  862POPC   C2B14072  13.284  18.553   8.274
  862POPC   C3B14073  13.331  18.845   7.929
  862POPC   C4B14074  13.375  18.916   7.467
  863POPC   NC314075  24.914  27.610   9.369
  863POPC   PO414076  25.486  27.867   9.526
  863POPC   GL114077  25.328  27.812   9.091
  863POPC   GL214078  25.228  27.443   9.009
  863POPC   C1A14079  25.457  27.871   8.653
  863POPC   D2A14080  25.349  27.760   8.213
  863POPC   C3A14081  25.503  27.357   8.054
  863POPC   C4A14082  25.584  27.118   7.702
  863POPC   C1B14083  24.980  27.658   8.704
  863POPC   C2B14084  24.781  27.635   8.297
  863POPC   C3B14085  24.757  27.766   7.886
  863POPC   C4B14086  24.828  27.572   7.463
  864POPC   NC314087  16.113   3.567   9.677
  864POPC   PO414088  15.508   3.289   9.594
  864POPC   GL114089  15.768   3.292   9.224
  864POPC   GL214090  15.936   3.613   9.154
  864POPC   C1A14091  15.688   3.375   8.770
  864POPC   D2A14092  15.752   3.684   8.430
  864POPC   C3A14093  15.842   3.493   8.042
  864POPC   C4A14094  16.031   3.663   7.678
  864POPC   C1B14095  16.156   3.563   8.747
  864POPC   C2B14096  16.273   3.632   8.306
  864POPC   C3B14097  16.334   3.342   7.937
  864POPC   C4B14098  16.343   3.306   7.473
  865POPC   NC314099  19.165  29.088   9.578
  865POPC   PO414100  18.630  29.286   9.493
  865POPC   GL114101  18.916  29.113   9.120
  865POPC   GL214102  19.245  28.931   9.082
  865POPC   C1A14103  18.873  29.005   8.686
  865POPC   D2A14104  18.726  28.876   8.277
  865POPC   C3A14105  18.888  29.078   7.892
  865POPC   C4A14106  18.714  29.272   7.501
  865POPC   C1B14107  19.523  28.867   8.740
  865POPC   C2B14108  19.423  29.022   8.289
  865POPC   C3B14109  19.408  29.008   7.832
  865POPC   C4B14110  19.237  29.251   7.458
  866POPC   NC314111  41.623  38.638   9.466
  866POPC   PO414112  41.160  38.108   9.485
  866POPC   GL114113  41.359  38.383   9.048
  866POPC   GL214114  41.585  38.694   8.975
  866POPC   C1A14115  41.325  38.464   8.624
  866POPC   D2A14116  41.533  38.290   8.267
  866POPC   C3A14117  41.306  38.258   7.866
  866POPC   C4A14118  41.330  38.098   7.446
  866POPC   C1B14119  41.911  38.938   8.766
  866POPC   C2B14120  42.153  38.978   8.380
  866POPC   C3B14121  42.007  38.845   7.987
  866POPC   C4B14122  41.745  38.517   7.844
  867POPC   NC314123   7.653  10.765   9.992
  867POPC   PO414124   7.610  10.283   9.504
  867POPC   GL114125   7.372  10.562   9.210
  867POPC   GL214126   7.645  10.703   8.985
  867POPC   C1A14127   7.056  10.537   8.864
  867POPC   D2A14128   7.056  10.719   8.450
  867POPC   C3A14129   7.335  10.610   8.134
  867POPC   C4A14130   7.201  10.455   7.762
  867POPC   C1B14131   7.543  10.319   8.782
  867POPC   C2B14132   7.587  10.237   8.362
  867POPC   C3B14133   7.699  10.294   7.918
  867POPC   C4B14134   7.586  10.323   7.486
  868POPC   NC314135  41.057  25.267   9.481
  868POPC   PO414136  41.676  25.363   9.614
  868POPC   GL114137  41.701  25.137   9.215
  868POPC   GL214138  41.394  25.267   9.110
  868POPC   C1A14139  41.815  25.217   8.773
  868POPC   D2A14140  42.016  25.486   8.472
  868POPC   C3A14141  41.811  25.436   8.069
  868POPC   C4A14142  41.559  25.314   7.722
  868POPC   C1B14143  41.326  25.058   8.742
  868POPC   C2B14144  41.486  25.096   8.320
  868POPC   C3B14145  41.274  24.956   7.947
  868POPC   C4B14146  40.965  25.102   7.669
  869POPC   NC314147  24.451  27.200   9.716
  869POPC   PO414148  24.556  27.877   9.505
  869POPC   GL114149  24.441  27.808   9.102
  869POPC   GL214150  24.540  27.474   9.017
  869POPC   C1A14151  24.514  27.866   8.673
  869POPC   D2A14152  24.457  28.065   8.272
  869POPC   C3A14153  24.233  27.767   8.010
  869POPC   C4A14154  24.348  27.673   7.562
  869POPC   C1B14155  24.335  27.237   8.658
  869POPC   C2B14156  24.202  27.287   8.259
  869POPC   C3B14157  24.504  27.337   7.959
  869POPC   C4B14158  24.638  27.113   7.643
  870POPC   NC314159  26.428  40.521   9.430
  870POPC   PO414160  27.108  40.469   9.369
  870POPC   GL114161  26.861  40.756   9.094
  870POPC   GL214162  26.550  40.653   8.966
  870POPC   C1A14163  26.916  40.809   8.662
  870POPC   D2A14164  26.637  40.527   8.447
  870POPC   C3A14165  26.673  40.586   8.039
  870POPC   C4A14166  27.022  40.821   7.879
  870POPC   C1B14167  26.472  41.058   8.738
  870POPC   C2B14168  26.760  41.304   8.500
  870POPC   C3B14169  26.753  41.204   8.068
  870POPC   C4B14170  26.445  40.958   7.791
  871POPC   NC314171  11.863  44.899   9.476
  871POPC   PO414172  12.281  44.484   9.660
  871POPC   GL114173  12.247  44.591   9.224
  871POPC   GL214174  11.910  44.459   9.150
  871POPC   C1A14175  12.126  44.827   8.841
  871POPC   D2A14176  12.009  44.990   8.431
  871POPC   C3A14177  12.228  44.769   8.091
  871POPC   C4A14178  12.206  44.682   7.641
  871POPC   C1B14179  11.839  44.403   8.700
  871POPC   C2B14180  11.754  44.582   8.275
  871POPC   C3B14181  11.775  44.877   7.868
  871POPC   C4B14182  11.740  44.708   7.418
  872POPC   NC314183  25.552  16.244   9.393
  872POPC   PO414184  25.004  15.822   9.531
  872POPC   GL114185  25.180  15.949   9.141
  872POPC   GL214186  25.178  16.293   9.038
  872POPC   C1A14187  25.174  15.802   8.732
  872POPC   D2A14188  25.485  15.726   8.435
  872POPC   C3A14189  25.321  15.869   8.055
  872POPC   C4A14190  25.111  15.603   7.762
  872POPC   C1B14191  25.520  16.183   8.740
  872POPC   C2B14192  25.592  16.296   8.306
  872POPC   C3B14193  25.691  16.208   7.865
  872POPC   C4B14194  25.544  15.855   7.598
  873POPC   NC314195  10.214  21.897   9.925
  873POPC   PO414196  10.450  22.371   9.491
  873POPC   GL114197  10.302  22.314   9.085
  873POPC   GL214198  10.409  21.994   8.941
  873POPC   C1A14199  10.308  22.386   8.649
  873POPC   D2A14200  10.394  22.060   8.408
  873POPC   C3A14201  10.587  22.121   8.035
  873POPC   C4A14202  10.386  22.480   7.853
  873POPC   C1B14203  10.062  21.844   8.758
  873POPC   C2B14204   9.884  21.941   8.355
  873POPC   C3B14205  10.142  21.840   8.015
  873POPC   C4B14206  10.172  21.581   7.677
  874POPC   NC314207  13.764  40.636   9.427
  874POPC   PO414208  13.346  41.137   9.353
  874POPC   GL114209  13.595  40.951   9.080
  874POPC   GL214210  13.378  40.674   9.053
  874POPC   C1A14211  13.901  40.876   8.736
  874POPC   D2A14212  13.969  40.709   8.301
  874POPC   C3A14213  13.783  40.931   7.942
  874POPC   C4A14214  13.684  40.719   7.582
  874POPC   C1B14215  13.393  40.778   8.659
  874POPC   C2B14216  13.458  40.769   8.273
  874POPC   C3B14217  13.301  40.654   7.904
  874POPC   C4B14218  13.019  40.841   7.666
  875POPC   NC314219  40.257  15.883   9.567
  875POPC   PO414220  39.583  15.928   9.461
  875POPC   GL114221  39.912  15.837   9.183
  875POPC   GL214222  40.060  16.154   9.190
  875POPC   C1A14223  40.165  15.827   8.800
  875POPC   D2A14224  40.198  15.616   8.417
  875POPC   C3A14225  40.117  15.786   8.075
  875POPC   C4A14226  39.863  15.814   7.750
  875POPC   C1B14227  39.800  16.205   8.831
  875POPC   C2B14228  39.826  16.041   8.409
  875POPC   C3B14229  39.895  16.246   8.037
  875POPC   C4B14230  40.290  16.193   7.821
  876POPC   NC314231  39.500   5.901   9.703
  876POPC   PO414232  39.007   5.550   9.716
  876POPC   GL114233  39.165   5.746   9.312
  876POPC   GL214234  39.189   6.128   9.338
  876POPC   C1A14235  39.302   5.690   8.872
  876POPC   D2A14236  39.189   5.551   8.451
  876POPC   C3A14237  39.385   5.685   8.046
  876POPC   C4A14238  39.568   5.524   7.657
  876POPC   C1B14239  39.108   6.263   8.933
  876POPC   C2B14240  39.148   6.082   8.547
  876POPC   C3B14241  39.166   6.215   8.154
  876POPC   C4B14242  39.092   6.034   7.783
  877POPC   NC314243  42.659  11.488   9.589
  877POPC   PO414244  42.455  10.887   9.905
  877POPC   GL114245  42.324  11.040   9.412
  877POPC   GL214246  42.438  11.308   9.176
  877POPC   C1A14247  42.074  11.056   8.934
  877POPC   D2A14248  42.106  11.182   8.473
  877POPC   C3A14249  41.870  11.111   8.092
  877POPC   C4A14250  41.944  11.172   7.653
  877POPC   C1B14251  42.542  11.209   8.743
  877POPC   C2B14252  42.595  11.074   8.296
  877POPC   C3B14253  42.436  11.255   7.898
  877POPC   C4B14254  42.555  11.207   7.450
  878POPC   NC314255   4.077  22.688   9.418
  878POPC   PO414256   3.523  23.091   9.571
  878POPC   GL114257   3.645  22.924   9.176
  878POPC   GL214258   3.628  22.549   9.166
  878POPC   C1A14259   3.649  23.103   8.763
  878POPC   D2A14260   3.873  23.101   8.375
  878POPC   C3A14261   3.604  23.125   7.996
  878POPC   C4A14262   3.680  23.298   7.605
  878POPC   C1B14263   3.408  22.664   8.777
  878POPC   C2B14264   3.427  22.828   8.366
  878POPC   C3B14265   3.444  22.628   7.967
  878POPC   C4B14266   3.387  22.494   7.540
  879POPC   NC314267  11.887  28.148   9.559
  879POPC   PO414268  12.441  28.514   9.640
  879POPC   GL114269  12.215  28.608   9.223
  879POPC   GL214270  11.865  28.445   9.151
  879POPC   C1A14271  12.178  28.537   8.767
  879POPC   D2A14272  12.139  28.696   8.343
  879POPC   C3A14273  12.224  28.478   7.921
  879POPC   C4A14274  12.340  28.453   7.448
  879POPC   C1B14275  11.677  28.243   8.776
  879POPC   C2B14276  11.826  28.240   8.334
  879POPC   C3B14277  11.762  28.241   7.872
  879POPC   C4B14278  11.888  28.236   7.418
  880POPC   NC314279  18.099  20.759   9.808
  880POPC   PO414280  18.403  20.285   9.470
  880POPC   GL114281  18.091  20.546   9.241
  880POPC   GL214282  18.304  20.527   9.011
  880POPC   C1A14283  17.969  20.802   8.809
  880POPC   D2A14284  17.994  20.999   8.370
  880POPC   C3A14285  18.035  20.737   7.968
  880POPC   C4A14286  18.087  20.798   7.461
  880POPC   C1B14287  18.491  20.819   8.764
  880POPC   C2B14288  18.761  20.719   8.459
  880POPC   C3B14289  18.766  20.613   8.063
  880POPC   C4B14290  18.496  20.677   7.747
  881POPC   NC314291  42.783  36.719   9.501
  881POPC   PO414292  43.416  36.828   9.542
  881POPC   GL114293  43.129  37.009   9.203
  881POPC   GL214294  42.782  37.195   9.254
  881POPC   C1A14295  43.245  36.987   8.756
  881POPC   D2A14296  43.382  37.160   8.348
  881POPC   C3A14297  43.258  36.889   7.979
  881POPC   C4A14298  43.281  36.522   7.677
  881POPC   C1B14299  42.732  36.958   8.855
  881POPC   C2B14300  42.880  36.714   8.484
  881POPC   C3B14301  42.748  36.677   8.050
  881POPC   C4B14302  42.687  37.048   7.811
  882POPC   NC314303  38.993   4.377   9.740
  882POPC   PO414304  39.336   4.736   9.265
  882POPC   GL114305  39.141   4.463   9.049
  882POPC   GL214306  38.988   4.185   9.246
  882POPC   C1A14307  39.222   4.543   8.622
  882POPC   D2A14308  39.409   4.724   8.247
  882POPC   C3A14309  39.216   4.614   7.871
  882POPC   C4A14310  39.305   4.220   7.737
  882POPC   C1B14311  38.862   4.138   8.804
  882POPC   C2B14312  39.039   4.143   8.393
  882POPC   C3B14313  38.885   4.215   8.006
  882POPC   C4B14314  38.851   3.962   7.645
  883POPC   NC314315  40.423  11.153   9.697
  883POPC   PO414316  39.776  11.320   9.479
  883POPC   GL114317  40.032  11.201   9.146
  883POPC   GL214318  40.382  11.290   9.183
  883POPC   C1A14319  39.938  11.366   8.740
  883POPC   D2A14320  39.661  11.299   8.406
  883POPC   C3A14321  39.806  11.280   8.035
  883POPC   C4A14322  39.925  11.553   7.752
  883POPC   C1B14323  40.367  11.085   8.769
  883POPC   C2B14324  40.160  11.041   8.341
  883POPC   C3B14325  40.217  11.040   7.864
  883POPC   C4B14326  39.924  10.887   7.559
  884POPC   NC314327  14.290  17.682   9.623
  884POPC   PO414328  14.505  17.066   9.522
  884POPC   GL114329  14.249  17.338   9.216
  884POPC   GL214330  14.069  17.700   9.168
  884POPC   C1A14331  14.398  17.519   8.822
  884POPC   D2A14332  14.423  17.345   8.425
  884POPC   C3A14333  14.455  17.586   8.051
  884POPC   C4A14334  14.592  17.372   7.695
  884POPC   C1B14335  13.950  17.799   8.772
  884POPC   C2B14336  14.054  17.916   8.319
  884POPC   C3B14337  13.997  17.778   7.880
  884POPC   C4B14338  14.234  17.718   7.552
  885POPC   NC314339  12.561   1.801   9.498
  885POPC   PO414340  12.157   2.339   9.626
  885POPC   GL114341  12.274   2.165   9.224
  885POPC   GL214342  12.148   1.810   9.179
  885POPC   C1A14343  12.075   2.154   8.797
  885POPC   D2A14344  11.863   1.993   8.457
  885POPC   C3A14345  11.997   2.165   8.071
  885POPC   C4A14346  11.796   2.249   7.689
  885POPC   C1B14347  11.870   1.641   8.846
  885POPC   C2B14348  11.833   1.459   8.456
  885POPC   C3B14349  11.999   1.629   8.126
  885POPC   C4B14350  11.961   1.771   7.731
  886POPC   NC314351  36.011   9.437   9.575
  886POPC   PO414352  36.053   8.743   9.630
  886POPC   GL114353  36.163   9.016   9.259
  886POPC   GL214354  35.841   9.167   9.131
  886POPC   C1A14355  36.176   8.945   8.784
  886POPC   D2A14356  35.815   8.949   8.463
  886POPC   C3A14357  35.861   8.805   8.035
  886POPC   C4A14358  36.192   8.821   7.704
  886POPC   C1B14359  35.958   9.402   8.741
  886POPC   C2B14360  35.855   9.450   8.306
  886POPC   C3B14361  36.101   9.287   7.973
  886POPC   C4B14362  36.234   9.285   7.548
  887POPC   NC314363  33.869  15.903   9.600
  887POPC   PO414364  34.163  15.331   9.474
  887POPC   GL114365  34.005  15.657   9.155
  887POPC   GL214366  33.977  16.051   9.127
  887POPC   C1A14367  34.006  15.764   8.722
  887POPC   D2A14368  33.810  15.849   8.356
  887POPC   C3A14369  33.952  15.911   7.950
  887POPC   C4A14370  33.640  15.954   7.630
  887POPC   C1B14371  33.865  16.248   8.691
  887POPC   C2B14372  33.872  16.348   8.225
  887POPC   C3B14373  33.852  16.404   7.774
  887POPC   C4B14374  34.099  16.615   7.428
  888POPC   NC314375  36.316  43.127   9.445
  888POPC   PO414376  35.859  42.705   9.581
  888POPC   GL114377  35.878  42.994   9.164
  888POPC   GL214378  35.713  43.328   9.048
  888POPC   C1A14379  36.091  42.931   8.773
  888POPC   D2A14380  36.282  42.930   8.347
  888POPC   C3A14381  36.315  43.308   8.092
  888POPC   C4A14382  36.317  43.148   7.673
  888POPC   C1B14383  35.548  43.176   8.676
  888POPC   C2B14384  35.750  42.996   8.372
  888POPC   C3B14385  35.899  43.054   7.998
  888POPC   C4B14386  35.850  43.398   7.761
  889POPC   NC314387  31.741   3.160   9.612
  889POPC   PO414388  32.360   2.800   9.516
  889POPC   GL114389  32.223   2.730   9.131
  889POPC   GL214390  31.934   2.899   9.203
  889POPC   C1A14391  32.284   2.920   8.757
  889POPC   D2A14392  32.293   2.738   8.375
  889POPC   C3A14393  32.512   2.892   8.031
  889POPC   C4A14394  32.309   2.747   7.681
  889POPC   C1B14395  31.792   2.715   8.822
  889POPC   C2B14396  31.812   2.933   8.434
  889POPC   C3B14397  31.995   2.996   8.018
  889POPC   C4B14398  31.834   3.228   7.669
  890POPC   NC314399  12.745  17.797   9.572
  890POPC   PO414400  12.913  17.109   9.612
  890POPC   GL114401  12.816  17.402   9.248
  890POPC   GL214402  13.066  17.699   9.181
  890POPC   C1A14403  12.542  17.572   8.896
  890POPC   D2A14404  12.597  17.740   8.449
  890POPC   C3A14405  12.718  17.444   8.119
  890POPC   C4A14406  12.573  17.314   7.719
  890POPC   C1B14407  13.011  17.712   8.754
  890POPC   C2B14408  13.152  17.591   8.351
  890POPC   C3B14409  13.083  17.715   7.890
  890POPC   C4B14410  13.169  17.653   7.434
  891POPC   NC314411  27.908   6.452   9.354
  891POPC   PO414412  27.352   6.618   9.621
  891POPC   GL114413  27.305   6.550   9.204
  891POPC   GL214414  27.567   6.798   9.163
  891POPC   C1A14415  27.236   6.724   8.790
  891POPC   D2A14416  27.424   6.911   8.434
  891POPC   C3A14417  27.293   6.687   8.081
  891POPC   C4A14418  27.548   6.514   7.769
  891POPC   C1B14419  27.781   6.986   8.804
  891POPC   C2B14420  27.951   6.854   8.404
  891POPC   C3B14421  28.000   6.658   8.012
  891POPC   C4B14422  28.209   6.913   7.707
  892POPC   NC314423  43.440   1.482   9.346
  892POPC   PO414424  43.297   0.879   9.541
  892POPC   GL114425  43.086   0.877   9.130
  892POPC   GL214426  43.080   1.228   9.064
  892POPC   C1A14427  42.883   0.898   8.735
  892POPC   D2A14428  43.176   1.067   8.446
  892POPC   C3A14429  43.180   0.916   8.024
  892POPC   C4A14430  43.452   1.141   7.692
  892POPC   C1B14431  43.207   1.527   8.755
  892POPC   C2B14432  43.087   1.667   8.396
  892POPC   C3B14433  43.152   1.423   8.059
  892POPC   C4B14434  43.042   1.601   7.706
  893POPC   NC314435  36.859  11.394   9.919
  893POPC   PO414436  37.001  11.154   9.338
  893POPC   GL114437  36.840  11.455   9.075
  893POPC   GL214438  37.188  11.576   9.019
  893POPC   C1A14439  36.824  11.530   8.644
  893POPC   D2A14440  36.864  11.150   8.392
  893POPC   C3A14441  36.647  11.099   8.048
  893POPC   C4A14442  36.741  11.289   7.722
  893POPC   C1B14443  37.219  11.212   8.754
  893POPC   C2B14444  37.411  11.072   8.394
  893POPC   C3B14445  37.201  11.134   7.969
  893POPC   C4B14446  37.140  11.066   7.516
  894POPC   NC314447  34.596  21.215   9.466
  894POPC   PO414448  35.215  21.146   9.381
  894POPC   GL114449  34.883  21.229   9.043
  894POPC   GL214450  34.655  21.541   9.074
  894POPC   C1A14451  34.569  21.226   8.689
  894POPC   D2A14452  34.604  21.179   8.237
  894POPC   C3A14453  34.496  21.401   7.867
  894POPC   C4A14454  34.200  21.227   7.578
  894POPC   C1B14455  34.471  21.728   8.706
  894POPC   C2B14456  34.637  21.857   8.298
  894POPC   C3B14457  34.936  21.714   7.969
  894POPC   C4B14458  34.896  21.657   7.497
  895POPC   NC314459  14.171  33.610   9.497
  895POPC   PO414460  14.803  33.569   9.348
  895POPC   GL114461  14.514  33.760   9.082
  895POPC   GL214462  14.154  33.918   9.099
  895POPC   C1A14463  14.655  33.610   8.681
  895POPC   D2A14464  14.617  33.771   8.279
  895POPC   C3A14465  14.700  33.562   7.892
  895POPC   C4A14466  14.446  33.575   7.530
  895POPC   C1B14467  14.206  33.852   8.670
  895POPC   C2B14468  14.116  33.707   8.296
  895POPC   C3B14469  14.242  33.863   7.898
  895POPC   C4B14470  13.955  34.064   7.598
  896POPC   NC314471   7.634   1.563   9.234
  896POPC   PO414472   7.382   1.043   9.531
  896POPC   GL114473   7.328   1.126   9.124
  896POPC   GL214474   7.045   1.347   9.254
  896POPC   C1A14475   7.639   1.059   8.754
  896POPC   D2A14476   7.856   1.125   8.327
  896POPC   C3A14477   7.610   1.174   7.933
  896POPC   C4A14478   7.253   0.925   7.889
  896POPC   C1B14479   6.987   1.338   8.819
  896POPC   C2B14480   7.193   1.163   8.475
  896POPC   C3B14481   7.127   1.378   8.115
  896POPC   C4B14482   7.033   1.356   7.714
  897POPC   NC314483  31.058   3.122   9.478
  897POPC   PO414484  31.601   2.669   9.535
  897POPC   GL114485  31.421   2.853   9.171
  897POPC   GL214486  31.303   2.562   9.041
  897POPC   C1A14487  31.318   2.903   8.685
  897POPC   D2A14488  31.387   2.550   8.397
  897POPC   C3A14489  31.571   2.722   8.028
  897POPC   C4A14490  31.397   2.971   7.667
  897POPC   C1B14491  30.951   2.438   8.746
  897POPC   C2B14492  30.927   2.131   8.414
  897POPC   C3B14493  31.002   2.209   7.996
  897POPC   C4B14494  31.172   2.532   7.815
  898POPC   NC314495  17.897  14.037   9.560
  898POPC   PO414496  17.844  13.367   9.674
  898POPC   GL114497  17.977  13.488   9.216
  898POPC   GL214498  17.871  13.804   9.095
  898POPC   C1A14499  18.292  13.432   8.830
  898POPC   D2A14500  18.544  13.339   8.427
  898POPC   C3A14501  18.376  13.473   8.000
  898POPC   C4A14502  18.613  13.866   7.865
  898POPC   C1B14503  18.192  13.958   8.782
  898POPC   C2B14504  18.359  13.860   8.357
  898POPC   C3B14505  18.113  13.927   7.984
  898POPC   C4B14506  17.858  13.621   7.769
  899POPC   NC314507   7.388  42.530   9.507
  899POPC   PO414508   7.771  41.964   9.545
  899POPC   GL114509   7.651  42.191   9.151
  899POPC   GL214510   7.356  42.403   9.027
  899POPC   C1A14511   7.642  42.128   8.714
  899POPC   D2A14512   7.815  42.079   8.315
  899POPC   C3A14513   7.543  42.355   8.115
  899POPC   C4A14514   7.298  42.534   7.811
  899POPC   C1B14515   7.591  42.671   8.704
  899POPC   C2B14516   7.472  42.849   8.297
  899POPC   C3B14517   7.726  42.831   7.920
  899POPC   C4B14518   7.639  42.732   7.490
  900POPC   NC314519  34.275  10.343   9.637
  900POPC   PO414520  34.764   9.920   9.420
  900POPC   GL114521  34.808   9.556   9.137
  900POPC   GL214522  34.721   9.814   8.912
  900POPC   C1A14523  34.799   9.377   8.711
  900POPC   D2A14524  34.659   9.635   8.389
  900POPC   C3A14525  34.887   9.607   8.042
  900POPC   C4A14526  34.738   9.442   7.683
  900POPC   C1B14527  34.313   9.628   8.753
  900POPC   C2B14528  34.131   9.723   8.346
  900POPC   C3B14529  34.356   9.642   7.969
  900POPC   C4B14530  34.413   9.882   7.612
  901POPC   NC314531  35.608  44.590   9.522
  901POPC   PO414532  34.981  44.937   9.763
  901POPC   GL114533  35.224  44.883   9.312
  901POPC   GL214534  34.910  44.863   9.180
  901POPC   C1A14535  35.551  44.813   8.913
  901POPC   D2A14536  35.773  44.762   8.482
  901POPC   C3A14537  35.561  44.550   8.135
  901POPC   C4A14538  35.360  44.792   7.827
  901POPC   C1B14539  35.081  44.865   8.733
  901POPC   C2B14540  35.098  44.653   8.320
  901POPC   C3B14541  34.991  44.459   7.921
  901POPC   C4B14542  34.871  44.725   7.570
  902POPC   NC314543  30.135  11.247   9.664
  902POPC   PO414544  30.824  11.245   9.636
  902POPC   GL114545  30.688  11.260   9.177
  902POPC   GL214546  30.364  11.435   9.124
  902POPC   C1A14547  30.717  11.150   8.735
  902POPC   D2A14548  30.810  11.394   8.345
  902POPC   C3A14549  30.729  11.152   7.973
  902POPC   C4A14550  30.831  11.218   7.528
  902POPC   C1B14551  30.459  11.599   8.721
  902POPC   C2B14552  30.306  11.505   8.307
  902POPC   C3B14553  30.463  11.588   7.918
  902POPC   C4B14554  30.256  11.566   7.548
  903POPC   NC314555  43.144  37.651   9.480
  903POPC   PO414556  42.549  37.661   9.463
  903POPC   GL114557  42.767  37.712   9.105
  903POPC   GL214558  43.077  37.896   9.035
  903POPC   C1A14559  43.007  37.442   8.841
  903POPC   D2A14560  43.126  37.624   8.461
  903POPC   C3A14561  42.971  37.376   8.137
  903POPC   C4A14562  43.124  37.312   7.731
  903POPC   C1B14563  42.840  38.014   8.687
  903POPC   C2B14564  42.805  38.048   8.229
  903POPC   C3B14565  43.013  37.832   7.880
  903POPC   C4B14566  42.960  37.689   7.442
  904POPC   NC314567  26.808  23.937   9.406
  904POPC   PO414568  27.042  23.253   9.506
  904POPC   GL114569  26.804  23.427   9.091
  904POPC   GL214570  26.632  23.764   8.969
  904POPC   C1A14571  26.792  23.444   8.624
  904POPC   D2A14572  26.797  23.805   8.311
  904POPC   C3A14573  26.975  23.689   7.938
  904POPC   C4A14574  26.671  23.436   7.755
  904POPC   C1B14575  27.035  23.891   8.741
  904POPC   C2B14576  27.084  24.225   8.446
  904POPC   C3B14577  27.012  24.240   7.995
  904POPC   C4B14578  26.702  24.051   7.699
  905POPC   NC314579   5.798  13.996   9.490
  905POPC   PO414580   5.593  14.614   9.445
  905POPC   GL114581   5.863  14.669   9.120
  905POPC   GL214582   6.014  14.338   9.122
  905POPC   C1A14583   6.030  14.644   8.706
  905POPC   D2A14584   5.938  14.345   8.361
  905POPC   C3A14585   5.876  14.559   7.972
  905POPC   C4A14586   6.078  14.438   7.570
  905POPC   C1B14587   5.645  14.253   8.828
  905POPC   C2B14588   5.492  14.076   8.430
  905POPC   C3B14589   5.418  14.176   8.008
  905POPC   C4B14590   5.583  14.330   7.631
  906POPC   NC314591  39.519  29.249   9.461
  906POPC   PO414592  38.889  28.963   9.593
  906POPC   GL114593  39.062  29.081   9.181
  906POPC   GL214594  39.412  29.013   9.015
  906POPC   C1A14595  38.989  29.273   8.778
  906POPC   D2A14596  39.236  29.274   8.402
  906POPC   C3A14597  38.995  29.248   8.027
  906POPC   C4A14598  39.002  29.359   7.605
  906POPC   C1B14599  39.605  29.372   8.765
  906POPC   C2B14600  39.751  29.391   8.331
  906POPC   C3B14601  39.519  29.302   7.952
  906POPC   C4B14602  39.477  28.844   7.828
  907POPC   NC314603  43.450   7.209   9.475
  907POPC   PO414604  42.935   7.675   9.400
  907POPC   GL114605  42.926   7.480   9.053
  907POPC   GL214606  43.258   7.401   9.036
  907POPC   C1A14607  42.942   7.521   8.641
  907POPC   D2A14608  42.897   7.294   8.284
  907POPC   C3A14609  42.878   7.495   7.904
  907POPC   C4A14610  43.201   7.287   7.739
  907POPC   C1B14611  43.456   7.505   8.648
  907POPC   C2B14612  43.283   7.789   8.343
  907POPC   C3B14613  43.321   7.804   7.909
  907POPC   C4B14614  43.568   7.600   7.593
  908POPC   NC314615   8.437  27.887   9.514
  908POPC   PO414616   8.114  28.420   9.648
  908POPC   GL114617   8.194  28.270   9.221
  908POPC   GL214618   7.884  28.360   9.162
  908POPC   C1A14619   8.180  28.487   8.769
  908POPC   D2A14620   8.158  28.644   8.337
  908POPC   C3A14621   8.379  28.557   7.957
  908POPC   C4A14622   8.335  28.436   7.494
  908POPC   C1B14623   7.828  28.130   8.808
  908POPC   C2B14624   7.731  28.343   8.443
  908POPC   C3B14625   7.718  28.604   8.100
  908POPC   C4B14626   7.872  28.505   7.705
  909POPC   NC314627  40.099  31.512   9.594
  909POPC   PO414628  39.480  31.332   9.502
  909POPC   GL114629  39.827  31.303   9.178
  909POPC   GL214630  40.209  31.313   9.138
  909POPC   C1A14631  39.920  31.498   8.780
  909POPC   D2A14632  39.807  31.354   8.398
  909POPC   C3A14633  39.768  31.652   8.080
  909POPC   C4A14634  39.829  31.532   7.686
  909POPC   C1B14635  40.352  31.153   8.797
  909POPC   C2B14636  40.243  31.074   8.389
  909POPC   C3B14637  40.122  31.228   7.992
  909POPC   C4B14638  40.348  31.407   7.659
  910POPC   NC314639  36.703  30.275   9.510
  910POPC   PO414640  36.978  30.793   9.518
  910POPC   GL114641  37.003  30.782   9.089
  910POPC   GL214642  37.028  30.436   9.110
  910POPC   C1A14643  36.757  30.905   8.705
  910POPC   D2A14644  36.561  30.773   8.310
  910POPC   C3A14645  36.816  30.802   7.944
  910POPC   C4A14646  36.916  30.906   7.528
  910POPC   C1B14647  36.669  30.414   8.831
  910POPC   C2B14648  36.672  30.271   8.401
  910POPC   C3B14649  36.623  30.328   7.959
  910POPC   C4B14650  36.938  30.374   7.677
  911POPC   NC314651  24.362   5.988   9.766
  911POPC   PO414652  24.678   5.409   9.551
  911POPC   GL114653  24.450   5.670   9.269
  911POPC   GL214654  24.774   5.655   9.077
  911POPC   C1A14655  24.371   6.011   8.950
  911POPC   D2A14656  24.638   6.064   8.560
  911POPC   C3A14657  24.481   6.104   8.128
  911POPC   C4A14658  24.481   5.970   7.704
  911POPC   C1B14659  24.511   5.578   8.734
  911POPC   C2B14660  24.299   5.665   8.345
  911POPC   C3B14661  24.373   5.531   7.914
  911POPC   C4B14662  24.195   5.535   7.478
  912POPC   NC314663   1.618   6.677   9.737
  912POPC   PO414664   2.309   6.769   9.560
  912POPC   GL114665   2.094   6.847   9.187
  912POPC   GL214666   1.973   6.552   9.164
  912POPC   C1A14667   2.256   6.776   8.785
  912POPC   D2A14668   2.354   6.472   8.510
  912POPC   C3A14669   2.166   6.529   8.129
  912POPC   C4A14670   2.240   6.818   7.825
  912POPC   C1B14671   1.811   6.483   8.782
  912POPC   C2B14672   1.526   6.402   8.475
  912POPC   C3B14673   1.607   6.243   8.058
  912POPC   C4B14674   1.895   6.337   7.737
  913POPC   NC314675  33.031  33.802   9.735
  913POPC   PO414676  33.478  34.223   9.404
  913POPC   GL114677  33.292  33.999   9.074
  913POPC   GL214678  32.994  33.892   9.211
  913POPC   C1A14679  33.232  33.945   8.629
  913POPC   D2A14680  33.160  33.936   8.192
  913POPC   C3A14681  33.203  33.570   7.972
  913POPC   C4A14682  33.361  33.562   7.543
  913POPC   C1B14683  32.818  33.731   8.840
  913POPC   C2B14684  32.701  33.651   8.403
  913POPC   C3B14685  32.724  33.813   7.969
  913POPC   C4B14686  32.844  33.595   7.605
  914POPC   NC314687  14.240  39.807   9.717
  914POPC   PO414688  14.466  39.261   9.452
  914POPC   GL114689  14.234  39.292   9.115
  914POPC   GL214690  14.174  39.633   9.166
  914POPC   C1A14691  14.324  39.084   8.728
  914POPC   D2A14692  14.510  39.207   8.369
  914POPC   C3A14693  14.364  39.187   7.968
  914POPC   C4A14694  14.608  39.423   7.709
  914POPC   C1B14695  14.382  39.617   8.756
  914POPC   C2B14696  14.257  39.683   8.348
  914POPC   C3B14697  14.164  39.641   7.927
  914POPC   C4B14698  14.216  39.617   7.481
  915POPC   NC314699  20.900  35.936   9.632
  915POPC   PO414700  20.467  36.507   9.502
  915POPC   GL114701  20.494  36.289   9.153
  915POPC   GL214702  20.813  36.199   9.198
  915POPC   C1A14703  20.604  36.375   8.735
  915POPC   D2A14704  20.794  36.200   8.379
  915POPC   C3A14705  20.670  36.377   8.007
  915POPC   C4A14706  20.640  36.156   7.649
  915POPC   C1B14707  21.029  36.112   8.836
  915POPC   C2B14708  21.054  35.782   8.566
  915POPC   C3B14709  21.055  35.809   8.132
  915POPC   C4B14710  20.924  35.740   7.703
  916POPC   NC314711  22.107  14.838   9.423
  916POPC   PO414712  22.355  15.408   9.684
  916POPC   GL114713  22.182  15.315   9.187
  916POPC   GL214714  21.884  15.132   8.966
  916POPC   C1A14715  22.213  15.411   8.723
  916POPC   D2A14716  22.322  15.204   8.320
  916POPC   C3A14717  22.014  15.342   8.019
  916POPC   C4A14718  22.025  15.656   7.749
  916POPC   C1B14719  22.128  14.884   8.723
  916POPC   C2B14720  22.269  14.662   8.379
  916POPC   C3B14721  22.056  14.828   8.057
  916POPC   C4B14722  22.067  14.994   7.657
  917POPC   NC314723   3.859  21.286   9.499
  917POPC   PO414724   3.300  21.584   9.419
  917POPC   GL114725   3.384  21.276   9.135
  917POPC   GL214726   3.737  21.280   8.990
  917POPC   C1A14727   3.297  21.286   8.710
  917POPC   D2A14728   3.667  21.320   8.467
  917POPC   C3A14729   3.447  21.196   8.141
  917POPC   C4A14730   3.365  21.404   7.781
  917POPC   C1B14731   4.006  21.607   8.769
  917POPC   C2B14732   3.890  21.845   8.418
  917POPC   C3B14733   3.757  21.622   8.055
  917POPC   C4B14734   3.860  21.226   7.832
  918POPC   NC314735  20.031  36.394   9.444
  918POPC   PO414736  19.787  35.778   9.584
  918POPC   GL114737  19.578  36.060   9.224
  918POPC   GL214738  19.822  36.268   9.012
  918POPC   C1A14739  19.493  36.015   8.744
  918POPC   D2A14740  19.741  36.282   8.432
  918POPC   C3A14741  19.671  36.133   8.003
  918POPC   C4A14742  19.320  35.874   7.882
  918POPC   C1B14743  20.117  36.052   8.725
  918POPC   C2B14744  20.244  36.171   8.306
  918POPC   C3B14745  20.161  36.164   7.849
  918POPC   C4B14746  20.194  36.102   7.398
  919POPC   NC314747  36.342  43.911   9.563
  919POPC   PO414748  35.894  43.421   9.498
  919POPC   GL114749  35.987  43.761   9.201
  919POPC   GL214750  36.272  43.594   9.064
  919POPC   C1A14751  35.918  43.858   8.763
  919POPC   D2A14752  36.163  43.752   8.390
  919POPC   C3A14753  36.002  43.843   7.973
  919POPC   C4A14754  36.243  43.695   7.614
  919POPC   C1B14755  36.411  44.006   8.843
  919POPC   C2B14756  36.590  44.111   8.429
  919POPC   C3B14757  36.475  43.995   7.997
  919POPC   C4B14758  36.241  44.207   7.677
  920POPC   NC314759  18.834   6.505   9.432
  920POPC   PO414760  19.568   6.654   9.546
  920POPC   GL114761  19.304   6.523   9.222
  920POPC   GL214762  19.136   6.869   9.229
  920POPC   C1A14763  19.165   6.435   8.787
  920POPC   D2A14764  18.837   6.496   8.421
  920POPC   C3A14765  18.906   6.331   7.965
  920POPC   C4A14766  19.036   6.162   7.547
  920POPC   C1B14767  19.012   6.940   8.809
  920POPC   C2B14768  19.270   6.810   8.452
  920POPC   C3B14769  19.226   6.689   8.081
  920POPC   C4B14770  19.160   6.657   7.630
  921POPC   NC314771  21.349  14.768   9.850
  921POPC   PO414772  21.744  15.157   9.428
  921POPC   GL114773  21.343  15.341   9.217
  921POPC   GL214774  21.362  15.145   8.960
  921POPC   C1A14775  21.037  15.499   8.864
  921POPC   D2A14776  21.216  15.509   8.437
  921POPC   C3A14777  21.169  15.206   8.130
  921POPC   C4A14778  21.225  15.269   7.691
  921POPC   C1B14779  21.396  15.042   8.575
  921POPC   C2B14780  21.676  15.125   8.306
  921POPC   C3B14781  21.605  14.990   7.904
  921POPC   C4B14782  21.249  14.772   7.780
  922POPC   NC314783  23.308   1.195   9.601
  922POPC   PO414784  22.588   1.089   9.636
  922POPC   GL114785  22.832   1.156   9.225
  922POPC   GL214786  23.089   1.425   9.188
  922POPC   C1A14787  22.869   1.272   8.760
  922POPC   D2A14788  23.025   1.071   8.365
  922POPC   C3A14789  22.664   0.988   8.096
  922POPC   C4A14790  22.899   1.173   7.781
  922POPC   C1B14791  23.286   1.657   8.827
  922POPC   C2B14792  23.410   1.707   8.429
  922POPC   C3B14793  23.175   1.512   8.133
  922POPC   C4B14794  23.371   1.396   7.790
  923POPC   NC314795  22.763  44.019   9.474
  923POPC   PO414796  22.953  43.472   9.198
  923POPC   GL114797  22.956  43.901   9.012
  923POPC   GL214798  23.028  44.276   9.108
  923POPC   C1A14799  22.912  44.067   8.607
  923POPC   D2A14800  22.794  43.942   8.201
  923POPC   C3A14801  22.960  43.709   7.833
  923POPC   C4A14802  22.761  43.933   7.499
  923POPC   C1B14803  23.351  44.255   8.759
  923POPC   C2B14804  23.331  44.052   8.309
  923POPC   C3B14805  23.188  44.158   7.868
  923POPC   C4B14806  23.218  44.150   7.373
  924POPC   NC314807  31.963  11.023   9.660
  924POPC   PO414808  32.218  10.376   9.511
  924POPC   GL114809  32.127  10.500   9.119
  924POPC   GL214810  31.954  10.198   9.078
  924POPC   C1A14811  32.422  10.589   8.752
  924POPC   D2A14812  32.648  10.661   8.350
  924POPC   C3A14813  32.368  10.746   8.012
  924POPC   C4A14814  32.066  10.501   7.784
  924POPC   C1B14815  32.375  10.084   8.949
  924POPC   C2B14816  32.395  10.110   8.552
  924POPC   C3B14817  32.342  10.230   8.160
  924POPC   C4B14818  32.402  10.099   7.768
  925POPC   NC314819  42.897  26.795   9.531
  925POPC   PO414820  43.379  27.186   9.380
  925POPC   GL114821  43.109  26.922   9.104
  925POPC   GL214822  42.761  26.998   9.079
  925POPC   C1A14823  43.114  26.716   8.744
  925POPC   D2A14824  43.456  26.740   8.450
  925POPC   C3A14825  43.304  26.705   8.032
  925POPC   C4A14826  43.187  26.644   7.583
  925POPC   C1B14827  42.825  27.144   8.673
  925POPC   C2B14828  43.068  27.062   8.309
  925POPC   C3B14829  43.001  27.076   7.860
  925POPC   C4B14830  42.918  27.029   7.398
  926POPC   NC314831  11.012  39.824   9.525
  926POPC   PO414832  11.432  40.313   9.638
  926POPC   GL114833  11.301  40.124   9.177
  926POPC   GL214834  11.096  39.822   9.027
  926POPC   C1A14835  11.535  40.020   8.766
  926POPC   D2A14836  11.594  40.259   8.343
  926POPC   C3A14837  11.318  40.219   7.977
  926POPC   C4A14838  11.451  40.099   7.506
  926POPC   C1B14839  11.047  39.995   8.599
  926POPC   C2B14840  11.303  39.804   8.267
  926POPC   C3B14841  11.262  39.742   7.816
  926POPC   C4B14842  11.166  39.698   7.363
  927POPC   NC314843  10.909  28.178   9.357
  927POPC   PO414844  10.215  28.320   9.436
  927POPC   GL114845  10.374  28.586   9.102
  927POPC   GL214846  10.736  28.563   9.054
  927POPC   C1A14847  10.366  28.555   8.681
  927POPC   D2A14848  10.341  28.238   8.405
  927POPC   C3A14849  10.131  28.459   8.114
  927POPC   C4A14850  10.403  28.472   7.779
  927POPC   C1B14851  10.664  28.149   8.795
  927POPC   C2B14852  10.810  27.934   8.445
  927POPC   C3B14853  10.724  28.144   8.075
  927POPC   C4B14854  10.888  28.284   7.711
  928POPC   NC314855  16.432  20.825   9.596
  928POPC   PO414856  16.917  20.416   9.480
  928POPC   GL114857  16.580  20.526   9.192
  928POPC   GL214858  16.757  20.776   9.138
  928POPC   C1A14859  16.474  20.646   8.743
  928POPC   D2A14860  16.643  20.429   8.350
  928POPC   C3A14861  16.524  20.517   7.906
  928POPC   C4A14862  16.786  20.660   7.505
  928POPC   C1B14863  16.974  20.602   8.790
  928POPC   C2B14864  16.997  20.788   8.400
  928POPC   C3B14865  17.005  20.681   7.989
  928POPC   C4B14866  17.237  20.883   7.677
  929POPC   NC314867   0.806  27.457   9.567
  929POPC   PO414868   1.492  27.691   9.510
  929POPC   GL114869   1.238  27.711   9.165
  929POPC   GL214870   1.094  27.380   9.152
  929POPC   C1A14871   1.203  27.692   8.726
  929POPC   D2A14872   1.242  27.533   8.313
  929POPC   C3A14873   1.209  27.736   7.925
  929POPC   C4A14874   1.262  27.567   7.534
  929POPC   C1B14875   0.843  27.339   8.785
  929POPC   C2B14876   0.736  27.472   8.373
  929POPC   C3B14877   0.890  27.310   7.972
  929POPC   C4B14878   1.035  27.092   7.626
  930POPC   NC314879  42.778  19.426   9.534
  930POPC   PO414880  43.371  19.880   9.533
  930POPC   GL114881  43.187  19.870   9.146
  930POPC   GL214882  43.170  19.520   9.155
  930POPC   C1A14883  43.257  19.798   8.707
  930POPC   D2A14884  43.125  19.657   8.317
  930POPC   C3A14885  43.469  19.779   8.093
  930POPC   C4A14886  43.393  20.081   7.770
  930POPC   C1B14887  43.055  19.334   8.750
  930POPC   C2B14888  42.981  19.164   8.362
  930POPC   C3B14889  42.960  19.282   7.938
  930POPC   C4B14890  43.117  19.646   7.772
  931POPC   NC314891  33.506  11.379   9.262
  931POPC   PO414892  33.834  11.017   9.684
  931POPC   GL114893  33.758  10.967   9.167
  931POPC   GL214894  33.940  11.235   9.005
  931POPC   C1A14895  33.725  10.948   8.677
  931POPC   D2A14896  33.568  10.821   8.284
  931POPC   C3A14897  33.720  11.021   7.911
  931POPC   C4A14898  33.682  11.446   7.796
  931POPC   C1B14899  34.176  11.266   8.622
  931POPC   C2B14900  34.003  11.347   8.206
  931POPC   C3B14901  34.156  11.596   7.847
  931POPC   C4B14902  34.015  11.661   7.411
  932POPC   NC314903  37.681  14.043   9.446
  932POPC   PO414904  37.644  14.734   9.459
  932POPC   GL114905  37.737  14.606   9.056
  932POPC   GL214906  37.912  14.314   9.098
  932POPC   C1A14907  37.541  14.322   8.772
  932POPC   D2A14908  37.645  14.150   8.390
  932POPC   C3A14909  37.828  14.417   8.104
  932POPC   C4A14910  37.555  14.281   7.806
  932POPC   C1B14911  38.048  14.332   8.682
  932POPC   C2B14912  38.147  14.089   8.324
  932POPC   C3B14913  37.974  13.956   7.921
  932POPC   C4B14914  37.981  14.223   7.539
  933POPC   NC314915   7.627  22.256   9.582
  933POPC   PO414916   7.023  22.055   9.451
  933POPC   GL114917   7.389  22.083   9.143
  933POPC   GL214918   7.766  22.241   9.113
  933POPC   C1A14919   7.372  22.264   8.739
  933POPC   D2A14920   7.210  22.304   8.326
  933POPC   C3A14921   7.400  22.175   7.957
  933POPC   C4A14922   7.433  22.541   7.689
  933POPC   C1B14923   7.801  21.965   8.792
  933POPC   C2B14924   7.713  22.109   8.386
  933POPC   C3B14925   7.907  22.016   8.018
  933POPC   C4B14926   7.784  22.163   7.620
  934POPC   NC314927  41.027   7.297   9.519
  934POPC   PO414928  40.451   7.525   9.299
  934POPC   GL114929  40.788   7.478   9.079
  934POPC   GL214930  40.561   7.586   8.816
  934POPC   C1A14931  41.097   7.534   8.769
  934POPC   D2A14932  41.113   7.330   8.385
  934POPC   C3A14933  41.013   7.496   8.000
  934POPC   C4A14934  40.945   7.807   7.734
  934POPC   C1B14935  40.664   7.230   8.648
  934POPC   C2B14936  40.606   7.439   8.300
  934POPC   C3B14937  40.523   7.411   7.886
  934POPC   C4B14938  40.629   7.065   7.612
  935POPC   NC314939   9.936   4.007   9.517
  935POPC   PO414940   9.632   4.555   9.323
  935POPC   GL114941   9.849   4.254   9.079
  935POPC   GL214942   9.629   3.983   9.080
  935POPC   C1A14943   9.972   4.298   8.655
  935POPC   D2A14944  10.026   4.411   8.247
  935POPC   C3A14945   9.610   4.352   8.083
  935POPC   C4A14946   9.489   4.538   7.706
  935POPC   C1B14947   9.813   3.832   8.743
  935POPC   C2B14948   9.888   3.894   8.322
  935POPC   C3B14949   9.954   4.026   7.915
  935POPC   C4B14950   9.578   3.975   7.727
  936POPC   NC314951  17.948  16.567   9.444
  936POPC   PO414952  18.591  16.799   9.489
  936POPC   GL114953  18.286  16.846   9.121
  936POPC   GL214954  18.138  16.544   8.968
  936POPC   C1A14955  18.465  16.871   8.705
  936POPC   D2A14956  18.643  16.782   8.286
  936POPC   C3A14957  18.398  16.840   7.930
  936POPC   C4A14958  18.399  16.955   7.497
  936POPC   C1B14959  17.947  16.860   8.672
  936POPC   C2B14960  17.892  16.994   8.241
  936POPC   C3B14961  17.938  16.986   7.779
  936POPC   C4B14962  17.933  16.737   7.392
  937POPC   NC314963  12.293   3.539   9.491
  937POPC   PO414964  12.211   3.990   9.063
  937POPC   GL114965  12.169   3.562   8.963
  937POPC   GL214966  11.920   3.363   9.139
  937POPC   C1A14967  12.115   3.488   8.525
  937POPC   D2A14968  12.298   3.393   8.128
  937POPC   C3A14969  12.066   3.425   7.753
  937POPC   C4A14970  12.040   3.794   7.445
  937POPC   C1B14971  11.836   3.129   8.747
  937POPC   C2B14972  11.819   3.129   8.290
  937POPC   C3B14973  11.721   3.060   7.853
  937POPC   C4B14974  11.948   3.010   7.435
  938POPC   NC314975  44.949  20.391   9.902
  938POPC   PO414976  44.660  20.948   9.589
  938POPC   GL114977  44.864  20.765   9.223
  938POPC   GL214978  44.867  20.404   9.334
  938POPC   C1A14979  44.737  20.831   8.797
  938POPC   D2A14980  44.753  20.532   8.483
  938POPC   C3A14981  44.753  20.696   8.103
  938POPC   C4A14982  44.568  20.532   7.744
  938POPC   C1B14983  44.972  20.307   8.915
  938POPC   C2B14984   0.221  20.316   8.532
  938POPC   C3B14985   0.111  20.296   8.114
  938POPC   C4B14986   0.072  20.487   7.755
  939POPC   NC314987  10.166  39.359   9.526
  939POPC   PO414988   9.481  39.242   9.467
  939POPC   GL114989   9.755  39.211   9.104
  939POPC   GL214990   9.953  39.463   9.080
  939POPC   C1A14991   9.808  39.198   8.676
  939POPC   D2A14992  10.005  39.102   8.300
  939POPC   C3A14993   9.754  39.183   7.964
  939POPC   C4A14994   9.992  39.004   7.655
  939POPC   C1B14995  10.164  39.571   8.734
  939POPC   C2B14996  10.006  39.613   8.359
  939POPC   C3B14997  10.131  39.640   7.974
  939POPC   C4B14998   9.930  39.538   7.626
  940POPC   NC314999  17.534  23.833   9.575
  940POPC   PO415000  17.795  23.298   9.242
  940POPC   GL115001  17.589  23.577   8.993
  940POPC   GL215002  17.374  23.863   9.099
  940POPC   C1A15003  17.460  23.794   8.611
  940POPC   D2A15004  17.232  23.883   8.274
  940POPC   C3A15005  17.538  23.824   8.045
  940POPC   C4A15006  17.708  23.434   8.019
  940POPC   C1B15007  17.116  23.511   8.871
  940POPC   C2B15008  17.024  23.405   8.444
  940POPC   C3B15009  17.041  23.506   7.979
  940POPC   C4B15010  17.160  23.875   7.721
  941POPC   NC315011  27.212  17.746   9.603
  941POPC   PO415012  26.683  17.325   9.515
  941POPC   GL115013  26.896  17.354   9.142
  941POPC   GL215014  26.926  17.704   9.155
  941POPC   C1A15015  26.827  17.406   8.715
  941POPC   D2A15016  26.560  17.292   8.405
  941POPC   C3A15017  26.784  17.484   8.054
  941POPC   C4A15018  26.825  17.286   7.663
  941POPC   C1B15019  26.933  17.909   8.768
  941POPC   C2B15020  27.080  17.793   8.350
  941POPC   C3B15021  27.017  17.948   7.943
  941POPC   C4B15022  26.943  17.786   7.551
  942POPC   NC315023  18.468   5.888   9.353
  942POPC   PO415024  17.908   5.612   9.287
  942POPC   GL115025  18.143   5.759   8.965
  942POPC   GL215026  18.109   6.128   9.068
  942POPC   C1A15027  18.531   5.674   8.702
  942POPC   D2A15028  18.739   5.961   8.405
  942POPC   C3A15029  18.584   5.947   7.979
  942POPC   C4A15030  18.500   6.233   7.631
  942POPC   C1B15031  18.326   6.162   8.683
  942POPC   C2B15032  18.220   5.893   8.335
  942POPC   C3B15033  18.062   5.970   7.929
  942POPC   C4B15034  17.703   6.132   7.757
  943POPC   NC315035  12.399   7.247   9.637
  943POPC   PO415036  13.010   7.495   9.553
  943POPC   GL115037  12.842   7.586   9.217
  943POPC   GL215038  12.670   7.274   9.190
  943POPC   C1A15039  13.028   7.790   8.847
  943POPC   D2A15040  13.262   7.615   8.474
  943POPC   C3A15041  13.128   7.736   8.055
  943POPC   C4A15042  13.125   7.520   7.664
  943POPC   C1B15043  12.877   7.311   8.798
  943POPC   C2B15044  12.954   7.203   8.397
  943POPC   C3B15045  12.800   7.323   8.010
  943POPC   C4B15046  12.532   7.283   7.644
  944POPC   NC315047  13.149  34.531  10.017
  944POPC   PO415048  12.642  34.583   9.615
  944POPC   GL115049  12.839  34.367   9.268
  944POPC   GL215050  13.094  34.599   9.207
  944POPC   C1A15051  12.896  34.384   8.807
  944POPC   D2A15052  12.734  34.336   8.416
  944POPC   C3A15053  12.925  34.527   8.092
  944POPC   C4A15054  12.844  34.489   7.690
  944POPC   C1B15055  13.321  34.673   8.846
  944POPC   C2B15056  13.318  34.465   8.456
  944POPC   C3B15057  13.409  34.724   8.112
  944POPC   C4B15058  13.243  34.795   7.698
  945POPC   NC315059  23.942  19.946   9.507
  945POPC   PO415060  24.085  19.342   9.359
  945POPC   GL115061  23.885  19.669   9.073
  945POPC   GL215062  23.587  19.811   9.181
  945POPC   C1A15063  23.791  19.852   8.665
  945POPC   D2A15064  23.969  19.757   8.254
  945POPC   C3A15065  23.896  19.936   7.832
  945POPC   C4A15066  23.940  20.099   7.389
  945POPC   C1B15067  23.302  19.744   8.888
  945POPC   C2B15068  23.292  19.693   8.472
  945POPC   C3B15069  23.527  19.525   8.119
  945POPC   C4B15070  23.423  19.684   7.711
  946POPC   NC315071   9.939  27.975   9.276
  946POPC   PO415072   9.854  27.408   9.628
  946POPC   GL115073   9.715  27.453   9.197
  946POPC   GL215074   9.506  27.164   9.285
  946POPC   C1A15075   9.792  27.586   8.743
  946POPC   D2A15076   9.889  27.458   8.326
  946POPC   C3A15077   9.939  27.685   7.939
  946POPC   C4A15078  10.262  27.995   7.909
  946POPC   C1B15079   9.421  27.222   8.833
  946POPC   C2B15080   9.369  27.428   8.431
  946POPC   C3B15081   9.520  27.349   8.007
  946POPC   C4B15082   9.313  27.178   7.636
  947POPC   NC315083  10.877  38.293   9.448
  947POPC   PO415084  11.533  38.376   9.555
  947POPC   GL115085  11.341  38.485   9.193
  947POPC   GL215086  11.623  38.681   9.082
  947POPC   C1A15087  11.209  38.363   8.807
  947POPC   D2A15088  10.950  38.530   8.491
  947POPC   C3A15089  11.113  38.496   8.098
  947POPC   C4A15090  11.192  38.325   7.694
  947POPC   C1B15091  11.707  38.252   8.881
  947POPC   C2B15092  11.536  38.135   8.466
  947POPC   C3B15093  11.579  38.296   8.083
  947POPC   C4B15094  11.756  38.202   7.734
  948POPC   NC315095  10.250  41.151   9.854
  948POPC   PO415096  10.223  41.677   9.534
  948POPC   GL115097  10.408  41.544   9.162
  948POPC   GL215098  10.520  41.215   9.248
  948POPC   C1A15099  10.581  41.730   8.778
  948POPC   D2A15100  10.706  41.837   8.357
  948POPC   C3A15101  10.312  41.779   8.110
  948POPC   C4A15102  10.298  41.718   7.682
  948POPC   C1B15103  10.591  41.158   8.803
  948POPC   C2B15104  10.512  41.354   8.409
  948POPC   C3B15105  10.694  41.457   8.008
  948POPC   C4B15106  10.564  41.281   7.635
  949POPC   NC315107  12.185   5.413   9.448
  949POPC   PO415108  11.856   4.787   9.551
  949POPC   GL115109  11.912   5.040   9.217
  949POPC   GL215110  12.243   5.009   9.152
  949POPC   C1A15111  11.962   5.242   8.813
  949POPC   D2A15112  11.812   5.089   8.457
  949POPC   C3A15113  11.974   5.197   8.038
  949POPC   C4A15114  11.692   5.007   7.769
  949POPC   C1B15115  12.447   4.999   8.764
  949POPC   C2B15116  12.279   4.933   8.367
  949POPC   C3B15117  12.444   4.974   7.958
  949POPC   C4B15118  12.331   5.165   7.581
  950POPC   NC315119  33.016  15.632   9.775
  950POPC   PO415120  33.443  16.077   9.671
  950POPC   GL115121  33.475  15.825   9.246
  950POPC   GL215122  33.180  15.582   9.263
  950POPC   C1A15123  33.475  15.898   8.763
  950POPC   D2A15124  33.411  16.159   8.370
  950POPC   C3A15125  33.253  15.941   8.004
  950POPC   C4A15126  32.811  15.837   7.915
  950POPC   C1B15127  33.118  15.521   8.830
  950POPC   C2B15128  32.950  15.556   8.417
  950POPC   C3B15129  33.099  15.417   8.024
  950POPC   C4B15130  33.426  15.510   7.758
  951POPC   NC315131  27.459  13.752   9.664
  951POPC   PO415132  27.768  13.133   9.569
  951POPC   GL115133  27.619  13.430   9.221
  951POPC   GL215134  27.384  13.735   9.165
  951POPC   C1A15135  27.742  13.524   8.788
  951POPC   D2A15136  27.753  13.730   8.368
  951POPC   C3A15137  27.706  13.465   8.020
  951POPC   C4A15138  27.892  13.128   7.832
  951POPC   C1B15139  27.408  13.960   8.760
  951POPC   C2B15140  27.505  14.171   8.351
  951POPC   C3B15141  27.474  13.922   7.946
  951POPC   C4B15142  27.348  13.577   7.668
  952POPC   NC315143  15.032   7.084   9.494
  952POPC   PO415144  15.622   7.374   9.534
  952POPC   GL115145  15.384   7.270   9.151
  952POPC   GL215146  15.482   7.594   9.027
  952POPC   C1A15147  15.143   7.317   8.745
  952POPC   D2A15148  14.933   7.518   8.351
  952POPC   C3A15149  14.956   7.222   8.063
  952POPC   C4A15150  15.342   7.172   7.870
  952POPC   C1B15151  15.626   7.688   8.617
  952POPC   C2B15152  15.415   7.624   8.262
  952POPC   C3B15153  15.269   7.674   7.872
  952POPC   C4B15154  15.439   7.596   7.454
  953POPC   NC315155  23.432  23.045   9.436
  953POPC   PO415156  23.910  23.597   9.462
  953POPC   GL115157  23.795  23.341   9.106
  953POPC   GL215158  23.494  23.246   8.967
  953POPC   C1A15159  23.905  23.067   8.745
  953POPC   D2A15160  23.770  22.678   8.519
  953POPC   C3A15161  23.954  22.703   8.124
  953POPC   C4A15162  23.957  22.970   7.764
  953POPC   C1B15163  23.351  22.909   8.759
  953POPC   C2B15164  23.274  22.776   8.347
  953POPC   C3B15165  23.469  22.879   7.978
  953POPC   C4B15166  23.503  22.964   7.537
  954POPC   NC315167  31.522   2.235   9.674
  954POPC   PO415168  30.942   1.916   9.506
  954POPC   GL115169  31.256   2.093   9.211
  954POPC   GL215170  31.634   2.170   9.159
  954POPC   C1A15171  31.343   2.132   8.750
  954POPC   D2A15172  31.389   1.916   8.366
  954POPC   C3A15173  31.539   2.165   8.032
  954POPC   C4A15174  31.367   2.085   7.643
  954POPC   C1B15175  31.797   1.916   8.793
  954POPC   C2B15176  31.903   1.805   8.389
  954POPC   C3B15177  31.770   1.597   8.027
  954POPC   C4B15178  31.796   1.831   7.685
  955POPC   NC315179  18.890  44.324   9.616
  955POPC   PO415180  18.316  43.895   9.626
  955POPC   GL115181  18.248  43.683   9.218
  955POPC   GL215182  18.576  43.813   9.101
  955POPC   C1A15183  18.300  43.562   8.749
  955POPC   D2A15184  18.648  43.540   8.420
  955POPC   C3A15185  18.523  43.548   7.989
  955POPC   C4A15186  18.451  43.275   7.644
  955POPC   C1B15187  18.600  43.979   8.674
  955POPC   C2B15188  18.306  43.897   8.300
  955POPC   C3B15189  18.409  44.015   7.836
  955POPC   C4B15190  18.249  44.179   7.429
  956POPC   NC315191  36.860  38.035   9.664
  956POPC   PO415192  36.775  38.744   9.493
  956POPC   GL115193  36.866  38.515   9.107
  956POPC   GL215194  37.117  38.355   9.125
  956POPC   C1A15195  36.697  38.351   8.693
  956POPC   D2A15196  36.477  38.618   8.387
  956POPC   C3A15197  36.554  38.575   7.952
  956POPC   C4A15198  36.895  38.370   7.735
  956POPC   C1B15199  37.194  38.424   8.693
  956POPC   C2B15200  37.020  38.416   8.269
  956POPC   C3B15201  37.258  38.610   7.945
  956POPC   C4B15202  37.288  38.674   7.449
  957POPC   NC315203   9.017   3.596   9.568
  957POPC   PO415204   9.085   2.964   9.519
  957POPC   GL115205   9.066   3.246   9.167
  957POPC   GL215206   8.772   3.421   9.081
  957POPC   C1A15207   9.099   3.183   8.718
  957POPC   D2A15208   9.129   3.481   8.383
  957POPC   C3A15209   8.998   3.365   7.991
  957POPC   C4A15210   9.237   3.447   7.624
  957POPC   C1B15211   8.820   3.695   8.726
  957POPC   C2B15212   8.831   3.932   8.314
  957POPC   C3B15213   8.648   3.773   7.910
  957POPC   C4B15214   8.540   3.346   7.773
  958POPC   NC315215  26.843   9.678   9.992
  958POPC   PO415216  27.263   9.824   9.529
  958POPC   GL115217  27.238   9.735   9.104
  958POPC   GL215218  27.092   9.419   9.099
  958POPC   C1A15219  26.970   9.817   8.764
  958POPC   D2A15220  26.676   9.805   8.458
  958POPC   C3A15221  26.699   9.931   8.033
  958POPC   C4A15222  26.322  10.031   7.798
  958POPC   C1B15223  27.299   9.435   8.684
  958POPC   C2B15224  27.049   9.492   8.288
  958POPC   C3B15225  27.019   9.552   7.834
  958POPC   C4B15226  27.183   9.532   7.418
  959POPC   NC315227  14.836  20.993   9.494
  959POPC   PO415228  15.083  20.329   9.462
  959POPC   GL115229  15.262  20.353   9.085
  959POPC   GL215230  15.187  20.691   9.107
  959POPC   C1A15231  15.170  20.267   8.683
  959POPC   D2A15232  15.207  20.526   8.381
  959POPC   C3A15233  14.997  20.421   8.082
  959POPC   C4A15234  14.989  20.429   7.716
  959POPC   C1B15235  15.491  20.683   8.769
  959POPC   C2B15236  15.625  20.807   8.305
  959POPC   C3B15237  15.292  20.852   7.985
  959POPC   C4B15238  15.212  21.127   7.643
  960POPC   NC315239  17.905  11.326   9.495
  960POPC   PO415240  17.291  11.141   9.456
  960POPC   GL115241  17.330  11.278   9.042
  960POPC   GL215242  17.667  11.463   9.045
  960POPC   C1A15243  17.125  11.071   8.672
  960POPC   D2A15244  17.126  11.097   8.215
  960POPC   C3A15245  17.553  11.093   8.009
  960POPC   C4A15246  17.744  11.101   7.596
  960POPC   C1B15247  17.610  11.381   8.610
  960POPC   C2B15248  17.723  11.672   8.279
  960POPC   C3B15249  17.637  11.603   7.896
  960POPC   C4B15250  17.222  11.478   7.869
  961POPC   NC315251  22.019  32.847   9.498
  961POPC   PO415252  22.652  32.727   9.420
  961POPC   GL115253  22.394  33.087   9.203
  961POPC   GL215254  21.999  33.148   9.099
  961POPC   C1A15255  22.376  33.244   8.793
  961POPC   D2A15256  22.489  33.088   8.428
  961POPC   C3A15257  22.314  33.140   8.009
  961POPC   C4A15258  22.205  33.226   7.574
  961POPC   C1B15259  21.948  32.894   8.725
  961POPC   C2B15260  21.788  32.740   8.306
  961POPC   C3B15261  21.807  32.815   7.870
  961POPC   C4B15262  21.532  32.701   7.515
  962POPC   NC315263  32.308  20.001   9.713
  962POPC   PO415264  32.654  19.569   9.428
  962POPC   GL115265  32.357  19.888   9.211
  962POPC   GL215266  31.974  19.930   9.197
  962POPC   C1A15267  32.277  19.990   8.786
  962POPC   D2A15268  32.431  20.069   8.419
  962POPC   C3A15269  32.305  19.794   8.149
  962POPC   C4A15270  32.449  19.813   7.768
  962POPC   C1B15271  31.771  20.030   8.745
  962POPC   C2B15272  31.901  20.115   8.289
  962POPC   C3B15273  31.930  19.947   7.835
  962POPC   C4B15274  32.087  19.657   7.445
  963POPC   NC315275  26.537  15.625   9.659
  963POPC   PO415276  25.997  16.095   9.575
  963POPC   GL115277  25.939  15.943   9.133
  963POPC   GL215278  26.272  15.898   9.066
  963POPC   C1A15279  26.008  16.032   8.655
  963POPC   D2A15280  25.911  15.912   8.228
  963POPC   C3A15281  26.165  16.001   7.881
  963POPC   C4A15282  26.072  15.889   7.462
  963POPC   C1B15283  26.277  15.591   8.703
  963POPC   C2B15284  26.340  15.661   8.307
  963POPC   C3B15285  26.225  15.483   7.945
  963POPC   C4B15286  26.337  15.445   7.543
  964POPC   NC315287  33.078  28.782   9.543
  964POPC   PO415288  33.232  29.482   9.680
  964POPC   GL115289  33.081  29.227   9.300
  964POPC   GL215290  33.367  29.333   9.197
  964POPC   C1A15291  32.892  29.004   8.914
  964POPC   D2A15292  33.114  28.857   8.514
  964POPC   C3A15293  32.914  28.876   8.109
  964POPC   C4A15294  32.743  29.118   7.760
  964POPC   C1B15295  33.390  29.142   8.835
  964POPC   C2B15296  33.287  29.333   8.442
  964POPC   C3B15297  33.321  29.175   8.058
  964POPC   C4B15298  33.338  29.425   7.715
  965POPC   NC315299  27.446  25.479   9.686
  965POPC   PO415300  27.258  24.934   9.390
  965POPC   GL115301  27.439  25.137   9.035
  965POPC   GL215302  27.740  25.403   8.999
  965POPC   C1A15303  27.389  25.068   8.610
  965POPC   D2A15304  27.604  24.922   8.253
  965POPC   C3A15305  27.372  25.098   7.937
  965POPC   C4A15306  27.554  25.250   7.593
  965POPC   C1B15307  27.689  25.479   8.592
  965POPC   C2B15308  27.575  25.471   8.199
  965POPC   C3B15309  27.853  25.570   7.893
  965POPC   C4B15310  28.039  25.384   7.533
  966POPC   NC315311  32.470  36.395   9.310
  966POPC   PO415312  32.870  36.055   9.682
  966POPC   GL115313  33.018  36.224   9.260
  966POPC   GL215314  32.789  36.173   8.979
  966POPC   C1A15315  33.245  36.309   8.838
  966POPC   D2A15316  33.236  36.406   8.382
  966POPC   C3A15317  33.044  36.369   7.986
  966POPC   C4A15318  33.346  36.364   7.645
  966POPC   C1B15319  32.959  35.908   8.631
  966POPC   C2B15320  33.070  35.866   8.193
  966POPC   C3B15321  33.193  35.880   7.773
  966POPC   C4B15322  33.074  35.866   7.353
  967POPC   NC315323   0.835  43.351   9.880
  967POPC   PO415324   0.424  42.861   9.683
  967POPC   GL115325   0.355  42.970   9.209
  967POPC   GL215326   0.427  43.294   9.122
  967POPC   C1A15327   0.514  42.941   8.762
  967POPC   D2A15328   0.658  43.150   8.376
  967POPC   C3A15329   0.513  43.022   7.959
  967POPC   C4A15330   0.146  42.855   7.781
  967POPC   C1B15331   0.244  43.380   8.687
  967POPC   C2B15332   0.381  43.597   8.295
  967POPC   C3B15333   0.342  43.568   7.843
  967POPC   C4B15334   0.610  43.356   7.549
  968POPC   NC315335  23.013  21.585   9.572
  968POPC   PO415336  22.482  21.222   9.340
  968POPC   GL115337  22.906  21.277   9.181
  968POPC   GL215338  22.980  21.625   9.073
  968POPC   C1A15339  23.017  21.079   8.818
  968POPC   D2A15340  22.686  21.088   8.515
  968POPC   C3A15341  22.766  21.348   8.163
  968POPC   C4A15342  22.773  21.361   7.737
  968POPC   C1B15343  22.887  21.570   8.656
  968POPC   C2B15344  22.693  21.841   8.378
  968POPC   C3B15345  22.827  21.839   7.958
  968POPC   C4B15346  23.194  21.647   7.808
  969POPC   NC315347   4.153  32.771   9.380
  969POPC   PO415348   4.398  33.357   9.582
  969POPC   GL115349   4.357  33.259   9.156
  969POPC   GL215350   3.974  33.312   9.151
  969POPC   C1A15351   4.513  32.972   8.801
  969POPC   D2A15352   4.656  33.119   8.376
  969POPC   C3A15353   4.493  32.924   7.999
  969POPC   C4A15354   4.475  32.895   7.554
  969POPC   C1B15355   4.098  33.245   8.700
  969POPC   C2B15356   4.156  33.232   8.260
  969POPC   C3B15357   4.367  33.406   7.930
  969POPC   C4B15358   4.316  33.364   7.512
  970POPC   NC315359  17.808  27.113   9.454
  970POPC   PO415360  17.207  27.209   9.482
  970POPC   GL115361  17.425  26.872   9.194
  970POPC   GL215362  17.810  26.813   9.056
  970POPC   C1A15363  17.398  26.770   8.743
  970POPC   D2A15364  17.536  26.892   8.337
  970POPC   C3A15365  17.318  26.680   8.070
  970POPC   C4A15366  17.130  26.930   7.819
  970POPC   C1B15367  17.721  27.179   8.797
  970POPC   C2B15368  17.930  27.332   8.448
  970POPC   C3B15369  17.970  27.133   8.071
  970POPC   C4B15370  17.648  26.968   7.804
  971POPC   NC315371  14.197  24.915   9.495
  971POPC   PO415372  13.759  25.367   9.407
  971POPC   GL115373  14.120  25.324   9.074
  971POPC   GL215374  14.397  25.095   9.049
  971POPC   C1A15375  14.304  25.492   8.664
  971POPC   D2A15376  14.538  25.702   8.331
  971POPC   C3A15377  14.552  25.409   7.960
  971POPC   C4A15378  14.559  25.225   7.555
  971POPC   C1B15379  14.254  24.984   8.671
  971POPC   C2B15380  14.446  25.043   8.302
  971POPC   C3B15381  14.532  24.829   7.895
  971POPC   C4B15382  14.573  24.734   7.415
  972POPC   NC315383  29.391  34.216   9.462
  972POPC   PO415384  29.150  34.770   9.406
  972POPC   GL115385  29.252  34.583   9.063
  972POPC   GL215386  29.076  34.281   9.043
  972POPC   C1A15387  29.109  34.594   8.638
  972POPC   D2A15388  28.881  34.416   8.310
  972POPC   C3A15389  28.893  34.705   7.989
  972POPC   C4A15390  29.064  34.612   7.588
  972POPC   C1B15391  29.403  34.172   8.764
  972POPC   C2B15392  29.438  34.339   8.343
  972POPC   C3B15393  29.266  34.252   7.943
  972POPC   C4B15394  29.518  34.357   7.574
  973POPC   NC315395  30.160  35.150   9.466
  973POPC   PO415396  29.686  35.560   9.470
  973POPC   GL115397  29.795  35.365   9.102
  973POPC   GL215398  30.063  35.570   9.083
  973POPC   C1A15399  29.836  35.098   8.728
  973POPC   D2A15400  30.068  35.018   8.314
  973POPC   C3A15401  29.785  35.062   7.976
  973POPC   C4A15402  29.556  35.415   7.843
  973POPC   C1B15403  29.924  35.603   8.655
  973POPC   C2B15404  29.831  35.886   8.328
  973POPC   C3B15405  29.969  35.812   7.923
  973POPC   C4B15406  30.121  35.410   7.890
  974POPC   NC315407  28.882  23.626   9.468
  974POPC   PO415408  29.576  23.875   9.441
  974POPC   GL115409  29.277  23.888   9.126
  974POPC   GL215410  29.260  23.524   9.107
  974POPC   C1A15411  29.181  24.026   8.683
  974POPC   D2A15412  29.155  23.965   8.217
  974POPC   C3A15413  29.384  23.627   7.975
  974POPC   C4A15414  29.186  23.313   7.732
  974POPC   C1B15415  29.028  23.532   8.708
  974POPC   C2B15416  29.026  23.418   8.266
  974POPC   C3B15417  28.827  23.620   7.922
  974POPC   C4B15418  28.682  23.973   7.729
  975POPC   NC315419  34.637  39.693   9.548
  975POPC   PO415420  34.238  40.285   9.588
  975POPC   GL115421  34.247  40.004   9.208
  975POPC   GL215422  34.572  39.850   9.057
  975POPC   C1A15423  34.213  40.162   8.769
  975POPC   D2A15424  34.280  40.037   8.345
  975POPC   C3A15425  34.279  40.309   8.008
  975POPC   C4A15426  34.400  40.176   7.617
  975POPC   C1B15427  34.831  39.782   8.657
  975POPC   C2B15428  34.640  39.640   8.264
  975POPC   C3B15429  34.373  39.738   7.901
  975POPC   C4B15430  34.518  39.714   7.415
  976POPC   NC315431  43.350  32.283   9.564
  976POPC   PO415432  42.726  32.180   9.533
  976POPC   GL115433  43.003  32.053   9.198
  976POPC   GL215434  43.357  31.963   9.111
  976POPC   C1A15435  42.937  32.092   8.768
  976POPC   D2A15436  43.117  32.367   8.442
  976POPC   C3A15437  43.132  32.125   8.076
  976POPC   C4A15438  42.986  32.211   7.692
  976POPC   C1B15439  43.363  32.368   8.901
  976POPC   C2B15440  43.601  32.533   8.543
  976POPC   C3B15441  43.595  32.366   8.146
  976POPC   C4B15442  43.481  32.355   7.743
  977POPC   NC315443  12.411  30.598   9.752
  977POPC   PO415444  11.903  30.927   9.478
  977POPC   GL115445  12.077  30.904   9.110
  977POPC   GL215446  12.142  30.573   9.166
  977POPC   C1A15447  12.013  30.874   8.677
  977POPC   D2A15448  12.030  31.020   8.284
  977POPC   C3A15449  11.772  30.942   7.941
  977POPC   C4A15450  12.087  31.048   7.693
  977POPC   C1B15451  11.774  30.482   8.867
  977POPC   C2B15452  11.795  30.334   8.476
  977POPC   C3B15453  11.967  30.492   8.102
  977POPC   C4B15454  12.051  30.559   7.663
  978POPC   NC315455  27.005  44.359   9.739
  978POPC   PO415456  26.580  43.991   9.283
  978POPC   GL115457  26.781  43.808   9.010
  978POPC   GL215458  27.041  43.623   9.125
  978POPC   C1A15459  26.812  43.929   8.604
  978POPC   D2A15460  26.837  43.940   8.184
  978POPC   C3A15461  26.595  44.140   7.892
  978POPC   C4A15462  26.424  44.030   7.504
  978POPC   C1B15463  26.933  43.424   8.733
  978POPC   C2B15464  27.111  43.554   8.386
  978POPC   C3B15465  26.953  43.480   8.010
  978POPC   C4B15466  26.735  43.683   7.705
  979POPC   NC315467  25.249  26.729   9.586
  979POPC   PO415468  24.784  27.172   9.371
  979POPC   GL115469  25.142  26.949   9.142
  979POPC   GL215470  25.498  27.012   9.216
  979POPC   C1A15471  25.085  26.737   8.743
  979POPC   D2A15472  25.084  26.563   8.316
  979POPC   C3A15473  25.183  26.928   8.049
  979POPC   C4A15474  25.035  27.316   7.867
  979POPC   C1B15475  25.621  26.787   8.843
  979POPC   C2B15476  25.699  26.788   8.393
  979POPC   C3B15477  25.612  26.684   7.974
  979POPC   C4B15478  25.490  26.541   7.599
  980POPC   NC315479  18.176  10.369   9.393
  980POPC   PO415480  18.395   9.704   9.527
  980POPC   GL115481  18.304   9.707   9.140
  980POPC   GL215482  18.077   9.936   9.177
  980POPC   C1A15483  18.468   9.924   8.810
  980POPC   D2A15484  18.395   9.850   8.412
  980POPC   C3A15485  18.483  10.065   8.064
  980POPC   C4A15486  18.383   9.830   7.700
  980POPC   C1B15487  17.950   9.875   8.758
  980POPC   C2B15488  17.965  10.119   8.398
  980POPC   C3B15489  18.000   9.846   8.045
  980POPC   C4B15490  17.749   9.756   7.693
  981POPC   NC315491  25.456  40.680   9.604
  981POPC   PO415492  25.558  41.354   9.533
  981POPC   GL115493  25.312  41.060   9.224
  981POPC   GL215494  25.246  40.704   9.139
  981POPC   C1A15495  25.450  41.016   8.760
  981POPC   D2A15496  25.666  40.731   8.433
  981POPC   C3A15497  25.570  40.904   8.013
  981POPC   C4A15498  25.168  40.825   7.797
  981POPC   C1B15499  25.217  40.553   8.739
  981POPC   C2B15500  24.972  40.392   8.424
  981POPC   C3B15501  25.155  40.363   8.008
  981POPC   C4B15502  25.347  40.382   7.559
  982POPC   NC315503  39.635  37.413   9.437
  982POPC   PO415504  40.189  37.911   9.349
  982POPC   GL115505  39.957  37.860   9.033
  982POPC   GL215506  39.949  37.534   9.059
  982POPC   C1A15507  39.732  37.739   8.661
  982POPC   D2A15508  39.790  37.984   8.312
  982POPC   C3A15509  39.992  37.829   7.954
  982POPC   C4A15510  39.866  38.034   7.610
  982POPC   C1B15511  40.268  37.566   8.725
  982POPC   C2B15512  40.137  37.376   8.336
  982POPC   C3B15513  39.904  37.328   7.969
  982POPC   C4B15514  40.274  37.406   7.742
  983POPC   NC315515  17.173  11.620   9.429
  983POPC   PO415516  16.504  11.677   9.380
  983POPC   GL115517  16.634  11.466   9.065
  983POPC   GL215518  16.785  11.128   9.113
  983POPC   C1A15519  16.870  11.499   8.716
  983POPC   D2A15520  16.989  11.622   8.313
  983POPC   C3A15521  16.714  11.512   7.941
  983POPC   C4A15522  16.650  11.582   7.492
  983POPC   C1B15523  16.514  11.107   8.721
  983POPC   C2B15524  16.613  11.139   8.296
  983POPC   C3B15525  16.419  11.059   7.902
  983POPC   C4B15526  16.422  11.135   7.467
  984POPC   NC315527  29.813  41.084  10.028
  984POPC   PO415528  30.178  40.637   9.667
  984POPC   GL115529  29.911  40.882   9.342
  984POPC   GL215530  30.081  41.169   9.229
  984POPC   C1A15531  29.640  40.771   8.946
  984POPC   D2A15532  29.706  40.444   8.608
  984POPC   C3A15533  29.762  40.574   8.186
  984POPC   C4A15534  30.066  40.800   7.921
  984POPC   C1B15535  30.128  40.854   8.874
  984POPC   C2B15536  30.098  40.885   8.430
  984POPC   C3B15537  30.178  41.238   8.125
  984POPC   C4B15538  30.366  41.266   7.728
  985POPC   NC315539  37.279  36.881   9.526
  985POPC   PO415540  36.651  36.972   9.327
  985POPC   GL115541  36.992  36.972   9.097
  985POPC   GL215542  37.021  36.625   9.099
  985POPC   C1A15543  37.165  37.120   8.709
  985POPC   D2A15544  37.172  36.922   8.295
  985POPC   C3A15545  36.930  37.028   7.939
  985POPC   C4A15546  37.207  37.276   7.728
  985POPC   C1B15547  36.956  36.626   8.676
  985POPC   C2B15548  37.141  36.399   8.324
  985POPC   C3B15549  36.957  36.377   7.919
  985POPC   C4B15550  36.693  36.644   7.650
  986POPC   NC315551  36.258  17.487   9.647
  986POPC   PO415552  36.124  18.086   9.583
  986POPC   GL115553  36.272  17.753   9.212
  986POPC   GL215554  36.399  17.369   9.182
  986POPC   C1A15555  36.205  17.590   8.785
  986POPC   D2A15556  35.916  17.546   8.469
  986POPC   C3A15557  35.984  17.777   8.119
  986POPC   C4A15558  35.925  17.630   7.712
  986POPC   C1B15559  36.309  17.077   8.836
  986POPC   C2B15560  36.326  17.221   8.419
  986POPC   C3B15561  36.147  17.280   8.031
  986POPC   C4B15562  36.301  17.112   7.637
  987POPC   NC315563  12.498  26.698   9.534
  987POPC   PO415564  12.899  27.097   9.497
  987POPC   GL115565  12.881  26.970   9.115
  987POPC   GL215566  13.244  27.067   9.095
  987POPC   C1A15567  12.722  26.858   8.721
  987POPC   D2A15568  12.860  26.887   8.300
  987POPC   C3A15569  12.569  27.074   8.032
  987POPC   C4A15570  12.502  26.808   7.697
  987POPC   C1B15571  13.258  26.766   8.723
  987POPC   C2B15572  13.075  26.462   8.419
  987POPC   C3B15573  13.004  26.524   7.963
  987POPC   C4B15574  13.015  26.926   7.777
  988POPC   NC315575  37.223   0.892   9.370
  988POPC   PO415576  37.836   1.093   9.563
  988POPC   GL115577  37.695   1.145   9.166
  988POPC   GL215578  37.828   0.837   9.086
  988POPC   C1A15579  37.830   1.460   8.851
  988POPC   D2A15580  38.067   1.496   8.502
  988POPC   C3A15581  37.914   1.205   8.203
  988POPC   C4A15582  38.068   1.261   7.814
  988POPC   C1B15583  37.720   0.995   8.672
  988POPC   C2B15584  37.438   0.921   8.368
  988POPC   C3B15585  37.304   0.965   7.962
  988POPC   C4B15586  37.602   1.178   7.680
  989POPC   NC315587  32.149  21.162   9.370
  989POPC   PO415588  32.053  21.788   9.363
  989POPC   GL115589  32.264  21.567   9.088
  989POPC   GL215590  32.589  21.651   9.152
  989POPC   C1A15591  32.136  21.411   8.702
  989POPC   D2A15592  32.149  21.596   8.315
  989POPC   C3A15593  32.318  21.353   8.000
  989POPC   C4A15594  32.375  21.462   7.573
  989POPC   C1B15595  32.643  21.400   8.760
  989POPC   C2B15596  32.510  21.090   8.467
  989POPC   C3B15597  32.705  21.052   8.071
  989POPC   C4B15598  32.584  20.985   7.667
  990POPC   NC315599  13.543  39.881   9.563
  990POPC   PO415600  13.326  40.497   9.519
  990POPC   GL115601  13.580  40.227   9.191
  990POPC   GL215602  13.741  39.897   9.106
  990POPC   C1A15603  13.642  40.299   8.773
  990POPC   D2A15604  13.379  40.290   8.430
  990POPC   C3A15605  13.648  40.325   8.079
  990POPC   C4A15606  13.533  40.233   7.671
  990POPC   C1B15607  13.805  39.736   8.677
  990POPC   C2B15608  13.757  39.826   8.223
  990POPC   C3B15609  13.656  39.730   7.782
  990POPC   C4B15610  13.816  39.891   7.383
  991POPC   NC315611  21.232  13.935   9.721
  991POPC   PO415612  21.499  13.279   9.567
  991POPC   GL115613  21.447  13.564   9.224
  991POPC   GL215614  21.170  13.833   9.223
  991POPC   C1A15615  21.495  13.758   8.811
  991POPC   D2A15616  21.551  13.626   8.391
  991POPC   C3A15617  21.536  13.870   8.004
  991POPC   C4A15618  21.380  13.688   7.618
  991POPC   C1B15619  21.038  13.544   8.916
  991POPC   C2B15620  21.007  13.592   8.491
  991POPC   C3B15621  21.119  13.620   8.067
  991POPC   C4B15622  20.925  13.843   7.700
  992POPC   NC315623  25.868  27.651   9.668
  992POPC   PO415624  26.445  27.324   9.651
  992POPC   GL115625  26.200  27.570   9.243
  992POPC   GL215626  25.855  27.762   9.186
  992POPC   C1A15627  26.141  27.717   8.787
  992POPC   D2A15628  26.347  27.851   8.412
  992POPC   C3A15629  26.533  27.836   8.030
  992POPC   C4A15630  26.216  27.839   7.738
  992POPC   C1B15631  25.720  27.455   8.897
  992POPC   C2B15632  25.796  27.499   8.453
  992POPC   C3B15633  25.865  27.712   8.065
  992POPC   C4B15634  25.675  28.046   7.825
  993POPC   NC315635  19.014  18.384   9.495
  993POPC   PO415636  19.509  18.034   9.209
  993POPC   GL115637  19.192  18.248   8.983
  993POPC   GL215638  19.085  18.547   9.012
  993POPC   C1A15639  18.921  18.292   8.617
  993POPC   D2A15640  18.881  18.564   8.234
  993POPC   C3A15641  18.788  18.376   7.827
  993POPC   C4A15642  18.967  18.385   7.380
  993POPC   C1B15643  18.866  18.784   8.722
  993POPC   C2B15644  19.158  18.974   8.460
  993POPC   C3B15645  19.379  18.757   8.158
  993POPC   C4B15646  19.249  18.546   7.838
  994POPC   NC315647  36.562  12.859   9.451
  994POPC   PO415648  37.112  13.019   9.423
  994POPC   GL115649  36.953  12.791   9.067
  994POPC   GL215650  36.602  12.641   9.000
  994POPC   C1A15651  37.106  12.889   8.681
  994POPC   D2A15652  37.239  12.901   8.268
  994POPC   C3A15653  36.949  12.721   7.994
  994POPC   C4A15654  37.024  12.935   7.644
  994POPC   C1B15655  36.585  13.026   8.780
  994POPC   C2B15656  36.752  13.095   8.375
  994POPC   C3B15657  36.619  13.098   7.960
  994POPC   C4B15658  36.528  12.777   7.655
  995POPC   NC315659  36.564  16.943   9.441
  995POPC   PO415660  37.117  16.652   9.447
  995POPC   GL115661  37.067  16.594   9.061
  995POPC   GL215662  37.249  16.310   9.005
  995POPC   C1A15663  36.775  16.771   8.780
  995POPC   D2A15664  36.775  16.943   8.391
  995POPC   C3A15665  36.900  16.701   8.045
  995POPC   C4A15666  36.774  16.929   7.679
  995POPC   C1B15667  36.874  16.238   8.735
  995POPC   C2B15668  36.597  16.421   8.421
  995POPC   C3B15669  36.568  16.308   8.002
  995POPC   C4B15670  36.804  16.423   7.608
  996POPC   NC315671   6.005  39.701   9.799
  996POPC   PO415672   5.564  39.241   9.451
  996POPC   GL115673   5.840  39.185   9.103
  996POPC   GL215674   6.184  39.103   9.138
  996POPC   C1A15675   5.911  39.380   8.710
  996POPC   D2A15676   5.633  39.355   8.392
  996POPC   C3A15677   5.766  39.311   8.000
  996POPC   C4A15678   5.535  39.514   7.689
  996POPC   C1B15679   6.199  38.945   8.714
  996POPC   C2B15680   6.049  39.022   8.311
  996POPC   C3B15681   6.130  38.952   7.880
  996POPC   C4B15682   6.080  38.823   7.448
  997POPC   NC315683  31.958  35.230   9.556
  997POPC   PO415684  31.445  35.711   9.592
  997POPC   GL115685  31.601  35.653   9.187
  997POPC   GL215686  31.279  35.768   9.104
  997POPC   C1A15687  31.534  35.405   8.806
  997POPC   D2A15688  31.206  35.341   8.463
  997POPC   C3A15689  31.364  35.124   8.100
  997POPC   C4A15690  31.560  35.257   7.716
  997POPC   C1B15691  31.352  35.897   8.732
  997POPC   C2B15692  31.578  35.723   8.399
  997POPC   C3B15693  31.461  35.653   8.003
  997POPC   C4B15694  31.766  35.768   7.702
  998POPC   NC315695  26.397  30.131   9.453
  998POPC   PO415696  25.907  29.684   9.572
  998POPC   GL115697  26.154  29.734   9.193
  998POPC   GL215698  25.992  30.039   9.153
  998POPC   C1A15699  25.936  29.678   8.772
  998POPC   D2A15700  25.818  29.507   8.376
  998POPC   C3A15701  25.943  29.721   8.017
  998POPC   C4A15702  26.100  29.696   7.637
  998POPC   C1B15703  26.153  30.142   8.745
  998POPC   C2B15704  25.982  30.065   8.372
  998POPC   C3B15705  25.948  30.236   7.946
  998POPC   C4B15706  26.185  30.201   7.555
  999POPC   NC315707  16.423  43.248   9.701
  999POPC   PO415708  15.947  42.876   9.418
  999POPC   GL115709  15.952  43.121   9.072
  999POPC   GL215710  15.800  43.438   9.129
  999POPC   C1A15711  15.836  42.996   8.663
  999POPC   D2A15712  15.859  42.758   8.299
  999POPC   C3A15713  15.769  42.757   7.844
  999POPC   C4A15714  15.907  42.728   7.401
  999POPC   C1B15715  15.986  43.506   8.717
  999POPC   C2B15716  15.892  43.368   8.331
  999POPC   C3B15717  16.074  43.125   8.011
  999POPC   C4B15718  16.023  43.205   7.592
 1000POPC   NC315719  14.863   0.592   9.333
 1000POPC   PO415720  14.283   0.189   9.447
 1000POPC   GL115721  14.399   0.450   9.077
 1000POPC   GL215722  14.274   0.791   9.004
 1000POPC   C1A15723  14.386   0.446   8.617
 1000POPC   D2A15724  14.540   0.195   8.252
 1000POPC   C3A15725  14.208   0.133   7.976
 1000POPC   C4A15726  14.253   0.296   7.563
 1000POPC   C1B15727  14.397   0.981   8.646
 1000POPC   C2B15728  14.142   0.880   8.300
 1000POPC   C3B15729  14.267   0.633   7.965
 1000POPC   C4B15730  14.654   0.589   7.681
 1001POPC   NC315731  42.500  24.224   9.510
 1001POPC   PO415732  42.179  24.871   9.459
 1001POPC   GL115733  42.315  24.565   9.168
 1001POPC   GL215734  42.638  24.462   9.092
 1001POPC   C1A15735  42.217  24.386   8.794
 1001POPC   D2A15736  42.354  24.541   8.425
 1001POPC   C3A15737  42.274  24.248   8.119
 1001POPC   C4A15738  42.108  24.479   7.809
 1001POPC   C1B15739  42.782  24.378   8.712
 1001POPC   C2B15740  42.779  24.245   8.309
 1001POPC   C3B15741  42.747  24.384   7.909
 1001POPC   C4B15742  42.472  24.187   7.624
 1002POPC   NC315743  30.589  20.395   9.474
 1002POPC   PO415744  31.158  20.733   9.429
 1002POPC   GL115745  30.866  20.758   9.067
 1002POPC   GL215746  30.549  20.536   8.988
 1002POPC   C1A15747  30.677  20.901   8.670
 1002POPC   D2A15748  30.466  20.593   8.411
 1002POPC   C3A15749  30.674  20.575   8.014
 1002POPC   C4A15750  30.796  20.723   7.603
 1002POPC   C1B15751  30.895  20.442   8.662
 1002POPC   C2B15752  30.966  20.218   8.279
 1002POPC   C3B15753  31.055  20.257   7.857
 1002POPC   C4B15754  30.957  20.278   7.435
 1003POPC   NC315755   0.648  12.631   9.372
 1003POPC   PO415756   1.302  13.005   9.505
 1003POPC   GL115757   1.233  13.208   9.119
 1003POPC   GL215758   1.003  12.944   9.084
 1003POPC   C1A15759   1.309  13.087   8.688
 1003POPC   D2A15760   1.221  12.757   8.407
 1003POPC   C3A15761   1.343  12.798   7.989
 1003POPC   C4A15762   1.530  13.174   7.848
 1003POPC   C1B15763   0.760  12.944   8.725
 1003POPC   C2B15764   0.618  12.729   8.435
 1003POPC   C3B15765   0.829  12.768   8.098
 1003POPC   C4B15766   0.898  12.642   7.730
 1004POPC   NC315767  35.579   8.790   9.598
 1004POPC   PO415768  35.556   9.442   9.474
 1004POPC   GL115769  35.315   9.250   9.141
 1004POPC   GL215770  35.296   8.883   9.179
 1004POPC   C1A15771  35.450   9.236   8.708
 1004POPC   D2A15772  35.281   9.150   8.317
 1004POPC   C3A15773  35.513   9.184   7.943
 1004POPC   C4A15774  35.134   9.120   7.689
 1004POPC   C1B15775  35.487   8.732   8.811
 1004POPC   C2B15776  35.388   8.644   8.397
 1004POPC   C3B15777  35.284   8.725   7.968
 1004POPC   C4B15778  35.574   8.794   7.612
 1005POPC   NC315779  25.881  13.150   9.368
 1005POPC   PO415780  26.360  12.877   9.605
 1005POPC   GL115781  26.193  12.872   9.120
 1005POPC   GL215782  25.867  12.760   9.047
 1005POPC   C1A15783  26.060  13.048   8.699
 1005POPC   D2A15784  25.885  12.908   8.305
 1005POPC   C3A15785  26.083  12.958   7.877
 1005POPC   C4A15786  25.798  12.992   7.509
 1005POPC   C1B15787  26.108  12.504   8.766
 1005POPC   C2B15788  25.951  12.405   8.407
 1005POPC   C3B15789  25.913  12.500   7.999
 1005POPC   C4B15790  26.296  12.482   7.795
 1006POPC   NC315791  32.878   1.460   9.520
 1006POPC   PO415792  33.186   0.879   9.507
 1006POPC   GL115793  33.191   1.193   9.210
 1006POPC   GL215794  33.390   1.017   8.996
 1006POPC   C1A15795  33.098   1.418   8.826
 1006POPC   D2A15796  32.881   1.489   8.423
 1006POPC   C3A15797  33.011   1.310   8.054
 1006POPC   C4A15798  32.959   1.538   7.725
 1006POPC   C1B15799  33.055   0.883   8.807
 1006POPC   C2B15800  32.940   0.958   8.415
 1006POPC   C3B15801  32.750   0.848   8.013
 1006POPC   C4B15802  32.977   0.964   7.628
 1007POPC   NC315803  20.950  19.824   9.381
 1007POPC   PO415804  21.497  19.839   9.761
 1007POPC   GL115805  21.595  19.818   9.294
 1007POPC   GL215806  21.336  19.836   9.069
 1007POPC   C1A15807  21.769  19.677   8.871
 1007POPC   D2A15808  21.898  19.797   8.445
 1007POPC   C3A15809  21.696  19.690   8.073
 1007POPC   C4A15810  21.555  20.012   7.874
 1007POPC   C1B15811  21.158  19.680   8.683
 1007POPC   C2B15812  21.235  19.797   8.276
 1007POPC   C3B15813  21.052  19.971   7.911
 1007POPC   C4B15814  21.274  19.614   7.706
 1008POPC   NC315815  24.451   1.801   9.519
 1008POPC   PO415816  24.080   2.408   9.591
 1008POPC   GL115817  24.424   2.257   9.228
 1008POPC   GL215818  24.419   1.918   9.025
 1008POPC   C1A15819  24.732   2.239   8.818
 1008POPC   D2A15820  24.748   1.905   8.445
 1008POPC   C3A15821  24.680   1.931   7.979
 1008POPC   C4A15822  24.651   1.633   7.646
 1008POPC   C1B15823  24.235   2.248   8.749
 1008POPC   C2B15824  24.332   2.207   8.325
 1008POPC   C3B15825  24.189   1.879   8.064
 1008POPC   C4B15826  24.230   1.959   7.654
 1009POPC   NC315827   8.519  39.997   9.383
 1009POPC   PO415828   9.127  40.338   9.491
 1009POPC   GL115829   8.988  40.168   9.116
 1009POPC   GL215830   8.674  40.364   9.061
 1009POPC   C1A15831   9.124  39.927   8.735
 1009POPC   D2A15832   9.367  39.998   8.332
 1009POPC   C3A15833   9.126  39.871   7.926
 1009POPC   C4A15834   8.684  39.926   7.805
 1009POPC   C1B15835   8.825  40.342   8.664
 1009POPC   C2B15836   8.872  40.139   8.289
 1009POPC   C3B15837   8.940  40.364   7.909
 1009POPC   C4B15838   8.632  40.381   7.581
 1010POPC   NC315839  15.614   2.833   9.632
 1010POPC   PO415840  16.250   2.734   9.742
 1010POPC   GL115841  16.052   2.872   9.329
 1010POPC   GL215842  15.752   2.704   9.167
 1010POPC   C1A15843  16.023   2.985   8.852
 1010POPC   D2A15844  16.073   3.157   8.422
 1010POPC   C3A15845  16.054   2.892   8.045
 1010POPC   C4A15846  15.915   3.107   7.699
 1010POPC   C1B15847  15.675   2.527   8.756
 1010POPC   C2B15848  15.581   2.727   8.349
 1010POPC   C3B15849  15.585   2.590   7.904
 1010POPC   C4B15850  15.900   2.433   7.592
 1011POPC   NC315851  33.220   3.655   9.738
 1011POPC   PO415852  33.798   3.329   9.478
 1011POPC   GL115853  33.916   3.497   9.045
 1011POPC   GL215854  33.886   3.868   9.007
 1011POPC   C1A15855  33.853   3.296   8.626
 1011POPC   D2A15856  33.796   3.195   8.191
 1011POPC   C3A15857  33.943   3.468   7.878
 1011POPC   C4A15858  33.787   3.380   7.469
 1011POPC   C1B15859  33.589   3.730   8.725
 1011POPC   C2B15860  33.650   3.687   8.321
 1011POPC   C3B15861  33.486   3.699   7.952
 1011POPC   C4B15862  33.713   3.859   7.620
 1012POPC   NC315863  10.341  23.665   9.567
 1012POPC   PO415864  10.863  23.264   9.670
 1012POPC   GL115865  10.726  23.492   9.254
 1012POPC   GL215866  10.379  23.430   9.127
 1012POPC   C1A15867  10.661  23.801   8.883
 1012POPC   D2A15868  10.485  23.879   8.434
 1012POPC   C3A15869  10.602  23.850   7.985
 1012POPC   C4A15870  10.713  23.462   7.741
 1012POPC   C1B15871  10.360  23.430   8.691
 1012POPC   C2B15872  10.118  23.465   8.329
 1012POPC   C3B15873  10.233  23.503   7.954
 1012POPC   C4B15874  10.199  23.804   7.646
 1013POPC   NC315875  11.128  13.155   9.208
 1013POPC   PO415876  11.126  12.550   9.427
 1013POPC   GL115877  11.332  12.676   9.103
 1013POPC   GL215878  11.645  12.851   9.186
 1013POPC   C1A15879  11.207  12.598   8.693
 1013POPC   D2A15880  11.125  12.816   8.322
 1013POPC   C3A15881  11.038  12.673   7.929
 1013POPC   C4A15882  11.112  13.063   7.695
 1013POPC   C1B15883  11.573  12.993   8.764
 1013POPC   C2B15884  11.547  13.167   8.385
 1013POPC   C3B15885  11.508  12.999   8.002
 1013POPC   C4B15886  11.681  13.030   7.613
 1014POPC   NC315887  44.535  44.650   9.693
 1014POPC   PO415888   0.002  44.279   9.426
 1014POPC   GL115889  44.614  44.408   9.230
 1014POPC   GL215890  44.558  44.735   9.121
 1014POPC   C1A15891  44.549  44.376   8.782
 1014POPC   D2A15892  44.440  44.560   8.421
 1014POPC   C3A15893  44.605  44.505   8.052
 1014POPC   C4A15894  44.519  44.232   7.773
 1014POPC   C1B15895  44.649  44.956   8.672
 1014POPC   C2B15896  44.638  44.996   8.180
 1014POPC   C3B15897  44.660  44.944   7.693
 1014POPC   C4B15898  44.535   0.088   7.266
 1015POPC   NC315899  44.043  29.379   9.246
 1015POPC   PO415900  43.917  29.967   9.521
 1015POPC   GL115901  43.882  29.853   9.102
 1015POPC   GL215902  44.193  29.973   9.054
 1015POPC   C1A15903  43.794  30.064   8.722
 1015POPC   D2A15904  44.038  30.195   8.385
 1015POPC   C3A15905  43.884  29.991   7.979
 1015POPC   C4A15906  43.755  29.765   7.602
 1015POPC   C1B15907  44.427  30.252   8.786
 1015POPC   C2B15908  44.575  30.146   8.363
 1015POPC   C3B15909  44.378  30.062   7.970
 1015POPC   C4B15910  44.237  29.949   7.517
 1016POPC   NC315911  34.350  31.326   9.581
 1016POPC   PO415912  34.961  31.036   9.485
 1016POPC   GL115913  34.778  31.379   9.209
 1016POPC   GL215914  34.424  31.535   9.128
 1016POPC   C1A15915  34.744  31.417   8.772
 1016POPC   D2A15916  34.433  31.531   8.509
 1016POPC   C3A15917  34.570  31.572   8.089
 1016POPC   C4A15918  34.738  31.783   7.750
 1016POPC   C1B15919  34.355  31.125   8.923
 1016POPC   C2B15920  34.411  31.012   8.498
 1016POPC   C3B15921  34.307  31.118   8.086
 1016POPC   C4B15922  34.411  31.298   7.694
 1017POPC   NC315923  30.332  15.058   9.509
 1017POPC   PO415924  30.905  14.926   9.600
 1017POPC   GL115925  30.733  15.110   9.183
 1017POPC   GL215926  30.435  15.372   9.135
 1017POPC   C1A15927  30.899  14.996   8.776
 1017POPC   D2A15928  30.855  14.833   8.356
 1017POPC   C3A15929  30.891  15.180   8.080
 1017POPC   C4A15930  30.656  15.140   7.735
 1017POPC   C1B15931  30.496  15.307   8.719
 1017POPC   C2B15932  30.427  15.202   8.321
 1017POPC   C3B15933  30.476  15.526   8.006
 1017POPC   C4B15934  30.845  15.660   7.775
 1018POPC   NC315935  41.353  34.521   9.714
 1018POPC   PO415936  41.852  34.931   9.472
 1018POPC   GL115937  41.510  34.697   9.211
 1018POPC   GL215938  41.536  34.354   9.041
 1018POPC   C1A15939  41.268  34.692   8.801
 1018POPC   D2A15940  41.469  34.736   8.408
 1018POPC   C3A15941  41.451  34.510   8.044
 1018POPC   C4A15942  41.582  34.492   7.626
 1018POPC   C1B15943  41.781  34.105   8.749
 1018POPC   C2B15944  41.862  34.284   8.325
 1018POPC   C3B15945  41.931  34.242   7.887
 1018POPC   C4B15946  41.991  34.287   7.402
 1019POPC   NC315947  26.486  26.901   9.434
 1019POPC   PO415948  25.766  26.639   9.492
 1019POPC   GL115949  26.040  26.696   9.182
 1019POPC   GL215950  26.029  27.059   9.241
 1019POPC   C1A15951  26.108  26.622   8.741
 1019POPC   D2A15952  26.209  26.855   8.405
 1019POPC   C3A15953  26.034  26.950   7.990
 1019POPC   C4A15954  25.984  26.867   7.519
 1019POPC   C1B15955  26.149  27.162   8.829
 1019POPC   C2B15956  26.283  27.345   8.449
 1019POPC   C3B15957  26.282  27.397   8.032
 1019POPC   C4B15958  26.055  27.360   7.655
 1020POPC   NC315959  26.239  42.047   9.988
 1020POPC   PO415960  26.151  41.661   9.503
 1020POPC   GL115961  26.092  41.567   9.106
 1020POPC   GL215962  25.767  41.450   9.099
 1020POPC   C1A15963  26.172  41.565   8.692
 1020POPC   D2A15964  26.292  41.438   8.320
 1020POPC   C3A15965  26.130  41.744   8.021
 1020POPC   C4A15966  25.957  41.585   7.640
 1020POPC   C1B15967  25.656  41.563   8.744
 1020POPC   C2B15968  25.771  41.713   8.375
 1020POPC   C3B15969  25.607  41.572   8.005
 1020POPC   C4B15970  25.476  41.284   7.687
 1021POPC   NC315971   7.706  11.552   9.474
 1021POPC   PO415972   7.303  10.992   9.795
 1021POPC   GL115973   7.397  11.085   9.310
 1021POPC   GL215974   7.424  11.415   9.085
 1021POPC   C1A15975   7.272  10.998   8.852
 1021POPC   D2A15976   7.498  11.165   8.497
 1021POPC   C3A15977   7.377  11.095   8.046
 1021POPC   C4A15978   7.545  10.829   7.687
 1021POPC   C1B15979   7.419  11.691   8.685
 1021POPC   C2B15980   7.489  11.606   8.253
 1021POPC   C3B15981   7.800  11.364   8.066
 1021POPC   C4B15982   7.712  11.500   7.692
 1022POPC   NC315983  40.032  14.200   9.428
 1022POPC   PO415984  39.631  14.704   9.479
 1022POPC   GL115985  39.770  14.467   9.100
 1022POPC   GL215986  40.152  14.415   8.984
 1022POPC   C1A15987  39.757  14.391   8.679
 1022POPC   D2A15988  39.991  14.342   8.342
 1022POPC   C3A15989  39.867  14.059   8.058
 1022POPC   C4A15990  39.799  14.194   7.665
 1022POPC   C1B15991  40.185  14.721   8.640
 1022POPC   C2B15992  40.310  14.699   8.184
 1022POPC   C3B15993  40.289  14.349   7.916
 1022POPC   C4B15994  40.642  14.117   7.779
 1023POPC   NC315995  29.582  12.726   9.503
 1023POPC   PO415996  30.203  12.901   9.541
 1023POPC   GL115997  29.942  13.029   9.207
 1023POPC   GL215998  29.964  12.690   9.092
 1023POPC   C1A15999  29.889  13.061   8.742
 1023POPC   D2A16000  30.212  12.905   8.451
 1023POPC   C3A16001  30.175  13.010   8.027
 1023POPC   C4A16002  29.880  13.095   7.711
 1023POPC   C1B16003  29.597  12.650   8.841
 1023POPC   C2B16004  29.538  12.549   8.443
 1023POPC   C3B16005  29.712  12.783   8.133
 1023POPC   C4B16006  29.617  12.665   7.745
 1024POPC   NC316007  22.960  37.950   9.577
 1024POPC   PO416008  23.145  37.358   9.340
 1024POPC   GL116009  22.922  37.663   9.110
 1024POPC   GL216010  22.796  38.004   9.117
 1024POPC   C1A16011  22.774  37.708   8.704
 1024POPC   D2A16012  22.680  37.482   8.337
 1024POPC   C3A16013  22.917  37.559   7.995
 1024POPC   C4A16014  22.813  37.306   7.699
 1024POPC   C1B16015  22.919  38.195   8.700
 1024POPC   C2B16016  23.003  37.986   8.295
 1024POPC   C3B16017  23.045  38.037   7.845
 1024POPC   C4B16018  23.048  38.152   7.370
 1025POPC   NC316019  11.247  35.996   9.439
 1025POPC   PO416020  11.477  36.682   9.558
 1025POPC   GL116021  11.321  36.453   9.193
 1025POPC   GL216022  11.559  36.197   9.080
 1025POPC   C1A16023  11.141  36.277   8.805
 1025POPC   D2A16024  11.384  36.203   8.449
 1025POPC   C3A16025  11.224  36.168   8.071
 1025POPC   C4A16026  11.458  36.286   7.729
 1025POPC   C1B16027  11.437  35.846   8.795
 1025POPC   C2B16028  11.412  35.653   8.392
 1025POPC   C3B16029  11.500  35.722   7.959
 1025POPC   C4B16030  11.456  35.805   7.513
 1026POPC   NC316031  35.359  40.378   9.453
 1026POPC   PO416032  34.948  40.907   9.481
 1026POPC   GL116033  35.226  40.870   9.130
 1026POPC   GL216034  35.106  40.555   9.049
 1026POPC   C1A16035  35.422  40.763   8.725
 1026POPC   D2A16036  35.533  40.991   8.354
 1026POPC   C3A16037  35.598  40.702   8.077
 1026POPC   C4A16038  35.673  40.756   7.640
 1026POPC   C1B16039  34.918  40.738   8.670
 1026POPC   C2B16040  35.049  40.834   8.254
 1026POPC   C3B16041  35.177  40.856   7.839
 1026POPC   C4B16042  34.968  40.897   7.457
 1027POPC   NC316043  31.087  43.344   9.545
 1027POPC   PO416044  30.523  42.952   9.519
 1027POPC   GL116045  30.277  42.966   9.116
 1027POPC   GL216046  30.292  42.600   9.078
 1027POPC   C1A16047  30.318  43.274   8.739
 1027POPC   D2A16048  30.380  43.422   8.293
 1027POPC   C3A16049  30.476  43.098   7.962
 1027POPC   C4A16050  30.452  43.107   7.476
 1027POPC   C1B16051  30.438  42.760   8.674
 1027POPC   C2B16052  30.713  43.028   8.442
 1027POPC   C3B16053  30.980  42.952   8.096
 1027POPC   C4B16054  30.923  43.121   7.702
 1028POPC   NC316055  29.010  42.605   9.326
 1028POPC   PO416056  29.258  41.989   9.463
 1028POPC   GL116057  29.144  42.167   9.092
 1028POPC   GL216058  29.387  42.462   9.019
 1028POPC   C1A16059  29.247  42.072   8.672
 1028POPC   D2A16060  29.148  42.212   8.260
 1028POPC   C3A16061  29.255  42.033   7.874
 1028POPC   C4A16062  29.471  42.164   7.473
 1028POPC   C1B16063  29.269  42.594   8.613
 1028POPC   C2B16064  29.467  42.626   8.198
 1028POPC   C3B16065  29.208  42.544   7.865
 1028POPC   C4B16066  28.835  42.734   7.788
 1029POPC   NC316067   5.174   5.336   9.480
 1029POPC   PO416068   4.764   4.838   9.437
 1029POPC   GL116069   5.040   4.982   9.094
 1029POPC   GL216070   5.415   4.938   9.125
 1029POPC   C1A16071   5.086   4.751   8.691
 1029POPC   D2A16072   5.043   4.724   8.249
 1029POPC   C3A16073   5.288   4.850   7.935
 1029POPC   C4A16074   5.111   5.088   7.650
 1029POPC   C1B16075   5.396   5.154   8.751
 1029POPC   C2B16076   5.373   5.159   8.337
 1029POPC   C3B16077   5.185   5.409   8.037
 1029POPC   C4B16078   5.382   5.502   7.660
 1030POPC   NC316079  36.859  40.893   9.536
 1030POPC   PO416080  37.402  40.519   9.575
 1030POPC   GL116081  37.120  40.637   9.183
 1030POPC   GL216082  36.700  40.620   9.141
 1030POPC   C1A16083  36.963  40.873   8.816
 1030POPC   D2A16084  37.075  40.967   8.429
 1030POPC   C3A16085  36.921  40.715   8.120
 1030POPC   C4A16086  36.935  40.804   7.735
 1030POPC   C1B16087  36.707  40.461   8.658
 1030POPC   C2B16088  36.486  40.454   8.234
 1030POPC   C3B16089  36.602  40.412   7.778
 1030POPC   C4B16090  36.603  40.672   7.379
 1031POPC   NC316091  33.400  42.130   9.555
 1031POPC   PO416092  33.748  41.568   9.617
 1031POPC   GL116093  33.839  41.602   9.138
 1031POPC   GL216094  34.065  41.914   9.070
 1031POPC   C1A16095  34.023  41.344   8.764
 1031POPC   D2A16096  34.096  41.043   8.439
 1031POPC   C3A16097  33.871  41.160   8.069
 1031POPC   C4A16098  33.711  41.490   7.786
 1031POPC   C1B16099  33.868  41.812   8.668
 1031POPC   C2B16100  34.008  41.594   8.301
 1031POPC   C3B16101  34.102  41.793   7.921
 1031POPC   C4B16102  34.145  41.648   7.500
 1032POPC   NC316103  14.474  30.940   9.460
 1032POPC   PO416104  14.331  30.325   9.426
 1032POPC   GL116105  14.378  30.563   9.128
 1032POPC   GL216106  14.728  30.592   9.156
 1032POPC   C1A16107  14.367  30.832   8.808
 1032POPC   D2A16108  14.182  30.796   8.437
 1032POPC   C3A16109  14.165  31.127   8.171
 1032POPC   C4A16110  14.294  31.065   7.778
 1032POPC   C1B16111  14.810  30.475   8.762
 1032POPC   C2B16112  14.696  30.668   8.414
 1032POPC   C3B16113  14.490  30.616   8.052
 1032POPC   C4B16114  14.658  30.696   7.676
 1033POPC   NC316115   1.840  21.802   9.578
 1033POPC   PO416116   1.842  21.107   9.601
 1033POPC   GL116117   2.059  21.342   9.222
 1033POPC   GL216118   1.949  21.693   9.098
 1033POPC   C1A16119   2.103  21.359   8.760
 1033POPC   D2A16120   1.908  21.583   8.392
 1033POPC   C3A16121   2.069  21.501   7.954
 1033POPC   C4A16122   2.246  21.112   7.773
 1033POPC   C1B16123   2.198  21.866   8.725
 1033POPC   C2B16124   2.347  21.871   8.283
 1033POPC   C3B16125   2.146  21.991   7.867
 1033POPC   C4B16126   1.820  21.840   7.593
 1034POPC   NC316127  36.497  41.483   9.350
 1034POPC   PO416128  37.157  41.254   9.528
 1034POPC   GL116129  36.935  41.246   9.155
 1034POPC   GL216130  36.973  41.589   9.079
 1034POPC   C1A16131  36.690  41.306   8.765
 1034POPC   D2A16132  36.466  41.732   8.590
 1034POPC   C3A16133  36.533  41.797   8.171
 1034POPC   C4A16134  36.641  41.737   7.765
 1034POPC   C1B16135  36.964  41.694   8.619
 1034POPC   C2B16136  36.801  41.386   8.271
 1034POPC   C3B16137  36.893  41.304   7.840
 1034POPC   C4B16138  37.080  41.600   7.518
 1035POPC   NC316139  27.816  43.866   9.564
 1035POPC   PO416140  27.153  43.954   9.548
 1035POPC   GL116141  27.447  43.966   9.182
 1035POPC   GL216142  27.767  43.765   9.081
 1035POPC   C1A16143  27.378  43.847   8.764
 1035POPC   D2A16144  27.618  43.688   8.424
 1035POPC   C3A16145  27.413  43.884   8.116
 1035POPC   C4A16146  27.159  43.930   7.793
 1035POPC   C1B16147  27.928  43.997   8.733
 1035POPC   C2B16148  27.813  44.178   8.318
 1035POPC   C3B16149  27.877  43.964   7.915
 1035POPC   C4B16150  27.940  44.080   7.472
 1036POPC   NC316151  11.102  18.145   9.476
 1036POPC   PO416152  11.613  18.568   9.502
 1036POPC   GL116153  11.447  18.332   9.152
 1036POPC   GL216154  11.179  18.556   9.158
 1036POPC   C1A16155  11.401  18.365   8.713
 1036POPC   D2A16156  11.347  18.537   8.317
 1036POPC   C3A16157  11.539  18.262   8.016
 1036POPC   C4A16158  11.371  18.128   7.645
 1036POPC   C1B16159  10.981  18.680   8.769
 1036POPC   C2B16160  10.805  18.632   8.347
 1036POPC   C3B16161  10.925  18.522   7.920
 1036POPC   C4B16162  11.317  18.631   7.731
 1037POPC   NC316163  44.333  25.564   9.957
 1037POPC   PO416164  44.945  25.353   9.546
 1037POPC   GL116165  44.765  25.336   9.109
 1037POPC   GL216166  44.439  25.517   9.018
 1037POPC   C1A16167  44.898  25.322   8.668
 1037POPC   D2A16168  44.954  25.531   8.280
 1037POPC   C3A16169  44.701  25.400   7.953
 1037POPC   C4A16170  44.861  25.210   7.584
 1037POPC   C1B16171  44.429  25.120   8.773
 1037POPC   C2B16172  44.510  25.066   8.341
 1037POPC   C3B16173  44.501  24.950   7.900
 1037POPC   C4B16174  44.336  25.189   7.564
 1038POPC   NC316175  24.997   7.631   9.566
 1038POPC   PO416176  24.343   7.367   9.502
 1038POPC   GL116177  24.454   7.244   9.055
 1038POPC   GL216178  24.811   7.329   9.057
 1038POPC   C1A16179  24.488   7.214   8.599
 1038POPC   D2A16180  24.360   7.539   8.286
 1038POPC   C3A16181  24.507   7.468   7.883
 1038POPC   C4A16182  24.859   7.211   7.808
 1038POPC   C1B16183  24.632   7.689   8.789
 1038POPC   C2B16184  24.553   7.984   8.429
 1038POPC   C3B16185  24.487   7.988   7.976
 1038POPC   C4B16186  24.409   7.883   7.553
 1039POPC   NC316187  14.945  17.204   9.470
 1039POPC   PO416188  15.113  17.847   9.553
 1039POPC   GL116189  15.137  17.614   9.230
 1039POPC   GL216190  15.416  17.359   9.324
 1039POPC   C1A16191  14.927  17.478   8.830
 1039POPC   D2A16192  14.801  17.684   8.448
 1039POPC   C3A16193  14.974  17.518   8.084
 1039POPC   C4A16194  15.261  17.256   7.869
 1039POPC   C1B16195  15.444  17.489   8.884
 1039POPC   C2B16196  15.364  17.476   8.479
 1039POPC   C3B16197  15.628  17.522   8.152
 1039POPC   C4B16198  15.530  17.710   7.798
 1040POPC   NC316199  19.524  28.534   9.389
 1040POPC   PO416200  20.197  28.383   9.526
 1040POPC   GL116201  19.906  28.302   9.163
 1040POPC   GL216202  19.862  27.939   9.043
 1040POPC   C1A16203  19.724  28.315   8.706
 1040POPC   D2A16204  19.606  28.559   8.332
 1040POPC   C3A16205  19.558  28.479   7.886
 1040POPC   C4A16206  19.677  28.076   7.771
 1040POPC   C1B16207  20.203  28.149   8.814
 1040POPC   C2B16208  20.217  28.385   8.465
 1040POPC   C3B16209  20.027  28.391   8.085
 1040POPC   C4B16210  20.146  28.326   7.691
 1041POPC   NC316211  19.154  39.351   9.403
 1041POPC   PO416212  19.045  38.680   9.346
 1041POPC   GL116213  19.087  39.034   9.028
 1041POPC   GL216214  18.786  39.259   9.014
 1041POPC   C1A16215  19.384  39.191   8.717
 1041POPC   D2A16216  19.225  38.930   8.426
 1041POPC   C3A16217  19.293  38.889   8.021
 1041POPC   C4A16218  18.925  38.939   7.807
 1041POPC   C1B16219  18.988  39.536   8.710
 1041POPC   C2B16220  19.122  39.430   8.283
 1041POPC   C3B16221  18.850  39.468   7.922
 1041POPC   C4B16222  18.704  39.732   7.530
 1042POPC   NC316223  24.426  20.660   9.563
 1042POPC   PO416224  24.689  20.133   9.266
 1042POPC   GL116225  24.686  20.549   9.114
 1042POPC   GL216226  24.724  20.923   9.202
 1042POPC   C1A16227  24.382  20.662   8.827
 1042POPC   D2A16228  24.512  20.753   8.412
 1042POPC   C3A16229  24.550  20.400   8.160
 1042POPC   C4A16230  24.232  20.329   7.866
 1042POPC   C1B16231  24.727  21.035   8.798
 1042POPC   C2B16232  24.822  21.156   8.356
 1042POPC   C3B16233  24.734  20.954   7.960
 1042POPC   C4B16234  24.668  20.599   7.696
 1043POPC   NC316235  33.424  29.871   9.870
 1043POPC   PO416236  32.852  29.967   9.566
 1043POPC   GL116237  32.917  30.063   9.188
 1043POPC   GL216238  33.016  29.720   9.162
 1043POPC   C1A16239  32.778  29.963   8.782
 1043POPC   D2A16240  32.972  29.802   8.423
 1043POPC   C3A16241  32.732  29.973   8.075
 1043POPC   C4A16242  32.816  30.382   7.845
 1043POPC   C1B16243  33.005  29.486   8.826
 1043POPC   C2B16244  32.794  29.267   8.452
 1043POPC   C3B16245  32.931  29.477   8.048
 1043POPC   C4B16246  32.938  29.745   7.686
 1044POPC   NC316247   0.176  13.919   9.509
 1044POPC   PO416248   0.279  13.257   9.714
 1044POPC   GL116249   0.279  13.508   9.223
 1044POPC   GL216250   0.382  13.871   9.034
 1044POPC   C1A16251   0.149  13.523   8.749
 1044POPC   D2A16252   0.018  13.777   8.352
 1044POPC   C3A16253   0.047  13.588   7.952
 1044POPC   C4A16254   0.459  13.420   7.769
 1044POPC   C1B16255   0.775  13.965   8.751
 1044POPC   C2B16256   0.942  13.776   8.349
 1044POPC   C3B16257   0.802  13.797   7.928
 1044POPC   C4B16258   0.855  13.634   7.528
 1045POPC   NC316259  12.352  17.050   9.584
 1045POPC   PO416260  11.654  16.844   9.758
 1045POPC   GL116261  11.901  16.686   9.340
 1045POPC   GL216262  12.033  16.985   9.192
 1045POPC   C1A16263  12.117  16.604   8.892
 1045POPC   D2A16264  11.957  16.546   8.477
 1045POPC   C3A16265  12.116  16.628   8.112
 1045POPC   C4A16266  12.268  16.454   7.721
 1045POPC   C1B16267  12.425  17.040   8.938
 1045POPC   C2B16268  12.464  17.219   8.520
 1045POPC   C3B16269  12.405  17.049   8.122
 1045POPC   C4B16270  12.209  16.959   7.755
 1046POPC   NC316271  35.554   5.340   9.455
 1046POPC   PO416272  35.179   4.832   9.581
 1046POPC   GL116273  35.281   5.011   9.176
 1046POPC   GL216274  35.649   4.977   9.123
 1046POPC   C1A16275  35.161   5.045   8.750
 1046POPC   D2A16276  35.196   5.301   8.392
 1046POPC   C3A16277  35.056   5.045   8.101
 1046POPC   C4A16278  35.068   4.996   7.702
 1046POPC   C1B16279  35.677   5.139   8.711
 1046POPC   C2B16280  35.527   4.935   8.331
 1046POPC   C3B16281  35.524   5.138   7.935
 1046POPC   C4B16282  35.593   5.154   7.518
 1047POPC   NC316283   4.431  29.660   9.541
 1047POPC   PO416284   4.420  29.012   9.549
 1047POPC   GL116285   4.254  29.231   9.227
 1047POPC   GL216286   4.594  29.279   9.082
 1047POPC   C1A16287   4.149  29.284   8.795
 1047POPC   D2A16288   4.419  29.405   8.467
 1047POPC   C3A16289   4.244  29.242   8.074
 1047POPC   C4A16290   4.122  29.293   7.645
 1047POPC   C1B16291   4.632  28.920   8.770
 1047POPC   C2B16292   4.684  28.987   8.328
 1047POPC   C3B16293   4.661  29.002   7.890
 1047POPC   C4B16294   4.684  28.648   7.696
 1048POPC   NC316295   6.732  17.359   9.558
 1048POPC   PO416296   6.080  17.311   9.653
 1048POPC   GL116297   6.320  17.530   9.290
 1048POPC   GL216298   6.420  17.202   9.172
 1048POPC   C1A16299   6.522  17.606   8.847
 1048POPC   D2A16300   6.715  17.438   8.442
 1048POPC   C3A16301   6.559  17.561   8.035
 1048POPC   C4A16302   6.352  17.815   7.719
 1048POPC   C1B16303   6.813  17.186   8.927
 1048POPC   C2B16304   7.134  17.197   8.635
 1048POPC   C3B16305   7.108  17.192   8.198
 1048POPC   C4B16306   6.873  17.232   7.833
 1049POPC   NC316307   9.443  16.433   9.366
 1049POPC   PO416308   9.812  16.894   9.643
 1049POPC   GL116309   9.851  16.709   9.219
 1049POPC   GL216310   9.561  16.885   9.103
 1049POPC   C1A16311   9.781  16.521   8.765
 1049POPC   D2A16312   9.855  16.712   8.350
 1049POPC   C3A16313   9.743  16.648   7.898
 1049POPC   C4A16314   9.782  16.639   7.435
 1049POPC   C1B16315   9.913  17.033   8.846
 1049POPC   C2B16316   9.952  17.205   8.454
 1049POPC   C3B16317   9.862  17.140   8.039
 1049POPC   C4B16318   9.884  17.112   7.625
 1050POPC   NC316319   3.283  13.075   9.392
 1050POPC   PO416320   3.493  12.378   9.382
 1050POPC   GL116321   3.299  12.660   9.105
 1050POPC   GL216322   3.613  12.811   9.075
 1050POPC   C1A16323   3.250  12.965   8.727
 1050POPC   D2A16324   3.324  12.809   8.295
 1050POPC   C3A16325   3.226  13.006   7.909
 1050POPC   C4A16326   3.251  12.714   7.545
 1050POPC   C1B16327   3.691  12.731   8.646
 1050POPC   C2B16328   3.745  13.124   8.432
 1050POPC   C3B16329   3.691  13.232   8.004
 1050POPC   C4B16330   3.669  13.040   7.611
 1051POPC   NC316331  16.239  15.994   9.585
 1051POPC   PO416332  15.621  15.891   9.451
 1051POPC   GL116333  15.849  16.043   9.101
 1051POPC   GL216334  16.123  16.253   9.121
 1051POPC   C1A16335  16.010  16.042   8.670
 1051POPC   D2A16336  16.049  15.902   8.262
 1051POPC   C3A16337  15.776  15.854   7.885
 1051POPC   C4A16338  15.878  15.815   7.445
 1051POPC   C1B16339  16.319  16.436   8.735
 1051POPC   C2B16340  16.449  16.485   8.311
 1051POPC   C3B16341  16.458  16.139   8.068
 1051POPC   C4B16342  16.256  15.955   7.782
 1052POPC   NC316343   4.564   3.721   9.561
 1052POPC   PO416344   3.896   3.493   9.483
 1052POPC   GL116345   4.139   3.279   9.141
 1052POPC   GL216346   4.497   3.366   9.167
 1052POPC   C1A16347   4.264   3.341   8.727
 1052POPC   D2A16348   4.258   3.108   8.403
 1052POPC   C3A16349   4.327   3.346   8.061
 1052POPC   C4A16350   4.005   3.359   7.761
 1052POPC   C1B16351   4.613   3.697   8.857
 1052POPC   C2B16352   4.731   3.707   8.424
 1052POPC   C3B16353   4.685   3.758   7.973
 1052POPC   C4B16354   4.404   3.663   7.675
 1053POPC   NC316355  34.561  19.278   9.622
 1053POPC   PO416356  34.351  18.625   9.761
 1053POPC   GL116357  34.461  18.747   9.296
 1053POPC   GL216358  34.425  19.058   9.180
 1053POPC   C1A16359  34.685  18.709   8.857
 1053POPC   D2A16360  34.591  18.716   8.407
 1053POPC   C3A16361  34.789  18.668   7.983
 1053POPC   C4A16362  34.560  18.660   7.629
 1053POPC   C1B16363  34.541  19.237   8.797
 1053POPC   C2B16364  34.416  19.185   8.389
 1053POPC   C3B16365  34.410  19.011   7.979
 1053POPC   C4B16366  34.388  19.133   7.548
 1054POPC   NC316367   5.322  29.857   9.505
 1054POPC   PO416368   4.608  30.085   9.516
 1054POPC   GL116369   4.884  29.768   9.283
 1054POPC   GL216370   5.031  30.035   9.105
 1054POPC   C1A16371   4.917  29.624   8.829
 1054POPC   D2A16372   5.196  29.833   8.502
 1054POPC   C3A16373   5.247  29.679   8.069
 1054POPC   C4A16374   5.041  29.791   7.722
 1054POPC   C1B16375   5.358  30.193   8.815
 1054POPC   C2B16376   5.538  30.201   8.447
 1054POPC   C3B16377   5.303  30.165   8.069
 1054POPC   C4B16378   5.490  30.027   7.719
 1055POPC   NC316379  27.448   7.076   9.619
 1055POPC   PO416380  27.743   7.589   9.789
 1055POPC   GL116381  27.636   7.620   9.298
 1055POPC   GL216382  27.538   7.303   9.188
 1055POPC   C1A16383  27.774   7.552   8.840
 1055POPC   D2A16384  27.746   7.342   8.427
 1055POPC   C3A16385  27.644   7.583   8.058
 1055POPC   C4A16386  27.525   7.430   7.640
 1055POPC   C1B16387  27.334   7.253   8.815
 1055POPC   C2B16388  27.233   7.404   8.408
 1055POPC   C3B16389  27.298   7.206   8.038
 1055POPC   C4B16390  27.683   7.023   7.887
 1056POPC   NC316391  21.566  39.612   9.640
 1056POPC   PO416392  21.225  40.151   9.661
 1056POPC   GL116393  21.232  40.207   9.222
 1056POPC   GL216394  21.447  39.905   9.163
 1056POPC   C1A16395  21.214  40.099   8.761
 1056POPC   D2A16396  21.553  40.172   8.444
 1056POPC   C3A16397  21.480  40.073   8.017
 1056POPC   C4A16398  21.736  40.336   7.763
 1056POPC   C1B16399  21.570  39.745   8.739
 1056POPC   C2B16400  21.254  39.751   8.385
 1056POPC   C3B16401  21.277  39.552   8.016
 1056POPC   C4B16402  21.492  39.582   7.627
 1057POPC   NC316403  32.441  28.566   9.508
 1057POPC   PO416404  31.810  28.402   9.544
 1057POPC   GL116405  32.122  28.289   9.183
 1057POPC   GL216406  32.512  28.208   9.149
 1057POPC   C1A16407  32.271  28.353   8.736
 1057POPC   D2A16408  32.207  28.180   8.333
 1057POPC   C3A16409  32.050  28.405   7.983
 1057POPC   C4A16410  32.179  28.254   7.597
 1057POPC   C1B16411  32.748  28.510   8.870
 1057POPC   C2B16412  32.599  28.714   8.501
 1057POPC   C3B16413  32.557  28.506   8.091
 1057POPC   C4B16414  32.441  28.673   7.707
 1058POPC   NC316415  30.663  26.321   9.487
 1058POPC   PO416416  30.412  25.670   9.409
 1058POPC   GL116417  30.668  25.919   9.108
 1058POPC   GL216418  31.029  25.805   9.006
 1058POPC   C1A16419  30.621  26.227   8.827
 1058POPC   D2A16420  30.377  26.270   8.499
 1058POPC   C3A16421  30.611  26.192   8.156
 1058POPC   C4A16422  30.768  26.102   7.783
 1058POPC   C1B16423  31.094  26.086   8.688
 1058POPC   C2B16424  31.123  25.952   8.261
 1058POPC   C3B16425  31.266  25.931   7.864
 1058POPC   C4B16426  31.066  25.762   7.515
 1059POPC   NC316427  24.299  43.313   9.565
 1059POPC   PO416428  24.806  42.911   9.445
 1059POPC   GL116429  24.553  43.123   9.178
 1059POPC   GL216430  24.218  42.957   9.207
 1059POPC   C1A16431  24.652  43.328   8.827
 1059POPC   D2A16432  24.904  43.199   8.495
 1059POPC   C3A16433  24.719  43.135   8.120
 1059POPC   C4A16434  24.844  42.938   7.745
 1059POPC   C1B16435  24.273  42.929   8.777
 1059POPC   C2B16436  24.266  42.991   8.365
 1059POPC   C3B16437  24.120  42.952   7.974
 1059POPC   C4B16438  24.368  43.176   7.766
 1060POPC   NC316439   0.558  26.807   9.560
 1060POPC   PO416440  44.881  26.962   9.726
 1060POPC   GL116441   0.010  26.986   9.260
 1060POPC   GL216442   0.253  26.709   9.172
 1060POPC   C1A16443   0.285  27.100   8.865
 1060POPC   D2A16444   0.555  27.012   8.513
 1060POPC   C3A16445   0.409  27.132   8.115
 1060POPC   C4A16446   0.549  26.951   7.732
 1060POPC   C1B16447   0.409  26.579   8.754
 1060POPC   C2B16448   0.343  26.450   8.331
 1060POPC   C3B16449   0.453  26.502   7.913
 1060POPC   C4B16450   0.452  26.509   7.442
 1061POPC   NC316451   5.568  37.909   9.677
 1061POPC   PO416452   5.857  37.333   9.730
 1061POPC   GL116453   5.682  37.519   9.276
 1061POPC   GL216454   5.566  37.875   9.184
 1061POPC   C1A16455   5.741  37.602   8.797
 1061POPC   D2A16456   5.905  37.807   8.404
 1061POPC   C3A16457   5.896  37.568   8.002
 1061POPC   C4A16458   6.125  37.488   7.592
 1061POPC   C1B16459   5.366  37.964   8.790
 1061POPC   C2B16460   5.505  38.123   8.378
 1061POPC   C3B16461   5.709  38.070   8.000
 1061POPC   C4B16462   5.705  37.847   7.601
 1062POPC   NC316463   6.342  26.215   9.451
 1062POPC   PO416464   6.744  25.772   9.523
 1062POPC   GL116465   6.592  25.894   9.126
 1062POPC   GL216466   6.595  26.266   9.014
 1062POPC   C1A16467   6.587  25.875   8.678
 1062POPC   D2A16468   6.783  26.046   8.319
 1062POPC   C3A16469   6.753  25.733   8.006
 1062POPC   C4A16470   6.918  25.665   7.610
 1062POPC   C1B16471   6.229  26.490   8.815
 1062POPC   C2B16472   6.140  26.580   8.396
 1062POPC   C3B16473   6.455  26.427   8.139
 1062POPC   C4B16474   6.475  26.120   7.797
 1063POPC   NC316475  31.564  33.297   9.848
 1063POPC   PO416476  31.729  33.953   9.608
 1063POPC   GL116477  31.549  33.627   9.332
 1063POPC   GL216478  31.255  33.645   9.079
 1063POPC   C1A16479  31.741  33.579   8.938
 1063POPC   D2A16480  31.859  33.606   8.481
 1063POPC   C3A16481  31.669  33.676   8.083
 1063POPC   C4A16482  31.863  33.570   7.680
 1063POPC   C1B16483  31.377  33.784   8.657
 1063POPC   C2B16484  31.165  33.821   8.286
 1063POPC   C3B16485  31.283  33.993   7.933
 1063POPC   C4B16486  31.577  34.261   7.830
 1064POPC   NC316487  29.625  39.781   9.349
 1064POPC   PO416488  30.075  39.212   9.434
 1064POPC   GL116489  29.977  39.436   9.086
 1064POPC   GL216490  29.667  39.326   9.124
 1064POPC   C1A16491  30.002  39.162   8.714
 1064POPC   D2A16492  29.901  38.976   8.311
 1064POPC   C3A16493  30.218  39.077   8.007
 1064POPC   C4A16494  30.241  39.025   7.589
 1064POPC   C1B16495  29.564  39.425   8.743
 1064POPC   C2B16496  29.800  39.535   8.397
 1064POPC   C3B16497  29.829  39.390   7.992
 1064POPC   C4B16498  29.760  39.225   7.572
 1065POPC   NC316499  31.004  32.159   9.388
 1065POPC   PO416500  31.626  32.253   9.718
 1065POPC   GL116501  31.578  32.317   9.241
 1065POPC   GL216502  31.272  32.346   9.026
 1065POPC   C1A16503  31.705  32.508   8.840
 1065POPC   D2A16504  31.772  32.401   8.407
 1065POPC   C3A16505  31.471  32.291   8.101
 1065POPC   C4A16506  31.544  32.381   7.719
 1065POPC   C1B16507  31.507  32.047   8.762
 1065POPC   C2B16508  31.494  31.860   8.360
 1065POPC   C3B16509  31.272  31.779   7.959
 1065POPC   C4B16510  31.270  31.997   7.538
 1066POPC   NC316511  43.983  34.024   9.826
 1066POPC   PO416512  43.531  33.526   9.578
 1066POPC   GL116513  43.924  33.651   9.282
 1066POPC   GL216514  44.208  33.880   9.135
 1066POPC   C1A16515  43.993  33.552   8.821
 1066POPC   D2A16516  43.877  33.728   8.439
 1066POPC   C3A16517  44.108  33.673   8.060
 1066POPC   C4A16518  44.009  33.743   7.631
 1066POPC   C1B16519  43.923  34.096   8.795
 1066POPC   C2B16520  43.769  34.231   8.375
 1066POPC   C3B16521  43.968  34.169   7.980
 1066POPC   C4B16522  43.818  34.208   7.575
 1067POPC   NC316523  37.759   7.431   9.741
 1067POPC   PO416524  37.267   7.266   9.294
 1067POPC   GL116525  37.562   7.341   9.023
 1067POPC   GL216526  37.848   7.418   9.203
 1067POPC   C1A16527  37.545   7.323   8.587
 1067POPC   D2A16528  37.264   7.362   8.288
 1067POPC   C3A16529  37.401   7.138   7.956
 1067POPC   C4A16530  37.388   7.408   7.640
 1067POPC   C1B16531  37.886   7.659   8.812
 1067POPC   C2B16532  37.922   7.777   8.394
 1067POPC   C3B16533  37.724   7.594   8.039
 1067POPC   C4B16534  37.862   7.262   7.776
 1068POPC   NC316535   0.987  24.224   9.428
 1068POPC   PO416536   0.390  24.613   9.489
 1068POPC   GL116537   0.561  24.382   9.161
 1068POPC   GL216538   0.302  24.544   8.960
 1068POPC   C1A16539   0.779  24.504   8.784
 1068POPC   D2A16540   0.570  24.768   8.483
 1068POPC   C3A16541   0.548  24.530   8.116
 1068POPC   C4A16542   0.825  24.336   7.826
 1068POPC   C1B16543  44.970  24.310   8.771
 1068POPC   C2B16544   0.030  24.090   8.387
 1068POPC   C3B16545   0.008  24.237   7.950
 1068POPC   C4B16546   0.317  24.394   7.674
 1069POPC   NC316547  10.023  35.021   9.464
 1069POPC   PO416548   9.586  34.537   9.548
 1069POPC   GL116549   9.822  34.599   9.165
 1069POPC   GL216550  10.177  34.605   9.182
 1069POPC   C1A16551   9.850  34.413   8.756
 1069POPC   D2A16552   9.582  34.552   8.429
 1069POPC   C3A16553   9.691  34.513   7.994
 1069POPC   C4A16554   9.601  34.709   7.605
 1069POPC   C1B16555  10.200  34.803   8.761
 1069POPC   C2B16556  10.064  34.744   8.304
 1069POPC   C3B16557  10.026  34.866   7.844
 1069POPC   C4B16558   9.970  35.009   7.395
 1070POPC   NC316559   0.279  18.851   9.392
 1070POPC   PO416560   0.768  19.348   9.564
 1070POPC   GL116561   0.520  19.292   9.182
 1070POPC   GL216562   0.582  18.982   9.011
 1070POPC   C1A16563   0.326  19.381   8.793
 1070POPC   D2A16564   0.365  19.350   8.358
 1070POPC   C3A16565   0.298  18.986   8.137
 1070POPC   C4A16566   0.633  19.136   7.917
 1070POPC   C1B16567   0.305  18.860   8.666
 1070POPC   C2B16568   0.464  18.541   8.353
 1070POPC   C3B16569   0.676  18.620   7.938
 1070POPC   C4B16570   0.511  18.737   7.533
 1071POPC   NC316571  37.888  19.624   9.679
 1071POPC   PO416572  38.386  20.074   9.552
 1071POPC   GL116573  38.281  19.939   9.179
 1071POPC   GL216574  38.307  19.640   9.257
 1071POPC   C1A16575  38.424  19.968   8.792
 1071POPC   D2A16576  38.600  19.800   8.458
 1071POPC   C3A16577  38.433  19.937   8.109
 1071POPC   C4A16578  38.456  19.721   7.765
 1071POPC   C1B16579  38.135  19.503   8.867
 1071POPC   C2B16580  38.057  19.645   8.449
 1071POPC   C3B16581  38.108  19.511   8.050
 1071POPC   C4B16582  38.018  19.499   7.609
 1072POPC   NC316583  29.219  33.597   9.669
 1072POPC   PO416584  28.953  34.075   9.499
 1072POPC   GL116585  29.236  33.819   9.188
 1072POPC   GL216586  29.519  33.580   9.166
 1072POPC   C1A16587  29.173  33.705   8.755
 1072POPC   D2A16588  29.306  33.861   8.337
 1072POPC   C3A16589  28.991  33.834   8.022
 1072POPC   C4A16590  28.944  33.576   7.690
 1072POPC   C1B16591  29.671  33.707   8.736
 1072POPC   C2B16592  29.621  33.472   8.293
 1072POPC   C3B16593  29.347  33.310   7.922
 1072POPC   C4B16594  29.124  33.120   7.517
 1073POPC   NC316595  21.561  17.730   9.592
 1073POPC   PO416596  20.962  17.626   9.273
 1073POPC   GL116597  21.310  17.479   9.059
 1073POPC   GL216598  21.567  17.760   9.076
 1073POPC   C1A16599  21.286  17.349   8.621
 1073POPC   D2A16600  21.332  17.160   8.244
 1073POPC   C3A16601  21.306  17.406   7.875
 1073POPC   C4A16602  21.706  17.356   7.697
 1073POPC   C1B16603  21.356  17.838   8.691
 1073POPC   C2B16604  21.423  17.775   8.246
 1073POPC   C3B16605  21.499  17.892   7.824
 1073POPC   C4B16606  21.236  17.750   7.474
 1074POPC   NC316607  19.330  17.746   9.525
 1074POPC   PO416608  18.724  17.481   9.488
 1074POPC   GL116609  19.051  17.486   9.177
 1074POPC   GL216610  18.978  17.830   9.158
 1074POPC   C1A16611  19.188  17.303   8.780
 1074POPC   D2A16612  18.818  17.210   8.528
 1074POPC   C3A16613  18.773  17.428   8.162
 1074POPC   C4A16614  19.132  17.549   7.940
 1074POPC   C1B16615  19.144  17.803   8.742
 1074POPC   C2B16616  19.334  17.961   8.388
 1074POPC   C3B16617  19.214  18.064   7.983
 1074POPC   C4B16618  19.031  17.941   7.618
 1075POPC   NC316619   7.359  12.382   9.389
 1075POPC   PO416620   7.260  11.746   9.471
 1075POPC   GL116621   7.503  11.939   9.141
 1075POPC   GL216622   7.860  12.026   9.248
 1075POPC   C1A16623   7.361  12.197   8.772
 1075POPC   D2A16624   7.135  12.191   8.394
 1075POPC   C3A16625   7.276  12.020   8.008
 1075POPC   C4A16626   7.512  12.325   7.845
 1075POPC   C1B16627   7.868  12.052   8.790
 1075POPC   C2B16628   7.665  12.083   8.379
 1075POPC   C3B16629   7.864  11.979   8.010
 1075POPC   C4B16630   8.008  12.359   7.764
 1076POPC   NC316631   9.247  20.371   9.909
 1076POPC   PO416632   9.262  20.825   9.370
 1076POPC   GL116633   8.939  20.612   9.073
 1076POPC   GL216634   8.778  20.272   9.128
 1076POPC   C1A16635   8.873  20.510   8.645
 1076POPC   D2A16636   8.643  20.617   8.260
 1076POPC   C3A16637   8.932  20.892   8.035
 1076POPC   C4A16638   8.956  20.964   7.597
 1076POPC   C1B16639   8.629  20.084   8.755
 1076POPC   C2B16640   8.783  20.075   8.331
 1076POPC   C3B16641   8.692  20.214   7.902
 1076POPC   C4B16642   8.838  20.301   7.447
 1077POPC   NC316643  25.525  30.006   9.519
 1077POPC   PO416644  24.888  30.329   9.465
 1077POPC   GL116645  25.101  30.101   9.155
 1077POPC   GL216646  25.411  30.232   9.098
 1077POPC   C1A16647  25.153  29.871   8.779
 1077POPC   D2A16648  24.976  29.971   8.394
 1077POPC   C3A16649  25.071  29.760   8.019
 1077POPC   C4A16650  25.218  29.946   7.547
 1077POPC   C1B16651  25.628  30.090   8.760
 1077POPC   C2B16652  25.493  29.939   8.391
 1077POPC   C3B16653  25.485  30.045   8.003
 1077POPC   C4B16654  25.511  29.643   7.825
 1078POPC   NC316655  39.505  36.255   9.444
 1078POPC   PO416656  38.903  35.889   9.542
 1078POPC   GL116657  38.896  36.098   9.147
 1078POPC   GL216658  38.718  35.824   9.018
 1078POPC   C1A16659  39.216  36.247   8.802
 1078POPC   D2A16660  39.604  36.155   8.520
 1078POPC   C3A16661  39.594  36.229   8.077
 1078POPC   C4A16662  39.313  36.227   7.749
 1078POPC   C1B16663  38.796  36.013   8.603
 1078POPC   C2B16664  39.159  35.993   8.335
 1078POPC   C3B16665  39.188  35.786   7.960
 1078POPC   C4B16666  38.771  35.847   7.772
 1079POPC   NC316667  41.229  28.771   9.317
 1079POPC   PO416668  41.776  28.910   9.707
 1079POPC   GL116669  41.715  29.040   9.288
 1079POPC   GL216670  41.458  29.335   9.232
 1079POPC   C1A16671  41.782  29.111   8.853
 1079POPC   D2A16672  41.582  28.981   8.480
 1079POPC   C3A16673  41.806  29.127   8.131
 1079POPC   C4A16674  41.684  29.085   7.707
 1079POPC   C1B16675  41.309  29.359   8.790
 1079POPC   C2B16676  41.392  29.434   8.340
 1079POPC   C3B16677  41.290  29.138   8.013
 1079POPC   C4B16678  41.217  29.271   7.582
 1080POPC   NC316679   5.782  26.476   9.455
 1080POPC   PO416680   6.065  25.845   9.503
 1080POPC   GL116681   5.855  26.037   9.187
 1080POPC   GL216682   6.116  26.002   8.970
 1080POPC   C1A16683   5.609  26.132   8.823
 1080POPC   D2A16684   5.684  25.981   8.403
 1080POPC   C3A16685   5.665  26.223   8.005
 1080POPC   C4A16686   6.014  26.442   7.861
 1080POPC   C1B16687   6.141  25.634   8.709
 1080POPC   C2B16688   6.011  25.561   8.310
 1080POPC   C3B16689   6.071  25.900   8.045
 1080POPC   C4B16690   5.950  25.980   7.643
 1081POPC   NC316691  40.371   2.015   9.422
 1081POPC   PO416692  39.714   2.345   9.522
 1081POPC   GL116693  39.889   2.212   9.152
 1081POPC   GL216694  39.765   1.893   9.086
 1081POPC   C1A16695  40.160   2.095   8.803
 1081POPC   D2A16696  40.177   1.838   8.466
 1081POPC   C3A16697  40.140   2.077   8.103
 1081POPC   C4A16698  40.287   1.977   7.695
 1081POPC   C1B16699  39.708   1.742   8.662
 1081POPC   C2B16700  39.682   1.890   8.244
 1081POPC   C3B16701  39.778   1.894   7.791
 1081POPC   C4B16702  39.581   1.897   7.394
 1082POPC   NC316703   2.158   4.252   9.705
 1082POPC   PO416704   1.699   4.597   9.493
 1082POPC   GL116705   1.924   4.332   9.194
 1082POPC   GL216706   2.275   4.324   9.213
 1082POPC   C1A16707   1.906   4.539   8.789
 1082POPC   D2A16708   1.708   4.518   8.396
 1082POPC   C3A16709   1.984   4.319   8.127
 1082POPC   C4A16710   1.986   4.353   7.688
 1082POPC   C1B16711   2.330   4.214   8.794
 1082POPC   C2B16712   2.482   4.307   8.383
 1082POPC   C3B16713   2.437   4.217   7.942
 1082POPC   C4B16714   2.178   3.888   7.830
 1083POPC   NC316715  42.217  27.165   9.489
 1083POPC   PO416716  42.522  26.511   9.510
 1083POPC   GL116717  42.313  26.762   9.166
 1083POPC   GL216718  42.061  26.593   8.983
 1083POPC   C1A16719  42.333  27.106   8.837
 1083POPC   D2A16720  42.394  27.227   8.404
 1083POPC   C3A16721  42.615  26.884   8.204
 1083POPC   C4A16722  42.713  26.679   7.790
 1083POPC   C1B16723  41.921  26.861   8.706
 1083POPC   C2B16724  42.097  26.825   8.319
 1083POPC   C3B16725  42.203  26.741   7.904
 1083POPC   C4B16726  42.049  26.511   7.576
 1084POPC   NC316727   4.249  13.177   9.627
 1084POPC   PO416728   4.026  13.885   9.567
 1084POPC   GL116729   4.300  13.660   9.301
 1084POPC   GL216730   4.121  13.369   9.191
 1084POPC   C1A16731   4.616  13.668   8.974
 1084POPC   D2A16732   4.585  13.816   8.564
 1084POPC   C3A16733   4.635  13.634   8.159
 1084POPC   C4A16734   4.388  13.739   7.798
 1084POPC   C1B16735   4.178  13.469   8.795
 1084POPC   C2B16736   4.394  13.327   8.477
 1084POPC   C3B16737   4.202  13.297   8.114
 1084POPC   C4B16738   4.156  13.205   7.716
 1085POPC   NC316739  29.510  14.907   9.280
 1085POPC   PO416740  29.968  15.313   9.609
 1085POPC   GL116741  29.946  15.165   9.156
 1085POPC   GL216742  29.644  15.205   8.899
 1085POPC   C1A16743  30.091  15.011   8.768
 1085POPC   D2A16744  29.882  15.090   8.355
 1085POPC   C3A16745  30.095  15.152   7.943
 1085POPC   C4A16746  30.193  15.418   7.593
 1085POPC   C1B16747  29.646  14.766   8.680
 1085POPC   C2B16748  29.679  14.546   8.322
 1085POPC   C3B16749  29.705  14.789   7.955
 1085POPC   C4B16750  30.012  14.766   7.616
 1086POPC   NC316751  38.186  30.060   9.462
 1086POPC   PO416752  38.839  29.827   9.540
 1086POPC   GL116753  38.585  29.906   9.158
 1086POPC   GL216754  38.626  30.277   9.156
 1086POPC   C1A16755  38.609  29.687   8.729
 1086POPC   D2A16756  38.876  29.653   8.352
 1086POPC   C3A16757  38.651  29.616   7.963
 1086POPC   C4A16758  38.363  29.890   7.770
 1086POPC   C1B16759  38.573  30.200   8.686
 1086POPC   C2B16760  38.589  30.078   8.240
 1086POPC   C3B16761  38.397  30.360   7.946
 1086POPC   C4B16762  38.190  30.359   7.585
 1087POPC   NC316763  31.735  27.956   9.389
 1087POPC   PO416764  31.491  27.322   9.619
 1087POPC   GL116765  31.549  27.491   9.178
 1087POPC   GL216766  31.322  27.765   9.103
 1087POPC   C1A16767  31.570  27.435   8.698
 1087POPC   D2A16768  31.775  27.208   8.337
 1087POPC   C3A16769  31.905  27.374   7.918
 1087POPC   C4A16770  31.644  27.392   7.539
 1087POPC   C1B16771  31.499  27.937   8.746
 1087POPC   C2B16772  31.310  27.920   8.321
 1087POPC   C3B16773  31.445  27.708   7.935
 1087POPC   C4B16774  31.419  27.840   7.514
 1088POPC   NC316775  15.868   7.901   9.187
 1088POPC   PO416776  16.230   8.148   9.708
 1088POPC   GL116777  16.177   8.415   9.254
 1088POPC   GL216778  15.891   8.540   9.099
 1088POPC   C1A16779  16.195   8.334   8.743
 1088POPC   D2A16780  16.045   7.988   8.480
 1088POPC   C3A16781  15.980   8.008   8.040
 1088POPC   C4A16782  16.018   8.348   7.763
 1088POPC   C1B16783  15.688   8.377   8.695
 1088POPC   C2B16784  15.556   8.181   8.369
 1088POPC   C3B16785  15.544   8.341   7.986
 1088POPC   C4B16786  15.577   8.049   7.664
 1089POPC   NC316787  24.342  21.720   9.654
 1089POPC   PO416788  24.401  21.131   9.527
 1089POPC   GL116789  24.527  21.447   9.205
 1089POPC   GL216790  24.224  21.582   9.141
 1089POPC   C1A16791  24.575  21.495   8.734
 1089POPC   D2A16792  24.335  21.242   8.471
 1089POPC   C3A16793  24.404  21.365   8.091
 1089POPC   C4A16794  24.432  21.269   7.685
 1089POPC   C1B16795  24.065  21.603   8.706
 1089POPC   C2B16796  24.163  21.798   8.307
 1089POPC   C3B16797  24.171  21.746   7.846
 1089POPC   C4B16798  24.380  21.725   7.454
 1090POPC   NC316799  39.328  11.428   9.503
 1090POPC   PO416800  38.815  11.066   9.371
 1090POPC   GL116801  39.114  11.134   9.094
 1090POPC   GL216802  39.024  11.478   9.089
 1090POPC   C1A16803  39.036  11.209   8.667
 1090POPC   D2A16804  39.198  11.505   8.391
 1090POPC   C3A16805  39.294  11.336   8.034
 1090POPC   C4A16806  39.036  11.304   7.702
 1090POPC   C1B16807  39.435  11.518   8.855
 1090POPC   C2B16808  39.584  11.798   8.519
 1090POPC   C3B16809  39.606  11.785   8.078
 1090POPC   C4B16810  39.415  11.693   7.695
 1091POPC   NC316811   0.382  18.197   9.453
 1091POPC   PO416812   0.892  17.830   9.505
 1091POPC   GL116813   0.606  17.902   9.104
 1091POPC   GL216814   0.204  18.060   9.013
 1091POPC   C1A16815   0.585  18.114   8.688
 1091POPC   D2A16816   0.261  18.048   8.374
 1091POPC   C3A16817   0.490  18.106   8.025
 1091POPC   C4A16818   0.582  18.243   7.610
 1091POPC   C1B16819   0.081  18.392   8.721
 1091POPC   C2B16820  44.967  18.633   8.328
 1091POPC   C3B16821   0.164  18.520   7.924
 1091POPC   C4B16822   0.088  18.137   7.712
 1092POPC   NC316823   9.619  43.632   9.612
 1092POPC   PO416824   9.717  44.315   9.432
 1092POPC   GL116825   9.606  43.975   9.212
 1092POPC   GL216826   9.892  43.760   9.214
 1092POPC   C1A16827   9.584  43.943   8.771
 1092POPC   D2A16828   9.796  43.990   8.384
 1092POPC   C3A16829   9.577  43.900   7.989
 1092POPC   C4A16830   9.675  44.119   7.599
 1092POPC   C1B16831  10.006  43.655   8.819
 1092POPC   C2B16832  10.198  43.640   8.435
 1092POPC   C3B16833  10.037  43.615   8.053
 1092POPC   C4B16834   9.921  43.636   7.673
 1093POPC   NC316835  27.209  40.912   9.419
 1093POPC   PO416836  27.910  40.975   9.452
 1093POPC   GL116837  27.750  40.882   9.055
 1093POPC   GL216838  27.895  41.178   8.941
 1093POPC   C1A16839  27.451  40.645   8.765
 1093POPC   D2A16840  27.186  40.430   8.445
 1093POPC   C3A16841  27.289  40.438   8.036
 1093POPC   C4A16842  27.277  40.434   7.564
 1093POPC   C1B16843  27.766  41.026   8.551
 1093POPC   C2B16844  27.651  40.714   8.266
 1093POPC   C3B16845  27.582  40.791   7.829
 1093POPC   C4B16846  27.767  40.767   7.446
 1094POPC   NC316847  16.587   2.972   9.510
 1094POPC   PO416848  17.118   2.714   9.245
 1094POPC   GL116849  16.728   2.813   9.027
 1094POPC   GL216850  16.774   3.164   9.045
 1094POPC   C1A16851  16.441   2.691   8.658
 1094POPC   D2A16852  16.462   2.362   8.301
 1094POPC   C3A16853  16.400   2.477   7.860
 1094POPC   C4A16854  16.667   2.496   7.477
 1094POPC   C1B16855  16.819   3.041   8.576
 1094POPC   C2B16856  16.543   2.954   8.216
 1094POPC   C3B16857  16.626   2.940   7.773
 1094POPC   C4B16858  17.042   2.828   7.573
 1095POPC   NC316859  31.362   6.931   9.618
 1095POPC   PO416860  31.587   6.321   9.540
 1095POPC   GL116861  31.592   6.514   9.160
 1095POPC   GL216862  31.325   6.736   9.151
 1095POPC   C1A16863  31.422   6.469   8.741
 1095POPC   D2A16864  31.348   6.690   8.417
 1095POPC   C3A16865  31.499   6.554   8.066
 1095POPC   C4A16866  31.380   6.654   7.695
 1095POPC   C1B16867  31.132   6.954   8.798
 1095POPC   C2B16868  31.117   7.144   8.413
 1095POPC   C3B16869  31.140   6.975   8.032
 1095POPC   C4B16870  31.091   7.166   7.661
 1096POPC   NC316871  20.193  37.867   9.603
 1096POPC   PO416872  19.685  37.435   9.646
 1096POPC   GL116873  19.916  37.583   9.263
 1096POPC   GL216874  19.700  37.795   9.114
 1096POPC   C1A16875  20.004  37.625   8.773
 1096POPC   D2A16876  20.067  37.885   8.382
 1096POPC   C3A16877  19.989  37.690   7.986
 1096POPC   C4A16878  19.735  37.304   7.885
 1096POPC   C1B16879  19.486  37.606   8.715
 1096POPC   C2B16880  19.543  37.636   8.231
 1096POPC   C3B16881  19.572  37.836   7.764
 1096POPC   C4B16882  19.689  37.850   7.284
 1097POPC   NC316883  36.144  31.102   9.441
 1097POPC   PO416884  36.449  31.625   9.683
 1097POPC   GL116885  36.086  31.539   9.222
 1097POPC   GL216886  35.763  31.735   9.202
 1097POPC   C1A16887  36.082  31.350   8.776
 1097POPC   D2A16888  35.876  31.276   8.347
 1097POPC   C3A16889  36.095  31.294   7.891
 1097POPC   C4A16890  35.973  31.212   7.425
 1097POPC   C1B16891  35.759  31.979   8.864
 1097POPC   C2B16892  35.848  31.772   8.490
 1097POPC   C3B16893  35.703  31.742   8.092
 1097POPC   C4B16894  35.950  31.781   7.722
 1098POPC   NC316895  40.799   9.440   9.304
 1098POPC   PO416896  41.181  10.081   9.456
 1098POPC   GL116897  41.103   9.811   9.104
 1098POPC   GL216898  41.219   9.502   9.049
 1098POPC   C1A16899  40.829   9.797   8.750
 1098POPC   D2A16900  40.877   9.826   8.303
 1098POPC   C3A16901  40.621   9.623   8.052
 1098POPC   C4A16902  40.445   9.827   7.751
 1098POPC   C1B16903  40.988   9.303   8.700
 1098POPC   C2B16904  41.046   9.314   8.279
 1098POPC   C3B16905  41.125   9.539   7.916
 1098POPC   C4B16906  40.826   9.520   7.574
 1099POPC   NC316907  44.937   5.994   9.519
 1099POPC   PO416908  44.276   6.114   9.479
 1099POPC   GL116909  44.575   6.098   9.175
 1099POPC   GL216910  44.512   5.782   9.023
 1099POPC   C1A16911  44.674   6.137   8.738
 1099POPC   D2A16912  44.773   5.951   8.369
 1099POPC   C3A16913  44.451   6.016   8.104
 1099POPC   C4A16914  44.563   6.065   7.702
 1099POPC   C1B16915  44.580   5.501   8.691
 1099POPC   C2B16916  44.497   5.505   8.258
 1099POPC   C3B16917  44.540   5.564   7.833
 1099POPC   C4B16918  44.779   5.630   7.487
 1100POPC   NC316919  11.597  41.560   9.547
 1100POPC   PO416920  12.177  41.328   9.537
 1100POPC   GL116921  12.082  41.604   9.181
 1100POPC   GL216922  12.108  41.317   9.003
 1100POPC   C1A16923  12.157  41.792   8.759
 1100POPC   D2A16924  12.111  41.857   8.301
 1100POPC   C3A16925  11.892  41.504   8.103
 1100POPC   C4A16926  11.701  41.435   7.688
 1100POPC   C1B16927  12.469  41.161   8.820
 1100POPC   C2B16928  12.448  41.114   8.417
 1100POPC   C3B16929  12.418  41.421   8.104
 1100POPC   C4B16930  12.187  41.357   7.723
 1101POPC   NC316931   9.650  15.725   9.353
 1101POPC   PO416932   9.950  16.340   9.551
 1101POPC   GL116933   9.829  16.168   9.138
 1101POPC   GL216934   9.486  16.073   9.004
 1101POPC   C1A16935   9.905  15.971   8.735
 1101POPC   D2A16936   9.681  16.045   8.369
 1101POPC   C3A16937   9.946  16.175   8.044
 1101POPC   C4A16938  10.237  15.960   7.816
 1101POPC   C1B16939   9.462  15.681   8.738
 1101POPC   C2B16940   9.507  15.535   8.320
 1101POPC   C3B16941   9.568  15.781   7.938
 1101POPC   C4B16942   9.475  16.212   7.866
 1102POPC   NC316943  34.531  26.391   9.440
 1102POPC   PO416944  34.930  26.835   9.628
 1102POPC   GL116945  34.806  26.757   9.208
 1102POPC   GL216946  34.425  26.786   9.150
 1102POPC   C1A16947  34.773  26.510   8.811
 1102POPC   D2A16948  34.575  26.607   8.423
 1102POPC   C3A16949  34.627  26.715   8.010
 1102POPC   C4A16950  34.536  26.799   7.591
 1102POPC   C1B16951  34.254  26.828   8.743
 1102POPC   C2B16952  34.144  26.887   8.302
 1102POPC   C3B16953  34.123  26.864   7.857
 1102POPC   C4B16954  34.096  27.000   7.399
 1103POPC   NC316955  31.407  37.994   9.534
 1103POPC   PO416956  31.464  37.362   9.741
 1103POPC   GL116957  31.500  37.499   9.295
 1103POPC   GL216958  31.817  37.456   9.223
 1103POPC   C1A16959  31.567  37.772   8.895
 1103POPC   D2A16960  31.407  37.814   8.445
 1103POPC   C3A16961  31.631  37.791   8.031
 1103POPC   C4A16962  31.248  37.797   7.774
 1103POPC   C1B16963  31.771  37.299   8.796
 1103POPC   C2B16964  31.665  37.363   8.365
 1103POPC   C3B16965  31.366  37.356   8.043
 1103POPC   C4B16966  31.521  37.383   7.620
 1104POPC   NC316967  34.359   1.976   9.530
 1104POPC   PO416968  35.021   2.000   9.370
 1104POPC   GL116969  34.646   1.998   9.114
 1104POPC   GL216970  34.489   1.686   9.016
 1104POPC   C1A16971  34.434   2.138   8.733
 1104POPC   D2A16972  34.495   1.899   8.350
 1104POPC   C3A16973  34.647   2.047   7.970
 1104POPC   C4A16974  34.984   1.810   7.817
 1104POPC   C1B16975  34.184   1.646   8.669
 1104POPC   C2B16976  33.979   1.879   8.320
 1104POPC   C3B16977  34.166   2.225   8.116
 1104POPC   C4B16978  34.180   1.950   7.774
 1105POPC   NC316979   7.030  33.513   9.481
 1105POPC   PO416980   6.274  33.609   9.478
 1105POPC   GL116981   6.563  33.809   9.159
 1105POPC   GL216982   6.907  33.729   9.064
 1105POPC   C1A16983   6.684  33.980   8.720
 1105POPC   D2A16984   6.838  33.743   8.385
 1105POPC   C3A16985   6.759  33.925   8.010
 1105POPC   C4A16986   6.588  33.867   7.630
 1105POPC   C1B16987   7.027  33.451   8.780
 1105POPC   C2B16988   7.039  33.271   8.365
 1105POPC   C3B16989   7.048  33.458   7.989
 1105POPC   C4B16990   7.083  33.694   7.629
 1106POPC   NC316991  25.779  38.372   9.462
 1106POPC   PO416992  26.431  38.391   9.682
 1106POPC   GL116993  26.246  38.278   9.252
 1106POPC   GL216994  26.291  38.569   9.134
 1106POPC   C1A16995  25.928  38.395   8.862
 1106POPC   D2A16996  25.926  38.230   8.502
 1106POPC   C3A16997  25.770  38.411   8.130
 1106POPC   C4A16998  25.964  38.301   7.764
 1106POPC   C1B16999  26.394  38.509   8.719
 1106POPC   C2B17000  26.189  38.657   8.362
 1106POPC   C3B17001  26.334  38.614   7.964
 1106POPC   C4B17002  26.227  38.748   7.545
 1107POPC   NC317003   7.984  43.365   9.635
 1107POPC   PO417004   8.223  43.973   9.812
 1107POPC   GL117005   8.120  43.906   9.347
 1107POPC   GL217006   7.908  43.652   9.211
 1107POPC   C1A17007   8.140  44.190   8.978
 1107POPC   D2A17008   8.224  44.153   8.522
 1107POPC   C3A17009   8.059  44.238   8.099
 1107POPC   C4A17010   8.161  44.090   7.646
 1107POPC   C1B17011   8.076  43.702   8.831
 1107POPC   C2B17012   8.235  43.462   8.526
 1107POPC   C3B17013   8.207  43.696   8.182
 1107POPC   C4B17014   8.351  43.649   7.757
 1108POPC   NC317015  16.870  15.246   9.791
 1108POPC   PO417016  16.387  15.201   9.336
 1108POPC   GL117017  16.748  15.114   9.088
 1108POPC   GL217018  16.993  15.381   8.978
 1108POPC   C1A17019  16.718  15.027   8.662
 1108POPC   D2A17020  16.489  15.140   8.294
 1108POPC   C3A17021  16.506  14.853   7.951
 1108POPC   C4A17022  16.923  14.814   7.749
 1108POPC   C1B17023  16.671  15.516   8.702
 1108POPC   C2B17024  16.931  15.443   8.359
 1108POPC   C3B17025  16.899  15.249   8.001
 1108POPC   C4B17026  16.685  15.238   7.630
 1109POPC   NC317027  14.745  16.615   9.537
 1109POPC   PO417028  14.089  16.493   9.469
 1109POPC   GL117029  14.343  16.714   9.181
 1109POPC   GL217030  14.622  16.487   9.053
 1109POPC   C1A17031  14.390  16.966   8.804
 1109POPC   D2A17032  14.625  16.860   8.423
 1109POPC   C3A17033  14.452  16.990   8.044
 1109POPC   C4A17034  14.155  16.865   7.770
 1109POPC   C1B17035  14.285  16.459   8.749
 1109POPC   C2B17036  14.186  16.633   8.358
 1109POPC   C3B17037  14.312  16.446   7.981
 1109POPC   C4B17038  14.673  16.426   7.709
 1110POPC   NC317039  11.018  13.814   9.588
 1110POPC   PO417040  11.570  13.426   9.319
 1110POPC   GL117041  11.267  13.641   9.121
 1110POPC   GL217042  11.357  13.959   9.203
 1110POPC   C1A17043  11.285  13.524   8.689
 1110POPC   D2A17044  11.036  13.322   8.396
 1110POPC   C3A17045  11.253  13.443   8.056
 1110POPC   C4A17046  11.310  13.509   7.635
 1110POPC   C1B17047  11.235  14.035   8.784
 1110POPC   C2B17048  11.235  13.917   8.333
 1110POPC   C3B17049  11.115  13.918   7.892
 1110POPC   C4B17050  11.247  14.067   7.519
 1111POPC   NC317051  16.686  21.700   9.183
 1111POPC   PO417052  16.583  22.248   9.613
 1111POPC   GL117053  16.802  22.176   9.239
 1111POPC   GL217054  16.491  22.172   9.041
 1111POPC   C1A17055  16.930  22.191   8.786
 1111POPC   D2A17056  16.743  22.424   8.472
 1111POPC   C3A17057  16.675  22.174   8.122
 1111POPC   C4A17058  16.550  22.364   7.746
 1111POPC   C1B17059  16.514  21.989   8.598
 1111POPC   C2B17060  16.910  21.813   8.422
 1111POPC   C3B17061  16.963  21.675   8.007
 1111POPC   C4B17062  16.818  21.925   7.683
 1112POPC   NC317063  12.658  28.115   9.558
 1112POPC   PO417064  12.870  28.748   9.454
 1112POPC   GL117065  12.730  28.441   9.170
 1112POPC   GL217066  12.994  28.178   9.177
 1112POPC   C1A17067  12.602  28.226   8.786
 1112POPC   D2A17068  12.363  28.247   8.400
 1112POPC   C3A17069  12.638  28.220   8.074
 1112POPC   C4A17070  12.697  28.170   7.664
 1112POPC   C1B17071  13.007  27.904   8.800
 1112POPC   C2B17072  13.117  27.720   8.402
 1112POPC   C3B17073  12.991  27.841   7.982
 1112POPC   C4B17074  13.160  27.984   7.603
 1113POPC   NC317075  43.555  30.776   9.468
 1113POPC   PO417076  44.284  30.615   9.621
 1113POPC   GL117077  44.081  30.438   9.230
 1113POPC   GL217078  43.725  30.335   9.184
 1113POPC   C1A17079  43.993  30.543   8.787
 1113POPC   D2A17080  43.926  30.756   8.402
 1113POPC   C3A17081  43.962  30.512   8.010
 1113POPC   C4A17082  43.956  30.788   7.679
 1113POPC   C1B17083  43.465  30.470   8.812
 1113POPC   C2B17084  43.524  30.466   8.381
 1113POPC   C3B17085  43.554  30.790   8.037
 1113POPC   C4B17086  43.495  30.576   7.666
 1114POPC   NC317087  15.893  12.299   9.405
 1114POPC   PO417088  15.751  12.926   9.552
 1114POPC   GL117089  15.734  12.748   9.156
 1114POPC   GL217090  16.050  12.731   9.017
 1114POPC   C1A17091  15.680  12.974   8.752
 1114POPC   D2A17092  15.931  12.981   8.404
 1114POPC   C3A17093  15.658  13.054   8.076
 1114POPC   C4A17094  15.794  13.054   7.679
 1114POPC   C1B17095  15.762  12.469   8.718
 1114POPC   C2B17096  15.788  12.484   8.262
 1114POPC   C3B17097  16.050  12.701   8.002
 1114POPC   C4B17098  16.222  12.775   7.633
 1115POPC   NC317099  22.531   4.408   9.786
 1115POPC   PO417100  23.155   4.500   9.589
 1115POPC   GL117101  23.084   4.355   9.202
 1115POPC   GL217102  22.794   4.195   9.292
 1115POPC   C1A17103  23.059   4.517   8.778
 1115POPC   D2A17104  23.166   4.216   8.475
 1115POPC   C3A17105  23.056   4.344   8.093
 1115POPC   C4A17106  23.287   4.394   7.734
 1115POPC   C1B17107  22.627   4.302   8.900
 1115POPC   C2B17108  22.628   4.252   8.455
 1115POPC   C3B17109  22.570   4.233   8.004
 1115POPC   C4B17110  22.790   4.433   7.659
 1116POPC   NC317111  34.027  24.373   9.452
 1116POPC   PO417112  33.367  24.535   9.450
 1116POPC   GL117113  33.588  24.602   9.142
 1116POPC   GL217114  33.650  24.242   9.121
 1116POPC   C1A17115  33.465  24.588   8.720
 1116POPC   D2A17116  33.490  24.268   8.474
 1116POPC   C3A17117  33.549  24.462   8.126
 1116POPC   C4A17118  33.703  24.404   7.732
 1116POPC   C1B17119  33.922  24.383   8.812
 1116POPC   C2B17120  33.979  24.571   8.439
 1116POPC   C3B17121  34.093  24.408   8.050
 1116POPC   C4B17122  34.189  24.279   7.625
 1117POPC   NC317123  22.846   5.971   9.436
 1117POPC   PO417124  23.514   6.097   9.421
 1117POPC   GL117125  23.364   5.930   9.024
 1117POPC   GL217126  23.089   5.741   9.050
 1117POPC   C1A17127  23.217   5.849   8.564
 1117POPC   D2A17128  22.816   5.935   8.307
 1117POPC   C3A17129  22.977   6.140   7.927
 1117POPC   C4A17130  23.421   5.997   7.750
 1117POPC   C1B17131  22.851   5.519   8.744
 1117POPC   C2B17132  22.691   5.257   8.433
 1117POPC   C3B17133  22.946   5.273   8.095
 1117POPC   C4B17134  23.015   5.644   7.894
 1118POPC   NC317135  30.062  19.404   9.522
 1118POPC   PO417136  29.775  18.768   9.594
 1118POPC   GL117137  29.927  18.997   9.204
 1118POPC   GL217138  29.652  19.014   8.998
 1118POPC   C1A17139  30.044  19.283   8.832
 1118POPC   D2A17140  29.946  19.367   8.393
 1118POPC   C3A17141  30.081  19.138   8.041
 1118POPC   C4A17142  29.895  18.852   7.760
 1118POPC   C1B17143  29.538  19.375   8.726
 1118POPC   C2B17144  29.416  19.436   8.316
 1118POPC   C3B17145  29.644  19.371   7.915
 1118POPC   C4B17146  29.654  19.244   7.499
 1119POPC   NC317147   7.237  11.442   9.817
 1119POPC   PO417148   6.638  11.406   9.537
 1119POPC   GL117149   6.612  11.455   9.111
 1119POPC   GL217150   6.923  11.263   9.140
 1119POPC   C1A17151   6.501  11.455   8.674
 1119POPC   D2A17152   6.467  11.691   8.308
 1119POPC   C3A17153   6.391  11.430   7.936
 1119POPC   C4A17154   6.602  11.154   7.624
 1119POPC   C1B17155   7.004  11.414   8.770
 1119POPC   C2B17156   6.993  11.215   8.413
 1119POPC   C3B17157   6.900  11.289   8.016
 1119POPC   C4B17158   7.207  11.517   7.794
 1120POPC   NC317159  10.084  11.039   9.663
 1120POPC   PO417160   9.529  11.438   9.513
 1120POPC   GL117161   9.690  11.578   9.147
 1120POPC   GL217162   9.381  11.706   9.073
 1120POPC   C1A17163   9.831  11.465   8.747
 1120POPC   D2A17164  10.099  11.349   8.414
 1120POPC   C3A17165   9.943  11.338   7.996
 1120POPC   C4A17166   9.606  11.172   7.741
 1120POPC   C1B17167   9.362  11.657   8.657
 1120POPC   C2B17168   9.483  11.426   8.276
 1120POPC   C3B17169   9.186  11.379   7.917
 1120POPC   C4B17170   9.196  11.423   7.436
 1121POPC   NC317171  35.601  33.452   9.482
 1121POPC   PO417172  35.348  32.848   9.511
 1121POPC   GL117173  35.471  32.990   9.129
 1121POPC   GL217174  35.285  33.271   9.108
 1121POPC   C1A17175  35.304  32.928   8.696
 1121POPC   D2A17176  35.206  32.994   8.232
 1121POPC   C3A17177  35.273  32.688   7.891
 1121POPC   C4A17178  35.621  32.981   7.808
 1121POPC   C1B17179  35.210  33.424   8.683
 1121POPC   C2B17180  35.287  33.585   8.315
 1121POPC   C3B17181  35.366  33.424   7.941
 1121POPC   C4B17182  35.117  33.129   7.720
 1122POPC   NC317183  20.942  24.702   9.425
 1122POPC   PO417184  20.410  24.161   9.392
 1122POPC   GL117185  20.782  24.251   9.153
 1122POPC   GL217186  20.601  24.574   9.061
 1122POPC   C1A17187  20.930  24.390   8.733
 1122POPC   D2A17188  20.662  24.490   8.371
 1122POPC   C3A17189  20.731  24.339   7.966
 1122POPC   C4A17190  20.659  24.566   7.576
 1122POPC   C1B17191  20.361  24.334   8.752
 1122POPC   C2B17192  20.149  24.459   8.364
 1122POPC   C3B17193  20.292  24.596   7.951
 1122POPC   C4B17194  20.174  24.569   7.494
 1123POPC   NC317195  44.814  10.236   9.530
 1123POPC   PO417196  44.596  10.839   9.701
 1123POPC   GL117197  44.673  10.683   9.262
 1123POPC   GL217198   0.013  10.514   9.153
 1123POPC   C1A17199  44.664  10.638   8.802
 1123POPC   D2A17200  44.604  10.343   8.464
 1123POPC   C3A17201  44.566  10.542   8.090
 1123POPC   C4A17202  44.597  10.782   7.725
 1123POPC   C1B17203  44.978  10.208   8.792
 1123POPC   C2B17204   0.082  10.127   8.340
 1123POPC   C3B17205  44.979  10.249   7.905
 1123POPC   C4B17206  44.982  10.078   7.470
 1124POPC   NC317207  21.145   1.138   9.382
 1124POPC   PO417208  21.562   1.614   9.503
 1124POPC   GL117209  21.574   1.420   9.078
 1124POPC   GL217210  21.414   1.102   8.948
 1124POPC   C1A17211  21.719   1.417   8.643
 1124POPC   D2A17212  21.701   1.333   8.187
 1124POPC   C3A17213  21.358   1.220   7.966
 1124POPC   C4A17214  21.542   1.393   7.614
 1124POPC   C1B17215  21.364   1.069   8.505
 1124POPC   C2B17216  21.177   0.791   8.221
 1124POPC   C3B17217  21.509   0.743   7.965
 1124POPC   C4B17218  21.427   0.883   7.553
 1125POPC   NC317219  24.359  40.902   9.607
 1125POPC   PO417220  24.988  40.644   9.572
 1125POPC   GL117221  24.702  40.692   9.219
 1125POPC   GL217222  24.321  40.687   9.161
 1125POPC   C1A17223  24.706  40.714   8.783
 1125POPC   D2A17224  24.473  40.759   8.413
 1125POPC   C3A17225  24.703  40.651   8.056
 1125POPC   C4A17226  24.669  40.795   7.663
 1125POPC   C1B17227  24.128  40.588   8.784
 1125POPC   C2B17228  24.006  40.297   8.467
 1125POPC   C3B17229  24.206  40.427   8.102
 1125POPC   C4B17230  24.211  40.833   7.910
 1126POPC   NC317231  42.839  21.023   9.515
 1126POPC   PO417232  43.272  21.484   9.580
 1126POPC   GL117233  43.058  21.397   9.189
 1126POPC   GL217234  43.304  21.168   9.156
 1126POPC   C1A17235  43.068  21.253   8.724
 1126POPC   D2A17236  43.239  21.135   8.316
 1126POPC   C3A17237  42.972  21.348   8.005
 1126POPC   C4A17238  42.724  21.740   7.997
 1126POPC   C1B17239  43.465  21.506   8.881
 1126POPC   C2B17240  43.574  21.517   8.419
 1126POPC   C3B17241  43.458  21.490   7.972
 1126POPC   C4B17242  43.498  21.704   7.550
 1127POPC   NC317243  30.955   5.379   9.401
 1127POPC   PO417244  30.381   5.006   9.465
 1127POPC   GL117245  30.637   5.123   9.107
 1127POPC   GL217246  30.953   4.912   9.162
 1127POPC   C1A17247  30.886   5.261   8.745
 1127POPC   D2A17248  30.977   5.159   8.319
 1127POPC   C3A17249  30.645   5.329   8.063
 1127POPC   C4A17250  30.403   5.205   7.656
 1127POPC   C1B17251  30.672   4.680   8.891
 1127POPC   C2B17252  30.713   4.651   8.494
 1127POPC   C3B17253  30.645   4.817   8.108
 1127POPC   C4B17254  30.696   4.745   7.707
 1128POPC   NC317255  21.693  32.133  10.118
 1128POPC   PO417256  21.131  32.291   9.765
 1128POPC   GL117257  21.400  32.251   9.366
 1128POPC   GL217258  21.217  32.433   9.123
 1128POPC   C1A17259  21.649  32.211   8.946
 1128POPC   D2A17260  21.653  32.252   8.482
 1128POPC   C3A17261  21.576  32.249   8.031
 1128POPC   C4A17262  21.541  32.141   7.569
 1128POPC   C1B17263  21.175  32.229   8.731
 1128POPC   C2B17264  21.179  32.072   8.302
 1128POPC   C3B17265  21.116  32.116   7.855
 1128POPC   C4B17266  21.095  32.423   7.522
 1129POPC   NC317267  12.566   2.581   9.573
 1129POPC   PO417268  13.171   2.870   9.614
 1129POPC   GL117269  13.032   2.840   9.187
 1129POPC   GL217270  12.925   2.539   9.124
 1129POPC   C1A17271  12.845   2.923   8.761
 1129POPC   D2A17272  12.762   2.751   8.359
 1129POPC   C3A17273  12.997   2.909   8.010
 1129POPC   C4A17274  13.249   2.545   7.926
 1129POPC   C1B17275  12.557   2.447   8.862
 1129POPC   C2B17276  12.373   2.419   8.454
 1129POPC   C3B17277  12.467   2.403   8.049
 1129POPC   C4B17278  12.747   2.566   7.750
 1130POPC   NC317279  16.133  22.118   9.572
 1130POPC   PO417280  15.982  22.657   9.531
 1130POPC   GL117281  16.018  22.365   9.122
 1130POPC   GL217282  16.018  21.970   9.103
 1130POPC   C1A17283  15.869  22.189   8.683
 1130POPC   D2A17284  15.739  22.243   8.238
 1130POPC   C3A17285  16.136  22.249   8.026
 1130POPC   C4A17286  16.330  21.897   7.852
 1130POPC   C1B17287  16.106  21.728   8.717
 1130POPC   C2B17288  16.030  21.800   8.278
 1130POPC   C3B17289  15.807  21.877   7.877
 1130POPC   C4B17290  15.985  21.670   7.517
 1131POPC   NC317291  34.181  28.736   9.479
 1131POPC   PO417292  33.948  28.098   9.610
 1131POPC   GL117293  33.793  28.151   9.217
 1131POPC   GL217294  33.846  28.491   9.139
 1131POPC   C1A17295  33.690  28.132   8.796
 1131POPC   D2A17296  33.967  28.168   8.436
 1131POPC   C3A17297  33.754  28.225   8.043
 1131POPC   C4A17298  33.877  28.179   7.636
 1131POPC   C1B17299  33.935  28.604   8.703
 1131POPC   C2B17300  34.007  28.649   8.245
 1131POPC   C3B17301  33.909  28.650   7.789
 1131POPC   C4B17302  33.824  28.641   7.329
 1132POPC   NC317303  33.113  21.350   9.558
 1132POPC   PO417304  32.570  20.948   9.332
 1132POPC   GL117305  32.908  21.201   9.131
 1132POPC   GL217306  33.073  21.542   9.101
 1132POPC   C1A17307  33.257  21.147   8.858
 1132POPC   D2A17308  33.066  21.213   8.491
 1132POPC   C3A17309  33.255  21.039   8.128
 1132POPC   C4A17310  33.083  21.140   7.745
 1132POPC   C1B17311  32.958  21.806   8.787
 1132POPC   C2B17312  33.196  21.745   8.441
 1132POPC   C3B17313  33.088  21.532   8.098
 1132POPC   C4B17314  33.101  21.637   7.710
 1133POPC   NC317315  23.565  23.953   9.489
 1133POPC   PO417316  23.211  23.436   9.333
 1133POPC   GL117317  23.387  23.732   9.050
 1133POPC   GL217318  23.764  23.867   9.043
 1133POPC   C1A17319  23.311  23.581   8.638
 1133POPC   D2A17320  23.551  23.246   8.397
 1133POPC   C3A17321  23.505  23.390   7.981
 1133POPC   C4A17322  23.296  23.801   7.899
 1133POPC   C1B17323  23.804  23.622   8.683
 1133POPC   C2B17324  23.631  23.788   8.302
 1133POPC   C3B17325  23.846  23.749   7.939
 1133POPC   C4B17326  24.179  23.405   7.925
 1134POPC   NC317327  18.875   4.945   9.563
 1134POPC   PO417328  19.339   5.391   9.696
 1134POPC   GL117329  19.327   5.086   9.305
 1134POPC   GL217330  19.625   4.890   9.195
 1134POPC   C1A17331  19.095   4.893   8.912
 1134POPC   D2A17332  19.050   4.990   8.462
 1134POPC   C3A17333  19.121   4.736   8.080
 1134POPC   C4A17334  18.958   4.942   7.714
 1134POPC   C1B17335  19.527   5.133   8.799
 1134POPC   C2B17336  19.562   5.125   8.343
 1134POPC   C3B17337  19.248   5.256   8.029
 1134POPC   C4B17338  19.269   5.319   7.565
 1135POPC   NC317339  13.393   1.699   9.676
 1135POPC   PO417340  12.880   2.204   9.519
 1135POPC   GL117341  13.134   2.088   9.203
 1135POPC   GL217342  12.900   1.831   9.079
 1135POPC   C1A17343  13.064   2.186   8.755
 1135POPC   D2A17344  12.899   1.869   8.469
 1135POPC   C3A17345  12.922   1.969   8.042
 1135POPC   C4A17346  13.201   1.740   7.797
 1135POPC   C1B17347  12.531   1.932   8.809
 1135POPC   C2B17348  12.377   1.923   8.363
 1135POPC   C3B17349  12.419   1.904   7.913
 1135POPC   C4B17350  12.413   2.206   7.574
 1136POPC   NC317351  15.779  21.192   9.443
 1136POPC   PO417352  16.286  21.701   9.443
 1136POPC   GL117353  16.102  21.443   9.136
 1136POPC   GL217354  16.251  21.118   9.212
 1136POPC   C1A17355  15.761  21.373   8.780
 1136POPC   D2A17356  15.634  21.462   8.352
 1136POPC   C3A17357  15.857  21.387   7.979
 1136POPC   C4A17358  15.697  21.068   7.764
 1136POPC   C1B17359  16.179  21.087   8.789
 1136POPC   C2B17360  16.019  21.117   8.396
 1136POPC   C3B17361  16.136  20.955   8.015
 1136POPC   C4B17362  16.456  20.983   7.733
 1137POPC   NC317363  34.902  34.073   9.835
 1137POPC   PO417364  34.758  33.568   9.449
 1137POPC   GL117365  34.492  33.712   9.112
 1137POPC   GL217366  34.142  33.603   9.014
 1137POPC   C1A17367  34.627  33.717   8.701
 1137POPC   D2A17368  34.728  33.942   8.358
 1137POPC   C3A17369  34.608  33.788   7.978
 1137POPC   C4A17370  34.316  33.755   7.667
 1137POPC   C1B17371  34.309  33.330   8.729
 1137POPC   C2B17372  34.403  33.408   8.318
 1137POPC   C3B17373  34.132  33.454   8.032
 1137POPC   C4B17374  34.106  33.257   7.685
 1138POPC   NC317375  29.668  38.958   9.488
 1138POPC   PO417376  30.116  38.467   9.434
 1138POPC   GL117377  29.956  38.727   9.137
 1138POPC   GL217378  29.604  38.589   9.138
 1138POPC   C1A17379  29.939  38.650   8.728
 1138POPC   D2A17380  29.860  38.337   8.466
 1138POPC   C3A17381  29.981  38.480   8.075
 1138POPC   C4A17382  29.866  38.783   7.807
 1138POPC   C1B17383  29.449  38.242   8.844
 1138POPC   C2B17384  29.323  38.212   8.421
 1138POPC   C3B17385  29.478  38.525   8.156
 1138POPC   C4B17386  29.501  38.461   7.755
 1139POPC   NC317387  41.237   0.552   9.455
 1139POPC   PO417388  41.812   0.509   9.600
 1139POPC   GL117389  41.823   0.357   9.177
 1139POPC   GL217390  41.518   0.494   9.033
 1139POPC   C1A17391  41.913   0.406   8.720
 1139POPC   D2A17392  41.641   0.457   8.338
 1139POPC   C3A17393  41.812   0.300   7.943
 1139POPC   C4A17394  41.774   0.324   7.482
 1139POPC   C1B17395  41.150   0.566   8.763
 1139POPC   C2B17396  40.979   0.501   8.355
 1139POPC   C3B17397  41.191   0.273   8.062
 1139POPC   C4B17398  41.387   0.516   7.757
 1140POPC   NC317399  44.674   5.023   9.591
 1140POPC   PO417400  44.733   5.599   9.424
 1140POPC   GL117401  44.487   5.256   9.143
 1140POPC   GL217402  44.454   4.869   9.173
 1140POPC   C1A17403  44.285   5.088   8.741
 1140POPC   D2A17404  44.574   5.000   8.395
 1140POPC   C3A17405  44.508   5.078   7.953
 1140POPC   C4A17406  44.507   5.167   7.503
 1140POPC   C1B17407  44.580   4.647   8.805
 1140POPC   C2B17408  44.457   4.490   8.399
 1140POPC   C3B17409  44.634   4.608   8.021
 1140POPC   C4B17410  44.822   4.751   7.636
 1141POPC   NC317411  35.468   0.891   9.393
 1141POPC   PO417412  35.724   1.451   9.261
 1141POPC   GL117413  35.418   1.292   8.983
 1141POPC   GL217414  35.178   1.003   8.961
 1141POPC   C1A17415  35.518   1.309   8.571
 1141POPC   D2A17416  35.194   1.285   8.301
 1141POPC   C3A17417  35.308   1.421   7.928
 1141POPC   C4A17418  35.752   1.539   7.816
 1141POPC   C1B17419  35.391   0.822   8.612
 1141POPC   C2B17420  35.558   0.640   8.249
 1141POPC   C3B17421  35.440   0.938   8.005
 1141POPC   C4B17422  35.311   1.042   7.603
 1142POPC   NC317423  39.646  25.794   9.443
 1142POPC   PO417424  40.250  26.101   9.534
 1142POPC   GL117425  40.063  25.920   9.174
 1142POPC   GL217426  40.031  26.228   9.064
 1142POPC   C1A17427  40.057  25.878   8.702
 1142POPC   D2A17428  39.850  25.798   8.310
 1142POPC   C3A17429  40.029  26.048   7.980
 1142POPC   C4A17430  40.105  25.894   7.567
 1142POPC   C1B17431  39.840  26.439   8.749
 1142POPC   C2B17432  39.726  26.312   8.365
 1142POPC   C3B17433  39.821  26.530   8.020
 1142POPC   C4B17434  39.947  26.405   7.618
 1143POPC   NC317435  44.993   7.983   9.427
 1143POPC   PO417436   0.734   7.978   9.475
 1143POPC   GL117437   0.540   8.183   9.142
 1143POPC   GL217438   0.283   8.419   9.231
 1143POPC   C1A17439   0.597   8.444   8.790
 1143POPC   D2A17440   0.566   8.285   8.380
 1143POPC   C3A17441   0.707   8.476   8.043
 1143POPC   C4A17442   0.599   8.379   7.645
 1143POPC   C1B17443   0.144   8.210   8.812
 1143POPC   C2B17444   0.070   8.172   8.373
 1143POPC   C3B17445   0.266   8.090   7.989
 1143POPC   C4B17446   0.071   8.282   7.667
 1144POPC   NC317447  40.714  38.496   9.576
 1144POPC   PO417448  41.220  38.800   9.316
 1144POPC   GL117449  40.893  38.505   9.123
 1144POPC   GL217450  40.587  38.655   9.101
 1144POPC   C1A17451  40.824  38.304   8.718
 1144POPC   D2A17452  41.015  38.264   8.294
 1144POPC   C3A17453  40.751  38.343   7.963
 1144POPC   C4A17454  40.441  38.059   7.782
 1144POPC   C1B17455  40.882  38.816   8.751
 1144POPC   C2B17456  40.993  38.778   8.337
 1144POPC   C3B17457  41.102  38.741   7.925
 1144POPC   C4B17458  40.830  38.860   7.645
 1145POPC   NC317459  41.240  15.702   9.533
 1145POPC   PO417460  41.684  16.239   9.537
 1145POPC   GL117461  41.599  15.950   9.264
 1145POPC   GL217462  41.891  15.822   9.227
 1145POPC   C1A17463  41.566  15.900   8.824
 1145POPC   D2A17464  41.694  15.816   8.400
 1145POPC   C3A17465  41.456  15.963   8.071
 1145POPC   C4A17466  41.341  16.143   7.695
 1145POPC   C1B17467  41.972  16.216   8.949
 1145POPC   C2B17468  42.006  16.248   8.521
 1145POPC   C3B17469  41.865  16.245   8.133
 1145POPC   C4B17470  41.802  16.377   7.726
 1146POPC   NC317471   3.058  38.773   9.471
 1146POPC   PO417472   2.625  38.269   9.429
 1146POPC   GL117473   2.772  38.482   9.062
 1146POPC   GL217474   3.102  38.462   9.082
 1146POPC   C1A17475   2.920  38.318   8.640
 1146POPC   D2A17476   2.899  38.058   8.269
 1146POPC   C3A17477   2.816  38.330   7.909
 1146POPC   C4A17478   2.435  38.361   7.695
 1146POPC   C1B17479   3.015  38.849   8.813
 1146POPC   C2B17480   2.880  38.797   8.404
 1146POPC   C3B17481   3.137  38.792   8.041
 1146POPC   C4B17482   3.096  38.666   7.636
 1147POPC   NC317483  35.869  20.015   9.351
 1147POPC   PO417484  36.450  19.695   9.495
 1147POPC   GL117485  36.418  19.776   9.061
 1147POPC   GL217486  36.250  20.080   9.000
 1147POPC   C1A17487  36.145  19.678   8.697
 1147POPC   D2A17488  36.004  19.952   8.370
 1147POPC   C3A17489  36.239  19.923   8.006
 1147POPC   C4A17490  36.024  19.858   7.639
 1147POPC   C1B17491  36.513  20.026   8.600
 1147POPC   C2B17492  36.683  20.172   8.184
 1147POPC   C3B17493  36.484  20.341   7.822
 1147POPC   C4B17494  36.244  20.278   7.439
 1148POPC   NC317495  24.256   5.221   9.522
 1148POPC   PO417496  24.669   4.686   9.636
 1148POPC   GL117497  24.834   4.992   9.267
 1148POPC   GL217498  24.535   5.171   9.094
 1148POPC   C1A17499  24.950   5.178   8.826
 1148POPC   D2A17500  24.710   5.217   8.455
 1148POPC   C3A17501  24.701   5.148   8.029
 1148POPC   C4A17502  24.339   5.024   7.788
 1148POPC   C1B17503  24.249   5.129   8.719
 1148POPC   C2B17504  24.206   5.160   8.276
 1148POPC   C3B17505  23.928   5.284   7.943
 1148POPC   C4B17506  23.912   5.124   7.541
 1149POPC   NC317507  26.788   8.775   9.566
 1149POPC   PO417508  27.352   9.023   9.472
 1149POPC   GL117509  27.027   8.922   9.132
 1149POPC   GL217510  26.686   9.055   9.134
 1149POPC   C1A17511  26.903   9.119   8.694
 1149POPC   D2A17512  26.942   8.916   8.316
 1149POPC   C3A17513  27.050   9.042   7.913
 1149POPC   C4A17514  26.797   9.138   7.553
 1149POPC   C1B17515  26.446   8.888   8.763
 1149POPC   C2B17516  26.517   8.646   8.366
 1149POPC   C3B17517  26.596   8.792   7.903
 1149POPC   C4B17518  26.467   8.731   7.459
 1150POPC   NC317519  27.175  40.021   9.481
 1150POPC   PO417520  26.411  40.014   9.492
 1150POPC   GL117521  26.703  40.159   9.201
 1150POPC   GL217522  26.834  39.824   9.134
 1150POPC   C1A17523  26.892  40.240   8.817
 1150POPC   D2A17524  26.865  39.937   8.528
 1150POPC   C3A17525  26.890  40.119   8.145
 1150POPC   C4A17526  26.838  40.227   7.721
 1150POPC   C1B17527  26.508  39.730   8.847
 1150POPC   C2B17528  26.451  39.561   8.466
 1150POPC   C3B17529  26.542  39.665   8.009
 1150POPC   C4B17530  26.926  39.741   7.812
 1151POPC   NC317531  38.747  28.563   9.399
 1151POPC   PO417532  39.163  28.005   9.506
 1151POPC   GL117533  39.038  28.223   9.126
 1151POPC   GL217534  39.181  28.556   9.122
 1151POPC   C1A17535  39.099  28.300   8.679
 1151POPC   D2A17536  39.269  28.627   8.436
 1151POPC   C3A17537  39.394  28.413   8.093
 1151POPC   C4A17538  39.186  28.394   7.681
 1151POPC   C1B17539  38.906  28.754   8.807
 1151POPC   C2B17540  38.862  28.922   8.400
 1151POPC   C3B17541  38.957  28.753   7.997
 1151POPC   C4B17542  38.695  28.520   7.735
 1152POPC   NC317543  43.503   8.034   9.816
 1152POPC   PO417544  43.842   8.369   9.411
 1152POPC   GL117545  43.817   8.003   9.144
 1152POPC   GL217546  44.149   7.798   9.110
 1152POPC   C1A17547  43.647   8.019   8.706
 1152POPC   D2A17548  43.575   8.211   8.341
 1152POPC   C3A17549  43.817   8.358   8.056
 1152POPC   C4A17550  43.802   7.997   7.809
 1152POPC   C1B17551  44.132   8.177   8.797
 1152POPC   C2B17552  44.115   8.089   8.364
 1152POPC   C3B17553  44.270   8.175   7.927
 1152POPC   C4B17554  44.094   8.267   7.495
 1153POPC   NC317555  31.678  10.396   9.457
 1153POPC   PO417556  31.028  10.289   9.424
 1153POPC   GL117557  31.269  10.549   9.175
 1153POPC   GL217558  31.453  10.273   9.019
 1153POPC   C1A17559  31.497  10.723   8.814
 1153POPC   D2A17560  31.389  10.538   8.446
 1153POPC   C3A17561  31.682  10.541   8.129
 1153POPC   C4A17562  31.531  10.618   7.737
 1153POPC   C1B17563  31.121  10.197   8.769
 1153POPC   C2B17564  31.064  10.142   8.357
 1153POPC   C3B17565  31.265  10.252   8.014
 1153POPC   C4B17566  31.133  10.310   7.612
 1154POPC   NC317567  16.640  24.272   9.483
 1154POPC   PO417568  16.934  24.821   9.489
 1154POPC   GL117569  16.938  24.626   9.114
 1154POPC   GL217570  16.745  24.360   8.989
 1154POPC   C1A17571  16.921  24.751   8.689
 1154POPC   D2A17572  16.728  24.473   8.402
 1154POPC   C3A17573  16.678  24.567   7.984
 1154POPC   C4A17574  16.697  24.403   7.576
 1154POPC   C1B17575  16.456  24.155   8.686
 1154POPC   C2B17576  16.326  24.165   8.216
 1154POPC   C3B17577  16.267  24.177   7.757
 1154POPC   C4B17578  16.256  24.249   7.311
 1155POPC   NC317579   5.013  24.956   9.618
 1155POPC   PO417580   5.092  25.615   9.483
 1155POPC   GL117581   5.295  25.314   9.198
 1155POPC   GL217582   5.031  25.059   9.114
 1155POPC   C1A17583   5.357  25.188   8.757
 1155POPC   D2A17584   5.072  25.200   8.397
 1155POPC   C3A17585   5.224  25.351   7.991
 1155POPC   C4A17586   5.337  25.517   7.567
 1155POPC   C1B17587   4.832  25.374   8.840
 1155POPC   C2B17588   4.598  25.400   8.423
 1155POPC   C3B17589   4.697  25.248   8.025
 1155POPC   C4B17590   4.903  25.249   7.617
 1156POPC   NC317591  13.339   0.901   9.653
 1156POPC   PO417592  13.716   1.417   9.499
 1156POPC   GL117593  13.602   1.321   9.084
 1156POPC   GL217594  13.847   1.051   9.129
 1156POPC   C1A17595  13.488   1.394   8.615
 1156POPC   D2A17596  13.201   1.474   8.273
 1156POPC   C3A17597  13.361   1.269   7.934
 1156POPC   C4A17598  13.536   1.367   7.560
 1156POPC   C1B17599  13.937   1.182   8.692
 1156POPC   C2B17600  13.824   1.280   8.233
 1156POPC   C3B17601  13.806   1.007   7.843
 1156POPC   C4B17602  13.825   1.001   7.345
 1157POPC   NC317603  21.350  36.752   9.715
 1157POPC   PO417604  21.573  37.394   9.487
 1157POPC   GL117605  21.415  37.117   9.060
 1157POPC   GL217606  21.326  36.737   9.150
 1157POPC   C1A17607  21.492  36.957   8.699
 1157POPC   D2A17608  21.472  36.688   8.407
 1157POPC   C3A17609  21.573  36.877   8.025
 1157POPC   C4A17610  21.823  36.746   7.713
 1157POPC   C1B17611  21.085  36.621   8.791
 1157POPC   C2B17612  20.929  36.682   8.397
 1157POPC   C3B17613  21.103  36.665   8.015
 1157POPC   C4B17614  21.119  36.986   7.748
 1158POPC   NC317615   3.571  33.435   9.562
 1158POPC   PO417616   3.669  32.775   9.393
 1158POPC   GL117617   3.334  33.005   9.127
 1158POPC   GL217618   3.398  33.355   9.094
 1158POPC   C1A17619   3.170  32.973   8.668
 1158POPC   D2A17620   3.255  32.663   8.281
 1158POPC   C3A17621   3.474  32.872   7.916
 1158POPC   C4A17622   3.358  33.314   7.830
 1158POPC   C1B17623   3.586  33.318   8.698
 1158POPC   C2B17624   3.640  33.240   8.253
 1158POPC   C3B17625   3.852  33.430   7.878
 1158POPC   C4B17626   3.853  33.501   7.417
 1159POPC   NC317627  14.184   7.205   9.401
 1159POPC   PO417628  14.845   7.514   9.608
 1159POPC   GL117629  14.726   7.382   9.183
 1159POPC   GL217630  14.474   7.163   8.992
 1159POPC   C1A17631  14.675   7.543   8.777
 1159POPC   D2A17632  14.486   7.296   8.417
 1159POPC   C3A17633  14.458   7.537   8.028
 1159POPC   C4A17634  14.074   7.632   7.774
 1159POPC   C1B17635  14.088   7.194   8.747
 1159POPC   C2B17636  14.025   6.999   8.365
 1159POPC   C3B17637  14.095   7.155   7.992
 1159POPC   C4B17638  13.760   7.053   7.785
 1160POPC   NC317639  13.180  12.536   9.446
 1160POPC   PO417640  13.526  11.836   9.526
 1160POPC   GL117641  13.559  11.963   9.118
 1160POPC   GL217642  13.287  12.106   9.129
 1160POPC   C1A17643  13.585  12.206   8.730
 1160POPC   D2A17644  13.384  12.171   8.373
 1160POPC   C3A17645  13.603  12.082   8.047
 1160POPC   C4A17646  13.873  12.205   7.734
 1160POPC   C1B17647  13.246  11.742   8.796
 1160POPC   C2B17648  13.399  11.638   8.376
 1160POPC   C3B17649  13.222  11.733   7.966
 1160POPC   C4B17650  13.287  12.059   7.629
 1161POPC   NC317651   6.952   9.189   9.609
 1161POPC   PO417652   6.446   8.707   9.476
 1161POPC   GL117653   6.443   8.889   9.094
 1161POPC   GL217654   6.613   9.207   9.198
 1161POPC   C1A17655   6.382   8.844   8.656
 1161POPC   D2A17656   6.737   8.728   8.410
 1161POPC   C3A17657   6.576   8.708   8.052
 1161POPC   C4A17658   6.313   8.918   7.781
 1161POPC   C1B17659   6.752   9.146   8.780
 1161POPC   C2B17660   6.631   9.231   8.343
 1161POPC   C3B17661   6.833   9.126   7.958
 1161POPC   C4B17662   6.755   9.251   7.532
 1162POPC   NC317663  17.424   3.020   9.384
 1162POPC   PO417664  16.907   3.338   9.596
 1162POPC   GL117665  17.231   3.512   9.238
 1162POPC   GL217666  17.594   3.669   9.282
 1162POPC   C1A17667  17.365   3.424   8.784
 1162POPC   D2A17668  17.268   3.382   8.324
 1162POPC   C3A17669  17.549   3.418   7.953
 1162POPC   C4A17670  17.672   3.499   7.502
 1162POPC   C1B17671  17.614   3.850   8.843
 1162POPC   C2B17672  17.670   3.714   8.392
 1162POPC   C3B17673  17.664   3.905   7.994
 1162POPC   C4B17674  17.949   3.875   7.675
 1163POPC   NC317675   9.354  19.644  10.066
 1163POPC   PO417676   9.036  19.155   9.652
 1163POPC   GL117677   9.039  18.967   9.230
 1163POPC   GL217678   8.682  18.974   9.167
 1163POPC   C1A17679   9.292  19.066   8.860
 1163POPC   D2A17680   9.432  19.283   8.488
 1163POPC   C3A17681   9.156  19.139   8.173
 1163POPC   C4A17682   9.077  18.818   7.832
 1163POPC   C1B17683   8.721  19.154   8.755
 1163POPC   C2B17684   8.592  19.252   8.332
 1163POPC   C3B17685   8.679  19.098   7.941
 1163POPC   C4B17686   9.052  19.314   7.716
 1164POPC   NC317687  33.962  32.847   9.731
 1164POPC   PO417688  33.777  33.382   9.400
 1164POPC   GL117689  33.532  33.216   9.047
 1164POPC   GL217690  33.445  33.544   8.883
 1164POPC   C1A17691  33.511  32.903   8.723
 1164POPC   D2A17692  33.748  32.649   8.436
 1164POPC   C3A17693  33.813  32.822   8.028
 1164POPC   C4A17694  34.033  32.763   7.668
 1164POPC   C1B17695  33.809  33.418   8.686
 1164POPC   C2B17696  33.787  33.224   8.338
 1164POPC   C3B17697  33.639  33.311   7.948
 1164POPC   C4B17698  33.635  33.127   7.581
 1165POPC   NC317699  18.534  20.729   9.400
 1165POPC   PO417700  19.217  20.703   9.506
 1165POPC   GL117701  19.214  20.566   9.100
 1165POPC   GL217702  18.906  20.711   9.017
 1165POPC   C1A17703  19.465  20.386   8.721
 1165POPC   D2A17704  19.239  20.523   8.374
 1165POPC   C3A17705  19.211  20.378   7.982
 1165POPC   C4A17706  18.954  20.404   7.625
 1165POPC   C1B17707  19.143  20.942   8.685
 1165POPC   C2B17708  19.122  21.000   8.221
 1165POPC   C3B17709  19.109  20.869   7.770
 1165POPC   C4B17710  18.984  20.836   7.326
 1166POPC   NC317711  18.312   7.005   9.442
 1166POPC   PO417712  18.369   6.337   9.465
 1166POPC   GL117713  18.405   6.572   9.117
 1166POPC   GL217714  18.079   6.706   9.113
 1166POPC   C1A17715  18.422   6.803   8.743
 1166POPC   D2A17716  18.183   6.760   8.366
 1166POPC   C3A17717  18.420   6.491   8.079
 1166POPC   C4A17718  18.641   6.702   7.743
 1166POPC   C1B17719  17.927   6.488   8.750
 1166POPC   C2B17720  17.889   6.289   8.359
 1166POPC   C3B17721  17.922   6.505   8.012
 1166POPC   C4B17722  18.119   6.855   7.800
 1167POPC   NC317723  44.277   2.769   9.911
 1167POPC   PO417724  44.811   2.666   9.550
 1167POPC   GL117725  44.736   2.926   9.145
 1167POPC   GL217726  44.465   3.219   9.141
 1167POPC   C1A17727  44.641   2.711   8.720
 1167POPC   D2A17728  44.935   2.471   8.447
 1167POPC   C3A17729  44.868   2.539   8.045
 1167POPC   C4A17730  44.986   2.656   7.640
 1167POPC   C1B17731  44.628   3.219   8.709
 1167POPC   C2B17732  44.450   3.082   8.292
 1167POPC   C3B17733  44.652   2.989   7.887
 1167POPC   C4B17734  44.512   2.732   7.518
 1168POPC   NC317735  14.662  12.806   9.538
 1168POPC   PO417736  14.113  13.261   9.605
 1168POPC   GL117737  14.432  13.113   9.197
 1168POPC   GL217738  14.424  12.736   9.103
 1168POPC   C1A17739  14.349  13.011   8.703
 1168POPC   D2A17740  14.486  12.764   8.361
 1168POPC   C3A17741  14.467  13.006   8.003
 1168POPC   C4A17742  14.192  13.014   7.685
 1168POPC   C1B17743  14.510  12.454   8.756
 1168POPC   C2B17744  14.679  12.291   8.347
 1168POPC   C3B17745  14.775  12.575   7.981
 1168POPC   C4B17746  14.582  12.697   7.594
 1169POPC   NC317747  21.656   0.315   9.207
 1169POPC   PO417748  22.199   0.566   9.525
 1169POPC   GL117749  22.187   0.337   9.156
 1169POPC   GL217750  22.493   0.187   9.142
 1169POPC   C1A17751  22.107   0.357   8.721
 1169POPC   D2A17752  22.285   0.587   8.380
 1169POPC   C3A17753  22.082   0.454   8.014
 1169POPC   C4A17754  21.840   0.518   7.638
 1169POPC   C1B17755  22.609   0.303   8.730
 1169POPC   C2B17756  22.592   0.192   8.298
 1169POPC   C3B17757  22.584   0.416   7.907
 1169POPC   C4B17758  22.309   0.224   7.616
 1170POPC   NC317759  32.016  38.699   9.557
 1170POPC   PO417760  32.552  38.448   9.354
 1170POPC   GL117761  32.140  38.365   9.185
 1170POPC   GL217762  31.907  38.636   9.088
 1170POPC   C1A17763  31.986  38.182   8.837
 1170POPC   D2A17764  32.254  38.174   8.498
 1170POPC   C3A17765  32.242  38.359   8.108
 1170POPC   C4A17766  32.421  38.352   7.738
 1170POPC   C1B17767  32.147  38.665   8.738
 1170POPC   C2B17768  31.989  38.727   8.361
 1170POPC   C3B17769  31.935  38.880   7.966
 1170POPC   C4B17770  31.930  38.524   7.703
 1171POPC   NC317771   2.655   9.448   9.400
 1171POPC   PO417772   2.652  10.126   9.494
 1171POPC   GL117773   2.785   9.915   9.166
 1171POPC   GL217774   3.078   9.737   9.260
 1171POPC   C1A17775   2.788   9.708   8.770
 1171POPC   D2A17776   2.559   9.749   8.397
 1171POPC   C3A17777   2.660   9.544   8.020
 1171POPC   C4A17778   2.597   9.811   7.672
 1171POPC   C1B17779   3.198   9.995   8.882
 1171POPC   C2B17780   3.223   9.844   8.486
 1171POPC   C3B17781   2.994   9.885   8.148
 1171POPC   C4B17782   3.088   9.955   7.739
 1172POPC   NC317783  18.210  42.496   9.614
 1172POPC   PO417784  18.628  42.962   9.553
 1172POPC   GL117785  18.608  42.480   9.281
 1172POPC   GL217786  18.239  42.315   9.147
 1172POPC   C1A17787  18.639  42.216   8.867
 1172POPC   D2A17788  18.420  42.229   8.482
 1172POPC   C3A17789  18.595  42.231   8.064
 1172POPC   C4A17790  18.457  42.044   7.687
 1172POPC   C1B17791  17.951  42.418   8.821
 1172POPC   C2B17792  18.048  42.615   8.437
 1172POPC   C3B17793  18.082  42.328   8.085
 1172POPC   C4B17794  18.010  42.273   7.672
 1173POPC   NC317795  20.194  24.557   9.427
 1173POPC   PO417796  19.532  24.779   9.570
 1173POPC   GL117797  19.727  24.628   9.215
 1173POPC   GL217798  19.610  24.314   9.164
 1173POPC   C1A17799  19.909  24.587   8.814
 1173POPC   D2A17800  19.697  24.805   8.511
 1173POPC   C3A17801  19.889  24.835   8.138
 1173POPC   C4A17802  19.817  24.847   7.727
 1173POPC   C1B17803  19.437  24.389   8.751
 1173POPC   C2B17804  19.386  24.088   8.414
 1173POPC   C3B17805  19.508  24.113   7.983
 1173POPC   C4B17806  19.877  24.319   7.842
 1174POPC   NC317807   8.794  24.764   9.510
 1174POPC   PO417808   9.015  24.203   9.736
 1174POPC   GL117809   8.981  24.247   9.242
 1174POPC   GL217810   8.844  24.553   9.069
 1174POPC   C1A17811   8.870  24.155   8.782
 1174POPC   D2A17812   8.872  24.483   8.476
 1174POPC   C3A17813   8.901  24.357   8.040
 1174POPC   C4A17814   8.711  24.425   7.631
 1174POPC   C1B17815   8.994  24.905   8.849
 1174POPC   C2B17816   9.248  24.878   8.499
 1174POPC   C3B17817   8.984  24.859   8.143
 1174POPC   C4B17818   9.003  24.802   7.736
 1175POPC   NC317819   2.010  31.699   9.461
 1175POPC   PO417820   1.481  31.258   9.556
 1175POPC   GL117821   1.784  31.276   9.202
 1175POPC   GL217822   2.146  31.247   9.217
 1175POPC   C1A17823   1.995  31.494   8.817
 1175POPC   D2A17824   2.085  31.337   8.427
 1175POPC   C3A17825   1.957  31.579   8.099
 1175POPC   C4A17826   2.138  31.824   7.803
 1175POPC   C1B17827   2.204  31.000   8.816
 1175POPC   C2B17828   2.499  30.955   8.449
 1175POPC   C3B17829   2.469  31.284   8.108
 1175POPC   C4B17830   2.203  31.300   7.749
 1176POPC   NC317831  10.345  19.233   9.625
 1176POPC   PO417832  10.796  18.762   9.441
 1176POPC   GL117833  10.606  18.913   9.053
 1176POPC   GL217834  10.272  19.081   9.096
 1176POPC   C1A17835  10.428  18.868   8.633
 1176POPC   D2A17836  10.340  18.781   8.193
 1176POPC   C3A17837  10.578  18.929   7.823
 1176POPC   C4A17838  10.412  18.888   7.376
 1176POPC   C1B17839  10.417  19.362   8.747
 1176POPC   C2B17840  10.557  19.242   8.300
 1176POPC   C3B17841  10.234  19.306   7.959
 1176POPC   C4B17842  10.282  19.336   7.514
 1177POPC   NC317843  21.715   7.407   9.646
 1177POPC   PO417844  21.525   7.799   9.180
 1177POPC   GL117845  21.430   7.357   9.166
 1177POPC   GL217846  21.597   7.049   9.261
 1177POPC   C1A17847  21.181   7.156   8.852
 1177POPC   D2A17848  20.961   7.231   8.424
 1177POPC   C3A17849  21.259   7.313   8.064
 1177POPC   C4A17850  21.691   7.500   7.940
 1177POPC   C1B17851  21.688   7.061   8.814
 1177POPC   C2B17852  21.827   7.150   8.379
 1177POPC   C3B17853  21.713   6.998   7.983
 1177POPC   C4B17854  21.409   7.029   7.654
 1178POPC   NC317855  37.817  40.297   9.501
 1178POPC   PO417856  37.488  39.682   9.527
 1178POPC   GL117857  37.621  39.901   9.203
 1178POPC   GL217858  37.416  40.180   9.201
 1178POPC   C1A17859  37.441  39.844   8.811
 1178POPC   D2A17860  37.481  40.027   8.417
 1178POPC   C3A17861  37.689  39.944   8.045
 1178POPC   C4A17862  37.462  39.937   7.668
 1178POPC   C1B17863  37.690  40.292   8.820
 1178POPC   C2B17864  37.716  40.474   8.384
 1178POPC   C3B17865  37.783  40.437   7.955
 1178POPC   C4B17866  37.922  40.484   7.529
 1179POPC   NC317867  21.241  40.606   9.707
 1179POPC   PO417868  21.738  40.854   9.306
 1179POPC   GL117869  21.347  40.738   9.193
 1179POPC   GL217870  21.183  40.966   8.982
 1179POPC   C1A17871  21.403  40.560   8.775
 1179POPC   D2A17872  21.150  40.515   8.416
 1179POPC   C3A17873  21.316  40.584   7.999
 1179POPC   C4A17874  21.123  40.938   7.797
 1179POPC   C1B17875  21.564  41.046   8.734
 1179POPC   C2B17876  21.565  40.882   8.346
 1179POPC   C3B17877  21.695  40.936   7.937
 1179POPC   C4B17878  21.570  41.193   7.591
 1180POPC   NC317879   2.469  24.831   9.381
 1180POPC   PO417880   3.105  24.447   9.483
 1180POPC   GL117881   2.883  24.404   9.107
 1180POPC   GL217882   2.540  24.237   9.177
 1180POPC   C1A17883   2.928  24.723   8.764
 1180POPC   D2A17884   2.919  24.935   8.350
 1180POPC   C3A17885   2.961  24.644   7.987
 1180POPC   C4A17886   2.886  24.243   7.775
 1180POPC   C1B17887   2.525  24.373   8.753
 1180POPC   C2B17888   2.584  24.537   8.377
 1180POPC   C3B17889   2.471  24.466   7.986
 1180POPC   C4B17890   2.524  24.553   7.581
 1181POPC   NC317891  26.204  24.687   9.676
 1181POPC   PO417892  25.650  24.420   9.430
 1181POPC   GL117893  26.093  24.410   9.244
 1181POPC   GL217894  26.198  24.056   9.070
 1181POPC   C1A17895  26.271  24.500   8.857
 1181POPC   D2A17896  26.231  24.238   8.490
 1181POPC   C3A17897  26.034  24.493   8.203
 1181POPC   C4A17898  25.994  24.486   7.788
 1181POPC   C1B17899  25.827  24.274   8.811
 1181POPC   C2B17900  25.656  24.177   8.429
 1181POPC   C3B17901  25.863  24.046   8.073
 1181POPC   C4B17902  25.819  24.006   7.667
 1182POPC   NC317903  24.047   2.819   9.378
 1182POPC   PO417904  23.460   2.601   9.497
 1182POPC   GL117905  23.662   2.541   9.133
 1182POPC   GL217906  23.650   2.904   9.091
 1182POPC   C1A17907  23.665   2.611   8.688
 1182POPC   D2A17908  23.933   2.511   8.384
 1182POPC   C3A17909  23.849   2.647   8.001
 1182POPC   C4A17910  23.992   2.432   7.640
 1182POPC   C1B17911  23.822   3.143   8.770
 1182POPC   C2B17912  23.866   3.374   8.397
 1182POPC   C3B17913  23.875   3.161   8.005
 1182POPC   C4B17914  23.705   2.960   7.611
 1183POPC   NC317915  41.837  10.924   9.516
 1183POPC   PO417916  41.511  11.455   9.739
 1183POPC   GL117917  41.504  11.306   9.312
 1183POPC   GL217918  41.596  11.604   9.141
 1183POPC   C1A17919  41.379  11.110   8.898
 1183POPC   D2A17920  41.602  10.949   8.525
 1183POPC   C3A17921  41.359  10.984   8.127
 1183POPC   C4A17922  41.446  11.206   7.762
 1183POPC   C1B17923  41.743  11.434   8.758
 1183POPC   C2B17924  41.572  11.456   8.346
 1183POPC   C3B17925  41.617  11.656   7.935
 1183POPC   C4B17926  41.503  11.637   7.492
 1184POPC   NC317927  18.820  16.336   9.558
 1184POPC   PO417928  18.890  15.619   9.639
 1184POPC   GL117929  19.068  15.719   9.247
 1184POPC   GL217930  19.149  16.072   9.227
 1184POPC   C1A17931  18.962  15.717   8.809
 1184POPC   D2A17932  18.852  15.505   8.451
 1184POPC   C3A17933  19.053  15.616   8.099
 1184POPC   C4A17934  18.974  15.825   7.743
 1184POPC   C1B17935  19.439  15.858   8.896
 1184POPC   C2B17936  19.378  15.826   8.459
 1184POPC   C3B17937  19.418  15.967   8.029
 1184POPC   C4B17938  19.265  16.234   7.710
 1185POPC   NC317939  22.389  19.264   9.476
 1185POPC   PO417940  22.489  18.642   9.375
 1185POPC   GL117941  22.197  18.814   9.070
 1185POPC   GL217942  22.089  19.177   9.040
 1185POPC   C1A17943  22.278  18.863   8.638
 1185POPC   D2A17944  22.502  18.821   8.255
 1185POPC   C3A17945  22.257  18.892   7.927
 1185POPC   C4A17946  22.264  19.251   7.684
 1185POPC   C1B17947  21.786  18.961   8.759
 1185POPC   C2B17948  21.828  18.932   8.318
 1185POPC   C3B17949  21.842  19.208   7.977
 1185POPC   C4B17950  21.805  19.359   7.546
 1186POPC   NC317951  35.582  38.858   9.381
 1186POPC   PO417952  35.196  38.336   9.590
 1186POPC   GL117953  35.266  38.486   9.213
 1186POPC   GL217954  35.103  38.797   9.255
 1186POPC   C1A17955  35.390  38.364   8.816
 1186POPC   D2A17956  35.567  38.318   8.420
 1186POPC   C3A17957  35.457  38.522   8.044
 1186POPC   C4A17958  35.501  38.242   7.711
 1186POPC   C1B17959  35.184  38.841   8.827
 1186POPC   C2B17960  35.142  38.651   8.449
 1186POPC   C3B17961  35.012  38.843   8.078
 1186POPC   C4B17962  35.086  38.661   7.695
 1187POPC   NC317963   9.749  41.804   9.543
 1187POPC   PO417964   9.800  41.066   9.625
 1187POPC   GL117965   9.908  41.358   9.276
 1187POPC   GL217966   9.606  41.412   9.100
 1187POPC   C1A17967  10.041  41.349   8.828
 1187POPC   D2A17968   9.718  41.380   8.521
 1187POPC   C3A17969   9.816  41.570   8.115
 1187POPC   C4A17970   9.854  41.496   7.677
 1187POPC   C1B17971   9.575  41.751   8.864
 1187POPC   C2B17972   9.465  41.836   8.430
 1187POPC   C3B17973   9.410  41.897   8.004
 1187POPC   C4B17974   9.510  41.871   7.575
 1188POPC   NC317975  25.223  24.594   9.508
 1188POPC   PO417976  25.420  23.877   9.588
 1188POPC   GL117977  25.289  24.156   9.193
 1188POPC   GL217978  24.955  24.127   9.072
 1188POPC   C1A17979  25.321  24.417   8.775
 1188POPC   D2A17980  25.248  24.607   8.333
 1188POPC   C3A17981  25.510  24.447   8.001
 1188POPC   C4A17982  25.428  24.325   7.576
 1188POPC   C1B17983  24.804  24.349   8.705
 1188POPC   C2B17984  24.753  24.491   8.280
 1188POPC   C3B17985  24.990  24.348   7.905
 1188POPC   C4B17986  24.924  24.191   7.483
 1189POPC   NC317987  16.166  34.929   9.535
 1189POPC   PO417988  16.166  34.281   9.738
 1189POPC   GL117989  16.109  34.437   9.293
 1189POPC   GL217990  15.844  34.712   9.207
 1189POPC   C1A17991  16.003  34.325   8.842
 1189POPC   D2A17992  16.163  34.460   8.435
 1189POPC   C3A17993  16.043  34.396   7.980
 1189POPC   C4A17994  16.232  34.580   7.582
 1189POPC   C1B17995  15.916  34.820   8.775
 1189POPC   C2B17996  15.769  34.735   8.336
 1189POPC   C3B17997  15.906  34.885   7.949
 1189POPC   C4B17998  15.751  34.803   7.555
 1190POPC   NC317999  14.111   0.635   9.466
 1190POPC   PO418000  13.527   0.447   9.654
 1190POPC   GL118001  13.469   0.552   9.226
 1190POPC   GL218002  13.793   0.548   9.032
 1190POPC   C1A18003  13.325   0.346   8.842
 1190POPC   D2A18004  13.341   0.453   8.408
 1190POPC   C3A18005  13.661   0.345   8.093
 1190POPC   C4A18006  13.408   0.252   7.736
 1190POPC   C1B18007  13.494   0.853   8.800
 1190POPC   C2B18008  13.379   0.966   8.371
 1190POPC   C3B18009  13.350   0.745   7.974
 1190POPC   C4B18010  13.415   0.755   7.546
 1191POPC   NC318011   5.493  31.569   9.385
 1191POPC   PO418012   4.992  31.100   9.545
 1191POPC   GL118013   5.086  31.364   9.155
 1191POPC   GL218014   5.438  31.242   9.006
 1191POPC   C1A18015   5.212  31.661   8.794
 1191POPC   D2A18016   5.346  31.563   8.375
 1191POPC   C3A18017   5.252  31.785   8.005
 1191POPC   C4A18018   4.893  31.700   7.710
 1191POPC   C1B18019   5.128  31.155   8.689
 1191POPC   C2B18020   4.904  30.865   8.438
 1191POPC   C3B18021   4.833  31.063   8.053
 1191POPC   C4B18022   5.165  31.301   7.869
 1192POPC   NC318023  16.128  10.559   9.498
 1192POPC   PO418024  16.819  10.486   9.652
 1192POPC   GL118025  16.606  10.579   9.245
 1192POPC   GL218026  16.595  10.261   9.057
 1192POPC   C1A18027  16.780  10.680   8.816
 1192POPC   D2A18028  16.959  10.537   8.414
 1192POPC   C3A18029  16.800  10.722   8.025
 1192POPC   C4A18030  16.903  11.088   7.733
 1192POPC   C1B18031  16.355  10.152   8.670
 1192POPC   C2B18032  16.306  10.134   8.216
 1192POPC   C3B18033  16.521  10.289   7.847
 1192POPC   C4B18034  16.374  10.276   7.419
 1193POPC   NC318035  44.532  35.287   9.553
 1193POPC   PO418036  44.813  35.900   9.615
 1193POPC   GL118037  44.860  35.637   9.228
 1193POPC   GL218038  44.771  35.289   9.105
 1193POPC   C1A18039  44.937  35.663   8.785
 1193POPC   D2A18040  44.768  35.452   8.434
 1193POPC   C3A18041  44.934  35.565   8.028
 1193POPC   C4A18042  44.721  35.609   7.638
 1193POPC   C1B18043  44.603  35.043   8.718
 1193POPC   C2B18044  44.468  35.035   8.264
 1193POPC   C3B18045  44.598  35.081   7.805
 1193POPC   C4B18046  44.528  34.910   7.376
 1194POPC   NC318047  14.412  15.505   9.352
 1194POPC   PO418048  14.445  14.943   9.665
 1194POPC   GL118049  14.735  15.075   9.290
 1194POPC   GL218050  14.818  15.378   9.104
 1194POPC   C1A18051  14.627  14.968   8.844
 1194POPC   D2A18052  14.294  14.988   8.495
 1194POPC   C3A18053  14.449  15.071   8.052
 1194POPC   C4A18054  14.651  15.160   7.616
 1194POPC   C1B18055  14.560  15.472   8.726
 1194POPC   C2B18056  14.693  15.593   8.330
 1194POPC   C3B18057  14.560  15.551   7.929
 1194POPC   C4B18058  14.100  15.570   7.818
 1195POPC   NC318059  37.751  37.971   9.409
 1195POPC   PO418060  37.294  37.412   9.538
 1195POPC   GL118061  37.490  37.599   9.195
 1195POPC   GL218062  37.831  37.513   9.107
 1195POPC   C1A18063  37.457  37.611   8.759
 1195POPC   D2A18064  37.282  37.491   8.363
 1195POPC   C3A18065  37.529  37.583   8.007
 1195POPC   C4A18066  37.765  37.890   7.793
 1195POPC   C1B18067  37.978  37.624   8.667
 1195POPC   C2B18068  38.025  37.695   8.198
 1195POPC   C3B18069  38.008  37.451   7.824
 1195POPC   C4B18070  37.640  37.465   7.503
 1196POPC   NC318071  28.802  39.847   9.344
 1196POPC   PO418072  29.311  40.203   9.424
 1196POPC   GL118073  29.095  40.179   9.044
 1196POPC   GL218074  29.151  39.856   8.960
 1196POPC   C1A18075  29.098  40.261   8.591
 1196POPC   D2A18076  29.389  40.211   8.251
 1196POPC   C3A18077  29.115  39.993   8.017
 1196POPC   C4A18078  28.940  40.206   7.677
 1196POPC   C1B18079  29.384  39.854   8.602
 1196POPC   C2B18080  29.313  39.567   8.263
 1196POPC   C3B18081  29.388  39.557   7.846
 1196POPC   C4B18082  29.344  39.919   7.581
 1197POPC   NC318083   6.086  27.190   9.514
 1197POPC   PO418084   5.469  26.827   9.514
 1197POPC   GL118085   5.660  26.942   9.156
 1197POPC   GL218086   6.036  26.963   9.086
 1197POPC   C1A18087   5.750  26.693   8.789
 1197POPC   D2A18088   5.637  26.485   8.458
 1197POPC   C3A18089   5.537  26.695   8.144
 1197POPC   C4A18090   5.559  26.752   7.761
 1197POPC   C1B18091   5.821  27.230   8.779
 1197POPC   C2B18092   5.874  27.033   8.412
 1197POPC   C3B18093   5.952  26.929   8.006
 1197POPC   C4B18094   5.803  27.194   7.658
 1198POPC   NC318095  43.313  31.574   9.453
 1198POPC   PO418096  43.117  30.947   9.597
 1198POPC   GL118097  43.112  31.183   9.183
 1198POPC   GL218098  42.946  31.546   9.120
 1198POPC   C1A18099  43.278  31.347   8.773
 1198POPC   D2A18100  43.249  31.721   8.527
 1198POPC   C3A18101  43.122  31.591   8.127
 1198POPC   C4A18102  43.161  31.628   7.717
 1198POPC   C1B18103  42.776  31.544   8.733
 1198POPC   C2B18104  42.862  31.272   8.431
 1198POPC   C3B18105  42.665  31.300   8.061
 1198POPC   C4B18106  42.660  30.947   7.828
 1199POPC   NC318107   6.419   5.697   9.571
 1199POPC   PO418108   6.912   6.175   9.480
 1199POPC   GL118109   6.847   5.841   9.188
 1199POPC   GL218110   6.777   5.487   9.224
 1199POPC   C1A18111   6.893   5.854   8.731
 1199POPC   D2A18112   6.954   6.092   8.364
 1199POPC   C3A18113   6.867   5.915   7.993
 1199POPC   C4A18114   6.715   6.145   7.678
 1199POPC   C1B18115   6.455   5.672   8.920
 1199POPC   C2B18116   6.462   5.597   8.489
 1199POPC   C3B18117   6.410   5.658   8.072
 1199POPC   C4B18118   6.529   5.650   7.686
 1200POPC   NC318119   1.678  29.650   9.367
 1200POPC   PO418120   2.364  29.857   9.533
 1200POPC   GL118121   2.123  29.784   9.150
 1200POPC   GL218122   2.004  30.083   9.029
 1200POPC   C1A18123   1.978  29.662   8.715
 1200POPC   D2A18124   1.800  29.612   8.284
 1200POPC   C3A18125   1.915  29.869   7.924
 1200POPC   C4A18126   1.834  29.855   7.505
 1200POPC   C1B18127   1.693  30.116   8.739
 1200POPC   C2B18128   1.703  30.122   8.316
 1200POPC   C3B18129   1.985  30.356   8.069
 1200POPC   C4B18130   1.789  30.669   7.941
 1201POPC   NC318131  30.203  14.405   9.513
 1201POPC   PO418132  30.809  14.320   9.358
 1201POPC   GL118133  30.470  14.332   9.087
 1201POPC   GL218134  30.429  14.695   9.155
 1201POPC   C1A18135  30.486  14.132   8.686
 1201POPC   D2A18136  30.568  14.357   8.324
 1201POPC   C3A18137  30.521  14.152   7.946
 1201POPC   C4A18138  30.613  14.116   7.506
 1201POPC   C1B18139  30.491  14.699   8.725
 1201POPC   C2B18140  30.232  14.725   8.370
 1201POPC   C3B18141  30.450  14.769   8.014
 1201POPC   C4B18142  30.557  14.617   7.642
 1202POPC   NC318143  31.748  30.534   9.485
 1202POPC   PO418144  31.296  30.975   9.469
 1202POPC   GL118145  31.538  30.850   9.148
 1202POPC   GL218146  31.389  30.553   9.100
 1202POPC   C1A18147  31.691  30.770   8.744
 1202POPC   D2A18148  31.676  30.973   8.384
 1202POPC   C3A18149  31.362  30.904   8.121
 1202POPC   C4A18150  31.637  30.714   7.779
 1202POPC   C1B18151  31.456  30.314   8.742
 1202POPC   C2B18152  31.489  30.463   8.353
 1202POPC   C3B18153  31.292  30.414   7.992
 1202POPC   C4B18154  31.190  30.381   7.595
 1203POPC   NC318155  26.315  42.558   9.362
 1203POPC   PO418156  25.873  42.268   9.790
 1203POPC   GL118157  26.033  42.132   9.333
 1203POPC   GL218158  26.381  42.005   9.233
 1203POPC   C1A18159  25.959  41.997   8.895
 1203POPC   D2A18160  26.129  42.066   8.494
 1203POPC   C3A18161  25.921  42.282   8.172
 1203POPC   C4A18162  25.819  42.086   7.775
 1203POPC   C1B18163  26.486  42.221   8.859
 1203POPC   C2B18164  26.312  42.560   8.610
 1203POPC   C3B18165  26.390  42.631   8.175
 1203POPC   C4B18166  26.315  42.338   7.814
 1204POPC   NC318167  27.971  17.743   9.463
 1204POPC   PO418168  27.441  17.261   9.563
 1204POPC   GL118169  27.390  17.487   9.191
 1204POPC   GL218170  27.686  17.530   9.106
 1204POPC   C1A18171  27.348  17.643   8.755
 1204POPC   D2A18172  27.608  17.723   8.379
 1204POPC   C3A18173  27.482  17.768   7.982
 1204POPC   C4A18174  27.263  17.475   7.768
 1204POPC   C1B18175  27.752  17.352   8.700
 1204POPC   C2B18176  28.074  17.489   8.379
 1204POPC   C3B18177  28.011  17.669   7.984
 1204POPC   C4B18178  27.768  17.455   7.703
 1205POPC   NC318179  16.373  42.590   9.377
 1205POPC   PO418180  15.758  42.348   9.502
 1205POPC   GL118181  15.770  42.319   9.092
 1205POPC   GL218182  15.900  42.603   8.991
 1205POPC   C1A18183  15.887  42.158   8.708
 1205POPC   D2A18184  15.742  42.267   8.332
 1205POPC   C3A18185  15.965  42.037   8.088
 1205POPC   C4A18186  16.081  42.074   7.705
 1205POPC   C1B18187  16.218  42.544   8.672
 1205POPC   C2B18188  16.247  42.441   8.226
 1205POPC   C3B18189  16.256  42.554   7.784
 1205POPC   C4B18190  16.306  42.406   7.343
 1206POPC   NC318191  41.131  14.209   9.411
 1206POPC   PO418192  41.768  14.402   9.488
 1206POPC   GL118193  41.563  14.373   9.123
 1206POPC   GL218194  41.524  14.037   9.161
 1206POPC   C1A18195  41.633  14.398   8.675
 1206POPC   D2A18196  41.449  14.627   8.318
 1206POPC   C3A18197  41.629  14.408   7.981
 1206POPC   C4A18198  41.863  14.299   7.576
 1206POPC   C1B18199  41.597  13.894   8.796
 1206POPC   C2B18200  41.773  13.928   8.417
 1206POPC   C3B18201  41.557  13.909   8.077
 1206POPC   C4B18202  41.459  14.016   7.707
 1207POPC   NC318203  24.999  13.427   9.504
 1207POPC   PO418204  25.262  14.029   9.643
 1207POPC   GL118205  25.394  14.022   9.194
 1207POPC   GL218206  25.357  13.658   9.173
 1207POPC   C1A18207  25.549  13.851   8.765
 1207POPC   D2A18208  25.535  13.543   8.442
 1207POPC   C3A18209  25.547  13.778   8.066
 1207POPC   C4A18210  25.289  13.822   7.717
 1207POPC   C1B18211  25.053  13.717   8.866
 1207POPC   C2B18212  24.872  13.579   8.497
 1207POPC   C3B18213  25.108  13.476   8.148
 1207POPC   C4B18214  24.961  13.423   7.766
 1208POPC   NC318215  38.867  15.674   9.393
 1208POPC   PO418216  39.272  15.148   9.334
 1208POPC   GL118217  39.366  15.395   8.999
 1208POPC   GL218218  39.695  15.404   9.014
 1208POPC   C1A18219  39.429  15.227   8.579
 1208POPC   D2A18220  39.210  14.992   8.276
 1208POPC   C3A18221  39.036  15.322   8.080
 1208POPC   C4A18222  38.896  15.396   7.705
 1208POPC   C1B18223  39.714  15.635   8.672
 1208POPC   C2B18224  39.692  15.554   8.232
 1208POPC   C3B18225  39.489  15.463   7.829
 1208POPC   C4B18226  39.473  15.038   7.822
 1209POPC   NC318227   5.512  33.002   9.480
 1209POPC   PO418228   6.048  32.695   9.707
 1209POPC   GL118229   5.958  33.149   9.305
 1209POPC   GL218230   5.657  33.132   9.027
 1209POPC   C1A18231   6.066  33.273   8.810
 1209POPC   D2A18232   5.734  33.207   8.471
 1209POPC   C3A18233   5.885  33.330   8.035
 1209POPC   C4A18234   6.146  33.092   7.777
 1209POPC   C1B18235   5.479  32.753   8.835
 1209POPC   C2B18236   5.319  32.579   8.473
 1209POPC   C3B18237   5.494  32.676   8.089
 1209POPC   C4B18238   5.660  32.918   7.779
 1210POPC   NC318239   0.348  21.830   9.390
 1210POPC   PO418240   0.464  22.441   9.478
 1210POPC   GL118241   0.568  22.183   9.117
 1210POPC   GL218242   0.819  21.909   9.157
 1210POPC   C1A18243   0.625  22.217   8.716
 1210POPC   D2A18244   0.427  22.547   8.499
 1210POPC   C3A18245   0.429  22.432   8.104
 1210POPC   C4A18246   0.490  22.310   7.711
 1210POPC   C1B18247   0.665  21.704   8.778
 1210POPC   C2B18248   0.581  21.783   8.383
 1210POPC   C3B18249   0.669  21.978   8.058
 1210POPC   C4B18250   0.802  21.870   7.692
 1211POPC   NC318251   2.526  11.485   9.342
 1211POPC   PO418252   2.680  12.121   9.512
 1211POPC   GL118253   2.883  11.941   9.131
 1211POPC   GL218254   3.209  12.113   9.015
 1211POPC   C1A18255   2.778  12.103   8.726
 1211POPC   D2A18256   2.486  12.145   8.379
 1211POPC   C3A18257   2.648  12.094   7.937
 1211POPC   C4A18258   2.576  11.978   7.493
 1211POPC   C1B18259   3.136  12.454   8.683
 1211POPC   C2B18260   2.864  12.506   8.315
 1211POPC   C3B18261   2.964  12.491   7.880
 1211POPC   C4B18262   2.959  12.291   7.431
 1212POPC   NC318263  10.784  19.952   9.905
 1212POPC   PO418264  10.316  20.040   9.399
 1212POPC   GL118265  10.389  19.873   9.054
 1212POPC   GL218266  10.480  19.557   9.223
 1212POPC   C1A18267  10.224  19.832   8.667
 1212POPC   D2A18268  10.305  19.675   8.311
 1212POPC   C3A18269  10.549  19.861   8.030
 1212POPC   C4A18270  10.244  19.818   7.708
 1212POPC   C1B18271  10.830  19.692   8.927
 1212POPC   C2B18272  10.806  19.674   8.477
 1212POPC   C3B18273  10.980  19.474   8.110
 1212POPC   C4B18274  10.687  19.435   7.792
 1213POPC   NC318275   9.461  25.416   9.526
 1213POPC   PO418276   9.844  24.896   9.749
 1213POPC   GL118277   9.719  24.922   9.306
 1213POPC   GL218278   9.773  25.252   9.145
 1213POPC   C1A18279   9.659  24.828   8.854
 1213POPC   D2A18280   9.735  25.068   8.483
 1213POPC   C3A18281   9.791  24.916   8.079
 1213POPC   C4A18282   9.727  25.179   7.782
 1213POPC   C1B18283   9.876  25.482   8.773
 1213POPC   C2B18284  10.109  25.454   8.412
 1213POPC   C3B18285   9.957  25.549   8.031
 1213POPC   C4B18286  10.019  25.519   7.547
 1214POPC   NC318287  28.836  44.279   9.699
 1214POPC   PO418288  28.198  44.113   9.478
 1214POPC   GL118289  28.276  43.867   9.115
 1214POPC   GL218290  28.594  43.698   9.162
 1214POPC   C1A18291  28.453  43.941   8.695
 1214POPC   D2A18292  28.704  43.925   8.328
 1214POPC   C3A18293  28.397  44.035   8.044
 1214POPC   C4A18294  28.423  44.234   7.675
 1214POPC   C1B18295  28.544  43.454   8.775
 1214POPC   C2B18296  28.399  43.497   8.382
 1214POPC   C3B18297  28.448  43.521   7.963
 1214POPC   C4B18298  28.248  43.734   7.655
 1215POPC   NC318299  41.969  36.527   9.440
 1215POPC   PO418300  42.432  36.997   9.596
 1215POPC   GL118301  42.246  37.001   9.215
 1215POPC   GL218302  42.388  36.687   9.121
 1215POPC   C1A18303  42.117  37.013   8.787
 1215POPC   D2A18304  42.404  36.939   8.445
 1215POPC   C3A18305  42.250  36.950   8.044
 1215POPC   C4A18306  42.204  37.245   7.731
 1215POPC   C1B18307  42.108  36.511   8.802
 1215POPC   C2B18308  41.972  36.623   8.409
 1215POPC   C3B18309  42.058  36.493   8.004
 1215POPC   C4B18310  42.389  36.568   7.690
 1216POPC   NC318311  33.884  14.947   9.501
 1216POPC   PO418312  33.434  15.443   9.691
 1216POPC   GL118313  33.630  15.333   9.291
 1216POPC   GL218314  33.522  15.044   9.140
 1216POPC   C1A18315  33.635  15.415   8.832
 1216POPC   D2A18316  33.467  15.469   8.406
 1216POPC   C3A18317  33.813  15.424   8.078
 1216POPC   C4A18318  33.908  15.508   7.636
 1216POPC   C1B18319  33.649  14.888   8.710
 1216POPC   C2B18320  33.613  14.995   8.262
 1216POPC   C3B18321  33.685  15.008   7.794
 1216POPC   C4B18322  33.903  14.707   7.462
 1217POPC   NC318323   3.241  26.704   9.239
 1217POPC   PO418324   3.945  26.847   9.417
 1217POPC   GL118325   3.694  26.905   9.077
 1217POPC   GL218326   3.697  26.556   9.030
 1217POPC   C1A18327   3.569  26.898   8.624
 1217POPC   D2A18328   3.723  26.678   8.234
 1217POPC   C3A18329   3.633  26.810   7.785
 1217POPC   C4A18330   3.770  26.958   7.334
 1217POPC   C1B18331   3.463  26.342   8.688
 1217POPC   C2B18332   3.409  26.246   8.248
 1217POPC   C3B18333   3.692  26.259   7.906
 1217POPC   C4B18334   3.941  26.450   7.558
 1218POPC   NC318335   4.566  27.478   9.816
 1218POPC   PO418336   4.153  27.802   9.486
 1218POPC   GL118337   4.501  27.594   9.273
 1218POPC   GL218338   4.301  27.452   9.042
 1218POPC   C1A18339   4.642  27.735   8.835
 1218POPC   D2A18340   4.448  27.935   8.492
 1218POPC   C3A18341   4.504  27.688   8.140
 1218POPC   C4A18342   4.478  27.507   7.743
 1218POPC   C1B18343   4.335  27.379   8.604
 1218POPC   C2B18344   4.079  27.239   8.308
 1218POPC   C3B18345   4.009  27.499   7.978
 1218POPC   C4B18346   4.032  27.243   7.647
 1219POPC   NC318347  18.979  12.474   9.656
 1219POPC   PO418348  18.808  13.145   9.525
 1219POPC   GL118349  18.950  12.937   9.149
 1219POPC   GL218350  18.964  12.575   9.137
 1219POPC   C1A18351  19.072  12.848   8.720
 1219POPC   D2A18352  19.101  12.679   8.319
 1219POPC   C3A18353  19.184  12.917   7.965
 1219POPC   C4A18354  19.040  13.172   7.665
 1219POPC   C1B18355  18.727  12.453   8.769
 1219POPC   C2B18356  18.790  12.273   8.362
 1219POPC   C3B18357  18.762  12.495   7.977
 1219POPC   C4B18358  18.896  12.648   7.563
 1220POPC   NC318359  26.477   9.645   9.502
 1220POPC   PO418360  25.820   9.762   9.527
 1220POPC   GL118361  26.001   9.601   9.138
 1220POPC   GL218362  26.271   9.373   9.148
 1220POPC   C1A18363  26.080   9.706   8.712
 1220POPC   D2A18364  26.206   9.913   8.338
 1220POPC   C3A18365  26.095   9.642   8.050
 1220POPC   C4A18366  25.989   9.538   7.684
 1220POPC   C1B18367  26.522   9.447   8.824
 1220POPC   C2B18368  26.389   9.382   8.432
 1220POPC   C3B18369  26.583   9.369   8.062
 1220POPC   C4B18370  26.510   9.562   7.699
 1221POPC   NC318371  41.631  17.218   9.595
 1221POPC   PO418372  41.933  17.772   9.616
 1221POPC   GL118373  41.638  17.577   9.231
 1221POPC   GL218374  41.390  17.760   9.063
 1221POPC   C1A18375  41.679  17.394   8.806
 1221POPC   D2A18376  41.590  17.616   8.433
 1221POPC   C3A18377  41.758  17.399   8.097
 1221POPC   C4A18378  41.571  17.151   7.819
 1221POPC   C1B18379  41.766  17.917   8.836
 1221POPC   C2B18380  41.816  18.080   8.393
 1221POPC   C3B18381  41.738  17.897   7.987
 1221POPC   C4B18382  41.340  17.649   7.844
 1222POPC   NC318383  35.587  11.346   9.268
 1222POPC   PO418384  35.009  11.103   9.412
 1222POPC   GL118385  35.135  11.237   9.009
 1222POPC   GL218386  35.188  11.599   9.047
 1222POPC   C1A18387  35.396  11.092   8.657
 1222POPC   D2A18388  35.689  11.177   8.325
 1222POPC   C3A18389  35.455  11.166   7.944
 1222POPC   C4A18390  35.253  10.868   7.639
 1222POPC   C1B18391  35.257  11.600   8.600
 1222POPC   C2B18392  35.228  11.587   8.140
 1222POPC   C3B18393  35.082  11.472   7.723
 1222POPC   C4B18394  35.096  11.672   7.267
 1223POPC   NC318395  18.875  14.244   9.571
 1223POPC   PO418396  19.487  14.314   9.196
 1223POPC   GL118397  19.069  14.333   9.104
 1223POPC   GL218398  18.955  14.688   9.141
 1223POPC   C1A18399  19.089  14.151   8.721
 1223POPC   D2A18400  19.459  14.263   8.495
 1223POPC   C3A18401  19.364  14.203   8.078
 1223POPC   C4A18402  19.065  14.161   7.735
 1223POPC   C1B18403  19.229  14.801   8.798
 1223POPC   C2B18404  19.329  14.758   8.360
 1223POPC   C3B18405  19.096  14.628   8.006
 1223POPC   C4B18406  19.132  14.837   7.652
 1224POPC   NC318407   8.575   1.150   9.510
 1224POPC   PO418408   9.214   1.173   9.444
 1224POPC   GL118409   8.915   1.253   9.153
 1224POPC   GL218410   9.059   1.525   9.084
 1224POPC   C1A18411   8.750   1.281   8.744
 1224POPC   D2A18412   8.874   1.054   8.399
 1224POPC   C3A18413   8.832   1.176   7.984
 1224POPC   C4A18414   8.994   0.933   7.622
 1224POPC   C1B18415   9.292   1.419   8.753
 1224POPC   C2B18416   9.380   1.142   8.431
 1224POPC   C3B18417   9.352   1.140   7.987
 1224POPC   C4B18418   9.218   1.546   7.836
 1225POPC   NC318419   9.351  11.005   9.612
 1225POPC   PO418420   8.726  11.243   9.634
 1225POPC   GL118421   9.016  11.260   9.240
 1225POPC   GL218422   9.361  11.156   9.122
 1225POPC   C1A18423   8.961  11.369   8.804
 1225POPC   D2A18424   8.942  11.548   8.381
 1225POPC   C3A18425   8.691  11.355   8.049
 1225POPC   C4A18426   8.792  11.138   7.680
 1225POPC   C1B18427   9.406  11.136   8.691
 1225POPC   C2B18428   9.122  11.075   8.344
 1225POPC   C3B18429   9.240  10.853   7.974
 1225POPC   C4B18430   9.221  10.903   7.537
 1226POPC   NC318431  27.000  26.159   9.640
 1226POPC   PO418432  26.355  26.142   9.389
 1226POPC   GL118433  26.712  25.965   9.166
 1226POPC   GL218434  27.066  26.071   9.127
 1226POPC   C1A18435  26.665  25.682   8.829
 1226POPC   D2A18436  26.747  25.580   8.408
 1226POPC   C3A18437  27.124  25.718   8.165
 1226POPC   C4A18438  27.036  25.987   7.774
 1226POPC   C1B18439  27.005  26.012   8.646
 1226POPC   C2B18440  26.789  26.079   8.236
 1226POPC   C3B18441  26.773  26.395   7.896
 1226POPC   C4B18442  26.981  26.432   7.436
 1227POPC   NC318443   5.599   9.898   9.537
 1227POPC   PO418444   6.116   9.554   9.557
 1227POPC   GL118445   6.036   9.714   9.149
 1227POPC   GL218446   5.782   9.974   9.056
 1227POPC   C1A18447   6.056   9.751   8.699
 1227POPC   D2A18448   5.738   9.824   8.409
 1227POPC   C3A18449   5.961   9.686   8.077
 1227POPC   C4A18450   5.933   9.669   7.643
 1227POPC   C1B18451   5.972  10.249   8.710
 1227POPC   C2B18452   6.097  10.171   8.282
 1227POPC   C3B18453   5.839  10.118   7.893
 1227POPC   C4B18454   5.852  10.121   7.421
 1228POPC   NC318455   3.339   6.468   9.569
 1228POPC   PO418456   3.959   6.344   9.461
 1228POPC   GL118457   3.688   6.508   9.134
 1228POPC   GL218458   3.314   6.642   9.106
 1228POPC   C1A18459   3.641   6.661   8.727
 1228POPC   D2A18460   3.377   6.543   8.418
 1228POPC   C3A18461   3.628   6.388   8.106
 1228POPC   C4A18462   3.841   6.572   7.783
 1228POPC   C1B18463   3.154   6.878   8.745
 1228POPC   C2B18464   3.302   7.105   8.377
 1228POPC   C3B18465   3.537   6.916   8.053
 1228POPC   C4B18466   3.301   6.669   7.762
 1229POPC   NC318467  36.461  32.947   9.556
 1229POPC   PO418468  36.075  33.535   9.500
 1229POPC   GL118469  36.076  33.171   9.236
 1229POPC   GL218470  35.956  32.813   9.278
 1229POPC   C1A18471  36.325  33.098   8.882
 1229POPC   D2A18472  36.143  33.215   8.507
 1229POPC   C3A18473  36.308  33.116   8.109
 1229POPC   C4A18474  36.235  33.287   7.732
 1229POPC   C1B18475  35.860  32.879   8.835
 1229POPC   C2B18476  35.948  32.761   8.428
 1229POPC   C3B18477  36.185  32.621   8.109
 1229POPC   C4B18478  36.100  32.789   7.733
 1230POPC   NC318479   9.441  18.812   9.540
 1230POPC   PO418480   9.935  19.271   9.440
 1230POPC   GL118481   9.733  19.124   9.110
 1230POPC   GL218482   9.695  18.785   9.118
 1230POPC   C1A18483   9.852  18.998   8.706
 1230POPC   D2A18484  10.056  19.159   8.411
 1230POPC   C3A18485   9.776  19.060   8.127
 1230POPC   C4A18486   9.521  19.065   7.792
 1230POPC   C1B18487   9.517  18.602   8.792
 1230POPC   C2B18488   9.404  18.762   8.424
 1230POPC   C3B18489   9.471  18.605   8.048
 1230POPC   C4B18490   9.612  18.608   7.606
 1231POPC   NC318491  28.319  41.245   9.493
 1231POPC   PO418492  28.438  40.539   9.534
 1231POPC   GL118493  28.620  40.802   9.213
 1231POPC   GL218494  28.311  40.910   9.115
 1231POPC   C1A18495  28.728  40.949   8.778
 1231POPC   D2A18496  28.790  40.764   8.363
 1231POPC   C3A18497  28.586  40.898   7.974
 1231POPC   C4A18498  28.600  40.813   7.526
 1231POPC   C1B18499  28.231  40.823   8.705
 1231POPC   C2B18500  28.275  40.606   8.326
 1231POPC   C3B18501  28.071  40.659   7.943
 1231POPC   C4B18502  28.119  41.015   7.715
 1232POPC   NC318503   4.834  32.385   9.496
 1232POPC   PO418504   5.366  31.989   9.513
 1232POPC   GL118505   5.407  32.318   9.196
 1232POPC   GL218506   5.120  32.520   9.091
 1232POPC   C1A18507   5.331  32.172   8.785
 1232POPC   D2A18508   5.094  32.066   8.440
 1232POPC   C3A18509   5.168  32.287   8.064
 1232POPC   C4A18510   5.093  32.154   7.668
 1232POPC   C1B18511   4.874  32.442   8.738
 1232POPC   C2B18512   4.825  32.628   8.333
 1232POPC   C3B18513   4.752  32.509   7.912
 1232POPC   C4B18514   4.721  32.471   7.494
 1233POPC   NC318515   1.020  14.281   9.543
 1233POPC   PO418516   1.617  14.623   9.525
 1233POPC   GL118517   1.246  14.613   9.200
 1233POPC   GL218518   1.028  14.345   9.047
 1233POPC   C1A18519   1.100  14.802   8.828
 1233POPC   D2A18520   1.154  14.507   8.512
 1233POPC   C3A18521   1.177  14.634   8.093
 1233POPC   C4A18522   1.079  14.467   7.676
 1233POPC   C1B18523   1.342  14.136   8.843
 1233POPC   C2B18524   1.387  14.027   8.422
 1233POPC   C3B18525   1.204  14.112   8.034
 1233POPC   C4B18526   1.260  13.999   7.599
 1234POPC   NC318527  27.384  16.140   9.792
 1234POPC   PO418528  26.938  15.781   9.485
 1234POPC   GL118529  26.767  15.910   9.129
 1234POPC   GL218530  26.797  16.206   9.101
 1234POPC   C1A18531  26.648  15.945   8.687
 1234POPC   D2A18532  26.833  15.767   8.323
 1234POPC   C3A18533  26.661  15.918   7.998
 1234POPC   C4A18534  26.989  16.051   7.815
 1234POPC   C1B18535  26.935  16.371   8.736
 1234POPC   C2B18536  26.926  16.283   8.316
 1234POPC   C3B18537  26.988  16.517   7.978
 1234POPC   C4B18538  26.946  16.467   7.521
 1235POPC   NC318539  29.301  36.680   9.642
 1235POPC   PO418540  28.918  37.214   9.419
 1235POPC   GL118541  29.106  36.901   9.185
 1235POPC   GL218542  29.403  36.729   9.157
 1235POPC   C1A18543  28.989  36.761   8.795
 1235POPC   D2A18544  29.042  36.897   8.376
 1235POPC   C3A18545  28.909  36.622   8.029
 1235POPC   C4A18546  29.073  36.780   7.676
 1235POPC   C1B18547  29.429  37.038   8.799
 1235POPC   C2B18548  29.443  37.214   8.391
 1235POPC   C3B18549  29.637  37.292   7.963
 1235POPC   C4B18550  29.526  37.090   7.561
 1236POPC   NC318551  42.147  15.500   9.526
 1236POPC   PO418552  42.570  14.900   9.573
 1236POPC   GL118553  42.373  15.085   9.210
 1236POPC   GL218554  42.011  15.088   9.237
 1236POPC   C1A18555  42.358  14.957   8.769
 1236POPC   D2A18556  42.305  15.036   8.335
 1236POPC   C3A18557  42.370  14.814   7.970
 1236POPC   C4A18558  42.465  14.983   7.589
 1236POPC   C1B18559  41.974  15.272   8.837
 1236POPC   C2B18560  41.938  15.368   8.381
 1236POPC   C3B18561  42.053  15.257   7.941
 1236POPC   C4B18562  42.341  15.490   7.710
 1237POPC   NC318563   3.916  30.508   9.681
 1237POPC   PO418564   4.486  30.657   9.311
 1237POPC   GL118565   4.195  30.657   8.992
 1237POPC   GL218566   4.144  30.978   8.998
 1237POPC   C1A18567   4.201  30.404   8.598
 1237POPC   D2A18568   4.535  30.457   8.298
 1237POPC   C3A18569   4.491  30.692   7.913
 1237POPC   C4A18570   4.571  30.618   7.489
 1237POPC   C1B18571   4.000  30.871   8.582
 1237POPC   C2B18572   4.155  30.971   8.171
 1237POPC   C3B18573   4.058  30.969   7.726
 1237POPC   C4B18574   4.180  30.854   7.273
 1238POPC   NC318575  14.857   3.117   9.479
 1238POPC   PO418576  15.293   2.504   9.564
 1238POPC   GL118577  15.254   2.809   9.235
 1238POPC   GL218578  15.002   2.747   8.979
 1238POPC   C1A18579  15.409   2.954   8.806
 1238POPC   D2A18580  15.116   2.994   8.460
 1238POPC   C3A18581  15.277   3.022   8.043
 1238POPC   C4A18582  15.428   3.003   7.613
 1238POPC   C1B18583  15.152   2.514   8.617
 1238POPC   C2B18584  15.127   2.508   8.173
 1238POPC   C3B18585  15.065   2.365   7.766
 1238POPC   C4B18586  14.850   2.444   7.379
 1239POPC   NC318587  34.778  22.675   9.535
 1239POPC   PO418588  34.277  23.136   9.551
 1239POPC   GL118589  34.445  22.848   9.199
 1239POPC   GL218590  34.210  22.601   9.107
 1239POPC   C1A18591  34.836  22.811   8.874
 1239POPC   D2A18592  34.881  22.779   8.395
 1239POPC   C3A18593  34.769  23.025   8.012
 1239POPC   C4A18594  34.736  23.005   7.553
 1239POPC   C1B18595  34.384  22.693   8.711
 1239POPC   C2B18596  34.466  22.508   8.320
 1239POPC   C3B18597  34.331  22.734   7.978
 1239POPC   C4B18598  33.979  23.017   7.908
 1240POPC   NC318599  38.919  33.775   9.431
 1240POPC   PO418600  39.504  33.916   9.716
 1240POPC   GL118601  39.396  33.991   9.274
 1240POPC   GL218602  39.435  33.645   9.211
 1240POPC   C1A18603  39.213  33.950   8.833
 1240POPC   D2A18604  38.960  33.714   8.520
 1240POPC   C3A18605  39.123  33.766   8.090
 1240POPC   C4A18606  39.437  34.037   7.870
 1240POPC   C1B18607  39.319  33.443   8.832
 1240POPC   C2B18608  39.489  33.664   8.479
 1240POPC   C3B18609  39.620  33.583   8.070
 1240POPC   C4B18610  39.380  33.521   7.691
 1241POPC   NC318611   2.399  20.225   9.253
 1241POPC   PO418612   2.720  20.810   9.497
 1241POPC   GL118613   2.578  20.697   9.156
 1241POPC   GL218614   2.803  20.456   9.009
 1241POPC   C1A18615   2.430  20.741   8.778
 1241POPC   D2A18616   2.692  20.624   8.470
 1241POPC   C3A18617   2.519  20.783   8.099
 1241POPC   C4A18618   2.659  20.750   7.694
 1241POPC   C1B18619   3.140  20.544   8.758
 1241POPC   C2B18620   3.224  20.656   8.396
 1241POPC   C3B18621   2.998  20.574   8.053
 1241POPC   C4B18622   3.076  20.431   7.676
 1242POPC   NC318623  34.590  20.417   9.562
 1242POPC   PO418624  35.193  20.638   9.753
 1242POPC   GL118625  34.909  20.747   9.372
 1242POPC   GL218626  34.938  20.410   9.172
 1242POPC   C1A18627  34.644  20.779   8.956
 1242POPC   D2A18628  34.466  20.673   8.527
 1242POPC   C3A18629  34.294  20.797   8.109
 1242POPC   C4A18630  34.568  20.868   7.764
 1242POPC   C1B18631  34.968  20.445   8.702
 1242POPC   C2B18632  35.142  20.326   8.301
 1242POPC   C3B18633  34.960  20.156   7.895
 1242POPC   C4B18634  34.756  20.399   7.528
 1243POPC   NC318635  43.938   9.938   9.506
 1243POPC   PO418636  44.112   9.311   9.566
 1243POPC   GL118637  43.865   9.491   9.230
 1243POPC   GL218638  44.086   9.715   9.087
 1243POPC   C1A18639  43.776   9.499   8.769
 1243POPC   D2A18640  44.017   9.647   8.432
 1243POPC   C3A18641  43.850   9.438   8.058
 1243POPC   C4A18642  43.616   9.605   7.704
 1243POPC   C1B18643  43.872   9.998   8.826
 1243POPC   C2B18644  43.609  10.066   8.470
 1243POPC   C3B18645  43.783   9.951   8.084
 1243POPC   C4B18646  43.934  10.003   7.700
 1244POPC   NC318647   7.943  16.960   9.806
 1244POPC   PO418648   7.523  17.474   9.583
 1244POPC   GL118649   7.552  17.461   9.158
 1244POPC   GL218650   7.212  17.461   9.092
 1244POPC   C1A18651   7.628  17.348   8.761
 1244POPC   D2A18652   7.482  17.517   8.385
 1244POPC   C3A18653   7.586  17.309   8.033
 1244POPC   C4A18654   7.706  17.283   7.641
 1244POPC   C1B18655   7.034  17.704   8.743
 1244POPC   C2B18656   7.132  17.886   8.327
 1244POPC   C3B18657   7.160  17.646   7.932
 1244POPC   C4B18658   7.233  17.445   7.493
 1245POPC   NC318659  13.272  28.849   9.268
 1245POPC   PO418660  12.807  29.301   9.641
 1245POPC   GL118661  12.854  29.261   9.186
 1245POPC   GL218662  12.730  28.976   9.047
 1245POPC   C1A18663  12.862  29.333   8.700
 1245POPC   D2A18664  13.193  29.383   8.354
 1245POPC   C3A18665  13.126  29.136   7.949
 1245POPC   C4A18666  12.829  29.149   7.624
 1245POPC   C1B18667  12.869  28.689   8.746
 1245POPC   C2B18668  12.658  28.652   8.392
 1245POPC   C3B18669  12.600  28.808   8.004
 1245POPC   C4B18670  12.746  28.659   7.652
 1246POPC   NC318671  44.963  17.299   9.589
 1246POPC   PO418672  44.503  17.688   9.881
 1246POPC   GL118673  44.538  17.773   9.400
 1246POPC   GL218674  44.583  17.440   9.285
 1246POPC   C1A18675  44.719  17.792   8.949
 1246POPC   D2A18676  44.863  17.594   8.542
 1246POPC   C3A18677  44.639  17.674   8.155
 1246POPC   C4A18678  44.786  17.751   7.739
 1246POPC   C1B18679  44.518  17.325   8.840
 1246POPC   C2B18680  44.689  17.097   8.503
 1246POPC   C3B18681  44.930  17.211   8.148
 1246POPC   C4B18682  44.641  17.271   7.800
 1247POPC   NC318683   8.052  21.038   9.298
 1247POPC   PO418684   8.613  20.596   9.475
 1247POPC   GL118685   8.438  20.703   9.124
 1247POPC   GL218686   8.525  21.012   9.024
 1247POPC   C1A18687   8.364  20.582   8.728
 1247POPC   D2A18688   8.148  20.871   8.485
 1247POPC   C3A18689   8.163  20.830   8.059
 1247POPC   C4A18690   8.078  20.692   7.654
 1247POPC   C1B18691   8.671  20.992   8.629
 1247POPC   C2B18692   8.532  21.142   8.255
 1247POPC   C3B18693   8.516  21.113   7.820
 1247POPC   C4B18694   8.572  20.675   7.718
 1248POPC   NC318695   6.966  22.512   9.327
 1248POPC   PO418696   6.617  23.163   9.372
 1248POPC   GL118697   6.515  22.830   9.101
 1248POPC   GL218698   6.143  22.693   9.113
 1248POPC   C1A18699   6.704  22.792   8.723
 1248POPC   D2A18700   7.041  22.793   8.405
 1248POPC   C3A18701   6.901  22.870   7.976
 1248POPC   C4A18702   6.918  22.722   7.560
 1248POPC   C1B18703   6.159  22.909   8.751
 1248POPC   C2B18704   6.310  22.785   8.401
 1248POPC   C3B18705   6.297  22.957   8.044
 1248POPC   C4B18706   6.435  22.925   7.659
 1249POPC   NC318707  38.533   7.998   9.535
 1249POPC   PO418708  38.588   8.620   9.659
 1249POPC   GL118709  38.590   8.453   9.217
 1249POPC   GL218710  38.270   8.512   9.076
 1249POPC   C1A18711  38.625   8.162   8.831
 1249POPC   D2A18712  38.481   8.002   8.395
 1249POPC   C3A18713  38.631   8.140   7.987
 1249POPC   C4A18714  38.516   7.865   7.713
 1249POPC   C1B18715  38.367   8.564   8.653
 1249POPC   C2B18716  38.498   8.537   8.266
 1249POPC   C3B18717  38.280   8.555   7.900
 1249POPC   C4B18718  38.216   8.583   7.469
 1250POPC   NC318719  15.971  19.362   9.709
 1250POPC   PO418720  15.595  19.787   9.309
 1250POPC   GL118721  15.982  19.892   9.103
 1250POPC   GL218722  16.241  20.129   9.207
 1250POPC   C1A18723  15.982  19.760   8.692
 1250POPC   D2A18724  15.671  19.795   8.392
 1250POPC   C3A18725  15.782  19.917   7.976
 1250POPC   C4A18726  15.629  19.610   7.681
 1250POPC   C1B18727  16.191  20.224   8.757
 1250POPC   C2B18728  16.218  20.045   8.337
 1250POPC   C3B18729  16.335  20.009   7.907
 1250POPC   C4B18730  16.239  20.244   7.526
 1251POPC   NC318731  22.673  27.320   9.592
 1251POPC   PO418732  23.229  27.775   9.759
 1251POPC   GL118733  23.002  27.663   9.361
 1251POPC   GL218734  23.261  27.632   9.132
 1251POPC   C1A18735  22.801  27.656   8.902
 1251POPC   D2A18736  22.685  27.680   8.438
 1251POPC   C3A18737  22.899  27.554   8.075
 1251POPC   C4A18738  23.041  27.469   7.679
 1251POPC   C1B18739  23.248  27.849   8.724
 1251POPC   C2B18740  23.305  27.656   8.350
 1251POPC   C3B18741  23.416  27.796   7.947
 1251POPC   C4B18742  23.352  27.844   7.508
 1252POPC   NC318743  36.609  31.987   9.435
 1252POPC   PO418744  37.225  32.263   9.535
 1252POPC   GL118745  36.980  32.245   9.169
 1252POPC   GL218746  37.224  32.365   8.974
 1252POPC   C1A18747  36.822  32.185   8.733
 1252POPC   D2A18748  36.963  32.387   8.343
 1252POPC   C3A18749  37.234  32.178   8.078
 1252POPC   C4A18750  36.966  32.036   7.790
 1252POPC   C1B18751  37.049  32.682   8.744
 1252POPC   C2B18752  37.092  32.899   8.360
 1252POPC   C3B18753  37.190  32.702   7.984
 1252POPC   C4B18754  36.934  32.521   7.702
 1253POPC   NC318755  30.022  35.921   9.473
 1253POPC   PO418756  29.504  36.288   9.511
 1253POPC   GL118757  29.712  36.206   9.155
 1253POPC   GL218758  29.615  35.894   9.119
 1253POPC   C1A18759  29.974  36.106   8.790
 1253POPC   D2A18760  29.991  36.389   8.437
 1253POPC   C3A18761  29.845  36.317   8.039
 1253POPC   C4A18762  30.054  36.481   7.675
 1253POPC   C1B18763  29.479  35.864   8.743
 1253POPC   C2B18764  29.323  35.944   8.367
 1253POPC   C3B18765  29.453  35.895   7.942
 1253POPC   C4B18766  29.559  35.842   7.528
 1254POPC   NC318767   2.219  10.521   9.355
 1254POPC   PO418768   2.770  10.564   9.798
 1254POPC   GL118769   2.707  10.617   9.319
 1254POPC   GL218770   2.911  10.826   9.119
 1254POPC   C1A18771   2.703  10.382   8.908
 1254POPC   D2A18772   2.837  10.197   8.532
 1254POPC   C3A18773   2.641  10.337   8.148
 1254POPC   C4A18774   2.725  10.365   7.715
 1254POPC   C1B18775   2.786  10.834   8.687
 1254POPC   C2B18776   2.976  10.703   8.330
 1254POPC   C3B18777   3.119  10.845   7.928
 1254POPC   C4B18778   2.897  10.821   7.553
 1255POPC   NC318779  41.336  23.014   9.531
 1255POPC   PO418780  42.001  22.903   9.437
 1255POPC   GL118781  41.643  22.815   9.138
 1255POPC   GL218782  41.464  23.132   9.056
 1255POPC   C1A18783  41.584  22.817   8.658
 1255POPC   D2A18784  41.786  22.981   8.253
 1255POPC   C3A18785  41.726  22.731   7.864
 1255POPC   C4A18786  41.342  22.625   8.043
 1255POPC   C1B18787  41.356  23.289   8.662
 1255POPC   C2B18788  41.257  23.113   8.258
 1255POPC   C3B18789  41.484  23.175   7.881
 1255POPC   C4B18790  41.535  23.362   7.525
 1256POPC   NC318791   2.545   8.048   9.634
 1256POPC   PO418792   2.978   8.547   9.545
 1256POPC   GL118793   2.829   8.201   9.238
 1256POPC   GL218794   2.522   8.034   9.111
 1256POPC   C1A18795   2.968   7.940   8.857
 1256POPC   D2A18796   2.773   7.969   8.434
 1256POPC   C3A18797   3.020   8.133   8.144
 1256POPC   C4A18798   2.942   8.198   7.720
 1256POPC   C1B18799   2.647   8.338   8.773
 1256POPC   C2B18800   2.515   8.475   8.353
 1256POPC   C3B18801   2.661   8.585   7.941
 1256POPC   C4B18802   2.517   8.437   7.512
 1257POPC   NC318803  25.411  39.493   9.593
 1257POPC   PO418804  25.463  40.210   9.645
 1257POPC   GL118805  25.502  40.203   9.215
 1257POPC   GL218806  25.534  39.853   9.246
 1257POPC   C1A18807  25.305  40.033   8.819
 1257POPC   D2A18808  25.427  40.122   8.404
 1257POPC   C3A18809  25.283  39.834   8.114
 1257POPC   C4A18810  25.136  39.934   7.749
 1257POPC   C1B18811  25.632  39.630   8.872
 1257POPC   C2B18812  25.634  39.615   8.432
 1257POPC   C3B18813  25.615  39.436   8.013
 1257POPC   C4B18814  25.427  39.537   7.654
 1258POPC   NC318815   2.739  15.823   9.605
 1258POPC   PO418816   3.377  16.021   9.608
 1258POPC   GL118817   3.091  15.922   9.242
 1258POPC   GL218818   2.900  16.222   9.339
 1258POPC   C1A18819   2.803  15.760   8.871
 1258POPC   D2A18820   2.631  15.726   8.425
 1258POPC   C3A18821   2.932  15.847   8.111
 1258POPC   C4A18822   3.039  15.627   7.737
 1258POPC   C1B18823   2.678  16.246   8.969
 1258POPC   C2B18824   2.779  16.227   8.533
 1258POPC   C3B18825   2.846  16.373   8.122
 1258POPC   C4B18826   2.586  16.316   7.792
 1259POPC   NC318827   1.377   4.112   9.498
 1259POPC   PO418828   1.045   4.656   9.502
 1259POPC   GL118829   1.173   4.547   9.111
 1259POPC   GL218830   1.450   4.349   9.038
 1259POPC   C1A18831   1.052   4.438   8.677
 1259POPC   D2A18832   1.258   4.297   8.307
 1259POPC   C3A18833   1.183   4.479   7.918
 1259POPC   C4A18834   0.854   4.298   7.713
 1259POPC   C1B18835   1.689   4.099   8.739
 1259POPC   C2B18836   1.647   3.983   8.320
 1259POPC   C3B18837   1.572   4.137   7.911
 1259POPC   C4B18838   1.360   4.154   7.538
 1260POPC   NC318839  34.276  13.408   9.516
 1260POPC   PO418840  34.735  13.877   9.538
 1260POPC   GL118841  34.627  13.723   9.161
 1260POPC   GL218842  34.748  13.387   9.229
 1260POPC   C1A18843  34.547  13.876   8.741
 1260POPC   D2A18844  34.363  13.780   8.357
 1260POPC   C3A18845  34.506  13.893   7.985
 1260POPC   C4A18846  34.535  13.560   7.728
 1260POPC   C1B18847  34.562  13.326   8.822
 1260POPC   C2B18848  34.700  13.355   8.397
 1260POPC   C3B18849  34.793  13.235   7.987
 1260POPC   C4B18850  34.965  13.099   7.566
 1261POPC   NC318851  23.284  29.365   9.552
 1261POPC   PO418852  23.067  28.679   9.543
 1261POPC   GL118853  23.187  28.995   9.232
 1261POPC   GL218854  23.404  28.782   9.060
 1261POPC   C1A18855  23.162  29.350   8.868
 1261POPC   D2A18856  23.092  29.224   8.423
 1261POPC   C3A18857  23.087  29.382   8.006
 1261POPC   C4A18858  22.829  29.052   7.799
 1261POPC   C1B18859  23.114  28.854   8.762
 1261POPC   C2B18860  23.348  28.786   8.404
 1261POPC   C3B18861  23.226  28.860   8.029
 1261POPC   C4B18862  23.166  28.745   7.594
 1262POPC   NC318863  11.711  16.380   9.726
 1262POPC   PO418864  11.705  15.782   9.454
 1262POPC   GL118865  12.060  15.836   9.160
 1262POPC   GL218866  11.981  16.191   9.167
 1262POPC   C1A18867  12.239  15.745   8.731
 1262POPC   D2A18868  11.977  15.776   8.341
 1262POPC   C3A18869  11.985  15.909   7.917
 1262POPC   C4A18870  12.262  15.611   7.770
 1262POPC   C1B18871  11.878  16.114   8.708
 1262POPC   C2B18872  11.684  16.188   8.252
 1262POPC   C3B18873  11.748  16.417   7.847
 1262POPC   C4B18874  11.870  16.263   7.436
 1263POPC   NC318875  41.413  25.768   9.673
 1263POPC   PO418876  41.535  26.356   9.502
 1263POPC   GL118877  41.498  26.130   9.093
 1263POPC   GL218878  41.348  25.786   9.178
 1263POPC   C1A18879  41.500  26.119   8.593
 1263POPC   D2A18880  41.253  26.357   8.271
 1263POPC   C3A18881  41.363  26.304   7.816
 1263POPC   C4A18882  41.765  26.104   7.701
 1263POPC   C1B18883  41.591  25.667   8.857
 1263POPC   C2B18884  41.499  25.600   8.451
 1263POPC   C3B18885  41.498  25.868   8.098
 1263POPC   C4B18886  41.369  25.795   7.679
 1264POPC   NC318887  11.019  26.536   9.575
 1264POPC   PO418888  11.465  27.030   9.428
 1264POPC   GL118889  11.343  26.672   9.138
 1264POPC   GL218890  11.098  26.381   9.102
 1264POPC   C1A18891  11.428  26.772   8.700
 1264POPC   D2A18892  11.338  27.098   8.422
 1264POPC   C3A18893  11.479  27.010   8.021
 1264POPC   C4A18894  11.598  26.631   7.822
 1264POPC   C1B18895  10.952  26.605   8.751
 1264POPC   C2B18896  11.002  26.725   8.302
 1264POPC   C3B18897  11.030  26.671   7.841
 1264POPC   C4B18898  10.900  26.687   7.386
 1265POPC   NC318899  28.792  41.936   9.527
 1265POPC   PO418900  28.140  41.726   9.609
 1265POPC   GL118901  28.343  41.842   9.246
 1265POPC   GL218902  28.155  41.580   9.109
 1265POPC   C1A18903  28.473  41.879   8.814
 1265POPC   D2A18904  28.787  41.903   8.461
 1265POPC   C3A18905  28.693  42.041   8.019
 1265POPC   C4A18906  28.442  41.825   7.673
 1265POPC   C1B18907  28.387  41.332   8.822
 1265POPC   C2B18908  28.481  41.198   8.400
 1265POPC   C3B18909  28.361  41.383   8.002
 1265POPC   C4B18910  28.536  41.298   7.625
 1266POPC   NC318911  39.628  16.109   9.875
 1266POPC   PO418912  39.000  16.061   9.636
 1266POPC   GL118913  39.057  16.061   9.153
 1266POPC   GL218914  39.017  16.368   9.059
 1266POPC   C1A18915  39.323  16.024   8.789
 1266POPC   D2A18916  39.289  15.790   8.422
 1266POPC   C3A18917  39.447  15.954   8.038
 1266POPC   C4A18918  39.134  15.830   7.738
 1266POPC   C1B18919  38.954  16.370   8.636
 1266POPC   C2B18920  39.059  16.225   8.249
 1266POPC   C3B18921  39.153  16.309   7.830
 1266POPC   C4B18922  39.557  16.290   7.627
 1267POPC   NC318923   2.326  22.137   9.298
 1267POPC   PO418924   1.797  22.289   9.680
 1267POPC   GL118925   1.765  22.175   9.217
 1267POPC   GL218926   1.968  22.331   8.993
 1267POPC   C1A18927   1.684  21.983   8.763
 1267POPC   D2A18928   1.893  22.152   8.371
 1267POPC   C3A18929   1.675  22.186   7.948
 1267POPC   C4A18930   1.873  22.350   7.553
 1267POPC   C1B18931   2.192  22.542   8.695
 1267POPC   C2B18932   2.518  22.404   8.459
 1267POPC   C3B18933   2.486  22.317   8.050
 1267POPC   C4B18934   2.367  22.448   7.638
 1268POPC   NC318935  20.494   4.574   9.801
 1268POPC   PO418936  20.685   5.112   9.369
 1268POPC   GL118937  20.612   5.090   8.985
 1268POPC   GL218938  20.958   5.055   8.890
 1268POPC   C1A18939  20.493   4.949   8.636
 1268POPC   D2A18940  20.714   4.764   8.342
 1268POPC   C3A18941  20.725   5.084   8.014
 1268POPC   C4A18942  20.333   5.171   7.812
 1268POPC   C1B18943  20.826   5.316   8.553
 1268POPC   C2B18944  20.461   5.414   8.320
 1268POPC   C3B18945  20.523   5.624   7.925
 1268POPC   C4B18946  20.793   5.435   7.591
 1269POPC   NC318947  35.005  42.106   9.410
 1269POPC   PO418948  35.113  42.798   9.468
 1269POPC   GL118949  35.241  42.509   9.161
 1269POPC   GL218950  35.573  42.546   9.209
 1269POPC   C1A18951  35.422  42.212   8.847
 1269POPC   D2A18952  35.612  42.143   8.434
 1269POPC   C3A18953  35.310  42.214   8.107
 1269POPC   C4A18954  35.370  42.153   7.678
 1269POPC   C1B18955  35.605  42.700   8.822
 1269POPC   C2B18956  35.408  42.624   8.440
 1269POPC   C3B18957  35.593  42.636   8.044
 1269POPC   C4B18958  35.813  42.735   7.629
 1270POPC   NC318959  31.632  42.604   9.635
 1270POPC   PO418960  31.318  42.102   9.447
 1270POPC   GL118961  31.414  42.419   9.186
 1270POPC   GL218962  31.680  42.246   9.031
 1270POPC   C1A18963  31.298  42.416   8.767
 1270POPC   D2A18964  31.565  42.348   8.434
 1270POPC   C3A18965  31.525  42.578   8.070
 1270POPC   C4A18966  31.365  42.513   7.705
 1270POPC   C1B18967  31.856  41.994   8.707
 1270POPC   C2B18968  31.637  41.859   8.323
 1270POPC   C3B18969  31.461  42.070   7.964
 1270POPC   C4B18970  31.552  42.082   7.512
 1271POPC   NC318971   0.168  38.802   9.410
 1271POPC   PO418972   0.576  39.381   9.563
 1271POPC   GL118973   0.437  39.197   9.205
 1271POPC   GL218974   0.746  39.323   9.043
 1271POPC   C1A18975   0.290  39.235   8.777
 1271POPC   D2A18976   0.660  39.181   8.496
 1271POPC   C3A18977   0.770  38.918   8.174
 1271POPC   C4A18978   0.547  38.935   7.789
 1271POPC   C1B18979   0.641  39.636   8.706
 1271POPC   C2B18980   0.343  39.542   8.361
 1271POPC   C3B18981   0.203  39.291   8.066
 1271POPC   C4B18982   0.009  39.570   7.799
 1272POPC   NC318983  33.918  26.781   9.615
 1272POPC   PO418984  33.303  26.899   9.730
 1272POPC   GL118985  33.572  26.810   9.236
 1272POPC   GL218986  33.915  26.631   9.140
 1272POPC   C1A18987  33.789  27.019   8.817
 1272POPC   D2A18988  33.644  27.250   8.453
 1272POPC   C3A18989  33.679  27.043   8.075
 1272POPC   C4A18990  33.660  26.937   7.665
 1272POPC   C1B18991  33.840  26.472   8.734
 1272POPC   C2B18992  33.732  26.574   8.329
 1272POPC   C3B18993  33.728  26.369   7.933
 1272POPC   C4B18994  33.839  26.490   7.544
 1273POPC   NC318995  26.433   0.918   9.433
 1273POPC   PO418996  26.724   1.457   9.568
 1273POPC   GL118997  26.928   1.180   9.250
 1273POPC   GL218998  27.118   1.463   9.131
 1273POPC   C1A18999  26.877   0.914   8.851
 1273POPC   D2A19000  26.745   0.964   8.401
 1273POPC   C3A19001  26.983   1.112   8.015
 1273POPC   C4A19002  26.864   1.166   7.574
 1273POPC   C1B19003  26.888   1.400   8.729
 1273POPC   C2B19004  26.728   1.535   8.328
 1273POPC   C3B19005  26.769   1.563   7.885
 1273POPC   C4B19006  27.171   1.569   7.708
 1274POPC   NC319007  39.460  12.419   9.520
 1274POPC   PO419008  39.158  11.831   9.633
 1274POPC   GL119009  39.020  11.978   9.209
 1274POPC   GL219010  39.204  12.244   9.091
 1274POPC   C1A19011  39.062  11.863   8.761
 1274POPC   D2A19012  39.024  11.993   8.353
 1274POPC   C3A19013  38.971  11.747   7.978
 1274POPC   C4A19014  38.933  11.799   7.506
 1274POPC   C1B19015  39.408  12.247   8.678
 1274POPC   C2B19016  39.443  12.239   8.240
 1274POPC   C3B19017  39.276  12.155   7.844
 1274POPC   C4B19018  39.019  12.343   7.528
 1275POPC   NC319019  30.075  42.913   9.586
 1275POPC   PO419020  29.433  43.142   9.625
 1275POPC   GL119021  29.717  43.117   9.287
 1275POPC   GL219022  29.771  42.777   9.199
 1275POPC   C1A19023  29.834  43.251   8.903
 1275POPC   D2A19024  29.667  43.524   8.617
 1275POPC   C3A19025  29.852  43.418   8.232
 1275POPC   C4A19026  29.729  43.259   7.842
 1275POPC   C1B19027  29.891  42.755   8.779
 1275POPC   C2B19028  30.047  42.972   8.415
 1275POPC   C3B19029  30.017  42.853   7.995
 1275POPC   C4B19030  29.960  42.884   7.535
 1276POPC   NC319031  34.336  39.038   9.598
 1276POPC   PO419032  34.919  39.316   9.613
 1276POPC   GL119033  34.628  39.326   9.193
 1276POPC   GL219034  34.265  39.173   9.120
 1276POPC   C1A19035  34.470  39.435   8.751
 1276POPC   D2A19036  34.352  39.200   8.398
 1276POPC   C3A19037  34.576  39.155   8.042
 1276POPC   C4A19038  34.472  39.280   7.670
 1276POPC   C1B19039  34.113  38.935   8.761
 1276POPC   C2B19040  33.920  38.936   8.369
 1276POPC   C3B19041  34.098  38.850   7.953
 1276POPC   C4B19042  34.072  39.001   7.540
 1277POPC   NC319043  24.669  34.257   9.259
 1277POPC   PO419044  24.217  34.567   9.654
 1277POPC   GL119045  24.250  34.668   9.213
 1277POPC   GL219046  24.576  34.756   9.075
 1277POPC   C1A19047  24.225  34.500   8.777
 1277POPC   D2A19048  24.359  34.662   8.393
 1277POPC   C3A19049  24.243  34.500   7.996
 1277POPC   C4A19050  24.613  34.359   7.833
 1277POPC   C1B19051  24.796  34.706   8.680
 1277POPC   C2B19052  24.875  34.824   8.230
 1277POPC   C3B19053  24.692  34.882   7.804
 1277POPC   C4B19054  24.631  34.895   7.350
 1278POPC   NC319055  32.877  14.299   9.324
 1278POPC   PO419056  33.536  14.083   9.374
 1278POPC   GL119057  33.327  14.280   9.057
 1278POPC   GL219058  33.214  14.628   9.077
 1278POPC   C1A19059  33.135  14.276   8.668
 1278POPC   D2A19060  32.932  14.167   8.304
 1278POPC   C3A19061  33.102  14.190   7.925
 1278POPC   C4A19062  32.757  14.180   7.700
 1278POPC   C1B19063  32.821  14.676   8.803
 1278POPC   C2B19064  32.665  14.581   8.403
 1278POPC   C3B19065  32.763  14.603   7.991
 1278POPC   C4B19066  32.975  14.645   7.597
 1279POPC   NC319067  34.213  10.986   9.399
 1279POPC   PO419068  34.736  10.795   9.800
 1279POPC   GL119069  34.650  10.727   9.333
 1279POPC   GL219070  34.803  10.428   9.265
 1279POPC   C1A19071  34.486  10.617   8.888
 1279POPC   D2A19072  34.599  10.497   8.450
 1279POPC   C3A19073  34.442  10.728   8.132
 1279POPC   C4A19074  34.196  10.756   7.764
 1279POPC   C1B19075  34.860  10.288   8.837
 1279POPC   C2B19076  34.898  10.082   8.454
 1279POPC   C3B19077  34.639  10.066   8.094
 1279POPC   C4B19078  34.520  10.350   7.798
 1280POPC   NC319079   1.780  39.499   9.499
 1280POPC   PO419080   2.332  39.105   9.564
 1280POPC   GL119081   2.203  39.178   9.156
 1280POPC   GL219082   2.177  39.506   9.160
 1280POPC   C1A19083   2.010  39.096   8.747
 1280POPC   D2A19084   1.965  39.299   8.329
 1280POPC   C3A19085   1.845  39.063   7.952
 1280POPC   C4A19086   1.934  39.111   7.507
 1280POPC   C1B19087   2.286  39.540   8.726
 1280POPC   C2B19088   2.474  39.496   8.309
 1280POPC   C3B19089   2.321  39.309   7.923
 1280POPC   C4B19090   1.973  39.547   7.784
 1281POPC   NC319091  15.600   5.296   9.537
 1281POPC   PO419092  16.189   4.892   9.576
 1281POPC   GL119093  15.919   4.992   9.220
 1281POPC   GL219094  15.997   5.342   9.218
 1281POPC   C1A19095  16.030   5.088   8.778
 1281POPC   D2A19096  15.814   5.165   8.406
 1281POPC   C3A19097  16.043   5.064   8.060
 1281POPC   C4A19098  15.781   4.996   7.734
 1281POPC   C1B19099  15.723   5.505   8.871
 1281POPC   C2B19100  15.586   5.647   8.441
 1281POPC   C3B19101  15.679   5.485   8.011
 1281POPC   C4B19102  16.027   5.428   7.718
 1282POPC   NC319103  22.523  43.327   9.259
 1282POPC   PO419104  23.058  42.974   9.564
 1282POPC   GL119105  23.123  42.989   9.114
 1282POPC   GL219106  22.813  42.994   9.017
 1282POPC   C1A19107  23.293  43.254   8.715
 1282POPC   D2A19108  23.195  43.537   8.343
 1282POPC   C3A19109  23.231  43.282   7.967
 1282POPC   C4A19110  23.102  42.866   7.854
 1282POPC   C1B19111  22.514  42.951   8.700
 1282POPC   C2B19112  22.505  43.146   8.305
 1282POPC   C3B19113  22.672  43.266   7.899
 1282POPC   C4B19114  22.571  43.476   7.485
 1283POPC   NC319115  14.913  12.106   9.439
 1283POPC   PO419116  15.559  11.982   9.497
 1283POPC   GL119117  15.332  12.240   9.170
 1283POPC   GL219118  14.931  12.394   9.043
 1283POPC   C1A19119  15.288  12.123   8.770
 1283POPC   D2A19120  15.377  12.193   8.378
 1283POPC   C3A19121  15.107  12.207   8.065
 1283POPC   C4A19122  15.443  12.222   7.782
 1283POPC   C1B19123  14.778  12.022   8.796
 1283POPC   C2B19124  14.984  11.800   8.473
 1283POPC   C3B19125  15.164  11.716   8.085
 1283POPC   C4B19126  15.005  11.891   7.684
 1284POPC   NC319127   6.371  32.493   9.421
 1284POPC   PO419128   6.593  31.888   9.481
 1284POPC   GL119129   6.661  32.174   9.141
 1284POPC   GL219130   7.014  32.218   9.066
 1284POPC   C1A19131   6.691  32.482   8.794
 1284POPC   D2A19132   6.506  32.528   8.394
 1284POPC   C3A19133   6.797  32.368   8.135
 1284POPC   C4A19134   6.922  32.353   7.732
 1284POPC   C1B19135   6.894  31.892   8.812
 1284POPC   C2B19136   6.668  31.941   8.497
 1284POPC   C3B19137   6.695  31.870   8.113
 1284POPC   C4B19138   6.788  31.662   7.794
 1285POPC   NC319139  21.015  15.647   9.509
 1285POPC   PO419140  21.591  16.035   9.534
 1285POPC   GL119141  21.477  15.832   9.164
 1285POPC   GL219142  21.746  15.621   9.097
 1285POPC   C1A19143  21.282  15.931   8.758
 1285POPC   D2A19144  21.166  16.217   8.435
 1285POPC   C3A19145  21.230  15.969   8.071
 1285POPC   C4A19146  21.148  16.137   7.647
 1285POPC   C1B19147  21.630  15.518   8.738
 1285POPC   C2B19148  21.707  15.635   8.359
 1285POPC   C3B19149  21.539  15.554   7.980
 1285POPC   C4B19150  21.535  15.815   7.622
 1286POPC   NC319151   4.444  17.835   9.598
 1286POPC   PO419152   4.185  17.240   9.745
 1286POPC   GL119153   4.204  17.481   9.286
 1286POPC   GL219154   4.412  17.730   9.105
 1286POPC   C1A19155   4.194  17.335   8.819
 1286POPC   D2A19156   4.227  17.296   8.385
 1286POPC   C3A19157   4.641  17.208   8.199
 1286POPC   C4A19158   4.654  17.356   7.779
 1286POPC   C1B19159   4.557  17.679   8.688
 1286POPC   C2B19160   4.510  17.700   8.262
 1286POPC   C3B19161   4.321  17.761   7.904
 1286POPC   C4B19162   4.622  17.879   7.648
 1287POPC   NC319163  36.006   8.333   9.410
 1287POPC   PO419164  36.410   7.822   9.474
 1287POPC   GL119165  36.184   7.897   9.084
 1287POPC   GL219166  35.806   7.915   9.101
 1287POPC   C1A19167  36.095   8.178   8.725
 1287POPC   D2A19168  35.923   8.390   8.358
 1287POPC   C3A19169  36.268   8.488   8.090
 1287POPC   C4A19170  36.409   8.370   7.687
 1287POPC   C1B19171  35.865   7.724   8.700
 1287POPC   C2B19172  36.045   7.829   8.286
 1287POPC   C3B19173  36.019   8.085   7.927
 1287POPC   C4B19174  35.905   8.406   7.675
 1288POPC   NC319175  22.448  40.258   9.391
 1288POPC   PO419176  21.840  39.960   9.479
 1288POPC   GL119177  22.042  40.114   9.105
 1288POPC   GL219178  22.329  39.862   9.074
 1288POPC   C1A19179  22.166  40.241   8.677
 1288POPC   D2A19180  22.055  40.024   8.281
 1288POPC   C3A19181  22.340  40.109   7.935
 1288POPC   C4A19182  22.197  40.181   7.526
 1288POPC   C1B19183  22.094  39.736   8.721
 1288POPC   C2B19184  22.007  39.418   8.428
 1288POPC   C3B19185  21.766  39.623   8.127
 1288POPC   C4B19186  21.907  39.853   7.793
 1289POPC   NC319187  32.300  12.528   9.432
 1289POPC   PO419188  31.697  12.323   9.351
 1289POPC   GL119189  32.151  12.103   9.171
 1289POPC   GL219190  32.436  11.864   9.202
 1289POPC   C1A19191  32.121  11.964   8.764
 1289POPC   D2A19192  31.742  11.877   8.546
 1289POPC   C3A19193  31.845  11.997   8.138
 1289POPC   C4A19194  32.111  12.060   7.782
 1289POPC   C1B19195  32.634  11.997   8.809
 1289POPC   C2B19196  32.481  11.989   8.371
 1289POPC   C3B19197  32.440  11.713   7.992
 1289POPC   C4B19198  32.598  11.907   7.639
 1290POPC   NC319199  25.544  17.989   9.492
 1290POPC   PO419200  25.060  18.445   9.395
 1290POPC   GL119201  25.129  18.123   9.103
 1290POPC   GL219202  25.474  18.079   9.007
 1290POPC   C1A19203  25.113  18.011   8.672
 1290POPC   D2A19204  25.202  18.171   8.276
 1290POPC   C3A19205  25.113  17.981   7.915
 1290POPC   C4A19206  25.303  18.074   7.526
 1290POPC   C1B19207  25.515  18.380   8.687
 1290POPC   C2B19208  25.701  18.360   8.294
 1290POPC   C3B19209  25.634  18.293   7.844
 1290POPC   C4B19210  25.493  18.579   7.494
 1291POPC   NC319211   7.173  27.564   9.475
 1291POPC   PO419212   7.730  27.961   9.462
 1291POPC   GL119213   7.510  27.756   9.101
 1291POPC   GL219214   7.156  27.818   9.051
 1291POPC   C1A19215   7.539  27.737   8.682
 1291POPC   D2A19216   7.786  27.831   8.348
 1291POPC   C3A19217   7.652  27.620   7.986
 1291POPC   C4A19218   7.641  27.621   7.550
 1291POPC   C1B19219   7.105  27.483   8.787
 1291POPC   C2B19220   7.173  27.557   8.363
 1291POPC   C3B19221   7.147  27.391   8.001
 1291POPC   C4B19222   7.146  27.379   7.597
 1292POPC   NC319223  10.419  32.619   9.471
 1292POPC   PO419224  10.634  33.250   9.679
 1292POPC   GL119225  10.543  33.107   9.201
 1292POPC   GL219226  10.286  32.884   9.089
 1292POPC   C1A19227  10.629  32.971   8.730
 1292POPC   D2A19228  10.787  33.094   8.304
 1292POPC   C3A19229  10.631  32.859   7.953
 1292POPC   C4A19230  10.370  32.948   7.605
 1292POPC   C1B19231  10.132  32.778   8.733
 1292POPC   C2B19232  10.288  32.848   8.341
 1292POPC   C3B19233  10.134  32.728   7.967
 1292POPC   C4B19234   9.853  32.827   7.651
 1293POPC   NC319235  41.753   6.376   9.370
 1293POPC   PO419236  41.314   6.900   9.420
 1293POPC   GL119237  41.404   6.664   9.091
 1293POPC   GL219238  41.256   6.343   9.002
 1293POPC   C1A19239  41.654   6.731   8.747
 1293POPC   D2A19240  41.952   6.668   8.422
 1293POPC   C3A19241  41.770   6.734   8.010
 1293POPC   C4A19242  41.589   6.910   7.625
 1293POPC   C1B19243  41.596   6.205   8.725
 1293POPC   C2B19244  41.965   6.159   8.475
 1293POPC   C3B19245  42.056   6.290   8.030
 1293POPC   C4B19246  41.831   6.384   7.642
 1294POPC   NC319247   4.896  30.614   9.528
 1294POPC   PO419248   5.452  30.290   9.443
 1294POPC   GL119249   5.199  30.508   9.161
 1294POPC   GL219250   5.144  30.846   9.128
 1294POPC   C1A19251   4.922  30.499   8.817
 1294POPC   D2A19252   5.004  30.319   8.434
 1294POPC   C3A19253   4.982  30.563   8.026
 1294POPC   C4A19254   5.033  30.832   7.637
 1294POPC   C1B19255   5.392  30.723   8.756
 1294POPC   C2B19256   5.385  30.661   8.358
 1294POPC   C3B19257   5.382  30.885   8.046
 1294POPC   C4B19258   5.554  31.000   7.662
 1295POPC   NC319259  15.391  36.731   9.647
 1295POPC   PO419260  14.854  36.474   9.487
 1295POPC   GL119261  15.151  36.724   9.197
 1295POPC   GL219262  15.513  36.563   9.165
 1295POPC   C1A19263  15.242  36.974   8.814
 1295POPC   D2A19264  15.428  37.014   8.390
 1295POPC   C3A19265  15.103  37.135   8.111
 1295POPC   C4A19266  15.117  37.231   7.676
 1295POPC   C1B19267  15.317  36.465   8.764
 1295POPC   C2B19268  15.170  36.528   8.356
 1295POPC   C3B19269  15.295  36.680   7.976
 1295POPC   C4B19270  15.526  36.674   7.625
 1296POPC   NC319271  28.928  40.452   9.518
 1296POPC   PO419272  29.443  40.898   9.649
 1296POPC   GL119273  29.167  40.863   9.278
 1296POPC   GL219274  28.983  41.174   9.163
 1296POPC   C1A19275  29.128  40.668   8.871
 1296POPC   D2A19276  29.307  40.717   8.428
 1296POPC   C3A19277  29.155  40.855   7.996
 1296POPC   C4A19278  29.112  40.677   7.554
 1296POPC   C1B19279  29.295  41.140   8.852
 1296POPC   C2B19280  29.603  41.121   8.507
 1296POPC   C3B19281  29.659  41.069   8.084
 1296POPC   C4B19282  29.500  41.116   7.684
 1297POPC   NC319283  17.112  40.146   9.367
 1297POPC   PO419284  17.800  39.945   9.516
 1297POPC   GL119285  17.529  39.881   9.165
 1297POPC   GL219286  17.230  39.655   9.163
 1297POPC   C1A19287  17.657  39.827   8.756
 1297POPC   D2A19288  17.706  40.069   8.395
 1297POPC   C3A19289  17.697  39.853   8.031
 1297POPC   C4A19290  17.543  39.922   7.636
 1297POPC   C1B19291  17.259  39.479   8.761
 1297POPC   C2B19292  17.305  39.722   8.370
 1297POPC   C3B19293  17.212  40.016   8.033
 1297POPC   C4B19294  17.088  39.774   7.661
 1298POPC   NC319295  39.850  10.577   9.561
 1298POPC   PO419296  40.447  10.667   9.799
 1298POPC   GL119297  40.307  10.603   9.271
 1298POPC   GL219298  40.029  10.382   9.128
 1298POPC   C1A19299  40.272  10.576   8.758
 1298POPC   D2A19300  40.092  10.302   8.417
 1298POPC   C3A19301  40.116  10.579   8.055
 1298POPC   C4A19302  40.261  10.487   7.647
 1298POPC   C1B19303  39.709  10.519   8.837
 1298POPC   C2B19304  39.718  10.648   8.409
 1298POPC   C3B19305  39.645  10.382   8.054
 1298POPC   C4B19306  39.774  10.399   7.597
 1299POPC   NC319307   8.801  33.033   9.620
 1299POPC   PO419308   9.380  33.393   9.862
 1299POPC   GL119309   9.230  33.221   9.431
 1299POPC   GL219310   9.355  33.390   9.210
 1299POPC   C1A19311   9.054  33.055   8.965
 1299POPC   D2A19312   8.992  32.804   8.570
 1299POPC   C3A19313   8.890  33.027   8.172
 1299POPC   C4A19314   9.016  32.905   7.778
 1299POPC   C1B19315   9.490  33.282   8.830
 1299POPC   C2B19316   9.168  33.304   8.510
 1299POPC   C3B19317   9.241  33.398   8.104
 1299POPC   C4B19318   9.064  33.413   7.689
 1300POPC   NC319319  20.616  28.211   9.480
 1300POPC   PO419320  21.144  28.686   9.414
 1300POPC   GL119321  20.813  28.518   9.109
 1300POPC   GL219322  20.430  28.509   9.096
 1300POPC   C1A19323  20.687  28.230   8.750
 1300POPC   D2A19324  20.532  27.957   8.427
 1300POPC   C3A19325  20.519  28.201   8.056
 1300POPC   C4A19326  20.643  28.303   7.636
 1300POPC   C1B19327  20.551  28.725   8.718
 1300POPC   C2B19328  20.399  28.829   8.316
 1300POPC   C3B19329  20.429  28.687   7.920
 1300POPC   C4B19330  20.787  28.785   7.710
 1301POPC   NC319331  40.848  24.453   9.543
 1301POPC   PO419332  40.166  24.513   9.603
 1301POPC   GL119333  40.519  24.558   9.177
 1301POPC   GL219334  40.817  24.270   9.075
 1301POPC   C1A19335  40.776  24.713   8.783
 1301POPC   D2A19336  41.008  24.840   8.395
 1301POPC   C3A19337  40.801  24.753   7.997
 1301POPC   C4A19338  40.703  24.393   7.781
 1301POPC   C1B19339  40.998  24.257   8.628
 1301POPC   C2B19340  41.105  24.373   8.196
 1301POPC   C3B19341  41.201  24.469   7.767
 1301POPC   C4B19342  41.013  24.190   7.422
 1302POPC   NC319343   6.015  21.698   9.469
 1302POPC   PO419344   5.794  21.089   9.308
 1302POPC   GL119345   5.832  21.491   9.047
 1302POPC   GL219346   6.166  21.655   9.000
 1302POPC   C1A19347   5.633  21.634   8.655
 1302POPC   D2A19348   5.666  21.392   8.279
 1302POPC   C3A19349   5.626  21.573   7.879
 1302POPC   C4A19350   5.644  21.279   7.502
 1302POPC   C1B19351   6.103  21.411   8.625
 1302POPC   C2B19352   6.142  21.151   8.272
 1302POPC   C3B19353   6.024  21.268   7.900
 1302POPC   C4B19354   6.248  21.630   7.787
 1303POPC   NC319355  44.671   0.610   9.516
 1303POPC   PO419356  44.361   0.018   9.495
 1303POPC   GL119357  44.587   0.241   9.174
 1303POPC   GL219358  44.906   0.097   9.084
 1303POPC   C1A19359  44.699   0.545   8.838
 1303POPC   D2A19360  44.572   0.737   8.437
 1303POPC   C3A19361  44.493   0.475   8.061
 1303POPC   C4A19362  44.565   0.468   7.624
 1303POPC   C1B19363   0.134   0.222   8.723
 1303POPC   C2B19364   0.026   0.382   8.311
 1303POPC   C3B19365  44.973   0.275   7.885
 1303POPC   C4B19366  44.990   0.303   7.407
 1304POPC   NC319367  17.302  21.313   9.662
 1304POPC   PO419368  17.893  21.131   9.627
 1304POPC   GL119369  17.594  21.129   9.248
 1304POPC   GL219370  17.481  21.478   9.170
 1304POPC   C1A19371  17.665  21.195   8.782
 1304POPC   D2A19372  17.466  21.017   8.422
 1304POPC   C3A19373  17.384  21.225   8.053
 1304POPC   C4A19374  17.687  21.131   7.764
 1304POPC   C1B19375  17.310  21.566   8.727
 1304POPC   C2B19376  17.406  21.712   8.275
 1304POPC   C3B19377  17.447  21.685   7.793
 1304POPC   C4B19378  17.794  21.775   7.457
 1305POPC   NC319379  29.817  28.798   9.403
 1305POPC   PO419380  30.230  28.248   9.445
 1305POPC   GL119381  29.924  28.238   9.163
 1305POPC   GL219382  29.931  27.966   8.941
 1305POPC   C1A19383  29.811  28.473   8.820
 1305POPC   D2A19384  29.922  28.462   8.408
 1305POPC   C3A19385  29.611  28.429   8.144
 1305POPC   C4A19386  29.663  28.590   7.781
 1305POPC   C1B19387  30.261  28.204   8.721
 1305POPC   C2B19388  30.426  28.495   8.423
 1305POPC   C3B19389  30.261  28.477   7.966
 1305POPC   C4B19390  30.135  28.170   7.635
 1306POPC   NC319391  23.457  27.432   9.567
 1306POPC   PO419392  24.128  27.447   9.467
 1306POPC   GL119393  24.018  27.501   9.064
 1306POPC   GL219394  23.771  27.762   9.066
 1306POPC   C1A19395  24.058  27.651   8.646
 1306POPC   D2A19396  23.809  27.739   8.324
 1306POPC   C3A19397  23.815  27.477   7.989
 1306POPC   C4A19398  23.850  27.695   7.628
 1306POPC   C1B19399  23.596  27.487   8.764
 1306POPC   C2B19400  23.587  27.231   8.394
 1306POPC   C3B19401  23.384  27.235   7.966
 1306POPC   C4B19402  23.501  27.347   7.532
 1307POPC   NC319403  13.480  16.125   9.446
 1307POPC   PO419404  14.024  15.684   9.505
 1307POPC   GL119405  13.778  15.838   9.165
 1307POPC   GL219406  13.881  16.188   9.125
 1307POPC   C1A19407  13.582  15.760   8.767
 1307POPC   D2A19408  13.762  15.744   8.355
 1307POPC   C3A19409  13.576  15.626   8.000
 1307POPC   C4A19410  13.630  15.816   7.642
 1307POPC   C1B19411  13.607  16.291   8.780
 1307POPC   C2B19412  13.415  16.151   8.382
 1307POPC   C3B19413  13.424  16.216   7.928
 1307POPC   C4B19414  13.260  16.537   7.658
 1308POPC   NC319415  35.086  31.659   9.556
 1308POPC   PO419416  35.738  31.317   9.550
 1308POPC   GL119417  35.633  31.246   9.152
 1308POPC   GL219418  35.306  31.397   9.180
 1308POPC   C1A19419  35.592  31.446   8.777
 1308POPC   D2A19420  35.383  31.536   8.432
 1308POPC   C3A19421  35.399  31.265   8.138
 1308POPC   C4A19422  35.613  31.377   7.750
 1308POPC   C1B19423  35.141  31.703   8.853
 1308POPC   C2B19424  34.949  31.773   8.385
 1308POPC   C3B19425  35.177  31.682   7.955
 1308POPC   C4B19426  35.186  31.811   7.487
 1309POPC   NC319427  37.628  20.944   9.215
 1309POPC   PO419428  37.441  20.307   9.321
 1309POPC   GL119429  37.722  20.475   8.968
 1309POPC   GL219430  37.993  20.745   8.929
 1309POPC   C1A19431  37.626  20.652   8.564
 1309POPC   D2A19432  37.269  20.657   8.283
 1309POPC   C3A19433  37.397  20.595   7.879
 1309POPC   C4A19434  37.557  20.211   7.785
 1309POPC   C1B19435  38.194  20.423   8.695
 1309POPC   C2B19436  38.263  20.393   8.283
 1309POPC   C3B19437  37.909  20.515   8.064
 1309POPC   C4B19438  37.922  20.525   7.655
 1310POPC   NC319439  10.117  40.898   9.333
 1310POPC   PO419440  10.741  40.836   9.542
 1310POPC   GL119441  10.545  40.696   9.135
 1310POPC   GL219442  10.229  40.496   9.025
 1310POPC   C1A19443  10.680  40.617   8.729
 1310POPC   D2A19444  10.565  40.789   8.346
 1310POPC   C3A19445  10.778  40.654   8.007
 1310POPC   C4A19446  10.530  40.781   7.715
 1310POPC   C1B19447  10.205  40.822   8.708
 1310POPC   C2B19448  10.079  41.053   8.371
 1310POPC   C3B19449  10.199  41.215   7.991
 1310POPC   C4B19450  10.107  41.022   7.614
 1311POPC   NC319451  42.515  29.968   9.574
 1311POPC   PO419452  42.149  29.404   9.560
 1311POPC   GL119453  42.250  29.673   9.187
 1311POPC   GL219454  42.365  30.024   9.107
 1311POPC   C1A19455  42.427  29.620   8.779
 1311POPC   D2A19456  42.519  29.770   8.349
 1311POPC   C3A19457  42.288  29.600   8.042
 1311POPC   C4A19458  42.469  29.614   7.659
 1311POPC   C1B19459  42.387  30.135   8.692
 1311POPC   C2B19460  42.410  30.297   8.315
 1311POPC   C3B19461  42.328  30.120   7.927
 1311POPC   C4B19462  42.547  30.101   7.551
 1312POPC   NC319463  38.487  35.675   9.501
 1312POPC   PO419464  38.449  35.016   9.534
 1312POPC   GL119465  38.321  35.260   9.178
 1312POPC   GL219466  38.234  35.611   9.077
 1312POPC   C1A19467  38.271  35.127   8.777
 1312POPC   D2A19468  38.553  35.164   8.449
 1312POPC   C3A19469  38.417  35.055   8.071
 1312POPC   C4A19470  38.587  35.143   7.698
 1312POPC   C1B19471  38.417  35.616   8.663
 1312POPC   C2B19472  38.491  35.625   8.214
 1312POPC   C3B19473  38.332  35.602   7.789
 1312POPC   C4B19474  38.178  35.660   7.348
 1313POPC   NC319475   0.169  39.634   9.604
 1313POPC   PO419476   0.573  40.169   9.507
 1313POPC   GL119477   0.514  40.050   9.100
 1313POPC   GL219478   0.401  39.715   9.147
 1313POPC   C1A19479   0.317  40.309   8.744
 1313POPC   D2A19480   0.226  40.550   8.355
 1313POPC   C3A19481   0.322  40.401   7.939
 1313POPC   C4A19482   0.082  40.372   7.550
 1313POPC   C1B19483   0.167  39.828   8.752
 1313POPC   C2B19484   0.302  40.041   8.333
 1313POPC   C3B19485   0.374  39.884   7.949
 1313POPC   C4B19486   0.559  39.524   7.815
 1314POPC   NC319487  11.513  11.523   9.576
 1314POPC   PO419488  11.306  10.867   9.539
 1314POPC   GL119489  11.481  10.956   9.138
 1314POPC   GL219490  11.422  11.317   9.119
 1314POPC   C1A19491  11.376  11.033   8.689
 1314POPC   D2A19492  11.095  11.220   8.416
 1314POPC   C3A19493  11.201  11.214   7.997
 1314POPC   C4A19494  11.401  11.562   7.782
 1314POPC   C1B19495  11.461  11.534   8.728
 1314POPC   C2B19496  11.612  11.393   8.353
 1314POPC   C3B19497  11.703  11.135   8.022
 1314POPC   C4B19498  11.843  11.329   7.694
 1315POPC   NC319499  13.686  31.170   9.513
 1315POPC   PO419500  13.657  30.556   9.586
 1315POPC   GL119501  13.619  30.767   9.203
 1315POPC   GL219502  13.967  30.914   9.147
 1315POPC   C1A19503  13.542  30.882   8.784
 1315POPC   D2A19504  13.692  30.918   8.392
 1315POPC   C3A19505  13.365  30.913   8.138
 1315POPC   C4A19506  13.323  31.134   7.801
 1315POPC   C1B19507  13.923  30.534   8.858
 1315POPC   C2B19508  13.872  30.397   8.420
 1315POPC   C3B19509  13.785  30.564   8.032
 1315POPC   C4B19510  13.802  30.941   7.855
 1316POPC   NC319511  40.757   3.203   9.449
 1316POPC   PO419512  40.946   3.842   9.569
 1316POPC   GL119513  40.747   3.625   9.181
 1316POPC   GL219514  41.021   3.449   9.046
 1316POPC   C1A19515  40.530   3.359   8.828
 1316POPC   D2A19516  40.542   3.263   8.335
 1316POPC   C3A19517  40.704   3.501   7.940
 1316POPC   C4A19518  40.595   3.588   7.476
 1316POPC   C1B19519  40.951   3.540   8.619
 1316POPC   C2B19520  40.977   3.940   8.430
 1316POPC   C3B19521  41.134   4.032   8.048
 1316POPC   C4B19522  41.117   3.742   7.722
 1317POPC   NC319523   4.104   7.858   9.432
 1317POPC   PO419524   4.406   7.238   9.463
 1317POPC   GL119525   4.305   7.314   9.059
 1317POPC   GL219526   4.660   7.352   9.023
 1317POPC   C1A19527   4.359   7.546   8.651
 1317POPC   D2A19528   4.162   7.799   8.319
 1317POPC   C3A19529   4.131   7.517   7.968
 1317POPC   C4A19530   4.475   7.446   7.715
 1317POPC   C1B19531   4.565   7.063   8.712
 1317POPC   C2B19532   4.388   7.137   8.319
 1317POPC   C3B19533   4.607   7.033   7.972
 1317POPC   C4B19534   4.527   6.908   7.560
 1318POPC   NC319535  34.694  11.248   9.709
 1318POPC   PO419536  34.068  11.443   9.433
 1318POPC   GL119537  34.376  11.486   9.103
 1318POPC   GL219538  34.690  11.448   9.224
 1318POPC   C1A19539  34.694  11.590   8.748
 1318POPC   D2A19540  34.818  11.424   8.395
 1318POPC   C3A19541  34.504  11.229   8.166
 1318POPC   C4A19542  34.501  11.247   7.729
 1318POPC   C1B19543  34.647  11.103   8.877
 1318POPC   C2B19544  34.853  10.938   8.506
 1318POPC   C3B19545  34.959  11.022   8.059
 1318POPC   C4B19546  34.743  10.818   7.710
 1319POPC   NC319547  24.776   1.437   9.207
 1319POPC   PO419548  25.252   1.054   9.519
 1319POPC   GL119549  25.254   1.282   9.144
 1319POPC   GL219550  25.044   1.069   8.918
 1319POPC   C1A19551  25.450   1.401   8.788
 1319POPC   D2A19552  25.466   1.028   8.517
 1319POPC   C3A19553  25.299   1.114   8.123
 1319POPC   C4A19554  25.543   1.172   7.740
 1319POPC   C1B19555  24.981   1.388   8.581
 1319POPC   C2B19556  24.908   1.488   8.167
 1319POPC   C3B19557  25.117   1.453   7.794
 1319POPC   C4B19558  25.084   1.271   7.405
 1320POPC   NC319559  23.475   5.535   9.426
 1320POPC   PO419560  23.905   5.915   9.786
 1320POPC   GL119561  23.920   5.797   9.292
 1320POPC   GL219562  23.867   6.075   9.055
 1320POPC   C1A19563  23.764   5.653   8.828
 1320POPC   D2A19564  23.798   5.523   8.384
 1320POPC   C3A19565  23.519   5.577   8.012
 1320POPC   C4A19566  23.702   5.591   7.576
 1320POPC   C1B19567  23.623   6.194   8.672
 1320POPC   C2B19568  23.625   6.019   8.251
 1320POPC   C3B19569  23.956   5.853   7.958
 1320POPC   C4B19570  23.985   6.004   7.522
 1321POPC   NC319571  33.816  12.966   9.502
 1321POPC   PO419572  33.306  12.601   9.673
 1321POPC   GL119573  33.521  12.651   9.220
 1321POPC   GL219574  33.724  12.917   9.009
 1321POPC   C1A19575  33.399  12.656   8.754
 1321POPC   D2A19576  33.604  12.945   8.445
 1321POPC   C3A19577  33.573  12.764   8.027
 1321POPC   C4A19578  33.846  12.501   7.774
 1321POPC   C1B19579  34.092  13.097   8.841
 1321POPC   C2B19580  34.185  13.316   8.470
 1321POPC   C3B19581  34.235  13.280   8.034
 1321POPC   C4B19582  33.987  12.977   7.797
 1322POPC   NC319583  28.077  16.166   9.763
 1322POPC   PO419584  28.520  15.740   9.475
 1322POPC   GL119585  28.551  15.806   9.068
 1322POPC   GL219586  28.740  16.077   9.105
 1322POPC   C1A19587  28.306  15.901   8.707
 1322POPC   D2A19588  28.238  16.110   8.343
 1322POPC   C3A19589  28.195  15.857   8.020
 1322POPC   C4A19590  28.407  15.836   7.634
 1322POPC   C1B19591  28.619  16.287   8.745
 1322POPC   C2B19592  28.701  16.314   8.316
 1322POPC   C3B19593  28.523  16.264   7.900
 1322POPC   C4B19594  28.568  16.290   7.448
 1323POPC   NC319595  39.964   2.773   9.464
 1323POPC   PO419596  40.506   2.451   9.334
 1323POPC   GL119597  40.193   2.607   9.044
 1323POPC   GL219598  40.139   2.978   9.008
 1323POPC   C1A19599  39.931   2.557   8.696
 1323POPC   D2A19600  39.934   2.750   8.295
 1323POPC   C3A19601  39.829   2.482   7.936
 1323POPC   C4A19602  39.796   2.563   7.456
 1323POPC   C1B19603  40.356   2.874   8.647
 1323POPC   C2B19604  40.362   2.512   8.407
 1323POPC   C3B19605  40.346   2.693   7.995
 1323POPC   C4B19606  40.242   2.465   7.655
 1324POPC   NC319607  28.040   3.507   9.583
 1324POPC   PO419608  28.721   3.430   9.607
 1324POPC   GL119609  28.455   3.448   9.178
 1324POPC   GL219610  28.140   3.663   9.119
 1324POPC   C1A19611  28.481   3.656   8.756
 1324POPC   D2A19612  28.560   3.562   8.329
 1324POPC   C3A19613  28.258   3.711   8.065
 1324POPC   C4A19614  28.269   3.722   7.609
 1324POPC   C1B19615  28.052   3.385   8.759
 1324POPC   C2B19616  27.920   3.350   8.304
 1324POPC   C3B19617  28.071   3.305   7.860
 1324POPC   C4B19618  28.018   3.339   7.360
 1325POPC   NC319619  19.622  44.233   9.538
 1325POPC   PO419620  20.054  44.694   9.574
 1325POPC   GL119621  20.016  44.625   9.147
 1325POPC   GL219622  19.904  44.289   9.073
 1325POPC   C1A19623  19.860  44.755   8.744
 1325POPC   D2A19624  19.894  44.627   8.324
 1325POPC   C3A19625  20.014  44.855   7.957
 1325POPC   C4A19626  19.899   0.256   7.795
 1325POPC   C1B19627  19.661  44.265   8.661
 1325POPC   C2B19628  19.565  44.246   8.207
 1325POPC   C3B19629  19.779  44.374   7.861
 1325POPC   C4B19630  20.061  44.444   7.587
 1326POPC   NC319631   9.573  17.998   9.500
 1326POPC   PO419632   9.893  18.648   9.557
 1326POPC   GL119633   9.857  18.319   9.236
 1326POPC   GL219634  10.183  18.192   9.131
 1326POPC   C1A19635   9.703  18.118   8.837
 1326POPC   D2A19636   9.505  18.231   8.428
 1326POPC   C3A19637   9.632  18.099   8.006
 1326POPC   C4A19638   9.849  18.134   7.614
 1326POPC   C1B19639  10.043  18.531   8.815
 1326POPC   C2B19640   9.889  18.580   8.399
 1326POPC   C3B19641   9.960  18.526   7.974
 1326POPC   C4B19642  10.073  18.866   7.760
 1327POPC   NC319643  10.987  11.166   9.391
 1327POPC   PO419644  10.481  11.416   9.718
 1327POPC   GL119645  10.333  11.420   9.294
 1327POPC   GL219646  10.664  11.497   9.152
 1327POPC   C1A19647  10.327  11.238   8.868
 1327POPC   D2A19648  10.591  11.140   8.502
 1327POPC   C3A19649  10.454  11.220   8.082
 1327POPC   C4A19650  10.269  11.079   7.680
 1327POPC   C1B19651  10.926  11.583   8.763
 1327POPC   C2B19652  10.908  11.704   8.309
 1327POPC   C3B19653  10.820  11.529   7.876
 1327POPC   C4B19654  10.780  11.062   7.722
 1328POPC   NC319655  43.895  12.584   9.293
 1328POPC   PO419656  43.975  13.149   9.586
 1328POPC   GL119657  43.894  13.219   9.190
 1328POPC   GL219658  43.553  13.088   9.232
 1328POPC   C1A19659  44.075  13.056   8.826
 1328POPC   D2A19660  43.908  12.897   8.432
 1328POPC   C3A19661  44.144  12.979   8.061
 1328POPC   C4A19662  44.057  12.851   7.651
 1328POPC   C1B19663  43.560  12.913   8.831
 1328POPC   C2B19664  43.401  12.719   8.465
 1328POPC   C3B19665  43.643  12.454   8.225
 1328POPC   C4B19666  43.656  12.800   7.967
 1329POPC   NC319667  38.148  17.228   9.869
 1329POPC   PO419668  37.733  17.599   9.567
 1329POPC   GL119669  37.605  17.463   9.177
 1329POPC   GL219670  37.460  17.780   9.129
 1329POPC   C1A19671  37.696  17.259   8.793
 1329POPC   D2A19672  37.783  17.446   8.416
 1329POPC   C3A19673  37.703  17.250   8.062
 1329POPC   C4A19674  37.485  17.448   7.769
 1329POPC   C1B19675  37.801  17.786   8.819
 1329POPC   C2B19676  37.944  17.913   8.394
 1329POPC   C3B19677  37.838  17.769   7.982
 1329POPC   C4B19678  37.818  17.752   7.528
 1330POPC   NC319679  13.451  34.104   9.455
 1330POPC   PO419680  13.305  34.783   9.621
 1330POPC   GL119681  13.608  34.596   9.289
 1330POPC   GL219682  13.752  34.857   9.055
 1330POPC   C1A19683  13.712  34.363   8.893
 1330POPC   D2A19684  13.798  34.621   8.529
 1330POPC   C3A19685  13.787  34.356   8.183
 1330POPC   C4A19686  13.625  34.386   7.775
 1330POPC   C1B19687  14.139  34.879   8.829
 1330POPC   C2B19688  14.299  34.739   8.438
 1330POPC   C3B19689  14.057  34.833   8.085
 1330POPC   C4B19690  13.759  34.883   7.765
 1331POPC   NC319691   6.204  11.593   9.567
 1331POPC   PO419692   5.694  11.216   9.599
 1331POPC   GL119693   5.940  11.273   9.256
 1331POPC   GL219694   5.873  11.627   9.195
 1331POPC   C1A19695   6.027  11.283   8.844
 1331POPC   D2A19696   6.154  11.095   8.497
 1331POPC   C3A19697   5.922  11.166   8.154
 1331POPC   C4A19698   6.087  11.018   7.787
 1331POPC   C1B19699   6.134  11.782   8.862
 1331POPC   C2B19700   5.991  11.631   8.463
 1331POPC   C3B19701   6.004  11.784   8.055
 1331POPC   C4B19702   5.898  11.486   7.768
 1332POPC   NC319703   3.078  30.345   9.624
 1332POPC   PO419704   3.582  30.828   9.704
 1332POPC   GL119705   3.707  30.882   9.213
 1332POPC   GL219706   3.688  30.561   9.003
 1332POPC   C1A19707   3.488  30.915   8.747
 1332POPC   D2A19708   3.586  30.555   8.458
 1332POPC   C3A19709   3.725  30.692   8.044
 1332POPC   C4A19710   3.440  30.972   7.825
 1332POPC   C1B19711   3.213  30.454   8.819
 1332POPC   C2B19712   3.026  30.416   8.414
 1332POPC   C3B19713   3.265  30.472   8.055
 1332POPC   C4B19714   3.477  30.434   7.648
 1333POPC   NC319715  37.259  17.547   9.540
 1333POPC   PO419716  36.690  17.351   9.596
 1333POPC   GL119717  36.863  17.601   9.218
 1333POPC   GL219718  37.062  17.315   9.136
 1333POPC   C1A19719  37.084  17.705   8.804
 1333POPC   D2A19720  37.276  17.435   8.487
 1333POPC   C3A19721  37.130  17.616   8.084
 1333POPC   C4A19722  36.988  17.475   7.656
 1333POPC   C1B19723  36.769  17.297   8.807
 1333POPC   C2B19724  36.780  17.446   8.416
 1333POPC   C3B19725  36.659  17.327   8.011
 1333POPC   C4B19726  36.439  17.585   7.709
 1334POPC   NC319727   2.046  25.741  10.078
 1334POPC   PO419728   1.619  25.995   9.587
 1334POPC   GL119729   1.851  26.011   9.186
 1334POPC   GL219730   1.613  25.882   9.079
 1334POPC   C1A19731   2.107  26.042   8.829
 1334POPC   D2A19732   2.215  25.771   8.500
 1334POPC   C3A19733   2.134  25.992   8.143
 1334POPC   C4A19734   2.158  26.143   7.750
 1334POPC   C1B19735   1.622  26.157   8.737
 1334POPC   C2B19736   1.656  25.993   8.334
 1334POPC   C3B19737   1.680  26.001   7.896
 1334POPC   C4B19738   1.729  26.390   7.689
 1335POPC   NC319739   8.671  23.465   9.497
 1335POPC   PO419740   8.080  23.853   9.687
 1335POPC   GL119741   7.912  23.678   9.305
 1335POPC   GL219742   8.194  23.793   9.086
 1335POPC   C1A19743   7.780  23.649   8.859
 1335POPC   D2A19744   8.026  23.778   8.484
 1335POPC   C3A19745   7.905  23.900   8.086
 1335POPC   C4A19746   8.044  23.786   7.702
 1335POPC   C1B19747   8.453  23.869   8.724
 1335POPC   C2B19748   8.562  23.583   8.441
 1335POPC   C3B19749   8.382  23.672   8.081
 1335POPC   C4B19750   8.459  23.499   7.705
 1336POPC   NC319751  43.444   5.067   9.436
 1336POPC   PO419752  44.144   5.123   9.513
 1336POPC   GL119753  43.941   4.968   9.154
 1336POPC   GL219754  43.695   4.690   9.188
 1336POPC   C1A19755  43.717   5.154   8.827
 1336POPC   D2A19756  43.656   5.079   8.412
 1336POPC   C3A19757  44.054   5.080   8.203
 1336POPC   C4A19758  44.077   5.255   7.765
 1336POPC   C1B19759  43.411   4.736   8.845
 1336POPC   C2B19760  43.277   4.716   8.433
 1336POPC   C3B19761  43.500   4.726   8.071
 1336POPC   C4B19762  43.835   4.807   7.836
 1337POPC   NC319763  21.657   2.744   9.580
 1337POPC   PO419764  21.262   3.232   9.508
 1337POPC   GL119765  21.587   3.115   9.166
 1337POPC   GL219766  21.710   2.736   9.090
 1337POPC   C1A19767  21.502   2.975   8.712
 1337POPC   D2A19768  21.169   2.927   8.402
 1337POPC   C3A19769  21.330   3.048   8.013
 1337POPC   C4A19770  21.660   3.244   7.828
 1337POPC   C1B19771  21.564   2.464   8.754
 1337POPC   C2B19772  21.661   2.389   8.328
 1337POPC   C3B19773  21.466   2.508   7.946
 1337POPC   C4B19774  21.101   2.660   7.767
 1338POPC   NC319775  31.911   5.601   9.591
 1338POPC   PO419776  32.362   6.172   9.524
 1338POPC   GL119777  32.101   5.962   9.223
 1338POPC   GL219778  32.219   5.606   9.191
 1338POPC   C1A19779  32.169   5.968   8.780
 1338POPC   D2A19780  32.235   6.220   8.438
 1338POPC   C3A19781  32.306   6.006   8.063
 1338POPC   C4A19782  32.053   5.632   7.960
 1338POPC   C1B19783  32.245   5.452   8.788
 1338POPC   C2B19784  32.328   5.603   8.396
 1338POPC   C3B19785  32.569   5.557   8.031
 1338POPC   C4B19786  32.600   5.505   7.598
 1339POPC   NC319787   7.091  12.960   9.475
 1339POPC   PO419788   7.727  12.639   9.466
 1339POPC   GL119789   7.459  12.807   9.143
 1339POPC   GL219790   7.564  13.093   9.116
 1339POPC   C1A19791   7.293  12.714   8.751
 1339POPC   D2A19792   7.433  12.612   8.346
 1339POPC   C3A19793   7.228  12.733   7.984
 1339POPC   C4A19794   7.192  12.649   7.581
 1339POPC   C1B19795   7.448  13.205   8.747
 1339POPC   C2B19796   7.177  13.107   8.407
 1339POPC   C3B19797   7.344  13.224   8.010
 1339POPC   C4B19798   7.248  13.146   7.599
 1340POPC   NC319799  36.827  26.631   9.502
 1340POPC   PO419800  36.834  27.302   9.415
 1340POPC   GL119801  36.997  26.981   9.114
 1340POPC   GL219802  37.011  26.625   9.029
 1340POPC   C1A19803  37.063  27.023   8.696
 1340POPC   D2A19804  36.856  26.923   8.334
 1340POPC   C3A19805  36.933  27.110   7.935
 1340POPC   C4A19806  36.822  26.775   7.625
 1340POPC   C1B19807  37.362  26.631   8.736
 1340POPC   C2B19808  37.380  26.868   8.312
 1340POPC   C3B19809  37.183  26.666   7.962
 1340POPC   C4B19810  37.321  26.528   7.537
 1341POPC   NC319811  43.041  20.240   9.550
 1341POPC   PO419812  43.203  20.838   9.765
 1341POPC   GL119813  43.247  20.685   9.308
 1341POPC   GL219814  43.109  20.387   9.083
 1341POPC   C1A19815  43.241  20.791   8.846
 1341POPC   D2A19816  42.906  20.787   8.557
 1341POPC   C3A19817  43.036  20.681   8.149
 1341POPC   C4A19818  43.239  20.926   7.805
 1341POPC   C1B19819  43.179  20.312   8.643
 1341POPC   C2B19820  43.178  20.172   8.225
 1341POPC   C3B19821  42.895  20.237   7.871
 1341POPC   C4B19822  42.706  20.647   7.769
 1342POPC   NC319823  20.565   7.138   9.567
 1342POPC   PO419824  21.264   7.273   9.644
 1342POPC   GL119825  20.912   7.392   9.276
 1342POPC   GL219826  20.541   7.572   9.276
 1342POPC   C1A19827  20.708   7.366   8.851
 1342POPC   D2A19828  20.660   7.649   8.462
 1342POPC   C3A19829  20.689   7.462   8.023
 1342POPC   C4A19830  20.429   7.219   7.721
 1342POPC   C1B19831  20.297   7.696   8.854
 1342POPC   C2B19832  20.167   7.648   8.380
 1342POPC   C3B19833  20.253   7.716   7.934
 1342POPC   C4B19834  20.404   7.745   7.495
 1343POPC   NC319835  31.962  32.050   9.482
 1343POPC   PO419836  32.140  32.730   9.439
 1343POPC   GL119837  32.096  32.413   9.144
 1343POPC   GL219838  32.370  32.168   9.185
 1343POPC   C1A19839  32.061  32.164   8.762
 1343POPC   D2A19840  32.257  32.189   8.350
 1343POPC   C3A19841  32.045  32.366   7.950
 1343POPC   C4A19842  32.038  32.152   7.548
 1343POPC   C1B19843  32.507  32.449   8.837
 1343POPC   C2B19844  32.592  32.599   8.417
 1343POPC   C3B19845  32.555  32.428   8.013
 1343POPC   C4B19846  32.585  32.203   7.646
 1344POPC   NC319847  12.189  35.764   9.684
 1344POPC   PO419848  11.985  35.073   9.544
 1344POPC   GL119849  12.063  35.234   9.151
 1344POPC   GL219850  12.180  35.557   9.206
 1344POPC   C1A19851  12.273  35.182   8.763
 1344POPC   D2A19852  12.103  35.074   8.380
 1344POPC   C3A19853  12.341  35.160   8.059
 1344POPC   C4A19854  12.236  35.104   7.686
 1344POPC   C1B19855  12.386  35.691   8.828
 1344POPC   C2B19856  12.260  35.580   8.421
 1344POPC   C3B19857  11.987  35.516   8.091
 1344POPC   C4B19858  12.225  35.604   7.684
 1345POPC   NC319859  36.470  35.516   9.454
 1345POPC   PO419860  35.861  35.169   9.541
 1345POPC   GL119861  36.003  35.401   9.170
 1345POPC   GL219862  36.321  35.245   9.047
 1345POPC   C1A19863  36.032  35.608   8.749
 1345POPC   D2A19864  36.212  35.792   8.358
 1345POPC   C3A19865  36.298  35.482   7.992
 1345POPC   C4A19866  36.499  35.080   7.832
 1345POPC   C1B19867  36.107  35.107   8.706
 1345POPC   C2B19868  35.956  35.274   8.344
 1345POPC   C3B19869  35.967  35.089   7.939
 1345POPC   C4B19870  36.082  35.237   7.531
 1346POPC   NC319871   5.720  17.683   9.332
 1346POPC   PO419872   6.013  18.293   9.479
 1346POPC   GL119873   6.155  18.333   9.103
 1346POPC   GL219874   6.386  18.028   9.111
 1346POPC   C1A19875   5.898  18.419   8.748
 1346POPC   D2A19876   5.665  18.294   8.391
 1346POPC   C3A19877   5.899  18.476   8.074
 1346POPC   C4A19878   5.854  18.454   7.640
 1346POPC   C1B19879   6.148  17.953   8.766
 1346POPC   C2B19880   6.133  18.093   8.375
 1346POPC   C3B19881   5.913  17.889   8.115
 1346POPC   C4B19882   5.882  17.976   7.734
 1347POPC   NC319883  16.280  27.937   9.409
 1347POPC   PO419884  16.517  27.328   9.479
 1347POPC   GL119885  16.706  27.642   9.194
 1347POPC   GL219886  16.935  27.387   9.082
 1347POPC   C1A19887  16.883  27.960   8.852
 1347POPC   D2A19888  17.058  27.866   8.396
 1347POPC   C3A19889  16.790  27.904   7.981
 1347POPC   C4A19890  16.764  28.082   7.494
 1347POPC   C1B19891  16.791  27.511   8.684
 1347POPC   C2B19892  16.854  27.411   8.285
 1347POPC   C3B19893  16.884  27.395   7.901
 1347POPC   C4B19894  16.471  27.468   7.865
 1348POPC   NC319895   8.018  18.569   9.525
 1348POPC   PO419896   8.377  17.979   9.452
 1348POPC   GL119897   8.280  18.044   9.052
 1348POPC   GL219898   8.275  18.406   9.093
 1348POPC   C1A19899   8.326  18.169   8.628
 1348POPC   D2A19900   8.045  18.415   8.375
 1348POPC   C3A19901   7.970  18.244   7.994
 1348POPC   C4A19902   7.935  18.492   7.648
 1348POPC   C1B19903   8.461  18.672   8.799
 1348POPC   C2B19904   8.423  18.777   8.395
 1348POPC   C3B19905   8.303  18.665   7.992
 1348POPC   C4B19906   8.398  18.644   7.524
 1349POPC   NC319907  32.234  25.513   9.513
 1349POPC   PO419908  32.056  24.828   9.351
 1349POPC   GL119909  32.286  25.191   9.109
 1349POPC   GL219910  32.498  25.542   9.094
 1349POPC   C1A19911  32.280  25.330   8.686
 1349POPC   D2A19912  32.327  25.193   8.252
 1349POPC   C3A19913  32.132  25.422   7.955
 1349POPC   C4A19914  31.968  25.239   7.593
 1349POPC   C1B19915  32.801  25.463   8.799
 1349POPC   C2B19916  32.693  25.505   8.375
 1349POPC   C3B19917  32.617  25.601   7.966
 1349POPC   C4B19918  32.454  25.520   7.593
 1350POPC   NC319919   4.173  39.880   9.480
 1350POPC   PO419920   4.474  40.434   9.338
 1350POPC   GL119921   4.262  40.150   9.061
 1350POPC   GL219922   4.417  40.270   8.760
 1350POPC   C1A19923   4.076  39.862   8.774
 1350POPC   D2A19924   4.324  39.896   8.376
 1350POPC   C3A19925   4.262  39.956   7.926
 1350POPC   C4A19926   4.348  39.690   7.571
 1350POPC   C1B19927   3.961  40.295   8.597
 1350POPC   C2B19928   3.733  39.990   8.387
 1350POPC   C3B19929   3.738  39.783   8.019
 1350POPC   C4B19930   3.810  40.143   7.777
 1351POPC   NC319931   7.613  31.267   9.791
 1351POPC   PO419932   7.331  30.702   9.556
 1351POPC   GL119933   7.328  30.630   9.149
 1351POPC   GL219934   7.691  30.601   9.106
 1351POPC   C1A19935   7.215  30.842   8.744
 1351POPC   D2A19936   7.385  30.753   8.329
 1351POPC   C3A19937   7.249  30.994   7.987
 1351POPC   C4A19938   7.423  30.795   7.663
 1351POPC   C1B19939   7.526  30.442   8.709
 1351POPC   C2B19940   7.370  30.223   8.372
 1351POPC   C3B19941   7.393  30.373   7.965
 1351POPC   C4B19942   7.630  30.342   7.608
 1352POPC   NC319943  35.508  15.383   9.787
 1352POPC   PO419944  34.941  15.094   9.641
 1352POPC   GL119945  35.135  15.225   9.180
 1352POPC   GL219946  35.523  15.181   9.182
 1352POPC   C1A19947  35.332  15.498   8.839
 1352POPC   D2A19948  35.538  15.341   8.465
 1352POPC   C3A19949  35.245  15.409   8.125
 1352POPC   C4A19950  35.263  15.386   7.688
 1352POPC   C1B19951  35.311  14.964   8.787
 1352POPC   C2B19952  35.252  14.774   8.380
 1352POPC   C3B19953  35.310  14.915   7.955
 1352POPC   C4B19954  35.050  14.927   7.607
 1353POPC   NC319955  39.250   2.545   9.536
 1353POPC   PO419956  39.525   3.171   9.481
 1353POPC   GL119957  39.316   2.892   9.168
 1353POPC   GL219958  39.597   2.655   9.123
 1353POPC   C1A19959  39.258   2.723   8.742
 1353POPC   D2A19960  39.445   2.533   8.353
 1353POPC   C3A19961  39.098   2.624   8.086
 1353POPC   C4A19962  39.069   2.948   7.773
 1353POPC   C1B19963  39.681   2.975   8.819
 1353POPC   C2B19964  39.547   3.029   8.436
 1353POPC   C3B19965  39.545   2.896   8.000
 1353POPC   C4B19966  39.894   2.990   7.717
 1354POPC   NC319967  16.057  18.373   9.588
 1354POPC   PO419968  15.590  18.112   9.166
 1354POPC   GL119969  15.872  18.439   9.105
 1354POPC   GL219970  15.695  18.682   9.221
 1354POPC   C1A19971  16.106  18.399   8.736
 1354POPC   D2A19972  16.052  18.077   8.399
 1354POPC   C3A19973  16.118  18.367   8.065
 1354POPC   C4A19974  16.153  18.248   7.670
 1354POPC   C1B19975  15.498  18.605   8.782
 1354POPC   C2B19976  15.684  18.428   8.410
 1354POPC   C3B19977  15.666  18.141   8.054
 1354POPC   C4B19978  15.596  18.356   7.689
 1355POPC   NC319979   1.585  37.078   9.460
 1355POPC   PO419980   0.971  36.947   9.485
 1355POPC   GL119981   1.182  36.822   9.104
 1355POPC   GL219982   1.539  36.810   9.046
 1355POPC   C1A19983   1.129  36.750   8.669
 1355POPC   D2A19984   1.115  36.981   8.288
 1355POPC   C3A19985   0.912  36.793   7.918
 1355POPC   C4A19986   0.943  36.701   7.478
 1355POPC   C1B19987   1.655  36.714   8.652
 1355POPC   C2B19988   1.518  36.653   8.239
 1355POPC   C3B19989   1.417  36.903   7.871
 1355POPC   C4B19990   1.664  36.767   7.531
 1356POPC   NC319991  21.068  41.186   9.425
 1356POPC   PO419992  20.785  40.615   9.493
 1356POPC   GL119993  20.710  40.923   9.168
 1356POPC   GL219994  20.464  41.176   9.213
 1356POPC   C1A19995  20.720  40.866   8.749
 1356POPC   D2A19996  20.590  40.600   8.445
 1356POPC   C3A19997  20.723  40.764   8.098
 1356POPC   C4A19998  20.606  40.702   7.715
 1356POPC   C1B19999  20.250  41.090   8.814
 1356POPC   C2B20000  20.388  41.091   8.394
 1356POPC   C3B20001  20.182  41.049   8.025
 1356POPC   C4B20002  20.132  40.850   7.630
 1357POPC   NC320003   3.813  36.686   9.776
 1357POPC   PO420004   3.279  36.808   9.316
 1357POPC   GL120005   3.429  36.926   8.981
 1357POPC   GL220006   3.764  37.044   9.037
 1357POPC   C1A20007   3.272  36.779   8.632
 1357POPC   D2A20008   3.083  36.587   8.326
 1357POPC   C3A20009   3.226  36.790   7.961
 1357POPC   C4A20010   3.410  36.935   7.589
 1357POPC   C1B20011   3.781  36.745   8.657
 1357POPC   C2B20012   3.645  36.806   8.261
 1357POPC   C3B20013   3.731  36.650   7.880
 1357POPC   C4B20014   4.105  36.630   7.668
 1358POPC   NC320015  17.741  42.974   9.469
 1358POPC   PO420016  17.062  43.097   9.511
 1358POPC   GL120017  17.307  43.195   9.170
 1358POPC   GL220018  17.081  42.972   9.018
 1358POPC   C1A20019  17.573  43.002   8.828
 1358POPC   D2A20020  17.541  42.782   8.442
 1358POPC   C3A20021  17.745  42.870   8.075
 1358POPC   C4A20022  17.711  43.228   7.770
 1358POPC   C1B20023  17.084  42.977   8.605
 1358POPC   C2B20024  17.026  42.861   8.214
 1358POPC   C3B20025  17.178  42.639   7.957
 1358POPC   C4B20026  17.368  42.862   7.731
 1359POPC   NC320027  43.169  42.825   9.500
 1359POPC   PO420028  42.884  43.343   9.718
 1359POPC   GL120029  42.934  43.093   9.180
 1359POPC   GL220030  43.293  43.113   9.080
 1359POPC   C1A20031  42.990  42.969   8.722
 1359POPC   D2A20032  42.998  43.245   8.361
 1359POPC   C3A20033  43.035  43.004   7.986
 1359POPC   C4A20034  42.948  43.007   7.534
 1359POPC   C1B20035  43.544  43.275   8.698
 1359POPC   C2B20036  43.438  43.562   8.346
 1359POPC   C3B20037  43.292  43.455   7.941
 1359POPC   C4B20038  43.420  43.135   7.666
 1360POPC   NC320039   7.972  29.630   9.365
 1360POPC   PO420040   8.178  30.170   9.548
 1360POPC   GL120041   8.300  29.995   9.165
 1360POPC   GL220042   7.951  30.046   9.053
 1360POPC   C1A20043   8.375  29.916   8.729
 1360POPC   D2A20044   8.275  30.082   8.295
 1360POPC   C3A20045   8.255  29.807   7.949
 1360POPC   C4A20046   8.329  29.420   7.800
 1360POPC   C1B20047   7.998  30.294   8.665
 1360POPC   C2B20048   7.845  30.359   8.228
 1360POPC   C3B20049   8.043  30.237   7.839
 1360POPC   C4B20050   8.040  30.225   7.348
 1361POPC   NC320051  20.862  36.687   9.401
 1361POPC   PO420052  20.307  37.122   9.493
 1361POPC   GL120053  20.443  36.899   9.157
 1361POPC   GL220054  20.203  36.691   9.079
 1361POPC   C1A20055  20.631  36.899   8.764
 1361POPC   D2A20056  20.619  37.125   8.362
 1361POPC   C3A20057  20.670  36.919   8.001
 1361POPC   C4A20058  20.610  37.035   7.611
 1361POPC   C1B20059  20.135  36.569   8.701
 1361POPC   C2B20060  20.386  36.661   8.367
 1361POPC   C3B20061  20.234  36.659   7.988
 1361POPC   C4B20062  20.374  36.574   7.585
 1362POPC   NC320063  23.323  42.570   9.655
 1362POPC   PO420064  23.818  43.077   9.507
 1362POPC   GL120065  23.616  43.072   9.157
 1362POPC   GL220066  23.633  43.423   9.068
 1362POPC   C1A20067  23.483  42.791   8.791
 1362POPC   D2A20068  23.328  42.884   8.351
 1362POPC   C3A20069  23.602  42.825   7.996
 1362POPC   C4A20070  23.716  43.209   7.803
 1362POPC   C1B20071  23.824  43.189   8.730
 1362POPC   C2B20072  23.789  43.164   8.325
 1362POPC   C3B20073  24.081  43.434   8.151
 1362POPC   C4B20074  24.064  43.589   7.783
 1363POPC   NC320075  14.294  16.078   9.487
 1363POPC   PO420076  14.807  15.630   9.538
 1363POPC   GL120077  14.579  15.880   9.094
 1363POPC   GL220078  14.261  15.849   9.027
 1363POPC   C1A20079  14.580  16.033   8.680
 1363POPC   D2A20080  14.658  16.336   8.377
 1363POPC   C3A20081  14.681  16.058   8.052
 1363POPC   C4A20082  14.387  15.985   7.773
 1363POPC   C1B20083  14.047  16.014   8.687
 1363POPC   C2B20084  13.918  16.222   8.331
 1363POPC   C3B20085  13.924  16.107   7.912
 1363POPC   C4B20086  14.023  16.062   7.436
 1364POPC   NC320087  13.596  11.372   9.580
 1364POPC   PO420088  13.451  10.750   9.429
 1364POPC   GL120089  13.684  11.084   9.136
 1364POPC   GL220090  13.794  11.488   9.132
 1364POPC   C1A20091  13.712  11.213   8.712
 1364POPC   D2A20092  13.816  11.299   8.305
 1364POPC   C3A20093  13.643  10.949   8.097
 1364POPC   C4A20094  13.541  10.973   7.676
 1364POPC   C1B20095  13.787  11.721   8.742
 1364POPC   C2B20096  13.955  11.825   8.353
 1364POPC   C3B20097  13.906  11.693   7.942
 1364POPC   C4B20098  13.597  11.441   7.832
 1365POPC   NC320099  24.477  19.430   9.590
 1365POPC   PO420100  24.800  18.862   9.795
 1365POPC   GL120101  24.702  19.028   9.324
 1365POPC   GL220102  24.516  19.302   9.092
 1365POPC   C1A20103  24.798  18.965   8.858
 1365POPC   D2A20104  24.866  19.025   8.414
 1365POPC   C3A20105  24.530  19.071   8.106
 1365POPC   C4A20106  24.359  18.780   7.797
 1365POPC   C1B20107  24.248  19.520   8.739
 1365POPC   C2B20108  24.120  19.278   8.394
 1365POPC   C3B20109  24.014  19.103   8.011
 1365POPC   C4B20110  24.105  19.224   7.607
 1366POPC   NC320111  33.092  19.651   9.492
 1366POPC   PO420112  32.807  20.220   9.700
 1366POPC   GL120113  32.842  20.040   9.272
 1366POPC   GL220114  33.189  19.987   9.129
 1366POPC   C1A20115  32.795  20.045   8.825
 1366POPC   D2A20116  32.917  20.246   8.451
 1366POPC   C3A20117  32.829  20.033   8.064
 1366POPC   C4A20118  32.843  20.129   7.628
 1366POPC   C1B20119  33.352  19.939   8.723
 1366POPC   C2B20120  33.387  20.099   8.308
 1366POPC   C3B20121  33.339  20.015   7.873
 1366POPC   C4B20122  33.244  19.577   7.770
 1367POPC   NC320123  39.812  38.087   9.541
 1367POPC   PO420124  40.258  38.632   9.531
 1367POPC   GL120125  40.050  38.386   9.175
 1367POPC   GL220126  40.329  38.240   8.972
 1367POPC   C1A20127  39.891  38.280   8.735
 1367POPC   D2A20128  40.113  38.443   8.326
 1367POPC   C3A20129  39.963  38.692   7.957
 1367POPC   C4A20130  39.810  38.540   7.535
 1367POPC   C1B20131  40.218  38.684   8.776
 1367POPC   C2B20132  40.466  38.860   8.445
 1367POPC   C3B20133  40.488  38.773   8.019
 1367POPC   C4B20134  40.367  38.541   7.636
 1368POPC   NC320135  24.127  26.258   9.624
 1368POPC   PO420136  23.615  25.868   9.647
 1368POPC   GL120137  23.623  25.803   9.229
 1368POPC   GL220138  23.404  25.534   9.150
 1368POPC   C1A20139  23.727  26.085   8.887
 1368POPC   D2A20140  23.672  26.013   8.449
 1368POPC   C3A20141  23.675  26.331   8.099
 1368POPC   C4A20142  23.933  26.480   7.767
 1368POPC   C1B20143  23.324  25.783   8.801
 1368POPC   C2B20144  23.260  25.696   8.394
 1368POPC   C3B20145  23.230  25.812   7.986
 1368POPC   C4B20146  23.409  26.037   7.712
 1369POPC   NC320147  13.655   6.374   9.570
 1369POPC   PO420148  13.581   7.085   9.475
 1369POPC   GL120149  13.440   6.712   9.178
 1369POPC   GL220150  13.577   6.366   9.079
 1369POPC   C1A20151  13.469   6.698   8.731
 1369POPC   D2A20152  13.774   6.555   8.479
 1369POPC   C3A20153  13.699   6.632   8.051
 1369POPC   C4A20154  13.269   6.643   7.845
 1369POPC   C1B20155  13.343   6.198   8.722
 1369POPC   C2B20156  13.370   6.280   8.269
 1369POPC   C3B20157  13.491   6.204   7.848
 1369POPC   C4B20158  13.234   6.204   7.446
 1370POPC   NC320159  44.267   5.635   9.435
 1370POPC   PO420160  43.783   6.184   9.612
 1370POPC   GL120161  43.806   6.098   9.149
 1370POPC   GL220162  44.129   6.177   8.955
 1370POPC   C1A20163  43.772   5.983   8.664
 1370POPC   D2A20164  43.939   6.123   8.230
 1370POPC   C3A20165  43.661   5.994   7.870
 1370POPC   C4A20166  43.399   5.621   7.940
 1370POPC   C1B20167  44.260   5.892   8.602
 1370POPC   C2B20168  44.046   5.515   8.506
 1370POPC   C3B20169  43.899   5.585   8.104
 1370POPC   C4B20170  44.110   5.799   7.754
 1371POPC   NC320171  10.665  35.484   9.506
 1371POPC   PO420172   9.994  35.416   9.261
 1371POPC   GL120173  10.398  35.444   9.074
 1371POPC   GL220174  10.564  35.767   9.095
 1371POPC   C1A20175  10.546  35.448   8.668
 1371POPC   D2A20176  10.423  35.146   8.368
 1371POPC   C3A20177  10.318  35.275   7.979
 1371POPC   C4A20178   9.967  35.370   7.754
 1371POPC   C1B20179  10.934  35.724   8.841
 1371POPC   C2B20180  10.956  35.826   8.452
 1371POPC   C3B20181  10.972  35.713   8.077
 1371POPC   C4B20182  10.766  35.438   7.823
 1372POPC   NC320183   6.475  18.324   9.511
 1372POPC   PO420184   6.872  17.762   9.397
 1372POPC   GL120185   6.901  18.155   9.132
 1372POPC   GL220186   6.670  18.462   9.075
 1372POPC   C1A20187   6.904  18.200   8.681
 1372POPC   D2A20188   6.621  17.938   8.423
 1372POPC   C3A20189   6.752  18.021   7.998
 1372POPC   C4A20190   6.996  18.352   7.875
 1372POPC   C1B20191   6.440  18.374   8.687
 1372POPC   C2B20192   6.535  18.419   8.256
 1372POPC   C3B20193   6.336  18.313   7.882
 1372POPC   C4B20194   6.350  18.599   7.560
 1373POPC   NC320195  22.581  42.815   9.469
 1373POPC   PO420196  23.045  42.288   9.430
 1373POPC   GL120197  22.855  42.499   9.136
 1373POPC   GL220198  22.523  42.347   9.197
 1373POPC   C1A20199  22.990  42.609   8.718
 1373POPC   D2A20200  22.868  42.637   8.281
 1373POPC   C3A20201  23.101  42.384   7.984
 1373POPC   C4A20202  22.974  42.256   7.587
 1373POPC   C1B20203  22.693  42.077   8.872
 1373POPC   C2B20204  22.896  42.129   8.473
 1373POPC   C3B20205  22.692  42.121   8.059
 1373POPC   C4B20206  22.505  42.081   7.665
 1374POPC   NC320207   3.539  24.188   9.564
 1374POPC   PO420208   3.760  24.853   9.492
 1374POPC   GL120209   3.566  24.576   9.177
 1374POPC   GL220210   3.742  24.264   9.122
 1374POPC   C1A20211   3.329  24.391   8.808
 1374POPC   D2A20212   3.075  24.353   8.423
 1374POPC   C3A20213   3.331  24.296   8.030
 1374POPC   C4A20214   3.297  24.514   7.592
 1374POPC   C1B20215   3.845  24.435   8.734
 1374POPC   C2B20216   3.727  24.244   8.384
 1374POPC   C3B20217   3.893  24.119   8.022
 1374POPC   C4B20218   3.732  24.297   7.716
 1375POPC   NC320219   6.706  14.336   9.647
 1375POPC   PO420220   6.439  14.879   9.569
 1375POPC   GL120221   6.568  14.526   9.200
 1375POPC   GL220222   6.719  14.132   9.198
 1375POPC   C1A20223   6.767  14.435   8.779
 1375POPC   D2A20224   6.444  14.412   8.466
 1375POPC   C3A20225   6.366  14.460   8.029
 1375POPC   C4A20226   6.564  14.623   7.649
 1375POPC   C1B20227   6.513  14.011   8.830
 1375POPC   C2B20228   6.724  13.976   8.460
 1375POPC   C3B20229   6.544  13.966   8.085
 1375POPC   C4B20230   6.552  14.125   7.704
 1376POPC   NC320231  27.949  18.417   9.526
 1376POPC   PO420232  27.374  18.842   9.557
 1376POPC   GL120233  27.488  18.878   9.168
 1376POPC   GL220234  27.815  18.818   9.264
 1376POPC   C1A20235  27.531  19.217   8.867
 1376POPC   D2A20236  27.289  19.242   8.485
 1376POPC   C3A20237  27.443  19.106   8.096
 1376POPC   C4A20238  27.618  19.359   7.790
 1376POPC   C1B20239  27.920  18.860   8.851
 1376POPC   C2B20240  27.813  19.036   8.476
 1376POPC   C3B20241  27.987  19.102   8.103
 1376POPC   C4B20242  27.790  18.870   7.784
 1377POPC   NC320243  40.524  34.135   9.673
 1377POPC   PO420244  40.832  33.516   9.604
 1377POPC   GL120245  40.667  33.805   9.275
 1377POPC   GL220246  40.775  33.556   9.084
 1377POPC   C1A20247  40.594  33.950   8.816
 1377POPC   D2A20248  40.498  33.797   8.383
 1377POPC   C3A20249  40.623  34.123   8.093
 1377POPC   C4A20250  40.764  34.036   7.657
 1377POPC   C1B20251  41.024  33.663   8.744
 1377POPC   C2B20252  40.997  33.915   8.401
 1377POPC   C3B20253  40.952  33.733   8.021
 1377POPC   C4B20254  41.239  33.590   7.742
 1378POPC   NC320255  22.733   3.694   9.396
 1378POPC   PO420256  23.382   3.527   9.571
 1378POPC   GL120257  23.143   3.444   9.213
 1378POPC   GL220258  23.132   3.804   9.070
 1378POPC   C1A20259  22.921   3.346   8.832
 1378POPC   D2A20260  23.097   3.407   8.437
 1378POPC   C3A20261  22.869   3.400   8.046
 1378POPC   C4A20262  23.096   3.597   7.729
 1378POPC   C1B20263  22.794   3.832   8.732
 1378POPC   C2B20264  22.550   3.662   8.365
 1378POPC   C3B20265  22.460   3.736   7.931
 1378POPC   C4B20266  22.693   3.887   7.569
 1379POPC   NC320267  22.907  29.980   9.411
 1379POPC   PO420268  22.795  29.351   9.419
 1379POPC   GL120269  22.520  29.718   9.161
 1379POPC   GL220270  22.550  30.119   9.076
 1379POPC   C1A20271  22.547  29.774   8.699
 1379POPC   D2A20272  22.843  29.663   8.397
 1379POPC   C3A20273  22.837  29.878   8.020
 1379POPC   C4A20274  22.701  29.877   7.577
 1379POPC   C1B20275  22.945  30.060   8.780
 1379POPC   C2B20276  23.169  30.063   8.395
 1379POPC   C3B20277  23.276  30.202   7.983
 1379POPC   C4B20278  23.194  29.946   7.648
 1380POPC   NC320279  33.872   5.252   9.552
 1380POPC   PO420280  33.856   4.597   9.606
 1380POPC   GL120281  33.909   4.855   9.227
 1380POPC   GL220282  33.625   5.073   9.144
 1380POPC   C1A20283  34.060   5.061   8.832
 1380POPC   D2A20284  34.231   5.184   8.413
 1380POPC   C3A20285  33.960   5.064   8.078
 1380POPC   C4A20286  33.796   5.088   7.651
 1380POPC   C1B20287  33.605   4.785   8.781
 1380POPC   C2B20288  33.594   4.609   8.387
 1380POPC   C3B20289  33.549   4.756   7.993
 1380POPC   C4B20290  33.342   4.880   7.623
 1381POPC   NC320291   6.868  30.665   9.505
 1381POPC   PO420292   6.372  30.304   9.836
 1381POPC   GL120293   6.448  30.358   9.342
 1381POPC   GL220294   6.788  30.240   9.247
 1381POPC   C1A20295   6.517  30.595   8.921
 1381POPC   D2A20296   6.592  30.883   8.548
 1381POPC   C3A20297   6.435  30.743   8.149
 1381POPC   C4A20298   6.570  30.745   7.717
 1381POPC   C1B20299   7.009  30.356   8.875
 1381POPC   C2B20300   6.945  30.486   8.471
 1381POPC   C3B20301   6.938  30.607   8.064
 1381POPC   C4B20302   6.944  30.388   7.690
 1382POPC   NC320303  19.705  16.435   9.608
 1382POPC   PO420304  19.866  15.766   9.478
 1382POPC   GL120305  19.862  16.001   9.140
 1382POPC   GL220306  19.622  16.249   9.148
 1382POPC   C1A20307  19.996  15.880   8.727
 1382POPC   D2A20308  20.328  15.825   8.429
 1382POPC   C3A20309  20.186  15.880   8.036
 1382POPC   C4A20310  19.831  15.739   7.845
 1382POPC   C1B20311  19.746  16.308   8.730
 1382POPC   C2B20312  19.834  16.138   8.304
 1382POPC   C3B20313  19.807  16.277   7.854
 1382POPC   C4B20314  19.628  16.488   7.455
 1383POPC   NC320315  10.693  41.971   9.431
 1383POPC   PO420316  10.281  42.521   9.651
 1383POPC   GL120317  10.364  42.529   9.217
 1383POPC   GL220318  10.661  42.649   9.135
 1383POPC   C1A20319  10.201  42.351   8.827
 1383POPC   D2A20320  10.349  42.162   8.456
 1383POPC   C3A20321  10.350  42.284   7.987
 1383POPC   C4A20322  10.228  42.263   7.516
 1383POPC   C1B20323  10.708  42.455   8.717
 1383POPC   C2B20324  10.797  42.354   8.266
 1383POPC   C3B20325  10.814  42.516   7.841
 1383POPC   C4B20326  10.670  42.556   7.419
 1384POPC   NC320327   0.905  13.342   9.493
 1384POPC   PO420328   1.276  13.882   9.547
 1384POPC   GL120329   1.059  13.795   9.150
 1384POPC   GL220330   0.787  13.553   9.065
 1384POPC   C1A20331   1.207  13.607   8.751
 1384POPC   D2A20332   1.421  13.482   8.356
 1384POPC   C3A20333   1.287  13.613   7.944
 1384POPC   C4A20334   1.537  13.576   7.539
 1384POPC   C1B20335   0.681  13.441   8.657
 1384POPC   C2B20336   0.938  13.241   8.337
 1384POPC   C3B20337   0.979  13.220   7.900
 1384POPC   C4B20338   0.791  13.104   7.551
 1385POPC   NC320339   9.155  14.580   9.717
 1385POPC   PO420340   8.545  14.533   9.554
 1385POPC   GL120341   8.778  14.397   9.189
 1385POPC   GL220342   9.002  14.639   9.072
 1385POPC   C1A20343   8.838  14.297   8.714
 1385POPC   D2A20344   8.632  14.382   8.328
 1385POPC   C3A20345   8.665  14.179   7.986
 1385POPC   C4A20346   8.878  14.479   7.718
 1385POPC   C1B20347   9.304  14.538   8.716
 1385POPC   C2B20348   9.213  14.463   8.281
 1385POPC   C3B20349   9.321  14.638   7.892
 1385POPC   C4B20350   9.525  14.764   7.512
 1386POPC   NC320351  19.488  43.523   9.570
 1386POPC   PO420352  19.261  44.146   9.839
 1386POPC   GL120353  19.231  43.968   9.386
 1386POPC   GL220354  19.049  43.737   9.244
 1386POPC   C1A20355  19.312  44.008   8.915
 1386POPC   D2A20356  19.092  44.073   8.501
 1386POPC   C3A20357  19.157  43.948   8.085
 1386POPC   C4A20358  18.884  43.851   7.721
 1386POPC   C1B20359  18.980  43.610   8.817
 1386POPC   C2B20360  19.157  43.505   8.450
 1386POPC   C3B20361  19.022  43.472   8.054
 1386POPC   C4B20362  19.214  43.468   7.698
 1387POPC   NC320363  15.067  27.207   9.597
 1387POPC   PO420364  14.885  26.695   9.233
 1387POPC   GL120365  15.186  26.959   9.044
 1387POPC   GL220366  15.446  26.715   9.095
 1387POPC   C1A20367  15.073  27.144   8.621
 1387POPC   D2A20368  15.111  26.848   8.295
 1387POPC   C3A20369  15.059  26.922   7.889
 1387POPC   C4A20370  15.075  26.528   7.694
 1387POPC   C1B20371  15.267  26.556   8.698
 1387POPC   C2B20372  15.474  26.382   8.330
 1387POPC   C3B20373  15.538  26.601   7.950
 1387POPC   C4B20374  15.533  26.582   7.470
 1388POPC   NC320375  29.859   3.694   9.572
 1388POPC   PO420376  29.282   3.909   9.434
 1388POPC   GL120377  29.660   3.688   9.100
 1388POPC   GL220378  30.004   3.474   9.142
 1388POPC   C1A20379  29.854   3.511   8.655
 1388POPC   D2A20380  29.648   3.254   8.315
 1388POPC   C3A20381  29.618   3.388   7.866
 1388POPC   C4A20382  29.628   3.752   7.592
 1388POPC   C1B20383  30.277   3.734   8.865
 1388POPC   C2B20384  30.246   3.758   8.416
 1388POPC   C3B20385  29.974   3.743   8.024
 1388POPC   C4B20386  30.054   3.508   7.601
 1389POPC   NC320387  18.281  36.306   9.522
 1389POPC   PO420388  18.365  35.650   9.710
 1389POPC   GL120389  18.465  35.905   9.284
 1389POPC   GL220390  18.652  36.218   9.184
 1389POPC   C1A20391  18.330  35.958   8.836
 1389POPC   D2A20392  18.060  35.945   8.426
 1389POPC   C3A20393  18.272  35.901   7.988
 1389POPC   C4A20394  18.107  35.687   7.602
 1389POPC   C1B20395  18.453  36.473   8.841
 1389POPC   C2B20396  18.475  36.462   8.386
 1389POPC   C3B20397  18.428  36.409   7.946
 1389POPC   C4B20398  18.494  36.196   7.544
 1390POPC   NC320399  11.688   1.383   9.570
 1390POPC   PO420400  12.374   1.369   9.549
 1390POPC   GL120401  12.061   1.296   9.221
 1390POPC   GL220402  11.914   0.946   9.209
 1390POPC   C1A20403  12.128   1.190   8.810
 1390POPC   D2A20404  12.428   0.910   8.588
 1390POPC   C3A20405  12.413   0.989   8.126
 1390POPC   C4A20406  12.287   1.341   7.842
 1390POPC   C1B20407  11.931   0.743   8.771
 1390POPC   C2B20408  11.949   0.950   8.367
 1390POPC   C3B20409  11.848   0.895   7.927
 1390POPC   C4B20410  11.642   1.051   7.548
 1391POPC   NC320411  29.651   0.296   9.416
 1391POPC   PO420412  30.267   0.414   9.386
 1391POPC   GL120413  30.039   0.708   9.094
 1391POPC   GL220414  29.679   0.769   9.143
 1391POPC   C1A20415  29.870   0.814   8.654
 1391POPC   D2A20416  29.848   0.743   8.166
 1391POPC   C3A20417  29.914   0.319   8.075
 1391POPC   C4A20418  29.611   0.076   7.896
 1391POPC   C1B20419  29.497   0.472   8.815
 1391POPC   C2B20420  29.488   0.233   8.429
 1391POPC   C3B20421  29.404   0.487   8.095
 1391POPC   C4B20422  29.561   0.563   7.744
 1392POPC   NC320423  18.109  24.706   9.682
 1392POPC   PO420424  17.713  24.252   9.532
 1392POPC   GL120425  18.102  24.337   9.277
 1392POPC   GL220426  18.234  24.691   9.184
 1392POPC   C1A20427  18.228  24.308   8.847
 1392POPC   D2A20428  18.243  24.563   8.473
 1392POPC   C3A20429  18.490  24.411   8.146
 1392POPC   C4A20430  18.229  24.257   7.828
 1392POPC   C1B20431  18.475  24.853   8.829
 1392POPC   C2B20432  18.690  24.860   8.422
 1392POPC   C3B20433  18.497  24.910   8.030
 1392POPC   C4B20434  18.382  24.705   7.677
 1393POPC   NC320435  33.269  37.749   9.634
 1393POPC   PO420436  33.044  37.110   9.485
 1393POPC   GL120437  33.016  37.545   9.236
 1393POPC   GL220438  32.797  37.816   9.254
 1393POPC   C1A20439  33.082  37.735   8.818
 1393POPC   D2A20440  33.128  37.529   8.403
 1393POPC   C3A20441  33.066  37.751   8.014
 1393POPC   C4A20442  32.989  37.686   7.526
 1393POPC   C1B20443  32.577  37.946   8.879
 1393POPC   C2B20444  32.722  37.984   8.456
 1393POPC   C3B20445  32.608  37.960   8.012
 1393POPC   C4B20446  32.904  38.140   7.719
 1394POPC   NC320447  27.654   2.538   9.331
 1394POPC   PO420448  27.486   1.917   9.758
 1394POPC   GL120449  27.499   1.828   9.326
 1394POPC   GL220450  27.770   2.027   9.277
 1394POPC   C1A20451  27.480   1.806   8.896
 1394POPC   D2A20452  27.693   1.824   8.494
 1394POPC   C3A20453  27.496   1.744   8.094
 1394POPC   C4A20454  27.470   2.022   7.750
 1394POPC   C1B20455  27.957   2.084   8.871
 1394POPC   C2B20456  28.039   2.266   8.466
 1394POPC   C3B20457  27.869   2.179   8.045
 1394POPC   C4B20458  27.969   2.002   7.643
 1395POPC   NC320459   8.615  27.290   9.853
 1395POPC   PO420460   8.182  26.757   9.682
 1395POPC   GL120461   8.043  26.687   9.264
 1395POPC   GL220462   8.194  27.029   9.196
 1395POPC   C1A20463   8.175  26.658   8.835
 1395POPC   D2A20464   8.336  26.596   8.431
 1395POPC   C3A20465   8.106  26.767   8.096
 1395POPC   C4A20466   8.380  26.709   7.754
 1395POPC   C1B20467   8.413  27.133   8.802
 1395POPC   C2B20468   8.326  27.174   8.361
 1395POPC   C3B20469   8.394  27.188   7.923
 1395POPC   C4B20470   8.035  27.059   7.640
 1396POPC   NC320471  17.410  23.198   9.498
 1396POPC   PO420472  17.604  22.588   9.717
 1396POPC   GL120473  17.533  22.756   9.257
 1396POPC   GL220474  17.878  22.770   9.192
 1396POPC   C1A20475  17.375  23.028   8.853
 1396POPC   D2A20476  17.536  23.265   8.498
 1396POPC   C3A20477  17.353  23.102   8.123
 1396POPC   C4A20478  17.146  22.975   7.783
 1396POPC   C1B20479  17.968  22.763   8.753
 1396POPC   C2B20480  18.027  22.991   8.365
 1396POPC   C3B20481  17.861  22.961   7.937
 1396POPC   C4B20482  17.597  23.123   7.633
 1397POPC   NC320483  29.665   6.774   9.465
 1397POPC   PO420484  29.107   6.375   9.482
 1397POPC   GL120485  29.099   6.657   9.163
 1397POPC   GL220486  29.420   6.695   9.033
 1397POPC   C1A20487  28.879   6.637   8.792
 1397POPC   D2A20488  28.883   6.850   8.415
 1397POPC   C3A20489  29.211   6.735   8.086
 1397POPC   C4A20490  29.158   6.843   7.638
 1397POPC   C1B20491  29.365   6.697   8.617
 1397POPC   C2B20492  29.558   6.391   8.407
 1397POPC   C3B20493  29.450   6.230   8.049
 1397POPC   C4B20494  29.418   6.423   7.645
 1398POPC   NC320495  35.408  16.972   9.534
 1398POPC   PO420496  35.550  16.241   9.541
 1398POPC   GL120497  35.291  16.460   9.160
 1398POPC   GL220498  35.318  16.819   9.070
 1398POPC   C1A20499  35.295  16.469   8.714
 1398POPC   D2A20500  35.477  16.630   8.345
 1398POPC   C3A20501  35.130  16.524   8.086
 1398POPC   C4A20502  35.067  16.469   7.645
 1398POPC   C1B20503  35.370  17.053   8.680
 1398POPC   C2B20504  35.163  17.022   8.272
 1398POPC   C3B20505  35.251  16.947   7.833
 1398POPC   C4B20506  34.946  16.953   7.460
 1399POPC   NC320507  15.961  36.510   9.503
 1399POPC   PO420508  15.597  37.143   9.537
 1399POPC   GL120509  15.648  37.043   9.143
 1399POPC   GL220510  15.983  36.904   9.169
 1399POPC   C1A20511  15.718  36.793   8.742
 1399POPC   D2A20512  15.694  36.532   8.358
 1399POPC   C3A20513  15.828  36.800   8.034
 1399POPC   C4A20514  15.565  37.120   7.870
 1399POPC   C1B20515  16.145  36.580   8.876
 1399POPC   C2B20516  16.176  36.680   8.469
 1399POPC   C3B20517  16.379  36.614   8.091
 1399POPC   C4B20518  16.238  36.746   7.708
 1400POPC   NC320519  43.570  19.392   9.506
 1400POPC   PO420520  44.145  18.943   9.455
 1400POPC   GL120521  43.863  19.009   9.124
 1400POPC   GL220522  43.918  19.305   9.110
 1400POPC   C1A20523  43.869  18.973   8.689
 1400POPC   D2A20524  44.004  19.025   8.291
 1400POPC   C3A20525  43.855  18.867   7.885
 1400POPC   C4A20526  43.798  18.777   7.409
 1400POPC   C1B20527  43.574  19.387   8.838
 1400POPC   C2B20528  43.501  19.303   8.413
 1400POPC   C3B20529  43.750  19.376   8.017
 1400POPC   C4B20530  43.679  19.645   7.646
 1401POPC   NC320531  33.389   6.501   9.830
 1401POPC   PO420532  33.932   6.698   9.473
 1401POPC   GL120533  33.789   6.591   9.093
 1401POPC   GL220534  33.602   6.827   9.068
 1401POPC   C1A20535  33.725   6.453   8.671
 1401POPC   D2A20536  33.960   6.614   8.356
 1401POPC   C3A20537  33.897   6.576   7.957
 1401POPC   C4A20538  34.068   6.980   7.886
 1401POPC   C1B20539  33.805   6.965   8.699
 1401POPC   C2B20540  33.687   7.065   8.269
 1401POPC   C3B20541  33.510   6.868   7.916
 1401POPC   C4B20542  33.533   6.389   7.669
 1402POPC   NC320543  14.070  27.198   9.677
 1402POPC   PO420544  14.433  27.586   9.214
 1402POPC   GL120545  14.553  27.673   8.868
 1402POPC   GL220546  14.586  28.017   8.931
 1402POPC   C1A20547  14.490  27.376   8.561
 1402POPC   D2A20548  14.177  27.226   8.310
 1402POPC   C3A20549  14.321  27.477   7.998
 1402POPC   C4A20550  14.385  27.409   7.600
 1402POPC   C1B20551  14.261  27.975   8.567
 1402POPC   C2B20552  13.976  27.814   8.243
 1402POPC   C3B20553  14.013  27.829   7.790
 1402POPC   C4B20554  14.431  27.941   7.601
 1403POPC   NC320555   6.452  20.811   9.363
 1403POPC   PO420556   6.529  21.557   9.487
 1403POPC   GL120557   6.575  21.378   9.110
 1403POPC   GL220558   6.267  21.162   9.055
 1403POPC   C1A20559   6.745  21.489   8.718
 1403POPC   D2A20560   6.503  21.612   8.357
 1403POPC   C3A20561   6.744  21.546   8.001
 1403POPC   C4A20562   6.700  21.419   7.612
 1403POPC   C1B20563   6.474  21.061   8.672
 1403POPC   C2B20564   6.650  21.121   8.265
 1403POPC   C3B20565   6.464  21.028   7.827
 1403POPC   C4B20566   6.516  21.065   7.339
 1404POPC   NC320567  29.147  20.058   9.421
 1404POPC   PO420568  29.649  19.559   9.373
 1404POPC   GL120569  29.419  19.755   9.064
 1404POPC   GL220570  29.061  19.728   9.048
 1404POPC   C1A20571  29.464  20.061   8.763
 1404POPC   D2A20572  29.315  20.115   8.313
 1404POPC   C3A20573  29.460  19.823   8.015
 1404POPC   C4A20574  29.407  19.691   7.587
 1404POPC   C1B20575  29.002  19.863   8.647
 1404POPC   C2B20576  28.932  19.677   8.248
 1404POPC   C3B20577  28.982  19.835   7.836
 1404POPC   C4B20578  28.894  19.682   7.411
 1405POPC   NC320579  19.699  33.283   9.587
 1405POPC   PO420580  20.031  32.771   9.728
 1405POPC   GL120581  19.999  32.772   9.253
 1405POPC   GL220582  19.868  33.085   9.119
 1405POPC   C1A20583  20.031  32.762   8.762
 1405POPC   D2A20584  19.973  32.935   8.333
 1405POPC   C3A20585  19.718  32.891   7.943
 1405POPC   C4A20586  19.814  33.057   7.510
 1405POPC   C1B20587  19.886  33.274   8.695
 1405POPC   C2B20588  19.643  33.317   8.264
 1405POPC   C3B20589  19.493  33.349   7.809
 1405POPC   C4B20590  19.473  33.393   7.330
 1406POPC   NC320591  25.114   5.428   9.420
 1406POPC   PO420592  25.520   5.946   9.494
 1406POPC   GL120593  25.533   5.741   9.111
 1406POPC   GL220594  25.283   5.547   8.967
 1406POPC   C1A20595  25.432   6.006   8.748
 1406POPC   D2A20596  25.509   5.920   8.327
 1406POPC   C3A20597  25.242   6.031   7.974
 1406POPC   C4A20598  24.876   6.269   7.860
 1406POPC   C1B20599  25.029   5.681   8.609
 1406POPC   C2B20600  24.799   5.685   8.215
 1406POPC   C3B20601  24.890   5.656   7.780
 1406POPC   C4B20602  25.052   5.516   7.349
 1407POPC   NC320603  44.607  42.209   9.543
 1407POPC   PO420604  44.628  42.890   9.467
 1407POPC   GL120605  44.638  42.513   9.146
 1407POPC   GL220606  44.418  42.165   9.097
 1407POPC   C1A20607  44.813  42.334   8.798
 1407POPC   D2A20608  44.748  42.603   8.472
 1407POPC   C3A20609  44.812  42.426   8.097
 1407POPC   C4A20610  44.728  42.582   7.714
 1407POPC   C1B20611  44.486  41.906   8.771
 1407POPC   C2B20612  44.704  41.969   8.420
 1407POPC   C3B20613  44.532  41.988   8.054
 1407POPC   C4B20614  44.723  42.058   7.680
 1408POPC   NC320615  44.082  24.750   9.648
 1408POPC   PO420616  43.449  24.884   9.443
 1408POPC   GL120617  43.652  24.517   9.198
 1408POPC   GL220618  43.984  24.406   9.263
 1408POPC   C1A20619  43.856  24.354   8.788
 1408POPC   D2A20620  44.038  24.246   8.400
 1408POPC   C3A20621  43.749  24.319   8.052
 1408POPC   C4A20622  43.804  24.339   7.673
 1408POPC   C1B20623  44.194  24.691   8.944
 1408POPC   C2B20624  44.103  24.764   8.490
 1408POPC   C3B20625  44.142  24.637   8.062
 1408POPC   C4B20626  44.133  24.722   7.612
 1409POPC   NC320627  11.103  41.063   9.340
 1409POPC   PO420628  11.199  41.755   9.397
 1409POPC   GL120629  11.266  41.481   9.086
 1409POPC   GL220630  11.604  41.352   9.096
 1409POPC   C1A20631  11.033  41.450   8.700
 1409POPC   D2A20632  11.157  41.616   8.314
 1409POPC   C3A20633  11.343  41.377   8.032
 1409POPC   C4A20634  11.180  41.528   7.639
 1409POPC   C1B20635  11.659  41.735   8.859
 1409POPC   C2B20636  11.625  41.814   8.425
 1409POPC   C3B20637  11.550  41.858   7.975
 1409POPC   C4B20638  11.536  41.880   7.502
 1410POPC   NC320639  32.553  13.445   9.457
 1410POPC   PO420640  31.861  13.469   9.646
 1410POPC   GL120641  32.095  13.379   9.246
 1410POPC   GL220642  32.236  13.739   9.196
 1410POPC   C1A20643  32.348  13.313   8.838
 1410POPC   D2A20644  32.517  13.494   8.462
 1410POPC   C3A20645  32.536  13.339   8.046
 1410POPC   C4A20646  32.217  13.355   7.765
 1410POPC   C1B20647  32.411  13.846   8.815
 1410POPC   C2B20648  32.459  13.992   8.400
 1410POPC   C3B20649  32.286  13.789   8.067
 1410POPC   C4B20650  32.439  13.801   7.669
 1411POPC   NC320651   9.733  10.332   9.788
 1411POPC   PO420652   9.858   9.738   9.624
 1411POPC   GL120653   9.958   9.575   9.224
 1411POPC   GL220654   9.999   9.900   9.134
 1411POPC   C1A20655   9.836   9.614   8.737
 1411POPC   D2A20656   9.616   9.915   8.387
 1411POPC   C3A20657   9.785   9.927   7.952
 1411POPC   C4A20658   9.825   9.590   7.612
 1411POPC   C1B20659   9.877  10.119   8.780
 1411POPC   C2B20660  10.070  10.193   8.413
 1411POPC   C3B20661  10.113  10.316   8.044
 1411POPC   C4B20662  10.184  10.057   7.670
 1412POPC   NC320663  35.075  16.257   9.567
 1412POPC   PO420664  35.220  15.600   9.500
 1412POPC   GL120665  35.297  15.937   9.177
 1412POPC   GL220666  35.622  16.086   9.056
 1412POPC   C1A20667  35.122  15.984   8.799
 1412POPC   D2A20668  35.034  15.773   8.444
 1412POPC   C3A20669  35.022  15.981   8.067
 1412POPC   C4A20670  35.198  15.883   7.714
 1412POPC   C1B20671  35.598  16.031   8.650
 1412POPC   C2B20672  35.410  16.132   8.325
 1412POPC   C3B20673  35.506  16.244   7.905
 1412POPC   C4B20674  35.470  16.202   7.446
 1413POPC   NC320675  29.514  19.134   9.490
 1413POPC   PO420676  28.821  18.998   9.401
 1413POPC   GL120677  29.128  18.907   9.108
 1413POPC   GL220678  29.206  19.252   9.095
 1413POPC   C1A20679  29.286  18.891   8.678
 1413POPC   D2A20680  29.605  18.968   8.358
 1413POPC   C3A20681  29.423  18.946   7.967
 1413POPC   C4A20682  29.425  18.794   7.544
 1413POPC   C1B20683  29.007  19.327   8.683
 1413POPC   C2B20684  29.013  19.131   8.260
 1413POPC   C3B20685  29.098  19.333   7.868
 1413POPC   C4B20686  29.119  19.205   7.448
 1414POPC   NC320687  10.336  18.645   9.414
 1414POPC   PO420688  10.662  18.010   9.514
 1414POPC   GL120689  10.690  18.315   9.195
 1414POPC   GL220690  10.910  18.156   9.004
 1414POPC   C1A20691  10.535  18.407   8.790
 1414POPC   D2A20692  10.332  18.297   8.405
 1414POPC   C3A20693  10.261  18.126   7.994
 1414POPC   C4A20694  10.430  18.448   7.720
 1414POPC   C1B20695  10.924  18.176   8.569
 1414POPC   C2B20696  10.735  17.932   8.255
 1414POPC   C3B20697  10.744  18.034   7.855
 1414POPC   C4B20698  10.867  18.163   7.476
 1415POPC   NC320699  23.118  32.622   9.434
 1415POPC   PO420700  22.874  31.918   9.510
 1415POPC   GL120701  22.767  32.093   9.081
 1415POPC   GL220702  22.854  32.472   9.025
 1415POPC   C1A20703  22.704  32.176   8.635
 1415POPC   D2A20704  22.587  32.268   8.227
 1415POPC   C3A20705  22.423  32.008   7.877
 1415POPC   C4A20706  22.598  31.998   7.430
 1415POPC   C1B20707  23.188  32.240   8.864
 1415POPC   C2B20708  23.189  32.272   8.456
 1415POPC   C3B20709  23.054  32.402   8.071
 1415POPC   C4B20710  22.980  32.048   7.792
 1416POPC   NC320711  42.229   4.050   9.397
 1416POPC   PO420712  42.152   4.718   9.378
 1416POPC   GL120713  42.209   4.439   9.031
 1416POPC   GL220714  42.119   4.115   8.917
 1416POPC   C1A20715  42.395   4.441   8.637
 1416POPC   D2A20716  42.436   4.217   8.251
 1416POPC   C3A20717  42.121   4.388   8.041
 1416POPC   C4A20718  42.275   4.598   7.722
 1416POPC   C1B20719  42.315   3.888   8.613
 1416POPC   C2B20720  42.012   3.927   8.283
 1416POPC   C3B20721  42.053   3.899   7.872
 1416POPC   C4B20722  42.367   4.075   7.716
 1417POPC   NC320723  29.031  21.045   9.531
 1417POPC   PO420724  29.430  20.445   9.536
 1417POPC   GL120725  29.190  20.502   9.152
 1417POPC   GL220726  28.873  20.671   9.217
 1417POPC   C1A20727  29.060  20.381   8.743
 1417POPC   D2A20728  29.023  20.576   8.346
 1417POPC   C3A20729  29.115  20.415   7.936
 1417POPC   C4A20730  29.485  20.246   7.784
 1417POPC   C1B20731  28.694  20.917   8.883
 1417POPC   C2B20732  28.554  20.792   8.473
 1417POPC   C3B20733  28.789  20.958   8.120
 1417POPC   C4B20734  29.031  20.876   7.725
 1418POPC   NC320735  17.558  38.522   9.572
 1418POPC   PO420736  18.311  38.432   9.518
 1418POPC   GL120737  18.107  38.461   9.176
 1418POPC   GL220738  17.880  38.215   9.289
 1418POPC   C1A20739  18.316  38.443   8.774
 1418POPC   D2A20740  18.435  38.281   8.368
 1418POPC   C3A20741  18.280  38.610   8.113
 1418POPC   C4A20742  18.426  38.761   7.721
 1418POPC   C1B20743  17.903  38.130   8.841
 1418POPC   C2B20744  17.920  38.336   8.420
 1418POPC   C3B20745  17.733  38.255   8.017
 1418POPC   C4B20746  17.979  38.462   7.725
 1419POPC   NC320747   3.902  12.386   9.587
 1419POPC   PO420748   4.361  12.782   9.843
 1419POPC   GL120749   4.395  12.868   9.282
 1419POPC   GL220750   4.093  12.725   9.252
 1419POPC   C1A20751   4.585  13.066   8.886
 1419POPC   D2A20752   4.707  12.909   8.458
 1419POPC   C3A20753   4.492  12.861   8.052
 1419POPC   C4A20754   4.652  13.196   7.852
 1419POPC   C1B20755   4.086  12.960   8.875
 1419POPC   C2B20756   4.191  12.851   8.473
 1419POPC   C3B20757   3.966  12.807   8.092
 1419POPC   C4B20758   4.079  12.723   7.689
 1420POPC   NC320759   0.063  21.155   9.501
 1420POPC   PO420760   0.629  21.462   9.357
 1420POPC   GL120761   0.263  21.463   9.058
 1420POPC   GL220762   0.079  21.186   8.982
 1420POPC   C1A20763   0.173  21.556   8.629
 1420POPC   D2A20764   0.361  21.321   8.301
 1420POPC   C3A20765   0.440  21.534   7.934
 1420POPC   C4A20766   0.289  21.845   7.703
 1420POPC   C1B20767   0.531  21.144   8.750
 1420POPC   C2B20768   0.780  21.029   8.349
 1420POPC   C3B20769   0.697  21.098   7.920
 1420POPC   C4B20770   0.335  21.168   7.592
 1421POPC   NC320771  16.942  28.559   9.519
 1421POPC   PO420772  16.290  28.657   9.697
 1421POPC   GL120773  16.394  28.607   9.224
 1421POPC   GL220774  16.713  28.723   9.060
 1421POPC   C1A20775  16.481  28.312   8.865
 1421POPC   D2A20776  16.607  28.129   8.449
 1421POPC   C3A20777  16.628  28.398   8.088
 1421POPC   C4A20778  16.484  28.443   7.680
 1421POPC   C1B20779  16.938  28.480   8.693
 1421POPC   C2B20780  17.115  28.363   8.285
 1421POPC   C3B20781  17.064  28.320   7.842
 1421POPC   C4B20782  16.918  28.591   7.464
 1422POPC   NC320783  37.889  10.385   9.507
 1422POPC   PO420784  38.494  10.656   9.849
 1422POPC   GL120785  38.405  10.582   9.329
 1422POPC   GL220786  38.236  10.305   9.129
 1422POPC   C1A20787  38.593  10.629   8.877
 1422POPC   D2A20788  38.806  10.772   8.465
 1422POPC   C3A20789  38.588  10.681   8.084
 1422POPC   C4A20790  38.315  10.564   7.746
 1422POPC   C1B20791  38.438  10.133   8.719
 1422POPC   C2B20792  38.753  10.241   8.353
 1422POPC   C3B20793  38.714  10.224   7.897
 1422POPC   C4B20794  38.297  10.041   7.792
 1423POPC   NC320795  25.355  44.269   9.501
 1423POPC   PO420796  25.485  43.645   9.451
 1423POPC   GL120797  25.320  43.854   9.142
 1423POPC   GL220798  25.005  43.946   9.280
 1423POPC   C1A20799  25.304  44.130   8.792
 1423POPC   D2A20800  25.338  44.292   8.366
 1423POPC   C3A20801  25.317  43.997   8.065
 1423POPC   C4A20802  25.438  44.029   7.669
 1423POPC   C1B20803  24.891  43.792   8.876
 1423POPC   C2B20804  24.937  43.936   8.479
 1423POPC   C3B20805  24.818  44.001   8.088
 1423POPC   C4B20806  24.941  43.941   7.679
 1424POPC   NC320807  20.464   8.481   9.573
 1424POPC   PO420808  20.646   9.107   9.610
 1424POPC   GL120809  20.511   8.960   9.243
 1424POPC   GL220810  20.765   8.709   9.227
 1424POPC   C1A20811  20.414   8.990   8.799
 1424POPC   D2A20812  20.299   8.741   8.434
 1424POPC   C3A20813  20.484   8.893   8.030
 1424POPC   C4A20814  20.400   8.877   7.591
 1424POPC   C1B20815  20.912   8.992   8.888
 1424POPC   C2B20816  20.795   9.029   8.439
 1424POPC   C3B20817  20.988   8.855   8.078
 1424POPC   C4B20818  20.897   8.862   7.673
 1425POPC   NC320819   2.971   0.107   9.579
 1425POPC   PO420820   2.640  44.543   9.707
 1425POPC   GL120821   2.794  44.700   9.279
 1425POPC   GL220822   2.869   0.025   9.103
 1425POPC   C1A20823   2.913  44.598   8.832
 1425POPC   D2A20824   2.891  44.829   8.463
 1425POPC   C3A20825   2.641  44.603   8.154
 1425POPC   C4A20826   2.762  44.633   7.738
 1425POPC   C1B20827   2.511  44.934   8.834
 1425POPC   C2B20828   2.394  44.990   8.402
 1425POPC   C3B20829   2.523   0.080   7.960
 1425POPC   C4B20830   2.910   0.129   7.758
 1426POPC   NC320831  12.691  37.835   9.189
 1426POPC   PO420832  13.038  37.272   9.468
 1426POPC   GL120833  12.928  37.414   9.069
 1426POPC   GL220834  13.208  37.642   8.971
 1426POPC   C1A20835  12.860  37.527   8.634
 1426POPC   D2A20836  13.005  37.611   8.244
 1426POPC   C3A20837  12.866  37.981   8.005
 1426POPC   C4A20838  12.603  37.967   7.613
 1426POPC   C1B20839  13.341  37.273   8.756
 1426POPC   C2B20840  13.245  37.077   8.352
 1426POPC   C3B20841  13.339  37.305   8.016
 1426POPC   C4B20842  13.262  37.732   7.825
 1427POPC   NC320843  42.140  39.198   9.435
 1427POPC   PO420844  42.766  38.940   9.445
 1427POPC   GL120845  42.566  39.229   9.164
 1427POPC   GL220846  42.806  39.465   9.098
 1427POPC   C1A20847  42.277  39.318   8.795
 1427POPC   D2A20848  42.126  39.555   8.422
 1427POPC   C3A20849  42.159  39.364   8.021
 1427POPC   C4A20850  42.100  39.182   7.624
 1427POPC   C1B20851  42.807  39.159   8.735
 1427POPC   C2B20852  42.583  39.253   8.397
 1427POPC   C3B20853  42.642  39.513   8.113
 1427POPC   C4B20854  42.587  39.394   7.715
 1428POPC   NC320855  19.959  12.891   9.460
 1428POPC   PO420856  19.312  12.768   9.462
 1428POPC   GL120857  19.537  12.838   9.069
 1428POPC   GL220858  19.847  12.618   9.052
 1428POPC   C1A20859  19.552  12.689   8.625
 1428POPC   D2A20860  19.589  12.633   8.175
 1428POPC   C3A20861  19.670  12.873   7.833
 1428POPC   C4A20862  19.530  13.294   7.780
 1428POPC   C1B20863  20.003  12.921   8.775
 1428POPC   C2B20864  20.024  12.691   8.414
 1428POPC   C3B20865  20.109  12.620   8.006
 1428POPC   C4B20866  20.131  12.845   7.633
 1429POPC   NC320867   2.259  37.245   9.477
 1429POPC   PO420868   1.795  36.663   9.507
 1429POPC   GL120869   2.075  36.792   9.205
 1429POPC   GL220870   2.026  37.107   9.048
 1429POPC   C1A20871   2.239  36.676   8.808
 1429POPC   D2A20872   2.100  36.895   8.447
 1429POPC   C3A20873   2.119  36.699   8.049
 1429POPC   C4A20874   1.809  36.415   7.880
 1429POPC   C1B20875   1.728  37.241   8.753
 1429POPC   C2B20876   1.604  37.149   8.331
 1429POPC   C3B20877   1.827  37.169   7.933
 1429POPC   C4B20878   1.625  37.351   7.584
 1430POPC   NC320879  18.333  17.206   9.478
 1430POPC   PO420880  17.956  17.695   9.325
 1430POPC   GL120881  18.274  17.491   9.071
 1430POPC   GL220882  18.600  17.259   9.037
 1430POPC   C1A20883  18.198  17.324   8.700
 1430POPC   D2A20884  18.345  17.193   8.322
 1430POPC   C3A20885  18.311  17.370   7.941
 1430POPC   C4A20886  18.147  17.375   7.514
 1430POPC   C1B20887  18.673  17.630   8.772
 1430POPC   C2B20888  18.798  17.877   8.380
 1430POPC   C3B20889  18.643  17.899   7.973
 1430POPC   C4B20890  18.631  17.610   7.645
 1431POPC   NC320891  13.065  35.951   9.533
 1431POPC   PO420892  12.377  36.210   9.708
 1431POPC   GL120893  12.675  36.226   9.292
 1431POPC   GL220894  12.462  36.502   9.163
 1431POPC   C1A20895  12.836  35.979   8.877
 1431POPC   D2A20896  12.735  35.818   8.442
 1431POPC   C3A20897  12.972  35.970   8.055
 1431POPC   C4A20898  13.384  35.800   7.903
 1431POPC   C1B20899  12.425  36.230   8.780
 1431POPC   C2B20900  12.547  36.275   8.336
 1431POPC   C3B20901  12.444  36.341   7.918
 1431POPC   C4B20902  12.648  36.427   7.539
 1432POPC   NC320903  32.847  24.250   9.863
 1432POPC   PO420904  33.028  23.683   9.578
 1432POPC   GL120905  32.931  23.541   9.188
 1432POPC   GL220906  33.123  23.768   9.069
 1432POPC   C1A20907  32.723  23.667   8.762
 1432POPC   D2A20908  32.768  23.519   8.317
 1432POPC   C3A20909  32.835  23.691   7.889
 1432POPC   C4A20910  32.848  24.093   7.664
 1432POPC   C1B20911  33.177  23.459   8.731
 1432POPC   C2B20912  33.215  23.298   8.338
 1432POPC   C3B20913  33.317  23.510   7.981
 1432POPC   C4B20914  33.608  23.401   7.686
 1433POPC   NC320915  40.103  36.771   9.584
 1433POPC   PO420916  40.071  37.413   9.567
 1433POPC   GL120917  40.142  37.104   9.215
 1433POPC   GL220918  40.029  36.729   9.101
 1433POPC   C1A20919  40.084  37.099   8.768
 1433POPC   D2A20920  40.081  36.843   8.401
 1433POPC   C3A20921  40.231  36.950   7.995
 1433POPC   C4A20922  40.016  36.980   7.587
 1433POPC   C1B20923  39.690  36.780   8.803
 1433POPC   C2B20924  39.601  36.652   8.401
 1433POPC   C3B20925  39.718  36.799   7.991
 1433POPC   C4B20926  39.678  36.571   7.585
 1434POPC   NC320927  18.775   8.635   9.456
 1434POPC   PO420928  19.216   9.133   9.552
 1434POPC   GL120929  19.194   8.913   9.202
 1434POPC   GL220930  18.843   9.002   9.106
 1434POPC   C1A20931  19.138   8.630   8.875
 1434POPC   D2A20932  18.920   8.670   8.505
 1434POPC   C3A20933  19.089   8.749   8.107
 1434POPC   C4A20934  19.194   8.727   7.669
 1434POPC   C1B20935  19.089   9.133   8.748
 1434POPC   C2B20936  19.220   9.318   8.392
 1434POPC   C3B20937  19.079   9.258   8.037
 1434POPC   C4B20938  18.806   9.021   7.775
 1435POPC   NC320939  41.900  34.355   9.391
 1435POPC   PO420940  42.583  34.601   9.436
 1435POPC   GL120941  42.283  34.555   9.088
 1435POPC   GL220942  42.052  34.805   9.046
 1435POPC   C1A20943  42.303  34.371   8.661
 1435POPC   D2A20944  42.366  34.150   8.273
 1435POPC   C3A20945  42.385  34.477   8.009
 1435POPC   C4A20946  42.445  34.924   7.934
 1435POPC   C1B20947  41.866  34.619   8.731
 1435POPC   C2B20948  42.095  34.751   8.397
 1435POPC   C3B20949  41.931  34.738   8.063
 1435POPC   C4B20950  42.017  34.724   7.705
 1436POPC   NC320951  20.806   3.269   9.558
 1436POPC   PO420952  20.360   2.798   9.614
 1436POPC   GL120953  20.412   2.918   9.169
 1436POPC   GL220954  20.726   3.105   9.081
 1436POPC   C1A20955  20.430   2.746   8.725
 1436POPC   D2A20956  20.357   2.607   8.275
 1436POPC   C3A20957  20.606   2.614   7.869
 1436POPC   C4A20958  20.393   2.533   7.451
 1436POPC   C1B20959  20.690   3.172   8.639
 1436POPC   C2B20960  20.665   3.094   8.181
 1436POPC   C3B20961  20.889   3.193   7.783
 1436POPC   C4B20962  20.840   3.281   7.299
 1437POPC   NC320963  29.438   2.791   9.490
 1437POPC   PO420964  28.876   2.500   9.423
 1437POPC   GL120965  28.895   2.585   9.060
 1437POPC   GL220966  29.089   2.868   9.125
 1437POPC   C1A20967  28.853   2.768   8.689
 1437POPC   D2A20968  28.850   2.906   8.328
 1437POPC   C3A20969  28.995   2.586   8.125
 1437POPC   C4A20970  28.957   2.621   7.727
 1437POPC   C1B20971  29.340   2.989   8.806
 1437POPC   C2B20972  29.360   2.830   8.408
 1437POPC   C3B20973  29.329   2.973   8.006
 1437POPC   C4B20974  29.483   2.929   7.599
 1438POPC   NC320975  42.188  37.397   9.571
 1438POPC   PO420976  41.960  38.024   9.653
 1438POPC   GL120977  42.083  37.858   9.240
 1438POPC   GL220978  42.030  37.505   9.105
 1438POPC   C1A20979  42.296  37.869   8.842
 1438POPC   D2A20980  42.140  37.738   8.453
 1438POPC   C3A20981  42.303  37.897   8.067
 1438POPC   C4A20982  42.132  37.736   7.676
 1438POPC   C1B20983  42.434  37.384   8.898
 1438POPC   C2B20984  42.608  37.531   8.538
 1438POPC   C3B20985  42.446  37.410   8.167
 1438POPC   C4B20986  42.614  37.536   7.808
 1439POPC   NC320987  39.593  21.452   9.750
 1439POPC   PO420988  40.091  21.643   9.339
 1439POPC   GL120989  40.066  21.291   9.122
 1439POPC   GL220990  40.440  21.268   9.101
 1439POPC   C1A20991  39.955  21.419   8.706
 1439POPC   D2A20992  40.190  21.499   8.344
 1439POPC   C3A20993  39.969  21.611   7.975
 1439POPC   C4A20994  39.564  21.737   7.910
 1439POPC   C1B20995  40.360  21.103   8.707
 1439POPC   C2B20996  40.512  21.085   8.284
 1439POPC   C3B20997  40.339  21.270   7.913
 1439POPC   C4B20998  40.250  21.268   7.461
 1440POPC   NC320999  25.635  13.770   9.586
 1440POPC   PO421000  26.197  13.492   9.402
 1440POPC   GL121001  25.890  13.608   9.143
 1440POPC   GL221002  25.892  13.923   9.120
 1440POPC   C1A21003  25.964  13.554   8.724
 1440POPC   D2A21004  26.048  13.387   8.313
 1440POPC   C3A21005  25.744  13.320   7.997
 1440POPC   C4A21006  26.000  13.413   7.667
 1440POPC   C1B21007  26.089  14.055   8.764
 1440POPC   C2B21008  26.020  13.906   8.360
 1440POPC   C3B21009  26.069  13.800   7.967
 1440POPC   C4B21010  25.808  13.884   7.600
 1441POPC   NC321011  36.246  34.912   9.454
 1441POPC   PO421012  35.787  34.492   9.506
 1441POPC   GL121013  36.003  34.562   9.156
 1441POPC   GL221014  35.856  34.893   9.114
 1441POPC   C1A21015  36.278  34.641   8.808
 1441POPC   D2A21016  36.157  34.691   8.369
 1441POPC   C3A21017  36.208  34.276   8.186
 1441POPC   C4A21018  36.498  34.134   7.866
 1441POPC   C1B21019  35.730  34.752   8.727
 1441POPC   C2B21020  35.657  34.847   8.307
 1441POPC   C3B21021  35.831  34.590   7.965
 1441POPC   C4B21022  36.217  34.643   7.815
 1442POPC   NC321023   7.750  39.676   9.936
 1442POPC   PO421024   8.061  40.065   9.418
 1442POPC   GL121025   8.184  40.151   9.022
 1442POPC   GL221026   7.831  40.061   8.955
 1442POPC   C1A21027   8.492  39.986   8.696
 1442POPC   D2A21028   8.449  39.800   8.270
 1442POPC   C3A21029   8.189  39.891   7.902
 1442POPC   C4A21030   8.202  40.138   7.582
 1442POPC   C1B21031   8.020  40.065   8.560
 1442POPC   C2B21032   8.138  40.263   8.225
 1442POPC   C3B21033   7.817  40.258   7.887
 1442POPC   C4B21034   7.742  40.213   7.430
 1443POPC   NC321035   6.969  23.006   9.639
 1443POPC   PO421036   7.495  22.688   9.431
 1443POPC   GL121037   7.355  23.004   9.146
 1443POPC   GL221038   7.019  22.991   9.125
 1443POPC   C1A21039   7.527  23.049   8.743
 1443POPC   D2A21040   7.572  22.716   8.435
 1443POPC   C3A21041   7.490  22.924   8.045
 1443POPC   C4A21042   7.762  22.945   7.673
 1443POPC   C1B21043   7.008  23.205   8.745
 1443POPC   C2B21044   7.220  23.279   8.386
 1443POPC   C3B21045   7.134  23.338   7.984
 1443POPC   C4B21046   7.240  23.114   7.624
 1444POPC   NC321047  40.018  28.667   9.902
 1444POPC   PO421048  39.993  29.262   9.590
 1444POPC   GL121049  39.949  29.249   9.154
 1444POPC   GL221050  40.262  29.403   9.073
 1444POPC   C1A21051  40.012  29.041   8.745
 1444POPC   D2A21052  40.190  29.045   8.319
 1444POPC   C3A21053  39.983  29.075   7.910
 1444POPC   C4A21054  39.944  28.793   7.536
 1444POPC   C1B21055  40.130  29.565   8.662
 1444POPC   C2B21056  40.228  29.546   8.207
 1444POPC   C3B21057  40.335  29.445   7.825
 1444POPC   C4B21058  40.311  29.156   7.484
 1445POPC   NC321059   3.457   0.602   9.541
 1445POPC   PO421060   3.972   0.915   9.260
 1445POPC   GL121061   3.720   0.531   9.107
 1445POPC   GL221062   3.334   0.390   9.102
 1445POPC   C1A21063   3.693   0.315   8.721
 1445POPC   D2A21064   3.506   0.534   8.391
 1445POPC   C3A21065   3.736   0.513   8.033
 1445POPC   C4A21066   3.555   0.697   7.707
 1445POPC   C1B21067   3.229   0.101   8.770
 1445POPC   C2B21068   3.389   0.033   8.393
 1445POPC   C3B21069   3.345   0.182   8.020
 1445POPC   C4B21070   3.479   0.177   7.667
 1446POPC   NC321071   9.928   3.351   9.703
 1446POPC   PO421072   9.478   3.831   9.543
 1446POPC   GL121073   9.510   3.503   9.281
 1446POPC   GL221074   9.845   3.538   9.200
 1446POPC   C1A21075   9.431   3.526   8.849
 1446POPC   D2A21076   9.644   3.447   8.458
 1446POPC   C3A21077   9.549   3.535   8.041
 1446POPC   C4A21078   9.738   3.459   7.650
 1446POPC   C1B21079  10.028   3.375   8.809
 1446POPC   C2B21080  10.173   3.452   8.407
 1446POPC   C3B21081  10.090   3.541   8.007
 1446POPC   C4B21082  10.291   3.477   7.628
 1447POPC   NC321083  21.063  35.162   9.532
 1447POPC   PO421084  20.576  35.539   9.667
 1447POPC   GL121085  20.761  35.605   9.260
 1447POPC   GL221086  20.444  35.782   9.231
 1447POPC   C1A21087  20.759  35.400   8.838
 1447POPC   D2A21088  20.854  35.353   8.392
 1447POPC   C3A21089  20.566  35.338   8.055
 1447POPC   C4A21090  20.853  35.211   7.749
 1447POPC   C1B21091  20.586  35.878   8.847
 1447POPC   C2B21092  20.548  35.759   8.459
 1447POPC   C3B21093  20.551  35.857   8.056
 1447POPC   C4B21094  20.389  35.708   7.709
 1448POPC   NC321095  44.994  37.497   9.644
 1448POPC   PO421096  44.328  37.653   9.597
 1448POPC   GL121097  44.426  37.705   9.169
 1448POPC   GL221098  44.784  37.774   9.230
 1448POPC   C1A21099  44.583  37.720   8.735
 1448POPC   D2A21100  44.866  37.517   8.446
 1448POPC   C3A21101  44.789  37.745   8.077
 1448POPC   C4A21102  44.382  37.799   7.879
 1448POPC   C1B21103  44.909  38.085   8.916
 1448POPC   C2B21104  44.939  38.050   8.490
 1448POPC   C3B21105  44.996  38.253   8.108
 1448POPC   C4B21106  44.953  38.041   7.703
 1449POPC   NC321107  37.418  20.505   9.731
 1449POPC   PO421108  36.753  20.634   9.661
 1449POPC   GL121109  37.007  20.602   9.262
 1449POPC   GL221110  36.846  20.872   9.169
 1449POPC   C1A21111  37.074  20.694   8.770
 1449POPC   D2A21112  36.753  20.664   8.399
 1449POPC   C3A21113  36.879  20.632   7.944
 1449POPC   C4A21114  37.033  20.657   7.505
 1449POPC   C1B21115  36.649  21.022   8.798
 1449POPC   C2B21116  36.453  21.088   8.411
 1449POPC   C3B21117  36.744  21.099   8.080
 1449POPC   C4B21118  36.728  21.066   7.655
 1450POPC   NC321119  15.598  38.371   9.485
 1450POPC   PO421120  16.156  38.193   9.509
 1450POPC   GL121121  15.994  38.411   9.163
 1450POPC   GL221122  15.756  38.723   9.160
 1450POPC   C1A21123  16.167  38.445   8.805
 1450POPC   D2A21124  16.099  38.200   8.459
 1450POPC   C3A21125  16.158  38.349   8.057
 1450POPC   C4A21126  15.836  38.180   7.774
 1450POPC   C1B21127  15.874  38.858   8.759
 1450POPC   C2B21128  15.978  38.696   8.387
 1450POPC   C3B21129  15.796  38.679   7.982
 1450POPC   C4B21130  16.042  38.657   7.628
 1451POPC   NC321131   6.905  23.510   9.314
 1451POPC   PO421132   6.545  24.005   9.622
 1451POPC   GL121133   6.540  23.907   9.160
 1451POPC   GL221134   6.441  23.569   9.098
 1451POPC   C1A21135   6.727  23.828   8.741
 1451POPC   D2A21136   6.851  23.637   8.345
 1451POPC   C3A21137   6.742  23.844   7.948
 1451POPC   C4A21138   6.940  24.146   7.669
 1451POPC   C1B21139   6.491  23.312   8.721
 1451POPC   C2B21140   6.670  23.164   8.335
 1451POPC   C3B21141   6.638  23.336   7.912
 1451POPC   C4B21142   6.524  23.613   7.548
 1452POPC   NC321143  39.888  17.935   9.659
 1452POPC   PO421144  40.243  17.293   9.547
 1452POPC   GL121145  40.001  17.500   9.247
 1452POPC   GL221146  40.240  17.792   9.255
 1452POPC   C1A21147  39.847  17.391   8.813
 1452POPC   D2A21148  40.034  17.317   8.428
 1452POPC   C3A21149  39.766  17.469   8.149
 1452POPC   C4A21150  39.764  17.661   7.777
 1452POPC   C1B21151  40.277  17.685   8.798
 1452POPC   C2B21152  40.392  17.716   8.354
 1452POPC   C3B21153  40.248  17.568   7.936
 1452POPC   C4B21154  40.173  17.459   7.456
 1453POPC   NC321155  37.948  39.471   9.552
 1453POPC   PO421156  37.766  38.813   9.438
 1453POPC   GL121157  37.566  38.983   9.104
 1453POPC   GL221158  37.242  38.849   9.007
 1453POPC   C1A21159  37.564  39.309   8.807
 1453POPC   D2A21160  37.377  39.504   8.447
 1453POPC   C3A21161  37.513  39.472   8.055
 1453POPC   C4A21162  37.777  39.501   7.727
 1453POPC   C1B21163  37.503  38.814   8.624
 1453POPC   C2B21164  37.414  39.003   8.235
 1453POPC   C3B21165  37.355  39.071   7.796
 1453POPC   C4B21166  37.603  39.104   7.447
 1454POPC   NC321167  41.244   1.530   9.392
 1454POPC   PO421168  41.126   2.139   9.408
 1454POPC   GL121169  40.814   1.896   9.168
 1454POPC   GL221170  41.088   1.815   8.993
 1454POPC   C1A21171  40.588   1.658   8.807
 1454POPC   D2A21172  40.713   1.456   8.382
 1454POPC   C3A21173  40.687   1.698   7.968
 1454POPC   C4A21174  40.622   1.666   7.481
 1454POPC   C1B21175  40.980   1.870   8.579
 1454POPC   C2B21176  40.627   2.060   8.413
 1454POPC   C3B21177  40.598   2.248   8.030
 1454POPC   C4B21178  40.784   2.116   7.680
 1455POPC   NC321179  28.063   7.429   9.503
 1455POPC   PO421180  28.662   7.726   9.663
 1455POPC   GL121181  28.540   7.436   9.307
 1455POPC   GL221182  28.854   7.290   9.295
 1455POPC   C1A21183  28.294   7.463   8.890
 1455POPC   D2A21184  28.139   7.714   8.505
 1455POPC   C3A21185  28.158   7.487   8.130
 1455POPC   C4A21186  28.015   7.432   7.726
 1455POPC   C1B21187  28.833   7.543   8.899
 1455POPC   C2B21188  28.619   7.475   8.502
 1455POPC   C3B21189  28.665   7.535   8.099
 1455POPC   C4B21190  28.515   7.309   7.782
 1456POPC   NC321191  12.571   4.052   9.333
 1456POPC   PO421192  12.959   4.558   9.508
 1456POPC   GL121193  12.930   4.408   9.124
 1456POPC   GL221194  13.061   4.135   9.151
 1456POPC   C1A21195  12.728   4.319   8.753
 1456POPC   D2A21196  12.420   4.476   8.513
 1456POPC   C3A21197  12.587   4.439   8.110
 1456POPC   C4A21198  12.535   4.534   7.682
 1456POPC   C1B21199  12.978   3.878   8.818
 1456POPC   C2B21200  12.887   3.930   8.425
 1456POPC   C3B21201  13.012   4.048   8.049
 1456POPC   C4B21202  12.766   4.094   7.732
 1457POPC   NC321203   7.059  28.448   9.468
 1457POPC   PO421204   6.431  28.406   9.634
 1457POPC   GL121205   6.586  28.450   9.183
 1457POPC   GL221206   6.914  28.358   8.993
 1457POPC   C1A21207   6.531  28.595   8.760
 1457POPC   D2A21208   6.601  28.357   8.405
 1457POPC   C3A21209   6.918  28.371   8.117
 1457POPC   C4A21210   6.633  28.283   7.804
 1457POPC   C1B21211   6.888  28.010   8.687
 1457POPC   C2B21212   6.709  27.837   8.349
 1457POPC   C3B21213   6.902  27.877   8.008
 1457POPC   C4B21214   7.237  27.849   7.769
 1458POPC   NC321215  36.130   2.233   9.506
 1458POPC   PO421216  36.479   1.682   9.540
 1458POPC   GL121217  36.329   1.855   9.138
 1458POPC   GL221218  35.986   1.984   9.098
 1458POPC   C1A21219  36.219   1.835   8.679
 1458POPC   D2A21220  35.974   1.780   8.301
 1458POPC   C3A21221  36.296   1.847   8.013
 1458POPC   C4A21222  36.374   2.144   7.697
 1458POPC   C1B21223  35.724   2.209   8.784
 1458POPC   C2B21224  35.415   2.247   8.454
 1458POPC   C3B21225  35.626   2.329   8.054
 1458POPC   C4B21226  35.875   2.053   7.821
 1459POPC   NC321227   8.554  26.714   9.397
 1459POPC   PO421228   9.105  26.768   9.804
 1459POPC   GL121229   9.052  26.925   9.351
 1459POPC   GL221230   8.770  27.124   9.195
 1459POPC   C1A21231   9.087  26.817   8.903
 1459POPC   D2A21232   9.167  26.949   8.462
 1459POPC   C3A21233   9.048  26.689   8.140
 1459POPC   C4A21234   9.169  26.567   7.718
 1459POPC   C1B21235   8.904  27.292   8.788
 1459POPC   C2B21236   8.812  27.304   8.392
 1459POPC   C3B21237   9.012  27.204   8.041
 1459POPC   C4B21238   8.835  26.945   7.749
 1460POPC   NC321239  41.331  36.198   9.688
 1460POPC   PO421240  41.938  36.077   9.566
 1460POPC   GL121241  41.651  36.222   9.198
 1460POPC   GL221242  41.281  36.259   9.188
 1460POPC   C1A21243  41.605  36.388   8.765
 1460POPC   D2A21244  41.529  36.158   8.386
 1460POPC   C3A21245  41.706  36.122   7.985
 1460POPC   C4A21246  41.606  36.474   7.764
 1460POPC   C1B21247  41.327  35.969   8.843
 1460POPC   C2B21248  41.147  35.822   8.443
 1460POPC   C3B21249  41.290  35.831   8.040
 1460POPC   C4B21250  41.098  35.933   7.693
 1461POPC   NC321251  38.837  13.026   9.641
 1461POPC   PO421252  38.954  12.427   9.519
 1461POPC   GL121253  39.180  12.742   9.247
 1461POPC   GL221254  39.120  13.089   9.222
 1461POPC   C1A21255  39.191  12.688   8.822
 1461POPC   D2A21256  38.959  12.497   8.493
 1461POPC   C3A21257  39.074  12.578   8.079
 1461POPC   C4A21258  39.044  12.826   7.727
 1461POPC   C1B21259  39.181  13.220   8.813
 1461POPC   C2B21260  39.118  13.033   8.414
 1461POPC   C3B21261  39.170  13.230   8.016
 1461POPC   C4B21262  39.136  13.325   7.569
 1462POPC   NC321263   8.718  29.073   9.544
 1462POPC   PO421264   9.088  29.614   9.506
 1462POPC   GL121265   9.151  29.362   9.160
 1462POPC   GL221266   9.034  29.024   9.111
 1462POPC   C1A21267   9.312  29.430   8.775
 1462POPC   D2A21268   9.254  29.490   8.367
 1462POPC   C3A21269   9.132  29.103   8.196
 1462POPC   C4A21270   9.124  29.071   7.781
 1462POPC   C1B21271   8.858  29.026   8.675
 1462POPC   C2B21272   8.688  28.730   8.363
 1462POPC   C3B21273   8.886  28.667   7.963
 1462POPC   C4B21274   8.841  28.761   7.473
 1463POPC   NC321275  37.152  44.198   9.611
 1463POPC   PO421276  36.743  43.622   9.614
 1463POPC   GL121277  36.734  43.782   9.197
 1463POPC   GL221278  36.920  44.098   9.142
 1463POPC   C1A21279  36.737  43.591   8.777
 1463POPC   D2A21280  36.667  43.610   8.320
 1463POPC   C3A21281  36.955  43.832   8.013
 1463POPC   C4A21282  36.816  43.852   7.569
 1463POPC   C1B21283  37.283  44.252   8.848
 1463POPC   C2B21284  37.442  44.238   8.408
 1463POPC   C3B21285  37.335  44.351   7.978
 1463POPC   C4B21286  37.164  44.215   7.596
 1464POPC   NC321287  24.040  40.124   9.470
 1464POPC   PO421288  23.503  39.720   9.594
 1464POPC   GL121289  23.643  39.933   9.154
 1464POPC   GL221290  23.954  40.163   8.998
 1464POPC   C1A21291  23.577  40.060   8.697
 1464POPC   D2A21292  23.510  40.304   8.328
 1464POPC   C3A21293  23.391  40.028   7.997
 1464POPC   C4A21294  23.518  40.100   7.577
 1464POPC   C1B21295  24.130  39.883   8.743
 1464POPC   C2B21296  23.926  39.798   8.370
 1464POPC   C3B21297  23.903  40.027   7.999
 1464POPC   C4B21298  23.975  39.852   7.606
 1465POPC   NC321299  23.079  14.686   9.241
 1465POPC   PO421300  22.476  14.477   9.405
 1465POPC   GL121301  22.709  14.408   9.021
 1465POPC   GL221302  22.469  14.560   8.868
 1465POPC   C1A21303  23.010  14.215   8.708
 1465POPC   D2A21304  23.136  14.203   8.267
 1465POPC   C3A21305  23.194  14.558   7.987
 1465POPC   C4A21306  23.196  14.547   7.538
 1465POPC   C1B21307  22.806  14.714   8.613
 1465POPC   C2B21308  22.734  14.861   8.227
 1465POPC   C3B21309  22.544  14.843   7.836
 1465POPC   C4B21310  22.667  14.574   7.460
 1466POPC   NC321311  10.780  39.224   9.476
 1466POPC   PO421312  10.170  38.819   9.501
 1466POPC   GL121313  10.267  39.034   9.135
 1466POPC   GL221314  10.459  39.345   9.104
 1466POPC   C1A21315  10.302  39.030   8.715
 1466POPC   D2A21316  10.515  39.226   8.394
 1466POPC   C3A21317  10.410  39.177   7.951
 1466POPC   C4A21318  10.431  39.469   7.602
 1466POPC   C1B21319  10.816  39.216   8.829
 1466POPC   C2B21320  10.996  39.456   8.490
 1466POPC   C3B21321  10.874  39.420   8.081
 1466POPC   C4B21322  10.927  39.383   7.668
 1467POPC   NC321323   4.108  26.401   9.421
 1467POPC   PO421324   3.999  25.768   9.541
 1467POPC   GL121325   4.295  25.974   9.179
 1467POPC   GL221326   4.535  25.703   9.099
 1467POPC   C1A21327   4.328  26.254   8.764
 1467POPC   D2A21328   4.018  26.272   8.408
 1467POPC   C3A21329   4.198  26.304   8.015
 1467POPC   C4A21330   4.140  25.998   7.701
 1467POPC   C1B21331   4.558  25.813   8.699
 1467POPC   C2B21332   4.374  25.887   8.312
 1467POPC   C3B21333   4.483  25.703   7.958
 1467POPC   C4B21334   4.904  25.713   7.785
 1468POPC   NC321335  17.709  13.064   9.364
 1468POPC   PO421336  17.368  12.721   9.827
 1468POPC   GL121337  17.367  12.668   9.282
 1468POPC   GL221338  17.580  12.729   9.027
 1468POPC   C1A21339  17.232  12.415   8.882
 1468POPC   D2A21340  17.322  12.554   8.473
 1468POPC   C3A21341  17.037  12.643   8.136
 1468POPC   C4A21342  17.201  12.874   7.775
 1468POPC   C1B21343  17.732  12.817   8.668
 1468POPC   C2B21344  17.820  12.632   8.269
 1468POPC   C3B21345  17.710  12.815   7.871
 1468POPC   C4B21346  17.974  12.833   7.481
 1469POPC   NC321347  44.851  12.167   9.494
 1469POPC   PO421348  44.207  12.268   9.422
 1469POPC   GL121349  44.487  12.227   9.130
 1469POPC   GL221350  44.589  11.922   9.155
 1469POPC   C1A21351  44.649  12.241   8.750
 1469POPC   D2A21352  44.683  12.456   8.414
 1469POPC   C3A21353  44.574  12.153   8.176
 1469POPC   C4A21354  44.662  12.114   7.787
 1469POPC   C1B21355  44.899  11.787   8.870
 1469POPC   C2B21356   0.064  12.002   8.546
 1469POPC   C3B21357   0.188  11.838   8.168
 1469POPC   C4B21358  44.995  11.726   7.776
 1470POPC   NC321359  15.468  27.897   9.423
 1470POPC   PO421360  14.964  28.280   9.629
 1470POPC   GL121361  15.170  28.451   9.232
 1470POPC   GL221362  15.066  28.104   9.136
 1470POPC   C1A21363  15.228  28.726   8.801
 1470POPC   D2A21364  15.023  28.727   8.408
 1470POPC   C3A21365  15.214  28.727   8.007
 1470POPC   C4A21366  14.929  28.725   7.643
 1470POPC   C1B21367  15.267  28.226   8.759
 1470POPC   C2B21368  15.221  28.238   8.304
 1470POPC   C3B21369  15.250  27.894   7.984
 1470POPC   C4B21370  15.295  27.953   7.528
 1471POPC   NC321371  36.990  11.732   9.471
 1471POPC   PO421372  36.725  12.419   9.452
 1471POPC   GL121373  36.961  12.273   9.094
 1471POPC   GL221374  36.887  11.971   9.030
 1471POPC   C1A21375  36.895  12.391   8.661
 1471POPC   D2A21376  37.174  12.378   8.308
 1471POPC   C3A21377  37.107  12.210   7.898
 1471POPC   C4A21378  36.846  12.396   7.556
 1471POPC   C1B21379  37.136  11.948   8.677
 1471POPC   C2B21380  36.942  11.930   8.319
 1471POPC   C3B21381  36.753  11.609   8.124
 1471POPC   C4B21382  36.740  11.797   7.760
 1472POPC   NC321383   6.841  27.080   9.484
 1472POPC   PO421384   6.279  26.675   9.453
 1472POPC   GL121385   6.544  26.799   9.080
 1472POPC   GL221386   6.542  27.146   9.071
 1472POPC   C1A21387   6.667  26.750   8.597
 1472POPC   D2A21388   6.973  26.535   8.273
 1472POPC   C3A21389   6.865  26.511   7.833
 1472POPC   C4A21390   6.455  26.637   7.678
 1472POPC   C1B21391   6.315  27.134   8.694
 1472POPC   C2B21392   6.365  27.018   8.271
 1472POPC   C3B21393   6.696  26.930   8.062
 1472POPC   C4B21394   6.796  27.027   7.656
 1473POPC   NC321395   4.929  21.296   9.589
 1473POPC   PO421396   4.272  21.443   9.608
 1473POPC   GL121397   4.239  21.371   9.174
 1473POPC   GL221398   4.137  20.996   9.137
 1473POPC   C1A21399   4.491  21.494   8.858
 1473POPC   D2A21400   4.498  21.400   8.470
 1473POPC   C3A21401   4.253  21.542   8.118
 1473POPC   C4A21402   4.282  21.497   7.697
 1473POPC   C1B21403   4.114  21.093   8.675
 1473POPC   C2B21404   4.189  21.063   8.218
 1473POPC   C3B21405   4.340  21.003   7.769
 1473POPC   C4B21406   4.139  21.120   7.363
 1474POPC   NC321407  26.991  22.113   9.360
 1474POPC   PO421408  26.356  21.838   9.425
 1474POPC   GL121409  26.557  22.140   9.106
 1474POPC   GL221410  26.518  22.500   9.059
 1474POPC   C1A21411  26.805  22.189   8.720
 1474POPC   D2A21412  26.966  22.037   8.326
 1474POPC   C3A21413  26.752  21.973   7.953
 1474POPC   C4A21414  26.832  22.259   7.613
 1474POPC   C1B21415  26.340  22.390   8.703
 1474POPC   C2B21416  26.422  22.175   8.346
 1474POPC   C3B21417  26.413  22.341   7.953
 1474POPC   C4B21418  26.372  22.500   7.545
 1475POPC   NC321419  11.933  13.191   9.497
 1475POPC   PO421420  12.100  12.638   9.632
 1475POPC   GL121421  12.138  12.705   9.218
 1475POPC   GL221422  12.397  12.535   9.129
 1475POPC   C1A21423  12.071  12.983   8.887
 1475POPC   D2A21424  12.019  12.942   8.449
 1475POPC   C3A21425  12.028  13.020   8.007
 1475POPC   C4A21426  12.197  12.943   7.584
 1475POPC   C1B21427  12.264  12.559   8.707
 1475POPC   C2B21428  12.188  12.452   8.291
 1475POPC   C3B21429  12.328  12.540   7.873
 1475POPC   C4B21430  12.440  12.547   7.397
 1476POPC   NC321431  14.446   7.631   9.789
 1476POPC   PO421432  14.510   8.263   9.632
 1476POPC   GL121433  14.709   8.309   9.251
 1476POPC   GL221434  14.505   8.552   9.102
 1476POPC   C1A21435  14.693   8.063   8.873
 1476POPC   D2A21436  14.561   7.916   8.455
 1476POPC   C3A21437  14.620   8.148   8.090
 1476POPC   C4A21438  14.463   7.978   7.739
 1476POPC   C1B21439  14.254   8.340   8.816
 1476POPC   C2B21440  14.248   8.387   8.383
 1476POPC   C3B21441  14.142   8.294   7.969
 1476POPC   C4B21442  14.241   8.465   7.554
 1477POPC   NC321443  36.061  26.074   9.621
 1477POPC   PO421444  36.283  25.463   9.583
 1477POPC   GL121445  36.125  25.750   9.189
 1477POPC   GL221446  36.136  26.146   9.095
 1477POPC   C1A21447  35.979  25.785   8.732
 1477POPC   D2A21448  35.844  25.969   8.336
 1477POPC   C3A21449  36.074  26.113   7.953
 1477POPC   C4A21450  36.224  26.089   7.507
 1477POPC   C1B21451  36.288  26.160   8.625
 1477POPC   C2B21452  36.368  25.829   8.292
 1477POPC   C3B21453  36.469  25.757   7.842
 1477POPC   C4B21454  36.716  25.983   7.532
 1478POPC   NC321455  36.874   7.869   9.586
 1478POPC   PO421456  36.895   8.570   9.594
 1478POPC   GL121457  37.003   8.254   9.259
 1478POPC   GL221458  36.690   8.099   9.152
 1478POPC   C1A21459  37.079   8.094   8.832
 1478POPC   D2A21460  37.129   8.251   8.436
 1478POPC   C3A21461  37.019   8.090   8.051
 1478POPC   C4A21462  36.886   8.399   7.777
 1478POPC   C1B21463  36.578   7.939   8.738
 1478POPC   C2B21464  36.521   8.055   8.286
 1478POPC   C3B21465  36.526   7.904   7.856
 1478POPC   C4B21466  36.678   8.024   7.428
 1479POPC   NC321467  25.284  37.504   9.503
 1479POPC   PO421468  25.688  37.935   9.686
 1479POPC   GL121469  25.567  37.835   9.231
 1479POPC   GL221470  25.184  37.851   9.151
 1479POPC   C1A21471  25.477  37.611   8.812
 1479POPC   D2A21472  25.174  37.542   8.491
 1479POPC   C3A21473  25.374  37.520   8.092
 1479POPC   C4A21474  25.186  37.717   7.740
 1479POPC   C1B21475  25.014  38.036   8.783
 1479POPC   C2B21476  24.875  38.002   8.365
 1479POPC   C3B21477  24.908  38.134   7.916
 1479POPC   C4B21478  24.934  38.059   7.446
 1480POPC   NC321479  25.755  38.264   9.994
 1480POPC   PO421480  25.357  38.616   9.591
 1480POPC   GL121481  25.202  38.619   9.189
 1480POPC   GL221482  25.367  38.327   9.145
 1480POPC   C1A21483  25.315  38.639   8.745
 1480POPC   D2A21484  25.234  38.370   8.398
 1480POPC   C3A21485  25.254  38.538   7.982
 1480POPC   C4A21486  25.033  38.875   7.813
 1480POPC   C1B21487  25.507  38.127   8.795
 1480POPC   C2B21488  25.505  37.936   8.415
 1480POPC   C3B21489  25.416  38.042   8.043
 1480POPC   C4B21490  25.470  38.194   7.653
 1481POPC   NC321491  23.080  36.980   9.587
 1481POPC   PO421492  23.730  36.957   9.518
 1481POPC   GL121493  23.697  36.959   9.065
 1481POPC   GL221494  23.445  37.201   8.917
 1481POPC   C1A21495  23.813  36.940   8.628
 1481POPC   D2A21496  23.700  37.249   8.328
 1481POPC   C3A21497  23.857  37.216   7.910
 1481POPC   C4A21498  23.830  37.089   7.465
 1481POPC   C1B21499  23.302  36.881   8.615
 1481POPC   C2B21500  23.497  36.721   8.245
 1481POPC   C3B21501  23.611  36.749   7.807
 1481POPC   C4B21502  23.442  36.767   7.397
 1482POPC   NC321503   8.171  12.485   9.468
 1482POPC   PO421504   8.257  11.794   9.525
 1482POPC   GL121505   8.391  11.976   9.134
 1482POPC   GL221506   8.569  12.309   9.180
 1482POPC   C1A21507   8.362  11.863   8.693
 1482POPC   D2A21508   8.208  12.132   8.362
 1482POPC   C3A21509   8.399  12.118   7.961
 1482POPC   C4A21510   8.247  11.898   7.638
 1482POPC   C1B21511   8.303  12.364   8.808
 1482POPC   C2B21512   8.390  12.624   8.456
 1482POPC   C3B21513   8.384  12.618   8.022
 1482POPC   C4B21514   8.443  12.512   7.578
 1483POPC   NC321515   4.899   2.790   9.502
 1483POPC   PO421516   5.411   2.580   9.153
 1483POPC   GL121517   5.087   2.820   9.038
 1483POPC   GL221518   5.235   3.082   9.210
 1483POPC   C1A21519   5.024   2.825   8.653
 1483POPC   D2A21520   5.222   2.549   8.412
 1483POPC   C3A21521   4.993   2.626   8.093
 1483POPC   C4A21522   4.858   2.726   7.704
 1483POPC   C1B21523   5.422   3.161   8.761
 1483POPC   C2B21524   5.309   3.079   8.305
 1483POPC   C3B21525   5.262   3.006   7.856
 1483POPC   C4B21526   5.154   3.031   7.399
 1484POPC   NC321527  31.754  39.271   9.676
 1484POPC   PO421528  32.369  39.395   9.616
 1484POPC   GL121529  32.125  39.179   9.296
 1484POPC   GL221530  32.342  38.900   9.187
 1484POPC   C1A21531  32.093  39.191   8.846
 1484POPC   D2A21532  32.322  39.232   8.460
 1484POPC   C3A21533  32.175  39.459   8.136
 1484POPC   C4A21534  31.978  39.379   7.766
 1484POPC   C1B21535  32.577  38.931   8.779
 1484POPC   C2B21536  32.506  38.790   8.307
 1484POPC   C3B21537  32.431  38.948   7.857
 1484POPC   C4B21538  32.637  38.933   7.417
 1485POPC   NC321539  29.677  40.481   9.535
 1485POPC   PO421540  30.110  39.967   9.363
 1485POPC   GL121541  29.972  40.303   9.124
 1485POPC   GL221542  29.630  40.185   9.028
 1485POPC   C1A21543  30.201  40.360   8.753
 1485POPC   D2A21544  30.486  40.160   8.489
 1485POPC   C3A21545  30.359  40.422   8.148
 1485POPC   C4A21546  30.026  40.311   7.844
 1485POPC   C1B21547  29.892  39.937   8.734
 1485POPC   C2B21548  29.987  40.034   8.310
 1485POPC   C3B21549  29.743  39.905   7.959
 1485POPC   C4B21550  29.807  39.713   7.556
 1486POPC   NC321551   3.022  34.971   9.467
 1486POPC   PO421552   3.646  34.861   9.599
 1486POPC   GL121553   3.489  34.660   9.208
 1486POPC   GL221554   3.197  34.734   9.040
 1486POPC   C1A21555   3.659  34.434   8.818
 1486POPC   D2A21556   3.758  34.166   8.449
 1486POPC   C3A21557   3.759  34.302   8.014
 1486POPC   C4A21558   3.650  34.436   7.590
 1486POPC   C1B21559   3.274  34.656   8.601
 1486POPC   C2B21560   3.374  34.593   8.197
 1486POPC   C3B21561   3.222  34.651   7.786
 1486POPC   C4B21562   3.144  34.564   7.336
 1487POPC   NC321563   8.254  28.731   9.362
 1487POPC   PO421564   8.363  29.377   9.492
 1487POPC   GL121565   8.215  29.213   9.141
 1487POPC   GL221566   8.522  29.054   9.068
 1487POPC   C1A21567   8.124  29.431   8.765
 1487POPC   D2A21568   8.194  29.587   8.391
 1487POPC   C3A21569   7.935  29.403   8.103
 1487POPC   C4A21570   8.018  28.983   7.936
 1487POPC   C1B21571   8.335  28.968   8.696
 1487POPC   C2B21572   8.353  29.121   8.304
 1487POPC   C3B21573   8.631  29.089   7.997
 1487POPC   C4B21574   8.423  28.939   7.640
 1488POPC   NC321575  28.242   4.476   9.446
 1488POPC   PO421576  28.490   3.863   9.455
 1488POPC   GL121577  28.399   4.116   9.078
 1488POPC   GL221578  28.097   4.360   8.986
 1488POPC   C1A21579  28.370   4.133   8.636
 1488POPC   D2A21580  28.133   4.297   8.328
 1488POPC   C3A21581  28.437   4.173   8.072
 1488POPC   C4A21582  28.463   4.179   7.668
 1488POPC   C1B21583  28.509   4.579   8.841
 1488POPC   C2B21584  28.580   4.558   8.392
 1488POPC   C3B21585  28.435   4.662   7.976
 1488POPC   C4B21586  28.199   4.809   7.650
 1489POPC   NC321587  40.585   4.126   9.587
 1489POPC   PO421588  41.213   4.481   9.625
 1489POPC   GL121589  40.885   4.452   9.287
 1489POPC   GL221590  40.900   4.118   9.151
 1489POPC   C1A21591  40.720   4.490   8.848
 1489POPC   D2A21592  40.521   4.339   8.450
 1489POPC   C3A21593  40.770   4.400   8.087
 1489POPC   C4A21594  40.726   4.542   7.697
 1489POPC   C1B21595  40.614   3.968   8.841
 1489POPC   C2B21596  40.490   3.762   8.483
 1489POPC   C3B21597  40.568   3.940   8.119
 1489POPC   C4B21598  40.698   4.032   7.727
 1490POPC   NC321599  30.073  34.065   9.608
 1490POPC   PO421600  30.143  34.696   9.498
 1490POPC   GL121601  30.074  34.767   9.087
 1490POPC   GL221602  29.793  34.534   9.126
 1490POPC   C1A21603  30.165  34.648   8.665
 1490POPC   D2A21604  29.920  34.505   8.303
 1490POPC   C3A21605  29.921  34.563   7.866
 1490POPC   C4A21606  30.043  34.250   7.581
 1490POPC   C1B21607  29.633  34.636   8.734
 1490POPC   C2B21608  29.537  34.846   8.372
 1490POPC   C3B21609  29.435  34.712   7.963
 1490POPC   C4B21610  29.485  34.944   7.566
 1491POPC   NC321611   3.797  18.226   9.327
 1491POPC   PO421612   4.449  18.316   9.615
 1491POPC   GL121613   4.300  18.254   9.206
 1491POPC   GL221614   4.107  18.554   9.126
 1491POPC   C1A21615   4.262  18.129   8.773
 1491POPC   D2A21616   4.599  18.150   8.490
 1491POPC   C3A21617   4.534  18.187   8.058
 1491POPC   C4A21618   4.499  18.359   7.623
 1491POPC   C1B21619   3.866  18.485   8.750
 1491POPC   C2B21620   3.945  18.320   8.369
 1491POPC   C3B21621   3.976  18.667   8.106
 1491POPC   C4B21622   4.179  18.752   7.727
 1492POPC   NC321623  34.713  14.345   9.547
 1492POPC   PO421624  34.084  14.548   9.599
 1492POPC   GL121625  34.359  14.482   9.200
 1492POPC   GL221626  34.629  14.261   9.068
 1492POPC   C1A21627  34.287  14.481   8.746
 1492POPC   D2A21628  34.475  14.711   8.375
 1492POPC   C3A21629  34.308  14.433   8.059
 1492POPC   C4A21630  34.414  14.309   7.701
 1492POPC   C1B21631  34.787  14.466   8.696
 1492POPC   C2B21632  34.665  14.236   8.356
 1492POPC   C3B21633  34.844  14.272   7.965
 1492POPC   C4B21634  34.861  14.456   7.544
 1493POPC   NC321635  28.695  18.564   9.550
 1493POPC   PO421636  28.282  18.076   9.546
 1493POPC   GL121637  28.548  18.166   9.236
 1493POPC   GL221638  28.369  18.470   9.167
 1493POPC   C1A21639  28.501  18.091   8.804
 1493POPC   D2A21640  28.411  18.339   8.428
 1493POPC   C3A21641  28.351  18.153   8.016
 1493POPC   C4A21642  28.588  18.395   7.680
 1493POPC   C1B21643  28.081  18.379   8.844
 1493POPC   C2B21644  27.904  18.513   8.456
 1493POPC   C3B21645  28.081  18.583   8.069
 1493POPC   C4B21646  28.093  18.452   7.657
 1494POPC   NC321647  25.810  23.990   9.389
 1494POPC   PO421648  26.368  23.617   9.406
 1494POPC   GL121649  26.196  23.486   9.088
 1494POPC   GL221650  25.869  23.553   9.160
 1494POPC   C1A21651  26.274  23.472   8.683
 1494POPC   D2A21652  26.111  23.726   8.382
 1494POPC   C3A21653  26.354  23.858   8.066
 1494POPC   C4A21654  26.268  23.754   7.687
 1494POPC   C1B21655  25.773  23.773   8.771
 1494POPC   C2B21656  25.601  23.643   8.371
 1494POPC   C3B21657  25.754  23.569   7.950
 1494POPC   C4B21658  25.615  23.555   7.530
 1495POPC   NC321659   0.825  39.777   9.485
 1495POPC   PO421660   1.454  39.760   9.272
 1495POPC   GL121661   1.060  39.978   9.097
 1495POPC   GL221662   1.000  40.320   9.189
 1495POPC   C1A21663   0.832  40.119   8.726
 1495POPC   D2A21664   0.913  39.920   8.356
 1495POPC   C3A21665   0.883  39.930   7.921
 1495POPC   C4A21666   1.275  39.871   7.721
 1495POPC   C1B21667   1.303  40.299   8.800
 1495POPC   C2B21668   1.209  40.382   8.366
 1495POPC   C3B21669   1.105  40.380   7.946
 1495POPC   C4B21670   1.404  40.509   7.672
 1496POPC   NC321671  20.165  15.520   9.233
 1496POPC   PO421672  19.743  15.101   9.517
 1496POPC   GL121673  19.777  15.215   9.128
 1496POPC   GL221674  20.072  15.017   9.118
 1496POPC   C1A21675  19.755  15.442   8.737
 1496POPC   D2A21676  19.818  15.611   8.342
 1496POPC   C3A21677  20.066  15.381   8.111
 1496POPC   C4A21678  20.006  15.271   7.715
 1496POPC   C1B21679  20.273  14.837   8.788
 1496POPC   C2B21680  20.289  15.037   8.421
 1496POPC   C3B21681  20.284  14.935   7.994
 1496POPC   C4B21682  20.025  14.777   7.649
 1497POPC   NC321683  39.675  30.899   9.482
 1497POPC   PO421684  39.001  30.692   9.549
 1497POPC   GL121685  39.266  30.708   9.207
 1497POPC   GL221686  39.266  31.032   9.155
 1497POPC   C1A21687  39.406  30.748   8.764
 1497POPC   D2A21688  39.245  30.658   8.354
 1497POPC   C3A21689  39.406  30.676   7.950
 1497POPC   C4A21690  39.236  30.706   7.532
 1497POPC   C1B21691  38.981  31.081   8.809
 1497POPC   C2B21692  38.832  31.061   8.393
 1497POPC   C3B21693  39.009  31.025   7.986
 1497POPC   C4B21694  38.788  30.907   7.630
 1498POPC   NC321695   0.987  11.013   9.715
 1498POPC   PO421696   1.469  11.502   9.587
 1498POPC   GL121697   1.431  11.246   9.198
 1498POPC   GL221698   1.098  11.183   9.166
 1498POPC   C1A21699   1.509  11.340   8.762
 1498POPC   D2A21700   1.454  11.272   8.322
 1498POPC   C3A21701   1.345  11.412   7.900
 1498POPC   C4A21702   1.651  11.285   7.595
 1498POPC   C1B21703   0.999  11.477   8.826
 1498POPC   C2B21704   0.907  11.396   8.379
 1498POPC   C3B21705   1.043  11.038   8.141
 1498POPC   C4B21706   1.112  10.839   7.737
 1499POPC   NC321707  43.242   3.140   9.618
 1499POPC   PO421708  42.852   2.655   9.690
 1499POPC   GL121709  43.087   2.703   9.286
 1499POPC   GL221710  43.445   2.764   9.265
 1499POPC   C1A21711  43.044   2.880   8.864
 1499POPC   D2A21712  43.099   2.717   8.441
 1499POPC   C3A21713  42.960   2.920   8.053
 1499POPC   C4A21714  43.162   2.724   7.704
 1499POPC   C1B21715  43.553   2.774   8.829
 1499POPC   C2B21716  43.614   2.590   8.435
 1499POPC   C3B21717  43.489   2.839   8.094
 1499POPC   C4B21718  43.661   2.887   7.693
 1500POPC   NC321719  19.489  23.423   9.936
 1500POPC   PO421720  19.478  23.966   9.521
 1500POPC   GL121721  19.673  23.794   9.121
 1500POPC   GL221722  20.010  23.666   8.984
 1500POPC   C1A21723  19.584  23.591   8.736
 1500POPC   D2A21724  19.886  23.523   8.419
 1500POPC   C3A21725  19.667  23.623   8.063
 1500POPC   C4A21726  19.338  23.630   7.799
 1500POPC   C1B21727  19.917  24.032   8.726
 1500POPC   C2B21728  19.907  24.019   8.288
 1500POPC   C3B21729  20.119  23.847   7.923
 1500POPC   C4B21730  20.356  24.128   7.683
 1501POPC   NC321731  36.159  40.606   9.384
 1501POPC   PO421732  35.741  41.184   9.412
 1501POPC   GL121733  35.759  40.849   9.115
 1501POPC   GL221734  35.910  40.535   8.943
 1501POPC   C1A21735  35.864  40.980   8.718
 1501POPC   D2A21736  36.051  40.817   8.354
 1501POPC   C3A21737  36.006  40.967   7.950
 1501POPC   C4A21738  36.150  40.618   7.725
 1501POPC   C1B21739  36.324  40.778   8.790
 1501POPC   C2B21740  36.553  40.939   8.435
 1501POPC   C3B21741  36.507  40.961   7.988
 1501POPC   C4B21742  36.378  41.088   7.581
 1502POPC   NC321743   7.385  43.149   9.601
 1502POPC   PO421744   7.808  42.630   9.339
 1502POPC   GL121745   7.446  42.906   9.153
 1502POPC   GL221746   7.451  43.310   9.135
 1502POPC   C1A21747   7.189  43.038   8.806
 1502POPC   D2A21748   7.234  43.378   8.515
 1502POPC   C3A21749   7.078  43.225   8.151
 1502POPC   C4A21750   7.280  43.035   7.820
 1502POPC   C1B21751   7.538  43.621   8.847
 1502POPC   C2B21752   7.715  43.647   8.432
 1502POPC   C3B21753   7.558  43.404   8.108
 1502POPC   C4B21754   7.599  43.404   7.706
 1503POPC   NC321755  30.328   6.154   9.486
 1503POPC   PO421756  29.800   5.813   9.572
 1503POPC   GL121757  29.729   5.925   9.170
 1503POPC   GL221758  29.712   6.301   9.217
 1503POPC   C1A21759  29.848   5.690   8.804
 1503POPC   D2A21760  29.645   5.631   8.410
 1503POPC   C3A21761  29.847   5.764   8.057
 1503POPC   C4A21762  29.682   5.965   7.685
 1503POPC   C1B21763  30.026   6.255   8.889
 1503POPC   C2B21764  29.969   6.084   8.490
 1503POPC   C3B21765  29.983   6.250   8.105
 1503POPC   C4B21766  30.189   6.049   7.785
 1504POPC   NC321767   3.313  16.542   9.497
 1504POPC   PO421768   2.752  16.802   9.613
 1504POPC   GL121769   2.713  16.800   9.144
 1504POPC   GL221770   2.996  16.653   9.092
 1504POPC   C1A21771   2.572  16.671   8.731
 1504POPC   D2A21772   2.354  16.581   8.364
 1504POPC   C3A21773   2.577  16.801   8.061
 1504POPC   C4A21774   2.539  16.834   7.635
 1504POPC   C1B21775   3.081  16.794   8.703
 1504POPC   C2B21776   3.044  16.862   8.257
 1504POPC   C3B21777   3.031  16.821   7.804
 1504POPC   C4B21778   2.946  16.975   7.339
 1505POPC   NC321779  39.020  37.114   9.608
 1505POPC   PO421780  39.672  36.940   9.469
 1505POPC   GL121781  39.313  36.926   9.213
 1505POPC   GL221782  39.160  37.241   9.125
 1505POPC   C1A21783  39.176  36.796   8.820
 1505POPC   D2A21784  39.185  36.983   8.425
 1505POPC   C3A21785  39.219  36.717   8.059
 1505POPC   C4A21786  39.157  36.701   7.645
 1505POPC   C1B21787  39.513  37.261   8.816
 1505POPC   C2B21788  39.668  37.164   8.407
 1505POPC   C3B21789  39.413  37.200   8.016
 1505POPC   C4B21790  39.517  37.106   7.616
 1506POPC   NC321791  34.058  22.730   9.591
 1506POPC   PO421792  33.443  23.040   9.525
 1506POPC   GL121793  33.423  22.846   9.160
 1506POPC   GL221794  33.764  22.838   9.161
 1506POPC   C1A21795  33.363  22.951   8.731
 1506POPC   D2A21796  33.610  22.985   8.326
 1506POPC   C3A21797  33.461  22.973   7.900
 1506POPC   C4A21798  33.717  22.907   7.488
 1506POPC   C1B21799  33.897  22.887   8.761
 1506POPC   C2B21800  33.995  22.683   8.384
 1506POPC   C3B21801  33.775  22.565   8.040
 1506POPC   C4B21802  33.980  22.510   7.679
 1507POPC   NC321803  31.667  22.037   9.332
 1507POPC   PO421804  31.555  22.653   9.383
 1507POPC   GL121805  31.233  22.313   9.122
 1507POPC   GL221806  31.378  21.980   8.932
 1507POPC   C1A21807  30.947  22.131   8.735
 1507POPC   D2A21808  31.166  21.911   8.360
 1507POPC   C3A21809  31.352  22.188   8.016
 1507POPC   C4A21810  31.556  22.500   7.722
 1507POPC   C1B21811  31.732  21.792   8.668
 1507POPC   C2B21812  31.706  21.844   8.214
 1507POPC   C3B21813  31.863  22.107   7.895
 1507POPC   C4B21814  31.748  22.036   7.480
 1508POPC   NC321815  13.188  30.488   9.549
 1508POPC   PO421816  12.700  30.979   9.717
 1508POPC   GL121817  12.731  30.752   9.344
 1508POPC   GL221818  12.603  31.019   9.161
 1508POPC   C1A21819  12.990  30.683   8.960
 1508POPC   D2A21820  13.082  30.777   8.547
 1508POPC   C3A21821  12.878  30.577   8.190
 1508POPC   C4A21822  13.132  30.577   7.818
 1508POPC   C1B21823  12.496  30.735   8.823
 1508POPC   C2B21824  12.370  30.606   8.415
 1508POPC   C3B21825  12.400  30.762   7.998
 1508POPC   C4B21826  12.630  30.610   7.647
 1509POPC   NC321827   4.865  40.278   9.538
 1509POPC   PO421828   5.413  40.373   9.240
 1509POPC   GL121829   5.136  40.019   9.135
 1509POPC   GL221830   4.763  40.012   9.109
 1509POPC   C1A21831   5.218  39.837   8.732
 1509POPC   D2A21832   5.439  39.815   8.338
 1509POPC   C3A21833   5.255  39.913   7.962
 1509POPC   C4A21834   5.128  40.082   7.538
 1509POPC   C1B21835   4.708  39.804   8.713
 1509POPC   C2B21836   4.861  39.886   8.319
 1509POPC   C3B21837   4.763  40.113   7.953
 1509POPC   C4B21838   4.631  40.096   7.524
 1510POPC   NC321839  13.241   5.076   9.697
 1510POPC   PO421840  12.554   5.102   9.529
 1510POPC   GL121841  12.727   4.871   9.178
 1510POPC   GL221842  12.925   5.098   9.130
 1510POPC   C1A21843  12.920   4.781   8.734
 1510POPC   D2A21844  12.778   4.903   8.353
 1510POPC   C3A21845  12.928   4.780   7.943
 1510POPC   C4A21846  12.800   4.946   7.557
 1510POPC   C1B21847  12.874   5.297   8.753
 1510POPC   C2B21848  13.046   5.438   8.392
 1510POPC   C3B21849  12.921   5.276   8.021
 1510POPC   C4B21850  12.937   5.418   7.638
 1511POPC   NC321851   1.057  15.671   9.639
 1511POPC   PO421852   1.038  16.352   9.530
 1511POPC   GL121853   1.214  16.032   9.260
 1511POPC   GL221854   1.514  16.147   9.137
 1511POPC   C1A21855   1.187  15.882   8.817
 1511POPC   D2A21856   0.893  15.830   8.479
 1511POPC   C3A21857   0.944  15.867   8.029
 1511POPC   C4A21858   0.947  15.509   7.758
 1511POPC   C1B21859   1.702  16.020   8.783
 1511POPC   C2B21860   1.509  15.975   8.378
 1511POPC   C3B21861   1.642  15.847   7.964
 1511POPC   C4B21862   1.625  16.188   7.598
 1512POPC   NC321863   3.619  31.279   9.583
 1512POPC   PO421864   2.997  31.131   9.342
 1512POPC   GL121865   3.432  31.302   9.102
 1512POPC   GL221866   3.697  31.562   9.152
 1512POPC   C1A21867   3.792  31.310   8.734
 1512POPC   D2A21868   3.694  31.153   8.299
 1512POPC   C3A21869   3.753  31.387   7.888
 1512POPC   C4A21870   3.593  31.322   7.451
 1512POPC   C1B21871   3.663  31.787   8.784
 1512POPC   C2B21872   3.683  31.709   8.369
 1512POPC   C3B21873   3.528  31.850   7.985
 1512POPC   C4B21874   3.563  31.815   7.562
 1513POPC   NC321875  35.151  10.687   9.578
 1513POPC   PO421876  35.835  11.027   9.512
 1513POPC   GL121877  35.493  10.844   9.203
 1513POPC   GL221878  35.553  10.500   9.119
 1513POPC   C1A21879  35.141  10.710   8.892
 1513POPC   D2A21880  35.170  10.546   8.454
 1513POPC   C3A21881  34.941  10.505   8.072
 1513POPC   C4A21882  35.015  10.408   7.622
 1513POPC   C1B21883  35.814  10.401   8.775
 1513POPC   C2B21884  35.684  10.552   8.383
 1513POPC   C3B21885  35.464  10.506   7.988
 1513POPC   C4B21886  35.641  10.480   7.587
 1514POPC   NC321887  12.998  16.647   9.645
 1514POPC   PO421888  12.353  16.536   9.568
 1514POPC   GL121889  12.659  16.675   9.243
 1514POPC   GL221890  12.954  16.891   9.167
 1514POPC   C1A21891  12.728  16.651   8.793
 1514POPC   D2A21892  12.447  16.704   8.491
 1514POPC   C3A21893  12.625  16.569   8.098
 1514POPC   C4A21894  12.706  16.802   7.727
 1514POPC   C1B21895  12.909  17.170   8.791
 1514POPC   C2B21896  12.880  16.973   8.378
 1514POPC   C3B21897  13.117  16.891   8.025
 1514POPC   C4B21898  13.079  17.184   7.704
 1515POPC   NC321899   6.589  41.024   9.455
 1515POPC   PO421900   6.211  41.630   9.675
 1515POPC   GL121901   6.307  41.423   9.296
 1515POPC   GL221902   6.575  41.576   9.091
 1515POPC   C1A21903   6.249  41.301   8.861
 1515POPC   D2A21904   6.419  41.417   8.450
 1515POPC   C3A21905   6.279  41.310   8.026
 1515POPC   C4A21906   6.551  41.314   7.665
 1515POPC   C1B21907   6.822  41.646   8.749
 1515POPC   C2B21908   6.828  41.823   8.343
 1515POPC   C3B21909   6.867  41.661   7.939
 1515POPC   C4B21910   6.841  41.701   7.495
 1516POPC   NC321911  41.074  13.239   9.302
 1516POPC   PO421912  40.506  13.492   9.539
 1516POPC   GL121913  40.568  13.617   9.110
 1516POPC   GL221914  40.392  13.952   9.073
 1516POPC   C1A21915  40.848  13.547   8.744
 1516POPC   D2A21916  40.790  13.647   8.293
 1516POPC   C3A21917  41.017  13.783   7.924
 1516POPC   C4A21918  40.983  13.369   7.711
 1516POPC   C1B21919  40.381  13.761   8.631
 1516POPC   C2B21920  40.361  13.869   8.160
 1516POPC   C3B21921  40.549  13.629   7.791
 1516POPC   C4B21922  40.671  13.690   7.371
 1517POPC   NC321923  36.342   6.685   9.609
 1517POPC   PO421924  35.793   6.320   9.516
 1517POPC   GL121925  36.124   6.423   9.177
 1517POPC   GL221926  36.319   6.776   9.100
 1517POPC   C1A21927  36.049   6.534   8.746
 1517POPC   D2A21928  36.141   6.448   8.331
 1517POPC   C3A21929  35.783   6.543   8.122
 1517POPC   C4A21930  35.732   6.393   7.713
 1517POPC   C1B21931  36.442   6.839   8.638
 1517POPC   C2B21932  36.231   6.946   8.225
 1517POPC   C3B21933  36.165   6.723   7.816
 1517POPC   C4B21934  36.355   6.813   7.333
 1518POPC   NC321935   0.240  35.980   9.416
 1518POPC   PO421936   0.625  36.495   9.602
 1518POPC   GL121937   0.481  36.343   9.149
 1518POPC   GL221938   0.547  35.999   8.995
 1518POPC   C1A21939   0.281  36.235   8.668
 1518POPC   D2A21940   0.279  35.910   8.319
 1518POPC   C3A21941   0.193  36.150   7.944
 1518POPC   C4A21942   0.267  36.150   7.486
 1518POPC   C1B21943   0.801  36.313   8.784
 1518POPC   C2B21944   0.736  36.135   8.405
 1518POPC   C3B21945   0.941  35.911   8.107
 1518POPC   C4B21946   0.856  36.133   7.756
 1519POPC   NC321947  14.690  27.929   9.458
 1519POPC   PO421948  14.042  28.108   9.568
 1519POPC   GL121949  14.282  28.347   9.247
 1519POPC   GL221950  14.632  28.474   9.288
 1519POPC   C1A21951  14.299  28.427   8.814
 1519POPC   D2A21952  14.142  28.458   8.383
 1519POPC   C3A21953  14.278  28.208   8.056
 1519POPC   C4A21954  14.072  28.317   7.685
 1519POPC   C1B21955  14.800  28.470   8.875
 1519POPC   C2B21956  14.665  28.353   8.463
 1519POPC   C3B21957  14.757  28.446   8.046
 1519POPC   C4B21958  14.896  28.173   7.738
 1520POPC   NC321959  23.118  17.117   9.564
 1520POPC   PO421960  22.714  16.574   9.549
 1520POPC   GL121961  23.033  16.602   9.194
 1520POPC   GL221962  23.047  16.956   9.092
 1520POPC   C1A21963  22.972  16.601   8.713
 1520POPC   D2A21964  22.701  16.564   8.333
 1520POPC   C3A21965  22.861  16.554   7.926
 1520POPC   C4A21966  22.781  16.292   7.550
 1520POPC   C1B21967  23.157  17.077   8.677
 1520POPC   C2B21968  23.045  16.947   8.259
 1520POPC   C3B21969  22.995  17.043   7.823
 1520POPC   C4B21970  22.999  17.159   7.359
 1521POPC   NC321971  31.200   7.966   9.650
 1521POPC   PO421972  30.587   8.289   9.576
 1521POPC   GL121973  30.672   8.132   9.178
 1521POPC   GL221974  30.870   7.845   9.247
 1521POPC   C1A21975  30.634   8.326   8.770
 1521POPC   D2A21976  30.617   8.523   8.376
 1521POPC   C3A21977  30.510   8.235   8.116
 1521POPC   C4A21978  30.724   8.129   7.777
 1521POPC   C1B21979  30.971   7.893   8.826
 1521POPC   C2B21980  30.886   8.061   8.435
 1521POPC   C3B21981  31.036   7.898   8.103
 1521POPC   C4B21982  31.198   8.002   7.721
 1522POPC   NC321983  24.267   4.358   9.832
 1522POPC   PO421984  24.681   3.900   9.550
 1522POPC   GL121985  24.420   4.121   9.170
 1522POPC   GL221986  24.721   4.205   8.896
 1522POPC   C1A21987  24.330   4.504   8.884
 1522POPC   D2A21988  24.382   4.272   8.482
 1522POPC   C3A21989  24.483   4.071   8.082
 1522POPC   C4A21990  24.275   4.057   7.659
 1522POPC   C1B21991  24.782   4.667   8.721
 1522POPC   C2B21992  24.557   4.733   8.324
 1522POPC   C3B21993  24.462   4.555   7.920
 1522POPC   C4B21994  24.772   4.774   7.664
 1523POPC   NC321995   8.526  33.691   9.700
 1523POPC   PO421996   7.931  34.086   9.856
 1523POPC   GL121997   8.008  33.834   9.377
 1523POPC   GL221998   8.308  33.685   9.214
 1523POPC   C1A21999   7.951  33.804   8.878
 1523POPC   D2A22000   8.222  33.773   8.448
 1523POPC   C3A22001   8.090  33.712   7.986
 1523POPC   C4A22002   7.881  33.827   7.576
 1523POPC   C1B22003   8.572  33.688   8.818
 1523POPC   C2B22004   8.682  33.485   8.448
 1523POPC   C3B22005   8.483  33.411   8.060
 1523POPC   C4B22006   8.485  33.727   7.672
 1524POPC   NC322007   2.362  10.310   9.805
 1524POPC   PO422008   1.774  10.605   9.500
 1524POPC   GL122009   1.795  10.623   9.066
 1524POPC   GL222010   1.853  10.943   8.914
 1524POPC   C1A22011   1.975  10.414   8.709
 1524POPC   D2A22012   1.811  10.334   8.298
 1524POPC   C3A22013   2.064  10.265   7.932
 1524POPC   C4A22014   1.786  10.288   7.589
 1524POPC   C1B22015   2.254  10.850   8.709
 1524POPC   C2B22016   2.253  10.695   8.312
 1524POPC   C3B22017   1.994  10.769   7.963
 1524POPC   C4B22018   2.236  10.692   7.603
 1525POPC   NC322019  42.409   2.645   9.513
 1525POPC   PO422020  42.284   3.299   9.451
 1525POPC   GL122021  42.350   3.021   9.128
 1525POPC   GL222022  42.071   2.830   9.156
 1525POPC   C1A22023  42.324   2.908   8.702
 1525POPC   D2A22024  42.528   2.719   8.360
 1525POPC   C3A22025  42.381   2.840   7.959
 1525POPC   C4A22026  42.656   2.615   7.703
 1525POPC   C1B22027  41.866   2.623   8.815
 1525POPC   C2B22028  42.004   2.655   8.395
 1525POPC   C3B22029  42.011   2.477   8.026
 1525POPC   C4B22030  42.123   2.529   7.583
 1526POPC   NC322031  44.031  22.682   9.552
 1526POPC   PO422032  43.527  23.079   9.369
 1526POPC   GL122033  43.876  22.958   9.118
 1526POPC   GL222034  44.068  23.223   9.145
 1526POPC   C1A22035  44.037  22.854   8.683
 1526POPC   D2A22036  43.877  22.618   8.314
 1526POPC   C3A22037  43.824  22.875   7.949
 1526POPC   C4A22038  43.584  23.025   7.618
 1526POPC   C1B22039  44.182  23.348   8.732
 1526POPC   C2B22040  43.999  23.241   8.320
 1526POPC   C3B22041  43.859  23.387   7.905
 1526POPC   C4B22042  44.131  23.306   7.554
 1527POPC   NC322043  33.690   2.801   9.516
 1527POPC   PO422044  34.260   2.530   9.742
 1527POPC   GL122045  34.099   2.765   9.246
 1527POPC   GL222046  33.871   2.988   9.069
 1527POPC   C1A22047  34.018   2.581   8.801
 1527POPC   D2A22048  33.885   2.771   8.457
 1527POPC   C3A22049  34.079   2.754   8.070
 1527POPC   C4A22050  33.926   2.969   7.726
 1527POPC   C1B22051  33.520   2.760   8.851
 1527POPC   C2B22052  33.371   2.774   8.434
 1527POPC   C3B22053  33.554   2.712   8.029
 1527POPC   C4B22054  33.482   2.718   7.578
 1528POPC   NC322055  32.722   9.598   9.528
 1528POPC   PO422056  33.080  10.198   9.451
 1528POPC   GL122057  32.867   9.929   9.173
 1528POPC   GL222058  33.085   9.607   9.130
 1528POPC   C1A22059  32.839   9.858   8.759
 1528POPC   D2A22060  33.098   9.623   8.453
 1528POPC   C3A22061  33.112   9.813   8.078
 1528POPC   C4A22062  32.832   9.794   7.734
 1528POPC   C1B22063  33.319   9.310   8.801
 1528POPC   C2B22064  33.307   9.141   8.388
 1528POPC   C3B22065  33.368   9.358   8.011
 1528POPC   C4B22066  33.318   9.627   7.645
 1529POPC   NC322067  41.522  24.022   9.563
 1529POPC   PO422068  41.482  23.454   9.462
 1529POPC   GL122069  41.573  23.754   9.118
 1529POPC   GL222070  41.305  24.059   9.115
 1529POPC   C1A22071  41.681  23.715   8.659
 1529POPC   D2A22072  41.645  23.486   8.269
 1529POPC   C3A22073  41.660  23.713   7.875
 1529POPC   C4A22074  42.013  23.964   7.741
 1529POPC   C1B22075  41.199  23.806   8.772
 1529POPC   C2B22076  41.306  23.900   8.340
 1529POPC   C3B22077  41.211  23.954   7.911
 1529POPC   C4B22078  41.233  23.747   7.547
 1530POPC   NC322079  41.023  29.646   9.378
 1530POPC   PO422080  40.524  30.083   9.460
 1530POPC   GL122081  40.782  30.040   9.106
 1530POPC   GL222082  40.719  29.707   8.947
 1530POPC   C1A22083  40.692  30.177   8.711
 1530POPC   D2A22084  40.563  29.843   8.427
 1530POPC   C3A22085  40.613  29.876   7.986
 1530POPC   C4A22086  40.586  30.140   7.610
 1530POPC   C1B22087  41.027  29.749   8.599
 1530POPC   C2B22088  41.040  30.114   8.354
 1530POPC   C3B22089  40.984  30.224   7.961
 1530POPC   C4B22090  41.032  29.879   7.666
 1531POPC   NC322091  35.902   3.923   9.430
 1531POPC   PO422092  36.314   3.438   9.605
 1531POPC   GL122093  36.216   3.288   9.154
 1531POPC   GL222094  36.084   3.579   9.116
 1531POPC   C1A22095  36.260   3.370   8.699
 1531POPC   D2A22096  35.950   3.458   8.374
 1531POPC   C3A22097  36.021   3.402   7.945
 1531POPC   C4A22098  35.975   3.430   7.482
 1531POPC   C1B22099  35.994   3.814   8.754
 1531POPC   C2B22100  36.249   3.869   8.401
 1531POPC   C3B22101  36.200   3.907   7.980
 1531POPC   C4B22102  36.401   3.666   7.704
 1532POPC   NC322103  28.778  34.484   9.413
 1532POPC   PO422104  28.260  34.869   9.629
 1532POPC   GL122105  28.462  34.921   9.205
 1532POPC   GL222106  28.117  34.825   9.123
 1532POPC   C1A22107  28.604  34.732   8.769
 1532POPC   D2A22108  28.340  34.494   8.437
 1532POPC   C3A22109  28.437  34.460   7.985
 1532POPC   C4A22110  28.781  34.256   7.808
 1532POPC   C1B22111  28.174  35.001   8.735
 1532POPC   C2B22112  28.333  34.980   8.297
 1532POPC   C3B22113  28.092  34.829   7.909
 1532POPC   C4B22114  28.087  34.770   7.423
 1533POPC   NC322115  43.751  15.765   9.585
 1533POPC   PO422116  44.216  16.297   9.532
 1533POPC   GL122117  43.869  16.269   9.215
 1533POPC   GL222118  43.692  15.928   9.116
 1533POPC   C1A22119  43.974  16.164   8.775
 1533POPC   D2A22120  43.896  15.840   8.446
 1533POPC   C3A22121  43.898  16.062   8.067
 1533POPC   C4A22122  44.018  15.974   7.653
 1533POPC   C1B22123  43.485  15.987   8.727
 1533POPC   C2B22124  43.383  15.816   8.325
 1533POPC   C3B22125  43.562  15.708   7.924
 1533POPC   C4B22126  43.522  16.113   7.716
 1534POPC   NC322127   9.546  26.926   9.830
 1534POPC   PO422128   9.877  26.509   9.384
 1534POPC   GL122129   9.675  26.714   9.091
 1534POPC   GL222130   9.872  27.003   8.962
 1534POPC   C1A22131   9.544  26.730   8.693
 1534POPC   D2A22132   9.694  26.981   8.368
 1534POPC   C3A22133   9.513  26.858   7.984
 1534POPC   C4A22134   9.617  26.766   7.574
 1534POPC   C1B22135  10.049  26.690   8.679
 1534POPC   C2B22136  10.050  26.606   8.220
 1534POPC   C3B22137  10.021  26.902   7.864
 1534POPC   C4B22138  10.060  26.863   7.360
 1535POPC   NC322139   2.085   3.406   9.480
 1535POPC   PO422140   1.820   3.972   9.564
 1535POPC   GL122141   1.693   3.800   9.172
 1535POPC   GL222142   1.592   3.426   9.201
 1535POPC   C1A22143   2.004   3.722   8.823
 1535POPC   D2A22144   2.132   3.908   8.417
 1535POPC   C3A22145   2.257   3.559   8.213
 1535POPC   C4A22146   2.141   3.368   7.845
 1535POPC   C1B22147   1.527   3.543   8.752
 1535POPC   C2B22148   1.735   3.489   8.352
 1535POPC   C3B22149   1.726   3.638   7.926
 1535POPC   C4B22150   1.774   3.409   7.483
 1536POPC   NC322151   1.431  34.817   9.412
 1536POPC   PO422152   1.033  34.340   9.595
 1536POPC   GL122153   1.166  34.378   9.197
 1536POPC   GL222154   1.534  34.340   9.196
 1536POPC   C1A22155   0.974  34.545   8.798
 1536POPC   D2A22156   0.755  34.541   8.374
 1536POPC   C3A22157   0.977  34.590   7.971
 1536POPC   C4A22158   0.945  34.329   7.583
 1536POPC   C1B22159   1.475  34.577   8.805
 1536POPC   C2B22160   1.504  34.699   8.378
 1536POPC   C3B22161   1.481  34.629   7.930
 1536POPC   C4B22162   1.331  34.905   7.611
 1537POPC   NC322163  14.877  32.925   9.676
 1537POPC   PO422164  14.169  32.975   9.659
 1537POPC   GL122165  14.317  32.932   9.237
 1537POPC   GL222166  14.412  33.255   9.211
 1537POPC   C1A22167  14.257  32.887   8.768
 1537POPC   D2A22168  14.130  32.814   8.318
 1537POPC   C3A22169  14.346  32.818   7.907
 1537POPC   C4A22170  14.277  32.717   7.428
 1537POPC   C1B22171  14.219  33.383   8.846
 1537POPC   C2B22172  14.364  33.278   8.412
 1537POPC   C3B22173  14.263  33.327   7.978
 1537POPC   C4B22174  14.103  33.172   7.608
 1538POPC   NC322175  34.340   4.692   9.500
 1538POPC   PO422176  34.804   4.298   9.496
 1538POPC   GL122177  34.564   4.407   9.126
 1538POPC   GL222178  34.279   4.181   9.166
 1538POPC   C1A22179  34.511   4.456   8.682
 1538POPC   D2A22180  34.399   4.243   8.284
 1538POPC   C3A22181  34.453   4.351   7.815
 1538POPC   C4A22182  34.451   4.504   7.366
 1538POPC   C1B22183  34.324   3.967   8.753
 1538POPC   C2B22184  34.153   3.753   8.387
 1538POPC   C3B22185  34.101   3.946   7.988
 1538POPC   C4B22186  34.364   3.842   7.678
 1539POPC   NC322187  35.473  20.277   9.705
 1539POPC   PO422188  35.412  19.562   9.572
 1539POPC   GL122189  35.534  19.682   9.139
 1539POPC   GL222190  35.217  19.824   8.979
 1539POPC   C1A22191  35.663  19.868   8.733
 1539POPC   D2A22192  35.432  19.899   8.354
 1539POPC   C3A22193  35.657  19.861   7.988
 1539POPC   C4A22194  35.495  19.890   7.584
 1539POPC   C1B22195  35.292  19.516   8.697
 1539POPC   C2B22196  35.230  19.403   8.308
 1539POPC   C3B22197  35.212  19.600   7.917
 1539POPC   C4B22198  35.208  19.487   7.492
 1540POPC   NC322199  31.480  28.687   9.755
 1540POPC   PO422200  31.224  28.138   9.437
 1540POPC   GL122201  31.208  28.356   9.078
 1540POPC   GL222202  31.510  28.498   9.129
 1540POPC   C1A22203  31.306  28.374   8.631
 1540POPC   D2A22204  31.699  28.267   8.374
 1540POPC   C3A22205  31.562  28.219   7.972
 1540POPC   C4A22206  31.154  28.199   7.820
 1540POPC   C1B22207  31.801  28.509   8.808
 1540POPC   C2B22208  32.021  28.710   8.441
 1540POPC   C3B22209  31.911  28.888   8.037
 1540POPC   C4B22210  31.633  28.693   7.771
 1541POPC   NC322211  24.745  12.277   9.459
 1541POPC   PO422212  24.209  11.932   9.250
 1541POPC   GL122213  24.569  12.049   9.043
 1541POPC   GL222214  24.905  11.874   9.145
 1541POPC   C1A22215  24.673  12.290   8.670
 1541POPC   D2A22216  24.626  12.415   8.223
 1541POPC   C3A22217  24.395  12.173   7.877
 1541POPC   C4A22218  24.096  11.800   7.827
 1541POPC   C1B22219  24.755  11.753   8.701
 1541POPC   C2B22220  24.534  11.909   8.329
 1541POPC   C3B22221  24.601  11.732   7.913
 1541POPC   C4B22222  24.742  11.739   7.490
 1542POPC   NC322223  17.071  38.001   9.485
 1542POPC   PO422224  16.753  38.447   9.849
 1542POPC   GL122225  16.615  38.424   9.337
 1542POPC   GL222226  16.493  38.132   9.149
 1542POPC   C1A22227  16.677  38.546   8.887
 1542POPC   D2A22228  16.505  38.579   8.450
 1542POPC   C3A22229  16.792  38.527   8.120
 1542POPC   C4A22230  16.745  38.651   7.710
 1542POPC   C1B22231  16.517  38.069   8.709
 1542POPC   C2B22232  16.577  38.080   8.270
 1542POPC   C3B22233  16.542  38.141   7.822
 1542POPC   C4B22234  16.916  38.162   7.734
 1543POPC   NC322235  10.783   4.539   9.539
 1543POPC   PO422236  10.399   3.996   9.638
 1543POPC   GL122237  10.424   4.236   9.280
 1543POPC   GL222238  10.741   4.106   9.190
 1543POPC   C1A22239  10.439   4.329   8.836
 1543POPC   D2A22240  10.483   4.579   8.462
 1543POPC   C3A22241  10.538   4.394   8.055
 1543POPC   C4A22242  10.303   4.404   7.689
 1543POPC   C1B22243  10.804   3.990   8.744
 1543POPC   C2B22244  10.872   4.099   8.312
 1543POPC   C3B22245  10.917   3.956   7.883
 1543POPC   C4B22246  10.997   3.953   7.413
 1544POPC   NC322247  19.909   3.273   9.568
 1544POPC   PO422248  19.426   3.834   9.551
 1544POPC   GL122249  19.729   3.654   9.261
 1544POPC   GL222250  19.638   3.350   9.157
 1544POPC   C1A22251  19.797   3.676   8.798
 1544POPC   D2A22252  19.722   3.924   8.419
 1544POPC   C3A22253  19.799   3.649   8.062
 1544POPC   C4A22254  19.549   3.598   7.686
 1544POPC   C1B22255  20.017   3.210   8.893
 1544POPC   C2B22256  20.190   3.146   8.488
 1544POPC   C3B22257  20.066   3.204   8.076
 1544POPC   C4B22258  20.008   3.362   7.663
 1545POPC   NC322259  15.281  16.195   9.380
 1545POPC   PO422260  15.192  16.825   9.565
 1545POPC   GL122261  15.102  16.732   9.171
 1545POPC   GL222262  15.388  16.905   9.076
 1545POPC   C1A22263  14.937  16.961   8.812
 1545POPC   D2A22264  15.072  17.079   8.366
 1545POPC   C3A22265  14.935  16.858   7.961
 1545POPC   C4A22266  15.086  16.660   7.569
 1545POPC   C1B22267  15.319  16.650   8.666
 1545POPC   C2B22268  15.301  16.598   8.206
 1545POPC   C3B22269  15.538  16.583   7.799
 1545POPC   C4B22270  15.511  16.538   7.324
 1546POPC   NC322271   1.582   8.328   9.833
 1546POPC   PO422272   2.249   8.431   9.582
 1546POPC   GL122273   2.232   8.463   9.137
 1546POPC   GL222274   1.923   8.226   9.125
 1546POPC   C1A22275   2.141   8.408   8.695
 1546POPC   D2A22276   2.051   8.193   8.314
 1546POPC   C3A22277   2.269   8.241   7.933
 1546POPC   C4A22278   2.040   8.278   7.539
 1546POPC   C1B22279   1.659   8.109   8.760
 1546POPC   C2B22280   1.574   8.029   8.334
 1546POPC   C3B22281   1.771   7.990   7.879
 1546POPC   C4B22282   1.785   7.869   7.390
 1547POPC   NC322283  22.097  22.312   9.701
 1547POPC   PO422284  21.680  21.780   9.587
 1547POPC   GL122285  21.976  22.099   9.266
 1547POPC   GL222286  22.073  22.432   9.210
 1547POPC   C1A22287  22.262  22.027   8.884
 1547POPC   D2A22288  22.153  21.968   8.428
 1547POPC   C3A22289  22.331  21.874   8.016
 1547POPC   C4A22290  22.172  21.912   7.602
 1547POPC   C1B22291  21.928  22.408   8.798
 1547POPC   C2B22292  22.069  22.476   8.389
 1547POPC   C3B22293  22.069  22.312   7.958
 1547POPC   C4B22294  21.794  22.277   7.595
 1548POPC   NC322295   4.447  14.104   9.596
 1548POPC   PO422296   4.123  14.644   9.865
 1548POPC   GL122297   4.140  14.555   9.392
 1548POPC   GL222298   4.102  14.237   9.194
 1548POPC   C1A22299   4.366  14.676   9.019
 1548POPC   D2A22300   4.266  14.668   8.569
 1548POPC   C3A22301   4.385  14.641   8.106
 1548POPC   C4A22302   4.244  14.708   7.648
 1548POPC   C1B22303   4.492  14.192   8.924
 1548POPC   C2B22304   4.624  14.324   8.507
 1548POPC   C3B22305   4.522  14.133   8.128
 1548POPC   C4B22306   4.485  14.284   7.731
 1549POPC   NC322307   6.770  40.253   9.465
 1549POPC   PO422308   6.256  40.697   9.384
 1549POPC   GL122309   6.487  40.703   9.029
 1549POPC   GL222310   6.598  40.391   9.012
 1549POPC   C1A22311   6.497  40.632   8.570
 1549POPC   D2A22312   6.484  40.914   8.256
 1549POPC   C3A22313   6.485  40.805   7.826
 1549POPC   C4A22314   6.418  40.424   7.598
 1549POPC   C1B22315   6.955  40.550   8.748
 1549POPC   C2B22316   7.004  40.650   8.319
 1549POPC   C3B22317   6.887  40.480   7.910
 1549POPC   C4B22318   6.886  40.503   7.445
 1550POPC   NC322319  11.559  35.064   9.347
 1550POPC   PO422320  11.117  35.551   9.411
 1550POPC   GL122321  11.335  35.442   9.074
 1550POPC   GL222322  11.660  35.559   9.145
 1550POPC   C1A22323  11.181  35.251   8.716
 1550POPC   D2A22324  10.931  35.282   8.375
 1550POPC   C3A22325  11.211  35.288   8.076
 1550POPC   C4A22326  11.286  35.301   7.668
 1550POPC   C1B22327  11.804  35.458   8.732
 1550POPC   C2B22328  11.622  35.201   8.415
 1550POPC   C3B22329  11.672  35.124   7.989
 1550POPC   C4B22330  11.776  35.408   7.651
 1551POPC   NC322331   8.580  43.860   9.556
 1551POPC   PO422332   9.176  43.684   9.714
 1551POPC   GL122333   9.094  43.813   9.279
 1551POPC   GL222334   8.886  44.131   9.218
 1551POPC   C1A22335   9.084  43.875   8.815
 1551POPC   D2A22336   9.178  44.109   8.422
 1551POPC   C3A22337   9.050  43.874   8.039
 1551POPC   C4A22338   9.167  44.048   7.657
 1551POPC   C1B22339   8.585  43.957   8.896
 1551POPC   C2B22340   8.675  43.925   8.451
 1551POPC   C3B22341   8.542  44.037   8.051
 1551POPC   C4B22342   8.670  44.035   7.647
 1552POPC   NC322343  12.536  25.955   9.385
 1552POPC   PO422344  13.110  26.121   9.508
 1552POPC   GL122345  12.969  26.253   9.090
 1552POPC   GL222346  12.648  26.459   9.086
 1552POPC   C1A22347  12.968  26.019   8.696
 1552POPC   D2A22348  12.928  25.799   8.326
 1552POPC   C3A22349  13.027  26.001   7.955
 1552POPC   C4A22350  12.893  25.856   7.523
 1552POPC   C1B22351  12.605  26.349   8.637
 1552POPC   C2B22352  12.624  26.225   8.200
 1552POPC   C3B22353  12.622  26.260   7.735
 1552POPC   C4B22354  12.409  26.411   7.350
 1553POPC   NC322355  13.897   3.313   9.680
 1553POPC   PO422356  13.686   3.911   9.737
 1553POPC   GL122357  13.635   3.651   9.344
 1553POPC   GL222358  13.319   3.687   9.149
 1553POPC   C1A22359  13.739   3.462   8.921
 1553POPC   D2A22360  13.716   3.187   8.565
 1553POPC   C3A22361  13.692   3.449   8.208
 1553POPC   C4A22362  13.676   3.377   7.761
 1553POPC   C1B22363  13.469   3.842   8.712
 1553POPC   C2B22364  13.486   3.965   8.258
 1553POPC   C3B22365  13.788   3.870   7.912
 1553POPC   C4B22366  14.129   3.917   7.623
 1554POPC   NC322367  32.775   2.985   9.391
 1554POPC   PO422368  33.295   2.503   9.481
 1554POPC   GL122369  33.029   2.614   9.137
 1554POPC   GL222370  32.684   2.512   9.205
 1554POPC   C1A22371  32.987   2.886   8.773
 1554POPC   D2A22372  32.843   3.050   8.398
 1554POPC   C3A22373  33.044   2.857   8.051
 1554POPC   C4A22374  32.935   2.779   7.658
 1554POPC   C1B22375  32.635   2.492   8.764
 1554POPC   C2B22376  32.759   2.537   8.336
 1554POPC   C3B22377  32.656   2.404   7.900
 1554POPC   C4B22378  32.613   2.444   7.429
 1555POPC   NC322379  26.998  44.243   9.218
 1555POPC   PO422380  26.725  44.730   9.612
 1555POPC   GL122381  26.872  44.754   9.168
 1555POPC   GL222382  27.202  44.859   9.056
 1555POPC   C1A22383  26.698  44.810   8.739
 1555POPC   D2A22384  26.722  44.440   8.399
 1555POPC   C3A22385  26.689  44.622   7.961
 1555POPC   C4A22386  26.420  44.860   7.682
 1555POPC   C1B22387  27.167  44.680   8.681
 1555POPC   C2B22388  27.041  44.813   8.290
 1555POPC   C3B22389  27.146  44.776   7.853
 1555POPC   C4B22390  27.175  44.487   7.497
 1556POPC   NC322391  42.320  34.986   9.482
 1556POPC   PO422392  42.585  35.594   9.623
 1556POPC   GL122393  42.444  35.398   9.187
 1556POPC   GL222394  42.069  35.318   9.163
 1556POPC   C1A22395  42.354  35.162   8.763
 1556POPC   D2A22396  42.232  35.262   8.307
 1556POPC   C3A22397  42.492  35.447   7.985
 1556POPC   C4A22398  42.714  35.274   7.657
 1556POPC   C1B22399  41.931  35.477   8.745
 1556POPC   C2B22400  41.695  35.673   8.392
 1556POPC   C3B22401  41.682  35.499   7.993
 1556POPC   C4B22402  42.013  35.232   7.808
 1557POPC   NC322403   5.621  20.698   9.504
 1557POPC   PO422404   6.211  20.365   9.386
 1557POPC   GL122405   6.077  20.658   9.069
 1557POPC   GL222406   5.776  20.562   9.057
 1557POPC   C1A22407   5.978  20.894   8.692
 1557POPC   D2A22408   5.711  20.886   8.319
 1557POPC   C3A22409   5.943  20.706   8.023
 1557POPC   C4A22410   6.293  20.526   7.854
 1557POPC   C1B22411   5.553  20.592   8.711
 1557POPC   C2B22412   5.609  20.368   8.322
 1557POPC   C3B22413   5.462  20.544   7.946
 1557POPC   C4B22414   5.504  20.937   7.827
 1558POPC   NC322415  38.582  20.517   9.613
 1558POPC   PO422416  37.946  20.693   9.440
 1558POPC   GL122417  38.349  20.461   9.173
 1558POPC   GL222418  38.699  20.218   9.194
 1558POPC   C1A22419  38.673  20.573   8.836
 1558POPC   D2A22420  38.769  20.855   8.505
 1558POPC   C3A22421  38.615  20.757   8.110
 1558POPC   C4A22422  38.264  20.827   7.859
 1558POPC   C1B22423  38.928  20.121   8.796
 1558POPC   C2B22424  38.789  20.283   8.391
 1558POPC   C3B22425  38.788  20.291   7.963
 1558POPC   C4B22426  38.424  20.355   7.766
 1559POPC   NC322427  12.025  15.446   9.522
 1559POPC   PO422428  12.177  14.839   9.552
 1559POPC   GL122429  12.007  15.058   9.162
 1559POPC   GL222430  11.799  15.355   9.092
 1559POPC   C1A22431  12.091  15.176   8.703
 1559POPC   D2A22432  12.302  15.379   8.311
 1559POPC   C3A22433  12.308  15.131   7.929
 1559POPC   C4A22434  12.283  14.867   7.565
 1559POPC   C1B22435  11.762  15.582   8.774
 1559POPC   C2B22436  11.610  15.447   8.408
 1559POPC   C3B22437  11.832  15.364   8.024
 1559POPC   C4B22438  11.750  14.972   7.820
 1560POPC   NC322439   0.869  34.861   9.761
 1560POPC   PO422440   0.351  34.422   9.525
 1560POPC   GL122441   0.662  34.545   9.219
 1560POPC   GL222442   0.922  34.834   9.243
 1560POPC   C1A22443   0.467  34.525   8.814
 1560POPC   D2A22444   0.264  34.307   8.484
 1560POPC   C3A22445   0.267  34.571   8.145
 1560POPC   C4A22446   0.544  34.330   7.925
 1560POPC   C1B22447   0.677  35.008   8.892
 1560POPC   C2B22448   0.469  34.930   8.513
 1560POPC   C3B22449   0.601  34.983   8.129
 1560POPC   C4B22450   0.544  34.805   7.761
 1561POPC   NC322451  32.404  34.256   9.541
 1561POPC   PO422452  32.138  34.852   9.768
 1561POPC   GL122453  32.359  34.721   9.316
 1561POPC   GL222454  32.135  34.444   9.158
 1561POPC   C1A22455  32.473  34.594   8.840
 1561POPC   D2A22456  32.358  34.489   8.387
 1561POPC   C3A22457  32.505  34.727   8.032
 1561POPC   C4A22458  32.403  34.658   7.591
 1561POPC   C1B22459  31.966  34.542   8.707
 1561POPC   C2B22460  31.892  34.719   8.294
 1561POPC   C3B22461  32.029  34.526   7.936
 1561POPC   C4B22462  31.919  34.494   7.506
 1562POPC   NC322463  39.757  17.936   9.148
 1562POPC   PO422464  40.285  18.286   9.436
 1562POPC   GL122465  40.019  18.376   9.071
 1562POPC   GL222466  40.263  18.191   8.917
 1562POPC   C1A22467  39.606  18.474   8.792
 1562POPC   D2A22468  39.562  18.683   8.407
 1562POPC   C3A22469  39.736  18.437   8.090
 1562POPC   C4A22470  39.788  18.167   7.742
 1562POPC   C1B22471  39.976  18.183   8.564
 1562POPC   C2B22472  39.968  17.968   8.184
 1562POPC   C3B22473  40.289  18.066   7.899
 1562POPC   C4B22474  40.408  17.884   7.533
 1563POPC   NC322475   8.023  24.188   9.363
 1563POPC   PO422476   7.414  24.399   9.569
 1563POPC   GL122477   7.438  24.499   9.126
 1563POPC   GL222478   7.773  24.507   9.052
 1563POPC   C1A22479   7.222  24.522   8.721
 1563POPC   D2A22480   7.085  24.681   8.338
 1563POPC   C3A22481   7.249  24.386   8.045
 1563POPC   C4A22482   7.371  24.427   7.632
 1563POPC   C1B22483   7.606  24.160   8.774
 1563POPC   C2B22484   7.614  24.235   8.352
 1563POPC   C3B22485   7.772  24.414   7.974
 1563POPC   C4B22486   7.928  24.252   7.603
 1564POPC   NC322487  31.993   0.592   9.484
 1564POPC   PO422488  32.335  44.960   9.480
 1564POPC   GL122489  32.126   0.201   9.183
 1564POPC   GL222490  32.424   0.407   9.196
 1564POPC   C1A22491  32.133   0.471   8.781
 1564POPC   D2A22492  32.374   0.630   8.422
 1564POPC   C3A22493  32.150   0.447   8.076
 1564POPC   C4A22494  32.105   0.402   7.646
 1564POPC   C1B22495  32.479   0.075   8.835
 1564POPC   C2B22496  32.379   0.100   8.394
 1564POPC   C3B22497  32.622   0.285   8.038
 1564POPC   C4B22498  32.609   0.193   7.598
 1565POPC   NC322499   9.545  21.163   9.586
 1565POPC   PO422500  10.124  21.529   9.659
 1565POPC   GL122501   9.911  21.567   9.236
 1565POPC   GL222502   9.556  21.590   9.233
 1565POPC   C1A22503   9.830  21.367   8.823
 1565POPC   D2A22504   9.944  21.120   8.453
 1565POPC   C3A22505  10.087  21.286   8.082
 1565POPC   C4A22506   9.766  21.283   7.776
 1565POPC   C1B22507   9.331  21.467   8.859
 1565POPC   C2B22508   9.204  21.536   8.447
 1565POPC   C3B22509   9.498  21.621   8.120
 1565POPC   C4B22510   9.341  21.723   7.734
 1566POPC   NC322511  42.831  28.347   9.488
 1566POPC   PO422512  42.210  28.408   9.610
 1566POPC   GL122513  42.353  28.353   9.188
 1566POPC   GL222514  42.097  28.643   9.169
 1566POPC   C1A22515  42.493  28.180   8.735
 1566POPC   D2A22516  42.641  28.228   8.292
 1566POPC   C3A22517  42.378  28.200   7.912
 1566POPC   C4A22518  42.527  28.278   7.475
 1566POPC   C1B22519  42.232  28.621   8.772
 1566POPC   C2B22520  42.055  28.783   8.441
 1566POPC   C3B22521  42.056  28.663   8.039
 1566POPC   C4B22522  42.255  28.670   7.685
 1567POPC   NC322523  33.227  20.387   9.801
 1567POPC   PO422524  33.479  20.942   9.536
 1567POPC   GL122525  33.176  20.783   9.219
 1567POPC   GL222526  33.116  20.465   9.290
 1567POPC   C1A22527  32.903  20.788   8.811
 1567POPC   D2A22528  32.909  20.738   8.387
 1567POPC   C3A22529  32.765  20.538   8.011
 1567POPC   C4A22530  32.925  20.625   7.650
 1567POPC   C1B22531  33.235  20.417   8.838
 1567POPC   C2B22532  33.384  20.596   8.450
 1567POPC   C3B22533  33.282  20.528   8.024
 1567POPC   C4B22534  33.423  20.775   7.671
 1568POPC   NC322535  21.067  21.480   9.521
 1568POPC   PO422536  20.452  21.114   9.569
 1568POPC   GL122537  20.550  21.359   9.208
 1568POPC   GL222538  20.202  21.282   9.149
 1568POPC   C1A22539  20.813  21.330   8.812
 1568POPC   D2A22540  20.790  21.095   8.412
 1568POPC   C3A22541  20.859  21.338   8.052
 1568POPC   C4A22542  20.912  21.584   7.699
 1568POPC   C1B22543  20.242  21.512   8.793
 1568POPC   C2B22544  20.449  21.506   8.409
 1568POPC   C3B22545  20.319  21.394   8.013
 1568POPC   C4B22546  20.216  21.519   7.606
 1569POPC   NC322547  35.785  39.737   9.310
 1569POPC   PO422548  35.122  39.958   9.549
 1569POPC   GL122549  35.292  39.821   9.191
 1569POPC   GL222550  35.068  40.032   9.034
 1569POPC   C1A22551  35.353  39.684   8.767
 1569POPC   D2A22552  35.310  39.899   8.364
 1569POPC   C3A22553  35.270  39.839   7.937
 1569POPC   C4A22554  34.852  39.821   7.810
 1569POPC   C1B22555  35.380  40.217   8.774
 1569POPC   C2B22556  35.223  40.397   8.405
 1569POPC   C3B22557  35.237  40.353   7.973
 1569POPC   C4B22558  35.632  40.263   7.821
 1570POPC   NC322559   8.897  38.308   9.679
 1570POPC   PO422560   8.685  38.867   9.642
 1570POPC   GL122561   9.043  38.699   9.334
 1570POPC   GL222562   9.012  38.349   9.177
 1570POPC   C1A22563   9.188  38.737   8.876
 1570POPC   D2A22564   9.214  38.524   8.435
 1570POPC   C3A22565   8.905  38.616   8.085
 1570POPC   C4A22566   8.467  38.600   7.896
 1570POPC   C1B22567   9.261  38.179   8.816
 1570POPC   C2B22568   9.310  38.008   8.365
 1570POPC   C3B22569   9.349  38.214   7.934
 1570POPC   C4B22570   9.313  38.101   7.467
 1571POPC   NC322571  39.569  19.527   9.489
 1571POPC   PO422572  39.984  20.037   9.568
 1571POPC   GL122573  39.923  19.894   9.167
 1571POPC   GL222574  40.079  19.564   9.233
 1571POPC   C1A22575  39.900  20.000   8.718
 1571POPC   D2A22576  39.900  20.087   8.290
 1571POPC   C3A22577  40.083  19.887   7.977
 1571POPC   C4A22578  39.777  19.984   7.678
 1571POPC   C1B22579  39.847  19.506   8.847
 1571POPC   C2B22580  39.913  19.583   8.405
 1571POPC   C3B22581  39.849  19.438   7.983
 1571POPC   C4B22582  40.136  19.539   7.598
 1572POPC   NC322583  11.775  39.595   9.396
 1572POPC   PO422584  11.892  38.935   9.498
 1572POPC   GL122585  11.848  39.144   9.151
 1572POPC   GL222586  12.166  39.269   9.192
 1572POPC   C1A22587  11.722  39.082   8.753
 1572POPC   D2A22588  11.938  38.991   8.386
 1572POPC   C3A22589  11.985  39.206   8.021
 1572POPC   C4A22590  12.282  38.977   7.786
 1572POPC   C1B22591  12.255  39.090   8.777
 1572POPC   C2B22592  12.317  39.340   8.410
 1572POPC   C3B22593  12.482  39.403   8.020
 1572POPC   C4B22594  12.318  39.513   7.654
 1573POPC   NC322595   0.021  22.567   9.473
 1573POPC   PO422596  44.480  22.263   9.465
 1573POPC   GL122597  44.794  22.112   9.208
 1573POPC   GL222598  44.737  22.458   9.048
 1573POPC   C1A22599  44.781  21.929   8.788
 1573POPC   D2A22600  44.636  22.146   8.393
 1573POPC   C3A22601  44.525  21.888   8.024
 1573POPC   C4A22602  44.315  22.076   7.671
 1573POPC   C1B22603   0.125  22.314   8.853
 1573POPC   C2B22604   0.181  22.077   8.485
 1573POPC   C3B22605   0.050  22.075   8.085
 1573POPC   C4B22606  44.966  22.456   7.866
 1574POPC   NC322607   6.108  39.587   9.301
 1574POPC   PO422608   5.637  39.959   9.653
 1574POPC   GL122609   5.667  39.934   9.165
 1574POPC   GL222610   6.001  40.019   9.052
 1574POPC   C1A22611   5.660  40.118   8.696
 1574POPC   D2A22612   5.967  39.960   8.410
 1574POPC   C3A22613   5.830  39.817   8.000
 1574POPC   C4A22614   5.627  40.008   7.635
 1574POPC   C1B22615   6.124  40.343   8.790
 1574POPC   C2B22616   6.057  40.467   8.364
 1574POPC   C3B22617   6.159  40.227   7.989
 1574POPC   C4B22618   6.228  39.885   7.683
 1575POPC   NC322619  31.772  11.868   9.395
 1575POPC   PO422620  32.265  11.375   9.535
 1575POPC   GL122621  32.302  11.372   9.113
 1575POPC   GL222622  32.003  11.562   9.033
 1575POPC   C1A22623  32.426  11.533   8.718
 1575POPC   D2A22624  32.141  11.589   8.391
 1575POPC   C3A22625  32.140  11.219   8.162
 1575POPC   C4A22626  32.224  11.182   7.726
 1575POPC   C1B22627  31.759  11.338   8.698
 1575POPC   C2B22628  31.666  11.022   8.357
 1575POPC   C3B22629  31.744  11.051   7.889
 1575POPC   C4B22630  31.889  10.886   7.471
 1576POPC   NC322631   0.527   5.627   9.446
 1576POPC   PO422632   0.384   5.041   9.549
 1576POPC   GL122633   0.398   5.212   9.133
 1576POPC   GL222634   0.110   5.415   9.124
 1576POPC   C1A22635   0.448   5.312   8.689
 1576POPC   D2A22636   0.660   5.445   8.312
 1576POPC   C3A22637   0.558   5.215   7.941
 1576POPC   C4A22638   0.337   5.458   7.638
 1576POPC   C1B22639  44.956   5.120   8.771
 1576POPC   C2B22640   0.086   4.993   8.301
 1576POPC   C3B22641   0.004   5.158   7.853
 1576POPC   C4B22642  44.980   5.200   7.343
 1577POPC   NC322643  35.086  28.147   9.344
 1577POPC   PO422644  35.002  28.710   9.246
 1577POPC   GL122645  35.326  28.492   9.036
 1577POPC   GL222646  35.122  28.281   8.869
 1577POPC   C1A22647  35.606  28.318   8.727
 1577POPC   D2A22648  35.428  28.148   8.388
 1577POPC   C3A22649  35.514  28.268   7.987
 1577POPC   C4A22650  35.146  28.305   7.752
 1577POPC   C1B22651  34.923  28.556   8.617
 1577POPC   C2B22652  35.081  28.785   8.306
 1577POPC   C3B22653  34.899  28.834   7.938
 1577POPC   C4B22654  34.732  28.585   7.640
 1578POPC   NC322655  30.758  10.787   9.427
 1578POPC   PO422656  30.642  10.316   9.957
 1578POPC   GL122657  30.499  10.333   9.426
 1578POPC   GL222658  30.230  10.497   9.184
 1578POPC   C1A22659  30.633  10.316   8.939
 1578POPC   D2A22660  30.895  10.627   8.657
 1578POPC   C3A22661  30.936  10.620   8.181
 1578POPC   C4A22662  31.044  10.794   7.775
 1578POPC   C1B22663  30.398  10.702   8.752
 1578POPC   C2B22664  30.518  10.852   8.347
 1578POPC   C3B22665  30.448  10.727   7.911
 1578POPC   C4B22666  30.644  10.616   7.503
 1579POPC   NC322667  21.660  35.964   9.523
 1579POPC   PO422668  21.128  36.364   9.600
 1579POPC   GL122669  21.337  36.228   9.226
 1579POPC   GL222670  21.234  35.884   9.216
 1579POPC   C1A22671  21.505  36.318   8.809
 1579POPC   D2A22672  21.321  36.199   8.436
 1579POPC   C3A22673  21.451  36.307   8.069
 1579POPC   C4A22674  21.154  36.203   7.782
 1579POPC   C1B22675  21.480  35.799   8.842
 1579POPC   C2B22676  21.565  35.750   8.363
 1579POPC   C3B22677  21.506  35.829   7.889
 1579POPC   C4B22678  21.417  35.835   7.417
 1580POPC   NC322679   6.428  43.537   9.652
 1580POPC   PO422680   6.096  42.959   9.525
 1580POPC   GL122681   5.969  43.194   9.172
 1580POPC   GL222682   5.761  43.495   9.225
 1580POPC   C1A22683   6.055  43.124   8.745
 1580POPC   D2A22684   6.306  43.247   8.407
 1580POPC   C3A22685   6.036  43.178   8.093
 1580POPC   C4A22686   5.834  42.961   7.777
 1580POPC   C1B22687   5.577  43.275   8.867
 1580POPC   C2B22688   5.678  43.326   8.433
 1580POPC   C3B22689   5.509  43.245   8.020
 1580POPC   C4B22690   5.454  43.250   7.550
 1581POPC   NC322691   0.589   4.630   9.505
 1581POPC   PO422692   0.246   4.060   9.417
 1581POPC   GL122693   0.393   4.201   9.018
 1581POPC   GL222694   0.694   4.362   9.085
 1581POPC   C1A22695   0.540   4.359   8.599
 1581POPC   D2A22696   0.761   4.186   8.243
 1581POPC   C3A22697   0.439   4.271   7.970
 1581POPC   C4A22698   0.265   4.687   7.896
 1581POPC   C1B22699   0.731   4.790   8.881
 1581POPC   C2B22700   0.777   4.939   8.458
 1581POPC   C3B22701   0.756   4.709   8.082
 1581POPC   C4B22702   0.842   4.806   7.656
 1582POPC   NC322703  10.026  31.881   9.499
 1582POPC   PO422704  10.471  31.431   9.543
 1582POPC   GL122705  10.572  31.421   9.126
 1582POPC   GL222706  10.873  31.635   9.122
 1582POPC   C1A22707  10.342  31.416   8.740
 1582POPC   D2A22708  10.427  31.199   8.392
 1582POPC   C3A22709  10.503  31.454   8.038
 1582POPC   C4A22710  10.388  31.498   7.605
 1582POPC   C1B22711  10.688  31.799   8.771
 1582POPC   C2B22712  10.536  31.898   8.408
 1582POPC   C3B22713  10.790  32.021   8.098
 1582POPC   C4B22714  10.792  31.811   7.718
 1583POPC   NC322715  19.291  44.335  10.250
 1583POPC   PO422716  19.299  44.629   9.612
 1583POPC   GL122717  19.234  44.454   9.234
 1583POPC   GL222718  19.504  44.605   9.091
 1583POPC   C1A22719  19.103  44.474   8.820
 1583POPC   D2A22720  19.294  44.566   8.475
 1583POPC   C3A22721  19.098  44.474   8.128
 1583POPC   C4A22722  19.288  44.330   7.763
 1583POPC   C1B22723  19.366  44.948   8.800
 1583POPC   C2B22724  19.311   0.042   8.330
 1583POPC   C3B22725  19.510  44.778   8.023
 1583POPC   C4B22726  19.592  44.761   7.566
 1584POPC   NC322727   4.049   6.805   9.480
 1584POPC   PO422728   4.542   6.399   9.701
 1584POPC   GL122729   4.424   6.443   9.257
 1584POPC   GL222730   4.413   6.797   9.129
 1584POPC   C1A22731   4.260   6.419   8.821
 1584POPC   D2A22732   4.454   6.637   8.440
 1584POPC   C3A22733   4.359   6.588   7.972
 1584POPC   C4A22734   4.264   6.471   7.510
 1584POPC   C1B22735   4.101   6.896   8.781
 1584POPC   C2B22736   3.973   6.809   8.332
 1584POPC   C3B22737   4.066   7.009   7.927
 1584POPC   C4B22738   3.784   7.197   7.661
 1585POPC   NC322739   6.458  20.201   9.733
 1585POPC   PO422740   6.886  20.654   9.470
 1585POPC   GL122741   6.848  20.627   9.043
 1585POPC   GL222742   6.813  20.948   9.029
 1585POPC   C1A22743   6.501  20.553   8.756
 1585POPC   D2A22744   6.353  20.667   8.356
 1585POPC   C3A22745   6.717  20.654   8.097
 1585POPC   C4A22746   6.756  20.649   7.647
 1585POPC   C1B22747   6.982  20.964   8.644
 1585POPC   C2B22748   7.146  20.890   8.265
 1585POPC   C3B22749   6.997  21.033   7.879
 1585POPC   C4B22750   7.016  21.029   7.421
 1586POPC   NC322751  14.534   3.877   9.435
 1586POPC   PO422752  14.348   3.187   9.562
 1586POPC   GL122753  14.491   3.381   9.197
 1586POPC   GL222754  14.171   3.554   9.172
 1586POPC   C1A22755  14.523   3.642   8.815
 1586POPC   D2A22756  14.247   3.679   8.469
 1586POPC   C3A22757  14.507   3.727   8.131
 1586POPC   C4A22758  14.577   3.580   7.733
 1586POPC   C1B22759  14.209   3.226   8.797
 1586POPC   C2B22760  14.189   3.193   8.321
 1586POPC   C3B22761  14.129   3.473   7.942
 1586POPC   C4B22762  14.145   3.429   7.465
 1587POPC   NC322763  10.927  29.813   9.415
 1587POPC   PO422764  11.520  30.053   9.374
 1587POPC   GL122765  11.452  30.094   8.955
 1587POPC   GL222766  11.107  30.095   9.015
 1587POPC   C1A22767  11.430  29.967   8.524
 1587POPC   D2A22768  11.555  29.560   8.362
 1587POPC   C3A22769  11.610  29.512   7.928
 1587POPC   C4A22770  11.521  29.777   7.588
 1587POPC   C1B22771  11.095  29.673   8.791
 1587POPC   C2B22772  11.030  29.679   8.351
 1587POPC   C3B22773  11.223  29.906   8.027
 1587POPC   C4B22774  11.044  29.961   7.619
 1588POPC   NC322775  10.735  42.760   9.673
 1588POPC   PO422776  10.153  43.060   9.690
 1588POPC   GL122777  10.298  43.031   9.259
 1588POPC   GL222778  10.201  43.335   9.194
 1588POPC   C1A22779  10.285  42.846   8.813
 1588POPC   D2A22780  10.234  42.648   8.374
 1588POPC   C3A22781  10.400  42.804   7.958
 1588POPC   C4A22782  10.563  43.046   7.590
 1588POPC   C1B22783  10.414  43.332   8.817
 1588POPC   C2B22784  10.349  43.153   8.407
 1588POPC   C3B22785  10.423  43.305   8.009
 1588POPC   C4B22786  10.459  43.597   7.669
 1589POPC   NC322787  24.076  27.960   9.444
 1589POPC   PO422788  23.462  28.069   9.336
 1589POPC   GL122789  23.599  28.292   9.017
 1589POPC   GL222790  23.943  28.245   9.023
 1589POPC   C1A22791  23.679  28.482   8.655
 1589POPC   D2A22792  23.534  28.162   8.398
 1589POPC   C3A22793  23.372  28.367   8.100
 1589POPC   C4A22794  23.382  28.307   7.718
 1589POPC   C1B22795  24.063  28.159   8.588
 1589POPC   C2B22796  23.963  28.225   8.134
 1589POPC   C3B22797  23.885  28.202   7.698
 1589POPC   C4B22798  24.073  28.035   7.302
 1590POPC   NC322799   7.896  32.930   9.542
 1590POPC   PO422800   8.424  33.220   9.837
 1590POPC   GL122801   8.281  33.179   9.342
 1590POPC   GL222802   7.930  33.320   9.201
 1590POPC   C1A22803   8.328  32.920   8.939
 1590POPC   D2A22804   8.524  33.000   8.546
 1590POPC   C3A22805   8.400  32.870   8.142
 1590POPC   C4A22806   8.252  32.870   7.755
 1590POPC   C1B22807   8.162  33.364   8.804
 1590POPC   C2B22808   8.105  33.252   8.397
 1590POPC   C3B22809   7.955  33.214   8.005
 1590POPC   C4B22810   8.116  33.348   7.624
 1591POPC   NC322811  21.455  28.414   9.204
 1591POPC   PO422812  21.262  27.744   9.349
 1591POPC   GL122813  21.436  27.949   9.034
 1591POPC   GL222814  21.144  28.145   8.929
 1591POPC   C1A22815  21.553  28.115   8.643
 1591POPC   D2A22816  21.236  28.130   8.362
 1591POPC   C3A22817  21.488  28.372   8.136
 1591POPC   C4A22818  21.774  28.492   7.850
 1591POPC   C1B22819  21.078  28.551   8.671
 1591POPC   C2B22820  20.821  28.532   8.324
 1591POPC   C3B22821  20.992  28.400   7.983
 1591POPC   C4B22822  21.273  28.610   7.749
 1592POPC   NC322823   0.748   7.397   9.515
 1592POPC   PO422824   0.066   7.526   9.384
 1592POPC   GL122825   0.217   7.270   9.052
 1592POPC   GL222826   0.549   7.339   9.072
 1592POPC   C1A22827   0.364   7.337   8.591
 1592POPC   D2A22828   0.549   7.689   8.310
 1592POPC   C3A22829   0.381   7.588   7.898
 1592POPC   C4A22830   0.241   7.172   7.758
 1592POPC   C1B22831   0.812   7.516   8.754
 1592POPC   C2B22832   0.880   7.286   8.410
 1592POPC   C3B22833   0.699   7.173   8.058
 1592POPC   C4B22834   0.763   7.344   7.670
 1593POPC   NC322835  32.167   1.576   9.529
 1593POPC   PO422836  32.369   0.906   9.503
 1593POPC   GL122837  32.265   1.197   9.167
 1593POPC   GL222838  32.517   1.474   9.156
 1593POPC   C1A22839  32.142   1.057   8.747
 1593POPC   D2A22840  32.001   1.292   8.393
 1593POPC   C3A22841  32.075   1.130   8.004
 1593POPC   C4A22842  32.082   1.404   7.644
 1593POPC   C1B22843  32.624   1.230   8.792
 1593POPC   C2B22844  32.485   1.163   8.367
 1593POPC   C3B22845  32.520   1.370   7.984
 1593POPC   C4B22846  32.523   1.162   7.613
 1594POPC   NC322847  21.051  27.322   9.341
 1594POPC   PO422848  20.547  27.764   9.575
 1594POPC   GL122849  20.561  27.840   9.130
 1594POPC   GL222850  20.626  27.491   9.137
 1594POPC   C1A22851  20.865  27.753   8.782
 1594POPC   D2A22852  20.882  27.560   8.388
 1594POPC   C3A22853  20.909  27.856   8.052
 1594POPC   C4A22854  20.647  27.799   7.707
 1594POPC   C1B22855  20.617  27.310   8.765
 1594POPC   C2B22856  20.395  27.340   8.402
 1594POPC   C3B22857  20.534  27.355   8.009
 1594POPC   C4B22858  20.262  27.441   7.708
 1595POPC   NC322859  29.684   7.652   9.444
 1595POPC   PO422860  30.272   7.342   9.642
 1595POPC   GL122861  30.084   7.485   9.216
 1595POPC   GL222862  29.815   7.270   9.132
 1595POPC   C1A22863  29.991   7.625   8.789
 1595POPC   D2A22864  29.921   7.373   8.435
 1595POPC   C3A22865  29.986   7.447   8.005
 1595POPC   C4A22866  29.993   7.806   7.705
 1595POPC   C1B22867  29.632   7.101   8.781
 1595POPC   C2B22868  29.527   7.073   8.326
 1595POPC   C3B22869  29.527   7.120   7.875
 1595POPC   C4B22870  29.653   6.883   7.483
 1596POPC   NC322871  23.606  32.784   9.836
 1596POPC   PO422872  24.128  33.137   9.710
 1596POPC   GL122873  23.947  33.039   9.304
 1596POPC   GL222874  24.080  33.356   9.182
 1596POPC   C1A22875  23.718  32.863   8.909
 1596POPC   D2A22876  23.496  33.123   8.573
 1596POPC   C3A22877  23.348  32.966   8.142
 1596POPC   C4A22878  23.591  32.779   7.791
 1596POPC   C1B22879  24.053  33.198   8.772
 1596POPC   C2B22880  23.928  33.319   8.379
 1596POPC   C3B22881  23.814  33.191   7.993
 1596POPC   C4B22882  24.133  33.075   7.733
 1597POPC   NC322883  43.727   3.583   9.682
 1597POPC   PO422884  44.138   3.055   9.593
 1597POPC   GL122885  43.987   3.453   9.192
 1597POPC   GL222886  43.755   3.729   9.196
 1597POPC   C1A22887  43.783   3.434   8.798
 1597POPC   D2A22888  43.805   3.700   8.461
 1597POPC   C3A22889  43.986   3.518   8.119
 1597POPC   C4A22890  43.857   3.354   7.741
 1597POPC   C1B22891  43.446   3.800   8.864
 1597POPC   C2B22892  43.303   3.782   8.436
 1597POPC   C3B22893  43.404   3.822   7.973
 1597POPC   C4B22894  43.693   3.813   7.609
 1598POPC   NC322895  30.179  21.391   9.536
 1598POPC   PO422896  29.468  21.293   9.562
 1598POPC   GL122897  29.603  21.436   9.162
 1598POPC   GL222898  29.912  21.560   9.131
 1598POPC   C1A22899  29.573  21.279   8.775
 1598POPC   D2A22900  29.834  21.256   8.440
 1598POPC   C3A22901  29.653  21.436   8.070
 1598POPC   C4A22902  29.796  21.386   7.632
 1598POPC   C1B22903  29.913  21.705   8.736
 1598POPC   C2B22904  30.145  21.674   8.363
 1598POPC   C3B22905  30.047  21.732   7.943
 1598POPC   C4B22906  30.275  21.604   7.588
 1599POPC   NC322907  22.491  25.154   9.555
 1599POPC   PO422908  23.179  25.226   9.595
 1599POPC   GL122909  23.131  25.108   9.182
 1599POPC   GL222910  22.812  25.278   9.154
 1599POPC   C1A22911  23.118  25.327   8.755
 1599POPC   D2A22912  22.882  25.334   8.369
 1599POPC   C3A22913  23.174  25.313   8.029
 1599POPC   C4A22914  23.114  25.420   7.603
 1599POPC   C1B22915  22.802  24.943   8.832
 1599POPC   C2B22916  22.703  24.844   8.420
 1599POPC   C3B22917  22.833  24.936   8.022
 1599POPC   C4B22918  22.667  25.184   7.710
 1600POPC   NC322919  29.637  15.011   9.769
 1600POPC   PO422920  29.041  15.237   9.491
 1600POPC   GL122921  28.996  15.063   9.111
 1600POPC   GL222922  28.799  15.365   9.034
 1600POPC   C1A22923  29.118  14.850   8.721
 1600POPC   D2A22924  28.932  14.919   8.335
 1600POPC   C3A22925  29.095  14.993   7.925
 1600POPC   C4A22926  28.896  14.969   7.524
 1600POPC   C1B22927  29.090  15.360   8.689
 1600POPC   C2B22928  29.028  15.435   8.246
 1600POPC   C3B22929  29.218  15.497   7.868
 1600POPC   C4B22930  29.559  15.425   7.606
 1601POPC   NC322931  16.674  21.789   9.705
 1601POPC   PO422932  16.894  21.103   9.668
 1601POPC   GL122933  16.738  21.231   9.314
 1601POPC   GL222934  17.041  21.233   9.182
 1601POPC   C1A22935  16.670  21.147   8.819
 1601POPC   D2A22936  16.526  21.014   8.384
 1601POPC   C3A22937  16.401  21.386   8.127
 1601POPC   C4A22938  16.539  21.475   7.715
 1601POPC   C1B22939  17.163  21.085   8.815
 1601POPC   C2B22940  17.003  21.290   8.416
 1601POPC   C3B22941  16.866  21.167   8.006
 1601POPC   C4B22942  17.003  21.315   7.610
 1602POPC   NC322943  36.012   1.685   9.529
 1602POPC   PO422944  36.087   1.010   9.563
 1602POPC   GL122945  36.049   1.078   9.105
 1602POPC   GL222946  35.766   0.906   8.992
 1602POPC   C1A22947  36.068   1.301   8.673
 1602POPC   D2A22948  36.329   1.392   8.280
 1602POPC   C3A22949  36.265   1.370   7.835
 1602POPC   C4A22950  36.195   1.261   7.417
 1602POPC   C1B22951  35.898   0.814   8.590
 1602POPC   C2B22952  35.900   1.072   8.214
 1602POPC   C3B22953  35.890   1.010   7.758
 1602POPC   C4B22954  35.921   0.842   7.328
 1603POPC   NC322955  22.698  28.896   9.314
 1603POPC   PO422956  22.040  28.961   9.584
 1603POPC   GL122957  22.198  28.941   9.165
 1603POPC   GL222958  22.292  29.269   9.060
 1603POPC   C1A22959  22.233  28.902   8.705
 1603POPC   D2A22960  22.058  29.112   8.346
 1603POPC   C3A22961  22.111  28.919   7.966
 1603POPC   C4A22962  22.370  28.981   7.620
 1603POPC   C1B22963  22.617  29.263   8.722
 1603POPC   C2B22964  22.591  29.217   8.262
 1603POPC   C3B22965  22.565  29.467   7.889
 1603POPC   C4B22966  22.405  29.461   7.471
 1604POPC   NC322967  28.036  40.332   9.787
 1604POPC   PO422968  28.353  39.869   9.437
 1604POPC   GL122969  28.431  40.027   9.036
 1604POPC   GL222970  28.606  40.292   9.126
 1604POPC   C1A22971  28.704  39.908   8.680
 1604POPC   D2A22972  28.791  39.694   8.282
 1604POPC   C3A22973  28.586  39.906   7.920
 1604POPC   C4A22974  28.504  40.043   7.486
 1604POPC   C1B22975  28.618  40.430   8.715
 1604POPC   C2B22976  28.679  40.271   8.269
 1604POPC   C3B22977  28.501  40.409   7.846
 1604POPC   C4B22978  28.209  40.483   7.464
 1605POPC   NC322979  12.458   8.768   9.873
 1605POPC   PO422980  12.995   8.826   9.442
 1605POPC   GL122981  12.950   8.883   9.050
 1605POPC   GL222982  12.784   9.191   9.062
 1605POPC   C1A22983  12.788   8.869   8.661
 1605POPC   D2A22984  12.852   8.557   8.407
 1605POPC   C3A22985  12.643   8.599   8.047
 1605POPC   C4A22986  12.747   8.539   7.619
 1605POPC   C1B22987  13.171   9.240   8.770
 1605POPC   C2B22988  13.204   9.459   8.371
 1605POPC   C3B22989  13.251   9.258   7.980
 1605POPC   C4B22990  12.895   9.157   7.779
 1606POPC   NC322991   5.267  36.197   9.673
 1606POPC   PO422992   4.831  35.779   9.592
 1606POPC   GL122993   4.894  36.115   9.287
 1606POPC   GL222994   5.240  36.049   9.190
 1606POPC   C1A22995   4.950  36.337   8.874
 1606POPC   D2A22996   4.997  36.119   8.446
 1606POPC   C3A22997   5.060  36.325   8.049
 1606POPC   C4A22998   4.828  36.466   7.691
 1606POPC   C1B22999   5.410  36.131   8.761
 1606POPC   C2B23000   5.498  36.229   8.317
 1606POPC   C3B23001   5.420  35.973   7.950
 1606POPC   C4B23002   5.114  36.021   7.639
 1607POPC   NC323003   6.435  12.550   9.395
 1607POPC   PO423004   6.674  13.238   9.463
 1607POPC   GL123005   6.713  12.948   9.150
 1607POPC   GL223006   7.018  13.149   9.017
 1607POPC   C1A23007   6.791  12.750   8.755
 1607POPC   D2A23008   6.893  12.637   8.350
 1607POPC   C3A23009   6.723  12.822   7.973
 1607POPC   C4A23010   6.760  12.886   7.533
 1607POPC   C1B23011   6.655  13.228   8.748
 1607POPC   C2B23012   6.650  13.125   8.367
 1607POPC   C3B23013   6.410  13.219   8.031
 1607POPC   C4B23014   6.342  13.131   7.619
 1608POPC   NC323015  11.495  43.248   9.483
 1608POPC   PO423016  11.007  43.081   9.963
 1608POPC   GL123017  11.086  42.960   9.391
 1608POPC   GL223018  10.797  43.133   9.188
 1608POPC   C1A23019  11.249  43.075   8.909
 1608POPC   D2A23020  11.126  43.193   8.445
 1608POPC   C3A23021  11.367  43.354   8.059
 1608POPC   C4A23022  11.468  43.416   7.607
 1608POPC   C1B23023  10.778  42.975   8.768
 1608POPC   C2B23024  10.739  42.845   8.365
 1608POPC   C3B23025  10.888  43.010   8.006
 1608POPC   C4B23026  11.046  43.172   7.639
 1609POPC   NC323027   2.026  36.188   9.567
 1609POPC   PO423028   1.529  35.699   9.493
 1609POPC   GL123029   1.906  35.874   9.178
 1609POPC   GL223030   2.273  36.021   9.161
 1609POPC   C1A23031   1.903  36.286   8.882
 1609POPC   D2A23032   1.931  36.353   8.415
 1609POPC   C3A23033   1.987  35.969   8.153
 1609POPC   C4A23034   1.845  35.908   7.744
 1609POPC   C1B23035   2.294  36.011   8.698
 1609POPC   C2B23036   2.415  36.212   8.294
 1609POPC   C3B23037   2.291  36.232   7.859
 1609POPC   C4B23038   2.290  35.927   7.480
 1610POPC   NC323039  19.383  11.502   9.485
 1610POPC   PO423040  18.798  11.327   9.609
 1610POPC   GL123041  18.964  11.213   9.204
 1610POPC   GL223042  18.915  11.562   9.141
 1610POPC   C1A23043  18.888  11.124   8.737
 1610POPC   D2A23044  19.078  11.335   8.346
 1610POPC   C3A23045  19.113  11.290   7.904
 1610POPC   C4A23046  18.810  11.149   7.603
 1610POPC   C1B23047  19.180  11.536   8.817
 1610POPC   C2B23048  19.308  11.782   8.499
 1610POPC   C3B23049  19.400  11.719   8.104
 1610POPC   C4B23050  19.408  11.947   7.711
 1611POPC   NC323051  19.646   7.073   9.295
 1611POPC   PO423052  20.159   7.429   9.645
 1611POPC   GL123053  20.006   7.447   9.222
 1611POPC   GL223054  20.194   7.247   9.052
 1611POPC   C1A23055  19.851   7.459   8.750
 1611POPC   D2A23056  19.692   7.452   8.312
 1611POPC   C3A23057  19.748   7.683   7.928
 1611POPC   C4A23058  19.959   7.545   7.556
 1611POPC   C1B23059  20.289   7.198   8.597
 1611POPC   C2B23060  20.144   7.202   8.148
 1611POPC   C3B23061  19.939   7.096   7.733
 1611POPC   C4B23062  20.146   6.843   7.403
 1612POPC   NC323063  19.761  17.016   9.952
 1612POPC   PO423064  20.181  16.531   9.634
 1612POPC   GL123065  20.071  16.490   9.197
 1612POPC   GL223066  19.784  16.742   9.190
 1612POPC   C1A23067  20.072  16.706   8.787
 1612POPC   D2A23068  19.877  16.649   8.383
 1612POPC   C3A23069  20.090  16.701   8.010
 1612POPC   C4A23070  19.987  16.932   7.649
 1612POPC   C1B23071  19.551  16.801   8.782
 1612POPC   C2B23072  19.546  17.051   8.403
 1612POPC   C3B23073  19.589  16.871   7.996
 1612POPC   C4B23074  19.281  16.755   7.694
 1613POPC   NC323075  20.353  43.997   9.407
 1613POPC   PO423076  20.720  43.405   9.486
 1613POPC   GL123077  20.519  43.562   9.145
 1613POPC   GL223078  20.828  43.671   9.005
 1613POPC   C1A23079  20.438  43.603   8.704
 1613POPC   D2A23080  20.476  43.905   8.439
 1613POPC   C3A23081  20.341  43.740   8.064
 1613POPC   C4A23082  20.320  44.050   7.759
 1613POPC   C1B23083  20.823  44.089   8.794
 1613POPC   C2B23084  20.972  44.171   8.412
 1613POPC   C3B23085  20.751  44.077   8.054
 1613POPC   C4B23086  20.836  43.963   7.683
 1614POPC   NC323087   1.179  25.701   9.582
 1614POPC   PO423088   0.827  26.282   9.592
 1614POPC   GL123089   1.134  26.091   9.257
 1614POPC   GL223090   1.410  26.343   9.167
 1614POPC   C1A23091   1.199  25.832   8.842
 1614POPC   D2A23092   1.037  25.754   8.444
 1614POPC   C3A23093   1.246  25.780   8.077
 1614POPC   C4A23094   1.031  25.707   7.703
 1614POPC   C1B23095   1.110  26.346   8.831
 1614POPC   C2B23096   1.216  26.243   8.441
 1614POPC   C3B23097   1.328  26.337   8.070
 1614POPC   C4B23098   1.220  26.185   7.729
 1615POPC   NC323099  27.027  33.402   9.837
 1615POPC   PO423100  26.795  33.931   9.521
 1615POPC   GL123101  26.753  34.068   9.075
 1615POPC   GL223102  27.111  34.178   8.956
 1615POPC   C1A23103  26.792  33.946   8.629
 1615POPC   D2A23104  26.556  33.762   8.318
 1615POPC   C3A23105  26.754  33.680   7.896
 1615POPC   C4A23106  26.909  33.308   7.654
 1615POPC   C1B23107  27.301  33.938   8.613
 1615POPC   C2B23108  27.165  33.784   8.197
 1615POPC   C3B23109  27.281  33.675   7.766
 1615POPC   C4B23110  27.264  33.532   7.315
 1616POPC   NC323111  15.598  30.514   9.541
 1616POPC   PO423112  14.920  30.713   9.620
 1616POPC   GL123113  15.220  30.746   9.274
 1616POPC   GL223114  15.328  31.103   9.205
 1616POPC   C1A23115  15.286  30.641   8.837
 1616POPC   D2A23116  15.304  30.480   8.407
 1616POPC   C3A23117  15.083  30.701   8.056
 1616POPC   C4A23118  15.124  30.522   7.644
 1616POPC   C1B23119  15.546  31.076   8.821
 1616POPC   C2B23120  15.389  31.000   8.432
 1616POPC   C3B23121  15.470  31.065   8.021
 1616POPC   C4B23122  15.549  30.739   7.786
 1617POPC   NC323123  24.011  11.599   9.501
 1617POPC   PO423124  24.655  11.453   9.606
 1617POPC   GL123125  24.515  11.530   9.165
 1617POPC   GL223126  24.782  11.370   9.053
 1617POPC   C1A23127  24.283  11.591   8.713
 1617POPC   D2A23128  24.338  11.454   8.278
 1617POPC   C3A23129  24.345  11.289   7.865
 1617POPC   C4A23130  24.293  11.485   7.463
 1617POPC   C1B23131  24.621  11.222   8.660
 1617POPC   C2B23132  24.599  11.009   8.259
 1617POPC   C3B23133  24.679  10.883   7.830
 1617POPC   C4B23134  24.474  10.989   7.447
 1618POPC   NC323135  24.726  25.461   9.549
 1618POPC   PO423136  24.169  25.113   9.508
 1618POPC   GL123137  24.415  25.303   9.133
 1618POPC   GL223138  24.727  25.141   9.165
 1618POPC   C1A23139  24.446  25.347   8.646
 1618POPC   D2A23140  24.478  25.681   8.304
 1618POPC   C3A23141  24.240  25.545   7.926
 1618POPC   C4A23142  24.358  25.445   7.505
 1618POPC   C1B23143  24.919  25.132   8.782
 1618POPC   C2B23144  24.823  24.985   8.367
 1618POPC   C3B23145  24.873  24.872   7.915
 1618POPC   C4B23146  24.756  25.070   7.471
 1619POPC   NC323147  17.848  25.611   9.346
 1619POPC   PO423148  18.270  25.144   9.687
 1619POPC   GL123149  18.265  25.253   9.260
 1619POPC   GL223150  17.968  25.144   9.182
 1619POPC   C1A23151  18.341  25.367   8.819
 1619POPC   D2A23152  18.303  25.185   8.426
 1619POPC   C3A23153  18.380  25.412   8.049
 1619POPC   C4A23154  18.342  25.245   7.654
 1619POPC   C1B23155  17.910  25.086   8.761
 1619POPC   C2B23156  17.877  24.894   8.369
 1619POPC   C3B23157  17.999  25.025   7.964
 1619POPC   C4B23158  17.959  24.921   7.524
 1620POPC   NC323159  30.429  39.600   9.395
 1620POPC   PO423160  30.909  39.076   9.445
 1620POPC   GL123161  30.792  39.323   9.105
 1620POPC   GL223162  30.451  39.274   9.012
 1620POPC   C1A23163  30.834  39.212   8.687
 1620POPC   D2A23164  30.578  39.167   8.347
 1620POPC   C3A23165  30.734  39.046   7.932
 1620POPC   C4A23166  30.684  39.240   7.528
 1620POPC   C1B23167  30.305  39.574   8.664
 1620POPC   C2B23168  30.273  39.560   8.205
 1620POPC   C3B23169  30.241  39.510   7.729
 1620POPC   C4B23170  30.149  39.469   7.272
 1621POPC   NC323171  21.080  31.843   9.624
 1621POPC   PO423172  20.586  32.172   9.441
 1621POPC   GL123173  20.665  32.385   9.088
 1621POPC   GL223174  20.779  32.675   9.209
 1621POPC   C1A23175  20.401  32.414   8.723
 1621POPC   D2A23176  20.124  32.306   8.354
 1621POPC   C3A23177  20.331  32.270   7.922
 1621POPC   C4A23178  20.663  32.172   7.594
 1621POPC   C1B23179  20.929  32.689   8.769
 1621POPC   C2B23180  20.808  32.431   8.415
 1621POPC   C3B23181  20.801  32.482   7.989
 1621POPC   C4B23182  20.555  32.657   7.683
 1622POPC   NC323183  40.283  27.860   9.837
 1622POPC   PO423184  40.876  27.618   9.583
 1622POPC   GL123185  40.835  27.691   9.172
 1622POPC   GL223186  41.146  27.864   9.088
 1622POPC   C1A23187  40.595  27.647   8.805
 1622POPC   D2A23188  40.413  27.838   8.451
 1622POPC   C3A23189  40.686  27.859   8.092
 1622POPC   C4A23190  40.445  27.834   7.743
 1622POPC   C1B23191  41.113  27.455   8.843
 1622POPC   C2B23192  40.842  27.298   8.508
 1622POPC   C3B23193  40.911  27.311   8.104
 1622POPC   C4B23194  41.099  27.566   7.847
 1623POPC   NC323195  27.404  21.604   9.604
 1623POPC   PO423196  27.866  21.201   9.497
 1623POPC   GL123197  27.573  21.379   9.168
 1623POPC   GL223198  27.267  21.624   9.123
 1623POPC   C1A23199  27.705  21.263   8.755
 1623POPC   D2A23200  27.891  21.179   8.370
 1623POPC   C3A23201  27.671  21.351   8.041
 1623POPC   C4A23202  27.856  21.225   7.680
 1623POPC   C1B23203  27.199  21.262   8.818
 1623POPC   C2B23204  27.357  21.125   8.400
 1623POPC   C3B23205  27.226  21.094   7.997
 1623POPC   C4B23206  27.325  21.369   7.649
 1624POPC   NC323207   4.037  42.104   9.574
 1624POPC   PO423208   4.355  41.417   9.475
 1624POPC   GL123209   4.566  41.348   9.116
 1624POPC   GL223210   4.251  41.351   8.969
 1624POPC   C1A23211   4.768  41.381   8.722
 1624POPC   D2A23212   4.915  41.342   8.263
 1624POPC   C3A23213   4.526  41.374   8.001
 1624POPC   C4A23214   4.396  41.402   7.550
 1624POPC   C1B23215   4.346  41.685   8.757
 1624POPC   C2B23216   4.196  41.484   8.399
 1624POPC   C3B23217   4.035  41.514   8.014
 1624POPC   C4B23218   4.290  41.809   7.831
 1625POPC   NC323219  27.341   5.689   9.663
 1625POPC   PO423220  27.902   5.836   9.326
 1625POPC   GL123221  27.533   6.056   9.192
 1625POPC   GL223222  27.349   5.773   9.123
 1625POPC   C1A23223  27.397   6.147   8.751
 1625POPC   D2A23224  27.583   5.991   8.334
 1625POPC   C3A23225  27.349   6.064   7.955
 1625POPC   C4A23226  27.219   5.754   7.700
 1625POPC   C1B23227  27.615   5.664   8.754
 1625POPC   C2B23228  27.772   5.373   8.442
 1625POPC   C3B23229  27.781   5.582   8.030
 1625POPC   C4B23230  27.853   6.006   7.851
 1626POPC   NC323231  30.318  43.877   9.475
 1626POPC   PO423232  30.981  43.778   9.390
 1626POPC   GL123233  30.648  43.977   9.095
 1626POPC   GL223234  30.321  44.168   9.054
 1626POPC   C1A23235  30.603  43.742   8.724
 1626POPC   D2A23236  30.967  43.786   8.470
 1626POPC   C3A23237  30.890  43.920   8.066
 1626POPC   C4A23238  30.648  43.587   7.866
 1626POPC   C1B23239  30.389  44.183   8.611
 1626POPC   C2B23240  30.392  43.963   8.205
 1626POPC   C3B23241  30.434  44.038   7.740
 1626POPC   C4B23242  30.518  44.214   7.309
 1627POPC   NC323243  44.392  11.149   9.420
 1627POPC   PO423244  44.871  11.656   9.568
 1627POPC   GL123245  44.721  11.432   9.176
 1627POPC   GL223246  44.333  11.501   9.069
 1627POPC   C1A23247  44.652  11.228   8.766
 1627POPC   D2A23248  44.491  10.955   8.440
 1627POPC   C3A23249  44.703  11.113   8.105
 1627POPC   C4A23250  44.906  11.224   7.744
 1627POPC   C1B23251  44.426  11.728   8.699
 1627POPC   C2B23252  44.698  11.683   8.329
 1627POPC   C3B23253  44.520  11.621   7.907
 1627POPC   C4B23254  44.370  11.239   7.710
 1628POPC   NC323255  25.090  32.596   9.410
 1628POPC   PO423256  25.446  33.140   9.568
 1628POPC   GL123257  25.271  33.058   9.198
 1628POPC   GL223258  24.914  33.078   9.277
 1628POPC   C1A23259  25.396  33.165   8.789
 1628POPC   D2A23260  25.515  33.063   8.382
 1628POPC   C3A23261  25.296  33.204   8.058
 1628POPC   C4A23262  25.382  33.335   7.668
 1628POPC   C1B23263  24.922  32.897   8.858
 1628POPC   C2B23264  25.008  32.976   8.437
 1628POPC   C3B23265  25.032  32.766   8.049
 1628POPC   C4B23266  25.112  32.925   7.632
 1629POPC   NC323267   9.980   2.288   9.682
 1629POPC   PO423268   9.960   2.907   9.773
 1629POPC   GL123269   9.931   2.716   9.382
 1629POPC   GL223270   9.943   3.043   9.246
 1629POPC   C1A23271   9.738   2.560   8.990
 1629POPC   D2A23272   9.859   2.458   8.563
 1629POPC   C3A23273   9.574   2.514   8.201
 1629POPC   C4A23274   9.716   2.657   7.797
 1629POPC   C1B23275   9.645   3.058   8.879
 1629POPC   C2B23276   9.731   2.958   8.412
 1629POPC   C3B23277   9.885   3.090   7.986
 1629POPC   C4B23278   9.919   3.016   7.484
 1630POPC   NC323279  30.802  36.544   9.431
 1630POPC   PO423280  30.476  35.948   9.532
 1630POPC   GL123281  30.591  36.148   9.121
 1630POPC   GL223282  30.846  35.975   8.925
 1630POPC   C1A23283  30.480  36.288   8.697
 1630POPC   D2A23284  30.328  36.033   8.353
 1630POPC   C3A23285  30.341  36.176   7.962
 1630POPC   C4A23286  30.547  36.489   7.766
 1630POPC   C1B23287  30.822  35.955   8.498
 1630POPC   C2B23288  30.769  36.312   8.229
 1630POPC   C3B23289  30.997  36.281   7.877
 1630POPC   C4B23290  31.072  35.879   7.769
 1631POPC   NC323291   7.880   3.209   9.680
 1631POPC   PO423292   8.557   3.443   9.539
 1631POPC   GL123293   8.272   3.566   9.175
 1631POPC   GL223294   7.916   3.486   9.220
 1631POPC   C1A23295   8.335   3.500   8.763
 1631POPC   D2A23296   8.417   3.665   8.391
 1631POPC   C3A23297   8.192   3.577   8.063
 1631POPC   C4A23298   8.135   3.687   7.649
 1631POPC   C1B23299   7.808   3.691   8.831
 1631POPC   C2B23300   7.910   3.820   8.411
 1631POPC   C3B23301   7.744   3.770   7.962
 1631POPC   C4B23302   7.735   4.136   7.740
 1632POPC   NC323303   2.542   2.366   9.579
 1632POPC   PO423304   3.040   1.884   9.532
 1632POPC   GL123305   2.901   2.109   9.176
 1632POPC   GL223306   3.039   1.840   9.006
 1632POPC   C1A23307   2.680   2.080   8.750
 1632POPC   D2A23308   2.731   2.369   8.383
 1632POPC   C3A23309   2.833   2.179   7.971
 1632POPC   C4A23310   2.597   2.197   7.569
 1632POPC   C1B23311   2.760   1.582   8.825
 1632POPC   C2B23312   2.596   1.601   8.434
 1632POPC   C3B23313   2.421   1.613   8.037
 1632POPC   C4B23314   2.593   1.704   7.651
 1633POPC   NC323315  24.173  35.929   9.481
 1633POPC   PO423316  23.507  35.964   9.488
 1633POPC   GL123317  23.800  36.082   9.152
 1633POPC   GL223318  24.047  35.859   8.997
 1633POPC   C1A23319  23.741  36.157   8.714
 1633POPC   D2A23320  23.443  36.155   8.400
 1633POPC   C3A23321  23.615  36.264   8.026
 1633POPC   C4A23322  23.435  36.057   7.738
 1633POPC   C1B23323  24.220  35.959   8.612
 1633POPC   C2B23324  24.066  36.049   8.208
 1633POPC   C3B23325  23.878  35.842   7.871
 1633POPC   C4B23326  23.796  35.848   7.408
 1634POPC   NC323327  29.759   8.500   9.200
 1634POPC   PO423328  30.333   8.854   9.471
 1634POPC   GL123329  30.128   8.846   9.141
 1634POPC   GL223330  30.274   8.506   9.086
 1634POPC   C1A23331  29.914   9.047   8.781
 1634POPC   D2A23332  29.661   8.938   8.407
 1634POPC   C3A23333  29.718   9.119   7.976
 1634POPC   C4A23334  29.691   8.874   7.571
 1634POPC   C1B23335  30.374   8.789   8.717
 1634POPC   C2B23336  30.202   8.948   8.302
 1634POPC   C3B23337  30.137   8.866   7.834
 1634POPC   C4B23338  30.163   8.674   7.383
 1635POPC   NC323339  38.636  32.337   9.807
 1635POPC   PO423340  38.042  31.991   9.742
 1635POPC   GL123341  38.157  32.319   9.346
 1635POPC   GL223342  38.494  32.250   9.146
 1635POPC   C1A23343  38.085  32.354   8.832
 1635POPC   D2A23344  38.376  32.341   8.466
 1635POPC   C3A23345  38.151  32.389   8.096
 1635POPC   C4A23346  38.113  32.248   7.703
 1635POPC   C1B23347  38.798  32.342   8.772
 1635POPC   C2B23348  39.116  32.488   8.454
 1635POPC   C3B23349  38.919  32.510   8.060
 1635POPC   C4B23350  38.608  32.209   7.930
 1636POPC   NC323351  22.649  26.413   9.173
 1636POPC   PO423352  22.236  26.708   9.628
 1636POPC   GL123353  22.205  26.744   9.218
 1636POPC   GL223354  22.501  26.931   9.253
 1636POPC   C1A23355  21.985  26.733   8.833
 1636POPC   D2A23356  22.201  26.827   8.441
 1636POPC   C3A23357  22.072  26.703   8.050
 1636POPC   C4A23358  22.246  26.431   7.744
 1636POPC   C1B23359  22.434  27.048   8.846
 1636POPC   C2B23360  22.576  27.184   8.450
 1636POPC   C3B23361  22.358  27.173   8.078
 1636POPC   C4B23362  22.420  26.945   7.740
 1637POPC   NC323363   0.290  41.583   9.606
 1637POPC   PO423364  44.613  41.540   9.574
 1637POPC   GL123365  44.720  41.759   9.226
 1637POPC   GL223366  44.543  41.477   9.054
 1637POPC   C1A23367  44.947  41.703   8.826
 1637POPC   D2A23368  44.757  41.444   8.461
 1637POPC   C3A23369  44.850  41.590   8.011
 1637POPC   C4A23370   0.059  41.634   7.574
 1637POPC   C1B23371  44.161  41.335   8.861
 1637POPC   C2B23372  44.013  41.442   8.445
 1637POPC   C3B23373  44.344  41.458   8.118
 1637POPC   C4B23374  44.386  41.190   7.701
 1638POPC   NC323375  35.157   9.691   9.494
 1638POPC   PO423376  35.562  10.284   9.564
 1638POPC   GL123377  35.500   9.973   9.223
 1638POPC   GL223378  35.180  10.091   9.170
 1638POPC   C1A23379  35.310   9.697   8.876
 1638POPC   D2A23380  35.167   9.644   8.482
 1638POPC   C3A23381  35.415   9.637   8.137
 1638POPC   C4A23382  35.284   9.598   7.721
 1638POPC   C1B23383  35.351  10.191   8.773
 1638POPC   C2B23384  35.404  10.099   8.366
 1638POPC   C3B23385  35.188  10.063   7.995
 1638POPC   C4B23386  35.375  10.066   7.584
 1639POPC   NC323387   3.768   3.825   9.795
 1639POPC   PO423388   3.460   4.403   9.537
 1639POPC   GL123389   3.488   4.308   9.120
 1639POPC   GL223390   3.874   4.370   9.159
 1639POPC   C1A23391   3.335   4.455   8.714
 1639POPC   D2A23392   3.484   4.405   8.277
 1639POPC   C3A23393   3.234   4.519   7.937
 1639POPC   C4A23394   3.238   4.479   7.462
 1639POPC   C1B23395   3.796   4.255   8.716
 1639POPC   C2B23396   3.960   4.230   8.339
 1639POPC   C3B23397   3.913   4.360   7.980
 1639POPC   C4B23398   3.666   4.409   7.732
 1640POPC   NC323399   4.882  12.191   9.574
 1640POPC   PO423400   5.391  12.547   9.287
 1640POPC   GL123401   5.110  12.220   9.091
 1640POPC   GL223402   4.842  11.955   9.137
 1640POPC   C1A23403   4.949  12.227   8.682
 1640POPC   D2A23404   4.857  11.994   8.331
 1640POPC   C3A23405   5.206  12.022   8.049
 1640POPC   C4A23406   5.210  12.254   7.670
 1640POPC   C1B23407   5.102  11.751   8.860
 1640POPC   C2B23408   5.189  11.620   8.480
 1640POPC   C3B23409   4.999  11.565   8.089
 1640POPC   C4B23410   4.923  11.772   7.704
 1641POPC   NC323411  44.403   1.515   9.333
 1641POPC   PO423412  44.891   1.052   9.447
 1641POPC   GL123413  44.653   1.096   9.097
 1641POPC   GL223414  44.342   1.005   9.263
 1641POPC   C1A23415  44.692   1.219   8.658
 1641POPC   D2A23416  44.953   1.433   8.342
 1641POPC   C3A23417  44.896   1.214   7.948
 1641POPC   C4A23418  44.903   0.774   7.858
 1641POPC   C1B23419  44.226   0.989   8.808
 1641POPC   C2B23420  44.194   1.110   8.375
 1641POPC   C3B23421  44.430   0.993   8.006
 1641POPC   C4B23422  44.512   0.986   7.584
 1642POPC   NC323423   6.378  25.485   9.567
 1642POPC   PO423424   6.766  24.903   9.522
 1642POPC   GL123425   6.752  25.290   9.239
 1642POPC   GL223426   6.427  25.414   9.085
 1642POPC   C1A23427   6.904  25.526   8.884
 1642POPC   D2A23428   7.007  25.577   8.431
 1642POPC   C3A23429   6.963  25.195   8.172
 1642POPC   C4A23430   6.732  25.240   7.827
 1642POPC   C1B23431   6.479  25.247   8.721
 1642POPC   C2B23432   6.494  25.347   8.304
 1642POPC   C3B23433   6.246  25.253   7.956
 1642POPC   C4B23434   6.327  25.586   7.731
 1643POPC   NC323435  25.105  20.274   9.392
 1643POPC   PO423436  25.305  19.722   9.721
 1643POPC   GL123437  25.400  19.839   9.228
 1643POPC   GL223438  25.124  19.894   9.016
 1643POPC   C1A23439  25.603  19.966   8.804
 1643POPC   D2A23440  25.672  19.740   8.379
 1643POPC   C3A23441  25.390  19.811   8.063
 1643POPC   C4A23442  25.350  19.892   7.620
 1643POPC   C1B23443  25.160  20.214   8.720
 1643POPC   C2B23444  25.298  20.306   8.308
 1643POPC   C3B23445  25.038  20.176   7.971
 1643POPC   C4B23446  24.956  20.218   7.551
 1644POPC   NC323447  36.421  15.529   9.406
 1644POPC   PO423448  36.843  14.987   9.513
 1644POPC   GL123449  36.934  15.085   9.115
 1644POPC   GL223450  36.627  15.214   9.011
 1644POPC   C1A23451  37.020  15.322   8.714
 1644POPC   D2A23452  36.658  15.268   8.402
 1644POPC   C3A23453  36.820  15.328   7.986
 1644POPC   C4A23454  37.214  15.522   7.883
 1644POPC   C1B23455  36.792  14.864   8.707
 1644POPC   C2B23456  37.042  14.916   8.375
 1644POPC   C3B23457  36.975  14.829   8.007
 1644POPC   C4B23458  36.820  14.941   7.650
 1645POPC   NC323459  39.227  37.926  10.164
 1645POPC   PO423460  39.110  37.586   9.556
 1645POPC   GL123461  39.170  37.748   9.171
 1645POPC   GL223462  39.483  37.868   9.203
 1645POPC   C1A23463  39.126  37.610   8.763
 1645POPC   D2A23464  39.336  37.548   8.386
 1645POPC   C3A23465  39.097  37.599   8.010
 1645POPC   C4A23466  39.232  37.568   7.634
 1645POPC   C1B23467  39.369  38.074   8.821
 1645POPC   C2B23468  39.290  38.053   8.377
 1645POPC   C3B23469  39.418  37.988   7.942
 1645POPC   C4B23470  39.345  38.256   7.609
 1646POPC   NC323471   6.932  13.630   9.512
 1646POPC   PO423472   6.275  13.889   9.544
 1646POPC   GL123473   6.439  13.657   9.181
 1646POPC   GL223474   6.765  13.616   9.042
 1646POPC   C1A23475   6.279  13.554   8.789
 1646POPC   D2A23476   6.420  13.574   8.408
 1646POPC   C3A23477   6.164  13.648   8.061
 1646POPC   C4A23478   6.451  13.620   7.709
 1646POPC   C1B23479   7.028  13.555   8.670
 1646POPC   C2B23480   6.941  13.560   8.223
 1646POPC   C3B23481   6.856  13.324   7.848
 1646POPC   C4B23482   6.808  13.376   7.382
 1647POPC   NC323483  12.020  36.272  10.009
 1647POPC   PO423484  11.766  35.889   9.505
 1647POPC   GL123485  11.978  36.267   9.358
 1647POPC   GL223486  12.202  36.062   9.215
 1647POPC   C1A23487  11.999  36.487   8.926
 1647POPC   D2A23488  12.053  36.373   8.463
 1647POPC   C3A23489  11.902  36.463   8.024
 1647POPC   C4A23490  12.088  36.550   7.617
 1647POPC   C1B23491  11.948  35.953   8.863
 1647POPC   C2B23492  11.856  35.900   8.442
 1647POPC   C3B23493  12.120  35.994   8.096
 1647POPC   C4B23494  11.904  36.019   7.722
 1648POPC   NC323495   4.843  41.540   9.505
 1648POPC   PO423496   5.431  41.260   9.334
 1648POPC   GL123497   5.118  41.339   9.082
 1648POPC   GL223498   5.036  41.685   9.062
 1648POPC   C1A23499   5.262  41.371   8.654
 1648POPC   D2A23500   5.416  41.139   8.297
 1648POPC   C3A23501   5.324  41.350   7.896
 1648POPC   C4A23502   4.914  41.329   7.704
 1648POPC   C1B23503   4.821  41.880   8.754
 1648POPC   C2B23504   4.652  41.764   8.354
 1648POPC   C3B23505   4.801  41.825   7.959
 1648POPC   C4B23506   5.102  41.778   7.661
 1649POPC   NC323507  11.958   9.373   9.646
 1649POPC   PO423508  11.827  10.041   9.588
 1649POPC   GL123509  11.841   9.696   9.286
 1649POPC   GL223510  12.151   9.775   9.115
 1649POPC   C1A23511  11.804   9.520   8.876
 1649POPC   D2A23512  11.886   9.774   8.515
 1649POPC   C3A23513  11.847   9.617   8.085
 1649POPC   C4A23514  12.012   9.284   7.809
 1649POPC   C1B23515  12.389   9.843   8.727
 1649POPC   C2B23516  12.339   9.732   8.289
 1649POPC   C3B23517  12.311   9.717   7.863
 1649POPC   C4B23518  12.508   9.881   7.529
 1650POPC   NC323519  43.054  35.642   9.677
 1650POPC   PO423520  43.413  35.215   9.398
 1650POPC   GL123521  43.196  35.566   9.161
 1650POPC   GL223522  43.427  35.752   8.946
 1650POPC   C1A23523  42.961  35.567   8.750
 1650POPC   D2A23524  42.752  35.283   8.433
 1650POPC   C3A23525  42.996  35.174   8.071
 1650POPC   C4A23526  43.214  35.443   7.756
 1650POPC   C1B23527  43.416  35.324   8.743
 1650POPC   C2B23528  43.462  35.260   8.309
 1650POPC   C3B23529  43.529  35.061   7.918
 1650POPC   C4B23530  43.219  34.931   7.669
 1651POPC   NC323531  18.569  27.270   9.430
 1651POPC   PO423532  18.106  26.771   9.517
 1651POPC   GL123533  18.324  26.883   9.167
 1651POPC   GL223534  18.182  27.203   9.074
 1651POPC   C1A23535  18.284  26.723   8.764
 1651POPC   D2A23536  17.983  26.794   8.506
 1651POPC   C3A23537  18.032  26.627   8.096
 1651POPC   C4A23538  18.425  26.602   7.885
 1651POPC   C1B23539  18.517  27.164   8.762
 1651POPC   C2B23540  18.509  26.957   8.327
 1651POPC   C3B23541  18.464  27.118   7.894
 1651POPC   C4B23542  18.145  27.112   7.568
 1652POPC   NC323543   1.917   1.585   9.613
 1652POPC   PO423544   1.702   0.907   9.570
 1652POPC   GL123545   1.815   1.063   9.136
 1652POPC   GL223546   2.103   1.288   9.132
 1652POPC   C1A23547   1.854   1.198   8.680
 1652POPC   D2A23548   1.910   1.591   8.414
 1652POPC   C3A23549   1.920   1.518   7.971
 1652POPC   C4A23550   1.752   1.226   7.693
 1652POPC   C1B23551   2.362   1.259   8.784
 1652POPC   C2B23552   2.266   1.216   8.356
 1652POPC   C3B23553   2.248   1.094   7.939
 1652POPC   C4B23554   2.223   1.373   7.586
 1653POPC   NC323555   9.391  40.675   9.663
 1653POPC   PO423556   8.870  41.082   9.573
 1653POPC   GL123557   8.853  40.814   9.222
 1653POPC   GL223558   9.173  40.743   9.179
 1653POPC   C1A23559   8.849  40.842   8.757
 1653POPC   D2A23560   8.845  41.042   8.333
 1653POPC   C3A23561   9.144  40.919   8.065
 1653POPC   C4A23562   9.294  40.829   7.714
 1653POPC   C1B23563   9.260  40.518   8.835
 1653POPC   C2B23564   9.212  40.538   8.405
 1653POPC   C3B23565   9.445  40.461   8.053
 1653POPC   C4B23566   9.378  40.321   7.654
 1654POPC   NC323567  31.671   4.764   9.348
 1654POPC   PO423568  32.249   5.178   9.518
 1654POPC   GL123569  32.226   5.055   9.119
 1654POPC   GL223570  31.889   5.184   9.114
 1654POPC   C1A23571  32.429   4.979   8.705
 1654POPC   D2A23572  32.633   5.153   8.331
 1654POPC   C3A23573  32.447   5.066   7.879
 1654POPC   C4A23574  32.472   5.025   7.398
 1654POPC   C1B23575  31.905   5.064   8.683
 1654POPC   C2B23576  32.104   5.123   8.305
 1654POPC   C3B23577  31.924   5.137   7.930
 1654POPC   C4B23578  32.016   4.878   7.606
 1655POPC   NC323579  14.114  38.277   9.520
 1655POPC   PO423580  13.596  38.783   9.570
 1655POPC   GL123581  13.657  38.503   9.256
 1655POPC   GL223582  13.984  38.648   9.154
 1655POPC   C1A23583  13.681  38.376   8.834
 1655POPC   D2A23584  13.574  38.341   8.397
 1655POPC   C3A23585  13.499  38.721   8.182
 1655POPC   C4A23586  13.625  38.775   7.762
 1655POPC   C1B23587  14.170  38.575   8.729
 1655POPC   C2B23588  14.097  38.614   8.250
 1655POPC   C3B23589  14.129  38.772   7.781
 1655POPC   C4B23590  14.178  38.631   7.290
 1656POPC   NC323591  27.033  34.317   9.443
 1656POPC   PO423592  26.465  34.519   9.584
 1656POPC   GL123593  26.647  34.745   9.230
 1656POPC   GL223594  26.813  34.572   9.055
 1656POPC   C1A23595  26.716  34.967   8.775
 1656POPC   D2A23596  26.601  34.961   8.341
 1656POPC   C3A23597  26.694  34.599   8.095
 1656POPC   C4A23598  26.824  34.696   7.689
 1656POPC   C1B23599  26.799  34.462   8.622
 1656POPC   C2B23600  27.064  34.277   8.302
 1656POPC   C3B23601  27.017  34.196   7.874
 1656POPC   C4B23602  26.598  34.255   7.722
 1657POPC   NC323603  25.551  12.587   9.473
 1657POPC   PO423604  25.447  13.263   9.476
 1657POPC   GL123605  25.431  13.005   9.110
 1657POPC   GL223606  25.602  13.247   8.910
 1657POPC   C1A23607  25.510  12.813   8.668
 1657POPC   D2A23608  25.391  13.015   8.255
 1657POPC   C3A23609  25.469  12.758   7.860
 1657POPC   C4A23610  25.111  12.585   7.541
 1657POPC   C1B23611  25.178  13.223   8.699
 1657POPC   C2B23612  24.866  13.069   8.363
 1657POPC   C3B23613  24.992  12.944   7.932
 1657POPC   C4B23614  25.250  13.077   7.537
 1658POPC   NC323615  33.735  14.271   9.756
 1658POPC   PO423616  33.851  13.587   9.558
 1658POPC   GL123617  33.841  13.416   9.163
 1658POPC   GL223618  33.801  13.760   9.054
 1658POPC   C1A23619  33.676  13.388   8.732
 1658POPC   D2A23620  33.772  13.603   8.352
 1658POPC   C3A23621  33.710  13.315   8.045
 1658POPC   C4A23622  33.592  13.325   7.624
 1658POPC   C1B23623  33.990  13.950   8.684
 1658POPC   C2B23624  33.967  14.085   8.254
 1658POPC   C3B23625  34.023  13.761   7.903
 1658POPC   C4B23626  34.222  13.856   7.491
 1659POPC   NC323627  40.605  41.202   9.466
 1659POPC   PO423628  40.905  40.572   9.488
 1659POPC   GL123629  40.678  40.669   9.146
 1659POPC   GL223630  40.850  40.958   9.100
 1659POPC   C1A23631  40.593  40.720   8.712
 1659POPC   D2A23632  40.480  40.741   8.293
 1659POPC   C3A23633  40.773  40.645   7.980
 1659POPC   C4A23634  40.391  40.577   7.768
 1659POPC   C1B23635  40.959  41.107   8.724
 1659POPC   C2B23636  40.849  41.107   8.321
 1659POPC   C3B23637  40.703  41.155   7.925
 1659POPC   C4B23638  40.919  41.298   7.544
 1660POPC   NC323639   1.589  20.723   9.564
 1660POPC   PO423640   1.197  20.217   9.553
 1660POPC   GL123641   1.216  20.493   9.179
 1660POPC   GL223642   0.903  20.653   9.059
 1660POPC   C1A23643   1.303  20.661   8.736
 1660POPC   D2A23644   1.522  20.759   8.346
 1660POPC   C3A23645   1.289  20.994   8.001
 1660POPC   C4A23646   1.228  20.819   7.566
 1660POPC   C1B23647   1.001  20.232   8.818
 1660POPC   C2B23648   1.209  20.232   8.438
 1660POPC   C3B23649   1.066  20.554   8.192
 1660POPC   C4B23650   0.936  20.438   7.811
 1661POPC   NC323651   7.717  26.641   9.687
 1661POPC   PO423652   7.306  27.129   9.472
 1661POPC   GL123653   7.223  26.770   9.199
 1661POPC   GL223654   7.518  26.536   9.207
 1661POPC   C1A23655   7.168  26.718   8.739
 1661POPC   D2A23656   7.116  27.012   8.377
 1661POPC   C3A23657   7.208  26.891   7.941
 1661POPC   C4A23658   7.541  27.107   7.729
 1661POPC   C1B23659   7.664  26.549   8.771
 1661POPC   C2B23660   7.511  26.666   8.344
 1661POPC   C3B23661   7.542  26.508   7.940
 1661POPC   C4B23662   7.888  26.551   7.677
 1662POPC   NC323663  40.818  28.076   9.495
 1662POPC   PO423664  40.290  28.325   9.776
 1662POPC   GL123665  40.411  28.402   9.298
 1662POPC   GL223666  40.767  28.511   9.190
 1662POPC   C1A23667  40.506  28.206   8.867
 1662POPC   D2A23668  40.733  28.287   8.478
 1662POPC   C3A23669  40.545  28.359   8.082
 1662POPC   C4A23670  40.706  28.310   7.703
 1662POPC   C1B23671  40.922  28.682   8.769
 1662POPC   C2B23672  41.137  28.731   8.372
 1662POPC   C3B23673  40.991  28.683   7.960
 1662POPC   C4B23674  41.232  28.760   7.628
 1663POPC   NC323675  28.591  19.381   9.259
 1663POPC   PO423676  28.280  18.801   9.564
 1663POPC   GL123677  28.293  18.985   9.193
 1663POPC   GL223678  28.050  19.267   9.146
 1663POPC   C1A23679  28.444  18.861   8.830
 1663POPC   D2A23680  28.292  18.832   8.449
 1663POPC   C3A23681  28.546  18.813   8.066
 1663POPC   C4A23682  28.303  18.916   7.688
 1663POPC   C1B23683  28.192  19.295   8.725
 1663POPC   C2B23684  28.549  19.253   8.433
 1663POPC   C3B23685  28.507  19.344   8.007
 1663POPC   C4B23686  28.121  19.441   7.753
 1664POPC   NC323687  13.703  17.907   9.501
 1664POPC   PO423688  13.857  18.567   9.353
 1664POPC   GL123689  13.723  18.263   9.076
 1664POPC   GL223690  13.395  18.120   9.135
 1664POPC   C1A23691  13.888  18.281   8.669
 1664POPC   D2A23692  13.878  18.500   8.308
 1664POPC   C3A23693  13.838  18.255   7.968
 1664POPC   C4A23694  13.627  18.506   7.675
 1664POPC   C1B23695  13.433  18.000   8.732
 1664POPC   C2B23696  13.537  18.087   8.352
 1664POPC   C3B23697  13.355  18.146   7.971
 1664POPC   C4B23698  13.439  18.042   7.570
 1665POPC   NC323699   0.690   6.399   9.489
 1665POPC   PO423700   0.435   7.031   9.537
 1665POPC   GL123701   0.487   6.816   9.197
 1665POPC   GL223702   0.829   6.823   9.199
 1665POPC   C1A23703   0.418   6.512   8.862
 1665POPC   D2A23704   0.128   6.325   8.537
 1665POPC   C3A23705   0.347   6.336   8.129
 1665POPC   C4A23706   0.265   6.559   7.743
 1665POPC   C1B23707   0.750   6.976   8.789
 1665POPC   C2B23708   0.641   6.741   8.425
 1665POPC   C3B23709   0.760   6.661   8.014
 1665POPC   C4B23710   0.647   6.857   7.644
 1666POPC   NC323711  12.859  33.386   9.476
 1666POPC   PO423712  12.514  32.744   9.569
 1666POPC   GL123713  12.673  32.957   9.244
 1666POPC   GL223714  13.034  32.948   9.237
 1666POPC   C1A23715  12.733  33.089   8.842
 1666POPC   D2A23716  12.897  33.078   8.472
 1666POPC   C3A23717  12.625  33.070   8.170
 1666POPC   C4A23718  12.757  33.009   7.763
 1666POPC   C1B23719  13.225  32.866   8.822
 1666POPC   C2B23720  13.391  32.995   8.402
 1666POPC   C3B23721  13.221  33.121   7.990
 1666POPC   C4B23722  13.158  33.199   7.514
 1667POPC   NC323723   3.437  15.540   9.490
 1667POPC   PO423724   3.812  14.962   9.466
 1667POPC   GL123725   3.634  15.105   9.113
 1667POPC   GL223726   3.743  15.432   9.096
 1667POPC   C1A23727   3.506  14.994   8.708
 1667POPC   D2A23728   3.573  15.098   8.300
 1667POPC   C3A23729   3.463  14.772   7.996
 1667POPC   C4A23730   3.411  14.839   7.565
 1667POPC   C1B23731   3.585  15.490   8.716
 1667POPC   C2B23732   3.853  15.542   8.404
 1667POPC   C3B23733   3.866  15.413   8.023
 1667POPC   C4B23734   3.451  15.314   7.799
 1668POPC   NC323735  29.473  21.791   9.498
 1668POPC   PO423736  28.828  21.467   9.431
 1668POPC   GL123737  29.106  21.253   9.083
 1668POPC   GL223738  29.377  20.976   9.159
 1668POPC   C1A23739  29.045  21.351   8.649
 1668POPC   D2A23740  29.156  21.560   8.269
 1668POPC   C3A23741  29.137  21.378   7.870
 1668POPC   C4A23742  29.005  21.412   7.453
 1668POPC   C1B23743  29.213  20.881   8.725
 1668POPC   C2B23744  29.313  21.048   8.275
 1668POPC   C3B23745  29.500  21.013   7.813
 1668POPC   C4B23746  29.357  21.077   7.344
 1669POPC   NC323747  27.236  20.804   9.408
 1669POPC   PO423748  26.639  20.484   9.485
 1669POPC   GL123749  26.455  20.511   9.119
 1669POPC   GL223750  26.482  20.892   9.189
 1669POPC   C1A23751  26.575  20.407   8.705
 1669POPC   D2A23752  27.027  20.441   8.529
 1669POPC   C3A23753  27.064  20.565   8.093
 1669POPC   C4A23754  27.043  20.744   7.686
 1669POPC   C1B23755  26.788  20.858   8.837
 1669POPC   C2B23756  26.685  20.803   8.385
 1669POPC   C3B23757  26.702  21.019   7.971
 1669POPC   C4B23758  26.612  20.937   7.507
 1670POPC   NC323759  10.925  44.740   9.590
 1670POPC   PO423760  11.446   0.121   9.482
 1670POPC   GL123761  11.470  44.842   9.135
 1670POPC   GL223762  11.223  44.598   9.196
 1670POPC   C1A23763  11.576  44.843   8.705
 1670POPC   D2A23764  11.496   0.026   8.285
 1670POPC   C3A23765  11.313  44.685   8.025
 1670POPC   C4A23766  11.588  44.410   7.816
 1670POPC   C1B23767  11.368  44.377   8.862
 1670POPC   C2B23768  11.329  44.291   8.424
 1670POPC   C3B23769  10.926  44.350   8.210
 1670POPC   C4B23770  10.793  44.639   7.862
 1671POPC   NC323771  28.056   8.682   9.421
 1671POPC   PO423772  28.458   9.201   9.754
 1671POPC   GL123773  28.446   9.183   9.265
 1671POPC   GL223774  28.517   8.849   9.227
 1671POPC   C1A23775  28.304   9.108   8.830
 1671POPC   D2A23776  28.268   8.936   8.416
 1671POPC   C3A23777  28.178   8.925   7.982
 1671POPC   C4A23778  28.166   9.255   7.654
 1671POPC   C1B23779  28.695   8.773   8.818
 1671POPC   C2B23780  28.710   8.670   8.359
 1671POPC   C3B23781  28.636   8.607   7.901
 1671POPC   C4B23782  28.377   8.750   7.531
 1672POPC   NC323783  39.211  22.362   9.588
 1672POPC   PO423784  39.177  21.702   9.315
 1672POPC   GL123785  39.293  21.981   9.052
 1672POPC   GL223786  39.326  22.327   9.105
 1672POPC   C1A23787  39.330  21.894   8.640
 1672POPC   D2A23788  39.189  21.630   8.329
 1672POPC   C3A23789  39.105  21.903   8.026
 1672POPC   C4A23790  39.337  22.187   7.791
 1672POPC   C1B23791  39.096  22.340   8.732
 1672POPC   C2B23792  39.242  22.352   8.302
 1672POPC   C3B23793  38.966  22.491   7.977
 1672POPC   C4B23794  38.951  22.468   7.526
 1673POPC   NC323795  20.442   9.469   9.425
 1673POPC   PO423796  20.319  10.154   9.475
 1673POPC   GL123797  20.296   9.897   9.107
 1673POPC   GL223798  20.635   9.867   9.092
 1673POPC   C1A23799  20.349   9.599   8.743
 1673POPC   D2A23800  20.596   9.519   8.345
 1673POPC   C3A23801  20.400   9.638   7.936
 1673POPC   C4A23802  20.522   9.737   7.456
 1673POPC   C1B23803  20.730   9.935   8.648
 1673POPC   C2B23804  20.685  10.009   8.195
 1673POPC   C3B23805  20.886   9.822   7.814
 1673POPC   C4B23806  21.220   9.914   7.504
 1674POPC   NC323807  36.056   0.571   9.447
 1674POPC   PO423808  36.440   0.075   9.571
 1674POPC   GL123809  36.336   0.242   9.107
 1674POPC   GL223810  35.982   0.419   8.971
 1674POPC   C1A23811  36.280   0.189   8.631
 1674POPC   D2A23812  35.902   0.247   8.336
 1674POPC   C3A23813  35.978   0.441   7.936
 1674POPC   C4A23814  35.938   0.297   7.480
 1674POPC   C1B23815  36.322   0.715   8.860
 1674POPC   C2B23816  36.392   0.930   8.475
 1674POPC   C3B23817  36.333   0.878   8.007
 1674POPC   C4B23818  36.298   0.638   7.600
 1675POPC   NC323819  40.402  32.141   9.533
 1675POPC   PO423820  39.721  32.301   9.459
 1675POPC   GL123821  39.972  32.055   9.210
 1675POPC   GL223822  40.178  32.348   9.117
 1675POPC   C1A23823  40.011  32.007   8.772
 1675POPC   D2A23824  40.059  32.294   8.467
 1675POPC   C3A23825  39.834  32.169   8.166
 1675POPC   C4A23826  39.877  32.278   7.791
 1675POPC   C1B23827  40.475  32.244   8.790
 1675POPC   C2B23828  40.513  32.073   8.391
 1675POPC   C3B23829  40.364  32.177   8.001
 1675POPC   C4B23830  40.187  31.883   7.746
 1676POPC   NC323831  39.054  26.589   9.576
 1676POPC   PO423832  39.522  26.195   9.253
 1676POPC   GL123833  39.497  26.644   9.213
 1676POPC   GL223834  39.250  26.913   9.238
 1676POPC   C1A23835  39.558  26.888   8.838
 1676POPC   D2A23836  39.532  26.783   8.420
 1676POPC   C3A23837  39.655  27.068   8.132
 1676POPC   C4A23838  39.492  27.033   7.760
 1676POPC   C1B23839  38.998  26.852   8.860
 1676POPC   C2B23840  39.050  26.931   8.437
 1676POPC   C3B23841  39.125  26.799   8.032
 1676POPC   C4B23842  38.995  27.045   7.675
 1677POPC   NC323843  40.225   6.709   9.629
 1677POPC   PO423844  39.620   6.317   9.528
 1677POPC   GL123845  39.726   6.540   9.107
 1677POPC   GL223846  40.062   6.735   9.142
 1677POPC   C1A23847  40.007   6.403   8.725
 1677POPC   D2A23848  40.033   6.569   8.297
 1677POPC   C3A23849  40.042   6.389   7.879
 1677POPC   C4A23850  39.765   6.523   7.541
 1677POPC   C1B23851  39.893   6.896   8.754
 1677POPC   C2B23852  39.751   6.994   8.349
 1677POPC   C3B23853  39.852   6.925   7.918
 1677POPC   C4B23854  39.726   7.027   7.467
 1678POPC   NC323855  36.719  13.835   9.627
 1678POPC   PO423856  37.313  13.810   9.270
 1678POPC   GL123857  36.968  13.569   9.194
 1678POPC   GL223858  36.788  13.847   9.070
 1678POPC   C1A23859  36.944  13.384   8.785
 1678POPC   D2A23860  37.213  13.378   8.430
 1678POPC   C3A23861  37.065  13.425   8.008
 1678POPC   C4A23862  37.006  13.841   7.771
 1678POPC   C1B23863  36.492  13.527   8.982
 1678POPC   C2B23864  36.365  13.465   8.591
 1678POPC   C3B23865  36.627  13.550   8.223
 1678POPC   C4B23866  36.570  13.574   7.782
 1679POPC   NC323867   7.755  23.113   9.450
 1679POPC   PO423868   8.456  22.936   9.555
 1679POPC   GL123869   8.192  22.944   9.220
 1679POPC   GL223870   8.242  23.291   9.215
 1679POPC   C1A23871   8.056  22.855   8.808
 1679POPC   D2A23872   8.327  22.936   8.479
 1679POPC   C3A23873   8.164  22.882   8.095
 1679POPC   C4A23874   8.302  23.012   7.714
 1679POPC   C1B23875   8.206  23.360   8.774
 1679POPC   C2B23876   7.936  23.269   8.405
 1679POPC   C3B23877   8.008  23.343   7.947
 1679POPC   C4B23878   8.009  23.345   7.468
 1680POPC   NC323879  11.476  12.234   9.384
 1680POPC   PO423880  11.080  11.630   9.419
 1680POPC   GL123881  11.305  11.836   9.090
 1680POPC   GL223882  11.593  12.003   8.945
 1680POPC   C1A23883  11.155  12.065   8.706
 1680POPC   D2A23884  11.180  12.272   8.282
 1680POPC   C3A23885  11.121  11.976   7.917
 1680POPC   C4A23886  11.195  11.886   7.438
 1680POPC   C1B23887  11.703  12.467   8.799
 1680POPC   C2B23888  11.619  12.644   8.382
 1680POPC   C3B23889  11.552  12.491   7.975
 1680POPC   C4B23890  11.520  12.190   7.650
 1681POPC   NC323891  35.739  37.099   9.443
 1681POPC   PO423892  35.175  36.800   9.707
 1681POPC   GL123893  35.359  36.755   9.270
 1681POPC   GL223894  35.243  37.071   9.204
 1681POPC   C1A23895  35.540  36.894   8.834
 1681POPC   D2A23896  35.651  37.135   8.441
 1681POPC   C3A23897  35.480  36.913   8.085
 1681POPC   C4A23898  35.410  36.784   7.695
 1681POPC   C1B23899  35.165  37.231   8.789
 1681POPC   C2B23900  35.143  37.087   8.406
 1681POPC   C3B23901  34.988  37.243   8.030
 1681POPC   C4B23902  34.722  37.378   7.681
 1682POPC   NC323903   7.535  15.517   9.290
 1682POPC   PO423904   7.110  15.039   9.471
 1682POPC   GL123905   7.206  15.180   9.095
 1682POPC   GL223906   6.999  15.471   9.161
 1682POPC   C1A23907   7.399  15.209   8.682
 1682POPC   D2A23908   7.180  15.057   8.317
 1682POPC   C3A23909   7.425  14.895   7.988
 1682POPC   C4A23910   7.392  14.933   7.549
 1682POPC   C1B23911   6.904  15.322   8.714
 1682POPC   C2B23912   7.130  15.582   8.423
 1682POPC   C3B23913   7.295  15.469   8.051
 1682POPC   C4B23914   6.971  15.474   7.767
 1683POPC   NC323915   9.005  28.118   9.605
 1683POPC   PO423916   8.706  28.646   9.391
 1683POPC   GL123917   8.982  28.403   9.192
 1683POPC   GL223918   8.711  28.168   9.163
 1683POPC   C1A23919   9.160  28.245   8.838
 1683POPC   D2A23920   9.109  28.457   8.445
 1683POPC   C3A23921   9.084  28.192   8.102
 1683POPC   C4A23922   9.275  28.148   7.717
 1683POPC   C1B23923   8.676  28.397   8.778
 1683POPC   C2B23924   8.685  28.177   8.435
 1683POPC   C3B23925   8.569  28.089   8.040
 1683POPC   C4B23926   8.774  28.278   7.697
 1684POPC   NC323927  42.710  30.779   9.453
 1684POPC   PO423928  43.288  30.365   9.435
 1684POPC   GL123929  43.070  30.610   9.147
 1684POPC   GL223930  42.746  30.396   9.115
 1684POPC   C1A23931  42.982  30.898   8.789
 1684POPC   D2A23932  43.253  30.916   8.435
 1684POPC   C3A23933  43.116  31.047   8.021
 1684POPC   C4A23934  43.091  30.882   7.593
 1684POPC   C1B23935  42.918  30.406   8.709
 1684POPC   C2B23936  43.031  30.247   8.348
 1684POPC   C3B23937  43.167  30.453   8.022
 1684POPC   C4B23938  43.063  30.323   7.627
 1685POPC   NC323939  24.082  44.978   9.451
 1685POPC   PO423940  24.575   0.374   9.802
 1685POPC   GL123941  24.636   0.292   9.324
 1685POPC   GL223942  24.351   0.188   9.065
 1685POPC   C1A23943  24.625   0.588   8.943
 1685POPC   D2A23944  24.565   0.438   8.509
 1685POPC   C3A23945  24.554   0.691   8.138
 1685POPC   C4A23946  24.722   0.633   7.739
 1685POPC   C1B23947  24.121   0.463   8.778
 1685POPC   C2B23948  24.051   0.307   8.387
 1685POPC   C3B23949  24.273   0.235   8.012
 1685POPC   C4B23950  24.041   0.101   7.664
 1686POPC   NC323951  14.117  25.672   9.446
 1686POPC   PO423952  14.516  26.110   9.764
 1686POPC   GL123953  14.471  25.996   9.222
 1686POPC   GL223954  14.488  25.700   9.090
 1686POPC   C1A23955  14.200  25.999   8.777
 1686POPC   D2A23956  14.179  26.095   8.296
 1686POPC   C3A23957  14.189  25.766   7.933
 1686POPC   C4A23958  14.505  25.742   7.546
 1686POPC   C1B23959  14.708  26.019   8.781
 1686POPC   C2B23960  14.666  26.227   8.383
 1686POPC   C3B23961  14.615  26.069   7.952
 1686POPC   C4B23962  14.704  26.235   7.491
 1687POPC   NC323963   3.225   3.067   9.434
 1687POPC   PO423964   3.731   2.606   9.495
 1687POPC   GL123965   3.623   2.873   9.156
 1687POPC   GL223966   3.356   2.637   9.091
 1687POPC   C1A23967   3.530   2.953   8.707
 1687POPC   D2A23968   3.637   3.050   8.277
 1687POPC   C3A23969   3.547   2.759   7.930
 1687POPC   C4A23970   3.398   2.796   7.464
 1687POPC   C1B23971   3.693   2.479   8.826
 1687POPC   C2B23972   3.657   2.245   8.468
 1687POPC   C3B23973   3.788   2.277   8.069
 1687POPC   C4B23974   3.927   2.440   7.700
 1688POPC   NC323975   5.671   7.897   9.589
 1688POPC   PO423976   5.932   7.293   9.655
 1688POPC   GL123977   5.942   7.542   9.257
 1688POPC   GL223978   5.629   7.636   9.141
 1688POPC   C1A23979   6.016   7.488   8.800
 1688POPC   D2A23980   5.830   7.408   8.379
 1688POPC   C3A23981   6.064   7.228   7.994
 1688POPC   C4A23982   6.090   7.451   7.624
 1688POPC   C1B23983   5.662   7.838   8.752
 1688POPC   C2B23984   5.551   7.930   8.358
 1688POPC   C3B23985   5.697   7.710   7.977
 1688POPC   C4B23986   5.569   7.602   7.564
 1689POPC   NC323987   0.878  29.222   9.549
 1689POPC   PO423988   0.234  28.818   9.579
 1689POPC   GL123989   0.496  29.014   9.259
 1689POPC   GL223990   0.383  29.365   9.274
 1689POPC   C1A23991   0.640  29.110   8.814
 1689POPC   D2A23992   0.660  28.866   8.408
 1689POPC   C3A23993   0.462  28.953   8.029
 1689POPC   C4A23994   0.519  29.245   7.710
 1689POPC   C1B23995   0.125  29.564   8.951
 1689POPC   C2B23996   0.337  29.455   8.579
 1689POPC   C3B23997   0.381  29.457   8.161
 1689POPC   C4B23998   0.059  29.527   7.874
 1690POPC   NC323999  37.119  21.293   9.804
 1690POPC   PO424000  36.492  21.237   9.652
 1690POPC   GL124001  36.656  21.338   9.252
 1690POPC   GL224002  37.040  21.340   9.286
 1690POPC   C1A24003  36.805  21.589   8.893
 1690POPC   D2A24004  37.141  21.632   8.581
 1690POPC   C3A24005  37.019  21.565   8.161
 1690POPC   C4A24006  36.906  21.523   7.754
 1690POPC   C1B24007  37.134  21.197   8.870
 1690POPC   C2B24008  37.130  21.127   8.422
 1690POPC   C3B24009  37.257  21.134   7.958
 1690POPC   C4B24010  37.198  21.177   7.498
 1691POPC   NC324011   1.393  22.435   9.500
 1691POPC   PO424012   1.413  21.817   9.373
 1691POPC   GL124013   1.274  22.133   9.065
 1691POPC   GL224014   1.018  22.402   9.169
 1691POPC   C1A24015   1.137  21.960   8.663
 1691POPC   D2A24016   1.192  21.924   8.204
 1691POPC   C3A24017   1.313  21.849   7.760
 1691POPC   C4A24018   1.404  22.147   7.445
 1691POPC   C1B24019   1.081  22.467   8.710
 1691POPC   C2B24020   0.916  22.343   8.316
 1691POPC   C3B24021   1.049  22.287   7.868
 1691POPC   C4B24022   0.912  22.284   7.416
 1692POPC   NC324023  11.665   6.994   9.480
 1692POPC   PO424024  12.014   7.504   9.639
 1692POPC   GL124025  12.297   7.640   9.294
 1692POPC   GL224026  12.036   7.573   9.079
 1692POPC   C1A24027  12.491   7.648   8.861
 1692POPC   D2A24028  12.630   7.623   8.426
 1692POPC   C3A24029  12.328   7.367   8.173
 1692POPC   C4A24030  12.051   7.304   7.803
 1692POPC   C1B24031  12.062   7.458   8.628
 1692POPC   C2B24032  11.821   7.491   8.218
 1692POPC   C3B24033  11.542   7.290   7.881
 1692POPC   C4B24034  11.572   7.144   7.432
 1693POPC   NC324035  20.085  23.780   9.458
 1693POPC   PO424036  20.712  23.510   9.543
 1693POPC   GL124037  20.580  23.697   9.166
 1693POPC   GL224038  20.694  23.394   9.031
 1693POPC   C1A24039  20.437  23.811   8.733
 1693POPC   D2A24040  20.441  24.023   8.316
 1693POPC   C3A24041  20.676  23.811   7.979
 1693POPC   C4A24042  20.587  23.692   7.558
 1693POPC   C1B24043  20.956  23.348   8.694
 1693POPC   C2B24044  21.005  23.512   8.295
 1693POPC   C3B24045  20.943  23.320   7.910
 1693POPC   C4B24046  20.787  23.244   7.504
 1694POPC   NC324047   8.494   2.016   9.549
 1694POPC   PO424048   7.820   1.891   9.513
 1694POPC   GL124049   8.099   1.985   9.141
 1694POPC   GL224050   8.309   2.269   9.155
 1694POPC   C1A24051   8.154   2.158   8.693
 1694POPC   D2A24052   8.190   1.892   8.349
 1694POPC   C3A24053   8.292   2.045   7.958
 1694POPC   C4A24054   8.031   1.814   7.681
 1694POPC   C1B24055   8.638   2.269   8.819
 1694POPC   C2B24056   8.639   2.117   8.404
 1694POPC   C3B24057   8.699   2.377   8.065
 1694POPC   C4B24058   8.666   2.336   7.663
 1695POPC   NC324059   9.111  30.765   9.469
 1695POPC   PO424060   9.573  30.368   9.398
 1695POPC   GL124061   9.191  30.414   9.109
 1695POPC   GL224062   8.810  30.591   9.106
 1695POPC   C1A24063   9.048  30.438   8.693
 1695POPC   D2A24064   9.052  30.717   8.336
 1695POPC   C3A24065   9.063  30.460   7.994
 1695POPC   C4A24066   9.179  30.504   7.604
 1695POPC   C1B24067   8.757  30.862   8.742
 1695POPC   C2B24068   8.543  30.912   8.352
 1695POPC   C3B24069   8.692  30.820   7.952
 1695POPC   C4B24070   9.147  30.947   7.847
 1696POPC   NC324071   2.296  37.922   9.354
 1696POPC   PO424072   1.836  37.450   9.454
 1696POPC   GL124073   1.949  37.641   9.094
 1696POPC   GL224074   1.699  37.916   9.088
 1696POPC   C1A24075   2.174  37.550   8.717
 1696POPC   D2A24076   2.051  37.385   8.332
 1696POPC   C3A24077   2.265  37.447   7.931
 1696POPC   C4A24078   2.053  37.641   7.629
 1696POPC   C1B24079   1.968  38.037   8.748
 1696POPC   C2B24080   1.890  37.855   8.355
 1696POPC   C3B24081   1.690  37.687   7.979
 1696POPC   C4B24082   1.595  37.858   7.514
 1697POPC   NC324083  16.580  23.555   9.683
 1697POPC   PO424084  17.067  24.054   9.547
 1697POPC   GL124085  16.870  23.896   9.166
 1697POPC   GL224086  16.742  23.550   9.204
 1697POPC   C1A24087  16.962  23.984   8.712
 1697POPC   D2A24088  16.732  23.863   8.330
 1697POPC   C3A24089  16.708  23.978   7.897
 1697POPC   C4A24090  16.736  23.926   7.419
 1697POPC   C1B24091  16.598  23.622   8.782
 1697POPC   C2B24092  16.506  23.422   8.389
 1697POPC   C3B24093  16.521  23.459   7.936
 1697POPC   C4B24094  16.714  23.415   7.538
 1698POPC   NC324095   9.606  36.382  10.162
 1698POPC   PO424096   9.937  36.364   9.740
 1698POPC   GL124097   9.910  36.224   9.275
 1698POPC   GL224098  10.076  35.921   9.129
 1698POPC   C1A24099   9.820  36.232   8.792
 1698POPC   D2A24100   9.885  36.485   8.374
 1698POPC   C3A24101   9.742  36.276   7.981
 1698POPC   C4A24102   9.314  36.105   7.864
 1698POPC   C1B24103  10.245  35.868   8.690
 1698POPC   C2B24104  10.456  35.747   8.258
 1698POPC   C3B24105  10.209  35.817   7.867
 1698POPC   C4B24106   9.733  35.813   7.747
 1699POPC   NC324107  32.644   4.926   9.514
 1699POPC   PO424108  33.339   5.090   9.588
 1699POPC   GL124109  33.087   4.995   9.195
 1699POPC   GL224110  32.973   5.313   9.058
 1699POPC   C1A24111  32.938   4.900   8.740
 1699POPC   D2A24112  33.139   4.870   8.315
 1699POPC   C3A24113  32.966   5.070   7.947
 1699POPC   C4A24114  32.992   5.225   7.518
 1699POPC   C1B24115  33.331   5.222   8.772
 1699POPC   C2B24116  33.561   5.153   8.392
 1699POPC   C3B24117  33.449   5.257   7.959
 1699POPC   C4B24118  33.419   5.488   7.537
 1700POPC   NC324119  29.897  15.956   9.573
 1700POPC   PO424120  30.434  16.181   9.443
 1700POPC   GL124121  30.092  16.041   9.115
 1700POPC   GL224122  30.008  15.673   9.163
 1700POPC   C1A24123  29.687  15.953   8.871
 1700POPC   D2A24124  29.566  15.880   8.426
 1700POPC   C3A24125  29.735  16.204   8.126
 1700POPC   C4A24126  29.920  16.205   7.721
 1700POPC   C1B24127  30.006  15.530   8.730
 1700POPC   C2B24128  30.043  15.574   8.280
 1700POPC   C3B24129  29.878  15.725   7.887
 1700POPC   C4B24130  29.850  15.790   7.418
 1701POPC   NC324131  21.960  15.613   9.543
 1701POPC   PO424132  22.587  15.789   9.343
 1701POPC   GL124133  22.211  15.827   9.099
 1701POPC   GL224134  21.981  16.077   9.209
 1701POPC   C1A24135  22.059  15.893   8.670
 1701POPC   D2A24136  22.202  15.733   8.281
 1701POPC   C3A24137  22.368  15.976   7.979
 1701POPC   C4A24138  22.511  15.837   7.605
 1701POPC   C1B24139  21.706  16.191   8.862
 1701POPC   C2B24140  21.671  16.164   8.414
 1701POPC   C3B24141  21.788  16.014   8.028
 1701POPC   C4B24142  21.999  16.146   7.669
 1702POPC   NC324143  21.716  12.789   9.564
 1702POPC   PO424144  21.026  12.718   9.547
 1702POPC   GL124145  21.265  12.915   9.168
 1702POPC   GL224146  21.600  13.068   9.121
 1702POPC   C1A24147  21.491  12.714   8.777
 1702POPC   D2A24148  21.343  12.639   8.330
 1702POPC   C3A24149  21.476  12.779   7.901
 1702POPC   C4A24150  21.395  12.693   7.448
 1702POPC   C1B24151  21.385  13.218   8.714
 1702POPC   C2B24152  21.371  13.172   8.244
 1702POPC   C3B24153  21.582  13.279   7.844
 1702POPC   C4B24154  21.760  13.027   7.488
 1703POPC   NC324155  21.784  26.740   9.552
 1703POPC   PO424156  21.086  26.832   9.457
 1703POPC   GL124157  21.407  26.784   9.170
 1703POPC   GL224158  21.464  26.434   9.293
 1703POPC   C1A24159  21.474  26.883   8.698
 1703POPC   D2A24160  21.201  26.884   8.291
 1703POPC   C3A24161  21.371  26.983   7.843
 1703POPC   C4A24162  21.177  27.026   7.415
 1703POPC   C1B24163  21.492  26.394   8.858
 1703POPC   C2B24164  21.379  26.402   8.447
 1703POPC   C3B24165  21.570  26.595   8.105
 1703POPC   C4B24166  21.564  26.481   7.683
 1704POPC   NC324167  37.701  42.659   9.783
 1704POPC   PO424168  37.295  42.150   9.517
 1704POPC   GL124169  37.609  42.110   9.162
 1704POPC   GL224170  37.803  41.818   9.107
 1704POPC   C1A24171  37.753  42.167   8.707
 1704POPC   D2A24172  37.754  42.528   8.399
 1704POPC   C3A24173  37.778  42.554   7.966
 1704POPC   C4A24174  38.067  42.397   7.609
 1704POPC   C1B24175  37.439  41.759   8.833
 1704POPC   C2B24176  37.359  41.960   8.462
 1704POPC   C3B24177  37.625  42.060   8.147
 1704POPC   C4B24178  37.671  42.102   7.723
 1705POPC   NC324179  17.453  18.813   9.529
 1705POPC   PO424180  17.593  18.145   9.558
 1705POPC   GL124181  17.592  18.448   9.213
 1705POPC   GL224182  17.923  18.500   9.078
 1705POPC   C1A24183  17.477  18.534   8.785
 1705POPC   D2A24184  17.435  18.294   8.409
 1705POPC   C3A24185  17.471  18.480   8.005
 1705POPC   C4A24186  17.248  18.462   7.636
 1705POPC   C1B24187  17.755  18.113   8.849
 1705POPC   C2B24188  17.848  17.991   8.451
 1705POPC   C3B24189  17.633  17.948   8.057
 1705POPC   C4B24190  17.733  18.130   7.704
 1706POPC   NC324191  44.627  26.614   9.529
 1706POPC   PO424192  44.376  27.333   9.424
 1706POPC   GL124193  44.496  26.974   9.118
 1706POPC   GL224194  44.505  26.568   9.055
 1706POPC   C1A24195  44.418  26.876   8.676
 1706POPC   D2A24196  44.583  26.967   8.282
 1706POPC   C3A24197  44.343  26.911   7.920
 1706POPC   C4A24198  44.450  26.550   7.653
 1706POPC   C1B24199  44.885  26.730   8.829
 1706POPC   C2B24200   0.058  26.879   8.467
 1706POPC   C3B24201   0.025  26.760   8.082
 1706POPC   C4B24202   0.043  26.964   7.781
 1707POPC   NC324203  11.781  25.889   9.594
 1707POPC   PO424204  12.211  26.365   9.399
 1707POPC   GL124205  12.078  26.028   9.163
 1707POPC   GL224206  11.845  25.782   9.104
 1707POPC   C1A24207  12.213  26.011   8.770
 1707POPC   D2A24208  12.133  26.235   8.415
 1707POPC   C3A24209  12.142  25.996   8.037
 1707POPC   C4A24210  12.202  25.993   7.620
 1707POPC   C1B24211  11.701  25.834   8.701
 1707POPC   C2B24212  11.676  25.981   8.288
 1707POPC   C3B24213  11.713  25.755   7.911
 1707POPC   C4B24214  11.631  25.767   7.490
 1708POPC   NC324215  36.934  31.248   9.521
 1708POPC   PO424216  36.565  31.626   9.151
 1708POPC   GL124217  36.823  31.310   8.999
 1708POPC   GL224218  37.159  31.272   9.069
 1708POPC   C1A24219  36.961  31.455   8.609
 1708POPC   D2A24220  36.960  31.805   8.308
 1708POPC   C3A24221  36.960  31.564   7.936
 1708POPC   C4A24222  36.656  31.289   7.739
 1708POPC   C1B24223  37.269  31.057   8.728
 1708POPC   C2B24224  37.095  31.039   8.323
 1708POPC   C3B24225  37.208  31.127   7.908
 1708POPC   C4B24226  37.139  31.350   7.501
 1709POPC   NC324227  35.241  14.804   9.425
 1709POPC   PO424228  35.477  14.186   9.674
 1709POPC   GL124229  35.442  14.286   9.235
 1709POPC   GL224230  35.110  14.224   9.261
 1709POPC   C1A24231  35.494  14.453   8.786
 1709POPC   D2A24232  35.684  14.276   8.379
 1709POPC   C3A24233  35.591  14.498   7.987
 1709POPC   C4A24234  35.358  14.531   7.564
 1709POPC   C1B24235  35.087  14.098   8.831
 1709POPC   C2B24236  35.175  14.256   8.420
 1709POPC   C3B24237  35.306  14.097   8.044
 1709POPC   C4B24238  35.176  14.065   7.639
 1710POPC   NC324239  40.872  12.273   9.465
 1710POPC   PO424240  40.535  11.620   9.605
 1710POPC   GL124241  40.670  11.728   9.206
 1710POPC   GL224242  40.873  11.988   8.994
 1710POPC   C1A24243  40.610  11.574   8.796
 1710POPC   D2A24244  40.506  11.845   8.450
 1710POPC   C3A24245  40.753  11.822   8.088
 1710POPC   C4A24246  40.691  11.937   7.675
 1710POPC   C1B24247  40.925  12.446   8.827
 1710POPC   C2B24248  40.998  12.624   8.396
 1710POPC   C3B24249  40.867  12.456   7.974
 1710POPC   C4B24250  40.874  12.380   7.523
 1711POPC   NC324251  41.646  31.828   9.572
 1711POPC   PO424252  41.247  32.276   9.446
 1711POPC   GL124253  41.614  32.133   9.164
 1711POPC   GL224254  41.947  31.904   9.155
 1711POPC   C1A24255  41.692  32.365   8.807
 1711POPC   D2A24256  41.398  32.405   8.479
 1711POPC   C3A24257  41.616  32.439   8.121
 1711POPC   C4A24258  41.571  32.426   7.725
 1711POPC   C1B24259  41.824  31.863   8.734
 1711POPC   C2B24260  41.602  31.947   8.325
 1711POPC   C3B24261  41.778  31.965   7.886
 1711POPC   C4B24262  41.955  31.836   7.461
 1712POPC   NC324263  11.125  28.053   9.825
 1712POPC   PO424264  11.519  28.491   9.550
 1712POPC   GL124265  11.344  28.373   9.191
 1712POPC   GL224266  11.425  28.089   9.204
 1712POPC   C1A24267  11.218  28.557   8.803
 1712POPC   D2A24268  10.968  28.424   8.461
 1712POPC   C3A24269  11.220  28.394   8.097
 1712POPC   C4A24270  11.368  28.529   7.723
 1712POPC   C1B24271  11.196  28.042   8.797
 1712POPC   C2B24272  11.345  28.009   8.407
 1712POPC   C3B24273  11.158  27.893   8.014
 1712POPC   C4B24274  11.327  28.015   7.687
 1713POPC   NC324275   1.986   5.674   9.697
 1713POPC   PO424276   1.749   6.264   9.512
 1713POPC   GL124277   1.951   6.040   9.199
 1713POPC   GL224278   2.022   5.718   9.187
 1713POPC   C1A24279   2.141   6.088   8.814
 1713POPC   D2A24280   1.968   6.144   8.423
 1713POPC   C3A24281   2.139   6.027   8.066
 1713POPC   C4A24282   1.893   5.831   7.810
 1713POPC   C1B24283   2.254   5.593   8.827
 1713POPC   C2B24284   2.143   5.631   8.395
 1713POPC   C3B24285   2.273   5.532   7.971
 1713POPC   C4B24286   2.179   5.538   7.515
 1714POPC   NC324287   9.394  27.600   9.576
 1714POPC   PO424288   8.811  27.723   9.763
 1714POPC   GL124289   8.883  27.704   9.283
 1714POPC   GL224290   9.123  27.486   9.180
 1714POPC   C1A24291   8.816  27.802   8.806
 1714POPC   D2A24292   8.978  27.769   8.354
 1714POPC   C3A24293   8.704  27.605   7.984
 1714POPC   C4A24294   8.797  27.420   7.584
 1714POPC   C1B24295   9.321  27.742   8.885
 1714POPC   C2B24296   9.444  27.966   8.525
 1714POPC   C3B24297   9.460  27.842   8.116
 1714POPC   C4B24298   9.177  27.664   7.848
 1715POPC   NC324299  19.764   5.262   9.619
 1715POPC   PO424300  20.193   4.875   9.628
 1715POPC   GL124301  20.119   5.057   9.202
 1715POPC   GL224302  19.973   5.354   9.161
 1715POPC   C1A24303  20.001   4.964   8.752
 1715POPC   D2A24304  20.123   5.039   8.307
 1715POPC   C3A24305  19.883   4.967   7.975
 1715POPC   C4A24306  19.511   4.919   7.754
 1715POPC   C1B24307  20.230   5.405   8.818
 1715POPC   C2B24308  19.978   5.486   8.490
 1715POPC   C3B24309  20.010   5.513   8.079
 1715POPC   C4B24310  19.685   5.430   7.853
 1716POPC   NC324311  33.851  35.149   9.736
 1716POPC   PO424312  33.664  35.687   9.530
 1716POPC   GL124313  33.895  35.436   9.218
 1716POPC   GL224314  33.893  35.075   9.207
 1716POPC   C1A24315  33.755  35.360   8.773
 1716POPC   D2A24316  33.796  35.558   8.351
 1716POPC   C3A24317  33.863  35.344   7.972
 1716POPC   C4A24318  33.676  35.590   7.675
 1716POPC   C1B24319  34.220  35.153   8.857
 1716POPC   C2B24320  34.219  35.193   8.384
 1716POPC   C3B24321  34.154  34.915   7.995
 1716POPC   C4B24322  34.067  34.940   7.514
 1717POPC   NC324323   2.841  32.892   9.292
 1717POPC   PO424324   3.084  33.496   9.476
 1717POPC   GL124325   2.839  33.351   9.094
 1717POPC   GL224326   2.490  33.250   9.085
 1717POPC   C1A24327   2.709  33.276   8.654
 1717POPC   D2A24328   2.537  33.219   8.293
 1717POPC   C3A24329   2.837  32.965   8.203
 1717POPC   C4A24330   2.978  32.913   7.835
 1717POPC   C1B24331   2.347  32.929   8.772
 1717POPC   C2B24332   2.411  32.727   8.387
 1717POPC   C3B24333   2.424  32.828   7.930
 1717POPC   C4B24334   2.443  33.232   7.729
 1718POPC   NC324335  33.594  41.155   9.446
 1718POPC   PO424336  33.413  40.451   9.456
 1718POPC   GL124337  33.568  40.737   9.117
 1718POPC   GL224338  33.370  41.031   9.011
 1718POPC   C1A24339  33.886  40.678   8.786
 1718POPC   D2A24340  34.007  40.523   8.372
 1718POPC   C3A24341  33.816  40.652   7.970
 1718POPC   C4A24342  33.708  40.709   7.516
 1718POPC   C1B24343  33.595  41.062   8.653
 1718POPC   C2B24344  33.498  40.885   8.278
 1718POPC   C3B24345  33.444  40.996   7.833
 1718POPC   C4B24346  33.541  41.192   7.392
 1719POPC   NC324347  26.787  24.931   9.516
 1719POPC   PO424348  27.049  25.694   9.517
 1719POPC   GL124349  26.917  25.341   9.234
 1719POPC   GL224350  26.576  25.290   9.167
 1719POPC   C1A24351  26.924  25.226   8.793
 1719POPC   D2A24352  26.731  25.049   8.431
 1719POPC   C3A24353  26.900  25.226   8.076
 1719POPC   C4A24354  26.745  25.571   7.860
 1719POPC   C1B24355  26.508  24.937   8.887
 1719POPC   C2B24356  26.256  24.858   8.497
 1719POPC   C3B24357  26.384  24.844   8.075
 1719POPC   C4B24358  26.534  25.088   7.756
 1720POPC   NC324359  12.785  18.796   9.576
 1720POPC   PO424360  12.715  19.435   9.648
 1720POPC   GL124361  12.854  19.164   9.245
 1720POPC   GL224362  12.559  18.978   9.138
 1720POPC   C1A24363  13.100  19.019   8.853
 1720POPC   D2A24364  13.189  19.219   8.443
 1720POPC   C3A24365  12.970  19.198   8.049
 1720POPC   C4A24366  12.921  18.986   7.640
 1720POPC   C1B24367  12.628  18.777   8.779
 1720POPC   C2B24368  12.864  18.836   8.428
 1720POPC   C3B24369  12.845  18.682   8.043
 1720POPC   C4B24370  12.613  18.600   7.673
 1721POPC   NC324371   0.984   9.127   9.897
 1721POPC   PO424372   1.419   8.695   9.608
 1721POPC   GL124373   1.242   8.783   9.176
 1721POPC   GL224374   1.075   9.109   9.158
 1721POPC   C1A24375   1.348   8.963   8.733
 1721POPC   D2A24376   1.279   9.150   8.327
 1721POPC   C3A24377   1.393   8.899   7.958
 1721POPC   C4A24378   1.105   8.624   7.725
 1721POPC   C1B24379   0.863   8.864   8.830
 1721POPC   C2B24380   0.697   8.844   8.418
 1721POPC   C3B24381   0.869   8.953   8.032
 1721POPC   C4B24382   0.918   9.187   7.686
 1722POPC   NC324383   1.750  15.962   9.555
 1722POPC   PO424384   2.378  16.091   9.631
 1722POPC   GL124385   2.383  15.929   9.227
 1722POPC   GL224386   2.059  16.090   9.177
 1722POPC   C1A24387   2.284  15.876   8.781
 1722POPC   D2A24388   2.031  15.921   8.398
 1722POPC   C3A24389   2.198  15.686   8.066
 1722POPC   C4A24390   2.541  15.810   7.771
 1722POPC   C1B24391   2.130  16.362   8.841
 1722POPC   C2B24392   1.859  16.428   8.497
 1722POPC   C3B24393   1.828  16.298   8.068
 1722POPC   C4B24394   2.100  16.081   7.732
 1723POPC   NC324395  12.363  41.780   9.574
 1723POPC   PO424396  12.956  41.399   9.742
 1723POPC   GL124397  12.900  41.356   9.274
 1723POPC   GL224398  12.578  41.373   9.255
 1723POPC   C1A24399  13.065  41.424   8.839
 1723POPC   D2A24400  12.818  41.447   8.468
 1723POPC   C3A24401  12.972  41.611   8.082
 1723POPC   C4A24402  13.160  41.875   7.719
 1723POPC   C1B24403  12.622  41.665   8.916
 1723POPC   C2B24404  12.591  41.917   8.517
 1723POPC   C3B24405  12.547  41.945   8.056
 1723POPC   C4B24406  12.608  41.687   7.716
 1724POPC   NC324407   9.660  23.319   9.526
 1724POPC   PO424408   9.718  23.978   9.543
 1724POPC   GL124409   9.664  23.763   9.156
 1724POPC   GL224410   9.411  23.523   9.139
 1724POPC   C1A24411   9.853  23.696   8.741
 1724POPC   D2A24412   9.994  23.962   8.381
 1724POPC   C3A24413   9.809  23.801   8.000
 1724POPC   C4A24414   9.640  24.027   7.651
 1724POPC   C1B24415   9.463  23.324   8.761
 1724POPC   C2B24416   9.610  23.393   8.361
 1724POPC   C3B24417   9.411  23.460   7.992
 1724POPC   C4B24418   9.568  23.505   7.623
 1725POPC   NC324419  16.162  11.532   9.630
 1725POPC   PO424420  15.783  11.013   9.573
 1725POPC   GL124421  15.941  11.257   9.229
 1725POPC   GL224422  16.242  11.059   9.161
 1725POPC   C1A24423  16.142  11.500   8.879
 1725POPC   D2A24424  16.004  11.540   8.467
 1725POPC   C3A24425  16.155  11.473   8.056
 1725POPC   C4A24426  16.033  11.713   7.715
 1725POPC   C1B24427  15.992  11.039   8.757
 1725POPC   C2B24428  16.111  11.026   8.343
 1725POPC   C3B24429  15.896  11.025   7.962
 1725POPC   C4B24430  15.920  11.213   7.560
 1726POPC   NC324431  38.984  31.173   9.544
 1726POPC   PO424432  38.901  31.887   9.619
 1726POPC   GL124433  39.090  31.610   9.251
 1726POPC   GL224434  39.439  31.666   9.095
 1726POPC   C1A24435  39.038  31.593   8.771
 1726POPC   D2A24436  39.366  31.645   8.419
 1726POPC   C3A24437  39.186  31.549   7.993
 1726POPC   C4A24438  38.960  31.868   7.691
 1726POPC   C1B24439  39.458  31.298   8.794
 1726POPC   C2B24440  39.342  31.144   8.391
 1726POPC   C3B24441  39.552  31.168   7.981
 1726POPC   C4B24442  39.458  31.167   7.529
 1727POPC   NC324443  26.005  37.394   9.570
 1727POPC   PO424444  26.630  37.677   9.474
 1727POPC   GL124445  26.218  37.727   9.232
 1727POPC   GL224446  26.048  37.412   9.068
 1727POPC   C1A24447  25.949  37.876   8.904
 1727POPC   D2A24448  25.922  37.671   8.516
 1727POPC   C3A24449  25.975  37.913   8.128
 1727POPC   C4A24450  25.787  37.820   7.754
 1727POPC   C1B24451  26.367  37.468   8.775
 1727POPC   C2B24452  26.380  37.567   8.337
 1727POPC   C3B24453  26.076  37.436   8.028
 1727POPC   C4B24454  26.092  37.434   7.610
 1728POPC   NC324455  20.352   2.397   9.374
 1728POPC   PO424456  20.728   1.868   9.614
 1728POPC   GL124457  20.670   1.823   9.212
 1728POPC   GL224458  20.534   1.508   9.241
 1728POPC   C1A24459  20.845   1.959   8.831
 1728POPC   D2A24460  20.869   1.857   8.409
 1728POPC   C3A24461  20.652   2.161   8.163
 1728POPC   C4A24462  20.603   2.113   7.708
 1728POPC   C1B24463  20.634   1.482   8.799
 1728POPC   C2B24464  20.443   1.563   8.403
 1728POPC   C3B24465  20.556   1.675   8.014
 1728POPC   C4B24466  20.364   1.636   7.651
 1729POPC   NC324467  10.057  10.375   9.337
 1729POPC   PO424468   9.709  10.789   9.817
 1729POPC   GL124469   9.735  10.813   9.328
 1729POPC   GL224470   9.898  11.100   9.178
 1729POPC   C1A24471   9.524  10.689   8.916
 1729POPC   D2A24472   9.727  10.532   8.527
 1729POPC   C3A24473   9.582  10.421   8.115
 1729POPC   C4A24474   9.749  10.390   7.701
 1729POPC   C1B24475   9.911  10.964   8.736
 1729POPC   C2B24476   9.724  10.976   8.301
 1729POPC   C3B24477   9.909  10.808   7.930
 1729POPC   C4B24478   9.886  10.832   7.457
 1730POPC   NC324479   2.467  40.298   9.561
 1730POPC   PO424480   2.987  39.838   9.750
 1730POPC   GL124481   2.768  39.952   9.338
 1730POPC   GL224482   2.619  39.743   9.096
 1730POPC   C1A24483   2.810  40.216   8.966
 1730POPC   D2A24484   2.789  40.372   8.536
 1730POPC   C3A24485   2.681  40.248   8.102
 1730POPC   C4A24486   2.942  40.222   7.716
 1730POPC   C1B24487   2.921  39.766   8.744
 1730POPC   C2B24488   2.883  39.807   8.300
 1730POPC   C3B24489   2.709  39.765   7.889
 1730POPC   C4B24490   2.438  39.648   7.545
 1731POPC   NC324491  18.517  12.789   9.625
 1731POPC   PO424492  17.842  12.609   9.444
 1731POPC   GL124493  18.122  12.463   9.115
 1731POPC   GL224494  18.438  12.663   9.142
 1731POPC   C1A24495  18.196  12.629   8.698
 1731POPC   D2A24496  18.145  13.029   8.460
 1731POPC   C3A24497  18.173  12.977   8.021
 1731POPC   C4A24498  18.298  12.604   7.805
 1731POPC   C1B24499  18.565  12.957   8.818
 1731POPC   C2B24500  18.613  12.808   8.411
 1731POPC   C3B24501  18.692  12.995   8.061
 1731POPC   C4B24502  18.563  13.019   7.685
 1732POPC   NC324503  33.776  31.787   9.777
 1732POPC   PO424504  33.860  32.416   9.602
 1732POPC   GL124505  33.893  32.235   9.200
 1732POPC   GL224506  34.165  31.979   9.196
 1732POPC   C1A24507  33.701  32.229   8.778
 1732POPC   D2A24508  33.843  32.146   8.364
 1732POPC   C3A24509  33.809  32.015   7.966
 1732POPC   C4A24510  33.770  32.319   7.658
 1732POPC   C1B24511  34.151  31.928   8.725
 1732POPC   C2B24512  34.308  31.968   8.274
 1732POPC   C3B24513  34.292  32.005   7.805
 1732POPC   C4B24514  34.092  32.045   7.390
 1733POPC   NC324515  27.952  23.995   9.485
 1733POPC   PO424516  28.350  23.518   9.623
 1733POPC   GL124517  28.408  23.523   9.213
 1733POPC   GL224518  28.076  23.598   9.150
 1733POPC   C1A24519  28.466  23.419   8.779
 1733POPC   D2A24520  28.585  23.638   8.420
 1733POPC   C3A24521  28.333  23.499   8.103
 1733POPC   C4A24522  28.343  23.568   7.668
 1733POPC   C1B24523  28.241  23.894   8.840
 1733POPC   C2B24524  28.172  23.953   8.403
 1733POPC   C3B24525  28.048  23.899   7.998
 1733POPC   C4B24526  28.178  24.035   7.605
 1734POPC   NC324527  38.776  27.691   9.535
 1734POPC   PO424528  38.186  27.493   9.229
 1734POPC   GL124529  38.451  27.783   9.052
 1734POPC   GL224530  38.810  27.782   9.044
 1734POPC   C1A24531  38.516  27.764   8.602
 1734POPC   D2A24532  38.478  28.018   8.220
 1734POPC   C3A24533  38.331  27.798   7.858
 1734POPC   C4A24534  38.265  27.355   7.883
 1734POPC   C1B24535  38.742  27.355   8.915
 1734POPC   C2B24536  38.717  27.291   8.503
 1734POPC   C3B24537  38.693  27.545   8.150
 1734POPC   C4B24538  38.755  27.504   7.740
 1735POPC   NC324539   5.452  43.958   9.463
 1735POPC   PO424540   6.082  43.800   9.487
 1735POPC   GL124541   6.044  43.965   9.098
 1735POPC   GL224542   5.696  44.044   9.041
 1735POPC   C1A24543   6.040  44.170   8.686
 1735POPC   D2A24544   5.869  44.319   8.296
 1735POPC   C3A24545   6.089  44.095   8.039
 1735POPC   C4A24546   6.018  43.939   7.656
 1735POPC   C1B24547   5.781  43.730   8.749
 1735POPC   C2B24548   5.685  43.832   8.355
 1735POPC   C3B24549   5.824  43.652   8.048
 1735POPC   C4B24550   5.878  43.463   7.710
 1736POPC   NC324551  24.331  27.055   9.260
 1736POPC   PO424552  24.781  26.713   9.652
 1736POPC   GL124553  24.696  26.677   9.149
 1736POPC   GL224554  24.693  26.989   8.923
 1736POPC   C1A24555  24.449  26.611   8.721
 1736POPC   D2A24556  24.383  26.543   8.251
 1736POPC   C3A24557  24.270  26.849   7.956
 1736POPC   C4A24558  24.277  26.776   7.520
 1736POPC   C1B24559  24.840  27.176   8.570
 1736POPC   C2B24560  24.690  26.957   8.239
 1736POPC   C3B24561  24.763  26.693   7.894
 1736POPC   C4B24562  25.060  26.844   7.554
 1737POPC   NC324563  19.611   4.278   9.524
 1737POPC   PO424564  20.306   4.301   9.465
 1737POPC   GL124565  19.965   4.437   9.176
 1737POPC   GL224566  19.719   4.123   9.064
 1737POPC   C1A24567  19.745   4.532   8.785
 1737POPC   D2A24568  19.442   4.635   8.485
 1737POPC   C3A24569  19.618   4.520   8.085
 1737POPC   C4A24570  19.907   4.521   7.736
 1737POPC   C1B24571  20.077   4.093   8.816
 1737POPC   C2B24572  20.230   3.997   8.434
 1737POPC   C3B24573  20.081   4.124   8.037
 1737POPC   C4B24574  19.706   4.068   7.796
 1738POPC   NC324575  44.978   7.101   9.503
 1738POPC   PO424576  44.523   7.727   9.483
 1738POPC   GL124577  44.636   7.551   9.109
 1738POPC   GL224578  44.604   7.261   9.216
 1738POPC   C1A24579  44.921   7.598   8.728
 1738POPC   D2A24580   0.024   7.663   8.273
 1738POPC   C3A24581  44.802   7.448   7.931
 1738POPC   C4A24582  44.467   7.464   7.628
 1738POPC   C1B24583  44.776   7.112   8.843
 1738POPC   C2B24584  44.557   6.959   8.480
 1738POPC   C3B24585  44.776   6.879   8.107
 1738POPC   C4B24586  44.736   6.975   7.704
 1739POPC   NC324587   0.936   1.792   9.645
 1739POPC   PO424588   1.215   2.398   9.462
 1739POPC   GL124589   1.202   2.289   9.034
 1739POPC   GL224590   1.129   1.952   9.060
 1739POPC   C1A24591   1.239   2.247   8.651
 1739POPC   D2A24592   1.125   2.034   8.320
 1739POPC   C3A24593   1.244   2.194   7.941
 1739POPC   C4A24594   1.673   2.271   7.786
 1739POPC   C1B24595   1.004   1.646   8.746
 1739POPC   C2B24596   0.855   1.619   8.303
 1739POPC   C3B24597   1.028   1.713   7.908
 1739POPC   C4B24598   1.090   1.609   7.468
 1740POPC   NC324599  18.215  37.997   9.664
 1740POPC   PO424600  18.024  37.438   9.537
 1740POPC   GL124601  18.284  37.632   9.184
 1740POPC   GL224602  18.360  38.008   9.175
 1740POPC   C1A24603  18.332  37.450   8.771
 1740POPC   D2A24604  18.549  37.528   8.409
 1740POPC   C3A24605  18.364  37.431   8.042
 1740POPC   C4A24606  18.372  37.674   7.705
 1740POPC   C1B24607  18.439  37.940   8.765
 1740POPC   C2B24608  18.124  37.835   8.463
 1740POPC   C3B24609  18.049  37.859   8.053
 1740POPC   C4B24610  18.336  38.153   7.877
 1741POPC   NC324611  21.946  13.332   9.475
 1741POPC   PO424612  22.354  13.793   9.497
 1741POPC   GL124613  22.032  13.703   9.161
 1741POPC   GL224614  22.267  13.683   8.942
 1741POPC   C1A24615  21.860  13.405   8.844
 1741POPC   D2A24616  21.878  13.258   8.451
 1741POPC   C3A24617  21.960  13.531   8.090
 1741POPC   C4A24618  21.894  13.727   7.685
 1741POPC   C1B24619  22.134  13.727   8.537
 1741POPC   C2B24620  22.308  13.909   8.176
 1741POPC   C3B24621  22.390  13.686   7.807
 1741POPC   C4B24622  22.298  13.678   7.355
 1742POPC   NC324623  27.304   4.147   9.552
 1742POPC   PO424624  27.807   4.689   9.492
 1742POPC   GL124625  27.559   4.480   9.228
 1742POPC   GL224626  27.709   4.144   9.237
 1742POPC   C1A24627  27.602   4.391   8.809
 1742POPC   D2A24628  27.571   4.179   8.458
 1742POPC   C3A24629  27.678   4.420   8.108
 1742POPC   C4A24630  27.504   4.394   7.722
 1742POPC   C1B24631  27.775   3.906   8.871
 1742POPC   C2B24632  27.980   3.827   8.499
 1742POPC   C3B24633  27.810   3.919   8.101
 1742POPC   C4B24634  27.970   4.129   7.789
 1743POPC   NC324635  15.492  11.398   9.503
 1743POPC   PO424636  14.861  11.621   9.367
 1743POPC   GL124637  15.125  11.420   9.137
 1743POPC   GL224638  15.358  11.684   9.089
 1743POPC   C1A24639  15.098  11.171   8.783
 1743POPC   D2A24640  15.142  11.313   8.411
 1743POPC   C3A24641  14.946  11.162   8.086
 1743POPC   C4A24642  14.969  11.388   7.749
 1743POPC   C1B24643  15.592  11.370   8.822
 1743POPC   C2B24644  15.634  11.195   8.393
 1743POPC   C3B24645  15.475  11.318   7.995
 1743POPC   C4B24646  15.405  11.209   7.558
 1744POPC   NC324647  38.951  23.948   9.642
 1744POPC   PO424648  39.638  23.683   9.426
 1744POPC   GL124649  39.421  23.762   9.088
 1744POPC   GL224650  39.110  23.929   9.148
 1744POPC   C1A24651  39.295  23.508   8.729
 1744POPC   D2A24652  39.189  23.355   8.315
 1744POPC   C3A24653  39.394  23.601   8.006
 1744POPC   C4A24654  39.640  23.511   7.672
 1744POPC   C1B24655  39.194  24.018   8.698
 1744POPC   C2B24656  39.055  23.854   8.302
 1744POPC   C3B24657  38.949  23.991   7.886
 1744POPC   C4B24658  38.898  24.179   7.454
 1745POPC   NC324659   0.045   8.903   9.638
 1745POPC   PO424660   0.722   8.941   9.522
 1745POPC   GL124661   0.475   8.944   9.152
 1745POPC   GL224662   0.153   9.133   9.180
 1745POPC   C1A24663   0.416   9.155   8.732
 1745POPC   D2A24664   0.242   9.154   8.316
 1745POPC   C3A24665   0.439   9.265   7.933
 1745POPC   C4A24666   0.474   8.901   7.684
 1745POPC   C1B24667   0.092   8.749   8.898
 1745POPC   C2B24668   0.221   8.650   8.494
 1745POPC   C3B24669   0.209   8.623   8.055
 1745POPC   C4B24670  44.984   8.772   7.694
 1746POPC   NC324671   8.503  22.503   9.711
 1746POPC   PO424672   8.024  22.040   9.678
 1746POPC   GL124673   8.251  22.045   9.267
 1746POPC   GL224674   8.278  22.421   9.239
 1746POPC   C1A24675   8.380  21.873   8.832
 1746POPC   D2A24676   8.171  21.842   8.440
 1746POPC   C3A24677   8.423  22.066   8.129
 1746POPC   C4A24678   8.310  22.015   7.701
 1746POPC   C1B24679   8.187  22.341   8.805
 1746POPC   C2B24680   8.089  22.456   8.393
 1746POPC   C3B24681   7.827  22.511   8.029
 1746POPC   C4B24682   8.105  22.536   7.694
 1747POPC   NC324683  31.907  31.264   9.399
 1747POPC   PO424684  32.522  31.506   9.520
 1747POPC   GL124685  32.362  31.460   9.151
 1747POPC   GL224686  32.104  31.721   9.088
 1747POPC   C1A24687  32.254  31.350   8.752
 1747POPC   D2A24688  32.118  31.212   8.392
 1747POPC   C3A24689  32.253  31.397   8.052
 1747POPC   C4A24690  32.031  31.389   7.714
 1747POPC   C1B24691  32.433  31.825   8.801
 1747POPC   C2B24692  32.489  31.697   8.391
 1747POPC   C3B24693  32.579  31.845   8.015
 1747POPC   C4B24694  32.362  31.757   7.643
 1748POPC   NC324695  36.282  39.818   9.624
 1748POPC   PO424696  35.787  40.216   9.366
 1748POPC   GL124697  36.126  40.054   9.108
 1748POPC   GL224698  36.358  40.280   8.976
 1748POPC   C1A24699  35.980  40.070   8.682
 1748POPC   D2A24700  35.723  40.180   8.331
 1748POPC   C3A24701  35.864  39.865   8.015
 1748POPC   C4A24702  36.177  40.097   7.777
 1748POPC   C1B24703  36.486  39.925   8.700
 1748POPC   C2B24704  36.414  39.644   8.318
 1748POPC   C3B24705  36.383  39.630   7.843
 1748POPC   C4B24706  36.500  39.850   7.418
 1749POPC   NC324707  37.821  11.811   9.372
 1749POPC   PO424708  37.338  11.523   9.772
 1749POPC   GL124709  37.561  11.358   9.291
 1749POPC   GL224710  37.698  11.571   8.972
 1749POPC   C1A24711  37.696  11.106   8.863
 1749POPC   D2A24712  37.937  11.322   8.523
 1749POPC   C3A24713  37.699  11.396   8.124
 1749POPC   C4A24714  37.653  11.225   7.728
 1749POPC   C1B24715  37.514  11.584   8.593
 1749POPC   C2B24716  37.217  11.519   8.306
 1749POPC   C3B24717  37.216  11.640   7.883
 1749POPC   C4B24718  37.595  11.790   7.742
 1750POPC   NC324719  28.891  42.808   9.795
 1750POPC   PO424720  28.933  43.445   9.611
 1750POPC   GL124721  29.025  43.127   9.292
 1750POPC   GL224722  28.962  43.342   9.048
 1750POPC   C1A24723  29.349  43.008   8.931
 1750POPC   D2A24724  29.537  43.041   8.513
 1750POPC   C3A24725  29.345  43.282   8.184
 1750POPC   C4A24726  29.244  43.071   7.791
 1750POPC   C1B24727  28.857  43.000   8.753
 1750POPC   C2B24728  29.000  42.942   8.335
 1750POPC   C3B24729  28.786  43.154   8.049
 1750POPC   C4B24730  28.810  43.306   7.670
 1751POPC   NC324731  31.568  24.966   9.481
 1751POPC   PO424732  31.757  25.595   9.468
 1751POPC   GL124733  31.475  25.373   9.145
 1751POPC   GL224734  31.323  25.028   9.037
 1751POPC   C1A24735  31.696  25.241   8.772
 1751POPC   D2A24736  31.842  25.361   8.394
 1751POPC   C3A24737  31.810  25.055   8.085
 1751POPC   C4A24738  31.506  25.093   7.782
 1751POPC   C1B24739  31.162  25.304   8.724
 1751POPC   C2B24740  31.303  25.438   8.313
 1751POPC   C3B24741  31.135  25.424   7.902
 1751POPC   C4B24742  31.111  25.261   7.478
 1752POPC   NC324743  13.309  39.195   9.538
 1752POPC   PO424744  13.888  39.512   9.597
 1752POPC   GL124745  13.717  39.363   9.192
 1752POPC   GL224746  13.596  39.022   9.137
 1752POPC   C1A24747  13.835  39.229   8.753
 1752POPC   D2A24748  13.990  39.257   8.326
 1752POPC   C3A24749  13.783  39.241   7.919
 1752POPC   C4A24750  13.805  39.326   7.464
 1752POPC   C1B24751  13.335  39.090   8.770
 1752POPC   C2B24752  13.344  39.241   8.340
 1752POPC   C3B24753  13.261  39.107   7.918
 1752POPC   C4B24754  13.309  39.354   7.563
 1753POPC   NC324755  33.414  13.616   9.385
 1753POPC   PO424756  32.743  13.862   9.389
 1753POPC   GL124757  33.041  13.836   9.067
 1753POPC   GL224758  33.205  13.496   8.954
 1753POPC   C1A24759  32.916  13.783   8.651
 1753POPC   D2A24760  32.997  13.499   8.328
 1753POPC   C3A24761  32.839  13.738   7.995
 1753POPC   C4A24762  32.875  13.436   7.671
 1753POPC   C1B24763  33.427  13.845   8.723
 1753POPC   C2B24764  33.339  13.865   8.310
 1753POPC   C3B24765  33.328  13.631   7.944
 1753POPC   C4B24766  33.247  13.753   7.546
 1754POPC   NC324767  30.573  42.487   9.514
 1754POPC   PO424768  30.621  41.873   9.500
 1754POPC   GL124769  30.535  42.117   9.161
 1754POPC   GL224770  30.885  42.254   9.194
 1754POPC   C1A24771  30.542  42.232   8.742
 1754POPC   D2A24772  30.585  42.192   8.327
 1754POPC   C3A24773  30.531  42.596   8.112
 1754POPC   C4A24774  30.378  42.643   7.699
 1754POPC   C1B24775  30.851  42.601   8.925
 1754POPC   C2B24776  30.897  42.555   8.487
 1754POPC   C3B24777  31.023  42.430   8.086
 1754POPC   C4B24778  30.880  42.614   7.707
 1755POPC   NC324779   5.255  44.595   9.408
 1755POPC   PO424780   4.658  44.815   9.408
 1755POPC   GL124781   4.861  44.526   9.082
 1755POPC   GL224782   5.232  44.349   8.984
 1755POPC   C1A24783   4.719  44.455   8.698
 1755POPC   D2A24784   4.937  44.496   8.306
 1755POPC   C3A24785   4.991  44.869   8.053
 1755POPC   C4A24786   4.878  44.577   7.776
 1755POPC   C1B24787   5.208  44.689   8.707
 1755POPC   C2B24788   5.410  44.704   8.310
 1755POPC   C3B24789   5.377  44.529   7.898
 1755POPC   C4B24790   5.482  44.637   7.471
 1756POPC   NC324791  15.448   8.938   9.497
 1756POPC   PO424792  15.356   8.360   9.755
 1756POPC   GL124793  15.133   8.632   9.260
 1756POPC   GL224794  15.220   9.063   9.080
 1756POPC   C1A24795  14.916   8.779   8.829
 1756POPC   D2A24796  15.067   9.186   8.612
 1756POPC   C3A24797  15.113   9.247   8.180
 1756POPC   C4A24798  14.925   9.090   7.820
 1756POPC   C1B24799  15.460   8.818   8.810
 1756POPC   C2B24800  15.591   8.806   8.389
 1756POPC   C3B24801  15.370   8.823   8.035
 1756POPC   C4B24802  15.437   9.039   7.686
 1757POPC   NC324803  41.953  23.389   9.456
 1757POPC   PO424804  42.535  22.959   9.405
 1757POPC   GL124805  42.297  23.206   9.101
 1757POPC   GL224806  42.597  23.374   9.069
 1757POPC   C1A24807  42.090  23.109   8.659
 1757POPC   D2A24808  42.273  22.831   8.298
 1757POPC   C3A24809  42.152  23.016   7.893
 1757POPC   C4A24810  42.056  22.934   7.466
 1757POPC   C1B24811  42.539  23.331   8.662
 1757POPC   C2B24812  42.454  23.306   8.278
 1757POPC   C3B24813  42.593  23.248   7.892
 1757POPC   C4B24814  42.530  23.069   7.522
 1758POPC   NC324815   7.096  19.812   9.371
 1758POPC   PO424816   6.455  19.760   9.597
 1758POPC   GL124817   6.606  19.867   9.223
 1758POPC   GL224818   6.741  20.186   9.270
 1758POPC   C1A24819   6.539  19.727   8.813
 1758POPC   D2A24820   6.789  19.692   8.453
 1758POPC   C3A24821   6.501  19.722   8.114
 1758POPC   C4A24822   6.637  19.735   7.714
 1758POPC   C1B24823   6.826  20.148   8.802
 1758POPC   C2B24824   6.615  20.184   8.370
 1758POPC   C3B24825   6.715  20.192   7.905
 1758POPC   C4B24826   6.826  20.187   7.447
 1759POPC   NC324827   0.664  38.085   9.901
 1759POPC   PO424828   0.140  38.343   9.495
 1759POPC   GL124829   0.306  38.436   9.090
 1759POPC   GL224830   0.623  38.672   9.197
 1759POPC   C1A24831   0.246  38.429   8.661
 1759POPC   D2A24832   0.646  38.467   8.433
 1759POPC   C3A24833   0.489  38.494   8.039
 1759POPC   C4A24834   0.175  38.498   7.689
 1759POPC   C1B24835   0.556  38.804   8.804
 1759POPC   C2B24836   0.300  38.848   8.393
 1759POPC   C3B24837   0.039  38.817   8.041
 1759POPC   C4B24838   0.070  39.036   7.622
 1760POPC   NC324839   1.604  12.628   9.468
 1760POPC   PO424840   2.139  12.978   9.513
 1760POPC   GL124841   2.141  12.840   9.107
 1760POPC   GL224842   1.949  12.543   9.087
 1760POPC   C1A24843   1.828  12.933   8.776
 1760POPC   D2A24844   1.723  12.752   8.385
 1760POPC   C3A24845   1.908  12.886   8.030
 1760POPC   C4A24846   2.185  12.849   7.724
 1760POPC   C1B24847   1.590  12.432   8.795
 1760POPC   C2B24848   1.478  12.296   8.382
 1760POPC   C3B24849   1.655  12.396   7.951
 1760POPC   C4B24850   1.710  12.707   7.584
 1761POPC   NC324851  11.675  30.496   9.489
 1761POPC   PO424852  11.133  30.923   9.583
 1761POPC   GL124853  11.437  30.888   9.262
 1761POPC   GL224854  11.309  30.576   9.125
 1761POPC   C1A24855  11.526  30.953   8.837
 1761POPC   D2A24856  11.578  30.789   8.400
 1761POPC   C3A24857  11.248  30.845   8.066
 1761POPC   C4A24858  11.324  31.050   7.680
 1761POPC   C1B24859  11.248  30.485   8.674
 1761POPC   C2B24860  11.315  30.368   8.235
 1761POPC   C3B24861  11.197  30.415   7.796
 1761POPC   C4B24862  11.553  30.603   7.606
 1762POPC   NC324863  28.849   9.062   9.541
 1762POPC   PO424864  29.526   8.787   9.466
 1762POPC   GL124865  29.321   8.977   9.092
 1762POPC   GL224866  28.983   9.133   9.075
 1762POPC   C1A24867  29.348   9.249   8.719
 1762POPC   D2A24868  29.300   9.297   8.261
 1762POPC   C3A24869  29.281   8.861   8.043
 1762POPC   C4A24870  29.080   8.749   7.650
 1762POPC   C1B24871  28.771   9.385   8.801
 1762POPC   C2B24872  28.709   9.188   8.465
 1762POPC   C3B24873  28.831   9.092   8.083
 1762POPC   C4B24874  28.672   9.110   7.714
 1763POPC   NC324875  16.028   7.535   9.684
 1763POPC   PO424876  16.332   7.938   9.238
 1763POPC   GL124877  16.257   7.557   9.062
 1763POPC   GL224878  15.936   7.373   9.118
 1763POPC   C1A24879  16.126   7.505   8.643
 1763POPC   D2A24880  16.252   7.578   8.203
 1763POPC   C3A24881  16.248   7.386   7.788
 1763POPC   C4A24882  16.473   7.547   7.416
 1763POPC   C1B24883  15.723   7.187   8.753
 1763POPC   C2B24884  15.805   7.295   8.306
 1763POPC   C3B24885  15.761   7.460   7.897
 1763POPC   C4B24886  15.819   7.016   7.779
 1764POPC   NC324887  38.056  18.937   9.489
 1764POPC   PO424888  37.622  19.355   9.431
 1764POPC   GL124889  37.658  19.048   9.106
 1764POPC   GL224890  37.868  18.728   9.065
 1764POPC   C1A24891  37.797  19.105   8.689
 1764POPC   D2A24892  38.065  19.096   8.339
 1764POPC   C3A24893  37.800  19.089   7.956
 1764POPC   C4A24894  37.327  19.129   7.935
 1764POPC   C1B24895  37.529  18.668   8.775
 1764POPC   C2B24896  37.420  18.833   8.358
 1764POPC   C3B24897  37.434  18.611   7.975
 1764POPC   C4B24898  37.605  18.748   7.600
 1765POPC   NC324899  23.535  28.506   9.467
 1765POPC   PO424900  23.777  29.188   9.508
 1765POPC   GL124901  23.622  29.237   9.118
 1765POPC   GL224902  23.567  29.528   9.155
 1765POPC   C1A24903  23.598  29.151   8.673
 1765POPC   D2A24904  23.858  28.892   8.398
 1765POPC   C3A24905  23.732  28.792   7.989
 1765POPC   C4A24906  23.518  29.105   7.701
 1765POPC   C1B24907  23.869  29.585   8.819
 1765POPC   C2B24908  23.962  29.467   8.431
 1765POPC   C3B24909  23.752  29.317   8.103
 1765POPC   C4B24910  23.887  29.463   7.704
 1766POPC   NC324911   3.258  24.917   9.471
 1766POPC   PO424912   3.158  25.607   9.707
 1766POPC   GL124913   3.271  25.408   9.219
 1766POPC   GL224914   3.571  25.188   9.177
 1766POPC   C1A24915   3.588  25.431   8.763
 1766POPC   D2A24916   3.662  25.375   8.326
 1766POPC   C3A24917   3.330  25.205   8.152
 1766POPC   C4A24918   3.340  25.341   7.776
 1766POPC   C1B24919   3.458  24.913   8.795
 1766POPC   C2B24920   3.423  24.712   8.373
 1766POPC   C3B24921   3.540  24.776   7.946
 1766POPC   C4B24922   3.851  25.036   7.782
 1767POPC   NC324923  19.398  21.871   9.462
 1767POPC   PO424924  20.023  21.918   9.651
 1767POPC   GL124925  19.860  22.180   9.312
 1767POPC   GL224926  20.115  22.310   9.114
 1767POPC   C1A24927  19.658  22.242   8.886
 1767POPC   D2A24928  19.682  22.073   8.452
 1767POPC   C3A24929  19.468  22.190   8.076
 1767POPC   C4A24930  19.633  22.113   7.692
 1767POPC   C1B24931  20.141  22.032   8.747
 1767POPC   C2B24932  20.201  21.971   8.303
 1767POPC   C3B24933  20.139  22.077   7.859
 1767POPC   C4B24934  20.032  21.959   7.431
 1768POPC   NC324935  10.002  19.710   9.331
 1768POPC   PO424936   9.551  20.120   9.631
 1768POPC   GL124937   9.627  20.024   9.183
 1768POPC   GL224938   9.558  19.642   9.089
 1768POPC   C1A24939   9.726  19.996   8.733
 1768POPC   D2A24940   9.932  20.145   8.364
 1768POPC   C3A24941   9.823  19.971   7.971
 1768POPC   C4A24942   9.778  19.975   7.530
 1768POPC   C1B24943   9.838  19.499   8.752
 1768POPC   C2B24944   9.805  19.609   8.345
 1768POPC   C3B24945   9.541  19.531   8.006
 1768POPC   C4B24946   9.816  19.466   7.667
 1769POPC   NC324947  41.314  33.541   9.519
 1769POPC   PO424948  41.502  34.156   9.510
 1769POPC   GL124949  41.546  33.862   9.195
 1769POPC   GL224950  41.179  33.890   9.165
 1769POPC   C1A24951  41.533  33.549   8.879
 1769POPC   D2A24952  41.477  33.697   8.485
 1769POPC   C3A24953  41.625  33.513   8.087
 1769POPC   C4A24954  41.715  33.805   7.730
 1769POPC   C1B24955  41.089  34.189   8.847
 1769POPC   C2B24956  41.371  34.242   8.499
 1769POPC   C3B24957  41.445  34.017   8.108
 1769POPC   C4B24958  41.256  34.111   7.735
 1770POPC   NC324959  12.273  44.039   9.780
 1770POPC   PO424960  11.775  43.623   9.619
 1770POPC   GL124961  11.980  43.930   9.309
 1770POPC   GL224962  12.317  44.082   9.236
 1770POPC   C1A24963  12.003  43.917   8.845
 1770POPC   D2A24964  12.299  43.852   8.498
 1770POPC   C3A24965  12.119  43.700   8.156
 1770POPC   C4A24966  11.915  43.616   7.779
 1770POPC   C1B24967  12.344  44.295   8.805
 1770POPC   C2B24968  12.216  44.348   8.380
 1770POPC   C3B24969  12.064  44.311   7.974
 1770POPC   C4B24970  12.245  44.035   7.799
 1771POPC   NC324971   5.484  12.987   9.506
 1771POPC   PO424972   6.078  12.817   9.539
 1771POPC   GL124973   5.939  12.957   9.164
 1771POPC   GL224974   6.245  13.159   9.104
 1771POPC   C1A24975   5.747  12.795   8.758
 1771POPC   D2A24976   5.564  13.000   8.370
 1771POPC   C3A24977   5.634  12.799   7.952
 1771POPC   C4A24978   5.655  13.019   7.524
 1771POPC   C1B24979   6.287  12.838   8.788
 1771POPC   C2B24980   6.366  12.693   8.365
 1771POPC   C3B24981   6.166  12.792   7.990
 1771POPC   C4B24982   6.054  12.724   7.590
 1772POPC   NC324983  19.246  13.320   9.473
 1772POPC   PO424984  19.277  14.021   9.644
 1772POPC   GL124985  19.294  13.822   9.218
 1772POPC   GL224986  18.988  13.655   9.146
 1772POPC   C1A24987  19.373  13.726   8.772
 1772POPC   D2A24988  19.139  13.783   8.372
 1772POPC   C3A24989  19.316  13.713   7.978
 1772POPC   C4A24990  19.137  13.669   7.605
 1772POPC   C1B24991  18.958  13.347   8.798
 1772POPC   C2B24992  19.054  13.241   8.360
 1772POPC   C3B24993  18.874  13.469   8.013
 1772POPC   C4B24994  18.667  13.482   7.541
 1773POPC   NC324995  42.714  35.881   9.274
 1773POPC   PO424996  43.359  35.946   9.487
 1773POPC   GL124997  43.311  36.226   9.136
 1773POPC   GL224998  43.052  36.489   9.120
 1773POPC   C1A24999  43.442  36.357   8.716
 1773POPC   D2A25000  43.693  36.157   8.385
 1773POPC   C3A25001  43.535  36.169   7.962
 1773POPC   C4A25002  43.242  35.955   7.716
 1773POPC   C1B25003  42.899  36.254   8.743
 1773POPC   C2B25004  42.756  35.925   8.419
 1773POPC   C3B25005  42.823  35.848   7.976
 1773POPC   C4B25006  42.839  36.247   7.709
 1774POPC   NC325007  43.931   2.635   9.439
 1774POPC   PO425008  43.661   3.195   9.458
 1774POPC   GL125009  43.935   2.982   9.096
 1774POPC   GL225010  44.261   2.759   9.104
 1774POPC   C1A25011  44.137   3.082   8.731
 1774POPC   D2A25012  43.819   3.063   8.460
 1774POPC   C3A25013  43.961   3.009   8.102
 1774POPC   C4A25014  44.148   2.934   7.767
 1774POPC   C1B25015  44.035   2.572   8.785
 1774POPC   C2B25016  44.156   2.660   8.411
 1774POPC   C3B25017  44.357   2.591   8.061
 1774POPC   C4B25018  44.139   2.386   7.738
 1775POPC   NC325019  26.515  12.318   9.758
 1775POPC   PO425020  25.975  12.418   9.388
 1775POPC   GL125021  26.268  12.164   9.149
 1775POPC   GL225022  26.012  12.010   8.953
 1775POPC   C1A25023  26.480  11.907   8.834
 1775POPC   D2A25024  26.224  11.963   8.469
 1775POPC   C3A25025  26.386  11.832   8.080
 1775POPC   C4A25026  26.552  12.040   7.723
 1775POPC   C1B25027  25.712  12.013   8.647
 1775POPC   C2B25028  25.520  12.152   8.297
 1775POPC   C3B25029  25.875  12.014   8.078
 1775POPC   C4B25030  26.028  12.010   7.703
 1776POPC   NC325031   1.400   4.949   9.580
 1776POPC   PO425032   1.259   5.577   9.715
 1776POPC   GL125033   1.200   5.301   9.280
 1776POPC   GL225034   1.477   5.062   9.106
 1776POPC   C1A25035   1.081   5.183   8.816
 1776POPC   D2A25036   1.161   5.321   8.362
 1776POPC   C3A25037   1.084   5.122   7.980
 1776POPC   C4A25038   1.366   5.273   7.662
 1776POPC   C1B25039   1.430   4.791   8.754
 1776POPC   C2B25040   1.277   4.810   8.343
 1776POPC   C3B25041   1.541   4.866   7.981
 1776POPC   C4B25042   1.567   4.665   7.587
 1777POPC   NC325043  23.898  33.538   9.652
 1777POPC   PO425044  23.428  33.974   9.819
 1777POPC   GL125045  23.431  33.808   9.353
 1777POPC   GL225046  23.773  33.804   9.228
 1777POPC   C1A25047  23.344  33.840   8.865
 1777POPC   D2A25048  23.449  33.631   8.440
 1777POPC   C3A25049  23.565  33.919   8.107
 1777POPC   C4A25050  23.730  34.090   7.738
 1777POPC   C1B25051  23.807  33.641   8.810
 1777POPC   C2B25052  23.969  33.829   8.419
 1777POPC   C3B25053  24.002  33.681   7.983
 1777POPC   C4B25054  23.632  33.584   7.703
 1778POPC   NC325055  14.084   8.192   9.450
 1778POPC   PO425056  13.408   8.063   9.592
 1778POPC   GL125057  13.355   8.118   9.179
 1778POPC   GL225058  13.665   8.336   9.147
 1778POPC   C1A25059  13.490   8.051   8.750
 1778POPC   D2A25060  13.578   8.249   8.343
 1778POPC   C3A25061  13.702   7.993   8.013
 1778POPC   C4A25062  13.476   7.870   7.648
 1778POPC   C1B25063  13.773   8.526   8.749
 1778POPC   C2B25064  13.842   8.691   8.341
 1778POPC   C3B25065  13.747   8.580   7.919
 1778POPC   C4B25066  13.459   8.358   7.732
 1779POPC   NC325067  36.390  44.661   9.733
 1779POPC   PO425068  35.936  44.211   9.576
 1779POPC   GL125069  36.011  44.432   9.207
 1779POPC   GL225070  36.225  44.730   9.236
 1779POPC   C1A25071  35.905  44.369   8.786
 1779POPC   D2A25072  36.099  44.266   8.384
 1779POPC   C3A25073  36.065  44.567   8.055
 1779POPC   C4A25074  35.867  44.933   7.867
 1779POPC   C1B25075  36.338  44.628   8.804
 1779POPC   C2B25076  36.492  44.679   8.384
 1779POPC   C3B25077  36.344   0.016   8.126
 1779POPC   C4B25078  36.335   0.094   7.699
 1780POPC   NC325079  23.424  26.677   9.478
 1780POPC   PO425080  24.080  26.717   9.479
 1780POPC   GL125081  23.813  27.056   9.257
 1780POPC   GL225082  23.466  27.142   9.150
 1780POPC   C1A25083  23.858  27.064   8.803
 1780POPC   D2A25084  24.003  26.837   8.447
 1780POPC   C3A25085  23.778  26.886   8.074
 1780POPC   C4A25086  23.727  26.935   7.666
 1780POPC   C1B25087  23.390  26.834   8.837
 1780POPC   C2B25088  23.435  26.720   8.429
 1780POPC   C3B25089  23.286  26.742   8.036
 1780POPC   C4B25090  23.413  26.556   7.688
 1781POPC   NC325091  28.631  38.498   9.877
 1781POPC   PO425092  28.136  38.262   9.444
 1781POPC   GL125093  28.331  38.442   9.116
 1781POPC   GL225094  28.623  38.679   9.181
 1781POPC   C1A25095  28.373  38.189   8.752
 1781POPC   D2A25096  28.167  38.376   8.428
 1781POPC   C3A25097  28.298  38.252   8.037
 1781POPC   C4A25098  28.126  38.515   7.776
 1781POPC   C1B25099  28.590  38.650   8.709
 1781POPC   C2B25100  28.601  38.590   8.261
 1781POPC   C3B25101  28.633  38.552   7.821
 1781POPC   C4B25102  28.669  38.318   7.496
 1782POPC   NC325103  42.261  22.698   9.123
 1782POPC   PO425104  42.125  22.136   9.518
 1782POPC   GL125105  42.234  22.131   9.129
 1782POPC   GL225106  42.512  21.941   9.194
 1782POPC   C1A25107  42.223  21.823   8.791
 1782POPC   D2A25108  42.309  21.715   8.353
 1782POPC   C3A25109  42.305  22.082   8.060
 1782POPC   C4A25110  42.252  22.512   7.853
 1782POPC   C1B25111  42.630  22.154   8.806
 1782POPC   C2B25112  42.737  22.054   8.413
 1782POPC   C3B25113  42.795  22.258   8.041
 1782POPC   C4B25114  42.606  22.166   7.655
 1783POPC   NC325115  23.165  39.564   9.332
 1783POPC   PO425116  22.793  39.029   9.459
 1783POPC   GL125117  22.926  39.012   9.074
 1783POPC   GL225118  23.252  39.048   9.192
 1783POPC   C1A25119  22.975  39.339   8.753
 1783POPC   D2A25120  22.970  39.552   8.341
 1783POPC   C3A25121  22.918  39.272   7.997
 1783POPC   C4A25122  22.681  38.908   7.919
 1783POPC   C1B25123  23.452  39.109   8.796
 1783POPC   C2B25124  23.249  39.107   8.410
 1783POPC   C3B25125  23.203  38.843   8.105
 1783POPC   C4B25126  23.303  39.013   7.757
 1784POPC   NC325127   2.350  42.663   9.282
 1784POPC   PO425128   1.957  42.174   9.628
 1784POPC   GL125129   2.029  42.268   9.210
 1784POPC   GL225130   1.778  42.500   9.129
 1784POPC   C1A25131   2.036  42.311   8.764
 1784POPC   D2A25132   2.167  42.189   8.417
 1784POPC   C3A25133   2.190  42.439   8.068
 1784POPC   C4A25134   1.940  42.323   7.717
 1784POPC   C1B25135   1.593  42.620   8.741
 1784POPC   C2B25136   1.776  42.578   8.339
 1784POPC   C3B25137   1.845  42.817   7.968
 1784POPC   C4B25138   1.761  42.753   7.535
 1785POPC   NC325139  39.306  20.709   9.551
 1785POPC   PO425140  38.629  20.992   9.595
 1785POPC   GL125141  38.900  20.811   9.246
 1785POPC   GL225142  39.132  20.461   9.151
 1785POPC   C1A25143  39.134  20.867   8.871
 1785POPC   D2A25144  39.186  20.543   8.578
 1785POPC   C3A25145  39.126  20.638   8.152
 1785POPC   C4A25146  38.967  20.726   7.738
 1785POPC   C1B25147  39.545  20.384   8.924
 1785POPC   C2B25148  39.680  20.494   8.481
 1785POPC   C3B25149  39.626  20.436   8.016
 1785POPC   C4B25150  39.746  20.529   7.570
 1786POPC   NC325151  16.542  10.131   9.584
 1786POPC   PO425152  16.816   9.529   9.558
 1786POPC   GL125153  16.602   9.730   9.199
 1786POPC   GL225154  16.536   9.446   8.994
 1786POPC   C1A25155  16.781   9.853   8.764
 1786POPC   D2A25156  17.007   9.764   8.341
 1786POPC   C3A25157  16.765   9.776   7.920
 1786POPC   C4A25158  16.788  10.009   7.524
 1786POPC   C1B25159  16.888   9.341   8.679
 1786POPC   C2B25160  16.804   9.280   8.219
 1786POPC   C3B25161  16.956   9.291   7.788
 1786POPC   C4B25162  16.829   9.514   7.424
 1787POPC   NC325163  14.984   2.184   9.734
 1787POPC   PO425164  14.568   1.748   9.496
 1787POPC   GL125165  14.407   1.920   9.143
 1787POPC   GL225166  14.548   2.224   9.164
 1787POPC   C1A25167  14.262   2.037   8.735
 1787POPC   D2A25168  14.467   1.944   8.339
 1787POPC   C3A25169  14.295   1.784   7.988
 1787POPC   C4A25170  14.593   1.621   7.718
 1787POPC   C1B25171  14.656   2.370   8.749
 1787POPC   C2B25172  14.453   2.446   8.412
 1787POPC   C3B25173  14.632   2.356   8.042
 1787POPC   C4B25174  14.592   2.135   7.696
 1788POPC   NC325175  26.354  17.988  10.057
 1788POPC   PO425176  25.962  18.392   9.628
 1788POPC   GL125177  25.868  18.350   9.201
 1788POPC   GL225178  25.693  18.669   9.101
 1788POPC   C1A25179  25.954  18.115   8.811
 1788POPC   D2A25180  26.202  18.205   8.434
 1788POPC   C3A25181  26.020  18.003   8.080
 1788POPC   C4A25182  25.977  17.960   7.644
 1788POPC   C1B25183  26.029  18.628   8.783
 1788POPC   C2B25184  26.119  18.717   8.368
 1788POPC   C3B25185  26.094  18.503   7.984
 1788POPC   C4B25186  25.987  18.635   7.572
 1789POPC   NC325187  33.396  30.862   9.744
 1789POPC   PO425188  33.732  30.348   9.717
 1789POPC   GL125189  33.621  30.615   9.312
 1789POPC   GL225190  33.660  31.013   9.308
 1789POPC   C1A25191  33.562  30.502   8.856
 1789POPC   D2A25192  33.762  30.340   8.461
 1789POPC   C3A25193  33.776  30.499   8.070
 1789POPC   C4A25194  33.832  30.614   7.667
 1789POPC   C1B25195  33.834  30.962   8.869
 1789POPC   C2B25196  33.937  30.821   8.436
 1789POPC   C3B25197  33.800  31.031   8.055
 1789POPC   C4B25198  33.938  31.108   7.661
 1790POPC   NC325199  25.289   2.345   9.496
 1790POPC   PO425200  24.981   1.751   9.463
 1790POPC   GL125201  25.145   1.992   9.139
 1790POPC   GL225202  25.522   2.024   9.076
 1790POPC   C1A25203  25.173   1.984   8.710
 1790POPC   D2A25204  25.350   1.742   8.390
 1790POPC   C3A25205  25.175   1.906   8.030
 1790POPC   C4A25206  25.098   1.907   7.591
 1790POPC   C1B25207  25.646   2.147   8.646
 1790POPC   C2B25208  25.406   2.273   8.305
 1790POPC   C3B25209  25.455   2.304   7.890
 1790POPC   C4B25210  25.596   1.952   7.729
 1791POPC   NC325211   5.554  25.701   9.465
 1791POPC   PO425212   5.773  25.074   9.548
 1791POPC   GL125213   5.969  25.171   9.188
 1791POPC   GL225214   5.921  25.511   9.152
 1791POPC   C1A25215   5.928  25.167   8.759
 1791POPC   D2A25216   6.087  25.044   8.399
 1791POPC   C3A25217   5.769  25.145   8.105
 1791POPC   C4A25218   5.826  24.972   7.717
 1791POPC   C1B25219   5.646  25.613   8.814
 1791POPC   C2B25220   5.488  25.523   8.393
 1791POPC   C3B25221   5.590  25.698   7.990
 1791POPC   C4B25222   5.824  25.491   7.709
 1792POPC   NC325223  34.204  12.053   9.376
 1792POPC   PO425224  34.815  12.097   9.550
 1792POPC   GL125225  34.831  11.951   9.132
 1792POPC   GL225226  34.512  11.976   8.997
 1792POPC   C1A25227  34.929  12.071   8.695
 1792POPC   D2A25228  34.813  12.435   8.408
 1792POPC   C3A25229  34.689  12.274   8.002
 1792POPC   C4A25230  34.373  12.057   7.789
 1792POPC   C1B25231  34.198  11.780   8.720
 1792POPC   C2B25232  34.353  11.701   8.318
 1792POPC   C3B25233  34.662  11.682   7.981
 1792POPC   C4B25234  34.642  11.698   7.527
 1793POPC   NC325235  11.126  17.145   9.458
 1793POPC   PO425236  11.492  17.796   9.500
 1793POPC   GL125237  11.336  17.537   9.195
 1793POPC   GL225238  11.014  17.683   9.197
 1793POPC   C1A25239  11.177  17.354   8.816
 1793POPC   D2A25240  11.354  17.151   8.469
 1793POPC   C3A25241  11.272  17.200   8.050
 1793POPC   C4A25242  11.548  17.327   7.729
 1793POPC   C1B25243  11.265  17.873   8.813
 1793POPC   C2B25244  11.281  17.903   8.329
 1793POPC   C3B25245  11.175  17.720   7.901
 1793POPC   C4B25246  11.284  17.681   7.434
 1794POPC   NC325247  33.822  34.127   9.697
 1794POPC   PO425248  33.707  34.737   9.840
 1794POPC   GL125249  33.835  34.591   9.408
 1794POPC   GL225250  33.575  34.648   9.137
 1794POPC   C1A25251  34.054  34.578   8.990
 1794POPC   D2A25252  34.100  34.717   8.541
 1794POPC   C3A25253  33.914  34.470   8.178
 1794POPC   C4A25254  33.773  34.620   7.766
 1794POPC   C1B25255  33.342  34.466   8.794
 1794POPC   C2B25256  33.370  34.375   8.364
 1794POPC   C3B25257  33.430  34.300   7.944
 1794POPC   C4B25258  33.276  34.509   7.582
 1795POPC   NC325259  38.559   2.331   9.391
 1795POPC   PO425260  38.158   1.692   9.403
 1795POPC   GL125261  38.419   1.901   9.157
 1795POPC   GL225262  38.150   2.180   9.133
 1795POPC   C1A25263  38.687   1.929   8.799
 1795POPC   D2A25264  38.535   1.861   8.396
 1795POPC   C3A25265  38.788   1.762   8.009
 1795POPC   C4A25266  38.576   1.868   7.667
 1795POPC   C1B25267  38.120   1.985   8.741
 1795POPC   C2B25268  38.159   2.189   8.362
 1795POPC   C3B25269  38.192   1.938   8.007
 1795POPC   C4B25270  38.053   1.724   7.661
 1796POPC   NC325271  22.513  39.412   9.388
 1796POPC   PO425272  22.018  38.979   9.406
 1796POPC   GL125273  22.340  39.012   9.099
 1796POPC   GL225274  22.156  39.327   9.018
 1796POPC   C1A25275  22.314  38.942   8.669
 1796POPC   D2A25276  22.004  38.839   8.363
 1796POPC   C3A25277  22.155  38.995   7.979
 1796POPC   C4A25278  21.959  39.343   7.732
 1796POPC   C1B25279  22.482  39.417   8.736
 1796POPC   C2B25280  22.540  39.268   8.349
 1796POPC   C3B25281  22.352  39.444   8.024
 1796POPC   C4B25282  22.456  39.281   7.636
 1797POPC   NC325283  19.539  25.968   9.656
 1797POPC   PO425284  20.025  25.723   9.250
 1797POPC   GL125285  19.780  26.050   9.158
 1797POPC   GL225286  20.011  26.330   9.146
 1797POPC   C1A25287  19.545  26.111   8.788
 1797POPC   D2A25288  19.410  26.297   8.392
 1797POPC   C3A25289  19.543  26.200   7.949
 1797POPC   C4A25290  19.528  26.137   7.483
 1797POPC   C1B25291  20.318  26.379   8.825
 1797POPC   C2B25292  20.376  26.294   8.394
 1797POPC   C3B25293  20.331  26.227   7.956
 1797POPC   C4B25294  20.028  26.105   7.669
 1798POPC   NC325295  20.234  13.473   9.454
 1798POPC   PO425296  20.854  13.701   9.611
 1798POPC   GL125297  20.643  13.715   9.228
 1798POPC   GL225298  20.665  13.361   9.203
 1798POPC   C1A25299  20.557  13.664   8.777
 1798POPC   D2A25300  20.274  13.486   8.467
 1798POPC   C3A25301  20.285  13.690   8.065
 1798POPC   C4A25302  20.506  13.584   7.702
 1798POPC   C1B25303  20.717  13.132   8.838
 1798POPC   C2B25304  20.895  13.106   8.442
 1798POPC   C3B25305  20.719  13.339   8.112
 1798POPC   C4B25306  21.000  13.205   7.787
 1799POPC   NC325307   8.592  32.253   9.316
 1799POPC   PO425308   9.150  32.633   9.478
 1799POPC   GL125309   9.160  32.313   9.123
 1799POPC   GL225310   9.169  31.938   9.173
 1799POPC   C1A25311   8.930  32.295   8.719
 1799POPC   D2A25312   8.617  32.470   8.422
 1799POPC   C3A25313   8.798  32.521   8.029
 1799POPC   C4A25314   9.183  32.381   7.821
 1799POPC   C1B25315   8.910  31.780   8.810
 1799POPC   C2B25316   8.753  31.910   8.405
 1799POPC   C3B25317   8.981  31.920   8.013
 1799POPC   C4B25318   9.075  31.856   7.555
 1800POPC   NC325319  39.639  34.327   9.852
 1800POPC   PO425320  40.030  34.706   9.398
 1800POPC   GL125321  39.933  34.719   9.003
 1800POPC   GL225322  39.671  34.925   9.061
 1800POPC   C1A25323  39.811  34.417   8.665
 1800POPC   D2A25324  39.696  34.303   8.232
 1800POPC   C3A25325  40.046  34.431   7.935
 1800POPC   C4A25326  40.197  34.864   7.802
 1800POPC   C1B25327  39.635  34.899   8.643
 1800POPC   C2B25328  39.788  34.795   8.300
 1800POPC   C3B25329  39.686  34.796   7.920
 1800POPC   C4B25330  39.757  34.770   7.532
 1801POPC   NC325331   8.111  44.356   9.614
 1801POPC   PO425332   7.942  44.927   9.712
 1801POPC   GL125333   8.056  44.735   9.205
 1801POPC   GL225334   8.292   0.028   9.060
 1801POPC   C1A25335   8.295  44.626   8.779
 1801POPC   D2A25336   8.135  44.677   8.382
 1801POPC   C3A25337   8.315  44.807   8.012
 1801POPC   C4A25338   8.435  44.476   7.812
 1801POPC   C1B25339   7.959   0.033   8.712
 1801POPC   C2B25340   7.817   0.113   8.322
 1801POPC   C3B25341   7.724   0.207   7.900
 1801POPC   C4B25342   7.966   0.061   7.577
 1802POPC   NC325343   7.819  19.501   9.409
 1802POPC   PO425344   7.388  20.114   9.534
 1802POPC   GL125345   7.554  19.871   9.167
 1802POPC   GL225346   7.834  20.090   9.151
 1802POPC   C1A25347   7.365  19.653   8.756
 1802POPC   D2A25348   7.278  19.891   8.392
 1802POPC   C3A25349   7.056  19.812   8.026
 1802POPC   C4A25350   7.226  19.512   7.771
 1802POPC   C1B25351   7.616  20.103   8.733
 1802POPC   C2B25352   7.753  20.075   8.312
 1802POPC   C3B25353   7.511  20.122   7.962
 1802POPC   C4B25354   7.284  20.054   7.607
 1803POPC   NC325355  10.723  10.270   9.666
 1803POPC   PO425356  10.326  10.742   9.385
 1803POPC   GL125357  10.512  10.537   9.097
 1803POPC   GL225358  10.845  10.480   9.206
 1803POPC   C1A25359  10.449  10.664   8.693
 1803POPC   D2A25360  10.208  10.767   8.355
 1803POPC   C3A25361  10.437  10.722   7.999
 1803POPC   C4A25362  10.266  10.554   7.618
 1803POPC   C1B25363  10.823  10.296   8.776
 1803POPC   C2B25364  10.586  10.292   8.364
 1803POPC   C3B25365  10.602  10.261   7.930
 1803POPC   C4B25366  10.768  10.537   7.622
 1804POPC   NC325367  44.108   6.521   9.328
 1804POPC   PO425368  44.515   6.797   9.850
 1804POPC   GL125369  44.575   6.750   9.322
 1804POPC   GL225370  44.320   6.874   9.041
 1804POPC   C1A25371  44.719   6.611   8.853
 1804POPC   D2A25372  44.596   6.463   8.374
 1804POPC   C3A25373  44.849   6.371   8.007
 1804POPC   C4A25374  44.815   6.486   7.538
 1804POPC   C1B25375  44.195   6.613   8.674
 1804POPC   C2B25376  44.138   6.682   8.224
 1804POPC   C3B25377  44.405   6.579   7.859
 1804POPC   C4B25378  44.314   6.402   7.431
 1805POPC   NC325379   4.565  11.230   9.564
 1805POPC   PO425380   4.031  11.545   9.259
 1805POPC   GL125381   4.209  11.172   9.067
 1805POPC   GL225382   4.574  11.175   9.072
 1805POPC   C1A25383   4.334  11.134   8.614
 1805POPC   D2A25384   4.186  11.408   8.262
 1805POPC   C3A25385   4.139  11.181   7.860
 1805POPC   C4A25386   4.403  11.111   7.474
 1805POPC   C1B25387   4.606  11.561   8.899
 1805POPC   C2B25388   4.673  11.527   8.486
 1805POPC   C3B25389   4.640  11.215   8.149
 1805POPC   C4B25390   4.499  11.511   7.828
 1806POPC   NC325391  26.248  17.195   9.457
 1806POPC   PO425392  25.979  17.814   9.495
 1806POPC   GL125393  26.111  17.576   9.163
 1806POPC   GL225394  25.876  17.266   9.110
 1806POPC   C1A25395  26.226  17.469   8.777
 1806POPC   D2A25396  26.051  17.682   8.479
 1806POPC   C3A25397  26.161  17.495   8.146
 1806POPC   C4A25398  26.354  17.439   7.801
 1806POPC   C1B25399  25.702  17.642   8.869
 1806POPC   C2B25400  25.581  17.881   8.497
 1806POPC   C3B25401  25.562  17.796   8.055
 1806POPC   C4B25402  25.799  17.515   7.793
 1807POPC   NC325403  40.316  20.905   9.438
 1807POPC   PO425404  40.589  20.340   9.456
 1807POPC   GL125405  40.632  20.574   9.073
 1807POPC   GL225406  40.963  20.445   8.902
 1807POPC   C1A25407  40.596  20.661   8.645
 1807POPC   D2A25408  40.793  20.560   8.300
 1807POPC   C3A25409  40.507  20.664   7.985
 1807POPC   C4A25410  40.542  20.891   7.628
 1807POPC   C1B25411  41.028  20.878   8.787
 1807POPC   C2B25412  41.011  21.040   8.397
 1807POPC   C3B25413  40.952  20.922   7.990
 1807POPC   C4B25414  41.242  21.005   7.715
 1808POPC   NC325415  21.047  27.089   9.840
 1808POPC   PO425416  20.561  26.712   9.654
 1808POPC   GL125417  20.590  26.619   9.222
 1808POPC   GL225418  20.676  26.969   9.163
 1808POPC   C1A25419  20.785  26.625   8.787
 1808POPC   D2A25420  20.705  26.924   8.433
 1808POPC   C3A25421  20.689  26.728   8.034
 1808POPC   C4A25422  21.081  26.537   7.882
 1808POPC   C1B25423  20.350  26.897   8.852
 1808POPC   C2B25424  20.216  26.792   8.464
 1808POPC   C3B25425  20.166  26.980   8.082
 1808POPC   C4B25426  20.334  26.949   7.687
 1809POPC   NC325427   4.685  43.447   9.848
 1809POPC   PO425428   4.069  43.237   9.693
 1809POPC   GL125429   4.190  43.302   9.176
 1809POPC   GL225430   4.508  43.117   9.133
 1809POPC   C1A25431   4.199  43.032   8.738
 1809POPC   D2A25432   4.487  42.755   8.517
 1809POPC   C3A25433   4.471  42.779   8.069
 1809POPC   C4A25434   4.290  42.973   7.672
 1809POPC   C1B25435   4.573  43.357   8.728
 1809POPC   C2B25436   4.660  43.208   8.349
 1809POPC   C3B25437   4.554  43.300   7.955
 1809POPC   C4B25438   4.597  43.380   7.503
 1810POPC   NC325439  12.415  37.633   9.668
 1810POPC   PO425440  11.785  37.506   9.759
 1810POPC   GL125441  12.016  37.527   9.334
 1810POPC   GL225442  12.332  37.480   9.122
 1810POPC   C1A25443  12.007  37.831   8.966
 1810POPC   D2A25444  11.860  37.715   8.557
 1810POPC   C3A25445  12.080  37.690   8.182
 1810POPC   C4A25446  12.208  38.003   7.927
 1810POPC   C1B25447  12.336  37.543   8.677
 1810POPC   C2B25448  12.523  37.821   8.370
 1810POPC   C3B25449  12.543  37.602   7.984
 1810POPC   C4B25450  12.262  37.373   7.760
 1811POPC   NC325451  28.668  24.602   9.504
 1811POPC   PO425452  28.025  24.421   9.341
 1811POPC   GL125453  28.153  24.622   8.985
 1811POPC   GL225454  28.477  24.742   9.067
 1811POPC   C1A25455  28.420  24.423   8.656
 1811POPC   D2A25456  28.651  24.172   8.360
 1811POPC   C3A25457  28.398  24.279   8.010
 1811POPC   C4A25458  28.189  24.636   7.838
 1811POPC   C1B25459  28.427  24.947   8.671
 1811POPC   C2B25460  28.381  24.866   8.263
 1811POPC   C3B25461  28.676  24.719   7.982
 1811POPC   C4B25462  28.911  24.363   7.960
 1812POPC   NC325463  43.582  39.761   9.556
 1812POPC   PO425464  42.909  39.786   9.614
 1812POPC   GL125465  43.021  39.925   9.224
 1812POPC   GL225466  43.350  39.967   9.154
 1812POPC   C1A25467  42.985  39.873   8.816
 1812POPC   D2A25468  42.870  40.142   8.514
 1812POPC   C3A25469  42.980  39.905   8.182
 1812POPC   C4A25470  42.839  39.857   7.797
 1812POPC   C1B25471  43.342  40.222   8.776
 1812POPC   C2B25472  43.333  40.282   8.352
 1812POPC   C3B25473  43.022  40.361   8.031
 1812POPC   C4B25474  43.193  40.203   7.712
 1813POPC   NC325475   0.600  30.646   9.430
 1813POPC   PO425476   0.309  30.987   9.998
 1813POPC   GL125477   0.299  31.051   9.432
 1813POPC   GL225478   0.608  31.084   9.183
 1813POPC   C1A25479   0.240  30.924   8.914
 1813POPC   D2A25480   0.431  30.794   8.527
 1813POPC   C3A25481   0.262  30.782   8.128
 1813POPC   C4A25482   0.297  31.130   7.837
 1813POPC   C1B25483   0.809  30.836   8.861
 1813POPC   C2B25484   0.950  30.732   8.453
 1813POPC   C3B25485   0.765  30.855   8.081
 1813POPC   C4B25486   0.716  30.904   7.657
 1814POPC   NC325487  15.917  15.147   9.504
 1814POPC   PO425488  16.462  15.522   9.734
 1814POPC   GL125489  16.070  15.592   9.281
 1814POPC   GL225490  16.029  15.259   9.026
 1814POPC   C1A25491  15.805  15.613   8.810
 1814POPC   D2A25492  16.085  15.426   8.466
 1814POPC   C3A25493  16.075  15.463   7.993
 1814POPC   C4A25494  15.718  15.377   7.690
 1814POPC   C1B25495  16.210  14.992   8.722
 1814POPC   C2B25496  16.058  14.884   8.322
 1814POPC   C3B25497  15.956  14.982   7.939
 1814POPC   C4B25498  16.169  15.134   7.599
 1815POPC   NC325499  14.051  19.595   9.432
 1815POPC   PO425500  14.711  19.773   9.403
 1815POPC   GL125501  14.468  19.950   9.083
 1815POPC   GL225502  14.106  20.015   9.088
 1815POPC   C1A25503  14.386  20.087   8.672
 1815POPC   D2A25504  14.208  19.886   8.351
 1815POPC   C3A25505  14.325  19.969   7.967
 1815POPC   C4A25506  14.426  19.817   7.576
 1815POPC   C1B25507  13.942  19.719   8.762
 1815POPC   C2B25508  14.091  19.403   8.406
 1815POPC   C3B25509  14.095  19.507   7.984
 1815POPC   C4B25510  13.908  19.833   7.731
 1816POPC   NC325511  34.736  15.456   9.380
 1816POPC   PO425512  34.325  16.001   9.532
 1816POPC   GL125513  34.484  15.852   9.146
 1816POPC   GL225514  34.795  15.991   9.209
 1816POPC   C1A25515  34.555  15.917   8.702
 1816POPC   D2A25516  34.303  16.054   8.349
 1816POPC   C3A25517  34.464  15.840   7.998
 1816POPC   C4A25518  34.801  15.580   7.872
 1816POPC   C1B25519  34.809  16.358   8.918
 1816POPC   C2B25520  34.863  16.287   8.462
 1816POPC   C3B25521  34.656  16.321   8.039
 1816POPC   C4B25522  34.739  16.078   7.642
 1817POPC   NC325523  39.706  23.214   9.389
 1817POPC   PO425524  40.242  22.720   9.510
 1817POPC   GL125525  40.066  22.858   9.151
 1817POPC   GL225526  40.174  23.164   9.181
 1817POPC   C1A25527  39.810  22.921   8.783
 1817POPC   D2A25528  39.837  23.048   8.347
 1817POPC   C3A25529  39.800  22.773   7.988
 1817POPC   C4A25530  39.795  22.488   7.652
 1817POPC   C1B25531  40.378  23.315   8.812
 1817POPC   C2B25532  40.233  23.445   8.409
 1817POPC   C3B25533  39.890  23.486   8.121
 1817POPC   C4B25534  40.013  23.198   7.795
 1818POPC   NC325535  30.791   9.985   9.668
 1818POPC   PO425536  30.728   9.396   9.491
 1818POPC   GL125537  30.689   9.580   9.103
 1818POPC   GL225538  30.865   9.886   9.110
 1818POPC   C1A25539  30.882   9.430   8.732
 1818POPC   D2A25540  31.097   9.629   8.420
 1818POPC   C3A25541  30.775   9.781   8.127
 1818POPC   C4A25542  30.712   9.630   7.711
 1818POPC   C1B25543  30.713   9.906   8.662
 1818POPC   C2B25544  30.585  10.280   8.412
 1818POPC   C3B25545  30.623  10.261   7.961
 1818POPC   C4B25546  30.638  10.107   7.529
 1819POPC   NC325547  22.653   0.622   9.544
 1819POPC   PO425548  23.256   0.811   9.339
 1819POPC   GL125549  22.952   0.648   9.113
 1819POPC   GL225550  23.005   0.340   9.233
 1819POPC   C1A25551  22.860   0.744   8.710
 1819POPC   D2A25552  22.909   0.560   8.315
 1819POPC   C3A25553  23.054   0.701   7.947
 1819POPC   C4A25554  23.075   0.695   7.523
 1819POPC   C1B25555  23.070   0.147   8.843
 1819POPC   C2B25556  23.122   0.075   8.401
 1819POPC   C3B25557  23.040   0.175   7.972
 1819POPC   C4B25558  22.780  44.971   7.693
 1820POPC   NC325559  16.396   9.255   9.485
 1820POPC   PO425560  16.807   8.726   9.471
 1820POPC   GL125561  16.702   8.996   9.165
 1820POPC   GL225562  17.015   9.156   9.166
 1820POPC   C1A25563  16.533   8.985   8.727
 1820POPC   D2A25564  16.442   8.779   8.358
 1820POPC   C3A25565  16.385   8.936   7.945
 1820POPC   C4A25566  16.495   8.582   7.708
 1820POPC   C1B25567  17.001   8.781   8.838
 1820POPC   C2B25568  16.994   8.853   8.428
 1820POPC   C3B25569  16.884   8.811   8.003
 1820POPC   C4B25570  17.029   8.748   7.585
 1821POPC   NC325571  44.182   6.435   9.824
 1821POPC   PO425572  43.904   6.945   9.413
 1821POPC   GL125573  43.642   6.713   9.184
 1821POPC   GL225574  43.544   6.975   8.986
 1821POPC   C1A25575  43.659   6.466   8.821
 1821POPC   D2A25576  43.559   6.640   8.457
 1821POPC   C3A25577  43.617   6.500   8.049
 1821POPC   C4A25578  43.920   6.610   7.716
 1821POPC   C1B25579  43.862   7.012   8.659
 1821POPC   C2B25580  44.054   7.244   8.326
 1821POPC   C3B25581  44.338   7.136   8.018
 1821POPC   C4B25582  44.238   7.010   7.618
 1822POPC   NC325583  17.391  39.371   9.551
 1822POPC   PO425584  17.801  38.945   9.516
 1822POPC   GL125585  17.657  39.133   9.159
 1822POPC   GL225586  17.306  39.102   9.129
 1822POPC   C1A25587  17.757  39.292   8.773
 1822POPC   D2A25588  17.550  39.251   8.393
 1822POPC   C3A25589  17.686  39.339   8.004
 1822POPC   C4A25590  17.437  39.413   7.660
 1822POPC   C1B25591  17.397  38.912   8.753
 1822POPC   C2B25592  17.277  38.798   8.366
 1822POPC   C3B25593  17.284  39.016   8.014
 1822POPC   C4B25594  17.111  38.999   7.666
 1823POPC   NC325595   0.607  32.251   9.446
 1823POPC   PO425596  44.954  32.301   9.268
 1823POPC   GL125597   0.222  32.011   9.033
 1823POPC   GL225598   0.610  32.026   9.006
 1823POPC   C1A25599   0.313  31.790   8.648
 1823POPC   D2A25600   0.671  31.918   8.470
 1823POPC   C3A25601   0.557  32.178   8.127
 1823POPC   C4A25602   0.263  32.044   7.783
 1823POPC   C1B25603   0.848  32.312   8.761
 1823POPC   C2B25604   0.965  32.490   8.363
 1823POPC   C3B25605   0.930  32.474   7.933
 1823POPC   C4B25606   0.547  32.577   7.694
 1824POPC   NC325607   3.988  42.904   9.380
 1824POPC   PO425608   4.414  42.401   9.583
 1824POPC   GL125609   4.194  42.409   9.186
 1824POPC   GL225610   4.361  42.638   9.023
 1824POPC   C1A25611   4.113  42.153   8.781
 1824POPC   D2A25612   4.221  42.020   8.374
 1824POPC   C3A25613   4.008  42.167   8.054
 1824POPC   C4A25614   4.095  42.233   7.623
 1824POPC   C1B25615   4.597  42.333   8.790
 1824POPC   C2B25616   4.658  42.288   8.355
 1824POPC   C3B25617   4.506  42.262   7.958
 1824POPC   C4B25618   4.526  42.505   7.597
 1825POPC   NC325619  13.296   3.237   9.378
 1825POPC   PO425620  12.920   3.773   9.468
 1825POPC   GL125621  12.679   3.603   9.129
 1825POPC   GL225622  12.803   3.296   9.123
 1825POPC   C1A25623  12.624   3.530   8.684
 1825POPC   D2A25624  12.759   3.267   8.350
 1825POPC   C3A25625  12.778   3.578   8.029
 1825POPC   C4A25626  12.495   3.669   7.716
 1825POPC   C1B25627  13.109   3.378   8.783
 1825POPC   C2B25628  13.205   3.519   8.392
 1825POPC   C3B25629  13.226   3.369   7.989
 1825POPC   C4B25630  13.310   3.732   7.785
 1826POPC   NC325631  15.914  40.419   9.467
 1826POPC   PO425632  15.749  39.790   9.536
 1826POPC   GL125633  15.840  39.752   9.114
 1826POPC   GL225634  15.884  40.097   9.062
 1826POPC   C1A25635  15.657  39.842   8.683
 1826POPC   D2A25636  15.901  39.968   8.309
 1826POPC   C3A25637  15.842  39.738   7.938
 1826POPC   C4A25638  15.847  39.936   7.543
 1826POPC   C1B25639  15.800  40.336   8.677
 1826POPC   C2B25640  15.523  40.319   8.297
 1826POPC   C3B25641  15.528  40.187   7.860
 1826POPC   C4B25642  15.475  40.263   7.390
 1827POPC   NC325643  24.769  17.461   9.497
 1827POPC   PO425644  24.224  17.810   9.459
 1827POPC   GL125645  24.385  17.492   9.147
 1827POPC   GL225646  24.731  17.353   9.004
 1827POPC   C1A25647  24.242  17.388   8.782
 1827POPC   D2A25648  24.296  17.603   8.417
 1827POPC   C3A25649  24.319  17.334   8.087
 1827POPC   C4A25650  24.605  17.268   7.750
 1827POPC   C1B25651  24.667  17.753   8.790
 1827POPC   C2B25652  24.726  17.902   8.369
 1827POPC   C3B25653  24.566  17.782   8.001
 1827POPC   C4B25654  24.780  17.737   7.613
 1828POPC   NC325655  20.441  15.069   9.560
 1828POPC   PO425656  21.128  15.136   9.631
 1828POPC   GL125657  20.900  15.060   9.187
 1828POPC   GL225658  20.571  15.150   9.046
 1828POPC   C1A25659  20.901  15.034   8.685
 1828POPC   D2A25660  20.747  14.912   8.259
 1828POPC   C3A25661  20.758  15.120   7.837
 1828POPC   C4A25662  20.799  15.354   7.406
 1828POPC   C1B25663  20.558  15.422   8.662
 1828POPC   C2B25664  20.574  15.418   8.198
 1828POPC   C3B25665  20.437  15.527   7.752
 1828POPC   C4B25666  20.295  15.528   7.305
 1829POPC   NC325667  17.545  41.117   9.510
 1829POPC   PO425668  17.168  40.581   9.490
 1829POPC   GL125669  17.493  40.683   9.197
 1829POPC   GL225670  17.691  40.383   9.152
 1829POPC   C1A25671  17.478  40.897   8.805
 1829POPC   D2A25672  17.433  41.140   8.454
 1829POPC   C3A25673  17.392  40.895   8.102
 1829POPC   C4A25674  17.703  40.859   7.771
 1829POPC   C1B25675  17.479  40.354   8.775
 1829POPC   C2B25676  17.365  40.447   8.349
 1829POPC   C3B25677  17.622  40.382   7.977
 1829POPC   C4B25678  17.655  40.396   7.546
 1830POPC   NC325679  16.325   4.443   9.623
 1830POPC   PO425680  16.930   4.224   9.507
 1830POPC   GL125681  16.728   4.182   9.137
 1830POPC   GL225682  16.560   4.489   9.173
 1830POPC   C1A25683  16.794   4.356   8.717
 1830POPC   D2A25684  17.084   4.366   8.401
 1830POPC   C3A25685  16.985   4.568   8.050
 1830POPC   C4A25686  16.696   4.276   7.884
 1830POPC   C1B25687  16.310   4.287   8.848
 1830POPC   C2B25688  16.359   4.292   8.416
 1830POPC   C3B25689  16.230   4.112   8.055
 1830POPC   C4B25690  16.186   4.166   7.622
 1831POPC   NC325691  26.650  27.031   9.981
 1831POPC   PO425692  26.983  26.920   9.415
 1831POPC   GL125693  26.822  26.516   9.275
 1831POPC   GL225694  26.517  26.515   9.096
 1831POPC   C1A25695  26.956  26.476   8.842
 1831POPC   D2A25696  26.863  26.540   8.431
 1831POPC   C3A25697  27.107  26.794   8.151
 1831POPC   C4A25698  26.944  26.843   7.747
 1831POPC   C1B25699  26.582  26.851   8.797
 1831POPC   C2B25700  26.703  27.018   8.424
 1831POPC   C3B25701  26.566  26.841   8.065
 1831POPC   C4B25702  26.452  27.021   7.701
 1832POPC   NC325703  35.066  27.235   9.479
 1832POPC   PO425704  34.670  27.787   9.441
 1832POPC   GL125705  34.648  27.576   9.114
 1832POPC   GL225706  34.598  27.262   9.254
 1832POPC   C1A25707  34.733  27.585   8.695
 1832POPC   D2A25708  34.648  27.646   8.296
 1832POPC   C3A25709  34.301  27.861   8.184
 1832POPC   C4A25710  34.186  27.785   7.782
 1832POPC   C1B25711  34.695  27.094   8.840
 1832POPC   C2B25712  34.733  27.081   8.409
 1832POPC   C3B25713  34.526  27.207   8.042
 1832POPC   C4B25714  34.434  27.310   7.646
 1833POPC   NC325715  18.131  10.305   9.862
 1833POPC   PO425716  18.390  10.731   9.240
 1833POPC   GL125717  18.414  10.425   8.934
 1833POPC   GL225718  18.110  10.341   8.872
 1833POPC   C1A25719  18.436  10.397   8.484
 1833POPC   D2A25720  18.433  10.804   8.287
 1833POPC   C3A25721  18.621  10.774   7.903
 1833POPC   C4A25722  18.498  10.388   7.677
 1833POPC   C1B25723  17.970  10.695   8.634
 1833POPC   C2B25724  17.932  10.742   8.187
 1833POPC   C3B25725  18.103  10.395   7.998
 1833POPC   C4B25726  18.029  10.177   7.616
 1834POPC   NC325727  24.789  42.389   9.461
 1834POPC   PO425728  24.066  42.243   9.381
 1834POPC   GL125729  24.280  42.241   9.009
 1834POPC   GL225730  24.506  42.552   9.055
 1834POPC   C1A25731  24.305  42.413   8.604
 1834POPC   D2A25732  24.640  42.656   8.421
 1834POPC   C3A25733  24.517  42.632   8.005
 1834POPC   C4A25734  24.378  42.209   7.841
 1834POPC   C1B25735  24.773  42.282   8.786
 1834POPC   C2B25736  25.005  42.092   8.467
 1834POPC   C3B25737  24.841  42.109   8.051
 1834POPC   C4B25738  24.836  42.399   7.701
 1835POPC   NC325739   2.903  25.848   9.393
 1835POPC   PO425740   2.298  25.932   9.727
 1835POPC   GL125741   2.395  25.955   9.250
 1835POPC   GL225742   2.591  26.274   9.215
 1835POPC   C1A25743   2.625  25.937   8.804
 1835POPC   D2A25744   2.982  26.097   8.526
 1835POPC   C3A25745   2.921  26.047   8.067
 1835POPC   C4A25746   2.549  25.865   7.865
 1835POPC   C1B25747   2.449  26.423   8.803
 1835POPC   C2B25748   2.510  26.262   8.372
 1835POPC   C3B25749   2.551  26.415   7.942
 1835POPC   C4B25750   2.648  26.264   7.544
 1836POPC   NC325751  10.777   3.854   9.867
 1836POPC   PO425752  10.378   3.395   9.586
 1836POPC   GL125753  10.353   3.384   9.182
 1836POPC   GL225754  10.309   3.745   9.178
 1836POPC   C1A25755  10.557   3.355   8.766
 1836POPC   D2A25756  10.677   3.608   8.396
 1836POPC   C3A25757  10.600   3.366   8.034
 1836POPC   C4A25758  10.798   3.149   7.696
 1836POPC   C1B25759  10.319   3.819   8.755
 1836POPC   C2B25760  10.369   4.027   8.378
 1836POPC   C3B25761  10.438   3.892   7.949
 1836POPC   C4B25762  10.494   3.960   7.493
 1837POPC   NC325763  22.314  28.188   9.497
 1837POPC   PO425764  21.656  28.166   9.536
 1837POPC   GL125765  21.900  28.150   9.171
 1837POPC   GL225766  22.081  27.844   9.153
 1837POPC   C1A25767  22.002  28.435   8.809
 1837POPC   D2A25768  21.970  28.556   8.360
 1837POPC   C3A25769  22.347  28.487   8.100
 1837POPC   C4A25770  22.242  28.509   7.682
 1837POPC   C1B25771  22.022  27.932   8.727
 1837POPC   C2B25772  22.175  28.059   8.340
 1837POPC   C3B25773  22.071  28.083   7.903
 1837POPC   C4B25774  21.993  28.155   7.438
 1838POPC   NC325775   5.744  12.481   9.573
 1838POPC   PO425776   6.302  12.038   9.475
 1838POPC   GL125777   5.963  12.165   9.202
 1838POPC   GL225778   5.598  12.058   9.214
 1838POPC   C1A25779   5.930  12.271   8.779
 1838POPC   D2A25780   6.164  12.104   8.438
 1838POPC   C3A25781   6.168  12.299   8.065
 1838POPC   C4A25782   6.044  12.230   7.638
 1838POPC   C1B25783   5.614  11.832   8.798
 1838POPC   C2B25784   5.638  12.016   8.390
 1838POPC   C3B25785   5.664  12.245   8.007
 1838POPC   C4B25786   5.636  11.932   7.721
 1839POPC   NC325787  37.375  10.925   9.498
 1839POPC   PO425788  37.978  10.847   9.405
 1839POPC   GL125789  37.657  10.670   9.133
 1839POPC   GL225790  37.655  10.328   9.074
 1839POPC   C1A25791  37.532  10.657   8.698
 1839POPC   D2A25792  37.854  10.821   8.439
 1839POPC   C3A25793  37.728  10.818   8.047
 1839POPC   C4A25794  37.433  10.722   7.763
 1839POPC   C1B25795  37.969  10.388   8.705
 1839POPC   C2B25796  38.064  10.406   8.228
 1839POPC   C3B25797  37.855  10.350   7.817
 1839POPC   C4B25798  38.041  10.281   7.392
 1840POPC   NC325799  17.601  28.631   9.435
 1840POPC   PO425800  17.111  28.133   9.471
 1840POPC   GL125801  17.185  28.280   9.093
 1840POPC   GL225802  17.219  28.604   9.094
 1840POPC   C1A25803  17.366  28.149   8.697
 1840POPC   D2A25804  17.649  28.300   8.346
 1840POPC   C3A25805  17.563  28.183   7.878
 1840POPC   C4A25806  17.743  28.294   7.435
 1840POPC   C1B25807  17.457  28.642   8.750
 1840POPC   C2B25808  17.335  28.816   8.377
 1840POPC   C3B25809  17.481  28.667   8.027
 1840POPC   C4B25810  17.401  28.648   7.639
 1841POPC   NC325811   3.240  40.016  10.130
 1841POPC   PO425812   3.718  39.896   9.638
 1841POPC   GL125813   3.752  39.934   9.191
 1841POPC   GL225814   3.770  40.298   9.158
 1841POPC   C1A25815   3.499  39.886   8.824
 1841POPC   D2A25816   3.240  40.113   8.511
 1841POPC   C3A25817   3.285  40.029   8.072
 1841POPC   C4A25818   3.362  39.902   7.645
 1841POPC   C1B25819   3.519  40.432   8.800
 1841POPC   C2B25820   3.530  40.527   8.331
 1841POPC   C3B25821   3.421  40.463   7.852
 1841POPC   C4B25822   3.393  40.572   7.398
 1842POPC   NC325823   8.555  24.085   9.763
 1842POPC   PO425824   8.133  24.617   9.512
 1842POPC   GL125825   8.303  24.576   9.122
 1842POPC   GL225826   8.428  24.258   9.058
 1842POPC   C1A25827   8.467  24.646   8.725
 1842POPC   D2A25828   8.515  24.879   8.359
 1842POPC   C3A25829   8.189  24.764   8.082
 1842POPC   C4A25830   8.268  24.639   7.692
 1842POPC   C1B25831   8.111  24.250   8.729
 1842POPC   C2B25832   8.148  24.296   8.309
 1842POPC   C3B25833   8.326  24.183   7.918
 1842POPC   C4B25834   8.387  24.085   7.456
 1843POPC   NC325835  43.298  10.959   9.847
 1843POPC   PO425836  43.133  11.556   9.600
 1843POPC   GL125837  43.050  11.313   9.242
 1843POPC   GL225838  43.389  11.414   9.105
 1843POPC   C1A25839  43.033  11.274   8.793
 1843POPC   D2A25840  43.139  11.514   8.427
 1843POPC   C3A25841  42.997  11.338   8.058
 1843POPC   C4A25842  42.871  10.989   7.813
 1843POPC   C1B25843  43.538  11.245   8.677
 1843POPC   C2B25844  43.519  11.214   8.219
 1843POPC   C3B25845  43.456  11.491   7.866
 1843POPC   C4B25846  43.433  11.448   7.393
 1844POPC   NC325847  13.950  10.755   9.433
 1844POPC   PO425848  14.694  10.640   9.461
 1844POPC   GL125849  14.661  10.462   9.087
 1844POPC   GL225850  14.308  10.428   9.084
 1844POPC   C1A25851  14.644  10.360   8.660
 1844POPC   D2A25852  14.370  10.415   8.303
 1844POPC   C3A25853  14.532  10.353   7.876
 1844POPC   C4A25854  14.496  10.281   7.423
 1844POPC   C1B25855  14.197  10.672   8.750
 1844POPC   C2B25856  14.059  10.827   8.362
 1844POPC   C3B25857  14.041  10.632   7.969
 1844POPC   C4B25858  14.257  10.700   7.607
 1845POPC   NC325859  12.967   7.966   9.560
 1845POPC   PO425860  12.465   8.395   9.589
 1845POPC   GL125861  12.839   8.359   9.272
 1845POPC   GL225862  12.694   8.068   9.131
 1845POPC   C1A25863  13.044   8.356   8.852
 1845POPC   D2A25864  13.083   8.103   8.447
 1845POPC   C3A25865  13.052   8.256   8.028
 1845POPC   C4A25866  13.017   8.088   7.610
 1845POPC   C1B25867  12.610   8.124   8.701
 1845POPC   C2B25868  12.596   8.137   8.275
 1845POPC   C3B25869  12.568   8.123   7.878
 1845POPC   C4B25870  12.664   7.749   7.771
 1846POPC   NC325871  19.612  40.166   9.484
 1846POPC   PO425872  20.267  40.222   9.383
 1846POPC   GL125873  19.972  39.961   9.117
 1846POPC   GL225874  19.611  40.072   8.993
 1846POPC   C1A25875  19.933  39.921   8.669
 1846POPC   D2A25876  19.760  40.225   8.414
 1846POPC   C3A25877  19.929  40.122   8.037
 1846POPC   C4A25878  19.934  39.899   7.673
 1846POPC   C1B25879  19.464  39.739   8.665
 1846POPC   C2B25880  19.526  39.775   8.210
 1846POPC   C3B25881  19.525  39.600   7.774
 1846POPC   C4B25882  19.555  39.711   7.314
 1847POPC   NC325883  35.009  19.537   9.337
 1847POPC   PO425884  34.492  19.953   9.552
 1847POPC   GL125885  34.671  19.886   9.164
 1847POPC   GL225886  34.480  19.573   9.183
 1847POPC   C1A25887  34.806  19.972   8.730
 1847POPC   D2A25888  34.650  20.194   8.343
 1847POPC   C3A25889  34.469  19.966   7.983
 1847POPC   C4A25890  34.067  20.004   7.782
 1847POPC   C1B25891  34.362  19.722   8.770
 1847POPC   C2B25892  34.590  19.656   8.392
 1847POPC   C3B25893  34.749  19.409   8.070
 1847POPC   C4B25894  34.737  19.606   7.706
 1848POPC   NC325895  16.278  41.349   9.509
 1848POPC   PO425896  15.641  41.413   9.691
 1848POPC   GL125897  15.698  41.627   9.244
 1848POPC   GL225898  15.970  41.857   9.263
 1848POPC   C1A25899  15.601  41.740   8.776
 1848POPC   D2A25900  15.620  41.581   8.303
 1848POPC   C3A25901  15.946  41.547   7.975
 1848POPC   C4A25902  15.911  41.639   7.521
 1848POPC   C1B25903  16.086  41.621   8.875
 1848POPC   C2B25904  16.249  41.603   8.435
 1848POPC   C3B25905  16.439  41.457   8.059
 1848POPC   C4B25906  16.374  41.643   7.701
 1849POPC   NC325907   9.033  22.777   9.441
 1849POPC   PO425908   9.138  23.439   9.559
 1849POPC   GL125909   9.021  23.202   9.162
 1849POPC   GL225910   8.702  23.032   9.118
 1849POPC   C1A25911   9.060  22.958   8.745
 1849POPC   D2A25912   8.814  23.088   8.377
 1849POPC   C3A25913   8.967  23.026   7.966
 1849POPC   C4A25914   9.324  23.056   7.692
 1849POPC   C1B25915   8.598  22.676   8.841
 1849POPC   C2B25916   8.648  22.545   8.384
 1849POPC   C3B25917   8.601  22.645   7.919
 1849POPC   C4B25918   8.713  22.865   7.476
 1850POPC   NC325919  16.673  40.651   9.494
 1850POPC   PO425920  16.712  41.289   9.357
 1850POPC   GL125921  16.914  40.905   9.102
 1850POPC   GL225922  16.646  40.631   8.999
 1850POPC   C1A25923  17.026  40.678   8.689
 1850POPC   D2A25924  16.731  40.581   8.324
 1850POPC   C3A25925  16.854  40.706   7.894
 1850POPC   C4A25926  17.234  40.640   7.685
 1850POPC   C1B25927  16.543  40.988   8.726
 1850POPC   C2B25928  16.425  40.996   8.273
 1850POPC   C3B25929  16.320  40.988   7.810
 1850POPC   C4B25930  16.434  40.892   7.344
 1851POPC   NC325931  20.369  22.195   9.557
 1851POPC   PO425932  20.944  21.923   9.603
 1851POPC   GL125933  20.697  21.998   9.235
 1851POPC   GL225934  20.349  21.836   9.187
 1851POPC   C1A25935  20.575  22.311   8.895
 1851POPC   D2A25936  20.586  22.515   8.486
 1851POPC   C3A25937  20.944  22.421   8.185
 1851POPC   C4A25938  20.823  22.260   7.775
 1851POPC   C1B25939  20.637  21.812   8.792
 1851POPC   C2B25940  20.709  21.987   8.412
 1851POPC   C3B25941  20.596  21.834   8.007
 1851POPC   C4B25942  20.520  21.892   7.580
 1852POPC   NC325943  20.533  38.421   9.412
 1852POPC   PO425944  21.166  38.787   9.407
 1852POPC   GL125945  20.954  38.500   9.102
 1852POPC   GL225946  20.666  38.692   8.990
 1852POPC   C1A25947  20.690  38.279   8.749
 1852POPC   D2A25948  20.463  38.495   8.387
 1852POPC   C3A25949  20.637  38.398   7.986
 1852POPC   C4A25950  20.794  38.018   7.795
 1852POPC   C1B25951  20.538  38.959   8.640
 1852POPC   C2B25952  20.239  39.061   8.298
 1852POPC   C3B25953  20.135  38.754   7.973
 1852POPC   C4B25954  20.317  38.492   7.608
 1853POPC   NC325955  35.984  18.501   9.427
 1853POPC   PO425956  36.499  18.580   9.044
 1853POPC   GL125957  36.139  18.217   9.022
 1853POPC   GL225958  35.800  18.067   9.204
 1853POPC   C1A25959  36.129  18.064   8.592
 1853POPC   D2A25960  36.465  18.306   8.351
 1853POPC   C3A25961  36.354  18.475   7.940
 1853POPC   C4A25962  36.210  18.528   7.487
 1853POPC   C1B25963  35.658  18.109   8.810
 1853POPC   C2B25964  35.598  17.970   8.420
 1853POPC   C3B25965  35.597  18.149   8.040
 1853POPC   C4B25966  35.956  18.177   7.795
 1854POPC   NC325967  18.918   3.946   9.525
 1854POPC   PO425968  19.247   4.581   9.495
 1854POPC   GL125969  19.211   4.199   9.178
 1854POPC   GL225970  18.867   4.049   9.036
 1854POPC   C1A25971  19.294   4.073   8.734
 1854POPC   D2A25972  19.087   4.247   8.349
 1854POPC   C3A25973  19.234   4.202   7.929
 1854POPC   C4A25974  19.411   4.459   7.604
 1854POPC   C1B25975  18.770   4.391   8.771
 1854POPC   C2B25976  18.597   4.397   8.361
 1854POPC   C3B25977  18.752   4.374   7.914
 1854POPC   C4B25978  18.866   4.046   7.600
 1855POPC   NC325979  15.495   6.214   9.347
 1855POPC   PO425980  14.915   5.830   9.638
 1855POPC   GL125981  15.119   5.861   9.257
 1855POPC   GL225982  15.001   6.179   9.223
 1855POPC   C1A25983  15.228   5.734   8.840
 1855POPC   D2A25984  15.071   5.888   8.442
 1855POPC   C3A25985  15.056   5.682   8.076
 1855POPC   C4A25986  15.299   5.755   7.730
 1855POPC   C1B25987  15.167   6.268   8.794
 1855POPC   C2B25988  15.286   6.339   8.369
 1855POPC   C3B25989  15.199   6.249   7.939
 1855POPC   C4B25990  15.462   6.238   7.572
 1856POPC   NC325991  25.962   2.366   9.593
 1856POPC   PO425992  26.398   2.942   9.494
 1856POPC   GL125993  26.227   2.652   9.236
 1856POPC   GL225994  25.913   2.793   9.274
 1856POPC   C1A25995  26.205   2.752   8.826
 1856POPC   D2A25996  26.069   2.917   8.455
 1856POPC   C3A25997  26.212   2.703   8.080
 1856POPC   C4A25998  26.256   2.970   7.724
 1856POPC   C1B25999  25.775   2.519   8.970
 1856POPC   C2B26000  25.602   2.653   8.595
 1856POPC   C3B26001  25.708   2.669   8.188
 1856POPC   C4B26002  25.814   2.631   7.771
 1857POPC   NC326003   0.046   2.242   9.573
 1857POPC   PO426004  44.431   1.936   9.528
 1857POPC   GL126005  44.803   1.917   9.227
 1857POPC   GL226006  44.930   1.590   9.088
 1857POPC   C1A26007  44.794   2.202   8.863
 1857POPC   D2A26008  44.470   2.251   8.517
 1857POPC   C3A26009  44.516   2.118   8.077
 1857POPC   C4A26010  44.666   2.256   7.671
 1857POPC   C1B26011  44.617   1.724   8.744
 1857POPC   C2B26012  44.496   1.651   8.298
 1857POPC   C3B26013  44.728   1.693   7.892
 1857POPC   C4B26014  44.700   1.449   7.518
 1858POPC   NC326015  15.395  13.177   9.404
 1858POPC   PO426016  15.133  12.523   9.589
 1858POPC   GL126017  15.239  12.734   9.248
 1858POPC   GL226018  14.985  12.927   9.160
 1858POPC   C1A26019  15.288  12.656   8.809
 1858POPC   D2A26020  15.063  12.623   8.423
 1858POPC   C3A26021  15.332  12.655   8.077
 1858POPC   C4A26022  15.303  12.847   7.698
 1858POPC   C1B26023  14.822  12.896   8.787
 1858POPC   C2B26024  14.794  13.152   8.414
 1858POPC   C3B26025  14.978  13.038   8.053
 1858POPC   C4B26026  14.886  13.168   7.650
 1859POPC   NC326027  31.190  14.545   9.541
 1859POPC   PO426028  31.875  14.661   9.616
 1859POPC   GL126029  31.600  14.508   9.241
 1859POPC   GL226030  31.306  14.289   9.102
 1859POPC   C1A26031  31.670  14.491   8.794
 1859POPC   D2A26032  31.533  14.224   8.473
 1859POPC   C3A26033  31.461  14.418   8.067
 1859POPC   C4A26034  31.402  14.229   7.677
 1859POPC   C1B26035  31.050  14.167   8.725
 1859POPC   C2B26036  31.042  14.189   8.268
 1859POPC   C3B26037  30.940  14.486   7.958
 1859POPC   C4B26038  31.108  14.852   7.766
 1860POPC   NC326039  23.197  30.592   9.583
 1860POPC   PO426040  23.801  30.799   9.563
 1860POPC   GL126041  23.523  30.740   9.216
 1860POPC   GL226042  23.666  30.465   9.182
 1860POPC   C1A26043  23.484  30.834   8.802
 1860POPC   D2A26044  23.656  30.809   8.403
 1860POPC   C3A26045  23.453  30.999   8.067
 1860POPC   C4A26046  23.743  30.890   7.768
 1860POPC   C1B26047  23.529  30.318   8.787
 1860POPC   C2B26048  23.610  30.296   8.375
 1860POPC   C3B26049  23.730  30.423   7.956
 1860POPC   C4B26050  23.652  30.465   7.491
 1861POPC   NC326051  44.169  11.802   9.453
 1861POPC   PO426052  43.741  12.320   9.641
 1861POPC   GL126053  43.796  12.093   9.186
 1861POPC   GL226054  43.758  11.750   9.162
 1861POPC   C1A26055  44.077  12.114   8.778
 1861POPC   D2A26056  44.112  11.917   8.338
 1861POPC   C3A26057  44.136  12.047   7.903
 1861POPC   C4A26058  43.864  12.384   7.758
 1861POPC   C1B26059  43.831  11.670   8.741
 1861POPC   C2B26060  43.616  11.713   8.350
 1861POPC   C3B26061  43.635  11.965   7.989
 1861POPC   C4B26062  43.755  11.822   7.568
 1862POPC   NC326063  31.587  13.284   9.332
 1862POPC   PO426064  31.514  12.804   9.790
 1862POPC   GL126065  31.442  12.791   9.272
 1862POPC   GL226066  31.714  12.924   9.041
 1862POPC   C1A26067  31.379  12.674   8.787
 1862POPC   D2A26068  31.627  12.718   8.381
 1862POPC   C3A26069  31.447  12.659   7.954
 1862POPC   C4A26070  31.685  12.432   7.617
 1862POPC   C1B26071  31.596  13.154   8.672
 1862POPC   C2B26072  31.291  13.130   8.342
 1862POPC   C3B26073  31.371  13.221   7.925
 1862POPC   C4B26074  31.249  13.076   7.537
 1863POPC   NC326075  28.358   8.115   9.699
 1863POPC   PO426076  27.972   8.285   9.204
 1863POPC   GL126077  28.304   8.427   9.044
 1863POPC   GL226078  28.571   8.337   9.272
 1863POPC   C1A26079  28.310   8.484   8.640
 1863POPC   D2A26080  28.269   8.423   8.238
 1863POPC   C3A26081  28.073   8.040   8.056
 1863POPC   C4A26082  28.255   8.284   7.721
 1863POPC   C1B26083  28.730   8.231   8.852
 1863POPC   C2B26084  28.563   8.036   8.489
 1863POPC   C3B26085  28.590   8.053   8.067
 1863POPC   C4B26086  28.402   7.791   7.729
 1864POPC   NC326087  24.196  36.926   9.405
 1864POPC   PO426088  24.863  37.311   9.601
 1864POPC   GL126089  24.766  37.073   9.216
 1864POPC   GL226090  24.900  36.722   9.186
 1864POPC   C1A26091  24.539  37.134   8.806
 1864POPC   D2A26092  24.213  37.229   8.481
 1864POPC   C3A26093  24.378  37.253   8.061
 1864POPC   C4A26094  24.661  36.948   7.850
 1864POPC   C1B26095  24.747  36.655   8.755
 1864POPC   C2B26096  24.558  36.839   8.370
 1864POPC   C3B26097  24.143  36.800   8.181
 1864POPC   C4B26098  24.123  36.797   7.760
 1865POPC   NC326099  28.826  28.927   9.441
 1865POPC   PO426100  29.468  29.110   9.412
 1865POPC   GL126101  29.407  28.912   9.010
 1865POPC   GL226102  29.141  28.668   9.064
 1865POPC   C1A26103  29.411  29.154   8.608
 1865POPC   D2A26104  29.216  29.451   8.295
 1865POPC   C3A26105  29.205  29.293   7.903
 1865POPC   C4A26106  29.561  29.091   7.776
 1865POPC   C1B26107  28.931  28.887   8.731
 1865POPC   C2B26108  28.921  29.056   8.317
 1865POPC   C3B26109  28.762  28.967   7.914
 1865POPC   C4B26110  28.850  28.964   7.503
 1866POPC   NC326111  23.976  29.667   9.492
 1866POPC   PO426112  23.314  29.833   9.554
 1866POPC   GL126113  23.422  30.006   9.178
 1866POPC   GL226114  23.793  29.985   9.117
 1866POPC   C1A26115  23.421  29.826   8.768
 1866POPC   D2A26116  23.440  29.586   8.414
 1866POPC   C3A26117  23.504  29.748   8.005
 1866POPC   C4A26118  23.732  29.967   7.687
 1866POPC   C1B26119  23.975  30.066   8.706
 1866POPC   C2B26120  23.931  29.940   8.256
 1866POPC   C3B26121  24.146  30.129   7.938
 1866POPC   C4B26122  24.115  30.271   7.505
 1867POPC   NC326123  40.342  18.738   9.274
 1867POPC   PO426124  39.811  19.128   9.467
 1867POPC   GL126125  40.002  19.069   9.082
 1867POPC   GL226126  39.707  18.951   8.935
 1867POPC   C1A26127  40.192  19.186   8.672
 1867POPC   D2A26128  39.826  19.103   8.455
 1867POPC   C3A26129  39.910  18.928   8.116
 1867POPC   C4A26130  40.213  19.085   7.876
 1867POPC   C1B26131  40.045  18.702   8.687
 1867POPC   C2B26132  40.340  18.683   8.352
 1867POPC   C3B26133  40.234  18.567   7.935
 1867POPC   C4B26134  39.909  18.674   7.658
 1868POPC   NC326135  29.948   7.115   9.890
 1868POPC   PO426136  30.084   6.583   9.513
 1868POPC   GL126137  30.010   6.755   9.109
 1868POPC   GL226138  30.238   7.001   9.205
 1868POPC   C1A26139  29.909   6.699   8.677
 1868POPC   D2A26140  29.996   6.864   8.287
 1868POPC   C3A26141  29.728   6.673   7.990
 1868POPC   C4A26142  29.905   6.459   7.640
 1868POPC   C1B26143  30.238   7.178   8.803
 1868POPC   C2B26144  30.412   7.190   8.377
 1868POPC   C3B26145  30.457   6.928   8.023
 1868POPC   C4B26146  30.085   6.956   7.762
 1869POPC   NC326147  38.888  21.417   9.541
 1869POPC   PO426148  38.197  21.659   9.509
 1869POPC   GL126149  38.476  21.383   9.217
 1869POPC   GL226150  38.812  21.403   9.042
 1869POPC   C1A26151  38.435  21.029   8.918
 1869POPC   D2A26152  38.263  20.928   8.489
 1869POPC   C3A26153  38.389  21.223   8.144
 1869POPC   C4A26154  38.217  21.300   7.707
 1869POPC   C1B26155  38.680  21.375   8.609
 1869POPC   C2B26156  38.627  21.667   8.273
 1869POPC   C3B26157  38.646  21.578   7.853
 1869POPC   C4B26158  38.700  21.147   7.712
 1870POPC   NC326159  32.569  37.047   9.470
 1870POPC   PO426160  32.194  36.539   9.676
 1870POPC   GL126161  32.212  36.787   9.187
 1870POPC   GL226162  32.153  37.083   9.158
 1870POPC   C1A26163  32.402  36.660   8.714
 1870POPC   D2A26164  32.613  36.527   8.292
 1870POPC   C3A26165  32.560  36.851   7.990
 1870POPC   C4A26166  32.180  36.869   7.806
 1870POPC   C1B26167  32.274  37.145   8.780
 1870POPC   C2B26168  32.188  37.361   8.472
 1870POPC   C3B26169  32.241  37.283   8.081
 1870POPC   C4B26170  31.985  37.415   7.795
 1871POPC   NC326171  15.030  19.037   9.804
 1871POPC   PO426172  14.313  19.117   9.556
 1871POPC   GL126173  14.414  19.109   9.156
 1871POPC   GL226174  14.415  19.429   9.128
 1871POPC   C1A26175  14.400  19.037   8.744
 1871POPC   D2A26176  14.158  18.906   8.430
 1871POPC   C3A26177  14.326  19.061   8.065
 1871POPC   C4A26178  14.627  18.894   7.850
 1871POPC   C1B26179  14.435  19.564   8.747
 1871POPC   C2B26180  14.598  19.449   8.391
 1871POPC   C3B26181  14.617  19.531   8.012
 1871POPC   C4B26182  14.608  19.353   7.653
 1872POPC   NC326183  22.303   3.483   9.691
 1872POPC   PO426184  21.811   3.939   9.546
 1872POPC   GL126185  21.983   3.545   9.286
 1872POPC   GL226186  22.298   3.543   9.178
 1872POPC   C1A26187  21.856   3.457   8.858
 1872POPC   D2A26188  22.008   3.562   8.438
 1872POPC   C3A26189  22.097   3.389   8.051
 1872POPC   C4A26190  22.008   3.547   7.627
 1872POPC   C1B26191  22.387   3.411   8.778
 1872POPC   C2B26192  22.433   3.108   8.471
 1872POPC   C3B26193  22.470   3.013   8.050
 1872POPC   C4B26194  22.444   3.288   7.690
 1873POPC   NC326195  11.106  40.632   9.747
 1873POPC   PO426196  11.553  41.001   9.462
 1873POPC   GL126197  11.426  40.637   9.202
 1873POPC   GL226198  11.051  40.606   9.129
 1873POPC   C1A26199  11.357  40.489   8.756
 1873POPC   D2A26200  11.095  40.515   8.386
 1873POPC   C3A26201  11.302  40.732   8.029
 1873POPC   C4A26202  11.556  40.565   7.700
 1873POPC   C1B26203  11.074  40.922   8.722
 1873POPC   C2B26204  10.970  41.102   8.298
 1873POPC   C3B26205  10.985  41.082   7.834
 1873POPC   C4B26206  10.993  40.772   7.546
 1874POPC   NC326207  25.180  35.097   9.442
 1874POPC   PO426208  25.216  35.737   9.443
 1874POPC   GL126209  25.379  35.469   9.154
 1874POPC   GL226210  25.674  35.594   9.166
 1874POPC   C1A26211  25.338  35.229   8.768
 1874POPC   D2A26212  25.051  35.313   8.442
 1874POPC   C3A26213  25.169  35.216   8.040
 1874POPC   C4A26214  24.955  35.321   7.679
 1874POPC   C1B26215  25.582  35.667   8.729
 1874POPC   C2B26216  25.499  35.559   8.319
 1874POPC   C3B26217  25.574  35.547   7.905
 1874POPC   C4B26218  25.508  35.202   7.658
 1875POPC   NC326219   0.607  37.272   9.541
 1875POPC   PO426220   0.974  37.943   9.572
 1875POPC   GL126221   1.191  37.706   9.234
 1875POPC   GL226222   1.191  37.336   9.204
 1875POPC   C1A26223   1.230  37.794   8.801
 1875POPC   D2A26224   0.929  38.039   8.560
 1875POPC   C3A26225   0.912  37.939   8.143
 1875POPC   C4A26226   1.227  37.861   7.872
 1875POPC   C1B26227   1.207  37.277   8.745
 1875POPC   C2B26228   1.223  37.518   8.330
 1875POPC   C3B26229   1.161  37.351   7.905
 1875POPC   C4B26230   0.830  37.189   7.628
 1876POPC   NC326231  25.038  40.183   9.459
 1876POPC   PO426232  24.474  40.065   9.346
 1876POPC   GL126233  24.514  40.248   9.000
 1876POPC   GL226234  24.867  40.260   8.974
 1876POPC   C1A26235  24.490  40.272   8.599
 1876POPC   D2A26236  24.424  39.988   8.326
 1876POPC   C3A26237  24.688  40.136   8.065
 1876POPC   C4A26238  24.409  40.101   7.766
 1876POPC   C1B26239  24.794  39.868   8.719
 1876POPC   C2B26240  24.821  39.662   8.307
 1876POPC   C3B26241  24.719  39.689   7.862
 1876POPC   C4B26242  24.847  39.764   7.388
 1877POPC   NC326243  42.192  31.116   9.445
 1877POPC   PO426244  42.290  30.392   9.500
 1877POPC   GL126245  42.144  30.665   9.204
 1877POPC   GL226246  42.251  30.510   8.965
 1877POPC   C1A26247  42.050  30.946   8.830
 1877POPC   D2A26248  41.972  30.827   8.424
 1877POPC   C3A26249  42.297  30.780   8.147
 1877POPC   C4A26250  42.266  30.670   7.729
 1877POPC   C1B26251  42.499  30.718   8.654
 1877POPC   C2B26252  42.781  30.714   8.297
 1877POPC   C3B26253  42.687  30.465   7.918
 1877POPC   C4B26254  42.683  30.580   7.450
 1878POPC   NC326255  31.064  41.718   9.489
 1878POPC   PO426256  30.663  41.174   9.636
 1878POPC   GL126257  30.885  41.299   9.241
 1878POPC   GL226258  30.682  41.609   9.096
 1878POPC   C1A26259  30.961  41.391   8.779
 1878POPC   D2A26260  30.675  41.665   8.487
 1878POPC   C3A26261  30.706  41.456   8.087
 1878POPC   C4A26262  30.873  41.588   7.698
 1878POPC   C1B26263  30.945  41.913   8.845
 1878POPC   C2B26264  31.108  42.052   8.449
 1878POPC   C3B26265  30.935  41.930   8.070
 1878POPC   C4B26266  30.591  42.129   7.827
 1879POPC   NC326267   2.824   5.471   9.441
 1879POPC   PO426268   2.560   4.820   9.413
 1879POPC   GL126269   2.851   5.013   9.094
 1879POPC   GL226270   3.079   5.333   9.015
 1879POPC   C1A26271   2.742   5.143   8.701
 1879POPC   D2A26272   2.363   5.175   8.519
 1879POPC   C3A26273   2.440   5.076   8.099
 1879POPC   C4A26274   2.588   5.188   7.729
 1879POPC   C1B26275   3.247   4.976   8.771
 1879POPC   C2B26276   3.199   4.842   8.346
 1879POPC   C3B26277   3.016   5.125   8.051
 1879POPC   C4B26278   3.086   5.309   7.633
 1880POPC   NC326279  33.918  38.281   9.456
 1880POPC   PO426280  33.487  38.803   9.377
 1880POPC   GL126281  33.810  38.668   9.103
 1880POPC   GL226282  34.141  38.643   9.163
 1880POPC   C1A26283  33.885  38.359   8.798
 1880POPC   D2A26284  33.680  38.251   8.437
 1880POPC   C3A26285  33.745  38.517   8.126
 1880POPC   C4A26286  33.876  38.374   7.777
 1880POPC   C1B26287  34.368  38.506   8.819
 1880POPC   C2B26288  34.213  38.507   8.413
 1880POPC   C3B26289  34.231  38.195   8.118
 1880POPC   C4B26290  34.391  38.256   7.715
 1881POPC   NC326291   4.056  20.475   9.600
 1881POPC   PO426292   4.580  20.217   9.549
 1881POPC   GL126293   4.381  20.463   9.190
 1881POPC   GL226294   4.024  20.338   9.132
 1881POPC   C1A26295   4.489  20.741   8.845
 1881POPC   D2A26296   4.593  20.828   8.422
 1881POPC   C3A26297   4.644  20.464   8.173
 1881POPC   C4A26298   4.579  20.546   7.750
 1881POPC   C1B26299   4.005  20.603   8.814
 1881POPC   C2B26300   4.173  20.503   8.436
 1881POPC   C3B26301   4.161  20.602   8.034
 1881POPC   C4B26302   3.909  20.734   7.710
 1882POPC   NC326303  38.852  10.649   9.551
 1882POPC   PO426304  39.432  10.389   9.605
 1882POPC   GL126305  39.331  10.681   9.263
 1882POPC   GL226306  39.606  10.901   9.209
 1882POPC   C1A26307  39.150  10.661   8.836
 1882POPC   D2A26308  39.249  10.400   8.468
 1882POPC   C3A26309  39.125  10.510   8.054
 1882POPC   C4A26310  39.299  10.264   7.712
 1882POPC   C1B26311  39.514  11.004   8.780
 1882POPC   C2B26312  39.305  10.924   8.355
 1882POPC   C3B26313  39.505  10.859   7.948
 1882POPC   C4B26314  39.408  10.752   7.519
 1883POPC   NC326315  21.731  31.212   9.787
 1883POPC   PO426316  22.264  31.621   9.543
 1883POPC   GL126317  22.216  31.596   9.151
 1883POPC   GL226318  22.010  31.869   9.107
 1883POPC   C1A26319  22.417  31.800   8.806
 1883POPC   D2A26320  22.333  31.848   8.381
 1883POPC   C3A26321  22.279  31.545   8.046
 1883POPC   C4A26322  22.479  31.553   7.651
 1883POPC   C1B26323  21.939  31.617   8.725
 1883POPC   C2B26324  21.837  31.654   8.306
 1883POPC   C3B26325  21.862  31.828   7.911
 1883POPC   C4B26326  21.972  31.540   7.599
 1884POPC   NC326327  35.270   4.364   9.548
 1884POPC   PO426328  35.984   4.381   9.628
 1884POPC   GL126329  35.672   4.305   9.212
 1884POPC   GL226330  35.411   4.525   9.081
 1884POPC   C1A26331  35.566   4.135   8.778
 1884POPC   D2A26332  35.286   3.983   8.391
 1884POPC   C3A26333  35.263   4.192   7.972
 1884POPC   C4A26334  35.382   4.636   7.893
 1884POPC   C1B26335  35.024   4.529   8.814
 1884POPC   C2B26336  34.919   4.362   8.382
 1884POPC   C3B26337  34.878   4.559   7.991
 1884POPC   C4B26338  34.944   4.521   7.560
 1885POPC   NC326339  20.396  34.426   9.414
 1885POPC   PO426340  20.971  34.731   9.396
 1885POPC   GL126341  20.719  34.692   9.078
 1885POPC   GL226342  20.772  34.374   9.060
 1885POPC   C1A26343  20.689  34.857   8.680
 1885POPC   D2A26344  20.871  34.848   8.283
 1885POPC   C3A26345  20.582  34.811   7.951
 1885POPC   C4A26346  20.270  34.901   7.671
 1885POPC   C1B26347  20.521  34.317   8.723
 1885POPC   C2B26348  20.439  34.521   8.365
 1885POPC   C3B26349  20.513  34.306   8.007
 1885POPC   C4B26350  20.326  34.390   7.673
 1886POPC   NC326351   3.821  43.602   9.512
 1886POPC   PO426352   3.301  44.088   9.523
 1886POPC   GL126353   3.590  44.064   9.182
 1886POPC   GL226354   3.537  43.705   9.082
 1886POPC   C1A26355   3.780  44.021   8.771
 1886POPC   D2A26356   3.739  43.637   8.481
 1886POPC   C3A26357   3.670  43.649   8.051
 1886POPC   C4A26358   3.850  44.035   7.895
 1886POPC   C1B26359   3.317  43.814   8.678
 1886POPC   C2B26360   3.505  44.072   8.326
 1886POPC   C3B26361   3.378  44.243   7.925
 1886POPC   C4B26362   3.245  43.844   7.799
 1887POPC   NC326363   5.272  23.992   9.686
 1887POPC   PO426364   4.918  23.410   9.483
 1887POPC   GL126365   5.149  23.560   9.155
 1887POPC   GL226366   4.931  23.700   8.872
 1887POPC   C1A26367   5.361  23.403   8.807
 1887POPC   D2A26368   5.269  23.638   8.450
 1887POPC   C3A26369   5.254  23.432   8.101
 1887POPC   C4A26370   5.164  23.676   7.775
 1887POPC   C1B26371   4.689  24.034   8.609
 1887POPC   C2B26372   4.789  24.310   8.297
 1887POPC   C3B26373   4.849  23.964   8.046
 1887POPC   C4B26374   4.914  24.106   7.644
 1888POPC   NC326375   2.575  33.524   9.546
 1888POPC   PO426376   1.888  33.832   9.492
 1888POPC   GL126377   1.973  33.733   9.102
 1888POPC   GL226378   2.281  33.691   9.170
 1888POPC   C1A26379   1.900  33.910   8.696
 1888POPC   D2A26380   1.662  33.673   8.384
 1888POPC   C3A26381   1.824  33.725   7.987
 1888POPC   C4A26382   1.940  34.107   7.779
 1888POPC   C1B26383   2.357  33.638   8.770
 1888POPC   C2B26384   2.177  33.557   8.412
 1888POPC   C3B26385   2.334  33.642   8.013
 1888POPC   C4B26386   2.153  33.658   7.589
 1889POPC   NC326387  19.898  18.608   9.613
 1889POPC   PO426388  19.429  18.165   9.705
 1889POPC   GL126389  19.510  18.518   9.313
 1889POPC   GL226390  19.883  18.387   9.167
 1889POPC   C1A26391  19.557  18.592   8.837
 1889POPC   D2A26392  19.724  18.276   8.554
 1889POPC   C3A26393  19.674  18.320   8.103
 1889POPC   C4A26394  19.899  18.169   7.729
 1889POPC   C1B26395  20.080  18.597   8.817
 1889POPC   C2B26396  20.023  18.690   8.381
 1889POPC   C3B26397  20.165  18.550   7.962
 1889POPC   C4B26398  20.158  18.658   7.523
 1890POPC   NC326399  38.395  16.532   9.489
 1890POPC   PO426400  38.620  17.139   9.597
 1890POPC   GL126401  38.518  16.945   9.169
 1890POPC   GL226402  38.571  16.609   9.037
 1890POPC   C1A26403  38.516  17.032   8.744
 1890POPC   D2A26404  38.635  16.850   8.334
 1890POPC   C3A26405  38.265  16.655   8.168
 1890POPC   C4A26406  38.036  16.823   7.802
 1890POPC   C1B26407  38.442  16.514   8.661
 1890POPC   C2B26408  38.535  16.224   8.363
 1890POPC   C3B26409  38.686  16.432   7.996
 1890POPC   C4B26410  38.555  16.837   7.806
 1891POPC   NC326411  17.886  25.406   9.815
 1891POPC   PO426412  17.331  25.585   9.428
 1891POPC   GL126413  17.453  25.215   9.227
 1891POPC   GL226414  17.566  25.433   8.963
 1891POPC   C1A26415  17.393  25.001   8.793
 1891POPC   D2A26416  17.487  25.220   8.447
 1891POPC   C3A26417  17.463  24.969   8.085
 1891POPC   C4A26418  17.497  25.050   7.673
 1891POPC   C1B26419  17.867  25.592   8.674
 1891POPC   C2B26420  17.900  25.451   8.262
 1891POPC   C3B26421  17.751  25.456   7.857
 1891POPC   C4B26422  17.918  25.432   7.447
 1892POPC   NC326423  43.936  44.999   9.646
 1892POPC   PO426424  44.214   0.626   9.636
 1892POPC   GL126425  44.006   0.423   9.313
 1892POPC   GL226426  44.179   0.564   9.081
 1892POPC   C1A26427  43.753   0.303   8.937
 1892POPC   D2A26428  43.678   0.157   8.532
 1892POPC   C3A26429  43.512   0.497   8.283
 1892POPC   C4A26430  43.605   0.529   7.861
 1892POPC   C1B26431  44.254   0.278   8.794
 1892POPC   C2B26432  44.209   0.176   8.396
 1892POPC   C3B26433  43.957   0.201   8.042
 1892POPC   C4B26434  44.174   0.152   7.650
 1893POPC   NC326435   4.355   8.825   9.310
 1893POPC   PO426436   4.353   8.229   9.587
 1893POPC   GL126437   4.309   8.294   9.168
 1893POPC   GL226438   4.005   8.481   9.161
 1893POPC   C1A26439   4.407   8.062   8.765
 1893POPC   D2A26440   4.581   8.161   8.350
 1893POPC   C3A26441   4.554   7.895   7.975
 1893POPC   C4A26442   4.207   7.917   7.687
 1893POPC   C1B26443   4.198   8.528   8.725
 1893POPC   C2B26444   4.058   8.328   8.355
 1893POPC   C3B26445   4.229   8.333   7.957
 1893POPC   C4B26446   4.099   8.450   7.526
 1894POPC   NC326447  40.909  32.042   9.655
 1894POPC   PO426448  40.383  31.739   9.307
 1894POPC   GL126449  40.742  32.020   9.161
 1894POPC   GL226450  41.067  31.893   9.137
 1894POPC   C1A26451  40.993  32.302   8.843
 1894POPC   D2A26452  40.871  32.429   8.432
 1894POPC   C3A26453  41.086  32.514   8.060
 1894POPC   C4A26454  40.792  32.392   7.738
 1894POPC   C1B26455  40.874  31.833   8.684
 1894POPC   C2B26456  40.999  31.951   8.244
 1894POPC   C3B26457  41.184  32.067   7.838
 1894POPC   C4B26458  40.991  32.077   7.368
 1895POPC   NC326459  30.611  34.718   9.461
 1895POPC   PO426460  31.107  34.309   9.521
 1895POPC   GL126461  30.722  34.254   9.234
 1895POPC   GL226462  30.344  34.307   9.217
 1895POPC   C1A26463  30.680  34.520   8.834
 1895POPC   D2A26464  30.609  34.601   8.398
 1895POPC   C3A26465  30.911  34.807   8.110
 1895POPC   C4A26466  30.716  34.732   7.747
 1895POPC   C1B26467  30.435  34.084   8.824
 1895POPC   C2B26468  30.318  34.170   8.401
 1895POPC   C3B26469  30.387  34.358   7.988
 1895POPC   C4B26470  30.650  34.219   7.651
 1896POPC   NC326471  40.036  29.736   9.511
 1896POPC   PO426472  39.697  30.356   9.474
 1896POPC   GL126473  39.877  30.063   9.115
 1896POPC   GL226474  40.231  29.937   9.063
 1896POPC   C1A26475  39.715  29.891   8.722
 1896POPC   D2A26476  39.880  29.889   8.303
 1896POPC   C3A26477  39.688  29.809   7.899
 1896POPC   C4A26478  39.813  29.947   7.422
 1896POPC   C1B26479  40.189  30.114   8.647
 1896POPC   C2B26480  40.243  30.212   8.173
 1896POPC   C3B26481  40.159  29.941   7.790
 1896POPC   C4B26482  40.306  29.718   7.385
 1897POPC   NC326483   4.979  18.324   9.533
 1897POPC   PO426484   4.851  17.785   9.401
 1897POPC   GL126485   4.881  18.021   9.035
 1897POPC   GL226486   5.200  18.228   9.068
 1897POPC   C1A26487   5.074  18.040   8.612
 1897POPC   D2A26488   5.020  18.359   8.257
 1897POPC   C3A26489   4.968  18.274   7.784
 1897POPC   C4A26490   5.081  18.034   7.374
 1897POPC   C1B26491   5.342  18.552   8.741
 1897POPC   C2B26492   5.426  18.736   8.325
 1897POPC   C3B26493   5.414  18.456   7.954
 1897POPC   C4B26494   5.371  18.456   7.505
 1898POPC   NC326495  27.864  34.649   9.708
 1898POPC   PO426496  27.288  34.636   9.646
 1898POPC   GL126497  27.374  34.670   9.222
 1898POPC   GL226498  27.153  34.932   9.190
 1898POPC   C1A26499  27.691  34.654   8.861
 1898POPC   D2A26500  27.869  34.754   8.423
 1898POPC   C3A26501  27.648  34.613   8.058
 1898POPC   C4A26502  27.799  34.435   7.659
 1898POPC   C1B26503  27.201  34.815   8.759
 1898POPC   C2B26504  27.097  34.785   8.341
 1898POPC   C3B26505  27.224  34.877   7.937
 1898POPC   C4B26506  27.322  34.564   7.660
 1899POPC   NC326507  21.768  18.514   9.357
 1899POPC   PO426508  21.112  18.317   9.563
 1899POPC   GL126509  21.236  18.168   9.194
 1899POPC   GL226510  20.969  18.379   9.076
 1899POPC   C1A26511  21.459  18.298   8.841
 1899POPC   D2A26512  21.580  18.219   8.443
 1899POPC   C3A26513  21.605  18.504   8.166
 1899POPC   C4A26514  21.735  18.448   7.771
 1899POPC   C1B26515  20.949  18.169   8.739
 1899POPC   C2B26516  21.098  18.394   8.437
 1899POPC   C3B26517  21.184  18.213   8.091
 1899POPC   C4B26518  21.037  18.232   7.721
 1900POPC   NC326519  27.323  26.591   9.386
 1900POPC   PO426520  27.948  26.767   9.388
 1900POPC   GL126521  27.882  26.885   8.984
 1900POPC   GL226522  27.513  26.870   8.980
 1900POPC   C1A26523  28.003  26.678   8.600
 1900POPC   D2A26524  27.787  26.465   8.273
 1900POPC   C3A26525  27.639  26.753   7.975
 1900POPC   C4A26526  27.674  26.616   7.565
 1900POPC   C1B26527  27.510  26.891   8.519
 1900POPC   C2B26528  27.802  27.123   8.321
 1900POPC   C3B26529  27.826  27.228   7.918
 1900POPC   C4B26530  27.727  27.113   7.485
 1901POPC   NC326531   6.115  23.928   9.464
 1901POPC   PO426532   5.573  23.638   9.640
 1901POPC   GL126533   5.673  23.638   9.158
 1901POPC   GL226534   5.997  23.789   9.013
 1901POPC   C1A26535   5.621  23.862   8.729
 1901POPC   D2A26536   5.867  23.881   8.366
 1901POPC   C3A26537   5.558  23.873   8.071
 1901POPC   C4A26538   5.666  23.579   7.776
 1901POPC   C1B26539   6.237  24.038   8.710
 1901POPC   C2B26540   6.421  23.953   8.337
 1901POPC   C3B26541   6.239  23.883   7.958
 1901POPC   C4B26542   5.917  24.062   7.771
 1902POPC   NC326543   9.270  33.760   9.593
 1902POPC   PO426544   8.722  33.428   9.385
 1902POPC   GL126545   8.931  33.728   9.213
 1902POPC   GL226546   8.705  33.995   9.224
 1902POPC   C1A26547   9.154  33.679   8.839
 1902POPC   D2A26548   9.135  33.815   8.405
 1902POPC   C3A26549   8.882  33.741   8.035
 1902POPC   C4A26550   9.079  33.916   7.639
 1902POPC   C1B26551   8.881  34.091   8.829
 1902POPC   C2B26552   8.685  34.075   8.412
 1902POPC   C3B26553   8.787  34.223   7.978
 1902POPC   C4B26554   8.677  34.224   7.547
 1903POPC   NC326555  20.391  25.536   9.463
 1903POPC   PO426556  20.521  24.882   9.468
 1903POPC   GL126557  20.631  25.159   9.166
 1903POPC   GL226558  20.877  25.396   9.272
 1903POPC   C1A26559  20.414  25.208   8.793
 1903POPC   D2A26560  20.421  24.927   8.445
 1903POPC   C3A26561  20.395  25.145   8.069
 1903POPC   C4A26562  20.331  25.017   7.663
 1903POPC   C1B26563  20.736  25.595   8.892
 1903POPC   C2B26564  20.747  25.443   8.470
 1903POPC   C3B26565  20.718  25.562   8.046
 1903POPC   C4B26566  20.735  25.344   7.677
 1904POPC   NC326567   1.088  41.563   9.648
 1904POPC   PO426568   1.677  41.326   9.693
 1904POPC   GL126569   1.495  41.431   9.255
 1904POPC   GL226570   1.294  41.762   9.235
 1904POPC   C1A26571   1.488  41.587   8.795
 1904POPC   D2A26572   1.451  41.577   8.360
 1904POPC   C3A26573   1.188  41.345   8.102
 1904POPC   C4A26574   1.393  41.588   7.803
 1904POPC   C1B26575   1.017  41.737   8.875
 1904POPC   C2B26576   0.979  41.798   8.408
 1904POPC   C3B26577   0.895  41.719   7.951
 1904POPC   C4B26578   1.015  41.779   7.519
 1905POPC   NC326579  36.839  42.325   9.404
 1905POPC   PO426580  36.446  41.847   9.084
 1905POPC   GL126581  36.756  42.082   8.961
 1905POPC   GL226582  37.103  42.069   9.047
 1905POPC   C1A26583  36.860  42.243   8.610
 1905POPC   D2A26584  36.922  42.104   8.249
 1905POPC   C3A26585  36.785  42.406   8.020
 1905POPC   C4A26586  36.813  42.193   7.655
 1905POPC   C1B26587  37.306  42.377   8.803
 1905POPC   C2B26588  37.261  42.468   8.360
 1905POPC   C3B26589  37.276  42.373   7.922
 1905POPC   C4B26590  37.043  42.634   7.611
 1906POPC   NC326591  35.685  15.768   9.436
 1906POPC   PO426592  36.334  16.076   9.498
 1906POPC   GL126593  36.122  16.157   9.144
 1906POPC   GL226594  36.085  15.805   9.126
 1906POPC   C1A26595  36.138  16.072   8.703
 1906POPC   D2A26596  36.351  15.962   8.337
 1906POPC   C3A26597  36.098  15.957   7.969
 1906POPC   C4A26598  35.934  16.170   7.655
 1906POPC   C1B26599  35.841  15.629   8.811
 1906POPC   C2B26600  35.892  15.716   8.385
 1906POPC   C3B26601  35.624  15.748   8.052
 1906POPC   C4B26602  35.699  15.712   7.638
 1907POPC   NC326603   2.492  22.509   9.719
 1907POPC   PO426604   2.920  22.059   9.587
 1907POPC   GL126605   2.813  22.086   9.190
 1907POPC   GL226606   2.702  22.463   9.208
 1907POPC   C1A26607   2.706  21.964   8.770
 1907POPC   D2A26608   2.931  22.065   8.422
 1907POPC   C3A26609   2.800  21.924   8.037
 1907POPC   C4A26610   2.614  22.003   7.677
 1907POPC   C1B26611   2.962  22.420   8.839
 1907POPC   C2B26612   2.989  22.586   8.448
 1907POPC   C3B26613   3.002  22.406   8.059
 1907POPC   C4B26614   2.890  22.503   7.704
 1908POPC   NC326615  26.278   1.623   9.544
 1908POPC   PO426616  25.659   1.990   9.560
 1908POPC   GL126617  26.008   1.938   9.233
 1908POPC   GL226618  26.021   1.572   9.115
 1908POPC   C1A26619  26.174   2.157   8.860
 1908POPC   D2A26620  26.072   2.396   8.477
 1908POPC   C3A26621  25.929   2.208   8.076
 1908POPC   C4A26622  26.058   2.197   7.639
 1908POPC   C1B26623  25.883   1.723   8.763
 1908POPC   C2B26624  26.092   1.865   8.419
 1908POPC   C3B26625  26.284   1.696   8.078
 1908POPC   C4B26626  26.031   1.702   7.739
 1909POPC   NC326627  32.882   7.201   9.858
 1909POPC   PO426628  33.049   7.603   9.355
 1909POPC   GL126629  33.086   7.448   8.986
 1909POPC   GL226630  33.367   7.266   9.119
 1909POPC   C1A26631  32.788   7.253   8.690
 1909POPC   D2A26632  32.651   7.182   8.273
 1909POPC   C3A26633  32.830   7.549   8.098
 1909POPC   C4A26634  33.036   7.613   7.716
 1909POPC   C1B26635  33.296   7.065   8.730
 1909POPC   C2B26636  33.185   7.217   8.332
 1909POPC   C3B26637  33.058   7.127   7.912
 1909POPC   C4B26638  33.158   7.173   7.453
 1910POPC   NC326639  34.050   6.256   9.388
 1910POPC   PO426640  33.854   5.706   9.610
 1910POPC   GL126641  33.870   5.793   9.195
 1910POPC   GL226642  33.653   6.094   9.090
 1910POPC   C1A26643  33.788   5.508   8.865
 1910POPC   D2A26644  33.877   5.552   8.436
 1910POPC   C3A26645  33.621   5.705   8.109
 1910POPC   C4A26646  33.861   5.601   7.750
 1910POPC   C1B26647  33.920   5.989   8.717
 1910POPC   C2B26648  33.937   6.083   8.270
 1910POPC   C3B26649  34.007   6.085   7.825
 1910POPC   C4B26650  33.992   6.321   7.427
 1911POPC   NC326651  20.264  16.054   9.538
 1911POPC   PO426652  20.584  15.483   9.411
 1911POPC   GL126653  20.597  15.750   9.073
 1911POPC   GL226654  20.355  16.021   9.052
 1911POPC   C1A26655  20.759  15.994   8.762
 1911POPC   D2A26656  20.841  15.825   8.408
 1911POPC   C3A26657  20.695  15.881   8.033
 1911POPC   C4A26658  20.939  15.647   7.805
 1911POPC   C1B26659  20.305  16.272   8.671
 1911POPC   C2B26660  20.640  16.312   8.375
 1911POPC   C3B26661  20.850  16.348   8.007
 1911POPC   C4B26662  20.437  16.286   7.831
 1912POPC   NC326663  36.452  39.112   9.554
 1912POPC   PO426664  35.924  39.503   9.688
 1912POPC   GL126665  36.233  39.503   9.244
 1912POPC   GL226666  36.255  39.179   9.074
 1912POPC   C1A26667  36.113  39.578   8.781
 1912POPC   D2A26668  36.057  39.217   8.529
 1912POPC   C3A26669  36.052  39.319   8.106
 1912POPC   C4A26670  35.888  39.133   7.750
 1912POPC   C1B26671  36.526  39.308   8.724
 1912POPC   C2B26672  36.503  39.124   8.294
 1912POPC   C3B26673  36.427  39.089   7.838
 1912POPC   C4B26674  36.426  38.909   7.417
 1913POPC   NC326675  32.149   4.071   9.671
 1913POPC   PO426676  32.522   3.658   9.412
 1913POPC   GL126677  32.399   4.092   9.192
 1913POPC   GL226678  32.384   4.476   9.269
 1913POPC   C1A26679  32.148   4.115   8.815
 1913POPC   D2A26680  32.066   3.842   8.452
 1913POPC   C3A26681  32.363   3.892   8.114
 1913POPC   C4A26682  32.305   4.147   7.769
 1913POPC   C1B26683  32.113   4.612   8.905
 1913POPC   C2B26684  32.158   4.614   8.463
 1913POPC   C3B26685  32.176   4.611   8.015
 1913POPC   C4B26686  31.861   4.406   7.738
 1914POPC   NC326687  22.705  34.706   9.518
 1914POPC   PO426688  23.205  34.258   9.383
 1914POPC   GL126689  23.021  34.562   9.089
 1914POPC   GL226690  22.781  34.807   9.036
 1914POPC   C1A26691  23.102  34.659   8.656
 1914POPC   D2A26692  23.332  34.786   8.315
 1914POPC   C3A26693  23.032  34.780   7.956
 1914POPC   C4A26694  22.870  34.357   7.825
 1914POPC   C1B26695  22.606  34.577   8.713
 1914POPC   C2B26696  22.657  34.755   8.324
 1914POPC   C3B26697  22.460  34.647   7.955
 1914POPC   C4B26698  22.429  34.755   7.526
 1915POPC   NC326699  23.932  25.509   9.627
 1915POPC   PO426700  23.645  24.890   9.853
 1915POPC   GL126701  23.649  25.115   9.362
 1915POPC   GL226702  23.887  25.343   9.155
 1915POPC   C1A26703  23.567  25.098   8.862
 1915POPC   D2A26704  23.571  25.292   8.424
 1915POPC   C3A26705  23.912  25.162   8.140
 1915POPC   C4A26706  23.927  25.050   7.727
 1915POPC   C1B26707  23.811  25.579   8.784
 1915POPC   C2B26708  23.974  25.619   8.374
 1915POPC   C3B26709  23.792  25.796   7.997
 1915POPC   C4B26710  23.606  25.510   7.745
 1916POPC   NC326711  24.644  44.915   9.730
 1916POPC   PO426712  24.184  44.494   9.469
 1916POPC   GL126713  24.314  44.662   9.103
 1916POPC   GL226714  24.622  44.786   9.210
 1916POPC   C1A26715  24.602  44.525   8.780
 1916POPC   D2A26716  24.711  44.384   8.398
 1916POPC   C3A26717  24.723  44.694   8.108
 1916POPC   C4A26718  24.445  44.786   7.797
 1916POPC   C1B26719  24.768   0.031   8.808
 1916POPC   C2B26720  24.951   0.110   8.371
 1916POPC   C3B26721  24.850   0.162   7.919
 1916POPC   C4B26722  24.887  44.874   7.537
 1917POPC   NC326723  42.009  12.978   9.508
 1917POPC   PO426724  41.319  12.910   9.523
 1917POPC   GL126725  41.510  13.013   9.128
 1917POPC   GL226726  41.791  12.803   9.061
 1917POPC   C1A26727  41.360  12.889   8.717
 1917POPC   D2A26728  41.536  13.045   8.351
 1917POPC   C3A26729  41.351  13.004   7.951
 1917POPC   C4A26730  41.736  13.104   7.752
 1917POPC   C1B26731  41.672  12.473   8.751
 1917POPC   C2B26732  41.513  12.518   8.333
 1917POPC   C3B26733  41.689  12.635   7.957
 1917POPC   C4B26734  41.500  12.704   7.508
 1918POPC   NC326735  40.710  17.239   9.532
 1918POPC   PO426736  41.098  17.789   9.496
 1918POPC   GL126737  40.912  17.586   9.174
 1918POPC   GL226738  41.145  17.300   9.158
 1918POPC   C1A26739  40.672  17.356   8.863
 1918POPC   D2A26740  40.525  17.167   8.482
 1918POPC   C3A26741  40.688  17.359   8.117
 1918POPC   C4A26742  40.691  17.501   7.693
 1918POPC   C1B26743  41.168  17.443   8.712
 1918POPC   C2B26744  41.218  17.311   8.250
 1918POPC   C3B26745  41.073  17.186   7.832
 1918POPC   C4B26746  41.085  17.377   7.409
 1919POPC   NC326747  22.903  23.555   9.636
 1919POPC   PO426748  23.142  24.227   9.576
 1919POPC   GL126749  22.933  23.922   9.248
 1919POPC   GL226750  22.782  23.557   9.117
 1919POPC   C1A26751  22.957  23.927   8.797
 1919POPC   D2A26752  23.100  23.964   8.365
 1919POPC   C3A26753  22.794  23.775   8.153
 1919POPC   C4A26754  22.846  23.612   7.773
 1919POPC   C1B26755  22.926  23.266   8.748
 1919POPC   C2B26756  23.060  23.304   8.279
 1919POPC   C3B26757  23.081  23.180   7.818
 1919POPC   C4B26758  23.293  23.429   7.491
 1920POPC   NC326759  14.650  42.403   9.522
 1920POPC   PO426760  14.127  41.890   9.526
 1920POPC   GL126761  14.254  42.251   9.201
 1920POPC   GL226762  14.560  42.262   9.052
 1920POPC   C1A26763  14.170  42.519   8.818
 1920POPC   D2A26764  14.302  42.484   8.372
 1920POPC   C3A26765  14.020  42.550   8.017
 1920POPC   C4A26766  14.049  42.441   7.554
 1920POPC   C1B26767  14.547  42.142   8.672
 1920POPC   C2B26768  14.803  42.274   8.345
 1920POPC   C3B26769  14.584  42.280   7.970
 1920POPC   C4B26770  14.536  41.917   7.769
 1921POPC   NC326771  28.498  44.334   9.212
 1921POPC   PO426772  28.820  44.736   9.707
 1921POPC   GL126773  28.592  44.827   9.253
 1921POPC   GL226774  28.216  44.765   9.168
 1921POPC   C1A26775  28.727  44.763   8.790
 1921POPC   D2A26776  28.476  44.812   8.462
 1921POPC   C3A26777  28.483  44.558   8.096
 1921POPC   C4A26778  28.447  44.738   7.668
 1921POPC   C1B26779  28.072  44.581   8.771
 1921POPC   C2B26780  27.986  44.775   8.393
 1921POPC   C3B26781  28.084  44.849   8.028
 1921POPC   C4B26782  28.006  44.458   7.828
 1922POPC   NC326783  18.264  38.897   9.441
 1922POPC   PO426784  18.621  39.482   9.445
 1922POPC   GL126785  18.247  39.347   9.177
 1922POPC   GL226786  17.931  39.560   9.172
 1922POPC   C1A26787  18.307  39.162   8.768
 1922POPC   D2A26788  18.696  39.149   8.504
 1922POPC   C3A26789  18.523  39.127   8.097
 1922POPC   C4A26790  18.121  39.085   7.962
 1922POPC   C1B26791  18.140  39.655   8.784
 1922POPC   C2B26792  18.057  39.458   8.397
 1922POPC   C3B26793  18.133  39.603   8.035
 1922POPC   C4B26794  18.232  39.532   7.668
 1923POPC   NC326795  37.051  39.912   9.532
 1923POPC   PO426796  36.446  40.241   9.484
 1923POPC   GL126797  36.634  39.909   9.208
 1923POPC   GL226798  36.881  40.156   9.113
 1923POPC   C1A26799  36.932  39.745   8.857
 1923POPC   D2A26800  36.980  39.962   8.480
 1923POPC   C3A26801  37.127  39.818   8.103
 1923POPC   C4A26802  36.823  39.909   7.804
 1923POPC   C1B26803  37.166  40.301   8.802
 1923POPC   C2B26804  37.209  40.451   8.417
 1923POPC   C3B26805  37.251  40.302   8.004
 1923POPC   C4B26806  37.058  40.301   7.583
 1924POPC   NC326807  35.779  14.206  10.019
 1924POPC   PO426808  36.156  14.368   9.547
 1924POPC   GL126809  36.088  14.508   9.168
 1924POPC   GL226810  35.774  14.709   9.169
 1924POPC   C1A26811  36.010  14.448   8.749
 1924POPC   D2A26812  36.198  14.312   8.399
 1924POPC   C3A26813  36.109  14.527   8.062
 1924POPC   C4A26814  36.146  14.265   7.745
 1924POPC   C1B26815  35.823  14.953   8.777
 1924POPC   C2B26816  35.772  14.818   8.355
 1924POPC   C3B26817  35.843  14.938   7.906
 1924POPC   C4B26818  35.849  14.625   7.556
 1925POPC   NC326819  35.409  28.789   9.435
 1925POPC   PO426820  35.152  29.382   9.498
 1925POPC   GL126821  35.320  29.162   9.098
 1925POPC   GL226822  35.666  28.992   9.044
 1925POPC   C1A26823  35.456  29.306   8.685
 1925POPC   D2A26824  35.507  29.159   8.255
 1925POPC   C3A26825  35.249  29.257   7.884
 1925POPC   C4A26826  34.973  29.122   7.529
 1925POPC   C1B26827  35.443  28.811   8.685
 1925POPC   C2B26828  35.575  28.654   8.312
 1925POPC   C3B26829  35.409  28.760   7.907
 1925POPC   C4B26830  35.664  28.630   7.620
 1926POPC   NC326831  33.511   0.026   9.766
 1926POPC   PO426832  33.927   0.524   9.526
 1926POPC   GL126833  33.734   0.337   9.192
 1926POPC   GL226834  33.720   0.633   9.010
 1926POPC   C1A26835  33.830   0.138   8.802
 1926POPC   D2A26836  33.678   0.254   8.387
 1926POPC   C3A26837  33.939   0.329   8.049
 1926POPC   C4A26838  33.971   0.182   7.637
 1926POPC   C1B26839  33.981   0.595   8.640
 1926POPC   C2B26840  34.016   0.811   8.231
 1926POPC   C3B26841  33.962   0.776   7.778
 1926POPC   C4B26842  34.224   0.963   7.458
 1927POPC   NC326843   7.201   3.136   9.559
 1927POPC   PO426844   7.646   3.611   9.652
 1927POPC   GL126845   7.408   3.597   9.206
 1927POPC   GL226846   7.235   3.280   9.089
 1927POPC   C1A26847   7.291   3.632   8.730
 1927POPC   D2A26848   7.504   3.511   8.366
 1927POPC   C3A26849   7.259   3.608   8.034
 1927POPC   C4A26850   7.242   3.934   7.729
 1927POPC   C1B26851   7.550   3.208   8.788
 1927POPC   C2B26852   7.454   3.001   8.419
 1927POPC   C3B26853   7.315   3.079   7.973
 1927POPC   C4B26854   7.496   3.366   7.652
 1928POPC   NC326855  22.653   1.855   9.420
 1928POPC   PO426856  23.320   1.761   9.528
 1928POPC   GL126857  23.080   1.951   9.185
 1928POPC   GL226858  22.994   2.278   9.290
 1928POPC   C1A26859  22.848   1.885   8.780
 1928POPC   D2A26860  23.043   2.077   8.427
 1928POPC   C3A26861  23.236   2.020   8.031
 1928POPC   C4A26862  23.069   1.811   7.728
 1928POPC   C1B26863  22.780   2.374   8.892
 1928POPC   C2B26864  22.662   2.409   8.439
 1928POPC   C3B26865  22.702   2.124   8.042
 1928POPC   C4B26866  22.671   2.032   7.551
 1929POPC   NC326867   2.553   6.995   9.894
 1929POPC   PO426868   2.697   7.549   9.544
 1929POPC   GL126869   2.790   7.466   9.133
 1929POPC   GL226870   2.898   7.098   9.163
 1929POPC   C1A26871   2.610   7.593   8.730
 1929POPC   D2A26872   2.609   7.481   8.274
 1929POPC   C3A26873   2.687   7.780   7.922
 1929POPC   C4A26874   2.971   7.646   7.574
 1929POPC   C1B26875   2.682   7.102   8.771
 1929POPC   C2B26876   2.573   6.952   8.402
 1929POPC   C3B26877   2.861   7.049   8.102
 1929POPC   C4B26878   2.700   7.279   7.777
 1930POPC   NC326879  43.219   4.133   9.506
 1930POPC   PO426880  43.257   3.566   9.772
 1930POPC   GL126881  43.275   3.551   9.289
 1930POPC   GL226882  43.373   3.252   9.061
 1930POPC   C1A26883  42.979   3.534   8.914
 1930POPC   D2A26884  42.806   3.673   8.528
 1930POPC   C3A26885  42.994   3.458   8.193
 1930POPC   C4A26886  42.866   3.398   7.806
 1930POPC   C1B26887  43.332   3.263   8.603
 1930POPC   C2B26888  43.502   3.354   8.192
 1930POPC   C3B26889  43.336   3.250   7.812
 1930POPC   C4B26890  43.079   3.136   7.421
 1931POPC   NC326891  42.682   7.267   9.453
 1931POPC   PO426892  42.155   7.715   9.459
 1931POPC   GL126893  42.364   7.516   9.140
 1931POPC   GL226894  42.235   7.186   9.189
 1931POPC   C1A26895  42.515   7.292   8.783
 1931POPC   D2A26896  42.426   7.448   8.394
 1931POPC   C3A26897  42.452   7.218   8.032
 1931POPC   C4A26898  42.380   7.293   7.633
 1931POPC   C1B26899  42.054   7.066   8.775
 1931POPC   C2B26900  41.991   7.173   8.316
 1931POPC   C3B26901  41.943   7.216   7.854
 1931POPC   C4B26902  41.966   7.128   7.351
 1932POPC   NC326903  39.492  18.780   9.433
 1932POPC   PO426904  39.109  19.384   9.522
 1932POPC   GL126905  39.196  19.108   9.164
 1932POPC   GL226906  39.390  19.357   9.047
 1932POPC   C1A26907  39.228  18.897   8.730
 1932POPC   D2A26908  38.945  18.818   8.343
 1932POPC   C3A26909  39.137  18.779   7.930
 1932POPC   C4A26910  39.522  18.980   7.789
 1932POPC   C1B26911  39.418  19.353   8.626
 1932POPC   C2B26912  39.342  19.138   8.255
 1932POPC   C3B26913  39.202  19.350   7.907
 1932POPC   C4B26914  39.401  19.720   7.864
 1933POPC   NC326915  29.119  14.157   9.702
 1933POPC   PO426916  29.440  13.562   9.509
 1933POPC   GL126917  29.218  13.739   9.161
 1933POPC   GL226918  28.871  13.875   9.183
 1933POPC   C1A26919  29.032  13.628   8.758
 1933POPC   D2A26920  29.020  13.848   8.359
 1933POPC   C3A26921  28.915  13.549   8.066
 1933POPC   C4A26922  29.109  13.322   7.731
 1933POPC   C1B26923  28.670  13.982   8.764
 1933POPC   C2B26924  28.626  14.151   8.345
 1933POPC   C3B26925  28.828  14.136   7.923
 1933POPC   C4B26926  28.919  14.122   7.461
 1934POPC   NC326927  39.542   9.925   9.549
 1934POPC   PO426928  38.915   9.563   9.597
 1934POPC   GL126929  39.211   9.668   9.244
 1934POPC   GL226930  39.056   9.424   9.034
 1934POPC   C1A26931  39.341   9.809   8.828
 1934POPC   D2A26932  39.029   9.809   8.496
 1934POPC   C3A26933  39.160   9.982   8.112
 1934POPC   C4A26934  39.208   9.752   7.719
 1934POPC   C1B26935  39.438   9.301   8.774
 1934POPC   C2B26936  39.626   9.423   8.352
 1934POPC   C3B26937  39.517   9.352   7.905
 1934POPC   C4B26938  39.520   9.435   7.452
 1935POPC   NC326939   8.151  41.928   9.271
 1935POPC   PO426940   8.349  41.317   9.326
 1935POPC   GL126941   8.354  41.540   9.022
 1935POPC   GL226942   8.624  41.737   9.070
 1935POPC   C1A26943   8.172  41.519   8.644
 1935POPC   D2A26944   8.053  41.311   8.247
 1935POPC   C3A26945   8.082  41.521   7.875
 1935POPC   C4A26946   7.825  41.838   7.877
 1935POPC   C1B26947   8.630  41.868   8.695
 1935POPC   C2B26948   8.331  41.953   8.400
 1935POPC   C3B26949   8.317  41.978   7.982
 1935POPC   C4B26950   8.533  41.734   7.672
 1936POPC   NC326951  11.742  14.698   9.465
 1936POPC   PO426952  11.226  14.255   9.602
 1936POPC   GL126953  11.369  14.464   9.215
 1936POPC   GL226954  11.072  14.431   9.105
 1936POPC   C1A26955  11.533  14.437   8.756
 1936POPC   D2A26956  11.562  14.535   8.280
 1936POPC   C3A26957  11.536  14.260   7.895
 1936POPC   C4A26958  11.719  14.247   7.403
 1936POPC   C1B26959  11.112  14.709   8.805
 1936POPC   C2B26960  11.093  14.431   8.488
 1936POPC   C3B26961  11.052  14.373   8.094
 1936POPC   C4B26962  10.987  14.460   7.686
 1937POPC   NC326963   9.259   0.347   9.549
 1937POPC   PO426964   9.912   0.630   9.579
 1937POPC   GL126965   9.620   0.536   9.219
 1937POPC   GL226966   9.741   0.251   9.046
 1937POPC   C1A26967   9.530   0.606   8.782
 1937POPC   D2A26968   9.828   0.369   8.546
 1937POPC   C3A26969   9.860   0.333   8.127
 1937POPC   C4A26970   9.625   0.438   7.787
 1937POPC   C1B26971   9.454   0.092   8.726
 1937POPC   C2B26972   9.370   0.167   8.269
 1937POPC   C3B26973   9.548  44.953   7.890
 1937POPC   C4B26974   9.859   0.044   7.573
 1938POPC   NC326975   3.175  33.965   9.555
 1938POPC   PO426976   2.511  33.983   9.532
 1938POPC   GL126977   2.770  33.847   9.176
 1938POPC   GL226978   3.096  33.797   9.076
 1938POPC   C1A26979   2.768  33.924   8.727
 1938POPC   D2A26980   2.737  33.704   8.382
 1938POPC   C3A26981   2.758  33.946   8.053
 1938POPC   C4A26982   2.576  33.915   7.636
 1938POPC   C1B26983   3.125  33.536   8.722
 1938POPC   C2B26984   3.129  33.365   8.320
 1938POPC   C3B26985   2.874  33.433   7.963
 1938POPC   C4B26986   3.069  33.732   7.734
 1939POPC   NC326987   3.311   7.481   9.456
 1939POPC   PO426988   3.578   6.866   9.504
 1939POPC   GL126989   3.714   7.022   9.125
 1939POPC   GL226990   3.397   7.149   9.089
 1939POPC   C1A26991   3.692   7.179   8.699
 1939POPC   D2A26992   3.912   7.325   8.383
 1939POPC   C3A26993   3.618   7.432   8.083
 1939POPC   C4A26994   3.488   7.631   7.709
 1939POPC   C1B26995   3.161   7.407   8.794
 1939POPC   C2B26996   3.197   7.670   8.441
 1939POPC   C3B26997   3.108   7.525   8.053
 1939POPC   C4B26998   3.223   7.198   7.763
 1940POPC   NC326999  30.479  19.676  10.160
 1940POPC   PO427000  30.547  19.953   9.566
 1940POPC   GL127001  30.688  20.027   9.134
 1940POPC   GL227002  30.972  20.249   9.131
 1940POPC   C1A27003  30.489  20.092   8.732
 1940POPC   D2A27004  30.290  19.846   8.422
 1940POPC   C3A27005  30.405  20.022   8.045
 1940POPC   C4A27006  30.392  19.744   7.685
 1940POPC   C1B27007  31.017  19.955   8.751
 1940POPC   C2B27008  30.815  19.745   8.395
 1940POPC   C3B27009  30.855  19.772   7.945
 1940POPC   C4B27010  31.117  19.802   7.601
 1941POPC   NC327011  37.298  27.211   9.457
 1941POPC   PO427012  37.877  27.494   9.716
 1941POPC   GL127013  37.663  27.530   9.261
 1941POPC   GL227014  37.561  27.852   9.194
 1941POPC   C1A27015  37.784  27.640   8.780
 1941POPC   D2A27016  38.009  27.812   8.401
 1941POPC   C3A27017  37.852  27.689   7.999
 1941POPC   C4A27018  37.783  27.311   7.785
 1941POPC   C1B27019  37.327  27.862   8.808
 1941POPC   C2B27020  37.453  27.720   8.390
 1941POPC   C3B27021  37.379  27.455   8.052
 1941POPC   C4B27022  37.472  27.665   7.640
 1942POPC   NC327023   5.923  33.931   9.464
 1942POPC   PO427024   5.394  33.447   9.584
 1942POPC   GL127025   5.515  33.623   9.177
 1942POPC   GL227026   5.877  33.600   9.123
 1942POPC   C1A27027   5.647  33.700   8.720
 1942POPC   D2A27028   5.876  33.700   8.386
 1942POPC   C3A27029   5.694  33.838   8.018
 1942POPC   C4A27030   5.627  33.670   7.633
 1942POPC   C1B27031   6.156  33.824   8.823
 1942POPC   C2B27032   6.345  33.847   8.389
 1942POPC   C3B27033   6.233  33.746   7.988
 1942POPC   C4B27034   6.061  33.960   7.654
 1943POPC   NC327035  34.769  44.357   9.378
 1943POPC   PO427036  34.271  43.929   9.548
 1943POPC   GL127037  34.472  43.894   9.166
 1943POPC   GL227038  34.800  43.746   9.222
 1943POPC   C1A27039  34.593  44.044   8.772
 1943POPC   D2A27040  34.447  43.942   8.405
 1943POPC   C3A27041  34.650  44.059   8.081
 1943POPC   C4A27042  34.469  43.830   7.751
 1943POPC   C1B27043  35.013  43.794   8.840
 1943POPC   C2B27044  34.888  43.696   8.406
 1943POPC   C3B27045  34.916  43.621   7.957
 1943POPC   C4B27046  34.949  43.987   7.662
 1944POPC   NC327047  39.574  24.797   9.487
 1944POPC   PO427048  38.934  24.446   9.614
 1944POPC   GL127049  39.178  24.478   9.204
 1944POPC   GL227050  39.447  24.291   9.037
 1944POPC   C1A27051  39.114  24.545   8.742
 1944POPC   D2A27052  39.164  24.359   8.308
 1944POPC   C3A27053  39.170  24.630   7.967
 1944POPC   C4A27054  39.147  24.628   7.525
 1944POPC   C1B27055  39.589  24.385   8.607
 1944POPC   C2B27056  39.652  24.474   8.138
 1944POPC   C3B27057  39.511  24.330   7.707
 1944POPC   C4B27058  39.409  24.260   7.252
 1945POPC   NC327059  37.228  12.548   9.426
 1945POPC   PO427060  37.811  12.983   9.365
 1945POPC   GL127061  37.506  12.873   9.103
 1945POPC   GL227062  37.623  12.542   9.125
 1945POPC   C1A27063  37.627  12.930   8.701
 1945POPC   D2A27064  37.676  13.181   8.385
 1945POPC   C3A27065  37.762  12.972   8.036
 1945POPC   C4A27066  37.457  13.149   7.808
 1945POPC   C1B27067  37.405  12.483   8.753
 1945POPC   C2B27068  37.625  12.573   8.329
 1945POPC   C3B27069  37.429  12.627   7.876
 1945POPC   C4B27070  37.298  12.575   7.430
 1946POPC   NC327071   5.385  27.903   9.493
 1946POPC   PO427072   4.938  28.406   9.349
 1946POPC   GL127073   5.196  28.257   9.060
 1946POPC   GL227074   5.498  28.338   9.262
 1946POPC   C1A27075   4.917  28.182   8.697
 1946POPC   D2A27076   4.906  28.000   8.292
 1946POPC   C3A27077   4.956  28.348   8.010
 1946POPC   C4A27078   5.141  28.342   7.628
 1946POPC   C1B27079   5.637  28.538   8.908
 1946POPC   C2B27080   5.597  28.569   8.465
 1946POPC   C3B27081   5.448  28.423   8.068
 1946POPC   C4B27082   5.320  27.994   7.988
 1947POPC   NC327083  34.607   8.635   9.422
 1947POPC   PO427084  34.638   8.063   9.574
 1947POPC   GL127085  34.732   8.197   9.169
 1947POPC   GL227086  34.991   8.457   9.129
 1947POPC   C1A27087  34.479   8.204   8.808
 1947POPC   D2A27088  34.427   8.432   8.439
 1947POPC   C3A27089  34.500   8.242   8.042
 1947POPC   C4A27090  34.240   8.261   7.697
 1947POPC   C1B27091  34.969   8.430   8.681
 1947POPC   C2B27092  34.913   8.490   8.251
 1947POPC   C3B27093  34.975   8.301   7.876
 1947POPC   C4B27094  34.755   8.283   7.484
 1948POPC   NC327095  25.838  21.602   9.366
 1948POPC   PO427096  26.104  21.031   9.521
 1948POPC   GL127097  26.082  21.223   9.103
 1948POPC   GL227098  26.234  21.545   9.040
 1948POPC   C1A27099  26.038  21.274   8.657
 1948POPC   D2A27100  26.307  21.161   8.309
 1948POPC   C3A27101  26.077  21.146   7.920
 1948POPC   C4A27102  25.737  21.320   7.637
 1948POPC   C1B27103  26.422  21.816   8.740
 1948POPC   C2B27104  26.570  21.688   8.359
 1948POPC   C3B27105  26.426  21.548   7.964
 1948POPC   C4B27106  26.194  21.536   7.607
 1949POPC   NC327107  40.944  30.283   9.532
 1949POPC   PO427108  40.960  30.938   9.465
 1949POPC   GL127109  40.633  30.884   9.138
 1949POPC   GL227110  40.523  30.521   9.094
 1949POPC   C1A27111  40.756  30.852   8.704
 1949POPC   D2A27112  41.069  30.957   8.395
 1949POPC   C3A27113  41.004  30.727   8.062
 1949POPC   C4A27114  40.990  30.869   7.656
 1949POPC   C1B27115  40.291  30.624   8.700
 1949POPC   C2B27116  40.512  30.648   8.288
 1949POPC   C3B27117  40.550  30.595   7.842
 1949POPC   C4B27118  40.593  30.613   7.377
 1950POPC   NC327119  27.615  28.169   9.488
 1950POPC   PO427120  27.377  28.853   9.485
 1950POPC   GL127121  27.429  28.568   9.187
 1950POPC   GL227122  27.761  28.567   9.193
 1950POPC   C1A27123  27.534  28.386   8.797
 1950POPC   D2A27124  27.436  28.242   8.417
 1950POPC   C3A27125  27.467  28.476   8.071
 1950POPC   C4A27126  27.257  28.411   7.705
 1950POPC   C1B27127  28.005  28.610   8.861
 1950POPC   C2B27128  28.024  28.662   8.431
 1950POPC   C3B27129  27.908  28.757   8.047
 1950POPC   C4B27130  27.865  28.548   7.711
 1951POPC   NC327131  27.341   4.893   9.549
 1951POPC   PO427132  27.737   5.435   9.783
 1951POPC   GL127133  27.567   5.348   9.325
 1951POPC   GL227134  27.830   5.321   9.078
 1951POPC   C1A27135  27.307   5.299   8.916
 1951POPC   D2A27136  27.276   5.208   8.475
 1951POPC   C3A27137  27.274   5.448   8.117
 1951POPC   C4A27138  27.467   5.296   7.752
 1951POPC   C1B27139  27.632   4.921   8.885
 1951POPC   C2B27140  27.503   4.756   8.472
 1951POPC   C3B27141  27.428   4.863   8.034
 1951POPC   C4B27142  27.702   4.842   7.682
 1952POPC   NC327143  17.549   5.312   9.276
 1952POPC   PO427144  17.528   5.934   9.620
 1952POPC   GL127145  17.531   5.979   9.182
 1952POPC   GL227146  17.267   5.736   9.157
 1952POPC   C1A27147  17.724   5.997   8.762
 1952POPC   D2A27148  17.542   5.886   8.378
 1952POPC   C3A27149  17.587   5.679   8.004
 1952POPC   C4A27150  17.273   5.440   7.791
 1952POPC   C1B27151  17.210   5.958   8.786
 1952POPC   C2B27152  17.009   5.981   8.389
 1952POPC   C3B27153  17.213   6.045   8.016
 1952POPC   C4B27154  17.232   6.314   7.688
 1953POPC   NC327155   1.955  23.974   9.405
 1953POPC   PO427156   1.750  23.264   9.463
 1953POPC   GL127157   1.925  23.518   9.122
 1953POPC   GL227158   2.275  23.438   8.967
 1953POPC   C1A27159   1.917  23.689   8.717
 1953POPC   D2A27160   2.220  23.523   8.421
 1953POPC   C3A27161   2.076  23.425   8.025
 1953POPC   C4A27162   1.952  23.702   7.715
 1953POPC   C1B27163   2.395  23.858   8.778
 1953POPC   C2B27164   2.187  24.087   8.486
 1953POPC   C3B27165   2.191  24.006   8.083
 1953POPC   C4B27166   2.152  24.201   7.693
 1954POPC   NC327167  10.086  14.174   9.590
 1954POPC   PO427168   9.500  14.417   9.457
 1954POPC   GL127169   9.761  14.421   9.139
 1954POPC   GL227170   9.906  14.747   9.202
 1954POPC   C1A27171   9.744  14.175   8.777
 1954POPC   D2A27172   9.736  13.939   8.413
 1954POPC   C3A27173   9.619  14.194   8.098
 1954POPC   C4A27174   9.593  14.259   7.679
 1954POPC   C1B27175   9.759  14.789   8.758
 1954POPC   C2B27176   9.703  14.656   8.345
 1954POPC   C3B27177   9.812  14.774   7.929
 1954POPC   C4B27178  10.057  14.708   7.536
 1955POPC   NC327179  38.595   5.532   9.490
 1955POPC   PO427180  38.208   6.100   9.618
 1955POPC   GL127181  38.377   5.930   9.240
 1955POPC   GL227182  38.696   6.024   9.298
 1955POPC   C1A27183  38.317   5.824   8.795
 1955POPC   D2A27184  38.238   6.037   8.400
 1955POPC   C3A27185  38.268   5.742   8.084
 1955POPC   C4A27186  38.476   5.595   7.722
 1955POPC   C1B27187  38.816   5.830   8.898
 1955POPC   C2B27188  38.710   5.761   8.454
 1955POPC   C3B27189  38.861   5.611   8.048
 1955POPC   C4B27190  39.051   5.562   7.622
 1956POPC   NC327191   0.922  19.835   9.563
 1956POPC   PO427192   1.457  19.518   9.515
 1956POPC   GL127193   1.218  19.637   9.166
 1956POPC   GL227194   1.320  19.973   9.138
 1956POPC   C1A27195   1.238  19.747   8.710
 1956POPC   D2A27196   1.569  19.794   8.413
 1956POPC   C3A27197   1.397  19.901   8.027
 1956POPC   C4A27198   1.023  19.937   7.799
 1956POPC   C1B27199   1.571  20.188   8.805
 1956POPC   C2B27200   1.709  20.275   8.336
 1956POPC   C3B27201   1.502  20.405   7.911
 1956POPC   C4B27202   1.298  20.288   7.474
 1957POPC   NC327203   5.200   4.694   9.513
 1957POPC   PO427204   4.904   4.058   9.568
 1957POPC   GL127205   5.146   4.180   9.220
 1957POPC   GL227206   4.977   4.469   9.125
 1957POPC   C1A27207   5.313   4.296   8.786
 1957POPC   D2A27208   5.107   4.223   8.398
 1957POPC   C3A27209   5.249   4.304   7.985
 1957POPC   C4A27210   5.020   4.096   7.616
 1957POPC   C1B27211   4.783   4.264   8.807
 1957POPC   C2B27212   4.655   4.469   8.439
 1957POPC   C3B27213   4.744   4.390   7.998
 1957POPC   C4B27214   4.943   4.599   7.628
 1958POPC   NC327215  33.349  31.467   9.332
 1958POPC   PO427216  33.893  31.338   9.688
 1958POPC   GL127217  33.899  31.540   9.294
 1958POPC   GL227218  33.680  31.780   9.102
 1958POPC   C1A27219  34.001  31.459   8.876
 1958POPC   D2A27220  33.971  31.319   8.457
 1958POPC   C3A27221  34.033  31.560   8.080
 1958POPC   C4A27222  33.996  31.615   7.632
 1958POPC   C1B27223  33.677  31.729   8.629
 1958POPC   C2B27224  33.516  31.521   8.268
 1958POPC   C3B27225  33.545  31.488   7.833
 1958POPC   C4B27226  33.539  31.847   7.511
 1959POPC   NC327227  41.685   3.245   9.496
 1959POPC   PO427228  41.865   2.579   9.552
 1959POPC   GL127229  41.483   2.673   9.249
 1959POPC   GL227230  41.583   2.927   9.097
 1959POPC   C1A27231  41.326   2.619   8.788
 1959POPC   D2A27232  41.561   2.420   8.444
 1959POPC   C3A27233  41.504   2.574   8.020
 1959POPC   C4A27234  41.276   2.880   7.736
 1959POPC   C1B27235  41.840   3.120   8.734
 1959POPC   C2B27236  41.725   3.083   8.270
 1959POPC   C3B27237  41.834   2.922   7.860
 1959POPC   C4B27238  42.024   3.018   7.464
 1960POPC   NC327239  25.138  36.899   9.618
 1960POPC   PO427240  25.629  37.277   9.329
 1960POPC   GL127241  25.306  37.070   9.176
 1960POPC   GL227242  25.433  36.740   9.251
 1960POPC   C1A27243  25.092  37.101   8.817
 1960POPC   D2A27244  25.338  37.039   8.468
 1960POPC   C3A27245  25.077  37.068   8.138
 1960POPC   C4A27246  25.151  37.192   7.745
 1960POPC   C1B27247  25.565  36.646   8.866
 1960POPC   C2B27248  25.707  36.660   8.456
 1960POPC   C3B27249  25.434  36.633   8.126
 1960POPC   C4B27250  25.421  36.738   7.715
 1961POPC   NC327251  42.714   6.542   9.592
 1961POPC   PO427252  42.094   6.719   9.395
 1961POPC   GL127253  42.542   6.771   9.165
 1961POPC   GL227254  42.675   6.440   9.102
 1961POPC   C1A27255  42.684   6.768   8.712
 1961POPC   D2A27256  42.418   6.915   8.437
 1961POPC   C3A27257  42.316   6.728   8.063
 1961POPC   C4A27258  42.163   6.793   7.679
 1961POPC   C1B27259  42.318   6.418   8.827
 1961POPC   C2B27260  42.418   6.369   8.421
 1961POPC   C3B27261  42.648   6.316   8.084
 1961POPC   C4B27262  42.483   6.375   7.711
 1962POPC   NC327263  32.130  29.446   9.828
 1962POPC   PO427264  32.632  28.992   9.582
 1962POPC   GL127265  32.475  29.199   9.246
 1962POPC   GL227266  32.136  29.337   9.303
 1962POPC   C1A27267  32.336  29.004   8.869
 1962POPC   D2A27268  32.261  29.174   8.483
 1962POPC   C3A27269  32.396  28.997   8.119
 1962POPC   C4A27270  32.238  29.133   7.714
 1962POPC   C1B27271  32.004  29.442   8.868
 1962POPC   C2B27272  31.999  29.604   8.432
 1962POPC   C3B27273  31.966  29.433   8.035
 1962POPC   C4B27274  31.823  29.433   7.623
 1963POPC   NC327275  13.287  27.338   9.579
 1963POPC   PO427276  13.807  26.806   9.715
 1963POPC   GL127277  13.722  26.940   9.335
 1963POPC   GL227278  13.849  26.622   9.218
 1963POPC   C1A27279  13.706  27.008   8.901
 1963POPC   D2A27280  13.773  26.965   8.487
 1963POPC   C3A27281  13.402  26.936   8.221
 1963POPC   C4A27282  13.544  26.987   7.817
 1963POPC   C1B27283  13.873  26.519   8.785
 1963POPC   C2B27284  13.632  26.490   8.398
 1963POPC   C3B27285  13.508  26.443   7.990
 1963POPC   C4B27286  13.847  26.568   7.766
 1964POPC   NC327287   5.561   5.837   9.429
 1964POPC   PO427288   4.843   5.665   9.482
 1964POPC   GL127289   5.099   5.846   9.212
 1964POPC   GL227290   5.153   5.540   9.020
 1964POPC   C1A27291   5.086   6.008   8.802
 1964POPC   D2A27292   5.060   5.828   8.366
 1964POPC   C3A27293   4.687   5.955   8.114
 1964POPC   C4A27294   4.640   6.175   7.721
 1964POPC   C1B27295   5.466   5.666   8.733
 1964POPC   C2B27296   5.569   5.649   8.316
 1964POPC   C3B27297   5.405   5.884   7.986
 1964POPC   C4B27298   5.030   5.853   7.744
 1965POPC   NC327299  14.487  13.543   9.516
 1965POPC   PO427300  13.986  13.326   9.101
 1965POPC   GL127301  14.337  13.592   9.027
 1965POPC   GL227302  14.542  13.860   9.106
 1965POPC   C1A27303  14.555  13.543   8.669
 1965POPC   D2A27304  14.301  13.363   8.348
 1965POPC   C3A27305  14.210  13.590   8.029
 1965POPC   C4A27306  14.487  13.455   7.739
 1965POPC   C1B27307  14.896  13.907   8.863
 1965POPC   C2B27308  14.977  13.769   8.470
 1965POPC   C3B27309  14.671  13.748   8.144
 1965POPC   C4B27310  14.736  13.912   7.728
 1966POPC   NC327311  10.264   9.559   9.785
 1966POPC   PO427312  10.239  10.263   9.735
 1966POPC   GL127313  10.459  10.060   9.279
 1966POPC   GL227314  10.469   9.687   9.212
 1966POPC   C1A27315  10.396  10.016   8.780
 1966POPC   D2A27316  10.358   9.790   8.317
 1966POPC   C3A27317  10.568   9.756   7.892
 1966POPC   C4A27318  10.744   9.999   7.535
 1966POPC   C1B27319  10.460   9.509   8.749
 1966POPC   C2B27320  10.349   9.274   8.343
 1966POPC   C3B27321  10.226   9.366   7.886
 1966POPC   C4B27322  10.252   9.355   7.429
 1967POPC   NC327323  31.909  14.204   9.558
 1967POPC   PO427324  32.529  14.609   9.416
 1967POPC   GL127325  32.374  14.279   9.188
 1967POPC   GL227326  32.083  14.452   9.136
 1967POPC   C1A27327  32.391  14.351   8.757
 1967POPC   D2A27328  32.132  14.412   8.402
 1967POPC   C3A27329  32.335  14.310   8.003
 1967POPC   C4A27330  32.284  14.362   7.560
 1967POPC   C1B27331  31.955  14.081   8.887
 1967POPC   C2B27332  31.952  13.924   8.472
 1967POPC   C3B27333  31.865  14.087   8.089
 1967POPC   C4B27334  31.952  13.991   7.703
 1968POPC   NC327335   1.625   0.439   9.533
 1968POPC   PO427336   1.013   0.316   9.502
 1968POPC   GL127337   1.297   0.413   9.143
 1968POPC   GL227338   1.390   0.761   9.091
 1968POPC   C1A27339   1.371   0.224   8.747
 1968POPC   D2A27340   1.007   0.247   8.516
 1968POPC   C3A27341   0.986   0.470   8.146
 1968POPC   C4A27342   0.791   0.357   7.767
 1968POPC   C1B27343   1.207   0.750   8.650
 1968POPC   C2B27344   1.303   0.893   8.197
 1968POPC   C3B27345   1.339   0.644   7.806
 1968POPC   C4B27346   1.279   0.216   7.753
 1969POPC   NC327347  17.858  43.832   9.560
 1969POPC   PO427348  17.195  43.919   9.492
 1969POPC   GL127349  17.498  43.690   9.189
 1969POPC   GL227350  17.748  43.927   9.068
 1969POPC   C1A27351  17.810  43.460   8.902
 1969POPC   D2A27352  17.805  43.292   8.453
 1969POPC   C3A27353  17.790  43.584   8.113
 1969POPC   C4A27354  17.598  43.688   7.608
 1969POPC   C1B27355  17.892  43.921   8.629
 1969POPC   C2B27356  17.712  44.077   8.243
 1969POPC   C3B27357  17.907  43.994   7.847
 1969POPC   C4B27358  18.092  43.616   7.720
 1970POPC   NC327359  14.288  32.539   9.585
 1970POPC   PO427360  14.725  32.139   9.833
 1970POPC   GL127361  14.429  32.171   9.307
 1970POPC   GL227362  14.444  32.468   9.048
 1970POPC   C1A27363  14.124  32.115   8.930
 1970POPC   D2A27364  14.053  32.037   8.480
 1970POPC   C3A27365  14.147  32.319   8.132
 1970POPC   C4A27366  14.210  32.291   7.690
 1970POPC   C1B27367  14.403  32.421   8.603
 1970POPC   C2B27368  14.661  32.312   8.278
 1970POPC   C3B27369  14.678  32.448   7.875
 1970POPC   C4B27370  14.677  32.413   7.470
 1971POPC   NC327371  17.615  19.323   9.427
 1971POPC   PO427372  17.104  18.994   9.758
 1971POPC   GL127373  17.161  19.161   9.242
 1971POPC   GL227374  17.471  18.989   9.067
 1971POPC   C1A27375  17.144  19.084   8.727
 1971POPC   D2A27376  17.388  18.834   8.388
 1971POPC   C3A27377  17.398  18.989   7.976
 1971POPC   C4A27378  17.210  19.127   7.595
 1971POPC   C1B27379  17.759  18.958   8.733
 1971POPC   C2B27380  17.954  18.975   8.354
 1971POPC   C3B27381  17.928  18.923   7.959
 1971POPC   C4B27382  17.720  19.095   7.582
 1972POPC   NC327383  30.197  12.375   9.429
 1972POPC   PO427384  30.203  11.691   9.540
 1972POPC   GL127385  29.958  11.842   9.170
 1972POPC   GL227386  29.998  12.170   8.990
 1972POPC   C1A27387  29.961  11.733   8.737
 1972POPC   D2A27388  29.850  11.944   8.345
 1972POPC   C3A27389  29.938  11.713   7.957
 1972POPC   C4A27390  29.836  11.818   7.538
 1972POPC   C1B27391  30.019  12.415   8.615
 1972POPC   C2B27392  30.066  12.428   8.189
 1972POPC   C3B27393  29.849  12.221   7.862
 1972POPC   C4B27394  29.772  12.298   7.412
 1973POPC   NC327395  25.427  14.452   9.561
 1973POPC   PO427396  24.764  14.461   9.410
 1973POPC   GL127397  25.057  14.414   9.095
 1973POPC   GL227398  25.370  14.566   9.095
 1973POPC   C1A27399  25.184  14.237   8.725
 1973POPC   D2A27400  25.193  13.958   8.401
 1973POPC   C3A27401  25.211  14.201   8.069
 1973POPC   C4A27402  25.014  14.313   7.677
 1973POPC   C1B27403  25.668  14.343   8.872
 1973POPC   C2B27404  25.640  14.247   8.449
 1973POPC   C3B27405  25.753  14.240   8.046
 1973POPC   C4B27406  25.531  14.287   7.702
 1974POPC   NC327407  44.432  39.411   9.705
 1974POPC   PO427408  44.721  38.886   9.489
 1974POPC   GL127409  44.652  39.240   9.252
 1974POPC   GL227410  44.316  39.193   9.238
 1974POPC   C1A27411  44.722  39.148   8.827
 1974POPC   D2A27412  44.880  39.126   8.437
 1974POPC   C3A27413  44.698  39.369   8.146
 1974POPC   C4A27414  44.614  39.236   7.738
 1974POPC   C1B27415  44.245  39.332   8.837
 1974POPC   C2B27416  44.339  39.147   8.456
 1974POPC   C3B27417  44.215  39.272   8.072
 1974POPC   C4B27418  44.113  39.455   7.696
 1975POPC   NC327419  41.051  13.067   9.859
 1975POPC   PO427420  40.623  12.641   9.653
 1975POPC   GL127421  40.792  12.797   9.245
 1975POPC   GL227422  40.573  13.075   9.251
 1975POPC   C1A27423  40.838  12.954   8.782
 1975POPC   D2A27424  41.004  13.158   8.406
 1975POPC   C3A27425  40.814  12.990   8.018
 1975POPC   C4A27426  41.015  12.852   7.606
 1975POPC   C1B27427  40.412  13.213   8.880
 1975POPC   C2B27428  40.493  13.250   8.483
 1975POPC   C3B27429  40.369  13.304   8.122
 1975POPC   C4B27430  40.315  13.181   7.734
 1976POPC   NC327431  29.464  44.494   9.554
 1976POPC   PO427432  28.938  44.380   9.259
 1976POPC   GL127433  29.089  44.837   9.205
 1976POPC   GL227434  29.427  44.841   9.139
 1976POPC   C1A27435  29.124   0.096   8.804
 1976POPC   D2A27436  29.163  44.815   8.441
 1976POPC   C3A27437  29.210  44.736   7.989
 1976POPC   C4A27438  28.872  44.508   7.781
 1976POPC   C1B27439  29.352  44.491   8.805
 1976POPC   C2B27440  29.415  44.300   8.394
 1976POPC   C3B27441  29.174  44.160   8.040
 1976POPC   C4B27442  29.321  44.346   7.673
 1977POPC   NC327443  25.806  43.346   9.606
 1977POPC   PO427444  26.423  43.012   9.410
 1977POPC   GL127445  26.154  43.086   9.105
 1977POPC   GL227446  25.862  42.950   9.257
 1977POPC   C1A27447  26.091  43.316   8.721
 1977POPC   D2A27448  25.790  43.372   8.395
 1977POPC   C3A27449  26.009  43.273   8.038
 1977POPC   C4A27450  26.390  43.079   7.862
 1977POPC   C1B27451  25.739  42.973   8.811
 1977POPC   C2B27452  25.964  42.890   8.388
 1977POPC   C3B27453  25.973  42.770   7.935
 1977POPC   C4B27454  25.764  42.679   7.576
 1978POPC   NC327455  16.909  43.529   9.481
 1978POPC   PO427456  16.613  42.833   9.682
 1978POPC   GL127457  16.624  43.028   9.261
 1978POPC   GL227458  16.449  43.335   9.172
 1978POPC   C1A27459  16.564  42.906   8.837
 1978POPC   D2A27460  16.319  43.017   8.462
 1978POPC   C3A27461  16.522  42.910   8.066
 1978POPC   C4A27462  16.481  43.005   7.654
 1978POPC   C1B27463  16.783  43.354   8.823
 1978POPC   C2B27464  16.756  43.278   8.346
 1978POPC   C3B27465  16.895  43.234   7.902
 1978POPC   C4B27466  17.227  43.334   7.646
 1979POPC   NC327467  38.242  41.477  10.096
 1979POPC   PO427468  38.654  41.383   9.622
 1979POPC   GL127469  38.574  41.362   9.156
 1979POPC   GL227470  38.263  41.534   9.068
 1979POPC   C1A27471  38.697  41.369   8.695
 1979POPC   D2A27472  38.930  41.322   8.301
 1979POPC   C3A27473  38.837  41.535   7.949
 1979POPC   C4A27474  38.548  41.585   7.646
 1979POPC   C1B27475  38.263  41.662   8.619
 1979POPC   C2B27476  38.410  41.731   8.178
 1979POPC   C3B27477  38.171  41.927   7.842
 1979POPC   C4B27478  37.982  41.810   7.446
 1980POPC   NC327479  18.935  33.930   9.698
 1980POPC   PO427480  19.563  33.678   9.761
 1980POPC   GL127481  19.307  33.827   9.333
 1980POPC   GL227482  18.953  33.880   9.206
 1980POPC   C1A27483  19.277  33.912   8.833
 1980POPC   D2A27484  19.089  34.163   8.489
 1980POPC   C3A27485  19.079  34.018   8.044
 1980POPC   C4A27486  18.888  34.137   7.654
 1980POPC   C1B27487  18.794  33.689   8.799
 1980POPC   C2B27488  18.917  33.627   8.346
 1980POPC   C3B27489  19.000  33.443   7.932
 1980POPC   C4B27490  18.748  33.309   7.575
 1981POPC   NC327491  36.849   0.285   9.596
 1981POPC   PO427492  36.760   0.865   9.361
 1981POPC   GL127493  36.903   0.529   9.089
 1981POPC   GL227494  37.028   0.172   9.140
 1981POPC   C1A27495  36.741   0.500   8.654
 1981POPC   D2A27496  36.785   0.730   8.238
 1981POPC   C3A27497  36.614   0.442   7.950
 1981POPC   C4A27498  36.727   0.350   7.510
 1981POPC   C1B27499  37.181   0.255   8.758
 1981POPC   C2B27500  37.186   0.485   8.410
 1981POPC   C3B27501  37.113   0.397   8.010
 1981POPC   C4B27502  37.168   0.571   7.660
 1982POPC   NC327503   9.916  42.738   9.445
 1982POPC   PO427504   9.478  43.266   9.365
 1982POPC   GL127505   9.749  43.063   9.080
 1982POPC   GL227506   9.538  42.737   9.102
 1982POPC   C1A27507   9.894  43.179   8.653
 1982POPC   D2A27508   9.678  43.480   8.385
 1982POPC   C3A27509   9.592  43.347   7.951
 1982POPC   C4A27510   9.549  42.915   7.766
 1982POPC   C1B27511   9.794  42.687   8.744
 1982POPC   C2B27512   9.731  42.750   8.329
 1982POPC   C3B27513   9.950  43.042   8.120
 1982POPC   C4B27514  10.028  43.126   7.713
 1983POPC   NC327515  34.564   0.149   9.862
 1983POPC   PO427516  34.404  44.655   9.395
 1983POPC   GL127517  34.361  44.404   9.037
 1983POPC   GL227518  34.663  44.543   8.882
 1983POPC   C1A27519  34.326  44.427   8.542
 1983POPC   D2A27520  34.589  44.615   8.216
 1983POPC   C3A27521  34.483  44.456   7.809
 1983POPC   C4A27522  34.108  44.186   7.775
 1983POPC   C1B27523  34.289  44.856   8.797
 1983POPC   C2B27524  34.145  45.000   8.419
 1983POPC   C3B27525  34.358   0.052   8.059
 1983POPC   C4B27526  34.467  44.988   7.696
 1984POPC   NC327527   7.977  17.581   9.509
 1984POPC   PO427528   8.401  17.071   9.733
 1984POPC   GL127529   8.349  17.287   9.261
 1984POPC   GL227530   8.067  17.465   9.045
 1984POPC   C1A27531   8.339  17.195   8.751
 1984POPC   D2A27532   7.999  17.274   8.409
 1984POPC   C3A27533   8.113  17.200   7.955
 1984POPC   C4A27534   8.172  17.410   7.542
 1984POPC   C1B27535   8.016  17.742   8.712
 1984POPC   C2B27536   8.097  17.788   8.287
 1984POPC   C3B27537   7.923  17.704   7.900
 1984POPC   C4B27538   7.860  17.974   7.563
 1985POPC   NC327539   0.979  17.471   9.793
 1985POPC   PO427540   0.376  17.443   9.462
 1985POPC   GL127541   0.147  17.577   9.147
 1985POPC   GL227542  44.995  17.322   8.996
 1985POPC   C1A27543   0.329  17.654   8.739
 1985POPC   D2A27544   0.435  17.538   8.333
 1985POPC   C3A27545   0.206  17.661   8.004
 1985POPC   C4A27546   0.397  17.763   7.625
 1985POPC   C1B27547   0.186  17.151   8.638
 1985POPC   C2B27548   0.601  17.083   8.498
 1985POPC   C3B27549   0.754  17.203   8.099
 1985POPC   C4B27550   0.497  17.285   7.773
 1986POPC   NC327551   4.240  39.210   9.600
 1986POPC   PO427552   4.700  39.738   9.536
 1986POPC   GL127553   4.528  39.380   9.233
 1986POPC   GL227554   4.414  39.633   9.072
 1986POPC   C1A27555   4.284  39.014   8.935
 1986POPC   D2A27556   4.099  38.806   8.527
 1986POPC   C3A27557   4.094  38.923   8.059
 1986POPC   C4A27558   4.308  39.239   7.794
 1986POPC   C1B27559   4.318  39.440   8.684
 1986POPC   C2B27560   4.559  39.423   8.351
 1986POPC   C3B27561   4.648  39.581   7.976
 1986POPC   C4B27562   4.949  39.623   7.690
 1987POPC   NC327563   3.476   9.192   9.614
 1987POPC   PO427564   3.861   8.674   9.632
 1987POPC   GL127565   3.645   8.875   9.271
 1987POPC   GL227566   3.520   8.669   9.068
 1987POPC   C1A27567   3.495   9.126   8.879
 1987POPC   D2A27568   3.369   8.928   8.466
 1987POPC   C3A27569   3.510   9.017   8.025
 1987POPC   C4A27570   3.320   9.106   7.615
 1987POPC   C1B27571   3.687   8.579   8.694
 1987POPC   C2B27572   3.536   8.454   8.295
 1987POPC   C3B27573   3.726   8.514   7.905
 1987POPC   C4B27574   3.715   8.785   7.558
 1988POPC   NC327575  10.432  16.335   9.485
 1988POPC   PO427576  10.710  15.692   9.500
 1988POPC   GL127577  10.531  15.922   9.186
 1988POPC   GL227578  10.187  15.821   9.234
 1988POPC   C1A27579  10.356  16.179   8.850
 1988POPC   D2A27580  10.207  16.342   8.451
 1988POPC   C3A27581  10.512  16.274   8.098
 1988POPC   C4A27582  10.715  16.087   7.713
 1988POPC   C1B27583  10.315  15.648   8.811
 1988POPC   C2B27584  10.420  15.851   8.429
 1988POPC   C3B27585  10.718  15.760   8.123
 1988POPC   C4B27586  10.581  15.580   7.754
 1989POPC   NC327587  32.682  27.596   9.541
 1989POPC   PO427588  32.000  27.561   9.441
 1989POPC   GL127589  32.199  27.779   9.128
 1989POPC   GL227590  32.557  27.705   9.062
 1989POPC   C1A27591  32.022  27.882   8.718
 1989POPC   D2A27592  31.795  27.752   8.343
 1989POPC   C3A27593  31.959  27.893   7.969
 1989POPC   C4A27594  31.964  27.778   7.560
 1989POPC   C1B27595  32.335  27.452   8.746
 1989POPC   C2B27596  32.234  27.483   8.317
 1989POPC   C3B27597  32.393  27.608   7.905
 1989POPC   C4B27598  32.340  27.366   7.549
 1990POPC   NC327599  12.159  42.573   9.462
 1990POPC   PO427600  11.854  41.954   9.499
 1990POPC   GL127601  11.928  42.125   9.097
 1990POPC   GL227602  11.807  42.456   9.102
 1990POPC   C1A27603  11.878  42.201   8.648
 1990POPC   D2A27604  11.725  42.365   8.275
 1990POPC   C3A27605  11.901  42.213   7.894
 1990POPC   C4A27606  12.106  41.854   7.763
 1990POPC   C1B27607  11.703  42.678   8.729
 1990POPC   C2B27608  12.014  42.784   8.416
 1990POPC   C3B27609  12.064  42.684   7.989
 1990POPC   C4B27610  11.934  42.636   7.547
 1991POPC   NC327611  37.229  15.287   9.494
 1991POPC   PO427612  37.841  15.269   9.389
 1991POPC   GL127613  37.719  15.114   9.058
 1991POPC   GL227614  37.426  15.037   9.112
 1991POPC   C1A27615  37.559  15.246   8.669
 1991POPC   D2A27616  37.394  15.269   8.279
 1991POPC   C3A27617  37.711  15.227   7.966
 1991POPC   C4A27618  38.111  15.394   7.858
 1991POPC   C1B27619  37.330  14.799   8.781
 1991POPC   C2B27620  37.604  14.763   8.423
 1991POPC   C3B27621  37.480  14.765   7.986
 1991POPC   C4B27622  37.351  15.038   7.649
 1992POPC   NC327623  28.258  16.153   9.307
 1992POPC   PO427624  28.036  16.612   9.863
 1992POPC   GL127625  28.057  16.621   9.322
 1992POPC   GL227626  28.354  16.750   9.063
 1992POPC   C1A27627  27.925  16.613   8.855
 1992POPC   D2A27628  28.291  16.609   8.512
 1992POPC   C3A27629  28.193  16.615   8.065
 1992POPC   C4A27630  28.230  16.641   7.619
 1992POPC   C1B27631  28.612  17.069   8.823
 1992POPC   C2B27632  28.700  17.165   8.389
 1992POPC   C3B27633  28.712  16.813   8.101
 1992POPC   C4B27634  28.738  16.733   7.673
 1993POPC   NC327635  27.146   0.007   9.534
 1993POPC   PO427636  26.787   0.608   9.438
 1993POPC   GL127637  26.951   0.296   9.158
 1993POPC   GL227638  26.603   0.186   9.133
 1993POPC   C1A27639  27.179   0.244   8.735
 1993POPC   D2A27640  27.267   0.603   8.451
 1993POPC   C3A27641  27.000   0.601   8.070
 1993POPC   C4A27642  27.027   0.703   7.618
 1993POPC   C1B27643  26.704   0.441   8.746
 1993POPC   C2B27644  26.769   0.235   8.374
 1993POPC   C3B27645  26.777   0.129   7.956
 1993POPC   C4B27646  26.663   0.313   7.580
 1994POPC   NC327647  41.711   7.942   9.492
 1994POPC   PO427648  41.443   8.551   9.364
 1994POPC   GL127649  41.440   8.158   9.107
 1994POPC   GL227650  41.760   7.988   8.988
 1994POPC   C1A27651  41.356   8.079   8.677
 1994POPC   D2A27652  41.122   8.365   8.420
 1994POPC   C3A27653  41.342   8.386   8.012
 1994POPC   C4A27654  41.352   8.238   7.587
 1994POPC   C1B27655  41.966   8.370   8.828
 1994POPC   C2B27656  42.122   8.430   8.408
 1994POPC   C3B27657  41.885   8.194   8.109
 1994POPC   C4B27658  41.838   8.336   7.721
 1995POPC   NC327659  29.313   1.808   9.386
 1995POPC   PO427660  29.745   2.330   9.585
 1995POPC   GL127661  29.414   2.350   9.214
 1995POPC   GL227662  29.124   2.125   9.055
 1995POPC   C1A27663  29.313   2.497   8.800
 1995POPC   D2A27664  28.993   2.284   8.570
 1995POPC   C3A27665  29.128   2.084   8.211
 1995POPC   C4A27666  29.126   2.160   7.793
 1995POPC   C1B27667  29.176   1.729   8.791
 1995POPC   C2B27668  29.294   1.408   8.531
 1995POPC   C3B27669  29.334   1.468   8.110
 1995POPC   C4B27670  29.261   1.683   7.747
 1996POPC   NC327671   5.702  22.497   9.737
 1996POPC   PO427672   6.137  22.119   9.621
 1996POPC   GL127673   6.009  22.143   9.158
 1996POPC   GL227674   5.723  22.393   9.185
 1996POPC   C1A27675   6.014  21.986   8.684
 1996POPC   D2A27676   6.021  21.773   8.248
 1996POPC   C3A27677   5.840  22.035   7.919
 1996POPC   C4A27678   5.494  22.344   7.957
 1996POPC   C1B27679   5.871  22.476   8.748
 1996POPC   C2B27680   6.044  22.355   8.337
 1996POPC   C3B27681   5.989  22.539   7.963
 1996POPC   C4B27682   6.220  22.473   7.646
 1997POPC   NC327683  24.888   0.680   9.574
 1997POPC   PO427684  25.453   0.408   9.326
 1997POPC   GL127685  25.105   0.325   9.135
 1997POPC   GL227686  25.093  44.976   9.183
 1997POPC   C1A27687  25.066   0.466   8.728
 1997POPC   D2A27688  24.979   0.789   8.443
 1997POPC   C3A27689  25.134   0.627   8.059
 1997POPC   C4A27690  25.207   0.800   7.643
 1997POPC   C1B27691  25.363   0.030   8.807
 1997POPC   C2B27692  25.534   0.315   8.497
 1997POPC   C3B27693  25.631   0.277   8.059
 1997POPC   C4B27694  25.327   0.274   7.739
 1998POPC   NC327695  19.690  42.130   9.520
 1998POPC   PO427696  19.616  42.819   9.459
 1998POPC   GL127697  19.797  42.500   9.169
 1998POPC   GL227698  19.558  42.279   9.063
 1998POPC   C1A27699  20.035  42.250   8.848
 1998POPC   D2A27700  20.188  42.372   8.453
 1998POPC   C3A27701  19.892  42.466   8.128
 1998POPC   C4A27702  20.080  42.192   7.842
 1998POPC   C1B27703  19.595  42.396   8.650
 1998POPC   C2B27704  19.757  42.063   8.393
 1998POPC   C3B27705  19.612  42.019   7.965
 1998POPC   C4B27706  19.553  42.029   7.526
 1999POPC   NC327707  16.280  33.939   9.453
 1999POPC   PO427708  16.870  33.624   9.470
 1999POPC   GL127709  16.667  33.743   9.124
 1999POPC   GL227710  16.369  33.564   9.108
 1999POPC   C1A27711  16.820  33.843   8.727
 1999POPC   D2A27712  16.926  34.109   8.389
 1999POPC   C3A27713  16.899  33.914   7.977
 1999POPC   C4A27714  16.931  33.550   7.673
 1999POPC   C1B27715  16.403  33.528   8.689
 1999POPC   C2B27716  16.561  33.640   8.268
 1999POPC   C3B27717  16.483  33.671   7.829
 1999POPC   C4B27718  16.444  33.405   7.476
 2000POPC   NC327719  34.204  29.830   9.317
 2000POPC   PO427720  34.699  30.095   9.696
 2000POPC   GL127721  34.745  29.776   9.269
 2000POPC   GL227722  34.961  29.992   9.084
 2000POPC   C1A27723  34.612  29.702   8.794
 2000POPC   D2A27724  34.719  29.710   8.353
 2000POPC   C3A27725  34.452  29.826   8.020
 2000POPC   C4A27726  34.295  29.882   7.606
 2000POPC   C1B27727  34.873  30.132   8.624
 2000POPC   C2B27728  34.803  30.209   8.165
 2000POPC   C3B27729  34.738  30.139   7.720
 2000POPC   C4B27730  35.015  30.097   7.372
 2001POPC   NC327731  32.757  44.659   9.670
 2001POPC   PO427732  33.454  44.570   9.668
 2001POPC   GL127733  33.149  44.587   9.299
 2001POPC   GL227734  32.821  44.770   9.186
 2001POPC   C1A27735  33.110  44.471   8.869
 2001POPC   D2A27736  33.360  44.358   8.502
 2001POPC   C3A27737  33.206  44.458   8.100
 2001POPC   C4A27738  32.856  44.394   7.805
 2001POPC   C1B27739  32.989  44.965   8.814
 2001POPC   C2B27740  32.852  44.927   8.403
 2001POPC   C3B27741  32.908  44.877   7.975
 2001POPC   C4B27742  33.230  44.823   7.731
 2002POPC   NC327743  12.312  10.002   9.543
 2002POPC   PO427744  12.886  10.330   9.584
 2002POPC   GL127745  12.895  10.408   9.176
 2002POPC   GL227746  12.545  10.253   9.156
 2002POPC   C1A27747  13.008  10.664   8.844
 2002POPC   D2A27748  12.850  10.654   8.437
 2002POPC   C3A27749  13.166  10.705   8.124
 2002POPC   C4A27750  13.136  10.697   7.706
 2002POPC   C1B27751  12.505  10.573   8.843
 2002POPC   C2B27752  12.286  10.649   8.481
 2002POPC   C3B27753  12.451  10.614   8.071
 2002POPC   C4B27754  12.272  10.572   7.681
 2003POPC   NC327755  29.478   4.397   9.461
 2003POPC   PO427756  30.132   4.057   9.476
 2003POPC   GL127757  29.835   4.167   9.152
 2003POPC   GL227758  29.771   4.523   9.056
 2003POPC   C1A27759  29.845   4.023   8.732
 2003POPC   D2A27760  29.997   4.184   8.348
 2003POPC   C3A27761  29.842   4.473   8.075
 2003POPC   C4A27762  29.913   4.238   7.717
 2003POPC   C1B27763  30.148   4.453   8.784
 2003POPC   C2B27764  30.235   4.626   8.363
 2003POPC   C3B27765  30.365   4.397   7.967
 2003POPC   C4B27766  30.337   4.422   7.472
 2004POPC   NC327767  44.032  37.979   9.799
 2004POPC   PO427768  43.565  37.530   9.628
 2004POPC   GL127769  43.829  37.664   9.275
 2004POPC   GL227770  43.560  37.941   9.207
 2004POPC   C1A27771  44.053  37.546   8.840
 2004POPC   D2A27772  44.160  37.738   8.409
 2004POPC   C3A27773  43.976  37.527   8.046
 2004POPC   C4A27774  43.946  37.654   7.599
 2004POPC   C1B27775  43.511  37.632   8.863
 2004POPC   C2B27776  43.641  37.636   8.436
 2004POPC   C3B27777  43.458  37.594   8.030
 2004POPC   C4B27778  43.445  37.713   7.590
 2005POPC   NC327779  21.026  12.242   9.589
 2005POPC   PO427780  21.723  12.305   9.554
 2005POPC   GL127781  21.490  12.151   9.190
 2005POPC   GL227782  21.223  12.404   9.136
 2005POPC   C1A27783  21.615  11.906   8.799
 2005POPC   D2A27784  21.734  11.958   8.353
 2005POPC   C3A27785  21.605  11.775   7.929
 2005POPC   C4A27786  21.701  11.735   7.462
 2005POPC   C1B27787  21.244  12.254   8.709
 2005POPC   C2B27788  21.270  12.134   8.276
 2005POPC   C3B27789  21.344  12.268   7.851
 2005POPC   C4B27790  21.058  12.323   7.515
 2006POPC   NC327791  13.997  43.877   9.372
 2006POPC   PO427792  13.563  43.425   9.729
 2006POPC   GL127793  13.559  43.619   9.284
 2006POPC   GL227794  13.547  43.952   9.151
 2006POPC   C1A27795  13.660  43.507   8.846
 2006POPC   D2A27796  13.832  43.608   8.449
 2006POPC   C3A27797  13.678  43.667   8.058
 2006POPC   C4A27798  13.796  43.436   7.694
 2006POPC   C1B27799  13.766  43.997   8.754
 2006POPC   C2B27800  13.720  44.144   8.315
 2006POPC   C3B27801  13.714  44.147   7.855
 2006POPC   C4B27802  13.549  43.854   7.592
 2007POPC   NC327803  18.766  38.299   9.396
 2007POPC   PO427804  19.416  38.113   9.363
 2007POPC   GL127805  19.282  38.385   9.006
 2007POPC   GL227806  19.457  38.707   8.934
 2007POPC   C1A27807  18.976  38.547   8.690
 2007POPC   D2A27808  18.764  38.693   8.299
 2007POPC   C3A27809  18.763  38.442   7.939
 2007POPC   C4A27810  18.894  38.529   7.508
 2007POPC   C1B27811  19.478  38.506   8.549
 2007POPC   C2B27812  19.194  38.407   8.227
 2007POPC   C3B27813  19.213  38.207   7.826
 2007POPC   C4B27814  19.470  38.276   7.456
 2008POPC   NC327815  14.924  40.863   9.377
 2008POPC   PO427816  15.466  40.478   9.584
 2008POPC   GL127817  15.448  40.562   9.128
 2008POPC   GL227818  15.081  40.604   8.993
 2008POPC   C1A27819  15.439  40.694   8.672
 2008POPC   D2A27820  15.116  40.629   8.380
 2008POPC   C3A27821  15.242  40.719   7.978
 2008POPC   C4A27822  15.115  40.600   7.556
 2008POPC   C1B27823  14.939  40.967   8.706
 2008POPC   C2B27824  14.828  41.206   8.331
 2008POPC   C3B27825  14.789  40.932   7.947
 2008POPC   C4B27826  14.878  41.039   7.527
 2009POPC   NC327827   5.398  21.251   9.152
 2009POPC   PO427828   5.584  21.861   9.341
 2009POPC   GL127829   5.181  21.717   9.086
 2009POPC   GL227830   4.928  21.413   9.102
 2009POPC   C1A27831   4.962  21.646   8.664
 2009POPC   D2A27832   5.206  21.636   8.294
 2009POPC   C3A27833   5.205  21.324   7.982
 2009POPC   C4A27834   5.214  21.508   7.575
 2009POPC   C1B27835   4.844  21.115   8.804
 2009POPC   C2B27836   4.952  21.184   8.401
 2009POPC   C3B27837   4.701  21.249   8.041
 2009POPC   C4B27838   4.838  21.172   7.662
 2010POPC   NC327839   5.771   0.656   9.514
 2010POPC   PO427840   5.380   0.059   9.466
 2010POPC   GL127841   5.621   0.343   9.150
 2010POPC   GL227842   5.964   0.305   9.184
 2010POPC   C1A27843   5.836   0.633   8.818
 2010POPC   D2A27844   5.877   0.848   8.405
 2010POPC   C3A27845   6.014   0.687   8.009
 2010POPC   C4A27846   5.801   0.368   7.843
 2010POPC   C1B27847   6.064   0.153   8.815
 2010POPC   C2B27848   6.050   0.340   8.406
 2010POPC   C3B27849   6.202   0.143   8.050
 2010POPC   C4B27850   6.071  44.985   7.641
 2011POPC   NC327851  25.881   8.859   9.643
 2011POPC   PO427852  26.499   9.180   9.587
 2011POPC   GL127853  26.200   8.877   9.244
 2011POPC   GL227854  25.871   9.074   9.179
 2011POPC   C1A27855  25.977   8.694   8.829
 2011POPC   D2A27856  25.982   8.678   8.367
 2011POPC   C3A27857  26.216   8.993   8.154
 2011POPC   C4A27858  26.264   9.116   7.731
 2011POPC   C1B27859  26.015   9.191   8.748
 2011POPC   C2B27860  25.860   9.289   8.330
 2011POPC   C3B27861  25.783   9.074   7.898
 2011POPC   C4B27862  25.615   9.243   7.477
 2012POPC   NC327863  11.978  38.496   9.478
 2012POPC   PO427864  12.439  38.072   9.483
 2012POPC   GL127865  12.292  38.313   9.117
 2012POPC   GL227866  12.263  38.716   9.119
 2012POPC   C1A27867  12.306  38.187   8.703
 2012POPC   D2A27868  12.026  38.186   8.391
 2012POPC   C3A27869  12.026  38.544   8.155
 2012POPC   C4A27870  12.191  38.476   7.766
 2012POPC   C1B27871  12.012  38.626   8.746
 2012POPC   C2B27872  11.608  38.626   8.525
 2012POPC   C3B27873  11.521  38.813   8.136
 2012POPC   C4B27874  11.780  38.801   7.759
 2013POPC   NC327875   0.203  30.026   9.439
 2013POPC   PO427876   0.752  29.667   9.478
 2013POPC   GL127877   0.591  29.855   9.146
 2013POPC   GL227878   0.706  30.189   9.201
 2013POPC   C1A27879   0.420  29.941   8.758
 2013POPC   D2A27880   0.633  29.860   8.401
 2013POPC   C3A27881   0.394  29.968   8.069
 2013POPC   C4A27882   0.484  29.755   7.747
 2013POPC   C1B27883   0.753  30.334   8.761
 2013POPC   C2B27884   0.616  30.370   8.316
 2013POPC   C3B27885   0.538  30.424   7.884
 2013POPC   C4B27886   0.206  30.268   7.649
 2014POPC   NC327887   1.891  11.686   9.725
 2014POPC   PO427888   1.686  12.178   9.422
 2014POPC   GL127889   2.027  12.051   9.144
 2014POPC   GL227890   2.357  11.951   9.151
 2014POPC   C1A27891   2.057  12.145   8.724
 2014POPC   D2A27892   1.982  12.306   8.360
 2014POPC   C3A27893   1.990  12.027   8.052
 2014POPC   C4A27894   2.168  12.174   7.701
 2014POPC   C1B27895   2.390  11.764   8.739
 2014POPC   C2B27896   2.290  11.681   8.296
 2014POPC   C3B27897   2.312  11.687   7.831
 2014POPC   C4B27898   2.305  11.544   7.391
 2015POPC   NC327899   2.615  19.163   9.389
 2015POPC   PO427900   3.055  18.543   9.460
 2015POPC   GL127901   3.094  18.870   9.061
 2015POPC   GL227902   2.824  19.113   8.935
 2015POPC   C1A27903   3.047  18.847   8.567
 2015POPC   D2A27904   2.900  19.192   8.278
 2015POPC   C3A27905   2.847  19.191   7.833
 2015POPC   C4A27906   2.881  18.782   7.648
 2015POPC   C1B27907   2.461  18.830   8.826
 2015POPC   C2B27908   2.407  18.614   8.446
 2015POPC   C3B27909   2.551  18.809   8.071
 2015POPC   C4B27910   2.324  18.890   7.704
 2016POPC   NC327911   2.704  19.953   9.642
 2016POPC   PO427912   3.140  19.416   9.487
 2016POPC   GL127913   2.820  19.581   9.172
 2016POPC   GL227914   2.789  19.924   9.079
 2016POPC   C1A27915   2.880  19.592   8.703
 2016POPC   D2A27916   3.066  19.683   8.300
 2016POPC   C3A27917   2.756  19.731   7.975
 2016POPC   C4A27918   2.385  19.789   7.731
 2016POPC   C1B27919   2.647  20.076   8.670
 2016POPC   C2B27920   2.781  20.157   8.272
 2016POPC   C3B27921   2.582  20.272   7.899
 2016POPC   C4B27922   2.679  20.168   7.483
 2017POPC   NC327923  14.946  28.737   9.638
 2017POPC   PO427924  15.578  28.992   9.515
 2017POPC   GL127925  15.285  29.065   9.171
 2017POPC   GL227926  14.939  28.918   9.171
 2017POPC   C1A27927  15.201  29.282   8.765
 2017POPC   D2A27928  15.296  29.163   8.339
 2017POPC   C3A27929  15.349  29.347   7.937
 2017POPC   C4A27930  15.268  29.093   7.593
 2017POPC   C1B27931  14.764  28.968   8.774
 2017POPC   C2B27932  14.786  29.211   8.410
 2017POPC   C3B27933  14.870  29.106   8.011
 2017POPC   C4B27934  14.802  29.399   7.733
 2018POPC   NC327935  35.605  35.552   9.640
 2018POPC   PO427936  35.081  35.201   9.503
 2018POPC   GL127937  35.445  35.260   9.226
 2018POPC   GL227938  35.315  35.578   9.212
 2018POPC   C1A27939  35.624  35.263   8.818
 2018POPC   D2A27940  35.397  35.355   8.443
 2018POPC   C3A27941  35.517  35.298   8.076
 2018POPC   C4A27942  35.325  35.393   7.741
 2018POPC   C1B27943  35.106  35.437   8.852
 2018POPC   C2B27944  35.035  35.743   8.528
 2018POPC   C3B27945  35.095  35.650   8.114
 2018POPC   C4B27946  35.024  35.811   7.691
 2019POPC   NC327947   5.586  10.787   9.484
 2019POPC   PO427948   5.905  10.236   9.486
 2019POPC   GL127949   5.970  10.470   9.170
 2019POPC   GL227950   5.606  10.459   9.083
 2019POPC   C1A27951   5.944  10.778   8.859
 2019POPC   D2A27952   5.706  10.800   8.479
 2019POPC   C3A27953   5.940  10.641   8.123
 2019POPC   C4A27954   5.972  10.539   7.686
 2019POPC   C1B27955   5.467  10.226   8.723
 2019POPC   C2B27956   5.564  10.328   8.298
 2019POPC   C3B27957   5.498  10.492   7.858
 2019POPC   C4B27958   5.541  10.556   7.391
 2020POPC   NC327959  16.234   6.065   9.625
 2020POPC   PO427960  15.567   5.770   9.529
 2020POPC   GL127961  15.900   5.894   9.238
 2020POPC   GL227962  16.261   5.781   9.215
 2020POPC   C1A27963  15.903   6.016   8.805
 2020POPC   D2A27964  15.988   6.119   8.377
 2020POPC   C3A27965  15.664   6.036   8.076
 2020POPC   C4A27966  15.790   5.879   7.699
 2020POPC   C1B27967  16.340   5.501   8.874
 2020POPC   C2B27968  16.106   5.582   8.500
 2020POPC   C3B27969  16.178   5.727   8.083
 2020POPC   C4B27970  16.472   5.628   7.702
 2021POPC   NC327971  14.783  26.300   9.444
 2021POPC   PO427972  15.281  25.811   9.479
 2021POPC   GL127973  15.444  26.144   9.221
 2021POPC   GL227974  15.142  26.247   9.078
 2021POPC   C1A27975  15.624  26.186   8.805
 2021POPC   D2A27976  15.711  25.842   8.497
 2021POPC   C3A27977  15.467  25.846   8.074
 2021POPC   C4A27978  15.465  26.155   7.736
 2021POPC   C1B27979  15.205  25.868   8.808
 2021POPC   C2B27980  15.058  25.853   8.406
 2021POPC   C3B27981  15.081  26.157   8.072
 2021POPC   C4B27982  15.034  25.903   7.690
 2022POPC   NC327983  21.522  16.504   9.423
 2022POPC   PO427984  20.952  16.929   9.623
 2022POPC   GL127985  21.026  16.832   9.197
 2022POPC   GL227986  21.379  16.925   9.115
 2022POPC   C1A27987  21.018  16.945   8.761
 2022POPC   D2A27988  20.967  16.699   8.409
 2022POPC   C3A27989  21.084  16.792   8.005
 2022POPC   C4A27990  21.388  16.915   7.778
 2022POPC   C1B27991  21.410  16.613   8.751
 2022POPC   C2B27992  21.483  16.650   8.319
 2022POPC   C3B27993  21.427  16.418   7.981
 2022POPC   C4B27994  21.612  16.455   7.614
 2023POPC   NC327995  35.723  13.031   9.390
 2023POPC   PO427996  35.219  12.610   9.405
 2023POPC   GL127997  35.339  12.910   9.080
 2023POPC   GL227998  35.270  13.235   9.227
 2023POPC   C1A27999  35.487  12.932   8.659
 2023POPC   D2A28000  35.742  12.860   8.343
 2023POPC   C3A28001  35.550  12.826   7.981
 2023POPC   C4A28002  35.808  12.843   7.619
 2023POPC   C1B28003  35.452  13.408   8.841
 2023POPC   C2B28004  35.246  13.342   8.422
 2023POPC   C3B28005  35.297  13.297   8.009
 2023POPC   C4B28006  35.448  13.185   7.634
 2024POPC   NC328007  17.032  42.635   9.551
 2024POPC   PO428008  17.748  42.491   9.498
 2024POPC   GL128009  17.536  42.219   9.143
 2024POPC   GL228010  17.168  42.186   9.137
 2024POPC   C1A28011  17.471  42.062   8.709
 2024POPC   D2A28012  17.655  42.286   8.378
 2024POPC   C3A28013  17.579  42.358   7.961
 2024POPC   C4A28014  17.550  42.130   7.605
 2024POPC   C1B28015  17.274  42.535   8.847
 2024POPC   C2B28016  17.173  42.439   8.444
 2024POPC   C3B28017  17.097  42.118   8.206
 2024POPC   C4B28018  17.070  42.147   7.768
 2025POPC   NC328019  14.039  27.868   9.186
 2025POPC   PO428020  13.706  27.532   9.634
 2025POPC   GL128021  13.647  27.472   9.191
 2025POPC   GL228022  13.993  27.340   9.147
 2025POPC   C1A28023  13.466  27.664   8.792
 2025POPC   D2A28024  13.531  27.997   8.438
 2025POPC   C3A28025  13.509  27.847   7.997
 2025POPC   C4A28026  13.363  27.484   7.773
 2025POPC   C1B28027  13.921  27.440   8.700
 2025POPC   C2B28028  13.623  27.444   8.341
 2025POPC   C3B28029  13.820  27.387   7.956
 2025POPC   C4B28030  13.815  27.340   7.510
 2026POPC   NC328031   3.872  42.868   9.894
 2026POPC   PO428032   3.518  43.217   9.471
 2026POPC   GL128033   3.366  43.226   9.093
 2026POPC   GL228034   3.551  42.946   9.028
 2026POPC   C1A28035   3.230  43.166   8.691
 2026POPC   D2A28036   3.288  43.404   8.340
 2026POPC   C3A28037   3.327  43.161   7.987
 2026POPC   C4A28038   3.380  43.392   7.639
 2026POPC   C1B28039   3.767  43.266   8.827
 2026POPC   C2B28040   3.799  43.137   8.429
 2026POPC   C3B28041   4.053  43.097   8.114
 2026POPC   C4B28042   3.807  43.120   7.753
 2027POPC   NC328043  10.916  31.330   9.523
 2027POPC   PO428044  11.464  31.712   9.415
 2027POPC   GL128045  11.368  31.406   9.117
 2027POPC   GL228046  11.067  31.162   9.053
 2027POPC   C1A28047  11.299  31.536   8.714
 2027POPC   D2A28048  11.275  31.195   8.458
 2027POPC   C3A28049  11.435  31.304   8.118
 2027POPC   C4A28050  11.423  31.667   7.883
 2027POPC   C1B28051  10.842  31.329   8.694
 2027POPC   C2B28052  10.936  31.552   8.303
 2027POPC   C3B28053  10.992  31.381   7.883
 2027POPC   C4B28054  10.898  31.267   7.462
 2028POPC   NC328055  39.769   3.604   9.529
 2028POPC   PO428056  40.303   3.104   9.469
 2028POPC   GL128057  40.154   3.467   9.198
 2028POPC   GL228058  39.799   3.370   9.095
 2028POPC   C1A28059  40.085   3.588   8.751
 2028POPC   D2A28060  40.023   3.259   8.432
 2028POPC   C3A28061  40.151   3.393   7.999
 2028POPC   C4A28062  40.231   3.787   7.762
 2028POPC   C1B28063  39.588   3.467   8.711
 2028POPC   C2B28064  39.579   3.513   8.277
 2028POPC   C3B28065  39.733   3.719   7.915
 2028POPC   C4B28066  39.797   3.796   7.491
 2029POPC   NC328067  32.661   7.318   9.355
 2029POPC   PO428068  31.915   7.055   9.477
 2029POPC   GL128069  31.995   7.353   9.115
 2029POPC   GL228070  32.023   7.720   9.184
 2029POPC   C1A28071  31.892   7.426   8.676
 2029POPC   D2A28072  32.130   7.131   8.407
 2029POPC   C3A28073  32.196   7.274   8.000
 2029POPC   C4A28074  31.903   7.570   7.855
 2029POPC   C1B28075  32.325   7.676   8.815
 2029POPC   C2B28076  32.366   7.602   8.363
 2029POPC   C3B28077  32.397   7.761   7.920
 2029POPC   C4B28078  32.300   7.635   7.505
 2030POPC   NC328079   9.272  13.704   9.249
 2030POPC   PO428080   9.832  13.761   9.616
 2030POPC   GL128081   9.918  13.895   9.186
 2030POPC   GL228082  10.273  13.920   9.128
 2030POPC   C1A28083   9.913  13.654   8.798
 2030POPC   D2A28084   9.921  13.383   8.414
 2030POPC   C3A28085   9.590  13.407   8.086
 2030POPC   C4A28086   9.504  13.750   7.803
 2030POPC   C1B28087  10.298  13.999   8.720
 2030POPC   C2B28088  10.240  13.804   8.353
 2030POPC   C3B28089   9.980  13.776   7.995
 2030POPC   C4B28090   9.957  13.872   7.570
 2031POPC   NC328091  43.736  18.748   9.538
 2031POPC   PO428092  44.070  18.085   9.622
 2031POPC   GL128093  43.768  18.189   9.280
 2031POPC   GL228094  43.843  18.492   9.119
 2031POPC   C1A28095  43.658  18.113   8.824
 2031POPC   D2A28096  43.834  18.027   8.391
 2031POPC   C3A28097  43.774  18.329   8.031
 2031POPC   C4A28098  43.779  18.274   7.567
 2031POPC   C1B28099  44.177  18.584   8.846
 2031POPC   C2B28100  44.070  18.528   8.430
 2031POPC   C3B28101  44.294  18.630   8.080
 2031POPC   C4B28102  44.192  18.537   7.703
 2032POPC   NC328103   9.513  40.103   9.391
 2032POPC   PO428104  10.110  39.807   9.397
 2032POPC   GL128105   9.929  40.069   9.057
 2032POPC   GL228106   9.577  40.128   8.898
 2032POPC   C1A28107   9.985  40.067   8.618
 2032POPC   D2A28108  10.174  40.092   8.226
 2032POPC   C3A28109   9.933  40.126   7.853
 2032POPC   C4A28110  10.180  39.956   7.509
 2032POPC   C1B28111   9.632  39.705   8.765
 2032POPC   C2B28112   9.503  39.499   8.403
 2032POPC   C3B28113   9.596  39.669   7.994
 2032POPC   C4B28114   9.511  39.844   7.572
 2033POPC   NC328115   3.959  38.368   9.625
 2033POPC   PO428116   3.269  38.386   9.569
 2033POPC   GL128117   3.583  38.473   9.270
 2033POPC   GL228118   3.743  38.157   9.179
 2033POPC   C1A28119   3.529  38.700   8.897
 2033POPC   D2A28120   3.353  38.605   8.505
 2033POPC   C3A28121   3.652  38.659   8.177
 2033POPC   C4A28122   3.597  38.674   7.743
 2033POPC   C1B28123   3.432  38.180   8.834
 2033POPC   C2B28124   3.416  38.124   8.396
 2033POPC   C3B28125   3.320  38.301   8.011
 2033POPC   C4B28126   3.369  38.244   7.574
 2034POPC   NC328127  40.257   5.389   9.513
 2034POPC   PO428128  39.899   4.983   9.276
 2034POPC   GL128129  40.235   5.079   9.092
 2034POPC   GL228130  40.451   4.785   9.190
 2034POPC   C1A28131  40.173   5.298   8.729
 2034POPC   D2A28132  39.975   5.477   8.354
 2034POPC   C3A28133  40.124   5.224   7.999
 2034POPC   C4A28134  40.077   5.467   7.632
 2034POPC   C1B28135  40.250   4.687   8.773
 2034POPC   C2B28136  40.290   4.915   8.407
 2034POPC   C3B28137  40.399   4.753   8.044
 2034POPC   C4B28138  40.242   4.699   7.624
 2035POPC   NC328139   8.358  11.454   9.822
 2035POPC   PO428140   7.773  11.127   9.672
 2035POPC   GL128141   7.978  11.181   9.234
 2035POPC   GL228142   8.076  11.534   9.134
 2035POPC   C1A28143   8.412  11.193   8.976
 2035POPC   D2A28144   8.557  11.199   8.531
 2035POPC   C3A28145   8.248  11.117   8.200
 2035POPC   C4A28146   8.329  10.944   7.780
 2035POPC   C1B28147   7.858  11.441   8.783
 2035POPC   C2B28148   7.959  11.668   8.441
 2035POPC   C3B28149   8.275  11.656   8.147
 2035POPC   C4B28150   8.226  11.431   7.784
 2036POPC   NC328151  22.311  24.758  10.018
 2036POPC   PO428152  22.054  25.289   9.593
 2036POPC   GL128153  22.128  25.256   9.127
 2036POPC   GL228154  22.370  25.009   9.099
 2036POPC   C1A28155  22.308  25.291   8.667
 2036POPC   D2A28156  22.385  25.512   8.251
 2036POPC   C3A28157  22.220  25.434   7.799
 2036POPC   C4A28158  22.301  25.281   7.344
 2036POPC   C1B28159  22.326  24.771   8.764
 2036POPC   C2B28160  22.121  24.870   8.408
 2036POPC   C3B28161  22.328  25.005   8.069
 2036POPC   C4B28162  22.216  24.901   7.655
 2037POPC   NC328163  23.175  38.680   9.549
 2037POPC   PO428164  22.695  38.331   9.637
 2037POPC   GL128165  22.795  38.510   9.244
 2037POPC   GL228166  23.110  38.403   9.147
 2037POPC   C1A28167  22.655  38.612   8.860
 2037POPC   D2A28168  22.813  38.800   8.470
 2037POPC   C3A28169  22.875  38.469   8.153
 2037POPC   C4A28170  22.806  38.461   7.704
 2037POPC   C1B28171  23.200  38.652   8.806
 2037POPC   C2B28172  23.326  38.434   8.455
 2037POPC   C3B28173  23.415  38.300   8.077
 2037POPC   C4B28174  23.308  38.486   7.740
 2038POPC   NC328175   6.332  10.044   9.513
 2038POPC   PO428176   6.870   9.612   9.443
 2038POPC   GL128177   6.585   9.738   9.065
 2038POPC   GL228178   6.363  10.095   9.027
 2038POPC   C1A28179   6.798   9.627   8.639
 2038POPC   D2A28180   7.012   9.657   8.224
 2038POPC   C3A28181   6.773   9.637   7.872
 2038POPC   C4A28182   6.376   9.407   7.899
 2038POPC   C1B28183   6.487  10.029   8.630
 2038POPC   C2B28184   6.452   9.774   8.269
 2038POPC   C3B28185   6.345   9.923   7.861
 2038POPC   C4B28186   6.338  10.202   7.554
 2039POPC   NC328187  26.389  36.512   9.841
 2039POPC   PO428188  26.041  36.030   9.472
 2039POPC   GL128189  26.156  36.050   9.106
 2039POPC   GL228190  25.832  36.040   8.982
 2039POPC   C1A28191  26.363  36.038   8.737
 2039POPC   D2A28192  26.514  35.986   8.329
 2039POPC   C3A28193  26.210  36.072   8.027
 2039POPC   C4A28194  26.265  36.100   7.606
 2039POPC   C1B28195  25.630  36.168   8.629
 2039POPC   C2B28196  25.740  36.207   8.214
 2039POPC   C3B28197  25.778  36.314   7.795
 2039POPC   C4B28198  25.790  36.045   7.426
 2040POPC   NC328199   4.593  36.679   9.481
 2040POPC   PO428200   4.059  37.062   9.643
 2040POPC   GL128201   4.240  36.962   9.217
 2040POPC   GL228202   4.583  37.046   9.090
 2040POPC   C1A28203   4.197  37.022   8.764
 2040POPC   D2A28204   4.216  36.784   8.398
 2040POPC   C3A28205   4.099  37.003   8.038
 2040POPC   C4A28206   4.093  37.150   7.627
 2040POPC   C1B28207   4.527  36.634   8.819
 2040POPC   C2B28208   4.581  36.417   8.411
 2040POPC   C3B28209   4.457  36.552   8.017
 2040POPC   C4B28210   4.545  36.895   7.739
 2041POPC   NC328211  33.264  24.991   9.542
 2041POPC   PO428212  32.648  25.254   9.482
 2041POPC   GL128213  32.904  25.120   9.174
 2041POPC   GL228214  33.137  25.414   9.244
 2041POPC   C1A28215  33.095  24.930   8.799
 2041POPC   D2A28216  33.224  24.878   8.334
 2041POPC   C3A28217  32.926  25.130   8.066
 2041POPC   C4A28218  32.694  25.099   7.706
 2041POPC   C1B28219  33.332  25.395   8.850
 2041POPC   C2B28220  33.175  25.369   8.444
 2041POPC   C3B28221  33.126  25.605   8.043
 2041POPC   C4B28222  33.155  25.378   7.633
 2042POPC   NC328223  30.165  22.508   9.411
 2042POPC   PO428224  30.198  21.846   9.433
 2042POPC   GL128225  30.015  22.086   9.120
 2042POPC   GL228226  29.687  22.033   9.113
 2042POPC   C1A28227  30.115  22.179   8.713
 2042POPC   D2A28228  30.326  22.167   8.335
 2042POPC   C3A28229  30.093  22.244   7.970
 2042POPC   C4A28230  30.118  22.073   7.550
 2042POPC   C1B28231  29.608  22.228   8.734
 2042POPC   C2B28232  29.773  22.039   8.351
 2042POPC   C3B28233  29.600  22.077   7.960
 2042POPC   C4B28234  29.610  21.846   7.639
 2043POPC   NC328235  20.887  39.153   9.563
 2043POPC   PO428236  20.327  38.888   9.296
 2043POPC   GL128237  20.617  39.197   9.118
 2043POPC   GL228238  20.953  39.104   9.046
 2043POPC   C1A28239  20.601  39.454   8.770
 2043POPC   D2A28240  20.584  39.672   8.386
 2043POPC   C3A28241  20.743  39.478   8.028
 2043POPC   C4A28242  20.543  39.312   7.684
 2043POPC   C1B28243  21.078  38.828   8.714
 2043POPC   C2B28244  20.892  38.735   8.319
 2043POPC   C3B28245  20.655  38.916   7.986
 2043POPC   C4B28246  20.652  38.850   7.529
 2044POPC   NC328247   6.646  28.001   9.821
 2044POPC   PO428248   6.517  27.418   9.522
 2044POPC   GL128249   6.707  27.615   9.210
 2044POPC   GL228250   6.670  27.947   9.171
 2044POPC   C1A28251   6.613  27.579   8.784
 2044POPC   D2A28252   6.731  27.323   8.426
 2044POPC   C3A28253   6.643  27.440   7.975
 2044POPC   C4A28254   6.749  27.690   7.575
 2044POPC   C1B28255   6.407  28.077   8.795
 2044POPC   C2B28256   6.230  28.009   8.329
 2044POPC   C3B28257   6.359  27.863   7.887
 2044POPC   C4B28258   6.365  27.967   7.400
 2045POPC   NC328259  19.670   9.082   9.482
 2045POPC   PO428260  19.963   8.399   9.502
 2045POPC   GL128261  19.781   8.661   9.179
 2045POPC   GL228262  20.003   8.956   9.108
 2045POPC   C1A28263  19.588   8.879   8.820
 2045POPC   D2A28264  19.785   8.866   8.435
 2045POPC   C3A28265  19.534   8.984   8.127
 2045POPC   C4A28266  19.633   8.957   7.740
 2045POPC   C1B28267  19.990   9.236   8.729
 2045POPC   C2B28268  20.185   9.231   8.303
 2045POPC   C3B28269  20.100   9.221   7.842
 2045POPC   C4B28270  20.227   9.328   7.418
 2046POPC   NC328271  41.529  17.969   9.526
 2046POPC   PO428272  41.576  18.650   9.487
 2046POPC   GL128273  41.710  18.368   9.159
 2046POPC   GL228274  41.404  18.271   9.121
 2046POPC   C1A28275  41.699  18.457   8.719
 2046POPC   D2A28276  41.987  18.565   8.385
 2046POPC   C3A28277  41.779  18.456   8.020
 2046POPC   C4A28278  41.908  18.305   7.655
 2046POPC   C1B28279  41.299  18.123   8.709
 2046POPC   C2B28280  41.363  18.369   8.349
 2046POPC   C3B28281  41.239  18.202   8.009
 2046POPC   C4B28282  41.435  18.119   7.651
 2047POPC   NC328283  29.026  13.299   9.444
 2047POPC   PO428284  29.148  12.648   9.614
 2047POPC   GL128285  29.188  12.621   9.175
 2047POPC   GL228286  29.282  12.988   9.100
 2047POPC   C1A28287  29.091  12.672   8.750
 2047POPC   D2A28288  29.274  12.989   8.499
 2047POPC   C3A28289  29.218  12.895   8.074
 2047POPC   C4A28290  29.172  12.494   7.888
 2047POPC   C1B28291  28.889  13.127   8.833
 2047POPC   C2B28292  28.793  13.197   8.408
 2047POPC   C3B28293  28.732  13.027   7.980
 2047POPC   C4B28294  28.958  12.855   7.623
 2048POPC   NC328295  37.716  37.519   9.692
 2048POPC   PO428296  37.752  36.829   9.497
 2048POPC   GL128297  37.534  36.744   9.110
 2048POPC   GL228298  37.487  37.097   9.106
 2048POPC   C1A28299  37.472  36.696   8.658
 2048POPC   D2A28300  37.620  36.686   8.215
 2048POPC   C3A28301  37.334  36.717   7.832
 2048POPC   C4A28302  37.449  36.914   7.430
 2048POPC   C1B28303  37.717  37.160   8.735
 2048POPC   C2B28304  37.767  37.255   8.304
 2048POPC   C3B28305  37.674  37.084   7.894
 2048POPC   C4B28306  37.843  36.675   7.740
 2049POPC   NC328307  44.087   4.630   9.535
 2049POPC   PO428308  44.067   3.906   9.567
 2049POPC   GL128309  44.059   4.151   9.160
 2049POPC   GL228310  44.140   4.488   9.042
 2049POPC   C1A28311  43.934   4.139   8.721
 2049POPC   D2A28312  44.167   4.048   8.355
 2049POPC   C3A28313  43.906   4.014   8.031
 2049POPC   C4A28314  43.673   4.306   7.811
 2049POPC   C1B28315  43.937   4.685   8.698
 2049POPC   C2B28316  43.913   4.517   8.296
 2049POPC   C3B28317  44.164   4.450   7.959
 2049POPC   C4B28318  44.301   4.707   7.621
 2050POPC   NC328319   8.866  26.328   9.811
 2050POPC   PO428320   9.245  25.846   9.443
 2050POPC   GL128321   9.007  26.078   9.118
 2050POPC   GL228322   8.715  25.907   8.958
 2050POPC   C1A28323   8.861  26.353   8.790
 2050POPC   D2A28324   9.164  26.309   8.503
 2050POPC   C3A28325   9.109  26.199   8.058
 2050POPC   C4A28326   8.719  26.315   7.845
 2050POPC   C1B28327   9.019  25.804   8.681
 2050POPC   C2B28328   8.963  25.763   8.284
 2050POPC   C3B28329   9.186  25.715   7.935
 2050POPC   C4B28330   9.552  25.673   7.761
 2051POPC   NC328331  26.651  42.889   9.791
 2051POPC   PO428332  26.669  42.123   9.751
 2051POPC   GL128333  26.796  42.278   9.332
 2051POPC   GL228334  26.913  41.956   9.201
 2051POPC   C1A28335  26.882  42.580   8.994
 2051POPC   D2A28336  26.837  42.562   8.533
 2051POPC   C3A28337  26.871  42.481   8.090
 2051POPC   C4A28338  26.728  42.688   7.726
 2051POPC   C1B28339  27.004  42.126   8.791
 2051POPC   C2B28340  27.201  42.192   8.371
 2051POPC   C3B28341  27.133  42.046   7.963
 2051POPC   C4B28342  26.745  42.047   7.734
 2052POPC   NC328343  21.757  42.773   9.371
 2052POPC   PO428344  21.409  43.395   9.495
 2052POPC   GL128345  21.225  43.345   9.133
 2052POPC   GL228346  21.322  42.982   9.121
 2052POPC   C1A28347  21.175  43.269   8.723
 2052POPC   D2A28348  21.542  43.283   8.495
 2052POPC   C3A28349  21.536  43.262   8.040
 2052POPC   C4A28350  21.684  43.542   7.726
 2052POPC   C1B28351  21.498  42.818   8.756
 2052POPC   C2B28352  21.690  42.838   8.315
 2052POPC   C3B28353  21.531  42.772   7.921
 2052POPC   C4B28354  21.242  42.579   7.625
 2053POPC   NC328355  43.386   6.352   9.446
 2053POPC   PO428356  42.984   6.914   9.538
 2053POPC   GL128357  43.107   6.694   9.193
 2053POPC   GL228358  43.017   6.961   9.020
 2053POPC   C1A28359  43.138   6.519   8.773
 2053POPC   D2A28360  43.092   6.463   8.324
 2053POPC   C3A28361  42.828   6.788   8.141
 2053POPC   C4A28362  42.705   6.872   7.727
 2053POPC   C1B28363  43.196   7.025   8.609
 2053POPC   C2B28364  43.299   6.963   8.167
 2053POPC   C3B28365  43.287   6.792   7.760
 2053POPC   C4B28366  43.548   6.840   7.382
 2054POPC   NC328367  43.414  28.619   9.410
 2054POPC   PO428368  43.151  28.077   9.682
 2054POPC   GL128369  43.218  28.186   9.232
 2054POPC   GL228370  43.510  28.016   9.208
 2054POPC   C1A28371  43.086  28.489   8.846
 2054POPC   D2A28372  43.193  28.652   8.419
 2054POPC   C3A28373  43.148  28.444   8.021
 2054POPC   C4A28374  42.902  28.109   7.833
 2054POPC   C1B28375  43.380  28.090   8.778
 2054POPC   C2B28376  43.117  28.120   8.446
 2054POPC   C3B28377  43.247  27.845   8.139
 2054POPC   C4B28378  43.379  27.856   7.736
 2055POPC   NC328379   6.500  42.713   9.435
 2055POPC   PO428380   6.934  43.277   9.521
 2055POPC   GL128381   6.821  43.299   9.126
 2055POPC   GL228382   6.480  43.192   9.209
 2055POPC   C1A28383   6.826  43.572   8.760
 2055POPC   D2A28384   6.702  43.605   8.317
 2055POPC   C3A28385   6.833  43.561   7.868
 2055POPC   C4A28386   6.796  43.153   7.712
 2055POPC   C1B28387   6.547  42.958   8.808
 2055POPC   C2B28388   6.451  42.749   8.404
 2055POPC   C3B28389   6.462  42.930   8.002
 2055POPC   C4B28390   6.299  43.190   7.637
 2056POPC   NC328391  41.991  40.810   9.450
 2056POPC   PO428392  42.631  40.746   9.609
 2056POPC   GL128393  42.408  40.822   9.176
 2056POPC   GL228394  42.141  40.555   9.049
 2056POPC   C1A28395  42.446  40.925   8.749
 2056POPC   D2A28396  42.352  40.873   8.332
 2056POPC   C3A28397  42.515  40.590   8.025
 2056POPC   C4A28398  42.623  40.834   7.679
 2056POPC   C1B28399  41.941  40.785   8.717
 2056POPC   C2B28400  41.844  40.922   8.284
 2056POPC   C3B28401  42.085  40.851   7.886
 2056POPC   C4B28402  42.184  40.628   7.467
 2057POPC   NC328403  30.377   0.840   9.511
 2057POPC   PO428404  30.787   0.224   9.572
 2057POPC   GL128405  30.838   0.358   9.160
 2057POPC   GL228406  30.683   0.693   9.140
 2057POPC   C1A28407  30.943   0.515   8.744
 2057POPC   D2A28408  30.806   0.668   8.381
 2057POPC   C3A28409  30.788   0.436   8.000
 2057POPC   C4A28410  30.847   0.565   7.556
 2057POPC   C1B28411  30.437   0.570   8.769
 2057POPC   C2B28412  30.299   0.577   8.352
 2057POPC   C3B28413  30.307   0.632   7.916
 2057POPC   C4B28414  30.442   0.856   7.553
 2058POPC   NC328415   1.207  19.126   9.545
 2058POPC   PO428416   1.566  18.542   9.559
 2058POPC   GL128417   1.505  18.850   9.230
 2058POPC   GL228418   1.118  18.846   9.121
 2058POPC   C1A28419   1.494  19.176   8.916
 2058POPC   D2A28420   1.384  19.309   8.488
 2058POPC   C3A28421   1.121  19.114   8.172
 2058POPC   C4A28422   1.395  18.984   7.837
 2058POPC   C1B28423   0.993  19.255   8.912
 2058POPC   C2B28424   0.837  19.445   8.548
 2058POPC   C3B28425   0.810  19.593   8.133
 2058POPC   C4B28426   1.053  19.430   7.776
 2059POPC   NC328427   3.027   4.679   9.452
 2059POPC   PO428428   2.574   4.109   9.585
 2059POPC   GL128429   2.843   4.190   9.220
 2059POPC   GL228430   2.738   4.479   9.079
 2059POPC   C1A28431   2.860   4.101   8.748
 2059POPC   D2A28432   3.000   4.275   8.343
 2059POPC   C3A28433   2.926   4.123   7.907
 2059POPC   C4A28434   2.745   4.346   7.515
 2059POPC   C1B28435   2.864   4.631   8.724
 2059POPC   C2B28436   2.704   4.757   8.378
 2059POPC   C3B28437   2.748   4.630   8.006
 2059POPC   C4B28438   2.924   4.812   7.649
 2060POPC   NC328439  29.025   7.480   9.769
 2060POPC   PO428440  29.581   7.225   9.620
 2060POPC   GL128441  29.341   7.148   9.267
 2060POPC   GL228442  29.305   7.488   9.140
 2060POPC   C1A28443  29.114   7.084   8.881
 2060POPC   D2A28444  29.108   7.301   8.535
 2060POPC   C3A28445  29.076   7.230   8.131
 2060POPC   C4A28446  29.038   7.348   7.760
 2060POPC   C1B28447  29.481   7.573   8.743
 2060POPC   C2B28448  29.474   7.587   8.285
 2060POPC   C3B28449  29.507   7.625   7.846
 2060POPC   C4B28450  29.254   7.729   7.488
 2061POPC   NC328451  37.617   2.534   9.660
 2061POPC   PO428452  38.182   2.579   9.484
 2061POPC   GL128453  37.860   2.685   9.211
 2061POPC   GL228454  37.497   2.653   9.159
 2061POPC   C1A28455  37.881   2.842   8.837
 2061POPC   D2A28456  37.862   2.617   8.436
 2061POPC   C3A28457  37.872   2.790   8.042
 2061POPC   C4A28458  37.822   2.582   7.610
 2061POPC   C1B28459  37.415   2.720   8.679
 2061POPC   C2B28460  37.423   2.959   8.253
 2061POPC   C3B28461  37.468   2.929   7.763
 2061POPC   C4B28462  37.521   2.870   7.325
 2062POPC   NC328463  25.745  19.689   9.569
 2062POPC   PO428464  26.204  20.158   9.755
 2062POPC   GL128465  26.255  19.969   9.292
 2062POPC   GL228466  25.961  19.835   9.130
 2062POPC   C1A28467  26.388  19.871   8.842
 2062POPC   D2A28468  26.179  19.873   8.429
 2062POPC   C3A28469  26.220  20.167   8.086
 2062POPC   C4A28470  25.907  20.148   7.759
 2062POPC   C1B28471  25.961  19.554   8.767
 2062POPC   C2B28472  26.013  19.349   8.364
 2062POPC   C3B28473  26.164  19.539   8.000
 2062POPC   C4B28474  25.791  19.652   7.777
 2063POPC   NC328475   0.671   9.379   9.342
 2063POPC   PO428476   1.206   9.785   9.575
 2063POPC   GL128477   1.081   9.973   9.222
 2063POPC   GL228478   1.022   9.647   9.054
 2063POPC   C1A28479   1.289  10.047   8.834
 2063POPC   D2A28480   1.394   9.914   8.415
 2063POPC   C3A28481   1.251  10.111   8.060
 2063POPC   C4A28482   1.234   9.924   7.677
 2063POPC   C1B28483   0.899   9.367   8.707
 2063POPC   C2B28484   0.810   9.384   8.280
 2063POPC   C3B28485   1.121   9.545   8.006
 2063POPC   C4B28486   1.558   9.393   7.954
 2064POPC   NC328487  44.298   3.488   9.551
 2064POPC   PO428488   0.003   3.557   9.616
 2064POPC   GL128489  44.777   3.619   9.220
 2064POPC   GL228490  44.452   3.807   9.197
 2064POPC   C1A28491  44.764   3.710   8.783
 2064POPC   D2A28492  44.903   3.540   8.382
 2064POPC   C3A28493   0.134   3.872   8.160
 2064POPC   C4A28494   0.087   3.830   7.714
 2064POPC   C1B28495  44.232   3.691   8.820
 2064POPC   C2B28496  44.382   3.575   8.432
 2064POPC   C3B28497  44.506   3.530   7.998
 2064POPC   C4B28498  44.214   3.702   7.699
 2065POPC   NC328499  17.429  13.191   9.812
 2065POPC   PO428500  17.340  13.884   9.547
 2065POPC   GL128501  17.355  13.773   9.119
 2065POPC   GL228502  17.386  13.422   9.181
 2065POPC   C1A28503  17.509  13.633   8.716
 2065POPC   D2A28504  17.724  13.780   8.337
 2065POPC   C3A28505  17.427  13.811   7.990
 2065POPC   C4A28506  17.434  13.734   7.523
 2065POPC   C1B28507  17.316  13.126   8.817
 2065POPC   C2B28508  17.425  13.058   8.361
 2065POPC   C3B28509  17.533  13.291   8.033
 2065POPC   C4B28510  17.195  13.392   7.804
 2066POPC   NC328511  30.872  25.591   9.436
 2066POPC   PO428512  31.080  25.005   9.477
 2066POPC   GL128513  30.812  25.054   9.119
 2066POPC   GL228514  30.509  25.214   9.191
 2066POPC   C1A28515  30.729  24.996   8.677
 2066POPC   D2A28516  30.933  25.061   8.269
 2066POPC   C3A28517  30.665  25.192   7.929
 2066POPC   C4A28518  30.607  25.175   7.490
 2066POPC   C1B28519  30.686  25.478   8.830
 2066POPC   C2B28520  30.728  25.766   8.516
 2066POPC   C3B28521  30.717  25.683   8.076
 2066POPC   C4B28522  30.592  25.645   7.649
 2067POPC   NC328523   4.271  33.755   9.769
 2067POPC   PO428524   3.824  34.168   9.498
 2067POPC   GL128525   4.088  33.845   9.268
 2067POPC   GL228526   4.464  33.790   9.300
 2067POPC   C1A28527   4.033  33.727   8.844
 2067POPC   D2A28528   3.875  33.657   8.434
 2067POPC   C3A28529   4.040  33.861   8.089
 2067POPC   C4A28530   4.172  33.819   7.684
 2067POPC   C1B28531   4.520  33.854   8.870
 2067POPC   C2B28532   4.404  33.629   8.481
 2067POPC   C3B28533   4.570  33.824   8.118
 2067POPC   C4B28534   4.676  33.826   7.695
 2068POPC   NC328535   3.183  35.910   9.773
 2068POPC   PO428536   2.657  36.156   9.540
 2068POPC   GL128537   2.779  36.240   9.128
 2068POPC   GL228538   2.775  35.930   9.090
 2068POPC   C1A28539   2.787  36.220   8.671
 2068POPC   D2A28540   3.093  36.066   8.412
 2068POPC   C3A28541   2.909  36.035   8.054
 2068POPC   C4A28542   2.727  36.071   7.701
 2068POPC   C1B28543   3.129  35.829   8.922
 2068POPC   C2B28544   3.095  35.582   8.592
 2068POPC   C3B28545   3.087  35.560   8.163
 2068POPC   C4B28546   2.909  35.597   7.751
 2069POPC   NC328547  33.411  42.866   9.617
 2069POPC   PO428548  33.803  42.311   9.391
 2069POPC   GL128549  33.992  42.440   9.021
 2069POPC   GL228550  33.719  42.248   8.868
 2069POPC   C1A28551  34.033  42.531   8.570
 2069POPC   D2A28552  33.722  42.342   8.333
 2069POPC   C3A28553  33.903  42.277   7.945
 2069POPC   C4A28554  34.048  42.146   7.563
 2069POPC   C1B28555  33.584  42.653   8.759
 2069POPC   C2B28556  33.468  42.806   8.378
 2069POPC   C3B28557  33.656  42.728   7.990
 2069POPC   C4B28558  33.503  42.425   7.664
 2070POPC   NC328559  29.390   9.897   9.453
 2070POPC   PO428560  28.850   9.524   9.453
 2070POPC   GL128561  29.110   9.659   9.071
 2070POPC   GL228562  29.134  10.028   9.035
 2070POPC   C1A28563  29.296   9.751   8.625
 2070POPC   D2A28564  29.350   9.927   8.194
 2070POPC   C3A28565  29.140   9.663   7.904
 2070POPC   C4A28566  29.175   9.256   7.731
 2070POPC   C1B28567  28.827   9.915   8.720
 2070POPC   C2B28568  28.828   9.679   8.328
 2070POPC   C3B28569  28.734   9.997   8.014
 2070POPC   C4B28570  29.059  10.166   7.777
 2071POPC   NC328571  18.917  22.668   9.604
 2071POPC   PO428572  19.409  23.003   9.779
 2071POPC   GL128573  19.291  23.019   9.312
 2071POPC   GL228574  18.916  22.992   9.195
 2071POPC   C1A28575  19.284  23.146   8.850
 2071POPC   D2A28576  18.972  23.157   8.489
 2071POPC   C3A28577  19.183  23.083   8.088
 2071POPC   C4A28578  19.424  23.136   7.710
 2071POPC   C1B28579  19.006  22.705   8.837
 2071POPC   C2B28580  18.846  22.646   8.407
 2071POPC   C3B28581  18.951  22.616   7.968
 2071POPC   C4B28582  18.863  22.812   7.581
 2072POPC   NC328583  26.161  18.775   9.471
 2072POPC   PO428584  26.116  19.435   9.449
 2072POPC   GL128585  26.300  19.345   9.063
 2072POPC   GL228586  26.075  19.065   9.064
 2072POPC   C1A28587  26.341  19.102   8.650
 2072POPC   D2A28588  26.422  19.090   8.177
 2072POPC   C3A28589  26.110  19.033   7.890
 2072POPC   C4A28590  26.108  19.109   7.427
 2072POPC   C1B28591  25.772  19.077   8.748
 2072POPC   C2B28592  25.659  18.883   8.396
 2072POPC   C3B28593  25.656  18.780   7.987
 2072POPC   C4B28594  25.662  19.029   7.654
 2073POPC   NC328595  34.344  23.959   9.804
 2073POPC   PO428596  34.346  24.700   9.568
 2073POPC   GL128597  34.425  24.576   9.149
 2073POPC   GL228598  34.761  24.676   9.017
 2073POPC   C1A28599  34.415  24.458   8.703
 2073POPC   D2A28600  34.520  24.659   8.318
 2073POPC   C3A28601  34.570  24.487   7.912
 2073POPC   C4A28602  34.376  24.759   7.649
 2073POPC   C1B28603  34.921  24.479   8.597
 2073POPC   C2B28604  34.874  24.187   8.216
 2073POPC   C3B28605  34.989  24.239   7.775
 2073POPC   C4B28606  35.201  24.545   7.526
 2074POPC   NC328607  40.110  13.210   9.550
 2074POPC   PO428608  39.806  13.802   9.438
 2074POPC   GL128609  39.881  13.939   9.016
 2074POPC   GL228610  40.033  13.615   9.006
 2074POPC   C1A28611  39.888  13.898   8.573
 2074POPC   D2A28612  39.983  13.568   8.311
 2074POPC   C3A28613  40.031  13.631   7.848
 2074POPC   C4A28614  40.215  13.930   7.567
 2074POPC   C1B28615  39.941  13.311   8.759
 2074POPC   C2B28616  39.977  13.055   8.413
 2074POPC   C3B28617  39.856  13.173   8.005
 2074POPC   C4B28618  39.849  13.287   7.534
 2075POPC   NC328619  36.050  27.059   9.447
 2075POPC   PO428620  36.371  26.458   9.549
 2075POPC   GL128621  36.323  26.655   9.181
 2075POPC   GL228622  36.504  26.952   9.237
 2075POPC   C1A28623  36.109  26.624   8.779
 2075POPC   D2A28624  35.975  26.482   8.354
 2075POPC   C3A28625  36.003  26.729   7.970
 2075POPC   C4A28626  35.987  26.595   7.553
 2075POPC   C1B28627  36.571  26.898   8.798
 2075POPC   C2B28628  36.336  26.936   8.410
 2075POPC   C3B28629  36.455  26.956   7.998
 2075POPC   C4B28630  36.362  26.966   7.585
 2076POPC   NC328631  40.092  11.649   9.421
 2076POPC   PO428632  39.933  12.334   9.486
 2076POPC   GL128633  39.775  12.193   9.085
 2076POPC   GL228634  39.634  12.526   9.036
 2076POPC   C1A28635  40.017  11.906   8.750
 2076POPC   D2A28636  40.048  11.656   8.322
 2076POPC   C3A28637  40.213  11.909   7.982
 2076POPC   C4A28638  40.362  12.299   7.844
 2076POPC   C1B28639  39.896  12.470   8.666
 2076POPC   C2B28640  39.944  12.200   8.317
 2076POPC   C3B28641  39.835  12.255   7.895
 2076POPC   C4B28642  39.782  12.017   7.553
 2077POPC   NC328643  41.645  22.105   9.562
 2077POPC   PO428644  41.227  22.563   9.435
 2077POPC   GL128645  41.409  22.287   9.109
 2077POPC   GL228646  41.376  21.918   9.163
 2077POPC   C1A28647  41.780  22.126   8.875
 2077POPC   D2A28648  41.992  22.121   8.472
 2077POPC   C3A28649  41.844  22.322   8.129
 2077POPC   C4A28650  41.667  22.185   7.760
 2077POPC   C1B28651  41.367  21.870   8.731
 2077POPC   C2B28652  41.463  22.043   8.333
 2077POPC   C3B28653  41.320  21.875   7.946
 2077POPC   C4B28654  41.261  21.994   7.475
 2078POPC   NC328655  40.402  27.166   9.496
 2078POPC   PO428656  39.915  27.736   9.587
 2078POPC   GL128657  39.818  27.710   9.147
 2078POPC   GL228658  39.712  27.347   9.045
 2078POPC   C1A28659  39.770  27.748   8.692
 2078POPC   D2A28660  39.910  27.497   8.323
 2078POPC   C3A28661  39.712  27.614   7.938
 2078POPC   C4A28662  39.909  27.858   7.563
 2078POPC   C1B28663  40.131  27.406   8.870
 2078POPC   C2B28664  40.337  27.273   8.496
 2078POPC   C3B28665  40.396  27.434   8.101
 2078POPC   C4B28666  40.124  27.408   7.742
 2079POPC   NC328667  14.082   4.854   9.447
 2079POPC   PO428668  14.469   5.361   9.499
 2079POPC   GL128669  14.153   5.316   9.197
 2079POPC   GL228670  14.333   5.019   9.036
 2079POPC   C1A28671  14.006   5.293   8.773
 2079POPC   D2A28672  14.284   5.113   8.467
 2079POPC   C3A28673  14.155   5.244   8.066
 2079POPC   C4A28674  14.266   5.362   7.665
 2079POPC   C1B28675  14.581   5.364   8.845
 2079POPC   C2B28676  14.715   5.513   8.459
 2079POPC   C3B28677  14.750   5.251   8.115
 2079POPC   C4B28678  14.575   4.985   7.790
 2080POPC   NC328679  17.838   6.246   9.486
 2080POPC   PO428680  17.213   6.646   9.552
 2080POPC   GL128681  17.306   6.817   9.165
 2080POPC   GL228682  17.590   6.572   9.133
 2080POPC   C1A28683  17.284   6.683   8.737
 2080POPC   D2A28684  17.394   6.354   8.511
 2080POPC   C3A28685  17.402   6.524   8.125
 2080POPC   C4A28686  17.163   6.831   7.876
 2080POPC   C1B28687  17.703   6.946   8.854
 2080POPC   C2B28688  17.572   7.043   8.427
 2080POPC   C3B28689  17.646   6.988   7.980
 2080POPC   C4B28690  17.601   6.650   7.669
 2081POPC   NC328691   4.115   2.261   9.485
 2081POPC   PO428692   4.547   1.709   9.439
 2081POPC   GL128693   4.382   1.964   9.126
 2081POPC   GL228694   4.466   2.311   9.105
 2081POPC   C1A28695   4.498   1.920   8.709
 2081POPC   D2A28696   4.415   1.640   8.377
 2081POPC   C3A28697   4.488   1.835   8.026
 2081POPC   C4A28698   4.165   2.006   7.837
 2081POPC   C1B28699   4.209   2.360   8.756
 2081POPC   C2B28700   4.224   2.199   8.346
 2081POPC   C3B28701   4.342   2.446   8.013
 2081POPC   C4B28702   4.431   2.432   7.584
 2082POPC   NC328703   5.000   1.795   9.473
 2082POPC   PO428704   5.471   2.201   9.673
 2082POPC   GL128705   5.278   2.114   9.232
 2082POPC   GL228706   4.965   2.312   9.213
 2082POPC   C1A28707   5.028   1.898   8.853
 2082POPC   D2A28708   5.151   1.612   8.521
 2082POPC   C3A28709   4.995   1.747   8.111
 2082POPC   C4A28710   4.965   1.814   7.654
 2082POPC   C1B28711   4.829   2.365   8.762
 2082POPC   C2B28712   4.755   2.195   8.330
 2082POPC   C3B28713   4.790   2.223   7.871
 2082POPC   C4B28714   4.895   2.311   7.418
 2083POPC   NC328715  18.194  23.263   9.484
 2083POPC   PO428716  18.449  22.599   9.664
 2083POPC   GL128717  18.408  22.840   9.246
 2083POPC   GL228718  18.240  23.105   9.018
 2083POPC   C1A28719  18.496  22.735   8.814
 2083POPC   D2A28720  18.326  22.544   8.460
 2083POPC   C3A28721  18.443  22.823   8.098
 2083POPC   C4A28722  18.313  22.957   7.691
 2083POPC   C1B28723  18.562  23.333   8.783
 2083POPC   C2B28724  18.495  23.503   8.369
 2083POPC   C3B28725  18.221  23.335   8.040
 2083POPC   C4B28726  18.029  23.385   7.619
 2084POPC   NC328727  43.841  27.177   9.402
 2084POPC   PO428728  44.039  26.537   9.394
 2084POPC   GL128729  43.993  26.797   9.058
 2084POPC   GL228730  43.625  26.880   9.025
 2084POPC   C1A28731  43.937  26.649   8.644
 2084POPC   D2A28732  44.227  26.570   8.307
 2084POPC   C3A28733  44.031  26.508   7.931
 2084POPC   C4A28734  43.664  26.569   7.724
 2084POPC   C1B28735  43.832  27.157   8.740
 2084POPC   C2B28736  44.048  27.082   8.380
 2084POPC   C3B28737  43.802  26.930   8.099
 2084POPC   C4B28738  43.846  27.055   7.726
 2085POPC   NC328739  16.435  12.099   9.533
 2085POPC   PO428740  17.112  12.122   9.536
 2085POPC   GL128741  16.906  11.971   9.162
 2085POPC   GL228742  16.657  12.201   9.070
 2085POPC   C1A28743  16.994  11.995   8.728
 2085POPC   D2A28744  16.835  12.168   8.343
 2085POPC   C3A28745  17.017  11.997   7.964
 2085POPC   C4A28746  17.004  12.336   7.729
 2085POPC   C1B28747  16.504  11.877   8.720
 2085POPC   C2B28748  16.478  11.811   8.268
 2085POPC   C3B28749  16.529  11.980   7.803
 2085POPC   C4B28750  16.303  11.991   7.379
 2086POPC   NC328751  41.778   7.063   9.409
 2086POPC   PO428752  41.425   7.564   9.525
 2086POPC   GL128753  41.457   7.367   9.137
 2086POPC   GL228754  41.818   7.486   9.108
 2086POPC   C1A28755  41.573   7.252   8.711
 2086POPC   D2A28756  41.503   7.025   8.331
 2086POPC   C3A28757  41.508   7.379   8.039
 2086POPC   C4A28758  41.425   7.833   7.920
 2086POPC   C1B28759  42.014   7.582   8.697
 2086POPC   C2B28760  41.883   7.669   8.243
 2086POPC   C3B28761  41.910   7.744   7.786
 2086POPC   C4B28762  41.732   7.930   7.406
 2087POPC   NC328763  26.323  34.048   9.540
 2087POPC   PO428764  25.866  33.585   9.650
 2087POPC   GL128765  25.906  33.741   9.211
 2087POPC   GL228766  26.252  33.847   9.080
 2087POPC   C1A28767  25.846  33.901   8.792
 2087POPC   D2A28768  26.013  33.823   8.399
 2087POPC   C3A28769  25.788  33.953   8.061
 2087POPC   C4A28770  25.910  33.830   7.629
 2087POPC   C1B28771  26.321  34.111   8.702
 2087POPC   C2B28772  26.310  34.238   8.263
 2087POPC   C3B28773  26.298  33.906   7.921
 2087POPC   C4B28774  26.398  33.893   7.453
 2088POPC   NC328775  29.350  43.547   9.855
 2088POPC   PO428776  29.870  43.761   9.457
 2088POPC   GL128777  30.079  43.691   9.056
 2088POPC   GL228778  29.868  43.954   8.989
 2088POPC   C1A28779  30.108  43.755   8.599
 2088POPC   D2A28780  29.837  43.933   8.295
 2088POPC   C3A28781  29.998  43.778   7.901
 2088POPC   C4A28782  30.181  43.444   7.726
 2088POPC   C1B28783  29.860  44.263   8.683
 2088POPC   C2B28784  30.048  44.448   8.361
 2088POPC   C3B28785  30.050  44.278   7.983
 2088POPC   C4B28786  29.776  44.130   7.613
 2089POPC   NC328787  38.373  30.754   9.556
 2089POPC   PO428788  38.100  30.363   9.133
 2089POPC   GL128789  38.376  30.729   9.053
 2089POPC   GL228790  38.720  30.806   9.155
 2089POPC   C1A28791  38.469  30.813   8.682
 2089POPC   D2A28792  38.270  30.628   8.362
 2089POPC   C3A28793  38.472  30.851   8.043
 2089POPC   C4A28794  38.155  30.860   7.776
 2089POPC   C1B28795  38.911  30.576   8.795
 2089POPC   C2B28796  38.769  30.544   8.345
 2089POPC   C3B28797  38.892  30.496   7.905
 2089POPC   C4B28798  38.692  30.325   7.515
 2090POPC   NC328799  39.052  38.733   9.601
 2090POPC   PO428800  39.434  38.142   9.817
 2090POPC   GL128801  39.376  38.353   9.411
 2090POPC   GL228802  39.083  38.246   9.253
 2090POPC   C1A28803  39.510  38.551   9.022
 2090POPC   D2A28804  39.476  38.508   8.568
 2090POPC   C3A28805  39.385  38.782   8.266
 2090POPC   C4A28806  39.460  38.705   7.854
 2090POPC   C1B28807  39.019  38.450   8.861
 2090POPC   C2B28808  38.977  38.478   8.438
 2090POPC   C3B28809  39.082  38.398   8.041
 2090POPC   C4B28810  38.966  38.647   7.706
 2091POPC   NC328811  14.764  15.251   9.794
 2091POPC   PO428812  15.432  15.095   9.614
 2091POPC   GL128813  15.267  15.098   9.211
 2091POPC   GL228814  15.532  15.332   9.161
 2091POPC   C1A28815  15.148  15.235   8.781
 2091POPC   D2A28816  15.192  15.417   8.393
 2091POPC   C3A28817  14.966  15.229   8.054
 2091POPC   C4A28818  15.188  15.334   7.699
 2091POPC   C1B28819  15.626  15.081   8.804
 2091POPC   C2B28820  15.638  15.155   8.385
 2091POPC   C3B28821  15.443  15.011   8.026
 2091POPC   C4B28822  15.566  14.859   7.634
 2092POPC   NC328823  44.314  37.177   9.508
 2092POPC   PO428824  44.977  37.025   9.703
 2092POPC   GL128825  44.843  36.968   9.299
 2092POPC   GL228826  44.727  37.267   9.237
 2092POPC   C1A28827  44.914  36.884   8.867
 2092POPC   D2A28828  44.739  36.951   8.468
 2092POPC   C3A28829  44.895  36.780   8.106
 2092POPC   C4A28830  44.656  36.923   7.785
 2092POPC   C1B28831  44.523  37.241   8.867
 2092POPC   C2B28832  44.386  37.309   8.466
 2092POPC   C3B28833  44.479  37.328   8.068
 2092POPC   C4B28834  44.291  37.310   7.693
 2093POPC   NC328835  42.997  15.035   9.714
 2093POPC   PO428836  43.443  15.404   9.500
 2093POPC   GL128837  43.293  15.105   9.232
 2093POPC   GL228838  42.912  15.094   9.213
 2093POPC   C1A28839  43.226  15.227   8.811
 2093POPC   D2A28840  43.187  15.012   8.446
 2093POPC   C3A28841  43.404  15.199   8.133
 2093POPC   C4A28842  43.292  15.249   7.739
 2093POPC   C1B28843  42.721  15.321   8.870
 2093POPC   C2B28844  42.744  15.231   8.436
 2093POPC   C3B28845  42.857  15.075   8.003
 2093POPC   C4B28846  42.816  15.350   7.674
 2094POPC   NC328847  20.717  17.262   9.400
 2094POPC   PO428848  20.348  17.841   9.479
 2094POPC   GL128849  20.423  17.779   9.071
 2094POPC   GL228850  20.147  17.549   9.063
 2094POPC   C1A28851  20.635  17.752   8.678
 2094POPC   D2A28852  20.959  17.699   8.403
 2094POPC   C3A28853  20.943  17.770   7.965
 2094POPC   C4A28854  20.610  17.610   7.763
 2094POPC   C1B28855  20.152  17.599   8.619
 2094POPC   C2B28856  20.377  17.538   8.232
 2094POPC   C3B28857  20.366  17.205   7.933
 2094POPC   C4B28858  20.392  17.239   7.487
 2095POPC   NC328859  37.068  43.243   9.729
 2095POPC   PO428860  36.646  42.767   9.419
 2095POPC   GL128861  36.697  43.130   9.117
 2095POPC   GL228862  36.983  43.328   9.191
 2095POPC   C1A28863  36.618  43.077   8.687
 2095POPC   D2A28864  36.797  42.779   8.370
 2095POPC   C3A28865  36.742  42.958   7.945
 2095POPC   C4A28866  36.730  43.407   7.817
 2095POPC   C1B28867  37.102  43.190   8.745
 2095POPC   C2B28868  37.027  43.252   8.281
 2095POPC   C3B28869  37.256  43.394   7.896
 2095POPC   C4B28870  37.562  43.509   7.533
 2096POPC   NC328871   4.481  24.525   9.572
 2096POPC   PO428872   4.736  24.005   9.234
 2096POPC   GL128873   4.492  24.352   9.049
 2096POPC   GL228874   4.174  24.522   9.157
 2096POPC   C1A28875   4.371  24.485   8.642
 2096POPC   D2A28876   4.294  24.231   8.283
 2096POPC   C3A28877   4.503  24.291   7.873
 2096POPC   C4A28878   4.567  24.464   7.455
 2096POPC   C1B28879   4.052  24.881   8.887
 2096POPC   C2B28880   3.881  24.929   8.475
 2096POPC   C3B28881   3.990  24.640   8.153
 2096POPC   C4B28882   4.132  24.593   7.739
 2097POPC   NC328883  10.145  44.199   9.275
 2097POPC   PO428884  10.475  44.807   9.504
 2097POPC   GL128885  10.710  44.553   9.169
 2097POPC   GL228886  10.626  44.227   9.119
 2097POPC   C1A28887  10.890  44.663   8.743
 2097POPC   D2A28888  10.639   0.037   8.564
 2097POPC   C3A28889  10.511   0.071   8.090
 2097POPC   C4A28890  10.336  44.917   7.707
 2097POPC   C1B28891  10.416  44.470   8.757
 2097POPC   C2B28892  10.494  44.605   8.339
 2097POPC   C3B28893  10.345  44.424   7.999
 2097POPC   C4B28894  10.046  44.116   7.954
 2098POPC   NC328895  38.635  15.886   9.888
 2098POPC   PO428896  38.225  16.124   9.407
 2098POPC   GL128897  38.416  15.833   9.093
 2098POPC   GL228898  38.599  16.081   8.909
 2098POPC   C1A28899  38.368  15.683   8.625
 2098POPC   D2A28900  38.609  15.644   8.206
 2098POPC   C3A28901  38.499  15.728   7.754
 2098POPC   C4A28902  38.732  15.831   7.358
 2098POPC   C1B28903  38.150  16.117   8.772
 2098POPC   C2B28904  38.004  16.018   8.397
 2098POPC   C3B28905  38.197  16.069   8.021
 2098POPC   C4B28906  38.275  16.376   7.733
 2099POPC   NC328907  34.941  33.125   9.521
 2099POPC   PO428908  34.408  32.754   9.692
 2099POPC   GL128909  34.537  32.855   9.257
 2099POPC   GL228910  34.445  33.210   9.226
 2099POPC   C1A28911  34.479  32.841   8.785
 2099POPC   D2A28912  34.183  32.929   8.431
 2099POPC   C3A28913  34.347  32.951   8.037
 2099POPC   C4A28914  34.769  32.853   7.983
 2099POPC   C1B28915  34.779  33.244   8.902
 2099POPC   C2B28916  34.805  33.154   8.491
 2099POPC   C3B28917  34.866  33.364   8.109
 2099POPC   C4B28918  34.600  33.314   7.767
 2100POPC   NC328919  27.122  38.284  10.016
 2100POPC   PO428920  26.883  38.644   9.442
 2100POPC   GL128921  26.750  38.367   9.063
 2100POPC   GL228922  26.624  37.982   9.038
 2100POPC   C1A28923  26.845  38.226   8.657
 2100POPC   D2A28924  27.115  38.276   8.354
 2100POPC   C3A28925  26.910  38.192   8.014
 2100POPC   C4A28926  27.102  38.297   7.653
 2100POPC   C1B28927  26.383  37.984   8.673
 2100POPC   C2B28928  26.415  38.176   8.298
 2100POPC   C3B28929  26.425  38.100   7.887
 2100POPC   C4B28930  26.622  38.388   7.620
 2101POPC   NC328931  36.756  10.765   9.374
 2101POPC   PO428932  37.386  10.456   9.526
 2101POPC   GL128933  37.137  10.448   9.150
 2101POPC   GL228934  37.164  10.775   9.044
 2101POPC   C1A28935  36.834  10.314   8.810
 2101POPC   D2A28936  36.979  10.255   8.373
 2101POPC   C3A28937  36.671  10.236   8.014
 2101POPC   C4A28938  36.582  10.342   7.551
 2101POPC   C1B28939  37.032  10.744   8.641
 2101POPC   C2B28940  37.138  10.699   8.216
 2101POPC   C3B28941  36.920  10.683   7.861
 2101POPC   C4B28942  37.050  10.548   7.476
 2102POPC   NC328943  19.886  17.882   9.423
 2102POPC   PO428944  19.528  17.288   9.626
 2102POPC   GL128945  19.750  17.272   9.240
 2102POPC   GL228946  19.562  17.517   9.122
 2102POPC   C1A28947  19.877  17.192   8.789
 2102POPC   D2A28948  20.053  17.135   8.351
 2102POPC   C3A28949  19.882  17.333   7.944
 2102POPC   C4A28950  20.103  17.690   7.728
 2102POPC   C1B28951  19.631  17.634   8.730
 2102POPC   C2B28952  19.696  17.549   8.358
 2102POPC   C3B28953  19.675  17.801   8.023
 2102POPC   C4B28954  19.521  17.718   7.653
 2103POPC   NC328955   2.663  35.673   9.513
 2103POPC   PO428956   2.557  34.981   9.475
 2103POPC   GL128957   2.668  35.098   9.084
 2103POPC   GL228958   2.921  35.369   9.110
 2103POPC   C1A28959   2.798  35.119   8.669
 2103POPC   D2A28960   2.646  35.291   8.276
 2103POPC   C3A28961   2.796  35.120   7.888
 2103POPC   C4A28962   3.115  35.117   7.616
 2103POPC   C1B28963   2.619  35.566   8.803
 2103POPC   C2B28964   2.652  35.779   8.413
 2103POPC   C3B28965   2.463  35.748   7.998
 2103POPC   C4B28966   2.435  35.431   7.669
 2104POPC   NC328967  32.704  11.517   9.481
 2104POPC   PO428968  33.309  11.631   9.595
 2104POPC   GL128969  33.079  11.579   9.127
 2104POPC   GL228970  32.819  11.343   9.027
 2104POPC   C1A28971  33.183  11.414   8.676
 2104POPC   D2A28972  33.476  11.316   8.319
 2104POPC   C3A28973  33.234  11.237   7.969
 2104POPC   C4A28974  32.931  11.561   7.941
 2104POPC   C1B28975  32.710  11.060   8.716
 2104POPC   C2B28976  32.632  11.191   8.292
 2104POPC   C3B28977  32.711  11.109   7.869
 2104POPC   C4B28978  32.650  11.417   7.538
 2105POPC   NC328979   9.472  17.247   9.467
 2105POPC   PO428980   9.920  17.649   9.533
 2105POPC   GL128981   9.892  17.480   9.126
 2105POPC   GL228982   9.564  17.613   9.068
 2105POPC   C1A28983   9.917  17.649   8.683
 2105POPC   D2A28984   9.744  17.639   8.231
 2105POPC   C3A28985   9.902  17.638   7.766
 2105POPC   C4A28986   9.937  17.738   7.300
 2105POPC   C1B28987   9.504  17.296   8.743
 2105POPC   C2B28988   9.416  17.233   8.300
 2105POPC   C3B28989   9.463  17.409   7.861
 2105POPC   C4B28990   9.548  17.400   7.393
 2106POPC   NC328991  16.590   5.240   9.552
 2106POPC   PO428992  17.191   5.022   9.406
 2106POPC   GL128993  16.810   4.963   9.116
 2106POPC   GL228994  16.430   5.015   9.126
 2106POPC   C1A28995  16.738   5.141   8.697
 2106POPC   D2A28996  17.035   5.161   8.344
 2106POPC   C3A28997  16.871   5.083   7.928
 2106POPC   C4A28998  16.846   5.324   7.540
 2106POPC   C1B28999  16.425   4.760   8.769
 2106POPC   C2B29000  16.631   4.734   8.389
 2106POPC   C3B29001  16.465   4.714   7.992
 2106POPC   C4B29002  16.706   4.705   7.612
 2107POPC   NC329003  11.275  21.094   9.486
 2107POPC   PO429004  11.624  21.654   9.484
 2107POPC   GL129005  11.263  21.528   9.159
 2107POPC   GL229006  11.235  21.182   9.001
 2107POPC   C1A29007  11.128  21.629   8.713
 2107POPC   D2A29008  11.187  21.798   8.244
 2107POPC   C3A29009  11.498  21.635   7.880
 2107POPC   C4A29010  11.334  21.579   7.422
 2107POPC   C1B29011  10.957  21.155   8.696
 2107POPC   C2B29012  11.012  21.316   8.295
 2107POPC   C3B29013  11.062  21.389   7.854
 2107POPC   C4B29014  11.421  21.141   7.621
 2108POPC   NC329015  40.478  14.926   9.484
 2108POPC   PO429016  41.039  14.651   9.429
 2108POPC   GL129017  40.886  15.032   9.194
 2108POPC   GL229018  40.992  15.403   9.152
 2108POPC   C1A29019  40.577  15.163   8.879
 2108POPC   D2A29020  40.527  15.064   8.467
 2108POPC   C3A29021  40.499  15.331   8.121
 2108POPC   C4A29022  40.629  15.103   7.780
 2108POPC   C1B29023  41.067  15.176   8.737
 2108POPC   C2B29024  40.972  15.259   8.306
 2108POPC   C3B29025  41.138  15.232   7.909
 2108POPC   C4B29026  41.508  14.979   7.851
 2109POPC   NC329027   1.024  35.635   9.511
 2109POPC   PO429028   1.313  35.105   9.738
 2109POPC   GL129029   1.322  35.271   9.268
 2109POPC   GL229030   1.249  35.551   9.068
 2109POPC   C1A29031   1.287  35.085   8.832
 2109POPC   D2A29032   1.036  34.950   8.484
 2109POPC   C3A29033   1.175  35.066   8.083
 2109POPC   C4A29034   0.892  35.169   7.754
 2109POPC   C1B29035   1.657  35.476   8.890
 2109POPC   C2B29036   1.700  35.393   8.471
 2109POPC   C3B29037   1.549  35.584   8.099
 2109POPC   C4B29038   1.399  35.410   7.735
 2110POPC   NC329039   3.202  18.969   9.555
 2110POPC   PO429040   3.723  18.607   9.567
 2110POPC   GL129041   3.634  18.796   9.154
 2110POPC   GL229042   3.520  19.159   9.191
 2110POPC   C1A29043   3.575  18.943   8.708
 2110POPC   D2A29044   3.395  19.233   8.402
 2110POPC   C3A29045   3.359  19.093   7.967
 2110POPC   C4A29046   3.688  18.861   7.747
 2110POPC   C1B29047   3.786  19.401   8.914
 2110POPC   C2B29048   3.938  19.364   8.482
 2110POPC   C3B29049   3.847  19.191   8.093
 2110POPC   C4B29050   3.802  19.365   7.668
 2111POPC   NC329051  43.732  14.979   9.515
 2111POPC   PO429052  44.188  15.472   9.592
 2111POPC   GL129053  43.900  15.406   9.238
 2111POPC   GL229054  44.006  15.096   9.098
 2111POPC   C1A29055  43.720  15.461   8.811
 2111POPC   D2A29056  43.827  15.204   8.425
 2111POPC   C3A29057  43.979  15.423   8.048
 2111POPC   C4A29058  44.260  15.331   7.695
 2111POPC   C1B29059  43.658  14.943   8.854
 2111POPC   C2B29060  43.604  14.736   8.498
 2111POPC   C3B29061  43.752  14.696   8.139
 2111POPC   C4B29062  43.636  14.881   7.799
 2112POPC   NC329063  30.701  28.138   9.452
 2112POPC   PO429064  30.994  28.748   9.642
 2112POPC   GL129065  30.802  28.667   9.215
 2112POPC   GL229066  30.483  28.504   9.106
 2112POPC   C1A29067  30.699  28.822   8.784
 2112POPC   D2A29068  30.945  28.684   8.447
 2112POPC   C3A29069  30.771  28.517   8.061
 2112POPC   C4A29070  30.863  28.591   7.657
 2112POPC   C1B29071  30.778  28.316   8.812
 2112POPC   C2B29072  30.840  28.147   8.421
 2112POPC   C3B29073  30.523  28.049   8.144
 2112POPC   C4B29074  30.633  28.138   7.728
 2113POPC   NC329075  42.941  39.331   9.603
 2113POPC   PO429076  43.573  39.038   9.614
 2113POPC   GL129077  43.263  39.114   9.279
 2113POPC   GL229078  43.297  39.462   9.258
 2113POPC   C1A29079  43.239  38.917   8.871
 2113POPC   D2A29080  43.352  39.051   8.470
 2113POPC   C3A29081  43.010  39.049   8.189
 2113POPC   C4A29082  42.980  39.056   7.757
 2113POPC   C1B29083  43.243  39.438   8.835
 2113POPC   C2B29084  43.064  39.491   8.440
 2113POPC   C3B29085  43.195  39.486   7.984
 2113POPC   C4B29086  43.136  39.550   7.534
 2114POPC   NC329087   1.218   1.064   9.469
 2114POPC   PO429088   1.385   1.799   9.480
 2114POPC   GL129089   1.264   1.479   9.187
 2114POPC   GL229090   0.912   1.445   9.240
 2114POPC   C1A29091   1.359   1.274   8.800
 2114POPC   D2A29092   1.361   1.515   8.399
 2114POPC   C3A29093   1.392   1.373   8.013
 2114POPC   C4A29094   1.238   1.132   7.689
 2114POPC   C1B29095   0.847   1.155   8.891
 2114POPC   C2B29096   0.962   1.164   8.478
 2114POPC   C3B29097   0.886   1.153   8.056
 2114POPC   C4B29098   0.747   1.335   7.700
 2115POPC   NC329099  38.771  19.759   9.561
 2115POPC   PO429100  39.267  20.253   9.619
 2115POPC   GL129101  39.379  19.978   9.266
 2115POPC   GL229102  39.084  19.783   9.176
 2115POPC   C1A29103  39.434  19.841   8.830
 2115POPC   D2A29104  39.468  19.822   8.390
 2115POPC   C3A29105  39.257  20.135   8.172
 2115POPC   C4A29106  39.263  20.210   7.706
 2115POPC   C1B29107  38.968  19.586   8.790
 2115POPC   C2B29108  39.034  19.562   8.357
 2115POPC   C3B29109  38.921  19.804   7.999
 2115POPC   C4B29110  38.921  19.674   7.579
 2116POPC   NC329111  29.138  27.978   9.759
 2116POPC   PO429112  28.720  28.480   9.570
 2116POPC   GL129113  29.047  28.243   9.327
 2116POPC   GL229114  28.883  28.176   9.039
 2116POPC   C1A29115  29.402  28.208   8.998
 2116POPC   D2A29116  29.559  28.092   8.571
 2116POPC   C3A29117  29.230  28.100   8.241
 2116POPC   C4A29118  29.261  28.244   7.810
 2116POPC   C1B29119  28.899  28.354   8.631
 2116POPC   C2B29120  28.984  28.559   8.244
 2116POPC   C3B29121  29.212  28.754   7.931
 2116POPC   C4B29122  29.239  28.655   7.488
 2117POPC   NC329123   6.527   2.598   9.589
 2117POPC   PO429124   6.770   3.230   9.386
 2117POPC   GL129125   6.632   2.878   9.169
 2117POPC   GL229126   6.916   2.668   9.244
 2117POPC   C1A29127   6.423   2.820   8.773
 2117POPC   D2A29128   6.538   2.674   8.374
 2117POPC   C3A29129   6.480   2.867   7.978
 2117POPC   C4A29130   6.868   2.853   7.749
 2117POPC   C1B29131   6.839   2.517   8.821
 2117POPC   C2B29132   6.800   2.254   8.438
 2117POPC   C3B29133   6.929   2.431   8.069
 2117POPC   C4B29134   6.847   2.308   7.686
 2118POPC   NC329135  26.264   6.418   9.401
 2118POPC   PO429136  25.743   6.725   9.612
 2118POPC   GL129137  25.943   6.887   9.198
 2118POPC   GL229138  26.277   6.776   8.999
 2118POPC   C1A29139  25.891   6.971   8.749
 2118POPC   D2A29140  25.979   6.718   8.398
 2118POPC   C3A29141  25.979   6.844   8.006
 2118POPC   C4A29142  26.329   6.930   7.742
 2118POPC   C1B29143  26.127   6.400   8.784
 2118POPC   C2B29144  25.881   6.217   8.499
 2118POPC   C3B29145  25.978   6.271   8.102
 2118POPC   C4B29146  26.041   6.430   7.702
 2119POPC   NC329147  11.620  20.405   9.594
 2119POPC   PO429148  10.991  20.729   9.556
 2119POPC   GL129149  11.195  20.680   9.163
 2119POPC   GL229150  11.558  20.677   9.122
 2119POPC   C1A29151  11.209  20.491   8.769
 2119POPC   D2A29152  11.524  20.414   8.458
 2119POPC   C3A29153  11.291  20.433   8.068
 2119POPC   C4A29154  11.405  20.626   7.674
 2119POPC   C1B29155  11.589  20.884   8.749
 2119POPC   C2B29156  11.298  20.878   8.427
 2119POPC   C3B29157  11.184  20.924   8.030
 2119POPC   C4B29158  10.966  20.913   7.660
 2120POPC   NC329159  38.075   4.684   9.589
 2120POPC   PO429160  37.528   4.224   9.673
 2120POPC   GL129161  37.706   4.368   9.244
 2120POPC   GL229162  37.707   4.056   9.089
 2120POPC   C1A29163  37.553   4.530   8.797
 2120POPC   D2A29164  37.789   4.549   8.359
 2120POPC   C3A29165  37.540   4.584   7.983
 2120POPC   C4A29166  37.695   4.632   7.562
 2120POPC   C1B29167  37.927   4.202   8.745
 2120POPC   C2B29168  38.042   4.098   8.342
 2120POPC   C3B29169  37.888   4.213   7.929
 2120POPC   C4B29170  37.537   4.148   7.671
 2121POPC   NC329171   2.466   0.851   9.386
 2121POPC   PO429172   3.004   0.557   9.486
 2121POPC   GL129173   2.823   0.556   9.105
 2121POPC   GL229174   2.493   0.386   9.135
 2121POPC   C1A29175   3.032   0.595   8.723
 2121POPC   D2A29176   3.015   0.378   8.351
 2121POPC   C3A29177   3.066   0.630   7.959
 2121POPC   C4A29178   3.113   0.521   7.513
 2121POPC   C1B29179   2.526   0.431   8.678
 2121POPC   C2B29180   2.556   0.523   8.242
 2121POPC   C3B29181   2.550   0.593   7.826
 2121POPC   C4B29182   2.558   0.410   7.431
 2122POPC   NC329183  44.853   9.586   9.707
 2122POPC   PO429184  44.373  10.093   9.660
 2122POPC   GL129185  44.501   9.941   9.262
 2122POPC   GL229186  44.566  10.208   9.072
 2122POPC   C1A29187  44.803   9.737   8.956
 2122POPC   D2A29188  44.939   9.432   8.626
 2122POPC   C3A29189  44.887   9.530   8.174
 2122POPC   C4A29190  44.741   9.770   7.799
 2122POPC   C1B29191  44.388   9.962   8.742
 2122POPC   C2B29192  44.488   9.833   8.337
 2122POPC   C3B29193  44.356  10.027   7.973
 2122POPC   C4B29194  44.546  10.281   7.642
 2123POPC   NC329195  10.302  29.510   9.537
 2123POPC   PO429196  10.623  30.154   9.505
 2123POPC   GL129197  10.581  30.017   9.107
 2123POPC   GL229198  10.527  29.644   9.074
 2123POPC   C1A29199  10.733  30.011   8.690
 2123POPC   D2A29200  10.840  30.196   8.312
 2123POPC   C3A29201  10.676  29.963   7.976
 2123POPC   C4A29202  10.366  30.038   7.662
 2123POPC   C1B29203  10.228  29.904   8.794
 2123POPC   C2B29204  10.323  30.016   8.382
 2123POPC   C3B29205  10.187  29.767   8.065
 2123POPC   C4B29206   9.871  29.869   7.752
 2124POPC   NC329207  35.001   6.117   9.273
 2124POPC   PO429208  35.521   5.771   9.615
 2124POPC   GL129209  35.506   5.770   9.178
 2124POPC   GL229210  35.560   6.095   9.127
 2124POPC   C1A29211  35.381   5.527   8.825
 2124POPC   D2A29212  35.606   5.621   8.457
 2124POPC   C3A29213  35.437   5.629   8.077
 2124POPC   C4A29214  35.453   5.953   7.830
 2124POPC   C1B29215  35.374   6.019   8.739
 2124POPC   C2B29216  35.109   5.804   8.459
 2124POPC   C3B29217  34.938   5.741   8.062
 2124POPC   C4B29218  34.956   6.069   7.767
 2125POPC   NC329219  26.314  14.019   9.400
 2125POPC   PO429220  26.939  13.691   9.549
 2125POPC   GL129221  26.853  13.619   9.121
 2125POPC   GL229222  26.506  13.676   9.053
 2125POPC   C1A29223  26.884  13.824   8.705
 2125POPC   D2A29224  27.166  13.770   8.335
 2125POPC   C3A29225  26.938  13.700   7.964
 2125POPC   C4A29226  26.562  13.922   7.858
 2125POPC   C1B29227  26.465  13.427   8.683
 2125POPC   C2B29228  26.527  13.554   8.250
 2125POPC   C3B29229  26.490  13.421   7.822
 2125POPC   C4B29230  26.439  13.272   7.410
 2126POPC   NC329231  42.653  10.524   9.537
 2126POPC   PO429232  42.007  10.514   9.382
 2126POPC   GL129233  42.349  10.652   9.087
 2126POPC   GL229234  42.691  10.830   9.095
 2126POPC   C1A29235  42.354  10.723   8.635
 2126POPC   D2A29236  42.082  10.479   8.338
 2126POPC   C3A29237  42.274  10.340   7.968
 2126POPC   C4A29238  42.405  10.748   7.788
 2126POPC   C1B29239  42.725  10.402   8.871
 2126POPC   C2B29240  42.599  10.305   8.458
 2126POPC   C3B29241  42.734  10.555   8.125
 2126POPC   C4B29242  42.739  10.350   7.750
 2127POPC   NC329243  11.208  21.865   9.550
 2127POPC   PO429244  11.136  22.487   9.531
 2127POPC   GL129245  11.153  22.223   9.123
 2127POPC   GL229246  10.850  22.027   9.192
 2127POPC   C1A29247  11.396  22.058   8.705
 2127POPC   D2A29248  11.672  21.931   8.303
 2127POPC   C3A29249  11.609  22.145   7.893
 2127POPC   C4A29250  11.622  21.990   7.457
 2127POPC   C1B29251  10.856  22.072   8.727
 2127POPC   C2B29252  11.044  22.288   8.390
 2127POPC   C3B29253  11.078  22.289   7.957
 2127POPC   C4B29254  11.127  21.928   7.728
 2128POPC   NC329255  17.488  22.201   9.506
 2128POPC   PO429256  17.066  21.667   9.453
 2128POPC   GL129257  17.256  21.941   9.105
 2128POPC   GL229258  17.278  22.335   9.087
 2128POPC   C1A29259  17.441  22.048   8.688
 2128POPC   D2A29260  17.234  22.276   8.371
 2128POPC   C3A29261  17.243  22.134   7.973
 2128POPC   C4A29262  17.665  22.155   7.800
 2128POPC   C1B29263  17.507  22.544   8.763
 2128POPC   C2B29264  17.620  22.693   8.357
 2128POPC   C3B29265  17.480  22.610   7.954
 2128POPC   C4B29266  17.479  22.636   7.508
 2129POPC   NC329267   9.323   2.574   9.528
 2129POPC   PO429268   8.650   2.449   9.484
 2129POPC   GL129269   8.883   2.639   9.133
 2129POPC   GL229270   9.236   2.770   9.067
 2129POPC   C1A29271   8.835   2.746   8.700
 2129POPC   D2A29272   8.705   3.082   8.388
 2129POPC   C3A29273   8.735   2.900   7.968
 2129POPC   C4A29274   9.060   2.666   7.763
 2129POPC   C1B29275   9.351   2.713   8.651
 2129POPC   C2B29276   9.174   2.858   8.281
 2129POPC   C3B29277   9.382   3.038   7.950
 2129POPC   C4B29278   9.415   2.973   7.521
 2130POPC   NC329279  38.824   5.219   9.981
 2130POPC   PO429280  38.417   5.006   9.539
 2130POPC   GL129281  38.426   5.120   9.138
 2130POPC   GL229282  38.230   4.840   9.064
 2130POPC   C1A29283  38.349   5.241   8.729
 2130POPC   D2A29284  38.607   5.119   8.376
 2130POPC   C3A29285  38.431   5.091   7.959
 2130POPC   C4A29286  38.752   5.152   7.669
 2130POPC   C1B29287  38.228   4.615   8.680
 2130POPC   C2B29288  38.370   4.629   8.274
 2130POPC   C3B29289  38.202   4.593   7.912
 2130POPC   C4B29290  38.222   4.738   7.543
 2131POPC   NC329291   8.810  17.182   9.554
 2131POPC   PO429292   9.208  17.663   9.438
 2131POPC   GL129293   9.116  17.330   9.115
 2131POPC   GL229294   8.791  17.225   9.038
 2131POPC   C1A29295   9.050  17.503   8.694
 2131POPC   D2A29296   9.257  17.754   8.394
 2131POPC   C3A29297   9.046  17.667   8.018
 2131POPC   C4A29298   8.854  17.932   7.743
 2131POPC   C1B29299   8.578  17.632   8.858
 2131POPC   C2B29300   8.600  17.754   8.394
 2131POPC   C3B29301   8.483  17.617   7.948
 2131POPC   C4B29302   8.601  17.221   7.734
 2132POPC   NC329303  18.433  41.273   9.465
 2132POPC   PO429304  18.322  42.010   9.532
 2132POPC   GL129305  18.425  41.794   9.149
 2132POPC   GL229306  18.217  41.472   9.054
 2132POPC   C1A29307  18.473  41.753   8.706
 2132POPC   D2A29308  18.302  41.452   8.467
 2132POPC   C3A29309  18.393  41.340   8.044
 2132POPC   C4A29310  18.398  41.535   7.640
 2132POPC   C1B29311  17.964  41.782   8.845
 2132POPC   C2B29312  18.013  41.942   8.460
 2132POPC   C3B29313  18.198  41.823   8.081
 2132POPC   C4B29314  17.933  41.762   7.720
 2133POPC   NC329315  25.948  40.121   9.600
 2133POPC   PO429316  25.868  39.470   9.484
 2133POPC   GL129317  26.039  39.822   9.145
 2133POPC   GL229318  26.098  40.215   9.122
 2133POPC   C1A29319  26.026  39.891   8.684
 2133POPC   D2A29320  25.936  40.222   8.389
 2133POPC   C3A29321  25.798  39.954   8.067
 2133POPC   C4A29322  25.640  39.986   7.679
 2133POPC   C1B29323  26.389  40.216   8.773
 2133POPC   C2B29324  26.410  40.059   8.340
 2133POPC   C3B29325  26.283  40.128   7.915
 2133POPC   C4B29326  26.380  40.442   7.607
 2134POPC   NC329327  43.370  21.933   9.604
 2134POPC   PO429328  43.647  22.551   9.771
 2134POPC   GL129329  43.616  22.522   9.278
 2134POPC   GL229330  43.455  22.221   9.179
 2134POPC   C1A29331  43.721  22.478   8.819
 2134POPC   D2A29332  44.073  22.216   8.614
 2134POPC   C3A29333  44.115  22.185   8.163
 2134POPC   C4A29334  43.969  22.414   7.795
 2134POPC   C1B29335  43.636  21.975   8.829
 2134POPC   C2B29336  43.633  22.029   8.391
 2134POPC   C3B29337  43.716  21.938   7.974
 2134POPC   C4B29338  43.502  22.221   7.740
 2135POPC   NC329339  33.619  20.528   9.353
 2135POPC   PO429340  34.272  20.839   9.506
 2135POPC   GL129341  33.941  20.885   9.174
 2135POPC   GL229342  34.003  20.538   9.014
 2135POPC   C1A29343  33.676  20.858   8.796
 2135POPC   D2A29344  33.910  20.746   8.462
 2135POPC   C3A29345  33.725  20.803   8.096
 2135POPC   C4A29346  33.935  20.837   7.727
 2135POPC   C1B29347  33.740  20.326   8.689
 2135POPC   C2B29348  33.839  20.293   8.219
 2135POPC   C3B29349  33.719  20.371   7.792
 2135POPC   C4B29350  33.649  20.156   7.426
 2136POPC   NC329351  11.824  18.156   9.485
 2136POPC   PO429352  12.437  18.526   9.453
 2136POPC   GL129353  12.264  18.526   9.057
 2136POPC   GL229354  11.907  18.557   9.080
 2136POPC   C1A29355  12.150  18.597   8.634
 2136POPC   D2A29356  11.914  18.502   8.264
 2136POPC   C3A29357  12.025  18.636   7.804
 2136POPC   C4A29358  12.216  18.533   7.381
 2136POPC   C1B29359  11.877  18.179   8.829
 2136POPC   C2B29360  11.782  18.005   8.434
 2136POPC   C3B29361  12.038  18.035   8.077
 2136POPC   C4B29362  11.915  18.136   7.634
 2137POPC   NC329363  23.863   7.322   9.551
 2137POPC   PO429364  23.485   7.838   9.371
 2137POPC   GL129365  23.595   7.440   9.101
 2137POPC   GL229366  23.944   7.358   9.068
 2137POPC   C1A29367  23.589   7.215   8.684
 2137POPC   D2A29368  23.872   7.103   8.342
 2137POPC   C3A29369  23.829   7.275   7.921
 2137POPC   C4A29370  23.544   7.650   7.872
 2137POPC   C1B29371  24.043   7.438   8.679
 2137POPC   C2B29372  23.861   7.621   8.302
 2137POPC   C3B29373  24.054   7.721   7.895
 2137POPC   C4B29374  23.881   7.840   7.511
 2138POPC   NC329375  14.496  44.733   9.502
 2138POPC   PO429376  15.050   0.046   9.271
 2138POPC   GL129377  14.622  44.931   9.020
 2138POPC   GL229378  14.387  44.608   9.036
 2138POPC   C1A29379  14.437  44.802   8.580
 2138POPC   D2A29380  14.494  44.393   8.363
 2138POPC   C3A29381  14.640  44.494   7.956
 2138POPC   C4A29382  14.600  44.898   7.749
 2138POPC   C1B29383  14.104  44.403   8.724
 2138POPC   C2B29384  13.964  44.589   8.318
 2138POPC   C3B29385  14.129  44.635   7.899
 2138POPC   C4B29386  14.302  44.339   7.608
 2139POPC   NC329387  32.276  15.001   9.542
 2139POPC   PO429388  31.924  15.463   9.246
 2139POPC   GL129389  32.237  15.265   8.959
 2139POPC   GL229390  32.338  14.901   9.040
 2139POPC   C1A29391  32.343  15.376   8.504
 2139POPC   D2A29392  32.548  15.437   8.123
 2139POPC   C3A29393  32.344  15.404   7.770
 2139POPC   C4A29394  32.017  15.183   7.600
 2139POPC   C1B29395  32.288  14.863   8.621
 2139POPC   C2B29396  32.366  14.942   8.201
 2139POPC   C3B29397  32.305  14.817   7.811
 2139POPC   C4B29398  32.532  14.813   7.455
 2140POPC   NC329399  34.148  33.637   9.506
 2140POPC   PO429400  33.495  33.785   9.734
 2140POPC   GL129401  33.756  33.853   9.251
 2140POPC   GL229402  34.040  34.096   9.242
 2140POPC   C1A29403  33.738  33.943   8.778
 2140POPC   D2A29404  33.628  33.737   8.334
 2140POPC   C3A29405  33.667  33.832   7.877
 2140POPC   C4A29406  33.849  33.640   7.488
 2140POPC   C1B29407  34.237  34.070   8.860
 2140POPC   C2B29408  34.156  33.809   8.504
 2140POPC   C3B29409  34.112  33.952   8.105
 2140POPC   C4B29410  34.061  34.191   7.752
 2141POPC   NC329411   2.350  38.652   9.476
 2141POPC   PO429412   1.882  38.219   9.454
 2141POPC   GL129413   1.997  38.443   9.127
 2141POPC   GL229414   2.296  38.320   9.028
 2141POPC   C1A29415   1.899  38.578   8.729
 2141POPC   D2A29416   1.904  38.362   8.347
 2141POPC   C3A29417   2.012  38.556   7.959
 2141POPC   C4A29418   1.750  38.651   7.630
 2141POPC   C1B29419   2.396  38.431   8.607
 2141POPC   C2B29420   2.399  38.269   8.211
 2141POPC   C3B29421   2.103  38.050   7.938
 2141POPC   C4B29422   1.965  38.199   7.543
 2142POPC   NC329423  16.993  12.610   9.577
 2142POPC   PO429424  16.290  12.558   9.444
 2142POPC   GL129425  16.552  12.800   9.158
 2142POPC   GL229426  16.888  12.714   9.086
 2142POPC   C1A29427  16.622  13.035   8.779
 2142POPC   D2A29428  16.936  13.003   8.494
 2142POPC   C3A29429  16.830  13.126   8.093
 2142POPC   C4A29430  16.697  12.935   7.702
 2142POPC   C1B29431  16.707  12.547   8.689
 2142POPC   C2B29432  16.512  12.750   8.314
 2142POPC   C3B29433  16.538  12.494   7.952
 2142POPC   C4B29434  16.560  12.441   7.506
 2143POPC   NC329435   4.574  28.079   9.441
 2143POPC   PO429436   4.039  28.451   9.540
 2143POPC   GL129437   4.212  28.333   9.171
 2143POPC   GL229438   4.457  28.591   9.224
 2143POPC   C1A29439   4.441  28.382   8.767
 2143POPC   D2A29440   4.624  28.480   8.373
 2143POPC   C3A29441   4.476  28.222   8.018
 2143POPC   C4A29442   4.259  27.959   7.754
 2143POPC   C1B29443   4.174  28.796   8.935
 2143POPC   C2B29444   4.194  28.872   8.473
 2143POPC   C3B29445   4.279  28.713   8.044
 2143POPC   C4B29446   4.188  28.484   7.648
 2144POPC   NC329447  42.176  14.638   9.481
 2144POPC   PO429448  42.448  14.005   9.505
 2144POPC   GL129449  42.423  14.303   9.153
 2144POPC   GL229450  42.607  14.621   9.151
 2144POPC   C1A29451  42.145  14.486   8.841
 2144POPC   D2A29452  42.262  14.530   8.417
 2144POPC   C3A29453  42.130  14.315   8.060
 2144POPC   C4A29454  42.345  14.358   7.671
 2144POPC   C1B29455  42.685  14.586   8.733
 2144POPC   C2B29456  42.738  14.710   8.323
 2144POPC   C3B29457  42.776  14.534   7.897
 2144POPC   C4B29458  42.729  14.585   7.435
 2145POPC   NC329459  19.288  37.618   9.441
 2145POPC   PO429460  18.621  37.801   9.557
 2145POPC   GL129461  18.801  37.676   9.157
 2145POPC   GL229462  19.028  37.929   9.072
 2145POPC   C1A29463  18.950  37.491   8.740
 2145POPC   D2A29464  18.933  37.201   8.356
 2145POPC   C3A29465  18.848  37.348   7.975
 2145POPC   C4A29466  19.151  37.591   7.844
 2145POPC   C1B29467  19.190  38.039   8.654
 2145POPC   C2B29468  19.099  37.884   8.268
 2145POPC   C3B29469  18.743  37.866   8.026
 2145POPC   C4B29470  18.760  38.031   7.625
 2146POPC   NC329471  43.317   7.883   9.231
 2146POPC   PO429472  42.907   8.372   9.507
 2146POPC   GL129473  42.998   8.269   9.092
 2146POPC   GL229474  43.369   8.376   9.121
 2146POPC   C1A29475  42.946   8.052   8.667
 2146POPC   D2A29476  42.781   7.832   8.283
 2146POPC   C3A29477  42.851   8.040   7.904
 2146POPC   C4A29478  42.816   8.480   7.848
 2146POPC   C1B29479  43.287   8.437   8.695
 2146POPC   C2B29480  43.114   8.388   8.274
 2146POPC   C3B29481  43.319   8.313   7.888
 2146POPC   C4B29482  43.620   8.480   7.610
 2147POPC   NC329483  39.375   6.706   9.488
 2147POPC   PO429484  38.819   6.933   9.807
 2147POPC   GL129485  38.957   6.917   9.305
 2147POPC   GL229486  38.807   6.556   9.280
 2147POPC   C1A29487  39.341   6.861   8.882
 2147POPC   D2A29488  39.556   6.542   8.559
 2147POPC   C3A29489  39.512   6.597   8.098
 2147POPC   C4A29490  39.350   6.817   7.740
 2147POPC   C1B29491  38.860   6.711   8.862
 2147POPC   C2B29492  39.070   6.618   8.514
 2147POPC   C3B29493  39.013   6.726   8.138
 2147POPC   C4B29494  38.901   6.506   7.791
 2148POPC   NC329495  26.059  11.155   9.542
 2148POPC   PO429496  26.350  11.878   9.561
 2148POPC   GL129497  26.259  11.594   9.188
 2148POPC   GL229498  26.333  11.217   9.108
 2148POPC   C1A29499  26.120  11.531   8.744
 2148POPC   D2A29500  25.889  11.584   8.339
 2148POPC   C3A29501  26.009  11.509   7.908
 2148POPC   C4A29502  26.329  11.598   7.616
 2148POPC   C1B29503  26.294  11.025   8.677
 2148POPC   C2B29504  26.431  11.101   8.240
 2148POPC   C3B29505  26.292  11.084   7.809
 2148POPC   C4B29506  25.884  10.977   7.629
 2149POPC   NC329507   0.677  16.602   9.649
 2149POPC   PO429508   0.052  16.497   9.451
 2149POPC   GL129509   0.387  16.591   9.181
 2149POPC   GL229510   0.687  16.399   9.165
 2149POPC   C1A29511   0.394  16.665   8.750
 2149POPC   D2A29512   0.524  16.580   8.340
 2149POPC   C3A29513   0.397  16.840   7.998
 2149POPC   C4A29514   0.014  16.900   7.743
 2149POPC   C1B29515   0.859  16.455   8.745
 2149POPC   C2B29516   0.951  16.299   8.346
 2149POPC   C3B29517   0.858  16.478   7.962
 2149POPC   C4B29518   0.691  16.611   7.627
 2150POPC   NC329519  16.796   3.781   9.543
 2150POPC   PO429520  16.316   3.325   9.359
 2150POPC   GL129521  16.444   3.726   9.145
 2150POPC   GL229522  16.779   3.669   9.062
 2150POPC   C1A29523  16.540   3.888   8.691
 2150POPC   D2A29524  16.733   3.971   8.307
 2150POPC   C3A29525  16.588   3.792   7.930
 2150POPC   C4A29526  16.501   3.784   7.530
 2150POPC   C1B29527  16.885   3.534   8.652
 2150POPC   C2B29528  16.758   3.430   8.236
 2150POPC   C3B29529  16.848   3.394   7.789
 2150POPC   C4B29530  17.198   3.316   7.550
 2151POPC   NC329531  19.775  14.616   9.404
 2151POPC   PO429532  20.185  13.974   9.475
 2151POPC   GL129533  20.099  14.267   9.125
 2151POPC   GL229534  19.876  14.493   8.926
 2151POPC   C1A29535  20.273  14.319   8.691
 2151POPC   D2A29536  20.025  14.583   8.407
 2151POPC   C3A29537  19.861  14.320   8.123
 2151POPC   C4A29538  20.027  14.282   7.736
 2151POPC   C1B29539  19.736  14.878   8.756
 2151POPC   C2B29540  19.775  15.069   8.398
 2151POPC   C3B29541  19.749  14.896   8.041
 2151POPC   C4B29542  19.569  14.583   7.790
 2152POPC   NC329543   0.636   0.585   9.528
 2152POPC   PO429544   0.109   0.163   9.546
 2152POPC   GL129545   0.350   0.307   9.218
 2152POPC   GL229546   0.598   0.068   9.296
 2152POPC   C1A29547   0.495   0.585   8.880
 2152POPC   D2A29548   0.547   0.456   8.463
 2152POPC   C3A29549   0.502   0.669   8.085
 2152POPC   C4A29550   0.343   0.557   7.681
 2152POPC   C1B29551   0.622   0.063   8.857
 2152POPC   C2B29552   0.588  44.942   8.445
 2152POPC   C3B29553   0.435   0.130   8.076
 2152POPC   C4B29554   0.364   0.024   7.664
 2153POPC   NC329555  37.783  26.338   9.493
 2153POPC   PO429556  37.286  26.728   9.459
 2153POPC   GL129557  37.614  26.820   9.154
 2153POPC   GL229558  37.493  27.088   9.004
 2153POPC   C1A29559  37.841  26.827   8.711
 2153POPC   D2A29560  37.721  26.518   8.400
 2153POPC   C3A29561  37.895  26.442   8.025
 2153POPC   C4A29562  38.270  26.682   7.917
 2153POPC   C1B29563  37.491  27.271   8.623
 2153POPC   C2B29564  37.821  27.304   8.348
 2153POPC   C3B29565  37.889  26.952   8.126
 2153POPC   C4B29566  37.629  26.825   7.811
 2154POPC   NC329567  26.654   2.549   9.500
 2154POPC   PO429568  27.289   2.272   9.443
 2154POPC   GL129569  27.060   2.556   9.182
 2154POPC   GL229570  26.803   2.311   9.088
 2154POPC   C1A29571  26.734   2.765   8.888
 2154POPC   D2A29572  26.574   2.711   8.467
 2154POPC   C3A29573  26.899   2.940   8.213
 2154POPC   C4A29574  26.823   3.101   7.793
 2154POPC   C1B29575  27.007   2.347   8.684
 2154POPC   C2B29576  26.921   2.417   8.260
 2154POPC   C3B29577  26.687   2.600   7.908
 2154POPC   C4B29578  26.897   2.676   7.526
 2155POPC   NC329579   3.807  16.184   9.707
 2155POPC   PO429580   3.940  15.575   9.550
 2155POPC   GL129581   3.746  15.914   9.266
 2155POPC   GL229582   3.519  16.202   9.175
 2155POPC   C1A29583   3.795  15.951   8.828
 2155POPC   D2A29584   3.479  15.949   8.502
 2155POPC   C3A29585   3.459  15.739   8.108
 2155POPC   C4A29586   3.520  15.918   7.712
 2155POPC   C1B29587   3.213  16.258   8.845
 2155POPC   C2B29588   3.268  16.406   8.417
 2155POPC   C3B29589   3.345  16.408   7.973
 2155POPC   C4B29590   3.087  16.176   7.689
 2156POPC   NC329591  23.472   0.425   9.499
 2156POPC   PO429592  24.173   0.431   9.464
 2156POPC   GL129593  23.859   0.357   9.189
 2156POPC   GL229594  23.806   0.719   9.245
 2156POPC   C1A29595  23.582   0.265   8.856
 2156POPC   D2A29596  23.333   0.521   8.586
 2156POPC   C3A29597  23.447   0.421   8.164
 2156POPC   C4A29598  23.477   0.495   7.731
 2156POPC   C1B29599  23.708   0.779   8.836
 2156POPC   C2B29600  23.774   0.737   8.410
 2156POPC   C3B29601  23.910   0.618   7.983
 2156POPC   C4B29602  23.938   0.578   7.527
 2157POPC   NC329603  42.009  26.373   9.426
 2157POPC   PO429604  41.683  27.036   9.473
 2157POPC   GL129605  41.595  26.824   9.129
 2157POPC   GL229606  41.272  27.021   9.123
 2157POPC   C1A29607  41.472  26.596   8.787
 2157POPC   D2A29608  41.537  26.779   8.387
 2157POPC   C3A29609  41.734  26.523   8.099
 2157POPC   C4A29610  41.684  26.789   7.794
 2157POPC   C1B29611  41.107  26.936   8.745
 2157POPC   C2B29612  41.038  26.841   8.330
 2157POPC   C3B29613  41.180  26.769   7.944
 2157POPC   C4B29614  41.079  27.078   7.667
 2158POPC   NC329615  28.101  13.408   9.382
 2158POPC   PO429616  27.796  13.980   9.418
 2158POPC   GL129617  28.080  13.889   9.067
 2158POPC   GL229618  28.405  13.673   9.070
 2158POPC   C1A29619  28.189  13.762   8.641
 2158POPC   D2A29620  28.537  13.652   8.392
 2158POPC   C3A29621  28.426  13.809   7.996
 2158POPC   C4A29622  27.996  13.862   7.872
 2158POPC   C1B29623  28.348  13.296   8.730
 2158POPC   C2B29624  28.153  13.339   8.274
 2158POPC   C3B29625  28.353  13.331   7.839
 2158POPC   C4B29626  28.633  13.216   7.475
 2159POPC   NC329627  18.576  28.851   9.395
 2159POPC   PO429628  18.042  28.461   9.420
 2159POPC   GL129629  18.169  28.339   9.050
 2159POPC   GL229630  18.460  28.503   9.046
 2159POPC   C1A29631  18.058  28.440   8.670
 2159POPC   D2A29632  18.236  28.471   8.296
 2159POPC   C3A29633  17.971  28.508   7.940
 2159POPC   C4A29634  18.209  28.398   7.597
 2159POPC   C1B29635  18.663  28.534   8.684
 2159POPC   C2B29636  18.728  28.346   8.294
 2159POPC   C3B29637  18.600  28.548   7.906
 2159POPC   C4B29638  18.472  28.829   7.572
 2160POPC   NC329639   0.334  19.521   9.594
 2160POPC   PO429640   0.543  20.096   9.605
 2160POPC   GL129641   0.551  19.842   9.204
 2160POPC   GL229642   0.215  19.741   9.151
 2160POPC   C1A29643   0.616  19.865   8.742
 2160POPC   D2A29644   0.713  20.136   8.354
 2160POPC   C3A29645   0.542  20.076   7.928
 2160POPC   C4A29646   0.538  19.681   7.691
 2160POPC   C1B29647   0.079  19.826   8.737
 2160POPC   C2B29648   0.281  19.852   8.352
 2160POPC   C3B29649   0.131  19.767   8.000
 2160POPC   C4B29650   0.112  19.373   7.865
 2161POPC   NC329651  24.025  17.346   9.484
 2161POPC   PO429652  23.556  17.771   9.562
 2161POPC   GL129653  23.675  17.819   9.138
 2161POPC   GL229654  23.775  17.468   9.069
 2161POPC   C1A29655  23.889  17.828   8.736
 2161POPC   D2A29656  23.814  17.472   8.469
 2161POPC   C3A29657  23.850  17.561   8.049
 2161POPC   C4A29658  24.043  17.426   7.666
 2161POPC   C1B29659  23.650  17.121   8.802
 2161POPC   C2B29660  23.564  17.034   8.358
 2161POPC   C3B29661  23.411  17.286   8.024
 2161POPC   C4B29662  23.515  17.517   7.646
 2162POPC   NC329663  20.194   7.882   9.505
 2162POPC   PO429664  19.551   7.635   9.412
 2162POPC   GL129665  19.769   7.855   9.039
 2162POPC   GL229666  19.941   8.147   9.069
 2162POPC   C1A29667  19.879   7.980   8.607
 2162POPC   D2A29668  19.888   8.338   8.347
 2162POPC   C3A29669  19.952   8.171   7.928
 2162POPC   C4A29670  19.913   8.030   7.505
 2162POPC   C1B29671  19.574   8.328   8.819
 2162POPC   C2B29672  19.402   8.484   8.417
 2162POPC   C3B29673  19.537   8.483   7.962
 2162POPC   C4B29674  19.617   8.492   7.473
 2163POPC   NC329675  40.410  18.960   9.786
 2163POPC   PO429676  40.725  19.361   9.517
 2163POPC   GL129677  40.831  19.125   9.169
 2163POPC   GL229678  40.497  19.219   9.068
 2163POPC   C1A29679  40.739  18.922   8.753
 2163POPC   D2A29680  40.615  19.130   8.335
 2163POPC   C3A29681  40.672  18.890   7.939
 2163POPC   C4A29682  40.933  18.900   7.524
 2163POPC   C1B29683  40.806  19.416   8.745
 2163POPC   C2B29684  40.895  19.630   8.390
 2163POPC   C3B29685  41.158  19.577   8.065
 2163POPC   C4B29686  40.928  19.317   7.813
 2164POPC   NC329687  12.528  14.539   9.500
 2164POPC   PO429688  11.934  14.272   9.320
 2164POPC   GL129689  11.955  14.539   9.010
 2164POPC   GL229690  12.246  14.620   9.087
 2164POPC   C1A29691  12.013  14.409   8.576
 2164POPC   D2A29692  12.083  14.029   8.328
 2164POPC   C3A29693  12.041  14.113   7.888
 2164POPC   C4A29694  11.975  14.517   7.765
 2164POPC   C1B29695  12.432  14.647   8.736
 2164POPC   C2B29696  12.501  14.468   8.360
 2164POPC   C3B29697  12.463  14.639   7.990
 2164POPC   C4B29698  12.656  14.534   7.642
 2165POPC   NC329699  13.005  21.144   9.479
 2165POPC   PO429700  12.512  21.534   9.521
 2165POPC   GL129701  12.454  21.249   9.144
 2165POPC   GL229702  12.791  21.303   9.041
 2165POPC   C1A29703  12.529  21.086   8.682
 2165POPC   D2A29704  12.670  21.282   8.273
 2165POPC   C3A29705  12.966  21.094   7.970
 2165POPC   C4A29706  13.285  21.174   7.652
 2165POPC   C1B29707  12.580  21.587   8.717
 2165POPC   C2B29708  12.647  21.808   8.313
 2165POPC   C3B29709  12.689  21.793   7.853
 2165POPC   C4B29710  12.687  22.063   7.483
 2166POPC   NC329711  26.441   8.079   9.495
 2166POPC   PO429712  27.053   8.375   9.590
 2166POPC   GL129713  26.841   8.303   9.217
 2166POPC   GL229714  26.607   8.547   9.147
 2166POPC   C1A29715  26.891   8.090   8.827
 2166POPC   D2A29716  27.039   7.892   8.450
 2166POPC   C3A29717  26.873   7.999   8.091
 2166POPC   C4A29718  26.948   7.887   7.701
 2166POPC   C1B29719  26.877   8.601   8.785
 2166POPC   C2B29720  26.984   8.403   8.434
 2166POPC   C3B29721  26.934   8.478   8.056
 2166POPC   C4B29722  26.804   8.380   7.666
 2167POPC   NC329723  41.315  26.760   9.548
 2167POPC   PO429724  40.654  26.769   9.551
 2167POPC   GL129725  40.789  26.817   9.167
 2167POPC   GL229726  40.806  26.488   9.076
 2167POPC   C1A29727  40.597  26.949   8.802
 2167POPC   D2A29728  40.526  26.790   8.391
 2167POPC   C3A29729  40.659  26.901   7.988
 2167POPC   C4A29730  40.582  27.214   7.680
 2167POPC   C1B29731  40.864  26.485   8.644
 2167POPC   C2B29732  40.742  26.356   8.241
 2167POPC   C3B29733  40.805  26.449   7.812
 2167POPC   C4B29734  41.033  26.575   7.440
 2168POPC   NC329735   5.285  22.213   9.404
 2168POPC   PO429736   4.822  21.721   9.471
 2168POPC   GL129737   4.829  22.086   9.170
 2168POPC   GL229738   4.818  22.442   9.058
 2168POPC   C1A29739   5.079  22.140   8.756
 2168POPC   D2A29740   4.914  22.085   8.327
 2168POPC   C3A29741   5.111  21.983   7.919
 2168POPC   C4A29742   5.390  21.981   7.574
 2168POPC   C1B29743   4.735  22.515   8.605
 2168POPC   C2B29744   4.968  22.583   8.193
 2168POPC   C3B29745   5.062  22.547   7.733
 2168POPC   C4B29746   4.741  22.648   7.355
 2169POPC   NC329747  21.396  14.853   9.360
 2169POPC   PO429748  21.077  14.374   9.686
 2169POPC   GL129749  21.155  14.375   9.197
 2169POPC   GL229750  21.161  14.670   8.957
 2169POPC   C1A29751  21.373  14.259   8.777
 2169POPC   D2A29752  21.260  14.028   8.437
 2169POPC   C3A29753  21.101  14.129   8.080
 2169POPC   C4A29754  21.250  14.245   7.710
 2169POPC   C1B29755  21.644  14.681   8.821
 2169POPC   C2B29756  21.736  14.627   8.415
 2169POPC   C3B29757  21.543  14.467   8.073
 2169POPC   C4B29758  21.729  14.520   7.660
 2170POPC   NC329759   6.350   7.469   9.559
 2170POPC   PO429760   6.892   7.093   9.457
 2170POPC   GL129761   6.643   7.337   9.153
 2170POPC   GL229762   6.434   7.657   9.090
 2170POPC   C1A29763   6.390   7.147   8.856
 2170POPC   D2A29764   6.305   7.222   8.435
 2170POPC   C3A29765   6.618   7.123   8.135
 2170POPC   C4A29766   6.594   7.026   7.719
 2170POPC   C1B29767   6.349   7.953   8.759
 2170POPC   C2B29768   6.062   7.964   8.430
 2170POPC   C3B29769   6.188   7.705   8.105
 2170POPC   C4B29770   6.541   7.569   7.844
 2171POPC   NC329771  27.135  39.028   9.371
 2171POPC   PO429772  27.776  39.112   9.461
 2171POPC   GL129773  27.610  39.166   9.062
 2171POPC   GL229774  27.916  39.317   9.010
 2171POPC   C1A29775  27.645  39.159   8.582
 2171POPC   D2A29776  27.428  39.363   8.213
 2171POPC   C3A29777  27.387  39.079   7.889
 2171POPC   C4A29778  27.785  38.882   7.841
 2171POPC   C1B29779  27.668  39.624   8.820
 2171POPC   C2B29780  27.834  39.638   8.449
 2171POPC   C3B29781  27.934  39.339   8.117
 2171POPC   C4B29782  27.761  39.421   7.757
 2172POPC   NC329783  15.181  21.816   9.945
 2172POPC   PO429784  15.186  21.319   9.562
 2172POPC   GL129785  15.132  21.348   9.088
 2172POPC   GL229786  15.384  21.139   8.993
 2172POPC   C1A29787  15.227  21.571   8.654
 2172POPC   D2A29788  15.300  21.819   8.248
 2172POPC   C3A29789  15.353  21.608   7.823
 2172POPC   C4A29790  15.076  21.615   7.430
 2172POPC   C1B29791  15.273  21.080   8.546
 2172POPC   C2B29792  15.165  21.299   8.169
 2172POPC   C3B29793  14.830  21.388   7.826
 2172POPC   C4B29794  14.727  21.177   7.423
 2173POPC   NC329795  17.510  12.328   9.649
 2173POPC   PO429796  17.652  11.734   9.485
 2173POPC   GL129797  17.469  11.943   9.162
 2173POPC   GL229798  17.610  12.232   9.165
 2173POPC   C1A29799  17.518  11.882   8.736
 2173POPC   D2A29800  17.347  12.052   8.364
 2173POPC   C3A29801  17.456  12.315   8.025
 2173POPC   C4A29802  17.486  12.044   7.679
 2173POPC   C1B29803  17.764  12.323   8.773
 2173POPC   C2B29804  17.874  12.128   8.433
 2173POPC   C3B29805  17.932  12.119   8.028
 2173POPC   C4B29806  17.860  12.378   7.688
 2174POPC   NC329807   3.586  44.446   9.552
 2174POPC   PO429808   3.443   0.120   9.556
 2174POPC   GL129809   3.374  44.825   9.184
 2174POPC   GL229810   3.235  44.470   9.195
 2174POPC   C1A29811   3.642  44.749   8.792
 2174POPC   D2A29812   3.857  44.836   8.370
 2174POPC   C3A29813   3.669  44.737   7.968
 2174POPC   C4A29814   3.771  44.500   7.569
 2174POPC   C1B29815   3.340  44.316   8.790
 2174POPC   C2B29816   3.357  44.541   8.406
 2174POPC   C3B29817   3.158  44.698   8.046
 2174POPC   C4B29818   3.287  44.702   7.621
 2175POPC   NC329819  11.677   0.533   9.491
 2175POPC   PO429820  12.342   0.461   9.457
 2175POPC   GL129821  12.083   0.438   9.136
 2175POPC   GL229822  11.820   0.221   9.076
 2175POPC   C1A29823  12.225   0.328   8.743
 2175POPC   D2A29824  12.221   0.500   8.364
 2175POPC   C3A29825  12.144   0.266   8.022
 2175POPC   C4A29826  12.230   0.505   7.709
 2175POPC   C1B29827  11.668   0.337   8.661
 2175POPC   C2B29828  11.723   0.494   8.248
 2175POPC   C3B29829  11.709   0.407   7.809
 2175POPC   C4B29830  11.830   0.604   7.414
 2176POPC   NC329831  14.565  35.497   9.658
 2176POPC   PO429832  14.152  34.971   9.509
 2176POPC   GL129833  14.452  35.133   9.187
 2176POPC   GL229834  14.543  35.496   9.157
 2176POPC   C1A29835  14.543  35.181   8.740
 2176POPC   D2A29836  14.282  35.233   8.424
 2176POPC   C3A29837  14.437  35.196   8.054
 2176POPC   C4A29838  14.247  35.290   7.694
 2176POPC   C1B29839  14.609  35.709   8.785
 2176POPC   C2B29840  14.589  35.624   8.363
 2176POPC   C3B29841  14.231  35.682   8.112
 2176POPC   C4B29842  14.297  35.816   7.723
 2177POPC   NC329843  18.017   8.383   9.491
 2177POPC   PO429844  18.021   7.750   9.374
 2177POPC   GL129845  18.212   8.073   9.094
 2177POPC   GL229846  18.477   8.265   9.220
 2177POPC   C1A29847  18.072   8.422   8.811
 2177POPC   D2A29848  17.839   8.481   8.422
 2177POPC   C3A29849  18.084   8.397   8.056
 2177POPC   C4A29850  18.048   8.121   7.687
 2177POPC   C1B29851  18.600   8.397   8.819
 2177POPC   C2B29852  18.425   8.553   8.434
 2177POPC   C3B29853  18.636   8.519   8.049
 2177POPC   C4B29854  18.463   8.424   7.705
 2178POPC   NC329855  26.251  14.734   9.661
 2178POPC   PO429856  25.865  14.176   9.543
 2178POPC   GL129857  26.050  14.430   9.218
 2178POPC   GL229858  25.855  14.690   9.221
 2178POPC   C1A29859  26.135  14.588   8.798
 2178POPC   D2A29860  26.148  14.404   8.391
 2178POPC   C3A29861  26.125  14.572   7.993
 2178POPC   C4A29862  26.184  14.243   7.746
 2178POPC   C1B29863  25.681  14.855   8.810
 2178POPC   C2B29864  25.754  14.757   8.358
 2178POPC   C3B29865  25.666  14.754   7.901
 2178POPC   C4B29866  25.881  14.578   7.515
 2179POPC   NC329867  33.323  34.648   9.580
 2179POPC   PO429868  32.712  34.536   9.717
 2179POPC   GL129869  32.872  34.689   9.331
 2179POPC   GL229870  33.038  34.421   9.217
 2179POPC   C1A29871  32.932  34.808   8.901
 2179POPC   D2A29872  32.774  34.812   8.478
 2179POPC   C3A29873  33.042  34.737   8.122
 2179POPC   C4A29874  32.911  34.852   7.708
 2179POPC   C1B29875  32.866  34.262   8.823
 2179POPC   C2B29876  32.834  34.299   8.356
 2179POPC   C3B29877  32.895  34.304   7.890
 2179POPC   C4B29878  33.142  34.010   7.642
 2180POPC   NC329879  21.865  43.608   9.475
 2180POPC   PO429880  22.165  43.019   9.319
 2180POPC   GL129881  22.048  43.367   9.066
 2180POPC   GL229882  21.722  43.279   8.987
 2180POPC   C1A29883  22.114  43.430   8.646
 2180POPC   D2A29884  22.001  43.232   8.261
 2180POPC   C3A29885  22.153  43.321   7.850
 2180POPC   C4A29886  22.040  43.280   7.419
 2180POPC   C1B29887  21.978  42.946   8.723
 2180POPC   C2B29888  22.178  42.702   8.397
 2180POPC   C3B29889  22.241  42.845   7.994
 2180POPC   C4B29890  21.987  42.828   7.667
 2181POPC   NC329891  43.593  25.349   9.447
 2181POPC   PO429892  44.132  25.157   9.854
 2181POPC   GL129893  44.146  25.178   9.337
 2181POPC   GL229894  43.891  24.978   9.224
 2181POPC   C1A29895  43.978  25.347   8.893
 2181POPC   D2A29896  44.134  25.446   8.454
 2181POPC   C3A29897  44.075  25.170   8.083
 2181POPC   C4A29898  43.854  25.218   7.709
 2181POPC   C1B29899  43.735  24.885   8.822
 2181POPC   C2B29900  43.699  25.071   8.408
 2181POPC   C3B29901  43.650  24.840   8.000
 2181POPC   C4B29902  43.573  24.766   7.560
 2182POPC   NC329903  28.578  28.055   9.444
 2182POPC   PO429904  28.030  28.490   9.606
 2182POPC   GL129905  28.222  28.339   9.244
 2182POPC   GL229906  28.105  27.998   9.313
 2182POPC   C1A29907  28.417  28.169   8.824
 2182POPC   D2A29908  28.407  28.253   8.371
 2182POPC   C3A29909  28.723  28.161   8.054
 2182POPC   C4A29910  28.814  28.470   7.742
 2182POPC   C1B29911  27.950  28.053   8.935
 2182POPC   C2B29912  27.929  28.187   8.558
 2182POPC   C3B29913  27.930  28.230   8.125
 2182POPC   C4B29914  28.254  28.140   7.845
 2183POPC   NC329915  10.235  40.231   9.461
 2183POPC   PO429916  10.597  39.639   9.581
 2183POPC   GL129917  10.581  39.848   9.180
 2183POPC   GL229918  10.702  40.189   9.128
 2183POPC   C1A29919  10.654  39.697   8.768
 2183POPC   D2A29920  10.529  39.734   8.318
 2183POPC   C3A29921  10.756  39.870   7.909
 2183POPC   C4A29922  10.690  39.879   7.441
 2183POPC   C1B29923  10.486  40.158   8.705
 2183POPC   C2B29924  10.653  40.243   8.280
 2183POPC   C3B29925  10.465  40.277   7.833
 2183POPC   C4B29926  10.208  40.463   7.509
 2184POPC   NC329927  15.493  10.838   9.893
 2184POPC   PO429928  15.834  10.312   9.751
 2184POPC   GL129929  15.695  10.370   9.285
 2184POPC   GL229930  15.853  10.688   9.104
 2184POPC   C1A29931  15.709  10.303   8.809
 2184POPC   D2A29932  15.845  10.581   8.449
 2184POPC   C3A29933  15.687  10.432   8.039
 2184POPC   C4A29934  15.922  10.300   7.683
 2184POPC   C1B29935  16.256  10.625   8.844
 2184POPC   C2B29936  16.425  10.625   8.415
 2184POPC   C3B29937  16.185  10.612   8.029
 2184POPC   C4B29938  16.186  10.722   7.589
 2185POPC   NC329939  42.147  20.681   9.468
 2185POPC   PO429940  42.756  20.584   9.418
 2185POPC   GL129941  42.646  20.683   9.036
 2185POPC   GL229942  42.281  20.815   9.007
 2185POPC   C1A29943  42.615  20.390   8.709
 2185POPC   D2A29944  42.694  20.149   8.351
 2185POPC   C3A29945  42.400  20.249   8.028
 2185POPC   C4A29946  42.239  20.394   7.632
 2185POPC   C1B29947  42.395  20.871   8.606
 2185POPC   C2B29948  42.502  20.755   8.224
 2185POPC   C3B29949  42.257  20.851   7.884
 2185POPC   C4B29950  41.896  20.791   7.667
 2186POPC   NC329951  41.743   4.635   9.170
 2186POPC   PO429952  41.577   5.167   9.595
 2186POPC   GL129953  41.489   5.078   9.185
 2186POPC   GL229954  41.246   4.823   9.218
 2186POPC   C1A29955  41.612   5.269   8.804
 2186POPC   D2A29956  41.934   5.221   8.494
 2186POPC   C3A29957  41.832   5.395   8.094
 2186POPC   C4A29958  41.647   5.403   7.676
 2186POPC   C1B29959  41.148   4.808   8.802
 2186POPC   C2B29960  41.383   4.929   8.447
 2186POPC   C3B29961  41.390   5.102   8.040
 2186POPC   C4B29962  41.571   4.879   7.689
 2187POPC   NC329963  24.974  23.844   9.500
 2187POPC   PO429964  25.412  23.341   9.273
 2187POPC   GL129965  25.351  23.673   9.079
 2187POPC   GL229966  25.017  23.602   9.069
 2187POPC   C1A29967  25.265  23.907   8.716
 2187POPC   D2A29968  25.141  24.114   8.362
 2187POPC   C3A29969  25.358  23.958   8.035
 2187POPC   C4A29970  25.264  23.872   7.663
 2187POPC   C1B29971  25.048  23.413   8.699
 2187POPC   C2B29972  25.076  23.595   8.325
 2187POPC   C3B29973  25.262  23.438   7.986
 2187POPC   C4B29974  25.144  23.398   7.603
 2188POPC   NC329975  35.184   7.048   9.344
 2188POPC   PO429976  35.528   7.629   9.438
 2188POPC   GL129977  35.433   7.437   9.101
 2188POPC   GL229978  35.085   7.519   9.051
 2188POPC   C1A29979  35.498   7.204   8.725
 2188POPC   D2A29980  35.507   6.979   8.339
 2188POPC   C3A29981  35.365   7.294   8.059
 2188POPC   C4A29982  35.402   7.399   7.664
 2188POPC   C1B29983  35.367   7.707   8.696
 2188POPC   C2B29984  35.539   7.700   8.302
 2188POPC   C3B29985  35.576   7.813   7.890
 2188POPC   C4B29986  35.685   7.938   7.457
 2189POPC   NC329987  27.378  12.824   9.563
 2189POPC   PO429988  27.872  12.378   9.507
 2189POPC   GL129989  27.769  12.702   9.199
 2189POPC   GL229990  28.005  12.975   9.146
 2189POPC   C1A29991  27.517  12.970   8.915
 2189POPC   D2A29992  27.327  13.164   8.546
 2189POPC   C3A29993  27.530  13.016   8.191
 2189POPC   C4A29994  27.531  12.791   7.832
 2189POPC   C1B29995  28.012  12.886   8.723
 2189POPC   C2B29996  27.882  12.673   8.351
 2189POPC   C3B29997  27.867  12.447   7.983
 2189POPC   C4B29998  27.958  12.665   7.585
 2190POPC   NC329999  21.712  27.684   9.473
 2190POPC   PO430000  22.385  27.707   9.550
 2190POPC   GL130001  22.414  27.453   9.175
 2190POPC   GL230002  22.097  27.272   9.158
 2190POPC   C1A30003  22.314  27.531   8.749
 2190POPC   D2A30004  22.107  27.541   8.338
 2190POPC   C3A30005  22.382  27.693   8.017
 2190POPC   C4A30006  22.543  27.475   7.696
 2190POPC   C1B30007  21.928  27.205   8.705
 2190POPC   C2B30008  21.760  27.060   8.304
 2190POPC   C3B30009  21.861  27.197   7.902
 2190POPC   C4B30010  21.942  27.610   7.741
 2191POPC   NC330011  29.009  12.231   9.475
 2191POPC   PO430012  29.700  12.306   9.372
 2191POPC   GL130013  29.354  12.096   9.113
 2191POPC   GL230014  29.074  11.815   9.195
 2191POPC   C1A30015  29.047  12.166   8.788
 2191POPC   D2A30016  29.059  12.336   8.364
 2191POPC   C3A30017  29.420  12.142   8.139
 2191POPC   C4A30018  29.398  12.093   7.672
 2191POPC   C1B30019  28.890  11.666   8.811
 2191POPC   C2B30020  28.984  11.833   8.398
 2191POPC   C3B30021  28.981  11.969   7.961
 2191POPC   C4B30022  29.006  11.808   7.520
 2192POPC   NC330023  28.967   5.032   9.506
 2192POPC   PO430024  29.685   4.823   9.490
 2192POPC   GL130025  29.337   4.872   9.164
 2192POPC   GL230026  29.117   5.172   9.052
 2192POPC   C1A30027  29.232   4.815   8.709
 2192POPC   D2A30028  29.494   4.767   8.336
 2192POPC   C3A30029  29.273   4.806   7.970
 2192POPC   C4A30030  28.850   4.903   7.826
 2192POPC   C1B30031  29.007   5.407   8.680
 2192POPC   C2B30032  29.237   5.295   8.297
 2192POPC   C3B30033  29.163   5.286   7.865
 2192POPC   C4B30034  28.824   5.487   7.646
 2193POPC   NC330035   1.892  17.702   9.457
 2193POPC   PO430036   2.347  17.189   9.361
 2193POPC   GL130037   1.960  17.288   9.082
 2193POPC   GL230038   1.750  17.610   8.991
 2193POPC   C1A30039   1.892  17.316   8.631
 2193POPC   D2A30040   1.644  17.489   8.339
 2193POPC   C3A30041   1.732  17.349   7.921
 2193POPC   C4A30042   2.103  17.561   7.764
 2193POPC   C1B30043   1.504  17.851   8.678
 2193POPC   C2B30044   1.399  17.940   8.270
 2193POPC   C3B30045   1.743  17.880   7.977
 2193POPC   C4B30046   1.704  17.764   7.527
 2194POPC   NC330047  10.353  15.361   9.442
 2194POPC   PO430048  10.960  15.125   9.562
 2194POPC   GL130049  10.813  14.924   9.161
 2194POPC   GL230050  10.476  14.889   9.242
 2194POPC   C1A30051  10.692  15.033   8.724
 2194POPC   D2A30052  10.456  15.298   8.423
 2194POPC   C3A30053  10.705  15.214   8.075
 2194POPC   C4A30054  10.768  14.876   7.838
 2194POPC   C1B30055  10.224  14.976   8.889
 2194POPC   C2B30056  10.195  14.850   8.458
 2194POPC   C3B30057  10.291  14.862   8.046
 2194POPC   C4B30058  10.315  15.114   7.711
 2195POPC   NC330059  30.674  32.922   9.587
 2195POPC   PO430060  31.221  32.557   9.546
 2195POPC   GL130061  30.962  32.771   9.176
 2195POPC   GL230062  30.625  32.884   9.100
 2195POPC   C1A30063  30.965  33.089   8.804
 2195POPC   D2A30064  30.888  32.942   8.397
 2195POPC   C3A30065  30.872  33.167   7.996
 2195POPC   C4A30066  30.692  33.230   7.548
 2195POPC   C1B30067  30.463  32.810   8.702
 2195POPC   C2B30068  30.334  32.712   8.299
 2195POPC   C3B30069  30.420  32.900   7.920
 2195POPC   C4B30070  30.769  32.758   7.705
 2196POPC   NC330071  30.418  38.074   9.412
 2196POPC   PO430072  31.032  37.761   9.391
 2196POPC   GL130073  30.815  37.502   9.092
 2196POPC   GL230074  30.459  37.439   9.181
 2196POPC   C1A30075  30.757  37.560   8.656
 2196POPC   D2A30076  30.499  37.751   8.335
 2196POPC   C3A30077  30.781  37.864   8.002
 2196POPC   C4A30078  30.774  37.780   7.549
 2196POPC   C1B30079  30.275  37.475   8.761
 2196POPC   C2B30080  30.435  37.263   8.383
 2196POPC   C3B30081  30.610  37.373   7.980
 2196POPC   C4B30082  30.359  37.428   7.619
 2197POPC   NC330083  11.599   8.746   9.667
 2197POPC   PO430084  11.489   9.363   9.653
 2197POPC   GL130085  11.398   9.186   9.249
 2197POPC   GL230086  11.036   9.222   9.084
 2197POPC   C1A30087  11.449   9.108   8.814
 2197POPC   D2A30088  11.592   9.327   8.463
 2197POPC   C3A30089  11.602   9.143   8.073
 2197POPC   C4A30090  11.280   9.174   7.777
 2197POPC   C1B30091  11.047   9.392   8.626
 2197POPC   C2B30092  10.825   9.434   8.215
 2197POPC   C3B30093  10.726   9.236   7.812
 2197POPC   C4B30094  10.906   9.004   7.441
 2198POPC   NC330095  17.558   7.766   9.437
 2198POPC   PO430096  17.557   8.415   9.560
 2198POPC   GL130097  17.372   8.202   9.219
 2198POPC   GL230098  17.714   8.185   9.110
 2198POPC   C1A30099  17.398   7.920   8.825
 2198POPC   D2A30100  17.691   7.986   8.505
 2198POPC   C3A30101  17.504   8.082   8.113
 2198POPC   C4A30102  17.372   8.034   7.686
 2198POPC   C1B30103  17.524   8.510   8.837
 2198POPC   C2B30104  17.315   8.447   8.440
 2198POPC   C3B30105  17.362   8.598   8.042
 2198POPC   C4B30106  17.648   8.456   7.767
 2199POPC   NC330107  31.941  44.716   9.495
 2199POPC   PO430108  32.413  44.388   9.848
 2199POPC   GL130109  32.410  44.476   9.322
 2199POPC   GL230110  32.207  44.691   9.060
 2199POPC   C1A30111  32.603  44.407   8.876
 2199POPC   D2A30112  32.818  44.382   8.449
 2199POPC   C3A30113  32.537  44.577   8.181
 2199POPC   C4A30114  32.410  44.792   7.833
 2199POPC   C1B30115  31.966  44.977   8.756
 2199POPC   C2B30116  31.846   0.101   8.326
 2199POPC   C3B30117  31.884  44.922   7.920
 2199POPC   C4B30118  31.979  44.519   7.728
 2200POPC   NC330119  16.467  16.610   9.350
 2200POPC   PO430120  16.858  17.124   9.470
 2200POPC   GL130121  16.885  16.850   9.091
 2200POPC   GL230122  16.898  16.473   9.093
 2200POPC   C1A30123  16.676  16.834   8.676
 2200POPC   D2A30124  16.467  17.039   8.316
 2200POPC   C3A30125  16.645  16.874   7.938
 2200POPC   C4A30126  17.072  16.817   7.788
 2200POPC   C1B30127  16.820  16.337   8.682
 2200POPC   C2B30128  16.962  16.540   8.315
 2200POPC   C3B30129  16.842  16.399   7.917
 2200POPC   C4B30130  16.447  16.451   7.670
 2201POPC   NC330131  42.791  14.323   9.529
 2201POPC   PO430132  43.350  14.719   9.640
 2201POPC   GL130133  43.113  14.623   9.293
 2201POPC   GL230134  43.177  14.271   9.180
 2201POPC   C1A30135  43.159  14.713   8.867
 2201POPC   D2A30136  43.152  14.457   8.467
 2201POPC   C3A30137  43.237  14.672   8.077
 2201POPC   C4A30138  43.183  14.714   7.634
 2201POPC   C1B30139  42.849  14.131   8.865
 2201POPC   C2B30140  42.711  14.193   8.408
 2201POPC   C3B30141  43.002  14.098   8.049
 2201POPC   C4B30142  42.912  14.121   7.596
 2202POPC   NC330143  30.395  38.856   9.424
 2202POPC   PO430144  30.798  38.357   9.484
 2202POPC   GL130145  30.579  38.495   9.113
 2202POPC   GL230146  30.793  38.791   9.037
 2202POPC   C1A30147  30.365  38.347   8.717
 2202POPC   D2A30148  30.411  38.235   8.260
 2202POPC   C3A30149  30.810  38.396   8.086
 2202POPC   C4A30150  30.850  38.263   7.679
 2202POPC   C1B30151  30.437  38.853   8.750
 2202POPC   C2B30152  30.340  38.718   8.338
 2202POPC   C3B30153  30.417  38.620   7.858
 2202POPC   C4B30154  30.704  38.731   7.497
 2203POPC   NC330155   6.964   0.851   9.447
 2203POPC   PO430156   6.406   1.265   9.543
 2203POPC   GL130157   6.526   1.353   9.148
 2203POPC   GL230158   6.654   1.037   9.081
 2203POPC   C1A30159   6.495   1.414   8.720
 2203POPC   D2A30160   6.685   1.208   8.363
 2203POPC   C3A30161   6.596   1.394   7.987
 2203POPC   C4A30162   6.549   1.295   7.532
 2203POPC   C1B30163   6.809   0.849   8.706
 2203POPC   C2B30164   6.942   0.750   8.276
 2203POPC   C3B30165   6.759   0.928   7.888
 2203POPC   C4B30166   6.924   0.945   7.461
 2204POPC   NC330167   6.981  43.741   9.490
 2204POPC   PO430168   7.570  43.574   9.566
 2204POPC   GL130169   7.436  43.892   9.259
 2204POPC   GL230170   7.681  44.145   9.200
 2204POPC   C1A30171   7.207  44.016   8.873
 2204POPC   D2A30172   6.984  44.012   8.474
 2204POPC   C3A30173   7.201  43.775   8.154
 2204POPC   C4A30174   7.324  43.820   7.723
 2204POPC   C1B30175   7.709  44.077   8.747
 2204POPC   C2B30176   7.465  44.142   8.399
 2204POPC   C3B30177   7.548  44.211   7.976
 2204POPC   C4B30178   7.806  43.826   7.897
 2205POPC   NC330179  25.897  33.129   9.667
 2205POPC   PO430180  26.232  32.657   9.583
 2205POPC   GL130181  25.961  32.887   9.202
 2205POPC   GL230182  25.768  33.228   9.183
 2205POPC   C1A30183  25.856  32.883   8.725
 2205POPC   D2A30184  25.913  32.769   8.256
 2205POPC   C3A30185  26.125  33.027   7.918
 2205POPC   C4A30186  26.491  32.939   7.613
 2205POPC   C1B30187  25.869  33.396   8.790
 2205POPC   C2B30188  25.969  33.301   8.359
 2205POPC   C3B30189  25.786  33.432   7.971
 2205POPC   C4B30190  25.875  33.322   7.539
 2206POPC   NC330191  34.836  30.472   9.396
 2206POPC   PO430192  35.479  30.468   9.466
 2206POPC   GL130193  35.289  30.558   9.095
 2206POPC   GL230194  35.233  30.904   9.066
 2206POPC   C1A30195  35.219  30.618   8.657
 2206POPC   D2A30196  35.174  30.811   8.258
 2206POPC   C3A30197  35.376  30.590   7.957
 2206POPC   C4A30198  35.310  30.504   7.504
 2206POPC   C1B30199  35.177  31.143   8.684
 2206POPC   C2B30200  34.884  31.231   8.328
 2206POPC   C3B30201  34.913  31.181   7.897
 2206POPC   C4B30202  35.287  31.004   7.720
 2207POPC   NC330203  15.652   9.913   9.590
 2207POPC   PO430204  16.179  10.131   9.318
 2207POPC   GL130205  15.929   9.888   9.130
 2207POPC   GL230206  16.058   9.546   9.195
 2207POPC   C1A30207  15.954   9.816   8.708
 2207POPC   D2A30208  15.871   9.632   8.341
 2207POPC   C3A30209  15.864   9.896   8.006
 2207POPC   C4A30210  16.210   9.882   7.748
 2207POPC   C1B30211  15.663   9.477   8.962
 2207POPC   C2B30212  15.564   9.290   8.561
 2207POPC   C3B30213  15.625   9.258   8.102
 2207POPC   C4B30214  15.695   9.497   7.722
 2208POPC   NC330215  27.527  42.909   9.542
 2208POPC   PO430216  27.953  43.420   9.555
 2208POPC   GL130217  27.721  43.229   9.197
 2208POPC   GL230218  27.463  43.427   9.306
 2208POPC   C1A30219  27.736  42.955   8.770
 2208POPC   D2A30220  27.923  42.774   8.356
 2208POPC   C3A30221  27.710  42.940   7.962
 2208POPC   C4A30222  27.587  43.124   7.541
 2208POPC   C1B30223  27.430  43.360   8.822
 2208POPC   C2B30224  27.455  43.192   8.377
 2208POPC   C3B30225  27.443  43.395   7.955
 2208POPC   C4B30226  27.215  43.499   7.542
 2209POPC   NC330227   3.780  11.306   9.554
 2209POPC   PO430228   3.133  11.233   9.588
 2209POPC   GL130229   3.364  11.076   9.218
 2209POPC   GL230230   3.647  11.240   9.075
 2209POPC   C1A30231   3.245  11.084   8.771
 2209POPC   D2A30232   3.344  11.069   8.340
 2209POPC   C3A30233   3.162  11.342   8.015
 2209POPC   C4A30234   3.133  11.272   7.583
 2209POPC   C1B30235   3.801  11.196   8.653
 2209POPC   C2B30236   3.843  11.029   8.238
 2209POPC   C3B30237   3.613  11.145   7.866
 2209POPC   C4B30238   3.545  11.625   7.834
 2210POPC   NC330239  21.827  35.162   9.369
 2210POPC   PO430240  21.329  35.570   9.595
 2210POPC   GL130241  21.393  35.381   9.186
 2210POPC   GL230242  21.378  35.001   9.183
 2210POPC   C1A30243  21.269  35.333   8.758
 2210POPC   D2A30244  21.301  35.103   8.390
 2210POPC   C3A30245  21.315  35.369   8.073
 2210POPC   C4A30246  21.306  35.417   7.660
 2210POPC   C1B30247  21.536  34.895   8.803
 2210POPC   C2B30248  21.800  35.043   8.488
 2210POPC   C3B30249  21.709  34.954   8.075
 2210POPC   C4B30250  21.644  35.065   7.666
 2211POPC   NC330251  22.523  17.619   9.729
 2211POPC   PO430252  21.890  17.557   9.860
 2211POPC   GL130253  22.090  17.605   9.410
 2211POPC   GL230254  22.346  17.868   9.330
 2211POPC   C1A30255  22.047  17.605   8.939
 2211POPC   D2A30256  21.889  17.827   8.551
 2211POPC   C3A30257  21.870  17.591   8.135
 2211POPC   C4A30258  22.163  17.288   7.964
 2211POPC   C1B30259  22.508  17.835   8.908
 2211POPC   C2B30260  22.387  17.605   8.518
 2211POPC   C3B30261  22.342  17.746   8.116
 2211POPC   C4B30262  22.531  17.790   7.762
 2212POPC   NC330263  33.467   4.492   9.883
 2212POPC   PO430264  32.874   4.440   9.500
 2212POPC   GL130265  32.882   4.414   9.085
 2212POPC   GL230266  33.188   4.528   8.982
 2212POPC   C1A30267  32.601   4.485   8.754
 2212POPC   D2A30268  32.665   4.645   8.331
 2212POPC   C3A30269  32.703   4.336   8.012
 2212POPC   C4A30270  32.775   4.230   7.565
 2212POPC   C1B30271  33.101   4.429   8.595
 2212POPC   C2B30272  33.193   4.319   8.218
 2212POPC   C3B30273  33.165   4.436   7.823
 2212POPC   C4B30274  33.248   4.454   7.371
 2213POPC   NC330275  23.526  40.980   9.406
 2213POPC   PO430276  23.989  40.594   9.571
 2213POPC   GL130277  23.779  40.616   9.167
 2213POPC   GL230278  23.865  40.972   9.023
 2213POPC   C1A30279  23.604  40.598   8.743
 2213POPC   D2A30280  23.828  40.752   8.358
 2213POPC   C3A30281  23.714  40.592   7.953
 2213POPC   C4A30282  23.799  40.848   7.592
 2213POPC   C1B30283  23.489  41.118   8.755
 2213POPC   C2B30284  23.359  40.948   8.350
 2213POPC   C3B30285  23.506  41.065   7.943
 2213POPC   C4B30286  23.471  41.221   7.493
 2214POPC   NC330287  12.527   8.752   9.296
 2214POPC   PO430288  12.037   8.895   9.718
 2214POPC   GL130289  11.919   8.973   9.272
 2214POPC   GL230290  12.149   9.239   9.188
 2214POPC   C1A30291  11.955   9.035   8.783
 2214POPC   D2A30292  12.091   9.248   8.397
 2214POPC   C3A30293  12.091   8.886   8.128
 2214POPC   C4A30294  11.824   8.757   7.782
 2214POPC   C1B30295  12.374   9.355   8.822
 2214POPC   C2B30296  12.624   9.320   8.439
 2214POPC   C3B30297  12.470   9.263   8.042
 2214POPC   C4B30298  12.432   8.946   7.761
 2215POPC   NC330299   2.468  26.885   9.590
 2215POPC   PO430300   3.048  26.896   9.614
 2215POPC   GL130301   2.761  26.787   9.163
 2215POPC   GL230302   2.481  27.046   9.113
 2215POPC   C1A30303   2.912  26.592   8.702
 2215POPC   D2A30304   2.963  26.532   8.236
 2215POPC   C3A30305   2.922  26.769   7.827
 2215POPC   C4A30306   2.961  26.612   7.367
 2215POPC   C1B30307   2.591  26.982   8.697
 2215POPC   C2B30308   2.453  26.781   8.325
 2215POPC   C3B30309   2.392  26.952   7.906
 2215POPC   C4B30310   2.557  26.908   7.501
 2216POPC   NC330311  12.368  25.095   9.432
 2216POPC   PO430312  12.213  25.685   9.570
 2216POPC   GL130313  12.281  25.528   9.155
 2216POPC   GL230314  11.969  25.305   9.180
 2216POPC   C1A30315  12.116  25.513   8.714
 2216POPC   D2A30316  12.130  25.341   8.275
 2216POPC   C3A30317  12.153  25.496   7.843
 2216POPC   C4A30318  12.403  25.550   7.459
 2216POPC   C1B30319  11.985  25.019   8.826
 2216POPC   C2B30320  12.047  24.859   8.399
 2216POPC   C3B30321  12.045  24.772   7.960
 2216POPC   C4B30322  11.982  24.656   7.528
 2217POPC   NC330323  35.447  30.940   9.521
 2217POPC   PO430324  36.155  30.658   9.526
 2217POPC   GL130325  36.122  30.716   9.119
 2217POPC   GL230326  35.781  30.754   9.161
 2217POPC   C1A30327  36.177  30.776   8.704
 2217POPC   D2A30328  36.174  30.431   8.441
 2217POPC   C3A30329  36.145  30.580   8.044
 2217POPC   C4A30330  36.348  30.861   7.732
 2217POPC   C1B30331  35.658  30.900   8.771
 2217POPC   C2B30332  35.684  30.709   8.382
 2217POPC   C3B30333  35.749  30.918   8.016
 2217POPC   C4B30334  35.833  30.778   7.672
 2218POPC   NC330335  26.652  43.495   9.434
 2218POPC   PO430336  27.066  42.960   9.615
 2218POPC   GL130337  27.153  43.043   9.184
 2218POPC   GL230338  26.830  43.121   9.119
 2218POPC   C1A30339  27.154  42.941   8.745
 2218POPC   D2A30340  26.948  43.044   8.357
 2218POPC   C3A30341  27.103  42.991   7.946
 2218POPC   C4A30342  26.822  43.188   7.614
 2218POPC   C1B30343  26.600  42.982   8.756
 2218POPC   C2B30344  26.435  43.147   8.370
 2218POPC   C3B30345  26.444  43.541   8.118
 2218POPC   C4B30346  26.245  43.567   7.693
 2219POPC   NC330347   9.041  39.167   9.579
 2219POPC   PO430348   8.523  39.543   9.433
 2219POPC   GL130349   8.925  39.528   9.219
 2219POPC   GL230350   8.822  39.186   9.102
 2219POPC   C1A30351   9.224  39.407   8.867
 2219POPC   D2A30352   9.098  39.148   8.532
 2219POPC   C3A30353   9.188  39.242   8.117
 2219POPC   C4A30354   9.274  38.926   7.910
 2219POPC   C1B30355   8.732  39.514   8.748
 2219POPC   C2B30356   8.927  39.626   8.353
 2219POPC   C3B30357   8.750  39.456   7.968
 2219POPC   C4B30358   8.758  39.044   7.789
 2220POPC   NC330359   5.098  15.519   9.812
 2220POPC   PO430360   4.722  14.937   9.576
 2220POPC   GL130361   4.973  15.079   9.147
 2220POPC   GL230362   5.138  15.431   9.095
 2220POPC   C1A30363   5.042  15.109   8.708
 2220POPC   D2A30364   5.236  15.063   8.316
 2220POPC   C3A30365   5.071  15.072   7.909
 2220POPC   C4A30366   4.726  14.825   7.758
 2220POPC   C1B30367   5.317  15.638   8.722
 2220POPC   C2B30368   5.243  15.569   8.295
 2220POPC   C3B30369   5.399  15.505   7.885
 2220POPC   C4B30370   5.374  15.224   7.511
 2221POPC   NC330371  44.503  43.805   9.506
 2221POPC   PO430372   0.198  43.607   9.473
 2221POPC   GL130373  44.886  43.764   9.168
 2221POPC   GL230374  44.606  43.937   9.046
 2221POPC   C1A30375  44.762  43.581   8.745
 2221POPC   D2A30376  44.898  43.745   8.377
 2221POPC   C3A30377  44.722  43.676   7.992
 2221POPC   C4A30378  44.888  43.678   7.601
 2221POPC   C1B30379  44.362  43.917   8.692
 2221POPC   C2B30380  44.467  44.039   8.291
 2221POPC   C3B30381  44.242  43.866   7.971
 2221POPC   C4B30382  44.375  43.791   7.596
 2222POPC   NC330383  20.636  14.132   9.562
 2222POPC   PO430384  20.234  14.677   9.449
 2222POPC   GL130385  20.564  14.573   9.131
 2222POPC   GL230386  20.607  14.212   9.077
 2222POPC   C1A30387  20.742  14.540   8.696
 2222POPC   D2A30388  21.077  14.540   8.373
 2222POPC   C3A30389  20.838  14.527   7.935
 2222POPC   C4A30390  20.481  14.588   7.684
 2222POPC   C1B30391  20.904  14.047   8.828
 2222POPC   C2B30392  20.731  14.065   8.432
 2222POPC   C3B30393  20.426  14.253   8.148
 2222POPC   C4B30394  20.487  14.090   7.744
 2223POPC   NC330395  14.157   2.780   9.426
 2223POPC   PO430396  14.787   2.616   9.431
 2223POPC   GL130397  14.537   2.854   9.106
 2223POPC   GL230398  14.282   2.620   8.972
 2223POPC   C1A30399  14.593   2.881   8.647
 2223POPC   D2A30400  14.715   2.853   8.190
 2223POPC   C3A30401  14.477   3.099   7.908
 2223POPC   C4A30402  14.028   3.018   7.749
 2223POPC   C1B30403  14.003   2.501   8.677
 2223POPC   C2B30404  13.965   2.730   8.327
 2223POPC   C3B30405  14.237   2.661   8.013
 2223POPC   C4B30406  14.447   2.667   7.627
 2224POPC   NC330407  39.066  18.060   9.535
 2224POPC   PO430408  39.667  18.294   9.423
 2224POPC   GL130409  39.323  18.220   9.139
 2224POPC   GL230410  39.175  18.544   9.094
 2224POPC   C1A30411  39.178  18.136   8.728
 2224POPC   D2A30412  39.205  18.350   8.332
 2224POPC   C3A30413  39.303  18.217   7.911
 2224POPC   C4A30414  39.436  18.519   7.580
 2224POPC   C1B30415  38.859  18.544   8.770
 2224POPC   C2B30416  38.712  18.334   8.405
 2224POPC   C3B30417  38.810  18.364   7.996
 2224POPC   C4B30418  38.669  18.655   7.710
 2225POPC   NC330419  42.221   1.703   9.522
 2225POPC   PO430420  42.590   2.227   9.400
 2225POPC   GL130421  42.277   2.052   9.149
 2225POPC   GL230422  42.051   2.307   9.167
 2225POPC   C1A30423  42.304   1.829   8.772
 2225POPC   D2A30424  42.588   1.792   8.432
 2225POPC   C3A30425  42.439   1.717   8.038
 2225POPC   C4A30426  42.597   1.811   7.638
 2225POPC   C1B30427  42.310   2.371   8.746
 2225POPC   C2B30428  42.349   2.227   8.304
 2225POPC   C3B30429  42.395   2.202   7.856
 2225POPC   C4B30430  42.160   2.020   7.478
 2226POPC   NC330431  11.877  29.789   9.538
 2226POPC   PO430432  12.458  29.612   9.163
 2226POPC   GL130433  12.033  29.737   9.061
 2226POPC   GL230434  11.971  30.093   9.134
 2226POPC   C1A30435  11.901  29.837   8.675
 2226POPC   D2A30436  12.198  29.602   8.485
 2226POPC   C3A30437  12.082  29.517   8.115
 2226POPC   C4A30438  12.130  29.711   7.741
 2226POPC   C1B30439  12.237  30.229   8.779
 2226POPC   C2B30440  12.252  30.096   8.342
 2226POPC   C3B30441  11.873  29.965   8.132
 2226POPC   C4B30442  11.635  30.179   7.866
 2227POPC   NC330443   0.214  36.668   9.481
 2227POPC   PO430444   0.225  37.351   9.275
 2227POPC   GL130445   0.409  36.991   9.139
 2227POPC   GL230446   0.740  37.092   9.060
 2227POPC   C1A30447   0.466  36.713   8.802
 2227POPC   D2A30448   0.688  36.647   8.417
 2227POPC   C3A30449   0.410  36.630   8.091
 2227POPC   C4A30450   0.533  36.501   7.729
 2227POPC   C1B30451   0.732  37.126   8.626
 2227POPC   C2B30452   0.633  37.099   8.196
 2227POPC   C3B30453   0.360  37.121   7.873
 2227POPC   C4B30454  44.978  37.270   7.992
 2228POPC   NC330455  12.742   0.186   9.412
 2228POPC   PO430456  12.993   0.758   9.382
 2228POPC   GL130457  12.941   0.598   9.049
 2228POPC   GL230458  12.590   0.600   9.011
 2228POPC   C1A30459  12.971   0.726   8.644
 2228POPC   D2A30460  12.742   0.571   8.313
 2228POPC   C3A30461  12.980   0.276   8.087
 2228POPC   C4A30462  12.961   0.495   7.721
 2228POPC   C1B30463  12.738   0.250   8.720
 2228POPC   C2B30464  12.544   0.086   8.327
 2228POPC   C3B30465  12.583   0.056   7.845
 2228POPC   C4B30466  12.541   0.204   7.408
 2229POPC   NC330467  12.506  12.849   9.557
 2229POPC   PO430468  13.148  13.025   9.492
 2229POPC   GL130469  12.839  12.839   9.179
 2229POPC   GL230470  12.544  13.042   9.088
 2229POPC   C1A30471  12.774  12.644   8.786
 2229POPC   D2A30472  12.722  12.450   8.377
 2229POPC   C3A30473  12.965  12.682   8.058
 2229POPC   C4A30474  12.736  12.832   7.705
 2229POPC   C1B30475  12.514  13.062   8.639
 2229POPC   C2B30476  12.516  12.922   8.230
 2229POPC   C3B30477  12.489  13.209   7.911
 2229POPC   C4B30478  12.601  13.255   7.457
 2230POPC   NC330479  20.405  32.576   9.546
 2230POPC   PO430480  20.924  33.113   9.438
 2230POPC   GL130481  20.754  33.130   9.011
 2230POPC   GL230482  20.402  33.041   9.058
 2230POPC   C1A30483  20.902  33.198   8.575
 2230POPC   D2A30484  20.860  32.912   8.264
 2230POPC   C3A30485  20.659  33.149   7.976
 2230POPC   C4A30486  20.961  33.409   7.799
 2230POPC   C1B30487  20.488  32.903   8.621
 2230POPC   C2B30488  20.398  32.730   8.198
 2230POPC   C3B30489  20.207  32.971   7.837
 2230POPC   C4B30490  20.304  32.953   7.360
 2231POPC   NC330491  27.973   5.126   9.552
 2231POPC   PO430492  28.493   4.863   9.466
 2231POPC   GL130493  28.339   5.155   9.192
 2231POPC   GL230494  28.103   4.879   9.103
 2231POPC   C1A30495  28.454   5.169   8.771
 2231POPC   D2A30496  28.776   5.013   8.481
 2231POPC   C3A30497  28.734   5.289   8.155
 2231POPC   C4A30498  28.437   5.206   7.866
 2231POPC   C1B30499  28.077   4.772   8.669
 2231POPC   C2B30500  28.241   4.978   8.329
 2231POPC   C3B30501  27.962   5.102   8.028
 2231POPC   C4B30502  27.988   5.276   7.618
 2232POPC   NC330503  34.808  12.566   9.585
 2232POPC   PO430504  34.284  12.944   9.526
 2232POPC   GL130505  34.485  12.936   9.146
 2232POPC   GL230506  34.835  12.879   9.142
 2232POPC   C1A30507  34.518  12.802   8.714
 2232POPC   D2A30508  34.502  12.901   8.286
 2232POPC   C3A30509  34.291  12.616   8.008
 2232POPC   C4A30510  34.371  12.519   7.575
 2232POPC   C1B30511  34.981  13.014   8.713
 2232POPC   C2B30512  35.044  12.876   8.252
 2232POPC   C3B30513  34.764  12.753   7.864
 2232POPC   C4B30514  34.464  13.026   7.616
 2233POPC   NC330515  10.121  26.102   9.453
 2233POPC   PO430516  10.801  26.138   9.471
 2233POPC   GL130517  10.537  25.864   9.220
 2233POPC   GL230518  10.763  25.636   9.047
 2233POPC   C1A30519  10.327  25.832   8.817
 2233POPC   D2A30520  10.501  25.799   8.409
 2233POPC   C3A30521  10.359  26.093   8.130
 2233POPC   C4A30522  10.463  26.138   7.727
 2233POPC   C1B30523  10.834  26.023   8.813
 2233POPC   C2B30524  10.773  26.244   8.423
 2233POPC   C3B30525  10.884  26.154   8.011
 2233POPC   C4B30526  10.937  26.229   7.582
 2234POPC   NC330527  15.918  28.688   9.407
 2234POPC   PO430528  16.049  29.426   9.423
 2234POPC   GL130529  16.146  29.085   9.162
 2234POPC   GL230530  15.814  29.079   9.072
 2234POPC   C1A30531  16.172  28.842   8.780
 2234POPC   D2A30532  16.332  29.004   8.384
 2234POPC   C3A30533  16.077  29.114   8.048
 2234POPC   C4A30534  16.117  29.056   7.630
 2234POPC   C1B30535  15.655  28.987   8.683
 2234POPC   C2B30536  15.687  28.847   8.235
 2234POPC   C3B30537  15.684  28.866   7.791
 2234POPC   C4B30538  15.708  28.865   7.313
 2235POPC   NC330539  36.728  28.714   9.607
 2235POPC   PO430540  37.263  29.139   9.603
 2235POPC   GL130541  37.045  29.066   9.207
 2235POPC   GL230542  37.268  28.784   9.158
 2235POPC   C1A30543  36.927  29.266   8.793
 2235POPC   D2A30544  37.046  29.162   8.365
 2235POPC   C3A30545  37.174  29.406   8.016
 2235POPC   C4A30546  37.061  29.338   7.584
 2235POPC   C1B30547  37.095  28.789   8.732
 2235POPC   C2B30548  37.184  28.680   8.306
 2235POPC   C3B30549  37.075  28.866   7.917
 2235POPC   C4B30550  37.127  28.845   7.434
 2236POPC   NC330551  15.586  17.823   9.514
 2236POPC   PO430552  15.979  17.273   9.545
 2236POPC   GL130553  15.891  17.538   9.180
 2236POPC   GL230554  15.838  17.221   9.040
 2236POPC   C1A30555  15.901  17.615   8.702
 2236POPC   D2A30556  16.008  17.256   8.430
 2236POPC   C3A30557  16.096  17.336   8.028
 2236POPC   C4A30558  16.062  17.768   7.878
 2236POPC   C1B30559  15.639  17.052   8.688
 2236POPC   C2B30560  15.570  17.016   8.286
 2236POPC   C3B30561  15.705  17.040   7.912
 2236POPC   C4B30562  15.817  17.306   7.607
 2237POPC   NC330563  13.968   9.767   9.586
 2237POPC   PO430564  13.366   9.755   9.468
 2237POPC   GL130565  13.665   9.940   9.199
 2237POPC   GL230566  13.803   9.622   9.132
 2237POPC   C1A30567  13.718  10.034   8.763
 2237POPC   D2A30568  13.476   9.892   8.402
 2237POPC   C3A30569  13.569  10.031   8.016
 2237POPC   C4A30570  13.606   9.961   7.574
 2237POPC   C1B30571  13.613   9.534   8.753
 2237POPC   C2B30572  13.843   9.530   8.375
 2237POPC   C3B30573  13.699   9.565   7.969
 2237POPC   C4B30574  13.539   9.436   7.591
 2238POPC   NC330575  41.303  40.911   9.514
 2238POPC   PO430576  41.735  40.341   9.427
 2238POPC   GL130577  41.612  40.521   9.038
 2238POPC   GL230578  41.266  40.658   9.059
 2238POPC   C1A30579  41.585  40.429   8.575
 2238POPC   D2A30580  41.364  40.671   8.225
 2238POPC   C3A30581  41.593  40.703   7.830
 2238POPC   C4A30582  41.471  40.547   7.389
 2238POPC   C1B30583  41.424  40.889   8.691
 2238POPC   C2B30584  41.405  41.173   8.344
 2238POPC   C3B30585  41.218  41.105   7.956
 2238POPC   C4B30586  41.140  40.841   7.630
 2239POPC   NC330587   1.268  18.157   9.467
 2239POPC   PO430588   0.647  18.549   9.320
 2239POPC   GL130589   0.985  18.292   9.060
 2239POPC   GL230590   1.363  18.394   9.042
 2239POPC   C1A30591   1.148  18.231   8.628
 2239POPC   D2A30592   0.934  18.359   8.289
 2239POPC   C3A30593   0.984  18.148   7.929
 2239POPC   C4A30594   1.288  17.923   7.764
 2239POPC   C1B30595   1.451  18.697   8.745
 2239POPC   C2B30596   1.452  18.755   8.335
 2239POPC   C3B30597   1.400  18.424   8.070
 2239POPC   C4B30598   1.184  18.538   7.703
 2240POPC   NC330599   6.179  16.851   9.529
 2240POPC   PO430600   6.903  16.767   9.490
 2240POPC   GL130601   6.590  16.721   9.210
 2240POPC   GL230602   6.350  16.489   9.210
 2240POPC   C1A30603   6.495  16.808   8.819
 2240POPC   D2A30604   6.682  16.941   8.471
 2240POPC   C3A30605   6.474  17.021   8.105
 2240POPC   C4A30606   6.543  16.857   7.703
 2240POPC   C1B30607   6.188  16.413   8.796
 2240POPC   C2B30608   6.216  16.647   8.418
 2240POPC   C3B30609   6.134  16.479   8.036
 2240POPC   C4B30610   6.263  16.406   7.635
 2241POPC   NC330611   3.154  20.668   9.394
 2241POPC   PO430612   3.786  20.830   9.500
 2241POPC   GL130613   3.606  20.801   9.126
 2241POPC   GL230614   3.551  20.484   9.034
 2241POPC   C1A30615   3.580  20.872   8.701
 2241POPC   D2A30616   3.761  20.806   8.311
 2241POPC   C3A30617   3.484  20.714   7.977
 2241POPC   C4A30618   3.388  20.841   7.591
 2241POPC   C1B30619   3.628  20.372   8.570
 2241POPC   C2B30620   3.759  20.304   8.126
 2241POPC   C3B30621   3.606  20.317   7.674
 2241POPC   C4B30622   3.822  20.236   7.256
 2242POPC   NC330623   9.490  15.503   9.906
 2242POPC   PO430624   9.128  15.039   9.600
 2242POPC   GL130625   8.987  15.158   9.200
 2242POPC   GL230626   9.255  15.402   9.156
 2242POPC   C1A30627   8.744  15.016   8.827
 2242POPC   D2A30628   8.890  14.779   8.518
 2242POPC   C3A30629   8.872  14.853   8.086
 2242POPC   C4A30630   9.100  15.105   7.791
 2242POPC   C1B30631   8.995  15.460   8.781
 2242POPC   C2B30632   8.934  15.318   8.372
 2242POPC   C3B30633   9.069  15.579   8.044
 2242POPC   C4B30634   9.190  15.601   7.640
 2243POPC   NC330635   1.837   9.468   9.485
 2243POPC   PO430636   1.995  10.133   9.543
 2243POPC   GL130637   2.239  10.022   9.135
 2243POPC   GL230638   2.296   9.660   9.134
 2243POPC   C1A30639   2.129   9.816   8.687
 2243POPC   D2A30640   1.798   9.617   8.395
 2243POPC   C3A30641   1.719   9.875   7.994
 2243POPC   C4A30642   1.960   9.820   7.606
 2243POPC   C1B30643   2.412   9.354   8.787
 2243POPC   C2B30644   2.240   9.348   8.385
 2243POPC   C3B30645   2.155   9.580   8.036
 2243POPC   C4B30646   2.271   9.419   7.681
 2244POPC   NC330647  25.574  36.016   9.443
 2244POPC   PO430648  25.147  36.440   9.587
 2244POPC   GL130649  25.193  36.290   9.139
 2244POPC   GL230650  25.307  35.986   9.016
 2244POPC   C1A30651  25.164  36.368   8.669
 2244POPC   D2A30652  24.984  36.331   8.239
 2244POPC   C3A30653  25.279  36.170   7.938
 2244POPC   C4A30654  25.347  36.268   7.504
 2244POPC   C1B30655  25.052  35.704   8.803
 2244POPC   C2B30656  25.105  35.861   8.416
 2244POPC   C3B30657  25.039  35.704   8.025
 2244POPC   C4B30658  25.216  35.769   7.607
 2245POPC   NC330659  40.198  12.549   9.791
 2245POPC   PO430660  39.697  13.001   9.862
 2245POPC   GL130661  39.800  12.829   9.416
 2245POPC   GL230662  39.638  13.034   9.185
 2245POPC   C1A30663  40.069  12.836   8.986
 2245POPC   D2A30664  40.377  12.755   8.606
 2245POPC   C3A30665  40.302  12.783   8.124
 2245POPC   C4A30666  40.004  12.756   7.758
 2245POPC   C1B30667  39.608  12.947   8.752
 2245POPC   C2B30668  39.512  12.706   8.419
 2245POPC   C3B30669  39.565  12.693   8.010
 2245POPC   C4B30670  39.505  12.983   7.703
 2246POPC   NC330671  33.396   5.561   9.688
 2246POPC   PO430672  33.173   6.109   9.747
 2246POPC   GL130673  33.169   5.979   9.288
 2246POPC   GL230674  33.356   5.673   9.131
 2246POPC   C1A30675  32.926   6.126   8.916
 2246POPC   D2A30676  32.668   5.988   8.563
 2246POPC   C3A30677  32.796   6.139   8.164
 2246POPC   C4A30678  32.749   5.958   7.775
 2246POPC   C1B30679  33.358   5.707   8.644
 2246POPC   C2B30680  33.117   5.440   8.320
 2246POPC   C3B30681  33.065   5.584   7.896
 2246POPC   C4B30682  33.269   5.960   7.736
 2247POPC   NC330683  31.969  43.086   9.845
 2247POPC   PO430684  32.343  42.887   9.332
 2247POPC   GL130685  32.371  42.961   8.968
 2247POPC   GL230686  32.319  43.307   8.938
 2247POPC   C1A30687  32.498  43.026   8.574
 2247POPC   D2A30688  32.274  43.025   8.309
 2247POPC   C3A30689  32.317  43.268   8.001
 2247POPC   C4A30690  32.361  42.959   7.714
 2247POPC   C1B30691  31.986  43.175   8.711
 2247POPC   C2B30692  31.887  43.352   8.344
 2247POPC   C3B30693  31.822  43.475   7.945
 2247POPC   C4B30694  31.944  43.291   7.589
 2248POPC   NC330695  32.311  26.499   9.725
 2248POPC   PO430696  32.179  25.948   9.664
 2248POPC   GL130697  32.079  25.939   9.204
 2248POPC   GL230698  31.918  26.281   9.140
 2248POPC   C1A30699  31.973  25.798   8.778
 2248POPC   D2A30700  32.199  25.727   8.384
 2248POPC   C3A30701  32.093  25.946   8.043
 2248POPC   C4A30702  32.338  25.989   7.725
 2248POPC   C1B30703  32.081  26.348   8.708
 2248POPC   C2B30704  32.404  26.531   8.439
 2248POPC   C3B30705  32.410  26.416   8.008
 2248POPC   C4B30706  32.087  26.443   7.725
 2249POPC   NC330707   1.652  40.166   9.382
 2249POPC   PO430708   2.244  39.870   9.515
 2249POPC   GL130709   2.229  40.086   9.152
 2249POPC   GL230710   1.937  39.942   9.014
 2249POPC   C1A30711   2.377  40.048   8.736
 2249POPC   D2A30712   2.197  40.222   8.391
 2249POPC   C3A30713   2.203  39.925   8.081
 2249POPC   C4A30714   2.281  40.089   7.725
 2249POPC   C1B30715   1.917  40.362   8.805
 2249POPC   C2B30716   1.711  40.500   8.428
 2249POPC   C3B30717   1.634  40.231   8.037
 2249POPC   C4B30718   1.765  39.998   7.642
 2250POPC   NC330719   7.460  14.739   9.407
 2250POPC   PO430720   7.125  14.124   9.556
 2250POPC   GL130721   7.211  14.355   9.170
 2250POPC   GL230722   7.046  14.678   9.114
 2250POPC   C1A30723   7.525  14.284   8.817
 2250POPC   D2A30724   7.661  14.527   8.443
 2250POPC   C3A30725   7.569  14.368   8.042
 2250POPC   C4A30726   7.412  14.119   7.732
 2250POPC   C1B30727   7.218  14.694   8.697
 2250POPC   C2B30728   7.140  14.540   8.267
 2250POPC   C3B30729   7.122  14.525   7.786
 2250POPC   C4B30730   7.377  14.466   7.367
 2251POPC   NC330731  44.404  34.373   9.450
 2251POPC   PO430732  44.804  34.913   9.457
 2251POPC   GL130733  44.874  34.767   9.082
 2251POPC   GL230734  44.583  34.605   9.022
 2251POPC   C1A30735  44.982  34.668   8.708
 2251POPC   D2A30736  44.649  34.560   8.463
 2251POPC   C3A30737  44.765  34.646   8.071
 2251POPC   C4A30738  44.622  34.565   7.727
 2251POPC   C1B30739  44.408  34.248   8.810
 2251POPC   C2B30740  44.278  34.093   8.424
 2251POPC   C3B30741  44.459  34.227   8.075
 2251POPC   C4B30742  44.523  34.077   7.683
 2252POPC   NC330743   2.029  44.126   9.344
 2252POPC   PO430744   2.103  43.702   9.803
 2252POPC   GL130745   2.186  43.659   9.243
 2252POPC   GL230746   1.964  43.826   8.933
 2252POPC   C1A30747   2.359  43.570   8.773
 2252POPC   D2A30748   2.101  43.620   8.372
 2252POPC   C3A30749   1.939  44.002   8.179
 2252POPC   C4A30750   1.664  43.978   7.829
 2252POPC   C1B30751   2.234  44.060   8.641
 2252POPC   C2B30752   2.475  44.036   8.256
 2252POPC   C3B30753   2.330  44.261   7.906
 2252POPC   C4B30754   1.911  44.401   7.803
 2253POPC   NC330755   2.568   8.786   9.507
 2253POPC   PO430756   3.046   9.232   9.474
 2253POPC   GL130757   2.850   9.042   9.147
 2253POPC   GL230758   2.862   8.696   9.078
 2253POPC   C1A30759   2.954   9.157   8.759
 2253POPC   D2A30760   2.973   9.381   8.399
 2253POPC   C3A30761   2.992   9.088   8.070
 2253POPC   C4A30762   2.830   9.204   7.687
 2253POPC   C1B30763   2.510   8.829   8.816
 2253POPC   C2B30764   2.608   8.988   8.419
 2253POPC   C3B30765   2.473   9.071   8.026
 2253POPC   C4B30766   2.399   8.917   7.644
 2254POPC   NC330767  22.537  20.375   9.374
 2254POPC   PO430768  22.939  20.986   9.636
 2254POPC   GL130769  22.858  20.770   9.231
 2254POPC   GL230770  23.170  20.609   9.118
 2254POPC   C1A30771  22.777  20.615   8.803
 2254POPC   D2A30772  22.673  20.458   8.394
 2254POPC   C3A30773  22.740  20.783   8.113
 2254POPC   C4A30774  22.931  20.867   7.743
 2254POPC   C1B30775  23.379  20.694   8.768
 2254POPC   C2B30776  23.149  20.637   8.413
 2254POPC   C3B30777  23.169  20.474   8.012
 2254POPC   C4B30778  23.409  20.711   7.718
 2255POPC   NC330779  42.109  40.064   9.322
 2255POPC   PO430780  42.602  40.358   9.111
 2255POPC   GL130781  42.508  39.896   9.016
 2255POPC   GL230782  42.152  39.806   8.884
 2255POPC   C1A30783  42.566  39.724   8.596
 2255POPC   D2A30784  42.427  40.021   8.272
 2255POPC   C3A30785  42.343  39.881   7.878
 2255POPC   C4A30786  41.975  39.796   7.722
 2255POPC   C1B30787  42.102  40.216   8.667
 2255POPC   C2B30788  42.054  40.448   8.303
 2255POPC   C3B30789  42.090  40.330   7.894
 2255POPC   C4B30790  41.796  40.271   7.611
 2256POPC   NC330791  24.628  32.430   9.816
 2256POPC   PO430792  25.216  32.168   9.522
 2256POPC   GL130793  24.996  32.051   9.121
 2256POPC   GL230794  25.079  32.373   8.965
 2256POPC   C1A30795  25.048  31.995   8.638
 2256POPC   D2A30796  25.432  32.038   8.383
 2256POPC   C3A30797  25.745  32.184   8.067
 2256POPC   C4A30798  25.681  32.185   7.597
 2256POPC   C1B30799  25.352  32.650   8.714
 2256POPC   C2B30800  25.438  32.565   8.294
 2256POPC   C3B30801  25.292  32.349   7.949
 2256POPC   C4B30802  25.224  32.436   7.562
 2257POPC   NC330803  38.137  33.861   9.592
 2257POPC   PO430804  38.575  33.430   9.499
 2257POPC   GL130805  38.448  33.723   9.194
 2257POPC   GL230806  38.153  33.534   9.190
 2257POPC   C1A30807  38.582  33.966   8.811
 2257POPC   D2A30808  38.387  34.094   8.387
 2257POPC   C3A30809  38.560  34.019   7.998
 2257POPC   C4A30810  38.697  33.626   7.828
 2257POPC   C1B30811  38.145  33.686   8.781
 2257POPC   C2B30812  38.007  33.784   8.382
 2257POPC   C3B30813  38.240  33.600   8.087
 2257POPC   C4B30814  38.203  33.537   7.688
 2258POPC   NC330815  10.162  25.144   9.512
 2258POPC   PO430816  10.797  25.143   9.570
 2258POPC   GL130817  10.576  25.163   9.137
 2258POPC   GL230818  10.277  25.409   9.102
 2258POPC   C1A30819  10.547  25.358   8.682
 2258POPC   D2A30820  10.692  25.337   8.261
 2258POPC   C3A30821  10.700  24.920   8.100
 2258POPC   C4A30822  10.690  24.829   7.674
 2258POPC   C1B30823  10.151  25.057   8.793
 2258POPC   C2B30824  10.233  24.943   8.362
 2258POPC   C3B30825  10.284  25.187   7.969
 2258POPC   C4B30826  10.449  25.622   7.843
 2259POPC   NC330827  31.322  12.416   9.611
 2259POPC   PO430828  31.396  11.733   9.637
 2259POPC   GL130829  31.276  12.022   9.234
 2259POPC   GL230830  31.137  12.382   9.157
 2259POPC   C1A30831  31.351  12.143   8.772
 2259POPC   D2A30832  31.388  12.247   8.333
 2259POPC   C3A30833  31.357  11.895   8.050
 2259POPC   C4A30834  31.621  11.921   7.670
 2259POPC   C1B30835  30.911  12.470   8.792
 2259POPC   C2B30836  31.040  12.655   8.393
 2259POPC   C3B30837  30.990  12.434   8.041
 2259POPC   C4B30838  31.215  12.241   7.706
 2260POPC   NC330839  17.995  40.378   9.552
 2260POPC   PO430840  18.030  41.054   9.547
 2260POPC   GL130841  18.284  40.845   9.252
 2260POPC   GL230842  18.180  40.574   9.131
 2260POPC   C1A30843  18.375  40.994   8.851
 2260POPC   D2A30844  18.273  40.939   8.442
 2260POPC   C3A30845  18.590  40.877   8.141
 2260POPC   C4A30846  18.586  40.654   7.757
 2260POPC   C1B30847  17.946  40.687   8.806
 2260POPC   C2B30848  17.888  40.565   8.400
 2260POPC   C3B30849  18.101  40.687   8.034
 2260POPC   C4B30850  18.112  40.529   7.667
 2261POPC   NC330851  13.459  26.420   9.531
 2261POPC   PO430852  14.059  26.160   9.411
 2261POPC   GL130853  13.675  26.140   9.135
 2261POPC   GL230854  13.402  25.876   9.130
 2261POPC   C1A30855  13.410  26.251   8.784
 2261POPC   D2A30856  13.360  26.070   8.353
 2261POPC   C3A30857  13.711  25.974   8.139
 2261POPC   C4A30858  13.774  26.054   7.735
 2261POPC   C1B30859  13.369  25.697   8.697
 2261POPC   C2B30860  13.385  25.585   8.221
 2261POPC   C3B30861  13.413  25.712   7.786
 2261POPC   C4B30862  13.290  25.473   7.432
 2262POPC   NC330863  13.892  30.163   9.432
 2262POPC   PO430864  13.235  30.071   9.345
 2262POPC   GL130865  13.529  30.120   9.060
 2262POPC   GL230866  13.718  29.792   9.085
 2262POPC   C1A30867  13.437  30.380   8.723
 2262POPC   D2A30868  13.367  30.409   8.300
 2262POPC   C3A30869  13.575  30.089   8.072
 2262POPC   C4A30870  13.336  30.111   7.682
 2262POPC   C1B30871  13.819  29.968   8.673
 2262POPC   C2B30872  14.073  29.935   8.290
 2262POPC   C3B30873  14.168  30.209   7.986
 2262POPC   C4B30874  13.854  30.206   7.674
 2263POPC   NC330875  12.849   5.959   9.437
 2263POPC   PO430876  13.280   5.505   9.529
 2263POPC   GL130877  13.003   5.586   9.153
 2263POPC   GL230878  12.630   5.521   9.190
 2263POPC   C1A30879  12.836   5.808   8.782
 2263POPC   D2A30880  13.005   5.959   8.418
 2263POPC   C3A30881  12.896   5.796   8.042
 2263POPC   C4A30882  12.835   5.935   7.618
 2263POPC   C1B30883  12.410   5.522   8.785
 2263POPC   C2B30884  12.523   5.383   8.351
 2263POPC   C3B30885  12.499   5.513   7.902
 2263POPC   C4B30886  12.522   5.605   7.402
 2264POPC   NC330887  23.278  20.688   9.600
 2264POPC   PO430888  23.918  20.678   9.544
 2264POPC   GL130889  23.708  20.576   9.187
 2264POPC   GL230890  23.520  20.298   9.351
 2264POPC   C1A30891  23.888  20.479   8.759
 2264POPC   D2A30892  23.970  20.279   8.354
 2264POPC   C3A30893  23.748  20.471   8.040
 2264POPC   C4A30894  23.859  20.525   7.612
 2264POPC   C1B30895  23.480  20.217   8.916
 2264POPC   C2B30896  23.468  20.233   8.486
 2264POPC   C3B30897  23.469  20.036   8.107
 2264POPC   C4B30898  23.475  20.204   7.701
 2265POPC   NC330899  26.280  22.357   9.488
 2265POPC   PO430900  25.706  22.011   9.527
 2265POPC   GL130901  25.824  22.284   9.217
 2265POPC   GL230902  26.055  22.051   9.071
 2265POPC   C1A30903  25.844  22.414   8.796
 2265POPC   D2A30904  25.665  22.375   8.408
 2265POPC   C3A30905  25.945  22.168   8.153
 2265POPC   C4A30906  25.928  22.447   7.841
 2265POPC   C1B30907  25.917  21.798   8.710
 2265POPC   C2B30908  26.032  21.656   8.298
 2265POPC   C3B30909  25.825  21.734   7.902
 2265POPC   C4B30910  25.747  21.821   7.444
 2266POPC   NC330911  18.001  12.116   9.487
 2266POPC   PO430912  18.642  12.273   9.406
 2266POPC   GL130913  18.386  11.998   9.104
 2266POPC   GL230914  17.997  11.930   9.036
 2266POPC   C1A30915  18.324  12.130   8.682
 2266POPC   D2A30916  18.306  12.369   8.287
 2266POPC   C3A30917  18.456  12.079   8.013
 2266POPC   C4A30918  18.403  12.148   7.630
 2266POPC   C1B30919  18.029  11.698   8.698
 2266POPC   C2B30920  18.258  11.730   8.343
 2266POPC   C3B30921  18.146  11.662   7.940
 2266POPC   C4B30922  17.978  11.900   7.577
 2267POPC   NC330923   5.244   8.741   9.486
 2267POPC   PO430924   4.673   9.151   9.297
 2267POPC   GL130925   5.019   9.017   9.100
 2267POPC   GL230926   5.268   9.298   9.153
 2267POPC   C1A30927   4.954   8.875   8.689
 2267POPC   D2A30928   4.755   8.652   8.342
 2267POPC   C3A30929   5.077   8.793   8.114
 2267POPC   C4A30930   5.136   9.158   7.901
 2267POPC   C1B30931   5.427   9.099   8.756
 2267POPC   C2B30932   5.547   9.073   8.290
 2267POPC   C3B30933   5.505   9.471   8.037
 2267POPC   C4B30934   5.291   9.595   7.666
 2268POPC   NC330935  40.149  24.883   9.314
 2268POPC   PO430936  39.978  25.484   9.458
 2268POPC   GL130937  39.719  25.440   9.092
 2268POPC   GL230938  39.707  25.097   9.104
 2268POPC   C1A30939  39.841  25.392   8.660
 2268POPC   D2A30940  40.256  25.448   8.420
 2268POPC   C3A30941  40.200  25.571   7.996
 2268POPC   C4A30942  39.787  25.595   7.806
 2268POPC   C1B30943  39.501  24.882   8.787
 2268POPC   C2B30944  39.512  25.011   8.379
 2268POPC   C3B30945  39.849  25.228   8.169
 2268POPC   C4B30946  40.046  25.130   7.784
 2269POPC   NC330947  20.159  26.933   9.572
 2269POPC   PO430948  19.717  26.386   9.566
 2269POPC   GL130949  19.656  26.760   9.263
 2269POPC   GL230950  19.939  26.838   9.114
 2269POPC   C1A30951  19.528  26.994   8.849
 2269POPC   D2A30952  19.397  26.854   8.416
 2269POPC   C3A30953  19.619  27.048   8.071
 2269POPC   C4A30954  19.836  27.069   7.671
 2269POPC   C1B30955  19.811  26.582   8.721
 2269POPC   C2B30956  19.809  26.582   8.240
 2269POPC   C3B30957  19.972  26.588   7.815
 2269POPC   C4B30958  20.279  26.503   7.450
 2270POPC   NC330959  26.446  16.215   9.454
 2270POPC   PO430960  25.959  16.816   9.555
 2270POPC   GL130961  26.088  16.779   9.174
 2270POPC   GL230962  26.049  16.438   9.174
 2270POPC   C1A30963  26.282  16.958   8.819
 2270POPC   D2A30964  26.078  17.065   8.461
 2270POPC   C3A30965  26.268  16.963   8.090
 2270POPC   C4A30966  26.029  17.053   7.741
 2270POPC   C1B30967  25.939  16.536   8.747
 2270POPC   C2B30968  26.054  16.523   8.329
 2270POPC   C3B30969  25.792  16.704   8.034
 2270POPC   C4B30970  25.669  16.676   7.601
 2271POPC   NC330971  20.487  44.756   9.714
 2271POPC   PO430972  20.829  44.195   9.431
 2271POPC   GL130973  20.524  44.527   9.224
 2271POPC   GL230974  20.560  44.919   9.252
 2271POPC   C1A30975  20.395  44.686   8.804
 2271POPC   D2A30976  20.578  44.497   8.414
 2271POPC   C3A30977  20.405  44.514   8.014
 2271POPC   C4A30978  20.620  44.439   7.659
 2271POPC   C1B30979  20.669   0.117   8.885
 2271POPC   C2B30980  20.680   0.002   8.466
 2271POPC   C3B30981  20.689  44.941   8.033
 2271POPC   C4B30982  20.605  44.931   7.595
 2272POPC   NC330983  11.413   4.967   9.508
 2272POPC   PO430984  11.719   5.576   9.384
 2272POPC   GL130985  11.486   5.277   9.040
 2272POPC   GL230986  11.196   5.034   9.050
 2272POPC   C1A30987  11.306   5.226   8.585
 2272POPC   D2A30988  11.449   5.272   8.145
 2272POPC   C3A30989  11.182   5.195   7.806
 2272POPC   C4A30990  11.061   5.486   7.485
 2272POPC   C1B30991  11.426   4.761   8.760
 2272POPC   C2B30992  11.439   4.775   8.312
 2272POPC   C3B30993  11.575   4.555   7.978
 2272POPC   C4B30994  11.304   4.685   7.647
 2273POPC   NC330995  12.581   0.946   9.464
 2273POPC   PO430996  13.078   1.306   9.903
 2273POPC   GL130997  13.144   1.313   9.404
 2273POPC   GL230998  12.815   1.370   9.284
 2273POPC   C1A30999  13.116   1.210   8.915
 2273POPC   D2A31000  12.852   1.206   8.532
 2273POPC   C3A31001  12.932   1.028   8.115
 2273POPC   C4A31002  12.999   1.021   7.653
 2273POPC   C1B31003  12.562   1.427   8.901
 2273POPC   C2B31004  12.390   1.428   8.461
 2273POPC   C3B31005  12.669   1.509   8.160
 2273POPC   C4B31006  12.753   1.540   7.773
 2274POPC   NC331007  30.203  24.847   9.443
 2274POPC   PO431008  29.805  25.338   9.689
 2274POPC   GL131009  29.872  25.222   9.248
 2274POPC   GL231010  30.019  25.500   9.090
 2274POPC   C1A31011  29.783  25.038   8.807
 2274POPC   D2A31012  29.952  25.121   8.375
 2274POPC   C3A31013  29.719  25.121   8.001
 2274POPC   C4A31014  29.773  25.053   7.562
 2274POPC   C1B31015  30.235  25.270   8.776
 2274POPC   C2B31016  30.440  25.327   8.382
 2274POPC   C3B31017  30.223  25.408   7.999
 2274POPC   C4B31018  30.119  25.435   7.603
 2275POPC   NC331019  35.849  34.018   9.522
 2275POPC   PO431020  36.509  34.122   9.379
 2275POPC   GL131021  36.154  34.048   9.106
 2275POPC   GL231022  35.914  33.743   9.072
 2275POPC   C1A31023  36.140  34.021   8.668
 2275POPC   D2A31024  36.285  33.688   8.416
 2275POPC   C3A31025  36.184  33.766   8.020
 2275POPC   C4A31026  35.949  34.095   7.772
 2275POPC   C1B31027  35.740  33.364   8.843
 2275POPC   C2B31028  35.639  33.209   8.432
 2275POPC   C3B31029  35.854  33.351   8.082
 2275POPC   C4B31030  35.835  33.589   7.718
 2276POPC   NC331031  30.183   2.422   9.442
 2276POPC   PO431032  30.140   3.118   9.619
 2276POPC   GL131033  30.065   2.943   9.163
 2276POPC   GL231034  29.829   2.664   9.138
 2276POPC   C1A31035  29.857   2.993   8.721
 2276POPC   D2A31036  29.855   2.757   8.311
 2276POPC   C3A31037  29.866   2.942   7.950
 2276POPC   C4A31038  30.213   3.049   7.766
 2276POPC   C1B31039  29.842   2.468   8.721
 2276POPC   C2B31040  29.536   2.353   8.371
 2276POPC   C3B31041  29.490   2.479   7.964
 2276POPC   C4B31042  29.790   2.522   7.665
 2277POPC   NC331043  37.191  14.696   9.433
 2277POPC   PO431044  36.959  14.201   9.766
 2277POPC   GL131045  36.845  14.304   9.301
 2277POPC   GL231046  36.685  14.618   9.165
 2277POPC   C1A31047  37.029  14.339   8.853
 2277POPC   D2A31048  37.200  14.439   8.416
 2277POPC   C3A31049  37.068  14.313   8.007
 2277POPC   C4A31050  37.149  14.530   7.623
 2277POPC   C1B31051  36.544  14.428   8.768
 2277POPC   C2B31052  36.687  14.484   8.336
 2277POPC   C3B31053  36.597  14.503   7.902
 2277POPC   C4B31054  36.671  14.485   7.486
 2278POPC   NC331055  35.573  27.815   9.459
 2278POPC   PO431056  36.093  27.477   9.659
 2278POPC   GL131057  36.229  27.648   9.223
 2278POPC   GL231058  36.282  28.031   9.197
 2278POPC   C1A31059  36.344  27.746   8.761
 2278POPC   D2A31060  36.265  27.798   8.311
 2278POPC   C3A31061  36.118  27.401   8.130
 2278POPC   C4A31062  35.995  27.287   7.721
 2278POPC   C1B31063  35.890  27.918   8.927
 2278POPC   C2B31064  35.778  27.778   8.526
 2278POPC   C3B31065  35.747  27.783   8.074
 2278POPC   C4B31066  35.640  27.912   7.653
 2279POPC   NC331067  28.036  40.485   9.272
 2279POPC   PO431068  27.631  40.087   9.634
 2279POPC   GL131069  27.652  40.091   9.177
 2279POPC   GL231070  27.943  39.878   9.145
 2279POPC   C1A31071  27.430  40.089   8.749
 2279POPC   D2A31072  27.329  39.851   8.339
 2279POPC   C3A31073  27.361  39.982   7.897
 2279POPC   C4A31074  27.731  40.298   7.759
 2279POPC   C1B31075  27.963  40.074   8.735
 2279POPC   C2B31076  27.745  40.170   8.329
 2279POPC   C3B31077  27.831  39.869   8.008
 2279POPC   C4B31078  28.119  39.790   7.721
 2280POPC   NC331079  42.581  12.283   9.337
 2280POPC   PO431080  42.214  11.723   9.485
 2280POPC   GL131081  42.348  11.846   9.122
 2280POPC   GL231082  42.674  11.774   9.166
 2280POPC   C1A31083  42.254  12.007   8.743
 2280POPC   D2A31084  42.171  12.261   8.404
 2280POPC   C3A31085  42.236  11.983   8.088
 2280POPC   C4A31086  42.338  12.103   7.698
 2280POPC   C1B31087  42.762  11.724   8.737
 2280POPC   C2B31088  42.627  11.604   8.308
 2280POPC   C3B31089  42.639  11.734   7.868
 2280POPC   C4B31090  42.522  11.733   7.394
 2281POPC   NC331091   7.949  21.583   9.707
 2281POPC   PO431092   8.466  21.349   9.396
 2281POPC   GL131093   8.254  21.462   9.074
 2281POPC   GL231094   7.957  21.620   9.175
 2281POPC   C1A31095   8.266  21.356   8.650
 2281POPC   D2A31096   8.071  21.333   8.249
 2281POPC   C3A31097   8.301  21.567   7.961
 2281POPC   C4A31098   8.361  21.521   7.513
 2281POPC   C1B31099   7.779  21.451   8.768
 2281POPC   C2B31100   7.668  21.610   8.351
 2281POPC   C3B31101   7.754  21.559   7.891
 2281POPC   C4B31102   7.985  21.200   7.735
 2282POPC   NC331103  20.725  40.138   9.511
 2282POPC   PO431104  20.534  39.477   9.543
 2282POPC   GL131105  20.542  39.744   9.189
 2282POPC   GL231106  20.842  39.908   9.077
 2282POPC   C1A31107  20.415  39.936   8.794
 2282POPC   D2A31108  20.296  40.179   8.423
 2282POPC   C3A31109  20.453  40.030   8.038
 2282POPC   C4A31110  20.439  39.802   7.662
 2282POPC   C1B31111  20.761  40.300   8.840
 2282POPC   C2B31112  20.815  40.134   8.420
 2282POPC   C3B31113  20.912  40.274   8.018
 2282POPC   C4B31114  20.773  40.214   7.635
 2283POPC   NC331115   8.436  30.582   9.525
 2283POPC   PO431116   7.893  31.093   9.462
 2283POPC   GL131117   8.186  30.861   9.174
 2283POPC   GL231118   8.200  30.498   9.093
 2283POPC   C1A31119   8.223  30.880   8.757
 2283POPC   D2A31120   7.913  30.813   8.447
 2283POPC   C3A31121   8.141  30.753   8.059
 2283POPC   C4A31122   8.221  31.051   7.729
 2283POPC   C1B31123   8.495  30.416   8.751
 2283POPC   C2B31124   8.670  30.389   8.335
 2283POPC   C3B31125   8.576  30.289   7.905
 2283POPC   C4B31126   8.352  30.564   7.631
 2284POPC   NC331127  10.520  43.360   9.670
 2284POPC   PO431128  10.137  43.956   9.665
 2284POPC   GL131129  10.410  43.781   9.296
 2284POPC   GL231130  10.713  43.669   9.219
 2284POPC   C1A31131  10.487  43.838   8.817
 2284POPC   D2A31132  10.563  44.066   8.460
 2284POPC   C3A31133  10.502  43.886   8.091
 2284POPC   C4A31134  10.653  44.091   7.759
 2284POPC   C1B31135  10.903  43.515   8.832
 2284POPC   C2B31136  10.709  43.499   8.416
 2284POPC   C3B31137  10.874  43.528   8.005
 2284POPC   C4B31138  11.014  43.711   7.638
 2285POPC   NC331139   1.374  43.386   9.487
 2285POPC   PO431140   1.108  42.692   9.523
 2285POPC   GL131141   1.213  42.976   9.194
 2285POPC   GL231142   0.968  43.268   9.173
 2285POPC   C1A31143   1.387  43.177   8.828
 2285POPC   D2A31144   1.211  43.193   8.426
 2285POPC   C3A31145   1.360  42.870   8.187
 2285POPC   C4A31146   1.378  42.991   7.797
 2285POPC   C1B31147   0.964  43.499   8.768
 2285POPC   C2B31148   0.903  43.593   8.316
 2285POPC   C3B31149   0.958  43.298   7.960
 2285POPC   C4B31150   1.145  43.414   7.550
 2286POPC   NC331151  25.546  17.037   9.467
 2286POPC   PO431152  25.207  17.633   9.507
 2286POPC   GL131153  25.221  17.612   9.078
 2286POPC   GL231154  25.354  17.296   9.066
 2286POPC   C1A31155  25.110  17.500   8.663
 2286POPC   D2A31156  24.765  17.360   8.404
 2286POPC   C3A31157  24.984  17.490   8.036
 2286POPC   C4A31158  25.278  17.538   7.693
 2286POPC   C1B31159  25.589  17.173   8.695
 2286POPC   C2B31160  25.667  17.321   8.272
 2286POPC   C3B31161  25.508  17.114   7.886
 2286POPC   C4B31162  25.629  17.168   7.441
 2287POPC   NC331163  37.332  33.436   9.513
 2287POPC   PO431164  37.713  32.836   9.468
 2287POPC   GL131165  37.501  33.083   9.174
 2287POPC   GL231166  37.720  33.280   9.170
 2287POPC   C1A31167  37.363  33.087   8.763
 2287POPC   D2A31168  37.590  33.030   8.389
 2287POPC   C3A31169  37.435  33.159   7.993
 2287POPC   C4A31170  37.551  32.889   7.640
 2287POPC   C1B31171  37.684  33.486   8.784
 2287POPC   C2B31172  37.597  33.531   8.350
 2287POPC   C3B31173  37.732  33.601   7.926
 2287POPC   C4B31174  37.759  33.344   7.557
 2288POPC   NC331175  18.577  19.859   9.537
 2288POPC   PO431176  17.965  19.594   9.532
 2288POPC   GL131177  18.245  19.678   9.205
 2288POPC   GL231178  18.169  20.004   9.121
 2288POPC   C1A31179  18.422  19.639   8.803
 2288POPC   D2A31180  18.223  19.897   8.486
 2288POPC   C3A31181  18.280  19.816   8.078
 2288POPC   C4A31182  17.988  19.816   7.786
 2288POPC   C1B31183  18.506  20.125   8.834
 2288POPC   C2B31184  18.371  20.397   8.515
 2288POPC   C3B31185  18.327  20.333   8.112
 2288POPC   C4B31186  18.561  20.146   7.807
 2289POPC   NC331187  10.456  37.408   9.648
 2289POPC   PO431188  10.870  37.859   9.566
 2289POPC   GL131189  10.543  37.792   9.233
 2289POPC   GL231190  10.345  38.096   9.146
 2289POPC   C1A31191  10.461  37.624   8.787
 2289POPC   D2A31192  10.685  37.690   8.374
 2289POPC   C3A31193  10.602  37.563   7.920
 2289POPC   C4A31194  10.912  37.488   7.564
 2289POPC   C1B31195  10.211  38.045   8.686
 2289POPC   C2B31196  10.234  37.865   8.240
 2289POPC   C3B31197  10.309  38.021   7.833
 2289POPC   C4B31198  10.173  38.143   7.446
 2290POPC   NC331199   5.178  24.086   9.152
 2290POPC   PO431200   4.957  24.489   9.668
 2290POPC   GL131201   4.939  24.561   9.229
 2290POPC   GL231202   5.311  24.603   9.175
 2290POPC   C1A31203   4.907  24.488   8.758
 2290POPC   D2A31204   5.247  24.198   8.493
 2290POPC   C3A31205   5.245  24.293   8.021
 2290POPC   C4A31206   4.965  24.587   7.800
 2290POPC   C1B31207   5.372  24.661   8.726
 2290POPC   C2B31208   5.168  24.695   8.338
 2290POPC   C3B31209   5.357  24.854   7.986
 2290POPC   C4B31210   5.340  25.007   7.589
 2291POPC   NC331211   0.472   3.696   9.580
 2291POPC   PO431212   0.673   3.078   9.422
 2291POPC   GL131213   0.424   3.394   9.178
 2291POPC   GL231214   0.615   3.732   9.102
 2291POPC   C1A31215   0.260   3.505   8.776
 2291POPC   D2A31216   0.346   3.273   8.397
 2291POPC   C3A31217   0.313   3.437   7.986
 2291POPC   C4A31218   0.644   3.204   7.812
 2291POPC   C1B31219   0.699   3.872   8.685
 2291POPC   C2B31220   0.681   3.675   8.270
 2291POPC   C3B31221   0.628   3.804   7.841
 2291POPC   C4B31222   0.481   4.039   7.476
 2292POPC   NC331223  40.946   2.554   9.362
 2292POPC   PO431224  41.233   3.133   9.411
 2292POPC   GL131225  41.018   2.943   9.058
 2292POPC   GL231226  40.648   2.870   9.073
 2292POPC   C1A31227  40.861   3.013   8.652
 2292POPC   D2A31228  40.766   2.787   8.296
 2292POPC   C3A31229  40.821   3.001   7.954
 2292POPC   C4A31230  40.507   3.113   7.680
 2292POPC   C1B31231  40.772   2.515   8.738
 2292POPC   C2B31232  41.046   2.370   8.384
 2292POPC   C3B31233  41.020   2.494   7.945
 2292POPC   C4B31234  40.710   2.627   7.630
 2293POPC   NC331235  34.044   9.064   9.589
 2293POPC   PO431236  33.569   9.411   9.359
 2293POPC   GL131237  33.740   9.026   9.126
 2293POPC   GL231238  34.091   8.901   9.130
 2293POPC   C1A31239  33.577   8.808   8.759
 2293POPC   D2A31240  33.528   8.659   8.339
 2293POPC   C3A31241  33.724   8.903   8.008
 2293POPC   C4A31242  33.698   9.162   7.656
 2293POPC   C1B31243  34.088   8.696   8.767
 2293POPC   C2B31244  34.074   8.810   8.368
 2293POPC   C3B31245  34.246   8.691   7.982
 2293POPC   C4B31246  34.009   8.707   7.599
 2294POPC   NC331247   2.439  13.364   9.487
 2294POPC   PO431248   3.127  13.575   9.392
 2294POPC   GL131249   2.804  13.531   9.136
 2294POPC   GL231250   2.534  13.769   9.158
 2294POPC   C1A31251   2.775  13.423   8.722
 2294POPC   D2A31252   2.840  13.664   8.355
 2294POPC   C3A31253   2.824  13.408   8.006
 2294POPC   C4A31254   2.947  13.479   7.622
 2294POPC   C1B31255   2.332  13.753   8.728
 2294POPC   C2B31256   2.337  13.749   8.253
 2294POPC   C3B31257   2.478  13.767   7.801
 2294POPC   C4B31258   2.568  13.696   7.340
 2295POPC   NC331259  44.923  13.162   9.431
 2295POPC   PO431260  44.650  13.828   9.442
 2295POPC   GL131261  44.756  13.558   9.139
 2295POPC   GL231262  44.513  13.229   9.144
 2295POPC   C1A31263  44.728  13.812   8.768
 2295POPC   D2A31264  44.506  13.714   8.406
 2295POPC   C3A31265  44.563  13.902   8.031
 2295POPC   C4A31266  44.290  13.830   7.695
 2295POPC   C1B31267  44.557  13.329   8.737
 2295POPC   C2B31268  44.807  13.299   8.368
 2295POPC   C3B31269  44.582  13.370   7.985
 2295POPC   C4B31270  44.578  13.441   7.524
 2296POPC   NC331271   9.541   0.897   9.561
 2296POPC   PO431272   9.928   1.450   9.465
 2296POPC   GL131273   9.689   1.386   9.106
 2296POPC   GL231274   9.568   1.061   9.076
 2296POPC   C1A31275   9.831   1.466   8.727
 2296POPC   D2A31276  10.029   1.274   8.406
 2296POPC   C3A31277   9.816   1.371   8.026
 2296POPC   C4A31278   9.825   1.373   7.584
 2296POPC   C1B31279   9.907   0.949   8.800
 2296POPC   C2B31280   9.769   0.836   8.381
 2296POPC   C3B31281   9.831   0.863   7.969
 2296POPC   C4B31282   9.563   0.880   7.576
 2297POPC   NC331283  26.888  34.864   9.664
 2297POPC   PO431284  26.395  35.252   9.496
 2297POPC   GL131285  26.739  35.235   9.194
 2297POPC   GL231286  26.547  35.468   9.042
 2297POPC   C1A31287  27.040  35.364   8.860
 2297POPC   D2A31288  27.034  35.273   8.449
 2297POPC   C3A31289  27.205  35.366   8.044
 2297POPC   C4A31290  26.887  35.281   7.731
 2297POPC   C1B31291  26.621  35.586   8.644
 2297POPC   C2B31292  26.645  35.500   8.209
 2297POPC   C3B31293  26.544  35.698   7.828
 2297POPC   C4B31294  26.461  35.472   7.470
 2298POPC   NC331295  30.239   2.872   9.995
 2298POPC   PO431296  30.617   2.791   9.430
 2298POPC   GL131297  30.582   2.735   9.055
 2298POPC   GL231298  30.908   2.880   9.024
 2298POPC   C1A31299  30.297   2.747   8.729
 2298POPC   D2A31300  30.362   2.870   8.298
 2298POPC   C3A31301  30.289   2.595   7.991
 2298POPC   C4A31302  30.658   2.542   7.804
 2298POPC   C1B31303  30.777   2.891   8.608
 2298POPC   C2B31304  30.903   2.665   8.271
 2298POPC   C3B31305  31.067   2.965   8.051
 2298POPC   C4B31306  30.716   3.045   7.813
 2299POPC   NC331307   4.867   7.201   9.467
 2299POPC   PO431308   5.241   7.789   9.452
 2299POPC   GL131309   5.108   7.610   9.094
 2299POPC   GL231310   5.231   7.291   9.103
 2299POPC   C1A31311   4.942   7.575   8.684
 2299POPC   D2A31312   4.875   7.285   8.396
 2299POPC   C3A31313   4.870   7.470   8.031
 2299POPC   C4A31314   5.113   7.370   7.688
 2299POPC   C1B31315   5.419   7.393   8.715
 2299POPC   C2B31316   5.334   7.478   8.271
 2299POPC   C3B31317   5.553   7.231   7.971
 2299POPC   C4B31318   5.526   7.105   7.580
 2300POPC   NC331319  15.187  33.360   9.237
 2300POPC   PO431320  15.351  32.903   9.674
 2300POPC   GL131321  15.182  32.813   9.242
 2300POPC   GL231322  14.855  32.988   9.157
 2300POPC   C1A31323  15.312  32.869   8.804
 2300POPC   D2A31324  15.180  33.087   8.409
 2300POPC   C3A31325  15.387  33.035   8.009
 2300POPC   C4A31326  15.323  33.189   7.626
 2300POPC   C1B31327  14.760  32.805   8.776
 2300POPC   C2B31328  14.661  32.844   8.336
 2300POPC   C3B31329  14.851  33.041   7.975
 2300POPC   C4B31330  14.988  32.809   7.610
 2301POPC   NC331331  36.921  34.344   9.429
 2301POPC   PO431332  36.676  35.045   9.362
 2301POPC   GL131333  36.972  34.755   9.111
 2301POPC   GL231334  37.229  34.451   9.038
 2301POPC   C1A31335  36.845  34.750   8.694
 2301POPC   D2A31336  36.646  34.895   8.320
 2301POPC   C3A31337  36.679  34.578   8.004
 2301POPC   C4A31338  36.669  34.651   7.545
 2301POPC   C1B31339  36.996  34.259   8.764
 2301POPC   C2B31340  37.010  34.389   8.362
 2301POPC   C3B31341  37.035  34.156   8.018
 2301POPC   C4B31342  37.102  34.388   7.675
 2302POPC   NC331343  40.930   5.841   9.559
 2302POPC   PO431344  40.472   6.360   9.416
 2302POPC   GL131345  40.799   6.122   9.140
 2302POPC   GL231346  40.834   5.739   9.085
 2302POPC   C1A31347  40.825   6.059   8.690
 2302POPC   D2A31348  40.625   5.880   8.315
 2302POPC   C3A31349  40.892   5.906   7.961
 2302POPC   C4A31350  40.938   6.130   7.588
 2302POPC   C1B31351  40.639   5.550   8.728
 2302POPC   C2B31352  40.483   5.385   8.332
 2302POPC   C3B31353  40.488   5.576   7.903
 2302POPC   C4B31354  40.732   5.674   7.522
 2303POPC   NC331355   9.279  44.467   9.369
 2303POPC   PO431356   8.561  44.439   9.485
 2303POPC   GL131357   8.674  44.643   9.133
 2303POPC   GL231358   8.792   0.006   9.219
 2303POPC   C1A31359   8.774  44.412   8.737
 2303POPC   D2A31360   8.615  44.464   8.329
 2303POPC   C3A31361   8.921  44.369   8.018
 2303POPC   C4A31362   8.877  44.507   7.618
 2303POPC   C1B31363   9.037  44.840   8.837
 2303POPC   C2B31364   9.103  44.684   8.398
 2303POPC   C3B31365   9.055  44.858   7.977
 2303POPC   C4B31366   9.172  44.898   7.538
 2304POPC   NC331367  39.638  28.116   9.474
 2304POPC   PO431368  39.854  28.728   9.476
 2304POPC   GL131369  39.700  28.528   9.091
 2304POPC   GL231370  39.541  28.175   8.993
 2304POPC   C1A31371  40.021  28.396   8.836
 2304POPC   D2A31372  40.202  28.318   8.444
 2304POPC   C3A31373  40.093  28.068   8.075
 2304POPC   C4A31374  40.198  28.264   7.682
 2304POPC   C1B31375  39.610  28.267   8.571
 2304POPC   C2B31376  39.804  28.652   8.409
 2304POPC   C3B31377  39.955  28.580   8.020
 2304POPC   C4B31378  39.704  28.370   7.708
 2305POPC   NC331379  19.905  33.978   9.668
 2305POPC   PO431380  20.098  33.430   9.399
 2305POPC   GL131381  19.786  33.700   9.206
 2305POPC   GL231382  19.730  34.092   9.168
 2305POPC   C1A31383  19.759  33.774   8.758
 2305POPC   D2A31384  19.964  33.697   8.376
 2305POPC   C3A31385  19.704  33.764   8.000
 2305POPC   C4A31386  19.884  33.590   7.598
 2305POPC   C1B31387  19.990  34.230   8.792
 2305POPC   C2B31388  20.065  34.182   8.335
 2305POPC   C3B31389  20.126  33.994   7.911
 2305POPC   C4B31390  19.979  34.069   7.473
 2306POPC   NC331391  34.120  44.363   9.655
 2306POPC   PO431392  33.698  43.868   9.597
 2306POPC   GL131393  33.915  43.872   9.199
 2306POPC   GL231394  33.640  43.752   9.084
 2306POPC   C1A31395  34.077  43.987   8.788
 2306POPC   D2A31396  33.974  44.127   8.354
 2306POPC   C3A31397  33.648  44.094   8.079
 2306POPC   C4A31398  33.701  43.925   7.629
 2306POPC   C1B31399  33.567  43.953   8.735
 2306POPC   C2B31400  33.662  43.710   8.402
 2306POPC   C3B31401  33.456  43.625   8.016
 2306POPC   C4B31402  33.635  43.419   7.699
 2307POPC   NC331403  23.416  35.289   9.429
 2307POPC   PO431404  24.068  35.499   9.349
 2307POPC   GL131405  23.811  35.398   9.033
 2307POPC   GL231406  23.533  35.646   9.076
 2307POPC   C1A31407  24.036  35.477   8.656
 2307POPC   D2A31408  24.178  35.517   8.254
 2307POPC   C3A31409  23.866  35.353   8.005
 2307POPC   C4A31410  23.949  35.411   7.585
 2307POPC   C1B31411  23.556  35.664   8.644
 2307POPC   C2B31412  23.547  35.278   8.427
 2307POPC   C3B31413  23.354  35.197   8.040
 2307POPC   C4B31414  23.580  35.062   7.695
 2308POPC   NC331415  34.244  25.181   9.603
 2308POPC   PO431416  33.631  25.433   9.529
 2308POPC   GL131417  33.916  25.282   9.186
 2308POPC   GL231418  34.024  24.912   9.223
 2308POPC   C1A31419  33.851  25.422   8.749
 2308POPC   D2A31420  33.975  25.525   8.330
 2308POPC   C3A31421  33.712  25.352   8.019
 2308POPC   C4A31422  33.647  25.505   7.616
 2308POPC   C1B31423  33.849  24.910   8.827
 2308POPC   C2B31424  33.711  25.023   8.440
 2308POPC   C3B31425  33.843  24.866   8.054
 2308POPC   C4B31426  33.515  24.888   7.767
 2309POPC   NC331427   1.945  14.233   9.511
 2309POPC   PO431428   2.133  14.890   9.669
 2309POPC   GL131429   2.040  14.641   9.214
 2309POPC   GL231430   1.733  14.410   9.093
 2309POPC   C1A31431   2.091  14.523   8.745
 2309POPC   D2A31432   2.113  14.269   8.364
 2309POPC   C3A31433   2.067  14.560   8.058
 2309POPC   C4A31434   2.045  14.475   7.645
 2309POPC   C1B31435   1.588  14.626   8.764
 2309POPC   C2B31436   1.638  14.481   8.346
 2309POPC   C3B31437   1.595  14.408   7.894
 2309POPC   C4B31438   1.557  14.435   7.450
 2310POPC   NC331439   2.364   2.780   9.175
 2310POPC   PO431440   2.946   2.568   9.448
 2310POPC   GL131441   2.877   2.799   9.064
 2310POPC   GL231442   2.692   2.549   8.883
 2310POPC   C1A31443   3.072   2.740   8.624
 2310POPC   D2A31444   3.228   2.475   8.270
 2310POPC   C3A31445   3.049   2.680   7.937
 2310POPC   C4A31446   3.119   3.137   8.060
 2310POPC   C1B31447   2.359   2.701   8.547
 2310POPC   C2B31448   2.279   3.037   8.240
 2310POPC   C3B31449   2.594   2.922   7.967
 2310POPC   C4B31450   2.421   2.486   7.967
 2311POPC   NC331451  35.080  25.728   9.561
 2311POPC   PO431452  35.590  26.146   9.657
 2311POPC   GL131453  35.363  26.077   9.258
 2311POPC   GL231454  35.652  25.946   9.130
 2311POPC   C1A31455  35.220  26.085   8.788
 2311POPC   D2A31456  35.302  25.856   8.344
 2311POPC   C3A31457  35.049  25.870   7.938
 2311POPC   C4A31458  34.973  25.738   7.485
 2311POPC   C1B31459  35.715  26.232   8.769
 2311POPC   C2B31460  35.481  26.329   8.372
 2311POPC   C3B31461  35.532  26.131   7.955
 2311POPC   C4B31462  35.726  26.126   7.528
 2312POPC   NC331463  29.631  20.855   9.620
 2312POPC   PO431464  30.173  20.585   9.513
 2312POPC   GL131465  29.892  20.710   9.209
 2312POPC   GL231466  29.976  21.052   9.156
 2312POPC   C1A31467  29.692  20.759   8.822
 2312POPC   D2A31468  29.547  20.505   8.531
 2312POPC   C3A31469  29.544  20.616   8.133
 2312POPC   C4A31470  29.834  20.615   7.793
 2312POPC   C1B31471  30.174  20.862   8.767
 2312POPC   C2B31472  29.991  20.786   8.337
 2312POPC   C3B31473  30.057  21.045   7.943
 2312POPC   C4B31474  30.312  20.880   7.571
 2313POPC   NC331475  30.107  37.258   9.512
 2313POPC   PO431476  29.475  37.096   9.547
 2313POPC   GL131477  29.725  37.123   9.206
 2313POPC   GL231478  29.911  36.800   9.264
 2313POPC   C1A31479  29.968  37.089   8.850
 2313POPC   D2A31480  30.143  36.858   8.521
 2313POPC   C3A31481  29.934  36.852   8.125
 2313POPC   C4A31482  30.058  37.012   7.732
 2313POPC   C1B31483  29.777  36.615   8.846
 2313POPC   C2B31484  29.540  36.675   8.454
 2313POPC   C3B31485  29.427  36.838   8.051
 2313POPC   C4B31486  29.588  36.632   7.734
 2314POPC   NC331487  25.919  15.315   9.446
 2314POPC   PO431488  26.499  15.137   9.731
 2314POPC   GL131489  26.341  14.935   9.227
 2314POPC   GL231490  26.067  15.103   9.025
 2314POPC   C1A31491  26.450  14.992   8.756
 2314POPC   D2A31492  26.261  14.901   8.370
 2314POPC   C3A31493  26.425  14.969   7.949
 2314POPC   C4A31494  26.066  15.039   7.700
 2314POPC   C1B31495  25.811  15.380   8.773
 2314POPC   C2B31496  25.885  15.401   8.339
 2314POPC   C3B31497  25.709  15.511   7.940
 2314POPC   C4B31498  25.820  15.449   7.498
 2315POPC   NC331499  11.404  32.784   9.510
 2315POPC   PO431500  11.233  33.465   9.449
 2315POPC   GL131501  10.969  33.395   9.100
 2315POPC   GL231502  11.039  33.025   9.059
 2315POPC   C1A31503  11.066  33.376   8.648
 2315POPC   D2A31504  11.324  33.140   8.352
 2315POPC   C3A31505  11.218  33.192   7.927
 2315POPC   C4A31506  11.007  32.916   7.635
 2315POPC   C1B31507  11.090  32.747   8.676
 2315POPC   C2B31508  11.295  32.593   8.297
 2315POPC   C3B31509  11.427  32.731   7.901
 2315POPC   C4B31510  11.499  33.008   7.548
 2316POPC   NC331511  25.531   7.095   9.461
 2316POPC   PO431512  25.497   7.657   9.658
 2316POPC   GL131513  25.342   7.593   9.195
 2316POPC   GL231514  25.327   7.268   9.056
 2316POPC   C1A31515  25.163   7.608   8.751
 2316POPC   D2A31516  25.409   7.614   8.370
 2316POPC   C3A31517  25.172   7.556   8.007
 2316POPC   C4A31518  24.898   7.775   7.725
 2316POPC   C1B31519  25.376   7.006   8.729
 2316POPC   C2B31520  25.284   7.090   8.324
 2316POPC   C3B31521  25.419   7.077   7.932
 2316POPC   C4B31522  25.303   7.246   7.527
 2317POPC   NC331523  36.594  27.653   9.592
 2317POPC   PO431524  37.301  27.643   9.695
 2317POPC   GL131525  37.076  27.697   9.256
 2317POPC   GL231526  37.135  27.455   9.008
 2317POPC   C1A31527  36.814  27.873   8.928
 2317POPC   D2A31528  36.932  27.810   8.474
 2317POPC   C3A31529  36.743  27.836   8.054
 2317POPC   C4A31530  36.988  27.602   7.750
 2317POPC   C1B31531  36.742  27.401   8.731
 2317POPC   C2B31532  36.614  27.386   8.275
 2317POPC   C3B31533  36.517  27.422   7.800
 2317POPC   C4B31534  36.775  27.264   7.440
 2318POPC   NC331535  22.454  35.534   9.549
 2318POPC   PO431536  22.968  35.124   9.439
 2318POPC   GL131537  23.019  35.270   9.064
 2318POPC   GL231538  23.260  35.045   8.957
 2318POPC   C1A31539  22.711  35.462   8.829
 2318POPC   D2A31540  22.568  35.547   8.441
 2318POPC   C3A31541  22.722  35.292   8.110
 2318POPC   C4A31542  22.985  35.527   7.865
 2318POPC   C1B31543  23.031  35.157   8.554
 2318POPC   C2B31544  23.105  35.551   8.369
 2318POPC   C3B31545  23.442  35.703   8.119
 2318POPC   C4B31546  23.470  35.561   7.695
 2319POPC   NC331547  23.811  16.371   9.533
 2319POPC   PO431548  23.604  17.025   9.484
 2319POPC   GL131549  23.553  16.713   9.136
 2319POPC   GL231550  23.864  16.497   9.048
 2319POPC   C1A31551  23.514  16.632   8.684
 2319POPC   D2A31552  23.728  16.514   8.292
 2319POPC   C3A31553  23.497  16.735   7.935
 2319POPC   C4A31554  23.444  17.029   7.583
 2319POPC   C1B31555  24.071  16.866   8.885
 2319POPC   C2B31556  24.090  17.026   8.458
 2319POPC   C3B31557  23.994  16.895   8.053
 2319POPC   C4B31558  23.918  16.899   7.621
 2320POPC   NC331559  31.217  11.369   9.852
 2320POPC   PO431560  31.547  10.749   9.730
 2320POPC   GL131561  31.503  11.002   9.302
 2320POPC   GL231562  31.569  11.382   9.275
 2320POPC   C1A31563  31.245  11.147   8.900
 2320POPC   D2A31564  31.149  11.015   8.454
 2320POPC   C3A31565  31.262  11.187   8.053
 2320POPC   C4A31566  31.454  11.461   7.747
 2320POPC   C1B31567  31.382  11.636   8.909
 2320POPC   C2B31568  31.320  11.548   8.467
 2320POPC   C3B31569  31.670  11.500   8.197
 2320POPC   C4B31570  31.940  11.576   7.866
 2321POPC   NC331571  37.323  44.902   9.467
 2321POPC   PO431572  36.823  44.518   9.682
 2321POPC   GL131573  36.756  44.754   9.275
 2321POPC   GL231574  37.052  44.614   9.152
 2321POPC   C1A31575  36.734  44.958   8.806
 2321POPC   D2A31576  36.934   0.026   8.376
 2321POPC   C3A31577  36.837  44.970   7.946
 2321POPC   C4A31578  37.043  44.690   7.695
 2321POPC   C1B31579  36.820  44.456   8.788
 2321POPC   C2B31580  36.972  44.455   8.373
 2321POPC   C3B31581  36.815  44.361   7.994
 2321POPC   C4B31582  36.508  44.613   7.835
 2322POPC   NC331583  20.003   6.434   9.439
 2322POPC   PO431584  19.899   5.711   9.522
 2322POPC   GL131585  19.754   5.824   9.135
 2322POPC   GL231586  19.919   6.101   9.028
 2322POPC   C1A31587  19.595   5.642   8.781
 2322POPC   D2A31588  19.391   5.597   8.394
 2322POPC   C3A31589  19.601   5.856   8.152
 2322POPC   C4A31590  19.849   5.940   7.808
 2322POPC   C1B31591  19.627   6.157   8.670
 2322POPC   C2B31592  19.656   6.379   8.245
 2322POPC   C3B31593  19.442   6.264   7.853
 2322POPC   C4B31594  19.544   6.145   7.409
 2323POPC   NC331595   5.040   8.161   9.612
 2323POPC   PO431596   4.761   8.724   9.634
 2323POPC   GL131597   4.807   8.500   9.230
 2323POPC   GL231598   5.156   8.342   9.147
 2323POPC   C1A31599   4.826   8.386   8.772
 2323POPC   D2A31600   5.224   8.462   8.495
 2323POPC   C3A31601   5.277   8.326   8.079
 2323POPC   C4A31602   4.853   8.314   7.926
 2323POPC   C1B31603   5.190   8.024   8.777
 2323POPC   C2B31604   5.044   7.930   8.325
 2323POPC   C3B31605   5.150   7.859   7.883
 2323POPC   C4B31606   4.868   7.778   7.523
 2324POPC   NC331607   3.832  41.329   9.387
 2324POPC   PO431608   3.537  41.920   9.572
 2324POPC   GL131609   3.602  41.761   9.188
 2324POPC   GL231610   3.986  41.774   9.166
 2324POPC   C1A31611   3.428  41.890   8.769
 2324POPC   D2A31612   3.301  41.615   8.418
 2324POPC   C3A31613   3.515  41.446   8.035
 2324POPC   C4A31614   3.234  41.726   7.775
 2324POPC   C1B31615   3.848  41.613   8.771
 2324POPC   C2B31616   3.778  41.776   8.394
 2324POPC   C3B31617   3.577  41.932   8.074
 2324POPC   C4B31618   3.786  41.815   7.687
 2325POPC   NC331619  29.913  25.755   9.517
 2325POPC   PO431620  30.140  26.447   9.481
 2325POPC   GL131621  29.823  26.189   9.263
 2325POPC   GL231622  30.119  26.025   9.110
 2325POPC   C1A31623  29.658  25.955   8.888
 2325POPC   D2A31624  29.888  26.048   8.518
 2325POPC   C3A31625  29.786  26.087   8.099
 2325POPC   C4A31626  29.786  26.102   7.656
 2325POPC   C1B31627  30.273  25.801   8.752
 2325POPC   C2B31628  30.265  25.806   8.301
 2325POPC   C3B31629  30.236  25.935   7.880
 2325POPC   C4B31630  30.236  25.961   7.433
 2326POPC   NC331631  16.074  28.302   9.943
 2326POPC   PO431632  15.903  28.179   9.302
 2326POPC   GL131633  15.964  28.376   8.976
 2326POPC   GL231634  15.653  28.575   9.004
 2326POPC   C1A31635  16.081  28.169   8.593
 2326POPC   D2A31636  16.235  28.506   8.381
 2326POPC   C3A31637  16.095  28.600   7.984
 2326POPC   C4A31638  15.979  28.288   7.719
 2326POPC   C1B31639  15.673  28.481   8.575
 2326POPC   C2B31640  15.748  28.274   8.194
 2326POPC   C3B31641  15.493  28.321   7.844
 2326POPC   C4B31642  15.378  28.565   7.532
 2327POPC   NC331643   5.619  42.973   9.504
 2327POPC   PO431644   5.063  43.311   9.613
 2327POPC   GL131645   5.060  43.053   9.219
 2327POPC   GL231646   5.345  42.873   9.066
 2327POPC   C1A31647   5.060  43.193   8.787
 2327POPC   D2A31648   5.265  43.038   8.460
 2327POPC   C3A31649   5.064  43.029   8.099
 2327POPC   C4A31650   5.032  43.331   7.806
 2327POPC   C1B31651   5.634  42.784   8.730
 2327POPC   C2B31652   5.701  42.826   8.302
 2327POPC   C3B31653   5.465  42.659   7.971
 2327POPC   C4B31654   5.295  42.755   7.583
 2328POPC   NC331655  39.415   7.557   9.698
 2328POPC   PO431656  39.777   6.948   9.523
 2328POPC   GL131657  39.452   7.239   9.273
 2328POPC   GL231658  39.437   7.639   9.214
 2328POPC   C1A31659  39.160   7.337   8.893
 2328POPC   D2A31660  39.076   7.133   8.480
 2328POPC   C3A31661  39.155   7.358   8.082
 2328POPC   C4A31662  39.534   7.320   7.857
 2328POPC   C1B31663  39.393   7.800   8.829
 2328POPC   C2B31664  39.169   7.792   8.451
 2328POPC   C3B31665  39.271   7.887   8.050
 2328POPC   C4B31666  39.279   7.702   7.645
 2329POPC   NC331667  42.840  18.655   9.423
 2329POPC   PO431668  43.178  19.172   9.567
 2329POPC   GL131669  43.286  19.026   9.165
 2329POPC   GL231670  42.931  19.001   9.082
 2329POPC   C1A31671  43.375  18.902   8.742
 2329POPC   D2A31672  43.558  18.735   8.346
 2329POPC   C3A31673  43.381  18.997   8.036
 2329POPC   C4A31674  43.469  19.152   7.654
 2329POPC   C1B31675  42.896  18.777   8.688
 2329POPC   C2B31676  43.051  18.685   8.259
 2329POPC   C3B31677  42.965  18.757   7.824
 2329POPC   C4B31678  42.671  18.974   7.605
 2330POPC   NC331679  13.085  42.463   9.465
 2330POPC   PO431680  12.491  42.267   9.566
 2330POPC   GL131681  12.611  42.429   9.187
 2330POPC   GL231682  12.439  42.115   9.070
 2330POPC   C1A31683  12.868  42.296   8.841
 2330POPC   D2A31684  12.796  42.365   8.435
 2330POPC   C3A31685  13.008  42.124   8.166
 2330POPC   C4A31686  13.088  42.364   7.859
 2330POPC   C1B31687  12.345  42.391   8.737
 2330POPC   C2B31688  12.292  42.347   8.314
 2330POPC   C3B31689  12.559  42.450   7.980
 2330POPC   C4B31690  12.354  42.312   7.653
 2331POPC   NC331691  44.600  16.538   9.445
 2331POPC   PO431692  44.277  17.110   9.537
 2331POPC   GL131693  44.318  16.951   9.162
 2331POPC   GL231694  44.681  16.943   9.145
 2331POPC   C1A31695  44.368  16.754   8.762
 2331POPC   D2A31696  44.533  16.585   8.388
 2331POPC   C3A31697  44.579  16.809   8.026
 2331POPC   C4A31698  44.375  16.820   7.623
 2331POPC   C1B31699  44.884  16.724   8.800
 2331POPC   C2B31700   0.032  16.726   8.369
 2331POPC   C3B31701   0.068  16.455   8.032
 2331POPC   C4B31702  44.754  16.360   7.774
 2332POPC   NC331703  16.780   6.896   9.519
 2332POPC   PO431704  16.629   6.288   9.518
 2332POPC   GL131705  16.838   6.521   9.196
 2332POPC   GL231706  17.136   6.337   9.117
 2332POPC   C1A31707  16.821   6.834   8.832
 2332POPC   D2A31708  16.986   7.022   8.424
 2332POPC   C3A31709  16.703   6.930   8.092
 2332POPC   C4A31710  16.692   6.804   7.659
 2332POPC   C1B31711  16.873   6.330   8.746
 2332POPC   C2B31712  16.915   6.515   8.385
 2332POPC   C3B31713  16.872   6.438   8.005
 2332POPC   C4B31714  16.727   6.310   7.609
 2333POPC   NC331715  40.669  23.440   9.532
 2333POPC   PO431716  40.664  24.028   9.510
 2333POPC   GL131717  40.887  23.756   9.213
 2333POPC   GL231718  40.551  23.668   9.116
 2333POPC   C1A31719  40.904  23.388   8.888
 2333POPC   D2A31720  40.944  23.507   8.437
 2333POPC   C3A31721  40.662  23.424   8.108
 2333POPC   C4A31722  40.818  23.460   7.684
 2333POPC   C1B31723  40.692  23.836   8.760
 2333POPC   C2B31724  40.587  23.902   8.381
 2333POPC   C3B31725  40.733  23.949   8.013
 2333POPC   C4B31726  40.588  23.920   7.609
 2334POPC   NC331727   6.903   4.434   9.431
 2334POPC   PO431728   6.283   4.592   9.465
 2334POPC   GL131729   6.396   4.364   9.113
 2334POPC   GL231730   6.669   4.140   9.055
 2334POPC   C1A31731   6.382   4.326   8.688
 2334POPC   D2A31732   6.572   4.431   8.358
 2334POPC   C3A31733   6.466   4.108   8.166
 2334POPC   C4A31734   6.232   4.016   7.827
 2334POPC   C1B31735   6.940   4.160   8.652
 2334POPC   C2B31736   6.982   4.189   8.193
 2334POPC   C3B31737   6.777   4.351   7.829
 2334POPC   C4B31738   6.863   4.459   7.406
 2335POPC   NC331739  22.352  41.876   9.441
 2335POPC   PO431740  22.161  42.535   9.516
 2335POPC   GL131741  22.024  42.442   9.100
 2335POPC   GL231742  21.968  42.112   9.129
 2335POPC   C1A31743  21.841  42.389   8.688
 2335POPC   D2A31744  21.872  42.204   8.257
 2335POPC   C3A31745  22.219  42.340   7.993
 2335POPC   C4A31746  22.627  42.572   7.813
 2335POPC   C1B31747  22.159  41.948   8.785
 2335POPC   C2B31748  22.361  41.983   8.408
 2335POPC   C3B31749  22.269  41.811   8.011
 2335POPC   C4B31750  21.986  41.912   7.722
 2336POPC   NC331751  13.060  11.812   9.509
 2336POPC   PO431752  12.705  12.407   9.519
 2336POPC   GL131753  12.812  12.246   9.138
 2336POPC   GL231754  12.807  11.872   9.087
 2336POPC   C1A31755  13.013  12.191   8.728
 2336POPC   D2A31756  12.935  11.947   8.376
 2336POPC   C3A31757  12.995  12.174   8.031
 2336POPC   C4A31758  12.775  12.333   7.729
 2336POPC   C1B31759  12.709  11.640   8.731
 2336POPC   C2B31760  12.873  11.452   8.383
 2336POPC   C3B31761  12.741  11.549   7.988
 2336POPC   C4B31762  12.815  11.827   7.642
 2337POPC   NC331763  12.869  29.752   9.417
 2337POPC   PO431764  12.784  30.334   9.713
 2337POPC   GL131765  12.772  30.258   9.181
 2337POPC   GL231766  12.868  29.919   8.966
 2337POPC   C1A31767  12.743  30.284   8.669
 2337POPC   D2A31768  12.701  29.827   8.470
 2337POPC   C3A31769  12.606  29.800   8.026
 2337POPC   C4A31770  12.836  30.155   7.811
 2337POPC   C1B31771  13.237  29.690   8.820
 2337POPC   C2B31772  13.331  29.900   8.478
 2337POPC   C3B31773  13.134  29.834   8.089
 2337POPC   C4B31774  13.020  29.632   7.711
 2338POPC   NC331775  12.593  40.168   9.440
 2338POPC   PO431776  13.057  39.623   9.508
 2338POPC   GL131777  12.869  39.805   9.175
 2338POPC   GL231778  13.076  40.103   9.214
 2338POPC   C1A31779  12.749  39.953   8.763
 2338POPC   D2A31780  12.559  39.813   8.347
 2338POPC   C3A31781  12.675  39.934   7.926
 2338POPC   C4A31782  12.649  39.864   7.474
 2338POPC   C1B31783  13.269  39.934   8.840
 2338POPC   C2B31784  13.124  39.833   8.419
 2338POPC   C3B31785  13.197  40.013   8.022
 2338POPC   C4B31786  13.168  39.827   7.630
 2339POPC   NC331787  15.469  35.809   9.602
 2339POPC   PO431788  16.084  35.996   9.554
 2339POPC   GL131789  15.867  36.134   9.189
 2339POPC   GL231790  15.886  35.812   9.059
 2339POPC   C1A31791  15.766  36.229   8.770
 2339POPC   D2A31792  15.840  35.809   8.531
 2339POPC   C3A31793  15.744  35.828   8.095
 2339POPC   C4A31794  15.944  35.855   7.726
 2339POPC   C1B31795  16.219  36.054   8.778
 2339POPC   C2B31796  16.128  36.193   8.361
 2339POPC   C3B31797  15.981  36.306   7.961
 2339POPC   C4B31798  16.341  36.228   7.703
 2340POPC   NC331799   7.611  13.939   9.494
 2340POPC   PO431800   7.366  13.334   9.514
 2340POPC   GL131801   7.421  13.576   9.163
 2340POPC   GL231802   7.217  13.835   9.155
 2340POPC   C1A31803   7.518  13.739   8.767
 2340POPC   D2A31804   7.463  13.556   8.394
 2340POPC   C3A31805   7.400  13.739   8.053
 2340POPC   C4A31806   7.481  13.608   7.662
 2340POPC   C1B31807   7.076  14.030   8.821
 2340POPC   C2B31808   7.237  14.062   8.422
 2340POPC   C3B31809   7.022  14.081   8.032
 2340POPC   C4B31810   6.986  13.787   7.673
 2341POPC   NC331811   7.250  32.822   9.549
 2341POPC   PO431812   6.795  33.137   9.596
 2341POPC   GL131813   7.119  33.099   9.156
 2341POPC   GL231814   7.527  32.926   9.141
 2341POPC   C1A31815   7.318  33.052   8.720
 2341POPC   D2A31816   7.588  33.142   8.360
 2341POPC   C3A31817   7.413  33.087   7.958
 2341POPC   C4A31818   7.329  32.758   7.670
 2341POPC   C1B31819   7.817  32.887   8.781
 2341POPC   C2B31820   7.969  32.741   8.378
 2341POPC   C3B31821   7.772  32.731   7.982
 2341POPC   C4B31822   7.790  32.956   7.577
 2342POPC   NC331823  28.093  10.495   9.543
 2342POPC   PO431824  28.733  10.886   9.458
 2342POPC   GL131825  28.385  10.782   9.131
 2342POPC   GL231826  28.082  10.547   9.068
 2342POPC   C1A31827  28.306  10.695   8.670
 2342POPC   D2A31828  28.524  10.453   8.390
 2342POPC   C3A31829  28.367  10.578   8.020
 2342POPC   C4A31830  28.314  10.302   7.702
 2342POPC   C1B31831  27.883  10.346   8.777
 2342POPC   C2B31832  28.043  10.261   8.392
 2342POPC   C3B31833  27.889  10.267   8.004
 2342POPC   C4B31834  27.901  10.617   7.797
 2343POPC   NC331835  31.638   8.544   9.317
 2343POPC   PO431836  31.671   7.949   9.618
 2343POPC   GL131837  31.571   8.012   9.219
 2343POPC   GL231838  31.253   8.180   9.185
 2343POPC   C1A31839  31.482   7.943   8.800
 2343POPC   D2A31840  31.386   8.149   8.426
 2343POPC   C3A31841  31.572   8.032   8.066
 2343POPC   C4A31842  31.550   8.346   7.752
 2343POPC   C1B31843  31.140   8.393   8.803
 2343POPC   C2B31844  31.115   8.588   8.416
 2343POPC   C3B31845  31.099   8.397   8.045
 2343POPC   C4B31846  31.044   8.481   7.625
 2344POPC   NC331847  32.723  40.634   9.526
 2344POPC   PO431848  33.067  41.147   9.393
 2344POPC   GL131849  32.866  40.847   9.092
 2344POPC   GL231850  33.079  40.575   8.985
 2344POPC   C1A31851  32.628  40.678   8.714
 2344POPC   D2A31852  32.707  40.665   8.245
 2344POPC   C3A31853  33.110  40.552   8.094
 2344POPC   C4A31854  33.236  40.539   7.676
 2344POPC   C1B31855  33.083  40.892   8.616
 2344POPC   C2B31856  33.033  41.068   8.214
 2344POPC   C3B31857  32.928  40.928   7.827
 2344POPC   C4B31858  33.071  41.125   7.498
 2345POPC   NC331859  18.078  27.992   9.403
 2345POPC   PO431860  18.702  27.716   9.514
 2345POPC   GL131861  18.436  27.703   9.159
 2345POPC   GL231862  18.598  28.011   9.102
 2345POPC   C1A31863  18.239  27.615   8.759
 2345POPC   D2A31864  18.430  27.467   8.372
 2345POPC   C3A31865  18.248  27.572   8.047
 2345POPC   C4A31866  18.331  27.590   7.686
 2345POPC   C1B31867  18.453  28.082   8.716
 2345POPC   C2B31868  18.344  27.975   8.356
 2345POPC   C3B31869  18.026  28.033   8.104
 2345POPC   C4B31870  17.964  27.932   7.702
 2346POPC   NC331871  22.392  23.253   9.535
 2346POPC   PO431872  22.968  23.004   9.656
 2346POPC   GL131873  22.990  22.930   9.189
 2346POPC   GL231874  22.664  23.021   9.148
 2346POPC   C1A31875  22.867  22.741   8.756
 2346POPC   D2A31876  22.777  22.885   8.345
 2346POPC   C3A31877  22.892  22.724   7.905
 2346POPC   C4A31878  22.696  22.722   7.467
 2346POPC   C1B31879  22.401  23.257   8.857
 2346POPC   C2B31880  22.518  23.426   8.466
 2346POPC   C3B31881  22.596  23.287   8.086
 2346POPC   C4B31882  22.565  23.113   7.739
 2347POPC   NC331883  24.599  44.251   9.393
 2347POPC   PO431884  24.650  43.609   9.486
 2347POPC   GL131885  24.416  43.712   9.113
 2347POPC   GL231886  24.142  43.461   9.086
 2347POPC   C1A31887  24.448  44.006   8.737
 2347POPC   D2A31888  24.316  44.028   8.314
 2347POPC   C3A31889  24.423  44.267   7.949
 2347POPC   C4A31890  24.422  43.968   7.615
 2347POPC   C1B31891  24.211  43.532   8.650
 2347POPC   C2B31892  24.563  43.581   8.382
 2347POPC   C3B31893  24.546  43.609   7.961
 2347POPC   C4B31894  24.751  43.463   7.618
 2348POPC   NC331895  21.183   0.279   9.706
 2348POPC   PO431896  21.442   0.735   9.316
 2348POPC   GL131897  21.194   0.551   9.050
 2348POPC   GL231898  21.115   0.224   9.184
 2348POPC   C1A31899  21.349   0.561   8.641
 2348POPC   D2A31900  21.708   0.435   8.393
 2348POPC   C3A31901  21.611   0.254   8.022
 2348POPC   C4A31902  21.360   0.379   7.635
 2348POPC   C1B31903  21.159   0.090   8.749
 2348POPC   C2B31904  21.108   0.232   8.310
 2348POPC   C3B31905  21.196  44.986   7.962
 2348POPC   C4B31906  21.537  44.890   7.679
 2349POPC   NC331907   3.121  10.766   9.576
 2349POPC   PO431908   3.563  10.330   9.560
 2349POPC   GL131909   3.446  10.546   9.230
 2349POPC   GL231910   3.145  10.378   9.195
 2349POPC   C1A31911   3.646  10.754   8.890
 2349POPC   D2A31912   3.794  10.602   8.503
 2349POPC   C3A31913   3.565  10.632   8.124
 2349POPC   C4A31914   3.717  10.623   7.752
 2349POPC   C1B31915   3.194  10.529   8.790
 2349POPC   C2B31916   3.318  10.343   8.451
 2349POPC   C3B31917   3.167  10.337   8.051
 2349POPC   C4B31918   3.245  10.435   7.659
 2350POPC   NC331919  14.517  36.715   9.702
 2350POPC   PO431920  13.997  36.988   9.444
 2350POPC   GL131921  14.329  37.018   9.113
 2350POPC   GL231922  14.712  36.978   9.007
 2350POPC   C1A31923  14.309  36.958   8.678
 2350POPC   D2A31924  14.284  37.263   8.376
 2350POPC   C3A31925  14.539  37.123   8.075
 2350POPC   C4A31926  14.324  36.889   7.775
 2350POPC   C1B31927  14.779  36.714   8.626
 2350POPC   C2B31928  14.676  36.577   8.192
 2350POPC   C3B31929  14.815  36.791   7.811
 2350POPC   C4B31930  14.676  37.097   7.473
 2351POPC   NC331931  42.345  31.899   9.510
 2351POPC   PO431932  42.619  31.231   9.339
 2351POPC   GL131933  42.355  31.540   9.148
 2351POPC   GL231934  42.527  31.855   9.051
 2351POPC   C1A31935  42.183  31.478   8.778
 2351POPC   D2A31936  42.353  31.197   8.491
 2351POPC   C3A31937  42.150  31.270   8.145
 2351POPC   C4A31938  42.256  31.220   7.737
 2351POPC   C1B31939  42.330  31.965   8.674
 2351POPC   C2B31940  42.099  31.770   8.306
 2351POPC   C3B31941  42.248  31.712   7.893
 2351POPC   C4B31942  42.689  31.797   7.823
 2352POPC   NC331943   9.216  31.479   9.420
 2352POPC   PO431944   8.695  30.987   9.442
 2352POPC   GL131945   8.967  31.123   9.125
 2352POPC   GL231946   8.785  31.422   9.147
 2352POPC   C1A31947   9.173  31.307   8.755
 2352POPC   D2A31948   9.224  31.628   8.414
 2352POPC   C3A31949   9.302  31.508   7.978
 2352POPC   C4A31950   9.205  31.362   7.544
 2352POPC   C1B31951   8.559  31.318   8.811
 2352POPC   C2B31952   8.736  31.389   8.467
 2352POPC   C3B31953   8.876  31.282   8.112
 2352POPC   C4B31954   8.757  31.521   7.766
 2353POPC   NC331955  29.182  27.323   9.493
 2353POPC   PO431956  28.718  27.788   9.790
 2353POPC   GL131957  28.926  27.725   9.282
 2353POPC   GL231958  28.922  27.421   9.056
 2353POPC   C1A31959  29.131  27.796   8.803
 2353POPC   D2A31960  29.387  27.628   8.416
 2353POPC   C3A31961  29.258  27.657   7.979
 2353POPC   C4A31962  28.971  27.839   7.704
 2353POPC   C1B31963  29.259  27.274   8.774
 2353POPC   C2B31964  29.448  27.099   8.373
 2353POPC   C3B31965  29.380  27.170   7.912
 2353POPC   C4B31966  29.159  27.390   7.536
 2354POPC   NC331967   7.360  31.114   9.330
 2354POPC   PO431968   7.564  31.710   9.642
 2354POPC   GL131969   7.273  31.615   9.270
 2354POPC   GL231970   7.598  31.542   9.136
 2354POPC   C1A31971   7.204  31.471   8.809
 2354POPC   D2A31972   7.164  31.664   8.412
 2354POPC   C3A31973   7.298  31.501   8.005
 2354POPC   C4A31974   7.553  31.712   7.709
 2354POPC   C1B31975   7.722  31.314   8.764
 2354POPC   C2B31976   7.563  31.229   8.374
 2354POPC   C3B31977   7.755  31.088   7.987
 2354POPC   C4B31978   7.722  31.191   7.553
 2355POPC   NC331979   2.275  28.075   9.486
 2355POPC   PO431980   1.751  28.479   9.479
 2355POPC   GL131981   1.802  28.546   9.112
 2355POPC   GL231982   2.123  28.375   9.078
 2355POPC   C1A31983   1.688  28.267   8.829
 2355POPC   D2A31984   2.011  28.094   8.617
 2355POPC   C3A31985   1.986  28.172   8.166
 2355POPC   C4A31986   2.173  27.982   7.778
 2355POPC   C1B31987   2.074  28.619   8.691
 2355POPC   C2B31988   2.202  28.665   8.251
 2355POPC   C3B31989   2.108  28.535   7.807
 2355POPC   C4B31990   2.196  28.642   7.346
 2356POPC   NC331991   2.772  18.175   9.409
 2356POPC   PO431992   2.129  18.156   9.497
 2356POPC   GL131993   2.399  18.383   9.130
 2356POPC   GL231994   2.792  18.469   9.005
 2356POPC   C1A31995   2.529  18.186   8.705
 2356POPC   D2A31996   2.857  18.348   8.391
 2356POPC   C3A31997   2.682  18.316   7.983
 2356POPC   C4A31998   2.497  18.436   7.586
 2356POPC   C1B31999   3.022  18.080   8.800
 2356POPC   C2B32000   3.108  17.887   8.396
 2356POPC   C3B32001   3.156  18.099   7.979
 2356POPC   C4B32002   2.962  18.256   7.565
 2357POPC   NC332003  22.273  30.380   9.487
 2357POPC   PO432004  22.167  31.043   9.521
 2357POPC   GL132005  22.170  30.815   9.177
 2357POPC   GL232006  22.476  30.654   9.106
 2357POPC   C1A32007  22.065  30.634   8.801
 2357POPC   D2A32008  21.946  30.462   8.438
 2357POPC   C3A32009  21.926  30.729   8.104
 2357POPC   C4A32010  21.979  30.633   7.716
 2357POPC   C1B32011  22.576  30.544   8.688
 2357POPC   C2B32012  22.406  30.679   8.282
 2357POPC   C3B32013  22.466  30.658   7.843
 2357POPC   C4B32014  22.380  30.299   7.573
 2358POPC   NC332015   5.433  33.864   9.775
 2358POPC   PO432016   4.744  33.872   9.754
 2358POPC   GL132017   5.091  33.876   9.377
 2358POPC   GL232018   4.938  33.673   9.152
 2358POPC   C1A32019   5.227  33.947   8.863
 2358POPC   D2A32020   5.369  34.046   8.399
 2358POPC   C3A32021   5.173  33.861   7.984
 2358POPC   C4A32022   5.131  33.644   7.579
 2358POPC   C1B32023   4.774  33.415   8.833
 2358POPC   C2B32024   4.902  33.562   8.434
 2358POPC   C3B32025   4.890  33.435   8.020
 2358POPC   C4B32026   4.791  33.277   7.639
 2359POPC   NC332027  39.385   1.849   9.441
 2359POPC   PO432028  38.985   2.373   9.216
 2359POPC   GL132029  39.345   2.203   9.079
 2359POPC   GL232030  39.529   2.263   8.778
 2359POPC   C1A32031  39.242   1.853   8.818
 2359POPC   D2A32032  39.046   1.807   8.438
 2359POPC   C3A32033  39.217   2.018   8.098
 2359POPC   C4A32034  39.287   1.697   7.763
 2359POPC   C1B32035  39.090   2.276   8.595
 2359POPC   C2B32036  38.700   2.344   8.470
 2359POPC   C3B32037  38.629   2.238   8.070
 2359POPC   C4B32038  38.921   2.255   7.765
 2360POPC   NC332039   1.442  38.066   9.517
 2360POPC   PO432040   0.889  38.542   9.619
 2360POPC   GL132041   1.094  38.353   9.252
 2360POPC   GL232042   1.452  38.442   9.161
 2360POPC   C1A32043   0.977  38.462   8.852
 2360POPC   D2A32044   1.167  38.581   8.478
 2360POPC   C3A32045   1.049  38.423   8.088
 2360POPC   C4A32046   1.054  38.714   7.777
 2360POPC   C1B32047   1.472  38.249   8.752
 2360POPC   C2B32048   1.417  38.069   8.341
 2360POPC   C3B32049   1.607  38.198   7.958
 2360POPC   C4B32050   1.373  38.313   7.641
 2361POPC   NC332051  40.532  21.630   9.455
 2361POPC   PO432052  40.857  21.016   9.478
 2361POPC   GL132053  40.964  21.238   9.149
 2361POPC   GL232054  41.000  21.573   9.215
 2361POPC   C1A32055  40.824  21.365   8.742
 2361POPC   D2A32056  41.080  21.581   8.427
 2361POPC   C3A32057  40.971  21.438   8.054
 2361POPC   C4A32058  40.786  21.308   7.702
 2361POPC   C1B32059  40.877  21.851   8.865
 2361POPC   C2B32060  40.595  21.802   8.498
 2361POPC   C3B32061  40.560  21.734   8.046
 2361POPC   C4B32062  40.852  21.797   7.686
 2362POPC   NC332063  21.784  11.829   9.504
 2362POPC   PO432064  22.547  11.936   9.590
 2362POPC   GL132065  22.174  12.122   9.295
 2362POPC   GL232066  22.067  11.869   9.046
 2362POPC   C1A32067  21.913  12.340   8.913
 2362POPC   D2A32068  21.846  12.475   8.463
 2362POPC   C3A32069  22.065  12.263   8.108
 2362POPC   C4A32070  21.838  12.184   7.732
 2362POPC   C1B32071  22.186  11.958   8.586
 2362POPC   C2B32072  22.151  11.745   8.153
 2362POPC   C3B32073  22.195  11.843   7.703
 2362POPC   C4B32074  22.534  11.905   7.390
 2363POPC   NC332075   6.065   8.418   9.429
 2363POPC   PO432076   5.461   8.307   9.672
 2363POPC   GL132077   5.633   8.189   9.197
 2363POPC   GL232078   5.962   8.053   9.089
 2363POPC   C1A32079   5.611   8.336   8.783
 2363POPC   D2A32080   5.759   8.445   8.374
 2363POPC   C3A32081   5.804   8.202   8.028
 2363POPC   C4A32082   5.556   8.105   7.703
 2363POPC   C1B32083   6.108   8.401   8.781
 2363POPC   C2B32084   6.293   8.416   8.364
 2363POPC   C3B32085   6.229   8.401   7.883
 2363POPC   C4B32086   6.157   7.992   7.686
 2364POPC   NC332087  41.465  14.769   9.519
 2364POPC   PO432088  41.697  15.399   9.514
 2364POPC   GL132089  41.530  15.444   9.131
 2364POPC   GL232090  41.410  15.112   9.133
 2364POPC   C1A32091  41.515  15.400   8.692
 2364POPC   D2A32092  41.479  15.167   8.329
 2364POPC   C3A32093  41.582  15.470   8.001
 2364POPC   C4A32094  41.710  15.403   7.582
 2364POPC   C1B32095  41.685  14.854   8.913
 2364POPC   C2B32096  41.877  14.853   8.545
 2364POPC   C3B32097  41.893  14.809   8.129
 2364POPC   C4B32098  41.939  14.790   7.672
 2365POPC   NC332099  21.642  29.808   9.526
 2365POPC   PO432100  21.122  30.151   9.665
 2365POPC   GL132101  21.130  29.936   9.201
 2365POPC   GL232102  21.440  29.885   9.085
 2365POPC   C1A32103  21.140  29.608   8.794
 2365POPC   D2A32104  21.168  29.507   8.341
 2365POPC   C3A32105  21.309  29.889   8.140
 2365POPC   C4A32106  21.110  30.166   7.825
 2365POPC   C1B32107  21.644  29.844   8.723
 2365POPC   C2B32108  21.863  29.947   8.359
 2365POPC   C3B32109  21.784  29.824   7.958
 2365POPC   C4B32110  21.491  29.874   7.643
 2366POPC   NC332111   4.542  16.772   9.817
 2366POPC   PO432112   4.579  17.136   9.313
 2366POPC   GL132113   4.598  16.897   8.998
 2366POPC   GL232114   4.430  16.650   9.114
 2366POPC   C1A32115   4.439  16.864   8.591
 2366POPC   D2A32116   4.027  16.817   8.413
 2366POPC   C3A32117   4.055  16.980   8.012
 2366POPC   C4A32118   4.441  16.867   7.866
 2366POPC   C1B32119   4.214  16.432   8.756
 2366POPC   C2B32120   4.323  16.409   8.315
 2366POPC   C3B32121   4.316  16.278   7.887
 2366POPC   C4B32122   4.161  16.527   7.558
 2367POPC   NC332123   8.268  20.292   9.398
 2367POPC   PO432124   8.271  19.659   9.412
 2367POPC   GL132125   8.290  19.795   9.035
 2367POPC   GL232126   7.959  19.690   8.869
 2367POPC   C1A32127   8.405  19.631   8.643
 2367POPC   D2A32128   8.106  19.655   8.357
 2367POPC   C3A32129   8.338  19.894   8.109
 2367POPC   C4A32130   8.388  19.888   7.667
 2367POPC   C1B32131   8.120  20.113   8.679
 2367POPC   C2B32132   8.176  20.370   8.292
 2367POPC   C3B32133   8.038  20.231   7.891
 2367POPC   C4B32134   7.884  19.776   7.880
 2368POPC   NC332135  43.708  34.882   9.529
 2368POPC   PO432136  43.973  34.225   9.407
 2368POPC   GL132137  43.842  34.534   9.133
 2368POPC   GL232138  44.104  34.718   9.203
 2368POPC   C1A32139  43.695  34.850   8.820
 2368POPC   D2A32140  43.582  34.767   8.379
 2368POPC   C3A32141  43.676  34.577   7.972
 2368POPC   C4A32142  43.695  34.710   7.525
 2368POPC   C1B32143  44.182  34.722   8.738
 2368POPC   C2B32144  44.132  34.607   8.303
 2368POPC   C3B32145  44.164  34.762   7.884
 2368POPC   C4B32146  44.180  34.541   7.492
 2369POPC   NC332147  25.769  26.224   9.268
 2369POPC   PO432148  25.142  25.982   9.480
 2369POPC   GL132149  25.305  26.046   9.138
 2369POPC   GL232150  25.228  26.420   9.157
 2369POPC   C1A32151  25.300  25.839   8.744
 2369POPC   D2A32152  25.096  26.030   8.392
 2369POPC   C3A32153  25.120  25.812   8.030
 2369POPC   C4A32154  25.478  25.731   7.811
 2369POPC   C1B32155  25.377  26.338   8.729
 2369POPC   C2B32156  25.637  26.270   8.389
 2369POPC   C3B32157  25.509  26.196   7.989
 2369POPC   C4B32158  25.104  26.306   7.850
 2370POPC   NC332159  20.568  12.485   9.509
 2370POPC   PO432160  21.018  11.831   9.392
 2370POPC   GL132161  20.771  12.153   9.155
 2370POPC   GL232162  20.417  12.182   9.133
 2370POPC   C1A32163  20.723  12.260   8.737
 2370POPC   D2A32164  20.771  12.002   8.387
 2370POPC   C3A32165  20.852  12.162   7.982
 2370POPC   C4A32166  20.687  12.006   7.612
 2370POPC   C1B32167  20.195  12.288   8.774
 2370POPC   C2B32168  20.350  12.297   8.368
 2370POPC   C3B32169  20.339  12.158   7.967
 2370POPC   C4B32170  20.557  12.492   7.712
 2371POPC   NC332171  40.608  31.259   9.496
 2371POPC   PO432172  41.210  31.632   9.587
 2371POPC   GL132173  41.016  31.398   9.215
 2371POPC   GL232174  40.702  31.484   9.026
 2371POPC   C1A32175  41.077  31.256   8.803
 2371POPC   D2A32176  40.718  31.334   8.487
 2371POPC   C3A32177  40.677  31.137   8.077
 2371POPC   C4A32178  40.850  31.371   7.737
 2371POPC   C1B32179  40.395  31.664   8.703
 2371POPC   C2B32180  40.235  31.624   8.333
 2371POPC   C3B32181  40.546  31.644   8.070
 2371POPC   C4B32182  40.721  31.878   7.767
 2372POPC   NC332183  33.252  24.089   9.447
 2372POPC   PO432184  32.944  24.670   9.710
 2372POPC   GL132185  32.923  24.580   9.199
 2372POPC   GL232186  33.148  24.331   9.025
 2372POPC   C1A32187  32.803  24.501   8.721
 2372POPC   D2A32188  33.006  24.424   8.308
 2372POPC   C3A32189  32.771  24.646   7.999
 2372POPC   C4A32190  32.678  24.590   7.577
 2372POPC   C1B32191  33.067  24.052   8.675
 2372POPC   C2B32192  33.060  23.921   8.275
 2372POPC   C3B32193  33.280  24.058   7.949
 2372POPC   C4B32194  33.191  24.475   7.761
 2373POPC   NC332195  39.637  34.466   9.351
 2373POPC   PO432196  38.978  34.243   9.414
 2373POPC   GL132197  39.165  34.601   9.181
 2373POPC   GL232198  39.378  34.428   8.931
 2373POPC   C1A32199  39.162  34.847   8.794
 2373POPC   D2A32200  39.277  34.605   8.429
 2373POPC   C3A32201  39.206  34.783   8.044
 2373POPC   C4A32202  39.278  34.525   7.675
 2373POPC   C1B32203  38.934  34.384   8.781
 2373POPC   C2B32204  38.870  34.212   8.428
 2373POPC   C3B32205  39.017  34.286   8.054
 2373POPC   C4B32206  38.953  34.076   7.674
 2374POPC   NC332207  35.052   0.306   9.516
 2374POPC   PO432208  35.624   0.460   9.346
 2374POPC   GL132209  35.414   0.515   9.013
 2374POPC   GL232210  35.128   0.307   9.024
 2374POPC   C1A32211  35.455   0.295   8.631
 2374POPC   D2A32212  35.349   0.093   8.262
 2374POPC   C3A32213  35.476   0.280   7.885
 2374POPC   C4A32214  35.578   0.613   7.646
 2374POPC   C1B32215  34.982   0.561   8.731
 2374POPC   C2B32216  35.052   0.553   8.292
 2374POPC   C3B32217  35.077   0.616   7.852
 2374POPC   C4B32218  34.769   0.835   7.585
 2375POPC   NC332219  39.137  14.712   9.427
 2375POPC   PO432220  38.995  14.066   9.635
 2375POPC   GL132221  39.052  14.136   9.204
 2375POPC   GL232222  39.411  14.075   9.162
 2375POPC   C1A32223  38.964  14.410   8.853
 2375POPC   D2A32224  39.059  14.447   8.418
 2375POPC   C3A32225  39.373  14.524   8.129
 2375POPC   C4A32226  39.223  14.613   7.721
 2375POPC   C1B32227  39.358  14.110   8.740
 2375POPC   C2B32228  39.432  14.026   8.322
 2375POPC   C3B32229  39.357  14.103   7.866
 2375POPC   C4B32230  39.350  14.243   7.405
 2376POPC   NC332231  16.344  26.210   9.481
 2376POPC   PO432232  16.952  26.430   9.493
 2376POPC   GL132233  16.761  26.223   9.116
 2376POPC   GL232234  16.536  25.975   9.077
 2376POPC   C1A32235  16.703  26.159   8.622
 2376POPC   D2A32236  16.974  26.394   8.333
 2376POPC   C3A32237  17.049  26.269   7.889
 2376POPC   C4A32238  16.742  26.167   7.554
 2376POPC   C1B32239  16.889  25.776   8.888
 2376POPC   C2B32240  16.718  25.652   8.486
 2376POPC   C3B32241  16.722  25.930   8.142
 2376POPC   C4B32242  16.916  25.771   7.791
 2377POPC   NC332243  37.240   9.121   9.418
 2377POPC   PO432244  37.981   9.221   9.495
 2377POPC   GL132245  37.908   8.945   9.117
 2377POPC   GL232246  37.589   8.925   9.062
 2377POPC   C1A32247  37.880   8.627   8.756
 2377POPC   D2A32248  38.008   8.759   8.347
 2377POPC   C3A32249  37.793   8.679   7.972
 2377POPC   C4A32250  37.907   8.944   7.637
 2377POPC   C1B32251  37.724   9.088   8.618
 2377POPC   C2B32252  37.709   9.139   8.166
 2377POPC   C3B32253  37.666   9.415   7.834
 2377POPC   C4B32254  37.232   9.533   7.754
 2378POPC   NC332255  42.383  17.864   9.465
 2378POPC   PO432256  42.003  17.260   9.346
 2378POPC   GL132257  42.152  17.586   9.131
 2378POPC   GL232258  42.495  17.432   9.146
 2378POPC   C1A32259  42.350  17.780   8.775
 2378POPC   D2A32260  42.102  17.666   8.408
 2378POPC   C3A32261  42.235  17.637   7.992
 2378POPC   C4A32262  42.460  17.581   7.600
 2378POPC   C1B32263  42.247  17.289   8.748
 2378POPC   C2B32264  42.126  17.149   8.366
 2378POPC   C3B32265  42.188  17.123   7.940
 2378POPC   C4B32266  41.998  17.375   7.625
 2379POPC   NC332267  34.789  28.084   9.781
 2379POPC   PO432268  34.619  28.656   9.654
 2379POPC   GL132269  34.618  28.327   9.299
 2379POPC   GL232270  34.300  28.258   9.247
 2379POPC   C1A32271  34.642  28.079   8.857
 2379POPC   D2A32272  34.922  28.038   8.478
 2379POPC   C3A32273  34.770  28.110   8.059
 2379POPC   C4A32274  34.624  28.069   7.635
 2379POPC   C1B32275  34.418  28.528   8.855
 2379POPC   C2B32276  34.455  28.368   8.403
 2379POPC   C3B32277  34.304  28.340   7.945
 2379POPC   C4B32278  34.281  28.463   7.483
 2380POPC   NC332279   7.229  24.819   9.466
 2380POPC   PO432280   7.583  25.384   9.547
 2380POPC   GL132281   7.393  25.300   9.172
 2380POPC   GL232282   7.607  25.009   9.155
 2380POPC   C1A32283   7.386  25.445   8.738
 2380POPC   D2A32284   7.435  25.268   8.308
 2380POPC   C3A32285   7.364  25.556   7.925
 2380POPC   C4A32286   7.370  25.545   7.439
 2380POPC   C1B32287   7.502  24.938   8.736
 2380POPC   C2B32288   7.599  24.760   8.332
 2380POPC   C3B32289   7.415  24.849   7.927
 2380POPC   C4B32290   7.196  25.138   7.688
 2381POPC   NC332291   1.230  31.619   9.728
 2381POPC   PO432292   0.887  31.021   9.571
 2381POPC   GL132293   0.958  31.447   9.303
 2381POPC   GL232294   1.291  31.609   9.229
 2381POPC   C1A32295   0.935  31.647   8.878
 2381POPC   D2A32296   1.109  31.578   8.493
 2381POPC   C3A32297   0.954  31.753   8.098
 2381POPC   C4A32298   1.101  31.664   7.716
 2381POPC   C1B32299   1.485  31.491   8.854
 2381POPC   C2B32300   1.618  31.685   8.481
 2381POPC   C3B32301   1.451  31.601   8.091
 2381POPC   C4B32302   1.614  31.793   7.740
 2382POPC   NC332303  27.461  23.457   9.633
 2382POPC   PO432304  27.540  24.090   9.675
 2382POPC   GL132305  27.536  23.807   9.247
 2382POPC   GL232306  27.594  23.426   9.160
 2382POPC   C1A32307  27.713  23.788   8.812
 2382POPC   D2A32308  27.546  23.975   8.443
 2382POPC   C3A32309  27.529  23.882   7.982
 2382POPC   C4A32310  27.789  23.552   7.727
 2382POPC   C1B32311  27.284  23.469   8.853
 2382POPC   C2B32312  27.247  23.548   8.404
 2382POPC   C3B32313  27.397  23.403   8.029
 2382POPC   C4B32314  27.299  23.496   7.568
 2383POPC   NC332315  36.727   5.388   9.450
 2383POPC   PO432316  37.359   5.716   9.514
 2383POPC   GL132317  37.061   5.658   9.161
 2383POPC   GL232318  36.888   5.968   8.979
 2383POPC   C1A32319  36.853   5.500   8.801
 2383POPC   D2A32320  36.723   5.819   8.495
 2383POPC   C3A32321  36.813   5.677   8.079
 2383POPC   C4A32322  36.654   5.520   7.694
 2383POPC   C1B32323  37.102   6.269   8.683
 2383POPC   C2B32324  37.079   6.374   8.233
 2383POPC   C3B32325  36.819   6.157   7.952
 2383POPC   C4B32326  36.696   6.008   7.533
 2384POPC   NC332327   1.722  13.261   9.522
 2384POPC   PO432328   2.167  13.789   9.547
 2384POPC   GL132329   2.007  13.814   9.146
 2384POPC   GL232330   2.172  14.129   9.054
 2384POPC   C1A32331   1.839  13.524   8.791
 2384POPC   D2A32332   1.909  13.280   8.374
 2384POPC   C3A32333   1.982  13.455   7.924
 2384POPC   C4A32334   2.071  13.625   7.480
 2384POPC   C1B32335   1.846  14.053   8.734
 2384POPC   C2B32336   1.840  13.808   8.364
 2384POPC   C3B32337   1.697  13.898   7.977
 2384POPC   C4B32338   1.811  14.030   7.594
 2385POPC   NC332339  30.861   2.373   9.391
 2385POPC   PO432340  30.323   1.985   9.663
 2385POPC   GL132341  30.440   2.048   9.200
 2385POPC   GL232342  30.755   2.056   9.025
 2385POPC   C1A32343  30.329   2.240   8.807
 2385POPC   D2A32344  30.493   2.387   8.427
 2385POPC   C3A32345  30.507   2.083   8.102
 2385POPC   C4A32346  30.530   2.055   7.661
 2385POPC   C1B32347  30.977   1.779   8.791
 2385POPC   C2B32348  30.937   1.584   8.416
 2385POPC   C3B32349  30.919   1.720   8.001
 2385POPC   C4B32350  30.951   1.805   7.560
 2386POPC   NC332351  30.702  23.915   9.559
 2386POPC   PO432352  30.896  23.291   9.678
 2386POPC   GL132353  30.653  23.527   9.234
 2386POPC   GL232354  30.502  23.885   9.106
 2386POPC   C1A32355  30.580  23.508   8.770
 2386POPC   D2A32356  30.453  23.607   8.338
 2386POPC   C3A32357  30.728  23.497   7.977
 2386POPC   C4A32358  30.976  23.692   7.665
 2386POPC   C1B32359  30.739  24.072   8.736
 2386POPC   C2B32360  30.951  24.046   8.306
 2386POPC   C3B32361  30.684  24.044   7.915
 2386POPC   C4B32362  30.301  23.772   7.859
 2387POPC   NC332363  25.446   9.515   9.635
 2387POPC   PO432364  25.336  10.148   9.737
 2387POPC   GL132365  25.429   9.968   9.283
 2387POPC   GL232366  25.487   9.605   9.151
 2387POPC   C1A32367  25.636   9.979   8.840
 2387POPC   D2A32368  25.693   9.841   8.379
 2387POPC   C3A32369  25.328   9.948   8.098
 2387POPC   C4A32370  25.048   9.765   7.767
 2387POPC   C1B32371  25.595   9.479   8.746
 2387POPC   C2B32372  25.375   9.427   8.363
 2387POPC   C3B32373  25.524   9.495   7.961
 2387POPC   C4B32374  25.552   9.770   7.669
 2388POPC   NC332375   4.444  40.840   9.556
 2388POPC   PO432376   3.799  40.882   9.491
 2388POPC   GL132377   4.142  40.909   9.173
 2388POPC   GL232378   4.115  40.638   8.982
 2388POPC   C1A32379   4.518  40.916   8.866
 2388POPC   D2A32380   4.507  41.087   8.436
 2388POPC   C3A32381   4.372  40.892   8.084
 2388POPC   C4A32382   4.103  41.055   7.776
 2388POPC   C1B32383   4.191  40.715   8.535
 2388POPC   C2B32384   4.333  40.404   8.213
 2388POPC   C3B32385   4.364  40.470   7.750
 2388POPC   C4B32386   4.491  40.547   7.295
 2389POPC   NC332387  31.722   7.490   9.533
 2389POPC   PO432388  31.092   7.543   9.767
 2389POPC   GL132389  31.297   7.564   9.282
 2389POPC   GL232390  31.495   7.220   9.169
 2389POPC   C1A32391  31.258   7.467   8.807
 2389POPC   D2A32392  31.379   7.626   8.414
 2389POPC   C3A32393  31.285   7.470   8.038
 2389POPC   C4A32394  31.442   7.570   7.653
 2389POPC   C1B32395  31.635   6.992   8.769
 2389POPC   C2B32396  31.615   7.128   8.304
 2389POPC   C3B32397  31.595   7.124   7.834
 2389POPC   C4B32398  31.530   7.059   7.405
 2390POPC   NC332399  14.118   1.635   9.471
 2390POPC   PO432400  13.637   2.088   9.626
 2390POPC   GL132401  13.613   1.876   9.249
 2390POPC   GL232402  13.904   1.962   9.133
 2390POPC   C1A32403  13.380   1.784   8.891
 2390POPC   D2A32404  13.425   1.902   8.448
 2390POPC   C3A32405  13.623   1.742   8.057
 2390POPC   C4A32406  13.583   2.099   7.785
 2390POPC   C1B32407  13.878   1.679   8.820
 2390POPC   C2B32408  13.949   1.791   8.423
 2390POPC   C3B32409  14.022   2.187   8.203
 2390POPC   C4B32410  14.109   2.229   7.768
 2391POPC   NC332411  29.948   5.229   9.505
 2391POPC   PO432412  29.321   5.398   9.485
 2391POPC   GL132413  29.587   5.376   9.143
 2391POPC   GL232414  29.813   5.054   9.049
 2391POPC   C1A32415  29.509   5.261   8.728
 2391POPC   D2A32416  29.822   5.138   8.450
 2391POPC   C3A32417  29.680   5.193   8.016
 2391POPC   C4A32418  29.930   5.410   7.703
 2391POPC   C1B32419  30.207   4.963   8.830
 2391POPC   C2B32420  30.428   5.105   8.483
 2391POPC   C3B32421  30.192   5.076   8.094
 2391POPC   C4B32422  30.126   4.788   7.763
 2392POPC   NC332423   3.142  41.675   9.627
 2392POPC   PO432424   2.537  41.584   9.645
 2392POPC   GL132425   2.794  41.526   9.234
 2392POPC   GL232426   3.081  41.746   9.124
 2392POPC   C1A32427   2.689  41.664   8.789
 2392POPC   D2A32428   2.818  41.782   8.351
 2392POPC   C3A32429   2.638  41.551   8.020
 2392POPC   C4A32430   2.742  41.809   7.715
 2392POPC   C1B32431   3.101  41.371   8.831
 2392POPC   C2B32432   2.905  41.300   8.485
 2392POPC   C3B32433   3.041  41.286   8.091
 2392POPC   C4B32434   2.941  41.290   7.688
 2393POPC   NC332435  13.235  14.251   9.809
 2393POPC   PO432436  12.978  14.767   9.414
 2393POPC   GL132437  12.780  14.498   9.078
 2393POPC   GL232438  12.556  14.209   9.117
 2393POPC   C1A32439  12.872  14.332   8.710
 2393POPC   D2A32440  13.031  14.583   8.418
 2393POPC   C3A32441  12.957  14.400   8.058
 2393POPC   C4A32442  13.159  14.522   7.710
 2393POPC   C1B32443  12.421  14.101   8.720
 2393POPC   C2B32444  12.596  13.964   8.338
 2393POPC   C3B32445  12.541  14.131   7.945
 2393POPC   C4B32446  12.531  14.087   7.489
 2394POPC   NC332447   7.221  18.802   9.489
 2394POPC   PO432448   7.346  19.435   9.358
 2394POPC   GL132449   7.328  19.121   9.110
 2394POPC   GL232450   7.654  18.982   9.159
 2394POPC   C1A32451   7.242  18.987   8.730
 2394POPC   D2A32452   7.158  19.262   8.411
 2394POPC   C3A32453   7.292  19.037   8.103
 2394POPC   C4A32454   7.243  18.991   7.723
 2394POPC   C1B32455   7.702  19.249   8.762
 2394POPC   C2B32456   7.646  19.393   8.306
 2394POPC   C3B32457   7.682  19.307   7.839
 2394POPC   C4B32458   7.747  19.186   7.384
 2395POPC   NC332459  43.614  42.451   9.543
 2395POPC   PO432460  44.147  42.078   9.576
 2395POPC   GL132461  43.944  42.284   9.202
 2395POPC   GL232462  44.128  42.599   9.156
 2395POPC   C1A32463  43.790  42.460   8.799
 2395POPC   D2A32464  43.875  42.649   8.365
 2395POPC   C3A32465  43.793  42.416   7.979
 2395POPC   C4A32466  43.529  42.595   7.638
 2395POPC   C1B32467  44.292  42.443   8.703
 2395POPC   C2B32468  44.310  42.421   8.232
 2395POPC   C3B32469  44.278  42.347   7.775
 2395POPC   C4B32470  44.296  42.094   7.386
 2396POPC   NC332471  15.407   6.100   9.848
 2396POPC   PO432472  15.354   6.671   9.433
 2396POPC   GL132473  15.145   6.682   9.089
 2396POPC   GL232474  14.922   6.927   9.032
 2396POPC   C1A32475  15.348   6.814   8.740
 2396POPC   D2A32476  15.370   7.030   8.371
 2396POPC   C3A32477  15.476   6.723   8.067
 2396POPC   C4A32478  15.297   6.701   7.703
 2396POPC   C1B32479  14.867   6.893   8.600
 2396POPC   C2B32480  14.989   6.707   8.202
 2396POPC   C3B32481  14.786   6.749   7.828
 2396POPC   C4B32482  14.563   7.106   7.753
 2397POPC   NC332483   8.334  42.904   9.392
 2397POPC   PO432484   7.771  42.944   9.745
 2397POPC   GL132485   7.909  43.093   9.216
 2397POPC   GL232486   8.174  43.248   9.032
 2397POPC   C1A32487   8.108  42.828   8.783
 2397POPC   D2A32488   8.369  42.914   8.419
 2397POPC   C3A32489   8.237  42.825   7.979
 2397POPC   C4A32490   8.361  42.781   7.518
 2397POPC   C1B32491   7.808  43.218   8.738
 2397POPC   C2B32492   7.904  43.106   8.336
 2397POPC   C3B32493   8.030  43.284   7.958
 2397POPC   C4B32494   7.995  43.122   7.569
 2398POPC   NC332495  44.448  36.202   9.562
 2398POPC   PO432496  44.980  36.344   9.243
 2398POPC   GL132497  44.636  36.088   9.106
 2398POPC   GL232498  44.313  36.277   9.085
 2398POPC   C1A32499  44.526  35.976   8.710
 2398POPC   D2A32500  44.766  35.956   8.365
 2398POPC   C3A32501  44.575  35.965   7.998
 2398POPC   C4A32502  44.777  36.122   7.646
 2398POPC   C1B32503  44.555  36.479   8.766
 2398POPC   C2B32504  44.591  36.455   8.352
 2398POPC   C3B32505  44.489  36.463   7.935
 2398POPC   C4B32506  44.271  36.216   7.664
 2399POPC   NC332507  44.089  12.667   9.775
 2399POPC   PO432508  44.669  12.854   9.668
 2399POPC   GL132509  44.752  12.683   9.259
 2399POPC   GL232510  44.388  12.727   9.188
 2399POPC   C1A32511  44.736  12.847   8.821
 2399POPC   D2A32512  44.462  12.929   8.453
 2399POPC   C3A32513  44.678  12.856   8.093
 2399POPC   C4A32514  44.585  12.949   7.694
 2399POPC   C1B32515  44.274  12.583   8.755
 2399POPC   C2B32516  44.178  12.478   8.300
 2399POPC   C3B32517  44.355  12.516   7.881
 2399POPC   C4B32518  44.493  12.510   7.435
 2400POPC   NC332519  30.235  30.376   9.557
 2400POPC   PO432520  29.701  30.009   9.486
 2400POPC   GL132521  29.819  29.832   9.042
 2400POPC   GL232522  30.118  29.629   9.129
 2400POPC   C1A32523  29.808  29.936   8.558
 2400POPC   D2A32524  29.852  30.161   8.145
 2400POPC   C3A32525  29.816  29.979   7.737
 2400POPC   C4A32526  29.715  29.993   7.286
 2400POPC   C1B32527  30.269  29.764   8.712
 2400POPC   C2B32528  30.196  29.762   8.249
 2400POPC   C3B32529  30.304  29.853   7.814
 2400POPC   C4B32530  30.089  29.655   7.448
 2401POPC   NC332531  34.167  37.348   9.453
 2401POPC   PO432532  34.700  37.829   9.526
 2401POPC   GL132533  34.406  37.758   9.206
 2401POPC   GL232534  34.301  38.113   9.152
 2401POPC   C1A32535  34.499  37.503   8.840
 2401POPC   D2A32536  34.744  37.376   8.485
 2401POPC   C3A32537  34.485  37.355   8.136
 2401POPC   C4A32538  34.270  37.571   7.805
 2401POPC   C1B32539  34.589  38.021   8.818
 2401POPC   C2B32540  34.570  37.845   8.396
 2401POPC   C3B32541  34.650  37.878   7.955
 2401POPC   C4B32542  34.591  37.855   7.478
 2402POPC   NC332543  25.468  39.028   9.397
 2402POPC   PO432544  25.053  39.666   9.372
 2402POPC   GL132545  25.240  39.414   9.096
 2402POPC   GL232546  25.164  39.082   8.980
 2402POPC   C1A32547  25.187  39.472   8.653
 2402POPC   D2A32548  25.295  39.190   8.333
 2402POPC   C3A32549  25.100  39.349   8.006
 2402POPC   C4A32550  24.962  39.335   7.622
 2402POPC   C1B32551  25.572  39.117   8.759
 2402POPC   C2B32552  25.691  38.842   8.408
 2402POPC   C3B32553  25.620  38.919   7.951
 2402POPC   C4B32554  25.407  39.052   7.542
 2403POPC   NC332555  27.035  17.037   9.522
 2403POPC   PO432556  26.994  16.366   9.559
 2403POPC   GL132557  26.935  16.668   9.207
 2403POPC   GL232558  26.580  16.686   9.246
 2403POPC   C1A32559  26.822  16.877   8.827
 2403POPC   D2A32560  27.040  16.821   8.442
 2403POPC   C3A32561  26.833  16.981   8.113
 2403POPC   C4A32562  26.641  16.825   7.770
 2403POPC   C1B32563  26.451  16.484   8.844
 2403POPC   C2B32564  26.552  16.629   8.424
 2403POPC   C3B32565  26.475  16.418   8.026
 2403POPC   C4B32566  26.167  16.531   7.708
 2404POPC   NC332567  21.776  24.038   9.577
 2404POPC   PO432568  22.476  23.738   9.583
 2404POPC   GL132569  22.291  23.652   9.213
 2404POPC   GL232570  22.027  23.860   9.183
 2404POPC   C1A32571  22.400  23.772   8.818
 2404POPC   D2A32572  22.260  23.934   8.449
 2404POPC   C3A32573  22.288  23.704   8.096
 2404POPC   C4A32574  22.359  23.574   7.707
 2404POPC   C1B32575  21.890  24.005   8.794
 2404POPC   C2B32576  21.746  23.923   8.376
 2404POPC   C3B32577  21.893  24.029   7.989
 2404POPC   C4B32578  21.868  23.638   7.811
 2405POPC   NC332579  27.097  18.477   9.636
 2405POPC   PO432580  27.613  18.056   9.524
 2405POPC   GL132581  27.443  18.346   9.254
 2405POPC   GL232582  27.361  18.031   9.065
 2405POPC   C1A32583  27.565  18.460   8.846
 2405POPC   D2A32584  27.476  18.227   8.454
 2405POPC   C3A32585  27.512  18.542   8.116
 2405POPC   C4A32586  27.410  18.543   7.688
 2405POPC   C1B32587  27.769  17.960   8.819
 2405POPC   C2B32588  28.013  18.018   8.409
 2405POPC   C3B32589  27.826  18.148   7.987
 2405POPC   C4B32590  27.765  18.112   7.504
 2406POPC   NC332591  33.274  15.035   9.588
 2406POPC   PO432592  32.695  15.308   9.724
 2406POPC   GL132593  32.702  15.195   9.255
 2406POPC   GL232594  33.014  15.104   9.148
 2406POPC   C1A32595  32.703  15.165   8.757
 2406POPC   D2A32596  32.843  15.060   8.316
 2406POPC   C3A32597  32.754  15.087   7.839
 2406POPC   C4A32598  32.826  15.452   7.574
 2406POPC   C1B32599  33.183  15.033   8.733
 2406POPC   C2B32600  33.196  14.728   8.416
 2406POPC   C3B32601  33.207  14.875   7.986
 2406POPC   C4B32602  33.210  15.103   7.588
 2407POPC   NC332603  20.317  40.676   9.378
 2407POPC   PO432604  20.005  41.238   9.431
 2407POPC   GL132605  19.891  40.905   9.143
 2407POPC   GL232606  19.842  40.527   9.190
 2407POPC   C1A32607  19.733  40.907   8.728
 2407POPC   D2A32608  19.530  40.705   8.378
 2407POPC   C3A32609  19.748  40.754   7.997
 2407POPC   C4A32610  19.786  40.487   7.686
 2407POPC   C1B32611  20.066  40.490   8.789
 2407POPC   C2B32612  20.074  40.672   8.395
 2407POPC   C3B32613  20.245  40.529   8.029
 2407POPC   C4B32614  20.261  40.304   7.651
 2408POPC   NC332615   3.045  28.784   9.499
 2408POPC   PO432616   2.696  28.171   9.369
 2408POPC   GL132617   2.971  28.218   9.051
 2408POPC   GL232618   2.881  28.576   9.061
 2408POPC   C1A32619   2.983  28.333   8.618
 2408POPC   D2A32620   2.770  28.601   8.358
 2408POPC   C3A32621   2.963  28.534   7.993
 2408POPC   C4A32622   3.004  28.159   7.721
 2408POPC   C1B32623   2.532  28.434   8.795
 2408POPC   C2B32624   2.456  28.209   8.422
 2408POPC   C3B32625   2.509  28.286   8.013
 2408POPC   C4B32626   2.551  28.358   7.601
 2409POPC   NC332627  42.770   5.587   9.481
 2409POPC   PO432628  42.099   5.675   9.468
 2409POPC   GL132629  42.281   5.974   9.176
 2409POPC   GL232630  42.640   5.938   9.137
 2409POPC   C1A32631  42.315   5.901   8.747
 2409POPC   D2A32632  42.136   5.679   8.451
 2409POPC   C3A32633  42.164   5.803   8.076
 2409POPC   C4A32634  42.143   5.552   7.727
 2409POPC   C1B32635  42.766   6.111   8.702
 2409POPC   C2B32636  42.637   5.863   8.314
 2409POPC   C3B32637  42.602   5.868   7.832
 2409POPC   C4B32638  42.528   5.677   7.432
 2410POPC   NC332639  30.414  27.201   9.490
 2410POPC   PO432640  30.883  26.728   9.612
 2410POPC   GL132641  30.753  26.806   9.190
 2410POPC   GL232642  30.397  26.802   9.165
 2410POPC   C1A32643  30.673  26.741   8.742
 2410POPC   D2A32644  30.430  26.764   8.355
 2410POPC   C3A32645  30.678  26.705   7.992
 2410POPC   C4A32646  31.063  26.869   7.794
 2410POPC   C1B32647  30.297  27.099   8.798
 2410POPC   C2B32648  30.436  27.276   8.368
 2410POPC   C3B32649  30.333  27.144   7.940
 2410POPC   C4B32650  30.474  26.914   7.577
 2411POPC   NC332651   2.895  27.747   9.464
 2411POPC   PO432652   3.145  27.158   9.125
 2411POPC   GL132653   2.894  27.575   8.981
 2411POPC   GL232654   2.551  27.776   9.088
 2411POPC   C1A32655   2.783  27.860   8.628
 2411POPC   D2A32656   2.910  28.037   8.208
 2411POPC   C3A32657   3.008  27.690   7.919
 2411POPC   C4A32658   2.804  27.293   7.814
 2411POPC   C1B32659   2.410  27.466   8.826
 2411POPC   C2B32660   2.540  27.427   8.412
 2411POPC   C3B32661   2.508  27.720   8.087
 2411POPC   C4B32662   2.339  27.484   7.776
 2412POPC   NC332663  43.526   5.798   9.699
 2412POPC   PO432664  42.970   6.163   9.517
 2412POPC   GL132665  43.103   6.128   9.104
 2412POPC   GL232666  43.182   5.799   9.187
 2412POPC   C1A32667  43.270   6.027   8.710
 2412POPC   D2A32668  43.401   6.028   8.296
 2412POPC   C3A32669  43.096   6.041   7.954
 2412POPC   C4A32670  42.992   6.400   7.701
 2412POPC   C1B32671  42.942   5.646   8.835
 2412POPC   C2B32672  43.075   5.597   8.415
 2412POPC   C3B32673  42.906   5.506   8.028
 2412POPC   C4B32674  42.997   5.603   7.614
 2413POPC   NC332675  41.200   9.632   9.585
 2413POPC   PO432676  41.813   9.873   9.752
 2413POPC   GL132677  41.634   9.754   9.310
 2413POPC   GL232678  41.952   9.662   9.165
 2413POPC   C1A32679  41.577   9.769   8.833
 2413POPC   D2A32680  41.349   9.716   8.451
 2413POPC   C3A32681  41.304  10.051   8.128
 2413POPC   C4A32682  41.313   9.969   7.671
 2413POPC   C1B32683  41.973   9.421   8.779
 2413POPC   C2B32684  41.877   9.580   8.392
 2413POPC   C3B32685  41.628   9.661   8.016
 2413POPC   C4B32686  41.669   9.625   7.592
 2414POPC   NC332687  39.372  16.328   9.425
 2414POPC   PO432688  39.383  16.963   9.595
 2414POPC   GL132689  39.285  16.801   9.214
 2414POPC   GL232690  38.967  16.799   9.318
 2414POPC   C1A32691  39.407  16.596   8.820
 2414POPC   D2A32692  39.487  16.396   8.452
 2414POPC   C3A32693  39.503  16.584   8.069
 2414POPC   C4A32694  39.599  16.809   7.696
 2414POPC   C1B32695  38.963  16.845   8.828
 2414POPC   C2B32696  39.143  16.792   8.390
 2414POPC   C3B32697  39.053  16.789   7.922
 2414POPC   C4B32698  39.192  16.636   7.462
 2415POPC   NC332699  19.398  35.617   9.385
 2415POPC   PO432700  19.063  34.975   9.471
 2415POPC   GL132701  19.075  35.287   9.165
 2415POPC   GL232702  19.371  35.215   9.048
 2415POPC   C1A32703  19.109  35.508   8.751
 2415POPC   D2A32704  19.110  35.771   8.421
 2415POPC   C3A32705  18.950  35.558   8.081
 2415POPC   C4A32706  19.082  35.439   7.697
 2415POPC   C1B32707  19.309  35.036   8.683
 2415POPC   C2B32708  19.227  35.211   8.323
 2415POPC   C3B32709  19.101  35.020   7.976
 2415POPC   C4B32710  19.243  34.942   7.604
 2416POPC   NC332711   0.263  34.860   9.386
 2416POPC   PO432712   0.744  35.247   9.523
 2416POPC   GL132713   0.616  35.503   9.177
 2416POPC   GL232714   0.287  35.341   9.163
 2416POPC   C1A32715   0.452  35.566   8.740
 2416POPC   D2A32716   0.315  35.392   8.354
 2416POPC   C3A32717   0.615  35.505   8.069
 2416POPC   C4A32718   0.491  35.776   7.757
 2416POPC   C1B32719   0.110  35.163   8.773
 2416POPC   C2B32720  44.981  35.006   8.355
 2416POPC   C3B32721   0.100  35.071   7.976
 2416POPC   C4B32722   0.356  35.280   7.701
 2417POPC   NC332723  14.025  16.961   9.517
 2417POPC   PO432724  13.463  16.581   9.647
 2417POPC   GL132725  13.666  16.644   9.258
 2417POPC   GL232726  13.425  16.684   9.079
 2417POPC   C1A32727  13.867  16.743   8.833
 2417POPC   D2A32728  13.647  16.681   8.427
 2417POPC   C3A32729  13.788  16.617   8.020
 2417POPC   C4A32730  13.797  16.493   7.595
 2417POPC   C1B32731  13.243  16.792   8.727
 2417POPC   C2B32732  13.367  17.126   8.466
 2417POPC   C3B32733  13.578  17.110   8.096
 2417POPC   C4B32734  13.577  16.952   7.677
 2418POPC   NC332735   4.865  33.440   9.594
 2418POPC   PO432736   5.079  32.787   9.514
 2418POPC   GL132737   4.909  33.007   9.176
 2418POPC   GL232738   5.164  33.223   9.164
 2418POPC   C1A32739   5.013  32.943   8.732
 2418POPC   D2A32740   5.187  33.076   8.349
 2418POPC   C3A32741   5.028  32.946   7.973
 2418POPC   C4A32742   5.170  32.680   7.689
 2418POPC   C1B32743   5.276  33.384   8.759
 2418POPC   C2B32744   5.387  33.538   8.321
 2418POPC   C3B32745   5.387  33.346   7.941
 2418POPC   C4B32746   5.290  33.180   7.560
 2419POPC   NC332747  28.539  35.270   9.622
 2419POPC   PO432748  28.049  35.712   9.648
 2419POPC   GL132749  28.163  35.406   9.283
 2419POPC   GL232750  28.535  35.436   9.157
 2419POPC   C1A32751  28.070  35.482   8.841
 2419POPC   D2A32752  27.944  35.335   8.419
 2419POPC   C3A32753  28.171  35.368   8.021
 2419POPC   C4A32754  28.123  35.236   7.611
 2419POPC   C1B32755  28.617  35.261   8.771
 2419POPC   C2B32756  28.687  35.383   8.374
 2419POPC   C3B32757  28.680  35.266   7.974
 2419POPC   C4B32758  28.572  35.455   7.624
 2420POPC   NC332759  44.821  40.459   9.609
 2420POPC   PO432760  44.677  39.808   9.665
 2420POPC   GL132761  44.582  39.845   9.212
 2420POPC   GL232762  44.279  39.693   9.193
 2420POPC   C1A32763  44.667  39.983   8.754
 2420POPC   D2A32764  44.840  39.833   8.318
 2420POPC   C3A32765  44.889  40.071   7.920
 2420POPC   C4A32766  44.832  39.947   7.440
 2420POPC   C1B32767  44.176  39.838   8.784
 2420POPC   C2B32768  44.358  39.702   8.433
 2420POPC   C3B32769  44.206  39.804   8.069
 2420POPC   C4B32770  44.522  39.744   7.797
 2421POPC   NC332771  40.681  13.913   9.498
 2421POPC   PO432772  40.410  14.466   9.431
 2421POPC   GL132773  40.717  14.346   9.108
 2421POPC   GL232774  40.895  14.000   9.025
 2421POPC   C1A32775  40.582  14.245   8.688
 2421POPC   D2A32776  40.682  14.270   8.264
 2421POPC   C3A32777  40.813  14.685   8.119
 2421POPC   C4A32778  41.057  14.766   7.778
 2421POPC   C1B32779  41.161  14.191   8.752
 2421POPC   C2B32780  41.212  14.169   8.331
 2421POPC   C3B32781  41.108  14.293   7.934
 2421POPC   C4B32782  41.036  14.236   7.489
 2422POPC   NC332783  37.196  35.063   9.486
 2422POPC   PO432784  36.784  35.474   9.776
 2422POPC   GL132785  36.921  35.537   9.263
 2422POPC   GL232786  37.006  35.269   9.045
 2422POPC   C1A32787  36.651  35.614   8.844
 2422POPC   D2A32788  36.489  35.379   8.472
 2422POPC   C3A32789  36.799  35.404   8.111
 2422POPC   C4A32790  36.737  35.548   7.670
 2422POPC   C1B32791  36.962  35.249   8.607
 2422POPC   C2B32792  37.158  35.033   8.282
 2422POPC   C3B32793  37.009  34.935   7.929
 2422POPC   C4B32794  36.967  35.092   7.568
 2423POPC   NC332795  17.315   4.563   9.424
 2423POPC   PO432796  17.902   4.062   9.471
 2423POPC   GL132797  17.643   4.260   9.175
 2423POPC   GL232798  17.312   4.095   9.196
 2423POPC   C1A32799  17.474   4.384   8.774
 2423POPC   D2A32800  17.572   4.233   8.378
 2423POPC   C3A32801  17.491   4.414   7.995
 2423POPC   C4A32802  17.880   4.359   7.855
 2423POPC   C1B32803  17.114   3.972   8.830
 2423POPC   C2B32804  17.206   3.876   8.426
 2423POPC   C3B32805  17.152   4.020   7.994
 2423POPC   C4B32806  17.001   3.876   7.595
 2424POPC   NC332807  40.157  30.370   9.412
 2424POPC   PO432808  40.133  31.029   9.537
 2424POPC   GL132809  40.085  30.825   9.137
 2424POPC   GL232810  39.826  30.599   9.066
 2424POPC   C1A32811  39.877  30.977   8.755
 2424POPC   D2A32812  39.748  30.827   8.365
 2424POPC   C3A32813  40.026  30.723   8.046
 2424POPC   C4A32814  39.803  30.822   7.672
 2424POPC   C1B32815  39.778  30.407   8.675
 2424POPC   C2B32816  39.630  30.322   8.264
 2424POPC   C3B32817  39.794  30.308   7.863
 2424POPC   C4B32818  39.626  30.403   7.469
 2425POPC   NC332819   7.534  30.273   9.507
 2425POPC   PO432820   7.544  29.609   9.240
 2425POPC   GL132821   7.280  29.794   9.029
 2425POPC   GL232822   7.417  30.104   9.047
 2425POPC   C1A32823   7.108  29.885   8.684
 2425POPC   D2A32824   7.250  29.717   8.325
 2425POPC   C3A32825   7.096  29.961   8.017
 2425POPC   C4A32826   7.261  30.015   7.605
 2425POPC   C1B32827   7.637  29.912   8.685
 2425POPC   C2B32828   7.777  29.863   8.312
 2425POPC   C3B32829   7.618  29.888   7.951
 2425POPC   C4B32830   7.790  29.837   7.583
 2426POPC   NC332831   0.896   8.410   9.448
 2426POPC   PO432832   1.470   8.044   9.497
 2426POPC   GL132833   1.371   8.290   9.151
 2426POPC   GL232834   1.062   8.132   9.072
 2426POPC   C1A32835   1.224   8.452   8.724
 2426POPC   D2A32836   1.161   8.612   8.311
 2426POPC   C3A32837   1.412   8.360   7.998
 2426POPC   C4A32838   1.474   8.258   7.561
 2426POPC   C1B32839   0.889   8.031   8.680
 2426POPC   C2B32840   1.052   8.112   8.278
 2426POPC   C3B32841   0.996   8.107   7.844
 2426POPC   C4B32842   0.761   7.841   7.572
 2427POPC   NC332843   6.350  33.033   9.569
 2427POPC   PO432844   6.855  32.489   9.480
 2427POPC   GL132845   6.662  32.854   9.179
 2427POPC   GL232846   6.597  33.270   9.151
 2427POPC   C1A32847   6.779  32.994   8.755
 2427POPC   D2A32848   6.987  32.754   8.433
 2427POPC   C3A32849   6.941  32.876   8.008
 2427POPC   C4A32850   6.549  32.787   7.859
 2427POPC   C1B32851   6.530  33.474   8.727
 2427POPC   C2B32852   6.521  33.360   8.265
 2427POPC   C3B32853   6.572  33.376   7.809
 2427POPC   C4B32854   6.250  33.505   7.489
 2428POPC   NC332855  19.916   7.040   9.770
 2428POPC   PO432856  19.993   6.805   9.165
 2428POPC   GL132857  19.761   6.579   8.936
 2428POPC   GL232858  19.528   6.815   8.879
 2428POPC   C1A32859  20.035   6.457   8.592
 2428POPC   D2A32860  20.300   6.731   8.365
 2428POPC   C3A32861  20.194   6.716   7.934
 2428POPC   C4A32862  19.996   6.411   7.648
 2428POPC   C1B32863  19.810   6.966   8.565
 2428POPC   C2B32864  19.716   6.925   8.180
 2428POPC   C3B32865  19.648   6.719   7.835
 2428POPC   C4B32866  19.635   6.727   7.429
 2429POPC   NC332867   5.863   0.004   9.567
 2429POPC   PO432868   5.664  44.366   9.467
 2429POPC   GL132869   5.845  44.531   9.131
 2429POPC   GL232870   5.683  44.839   9.112
 2429POPC   C1A32871   5.719  44.565   8.710
 2429POPC   D2A32872   5.897  44.843   8.430
 2429POPC   C3A32873   5.848  44.760   8.030
 2429POPC   C4A32874   5.917  44.462   7.732
 2429POPC   C1B32875   5.559   0.078   8.723
 2429POPC   C2B32876   5.576   0.187   8.268
 2429POPC   C3B32877   5.453   0.025   7.848
 2429POPC   C4B32878   5.615   0.137   7.412
 2430POPC   NC332879  14.510  36.542   9.193
 2430POPC   PO432880  14.428  35.924   9.535
 2430POPC   GL132881  14.212  35.884   9.081
 2430POPC   GL232882  14.406  36.153   8.901
 2430POPC   C1A32883  14.144  35.859   8.603
 2430POPC   D2A32884  14.434  36.105   8.392
 2430POPC   C3A32885  14.297  36.218   8.051
 2430POPC   C4A32886  14.467  36.393   7.732
 2430POPC   C1B32887  14.118  36.433   8.628
 2430POPC   C2B32888  14.141  36.679   8.250
 2430POPC   C3B32889  13.961  36.566   7.854
 2430POPC   C4B32890  14.137  36.611   7.384
 2431POPC   NC332891  33.352  33.551   9.367
 2431POPC   PO432892  33.060  32.922   9.475
 2431POPC   GL132893  33.013  33.231   9.117
 2431POPC   GL232894  32.720  33.403   9.234
 2431POPC   C1A32895  33.120  33.257   8.649
 2431POPC   D2A32896  33.297  33.024   8.266
 2431POPC   C3A32897  32.993  32.822   7.994
 2431POPC   C4A32898  33.113  33.124   7.681
 2431POPC   C1B32899  32.598  33.278   8.799
 2431POPC   C2B32900  32.721  33.101   8.384
 2431POPC   C3B32901  32.738  33.282   7.989
 2431POPC   C4B32902  32.624  33.135   7.531
 2432POPC   NC332903  35.890  30.252   9.521
 2432POPC   PO432904  36.468  29.863   9.485
 2432POPC   GL132905  36.309  30.174   9.168
 2432POPC   GL232906  35.948  30.250   9.033
 2432POPC   C1A32907  36.325  30.035   8.746
 2432POPC   D2A32908  36.220  29.739   8.444
 2432POPC   C3A32909  36.465  29.857   8.175
 2432POPC   C4A32910  36.191  30.073   7.946
 2432POPC   C1B32911  35.825  30.004   8.719
 2432POPC   C2B32912  35.830  30.080   8.312
 2432POPC   C3B32913  35.698  29.918   7.954
 2432POPC   C4B32914  35.745  30.299   7.791
 2433POPC   NC332915  17.445   7.060   9.602
 2433POPC   PO432916  16.905   7.315   9.623
 2433POPC   GL132917  17.228   7.324   9.240
 2433POPC   GL232918  17.568   7.336   9.173
 2433POPC   C1A32919  17.244   7.208   8.816
 2433POPC   D2A32920  17.288   7.480   8.455
 2433POPC   C3A32921  17.236   7.318   8.056
 2433POPC   C4A32922  17.400   7.510   7.695
 2433POPC   C1B32923  17.696   7.494   8.781
 2433POPC   C2B32924  17.797   7.510   8.339
 2433POPC   C3B32925  17.839   7.649   7.933
 2433POPC   C4B32926  17.878   7.295   7.632
 2434POPC   NC332927  36.846   7.155   9.448
 2434POPC   PO432928  37.328   7.670   9.653
 2434POPC   GL132929  37.153   7.738   9.192
 2434POPC   GL232930  36.783   7.582   9.123
 2434POPC   C1A32931  37.159   7.604   8.758
 2434POPC   D2A32932  36.930   7.745   8.420
 2434POPC   C3A32933  36.861   7.534   8.019
 2434POPC   C4A32934  37.014   7.744   7.668
 2434POPC   C1B32935  36.765   7.272   8.740
 2434POPC   C2B32936  36.732   7.091   8.296
 2434POPC   C3B32937  36.613   7.061   7.849
 2434POPC   C4B32938  36.898   7.243   7.550
 2435POPC   NC332939  19.502  25.241   9.558
 2435POPC   PO432940  19.965  25.658   9.766
 2435POPC   GL132941  19.945  25.260   9.361
 2435POPC   GL232942  19.632  25.447   9.120
 2435POPC   C1A32943  19.905  25.096   8.905
 2435POPC   D2A32944  20.014  25.219   8.468
 2435POPC   C3A32945  19.901  25.324   8.038
 2435POPC   C4A32946  19.910  25.315   7.594
 2435POPC   C1B32947  19.760  25.624   8.676
 2435POPC   C2B32948  19.792  25.791   8.221
 2435POPC   C3B32949  19.695  25.727   7.765
 2435POPC   C4B32950  19.530  25.531   7.332
 2436POPC   NC332951  40.545  39.469   9.469
 2436POPC   PO432952  40.796  38.953   9.691
 2436POPC   GL132953  40.797  39.091   9.213
 2436POPC   GL232954  40.884  39.423   9.072
 2436POPC   C1A32955  40.507  39.145   8.877
 2436POPC   D2A32956  40.455  39.395   8.500
 2436POPC   C3A32957  40.713  39.214   8.165
 2436POPC   C4A32958  40.648  39.307   7.751
 2436POPC   C1B32959  40.972  39.287   8.617
 2436POPC   C2B32960  41.215  39.224   8.197
 2436POPC   C3B32961  41.170  39.428   7.814
 2436POPC   C4B32962  40.957  39.779   7.671
 2437POPC   NC332963  34.390   7.701   9.708
 2437POPC   PO432964  34.796   7.198   9.534
 2437POPC   GL132965  34.573   7.228   9.178
 2437POPC   GL232966  34.354   7.528   9.234
 2437POPC   C1A32967  34.767   7.210   8.775
 2437POPC   D2A32968  35.035   7.444   8.440
 2437POPC   C3A32969  34.846   7.351   8.023
 2437POPC   C4A32970  34.450   7.339   7.762
 2437POPC   C1B32971  34.531   7.664   8.860
 2437POPC   C2B32972  34.541   7.518   8.440
 2437POPC   C3B32973  34.493   7.720   8.086
 2437POPC   C4B32974  34.649   7.848   7.708
 2438POPC   NC332975  20.130  35.450   9.580
 2438POPC   PO432976  19.560  35.184   9.514
 2438POPC   GL132977  19.807  35.428   9.164
 2438POPC   GL232978  19.949  35.743   9.111
 2438POPC   C1A32979  19.645  35.527   8.732
 2438POPC   D2A32980  19.581  35.666   8.298
 2438POPC   C3A32981  19.543  35.376   7.938
 2438POPC   C4A32982  19.587  35.334   7.492
 2438POPC   C1B32983  20.193  35.525   8.828
 2438POPC   C2B32984  20.080  35.572   8.425
 2438POPC   C3B32985  20.016  35.685   8.037
 2438POPC   C4B32986  20.035  35.347   7.739
 2439POPC   NC332987  38.149  37.067   9.451
 2439POPC   PO432988  38.742  36.730   9.597
 2439POPC   GL132989  38.750  36.923   9.177
 2439POPC   GL232990  38.596  37.261   9.194
 2439POPC   C1A32991  38.751  37.085   8.735
 2439POPC   D2A32992  38.856  37.371   8.390
 2439POPC   C3A32993  38.889  37.132   7.986
 2439POPC   C4A32994  38.692  36.750   7.853
 2439POPC   C1B32995  38.241  37.183   8.845
 2439POPC   C2B32996  38.121  36.920   8.464
 2439POPC   C3B32997  38.191  36.995   7.997
 2439POPC   C4B32998  38.440  37.126   7.620
 2440POPC   NC332999  15.135  10.472   9.426
 2440POPC   PO433000  15.175  11.072   9.653
 2440POPC   GL133001  15.088  10.922   9.218
 2440POPC   GL233002  15.440  10.993   9.166
 2440POPC   C1A33003  15.058  10.647   8.810
 2440POPC   D2A33004  15.205  10.314   8.512
 2440POPC   C3A33005  15.114  10.401   8.066
 2440POPC   C4A33006  14.890  10.725   7.824
 2440POPC   C1B33007  15.512  10.844   8.750
 2440POPC   C2B33008  15.280  10.814   8.353
 2440POPC   C3B33009  15.378  10.830   7.916
 2440POPC   C4B33010  15.680  10.756   7.594
 2441POPC   NC333011   0.162  34.023   9.642
 2441POPC   PO433012  44.447  33.925   9.607
 2441POPC   GL133013  44.712  33.948   9.269
 2441POPC   GL233014  44.895  34.278   9.290
 2441POPC   C1A33015  44.634  33.785   8.842
 2441POPC   D2A33016  44.446  33.598   8.457
 2441POPC   C3A33017  44.635  33.716   8.040
 2441POPC   C4A33018  44.963  33.760   7.702
 2441POPC   C1B33019  44.916  34.206   8.863
 2441POPC   C2B33020  44.800  34.061   8.438
 2441POPC   C3B33021  44.978  34.149   8.035
 2441POPC   C4B33022   0.021  34.262   7.597
 2442POPC   NC333023   7.566  33.949   9.590
 2442POPC   PO433024   7.483  33.264   9.504
 2442POPC   GL133025   7.424  33.512   9.126
 2442POPC   GL233026   7.451  33.865   9.077
 2442POPC   C1A33027   7.533  33.526   8.698
 2442POPC   D2A33028   7.742  33.625   8.343
 2442POPC   C3A33029   7.581  33.567   7.911
 2442POPC   C4A33030   7.578  33.399   7.485
 2442POPC   C1B33031   7.205  33.923   8.682
 2442POPC   C2B33032   7.293  33.873   8.198
 2442POPC   C3B33033   7.429  34.039   7.747
 2442POPC   C4B33034   7.655  34.273   7.424
 2443POPC   NC333035   9.569  32.414   9.456
 2443POPC   PO433036  10.194  32.260   9.694
 2443POPC   GL133037  10.014  32.267   9.180
 2443POPC   GL233038   9.708  32.056   9.090
 2443POPC   C1A33039   9.879  32.329   8.715
 2443POPC   D2A33040   9.818  32.571   8.343
 2443POPC   C3A33041   9.808  32.347   7.928
 2443POPC   C4A33042  10.081  32.396   7.553
 2443POPC   C1B33043   9.408  32.074   8.724
 2443POPC   C2B33044   9.431  32.090   8.260
 2443POPC   C3B33045   9.484  31.968   7.823
 2443POPC   C4B33046   9.571  32.261   7.446
 2444POPC   NC333047  44.645  30.916   9.553
 2444POPC   PO433048   0.172  30.477   9.377
 2444POPC   GL133049  44.841  30.636   9.114
 2444POPC   GL233050  44.778  31.008   9.072
 2444POPC   C1A33051  44.880  30.568   8.668
 2444POPC   D2A33052   0.068  30.328   8.326
 2444POPC   C3A33053  44.813  30.492   7.987
 2444POPC   C4A33054  44.839  30.928   7.906
 2444POPC   C1B33055  44.444  30.819   8.822
 2444POPC   C2B33056  44.414  30.631   8.417
 2444POPC   C3B33057  44.363  30.817   8.031
 2444POPC   C4B33058  44.420  30.989   7.631
 2445POPC   NC333059  43.085   0.484   9.447
 2445POPC   PO433060  43.453  44.953   9.528
 2445POPC   GL133061  43.321   0.166   9.153
 2445POPC   GL233062  42.947   0.106   9.135
 2445POPC   C1A33063  43.235   0.435   8.760
 2445POPC   D2A33064  42.947   0.522   8.379
 2445POPC   C3A33065  43.091   0.404   7.963
 2445POPC   C4A33066  43.204   0.661   7.586
 2445POPC   C1B33067  42.784   0.155   8.713
 2445POPC   C2B33068  42.700   0.020   8.271
 2445POPC   C3B33069  42.760   0.023   7.797
 2445POPC   C4B33070  42.912   0.275   7.424
 2446POPC   NC333071  11.087  33.247   9.824
 2446POPC   PO433072  11.126  33.973   9.696
 2446POPC   GL133073  11.049  33.915   9.218
 2446POPC   GL233074  11.335  33.765   9.035
 2446POPC   C1A33075  10.911  33.867   8.798
 2446POPC   D2A33076  11.203  33.878   8.469
 2446POPC   C3A33077  11.057  33.619   8.139
 2446POPC   C4A33078  11.125  33.659   7.692
 2446POPC   C1B33079  11.564  33.544   8.689
 2446POPC   C2B33080  11.584  33.580   8.237
 2446POPC   C3B33081  11.452  33.920   7.970
 2446POPC   C4B33082  11.480  33.965   7.506
 2447POPC   NC333083  34.813  34.050   9.337
 2447POPC   PO433084  35.404  33.841   9.616
 2447POPC   GL133085  35.353  33.827   9.171
 2447POPC   GL233086  35.030  33.700   9.052
 2447POPC   C1A33087  35.530  33.809   8.760
 2447POPC   D2A33088  35.778  33.730   8.424
 2447POPC   C3A33089  35.605  33.908   8.071
 2447POPC   C4A33090  35.425  33.847   7.645
 2447POPC   C1B33091  35.059  33.993   8.758
 2447POPC   C2B33092  35.247  34.073   8.433
 2447POPC   C3B33093  35.111  34.002   8.030
 2447POPC   C4B33094  34.937  34.103   7.681
 2448POPC   NC333095  27.743  14.707   9.746
 2448POPC   PO433096  27.420  14.190   9.790
 2448POPC   GL133097  27.536  14.406   9.305
 2448POPC   GL233098  27.782  14.691   9.203
 2448POPC   C1A33099  27.736  14.348   8.826
 2448POPC   D2A33100  27.864  14.544   8.386
 2448POPC   C3A33101  27.798  14.352   7.960
 2448POPC   C4A33102  27.456  14.332   7.670
 2448POPC   C1B33103  27.469  14.780   8.844
 2448POPC   C2B33104  27.273  14.711   8.443
 2448POPC   C3B33105  27.412  14.705   8.017
 2448POPC   C4B33106  27.741  14.817   7.707
 2449POPC   NC333107  35.080  37.996   9.311
 2449POPC   PO433108  35.524  37.514   9.515
 2449POPC   GL133109  35.334  37.573   9.141
 2449POPC   GL233110  34.946  37.506   9.172
 2449POPC   C1A33111  35.547  37.538   8.742
 2449POPC   D2A33112  35.308  37.558   8.375
 2449POPC   C3A33113  35.476  37.404   8.014
 2449POPC   C4A33114  35.454  37.422   7.569
 2449POPC   C1B33115  34.996  37.715   8.756
 2449POPC   C2B33116  35.134  38.041   8.492
 2449POPC   C3B33117  35.304  37.976   8.091
 2449POPC   C4B33118  35.109  37.724   7.780
 2450POPC   NC333119  30.425   4.514   9.484
 2450POPC   PO433120  31.077   4.319   9.673
 2450POPC   GL133121  30.929   4.372   9.260
 2450POPC   GL233122  30.747   4.064   9.299
 2450POPC   C1A33123  31.055   4.350   8.817
 2450POPC   D2A33124  31.050   4.154   8.436
 2450POPC   C3A33125  30.882   4.364   8.058
 2450POPC   C4A33126  30.758   4.212   7.663
 2450POPC   C1B33127  30.584   4.157   8.885
 2450POPC   C2B33128  30.527   4.186   8.448
 2450POPC   C3B33129  30.600   3.938   8.090
 2450POPC   C4B33130  30.328   3.939   7.726
 2451POPC   NC333131  25.121   4.755   9.709
 2451POPC   PO433132  25.521   5.196   9.445
 2451POPC   GL133133  25.371   5.025   9.109
 2451POPC   GL233134  25.646   5.173   8.929
 2451POPC   C1A33135  25.332   4.870   8.689
 2451POPC   D2A33136  25.217   4.788   8.304
 2451POPC   C3A33137  25.426   5.044   7.981
 2451POPC   C4A33138  25.106   5.185   7.721
 2451POPC   C1B33139  25.541   5.420   8.554
 2451POPC   C2B33140  25.280   5.493   8.175
 2451POPC   C3B33141  25.412   5.597   7.759
 2451POPC   C4B33142  25.501   5.347   7.417
 2452POPC   NC333143  31.674  32.736   9.551
 2452POPC   PO433144  31.193  33.315   9.591
 2452POPC   GL133145  31.335  33.155   9.181
 2452POPC   GL233146  31.453  32.838   9.109
 2452POPC   C1A33147  31.455  33.216   8.728
 2452POPC   D2A33148  31.252  33.321   8.331
 2452POPC   C3A33149  31.494  33.211   7.952
 2452POPC   C4A33150  31.747  32.818   7.887
 2452POPC   C1B33151  31.276  32.717   8.690
 2452POPC   C2B33152  31.366  32.765   8.267
 2452POPC   C3B33153  31.234  32.784   7.852
 2452POPC   C4B33154  31.187  33.155   7.546
 2453POPC   NC333155  33.835  23.277   9.465
 2453POPC   PO433156  33.995  23.921   9.491
 2453POPC   GL133157  33.614  23.735   9.254
 2453POPC   GL233158  33.482  23.383   9.118
 2453POPC   C1A33159  33.542  23.849   8.822
 2453POPC   D2A33160  33.492  23.753   8.418
 2453POPC   C3A33161  33.757  23.970   8.139
 2453POPC   C4A33162  33.766  23.904   7.727
 2453POPC   C1B33163  33.683  23.358   8.674
 2453POPC   C2B33164  33.805  23.433   8.190
 2453POPC   C3B33165  34.089  23.507   7.816
 2453POPC   C4B33166  34.010  23.330   7.392
 2454POPC   NC333167  15.291  18.293   9.481
 2454POPC   PO433168  14.800  18.794   9.484
 2454POPC   GL133169  14.910  18.503   9.158
 2454POPC   GL233170  14.943  18.130   9.134
 2454POPC   C1A33171  14.966  18.597   8.730
 2454POPC   D2A33172  15.178  18.536   8.343
 2454POPC   C3A33173  14.920  18.504   7.982
 2454POPC   C4A33174  15.083  18.501   7.566
 2454POPC   C1B33175  15.128  17.942   8.757
 2454POPC   C2B33176  15.250  17.955   8.318
 2454POPC   C3B33177  15.177  18.065   7.901
 2454POPC   C4B33178  15.294  18.028   7.459
 2455POPC   NC333179  11.999  32.896   9.611
 2455POPC   PO433180  11.645  32.611   9.131
 2455POPC   GL133181  12.111  32.792   9.114
 2455POPC   GL233182  12.200  33.185   9.192
 2455POPC   C1A33183  12.272  32.959   8.707
 2455POPC   D2A33184  12.106  33.230   8.344
 2455POPC   C3A33185  11.789  33.074   8.061
 2455POPC   C4A33186  11.927  32.759   7.778
 2455POPC   C1B33187  12.215  33.461   8.801
 2455POPC   C2B33188  12.536  33.465   8.485
 2455POPC   C3B33189  12.382  33.535   8.029
 2455POPC   C4B33190  12.255  33.152   7.808
 2456POPC   NC333191  24.472  33.374   9.524
 2456POPC   PO433192  24.606  32.700   9.445
 2456POPC   GL133193  24.441  32.964   9.114
 2456POPC   GL233194  24.231  32.765   8.969
 2456POPC   C1A33195  24.520  33.092   8.639
 2456POPC   D2A33196  24.534  32.806   8.266
 2456POPC   C3A33197  24.620  32.939   7.827
 2456POPC   C4A33198  24.690  33.171   7.472
 2456POPC   C1B33199  24.087  32.662   8.578
 2456POPC   C2B33200  24.052  32.667   8.129
 2456POPC   C3B33201  24.266  32.587   7.724
 2456POPC   C4B33202  24.335  32.801   7.354
 2457POPC   NC333203  20.641   3.946   9.550
 2457POPC   PO433204  20.347   3.345   9.469
 2457POPC   GL133205  20.585   3.591   9.196
 2457POPC   GL233206  20.281   3.816   9.189
 2457POPC   C1A33207  20.827   3.631   8.806
 2457POPC   D2A33208  20.998   3.501   8.392
 2457POPC   C3A33209  20.856   3.725   8.016
 2457POPC   C4A33210  20.700   3.652   7.614
 2457POPC   C1B33211  20.316   3.608   8.771
 2457POPC   C2B33212  20.486   3.561   8.364
 2457POPC   C3B33213  20.331   3.655   7.971
 2457POPC   C4B33214  20.151   3.852   7.618
 2458POPC   NC333215  42.957   4.829   9.760
 2458POPC   PO433216  43.227   5.462   9.576
 2458POPC   GL133217  43.066   5.277   9.169
 2458POPC   GL233218  43.027   4.900   9.163
 2458POPC   C1A33219  43.129   5.166   8.739
 2458POPC   D2A33220  42.862   5.108   8.399
 2458POPC   C3A33221  43.111   5.043   8.070
 2458POPC   C4A33222  43.287   5.180   7.692
 2458POPC   C1B33223  42.873   4.702   8.753
 2458POPC   C2B33224  42.782   4.604   8.329
 2458POPC   C3B33225  42.629   4.850   8.000
 2458POPC   C4B33226  42.880   4.871   7.659
 2459POPC   NC333227  32.925  26.716   9.521
 2459POPC   PO433228  33.114  26.131   9.362
 2459POPC   GL133229  33.053  25.908   8.990
 2459POPC   GL233230  32.849  26.194   8.876
 2459POPC   C1A33231  33.008  25.867   8.522
 2459POPC   D2A33232  32.637  26.014   8.271
 2459POPC   C3A33233  32.822  26.096   7.870
 2459POPC   C4A33234  32.887  25.799   7.528
 2459POPC   C1B33235  33.252  26.283   8.660
 2459POPC   C2B33236  33.344  26.227   8.238
 2459POPC   C3B33237  33.217  26.434   7.833
 2459POPC   C4B33238  33.062  26.261   7.402
 2460POPC   NC333239  21.480   6.831   9.720
 2460POPC   PO433240  20.952   6.907   9.432
 2460POPC   GL133241  21.243   6.663   9.193
 2460POPC   GL233242  21.054   6.366   9.072
 2460POPC   C1A33243  21.364   6.665   8.750
 2460POPC   D2A33244  21.360   6.936   8.417
 2460POPC   C3A33245  21.229   6.787   8.050
 2460POPC   C4A33246  21.537   6.557   7.790
 2460POPC   C1B33247  21.044   6.275   8.631
 2460POPC   C2B33248  21.220   6.315   8.232
 2460POPC   C3B33249  21.076   6.365   7.817
 2460POPC   C4B33250  21.083   6.657   7.458
 2461POPC   NC333251  27.034   1.821   9.562
 2461POPC   PO433252  26.392   2.143   9.528
 2461POPC   GL133253  26.614   1.855   9.224
 2461POPC   GL233254  26.540   1.509   9.113
 2461POPC   C1A33255  26.927   1.874   8.884
 2461POPC   D2A33256  27.158   1.798   8.500
 2461POPC   C3A33257  26.994   1.935   8.124
 2461POPC   C4A33258  27.000   2.213   7.805
 2461POPC   C1B33259  26.440   1.697   8.748
 2461POPC   C2B33260  26.584   2.057   8.518
 2461POPC   C3B33261  26.449   2.209   8.141
 2461POPC   C4B33262  26.544   2.005   7.774
 2462POPC   NC333263  16.254  30.822   9.513
 2462POPC   PO433264  15.613  30.980   9.599
 2462POPC   GL133265  15.727  30.737   9.129
 2462POPC   GL233266  16.066  30.681   9.052
 2462POPC   C1A33267  15.769  30.677   8.640
 2462POPC   D2A33268  16.081  30.809   8.331
 2462POPC   C3A33269  15.986  30.953   7.918
 2462POPC   C4A33270  15.955  30.794   7.475
 2462POPC   C1B33271  16.260  30.452   8.679
 2462POPC   C2B33272  16.389  30.392   8.221
 2462POPC   C3B33273  16.192  30.449   7.815
 2462POPC   C4B33274  16.087  30.300   7.371
 2463POPC   NC333275   6.877  39.801   9.702
 2463POPC   PO433276   6.223  39.991   9.506
 2463POPC   GL133277   6.503  39.915   9.190
 2463POPC   GL233278   6.867  39.828   9.203
 2463POPC   C1A33279   6.430  39.914   8.771
 2463POPC   D2A33280   6.469  40.139   8.413
 2463POPC   C3A33281   6.584  39.885   8.077
 2463POPC   C4A33282   6.753  40.026   7.709
 2463POPC   C1B33283   6.925  40.054   8.844
 2463POPC   C2B33284   7.024  40.098   8.439
 2463POPC   C3B33285   7.123  39.942   8.069
 2463POPC   C4B33286   7.181  39.705   7.740
 2464POPC   NC333287  43.659  36.421   9.512
 2464POPC   PO433288  44.089  35.929   9.423
 2464POPC   GL133289  43.829  36.040   9.109
 2464POPC   GL233290  43.812  36.364   9.054
 2464POPC   C1A33291  44.008  35.928   8.725
 2464POPC   D2A33292  44.204  36.121   8.344
 2464POPC   C3A33293  43.996  35.937   8.010
 2464POPC   C4A33294  43.705  35.730   7.697
 2464POPC   C1B33295  44.003  36.439   8.719
 2464POPC   C2B33296  43.870  36.638   8.386
 2464POPC   C3B33297  43.964  36.467   8.019
 2464POPC   C4B33298  43.815  36.431   7.613
 2465POPC   NC333299  38.587  13.925   9.447
 2465POPC   PO433300  38.634  14.660   9.408
 2465POPC   GL133301  38.447  14.351   9.127
 2465POPC   GL233302  38.267  14.651   9.021
 2465POPC   C1A33303  38.528  14.166   8.707
 2465POPC   D2A33304  38.582  14.338   8.283
 2465POPC   C3A33305  38.313  14.388   7.914
 2465POPC   C4A33306  38.406  14.553   7.489
 2465POPC   C1B33307  38.560  14.709   8.724
 2465POPC   C2B33308  38.711  14.838   8.343
 2465POPC   C3B33309  38.750  14.683   7.928
 2465POPC   C4B33310  38.825  14.916   7.567
 2466POPC   NC333311   8.759  10.545   9.710
 2466POPC   PO433312   9.361  10.517   9.524
 2466POPC   GL133313   9.053  10.742   9.262
 2466POPC   GL233314   8.724  10.577   9.207
 2466POPC   C1A33315   8.989  10.834   8.812
 2466POPC   D2A33316   9.221  10.603   8.472
 2466POPC   C3A33317   9.051  10.389   8.101
 2466POPC   C4A33318   9.243  10.359   7.682
 2466POPC   C1B33319   8.555  10.497   8.810
 2466POPC   C2B33320   8.420  10.700   8.444
 2466POPC   C3B33321   8.705  10.838   8.122
 2466POPC   C4B33322   8.802  10.641   7.738
 2467POPC   NC333323  25.100  15.392   9.658
 2467POPC   PO433324  25.617  14.961   9.565
 2467POPC   GL133325  25.301  15.067   9.251
 2467POPC   GL233326  24.966  14.920   9.178
 2467POPC   C1A33327  25.278  15.295   8.870
 2467POPC   D2A33328  25.441  15.162   8.474
 2467POPC   C3A33329  25.283  15.252   8.097
 2467POPC   C4A33330  25.416  15.152   7.668
 2467POPC   C1B33331  25.145  14.812   8.742
 2467POPC   C2B33332  25.247  14.631   8.346
 2467POPC   C3B33333  25.157  14.769   7.924
 2467POPC   C4B33334  24.886  15.148   7.789
 2468POPC   NC333335  21.171  34.315   9.467
 2468POPC   PO433336  21.654  34.793   9.607
 2468POPC   GL133337  21.621  34.515   9.196
 2468POPC   GL233338  21.277  34.519   9.030
 2468POPC   C1A33339  21.636  34.399   8.707
 2468POPC   D2A33340  21.423  34.607   8.348
 2468POPC   C3A33341  21.492  34.425   7.956
 2468POPC   C4A33342  21.475  34.587   7.558
 2468POPC   C1B33343  21.048  34.471   8.668
 2468POPC   C2B33344  20.910  34.337   8.309
 2468POPC   C3B33345  21.000  34.519   7.911
 2468POPC   C4B33346  21.224  34.893   7.902
 2469POPC   NC333347   4.493  23.591   9.315
 2469POPC   PO433348   3.958  23.934   9.571
 2469POPC   GL133349   4.155  23.972   9.186
 2469POPC   GL233350   4.020  23.650   9.119
 2469POPC   C1A33351   4.154  23.997   8.728
 2469POPC   D2A33352   4.327  23.703   8.399
 2469POPC   C3A33353   4.349  23.812   7.954
 2469POPC   C4A33354   4.603  23.706   7.582
 2469POPC   C1B33355   3.898  23.537   8.741
 2469POPC   C2B33356   3.822  23.723   8.373
 2469POPC   C3B33357   3.953  23.494   8.036
 2469POPC   C4B33358   4.173  23.424   7.655
 2470POPC   NC333359  15.582  29.442   9.398
 2470POPC   PO433360  15.041  29.825   9.382
 2470POPC   GL133361  15.084  30.154   9.064
 2470POPC   GL233362  15.431  30.240   9.113
 2470POPC   C1A33363  15.072  30.057   8.606
 2470POPC   D2A33364  15.159  29.687   8.306
 2470POPC   C3A33365  15.086  29.808   7.865
 2470POPC   C4A33366  15.159  30.054   7.484
 2470POPC   C1B33367  15.458  29.835   8.846
 2470POPC   C2B33368  15.630  29.843   8.430
 2470POPC   C3B33369  15.543  30.005   8.032
 2470POPC   C4B33370  15.542  29.787   7.649
 2471POPC   NC333371  18.738  35.524   9.484
 2471POPC   PO433372  18.255  35.077   9.397
 2471POPC   GL133373  18.346  35.432   9.128
 2471POPC   GL233374  18.657  35.552   8.976
 2471POPC   C1A33375  18.138  35.483   8.744
 2471POPC   D2A33376  18.008  35.171   8.453
 2471POPC   C3A33377  18.119  35.379   8.063
 2471POPC   C4A33378  18.170  35.147   7.701
 2471POPC   C1B33379  18.737  35.117   8.824
 2471POPC   C2B33380  18.759  34.985   8.392
 2471POPC   C3B33381  18.602  35.096   7.974
 2471POPC   C4B33382  18.550  35.509   7.766
 2472POPC   NC333383  16.882  44.250   9.594
 2472POPC   PO433384  16.453  43.699   9.569
 2472POPC   GL133385  16.640  43.811   9.149
 2472POPC   GL233386  16.999  43.772   9.029
 2472POPC   C1A33387  16.481  43.751   8.732
 2472POPC   D2A33388  16.378  43.627   8.307
 2472POPC   C3A33389  16.358  43.991   7.947
 2472POPC   C4A33390  16.280  44.233   7.553
 2472POPC   C1B33391  16.848  44.127   8.760
 2472POPC   C2B33392  16.623  44.076   8.358
 2472POPC   C3B33393  16.797  43.728   8.010
 2472POPC   C4B33394  17.085  43.801   7.601
 2473POPC   NC333395  33.419   4.652   9.395
 2473POPC   PO433396  33.388   4.079   9.682
 2473POPC   GL133397  33.476   4.174   9.226
 2473POPC   GL233398  33.787   4.337   9.194
 2473POPC   C1A33399  33.569   4.248   8.765
 2473POPC   D2A33400  33.885   4.180   8.467
 2473POPC   C3A33401  33.656   4.163   8.086
 2473POPC   C4A33402  33.634   4.356   7.701
 2473POPC   C1B33403  34.035   4.513   8.864
 2473POPC   C2B33404  34.104   4.681   8.460
 2473POPC   C3B33405  34.017   4.524   8.065
 2473POPC   C4B33406  34.093   4.693   7.694
 2474POPC   NC333407  11.096   1.390   9.473
 2474POPC   PO433408  11.635   1.819   9.428
 2474POPC   GL133409  11.511   1.402   9.121
 2474POPC   GL233410  11.231   1.132   9.076
 2474POPC   C1A33411  11.621   1.135   8.780
 2474POPC   D2A33412  11.451   1.078   8.371
 2474POPC   C3A33413  11.536   1.321   8.014
 2474POPC   C4A33414  11.196   1.192   7.733
 2474POPC   C1B33415  10.959   1.129   8.734
 2474POPC   C2B33416  10.949   0.928   8.365
 2474POPC   C3B33417  10.817   0.978   7.982
 2474POPC   C4B33418  10.880   0.783   7.581
 2475POPC   NC333419  34.165  42.618   9.481
 2475POPC   PO433420  34.564  42.041   9.562
 2475POPC   GL133421  34.491  42.255   9.178
 2475POPC   GL233422  34.718  42.557   9.163
 2475POPC   C1A33423  34.378  42.206   8.750
 2475POPC   D2A33424  34.182  42.077   8.365
 2475POPC   C3A33425  34.399  42.190   8.020
 2475POPC   C4A33426  34.345  42.561   7.841
 2475POPC   C1B33427  34.867  42.360   8.755
 2475POPC   C2B33428  34.769  42.408   8.292
 2475POPC   C3B33429  34.866  42.298   7.822
 2475POPC   C4B33430  34.976  42.331   7.356
 2476POPC   NC333431  22.055   5.359   9.421
 2476POPC   PO433432  22.472   4.844   9.608
 2476POPC   GL133433  22.271   4.942   9.188
 2476POPC   GL233434  22.264   5.286   8.966
 2476POPC   C1A33435  22.045   4.869   8.819
 2476POPC   D2A33436  22.188   5.124   8.476
 2476POPC   C3A33437  21.973   4.974   8.150
 2476POPC   C4A33438  22.012   4.886   7.733
 2476POPC   C1B33439  21.967   5.588   8.807
 2476POPC   C2B33440  21.776   5.705   8.437
 2476POPC   C3B33441  21.878   5.473   8.087
 2476POPC   C4B33442  21.937   5.412   7.667
 2477POPC   NC333443  14.625  40.603   9.819
 2477POPC   PO433444  14.307  41.020   9.408
 2477POPC   GL133445  14.511  40.897   9.059
 2477POPC   GL233446  14.580  40.553   9.166
 2477POPC   C1A33447  14.404  41.084   8.679
 2477POPC   D2A33448  14.421  40.932   8.300
 2477POPC   C3A33449  14.280  41.021   7.900
 2477POPC   C4A33450  14.133  40.597   7.781
 2477POPC   C1B33451  14.668  40.534   8.700
 2477POPC   C2B33452  14.647  40.480   8.239
 2477POPC   C3B33453  14.645  40.430   7.808
 2477POPC   C4B33454  14.537  40.688   7.495
 2478POPC   NC333455  33.950  17.419   9.572
 2478POPC   PO433456  33.914  16.890   9.329
 2478POPC   GL133457  34.131  17.235   9.096
 2478POPC   GL233458  33.997  17.593   9.094
 2478POPC   C1A33459  34.099  17.364   8.656
 2478POPC   D2A33460  34.075  17.567   8.269
 2478POPC   C3A33461  33.831  17.278   7.989
 2478POPC   C4A33462  33.435  17.235   7.740
 2478POPC   C1B33463  33.857  17.812   8.698
 2478POPC   C2B33464  33.594  17.736   8.322
 2478POPC   C3B33465  33.610  17.730   7.888
 2478POPC   C4B33466  33.758  18.005   7.575
 2479POPC   NC333467  28.896   3.703   9.255
 2479POPC   PO433468  29.173   3.150   9.611
 2479POPC   GL133469  29.248   3.351   9.183
 2479POPC   GL233470  28.929   3.325   8.920
 2479POPC   C1A33471  29.369   3.481   8.749
 2479POPC   D2A33472  29.142   3.298   8.416
 2479POPC   C3A33473  29.134   3.500   8.036
 2479POPC   C4A33474  29.192   3.858   7.788
 2479POPC   C1B33475  28.962   3.736   8.617
 2479POPC   C2B33476  28.906   3.959   8.232
 2479POPC   C3B33477  28.713   3.781   7.870
 2479POPC   C4B33478  28.774   3.657   7.463
 2480POPC   NC333479  44.555  25.617   9.491
 2480POPC   PO433480  44.445  26.019  10.051
 2480POPC   GL133481  44.451  26.109   9.456
 2480POPC   GL233482  44.751  25.949   9.174
 2480POPC   C1A33483  44.346  26.070   8.941
 2480POPC   D2A33484  44.576  25.782   8.598
 2480POPC   C3A33485  44.572  25.879   8.139
 2480POPC   C4A33486  44.800  25.838   7.739
 2480POPC   C1B33487  44.796  26.224   8.774
 2480POPC   C2B33488  44.740  26.451   8.388
 2480POPC   C3B33489  44.797  26.322   7.952
 2480POPC   C4B33490  44.971  26.503   7.587
 2481POPC   NC333491  10.401   2.910   9.615
 2481POPC   PO433492  10.964   3.205   9.418
 2481POPC   GL133493  10.692   2.995   9.136
 2481POPC   GL233494  10.383   2.779   9.144
 2481POPC   C1A33495  10.652   2.840   8.724
 2481POPC   D2A33496  10.649   2.570   8.401
 2481POPC   C3A33497  10.714   2.798   8.068
 2481POPC   C4A33498  10.596   2.544   7.738
 2481POPC   C1B33499  10.131   2.864   8.807
 2481POPC   C2B33500  10.245   2.926   8.406
 2481POPC   C3B33501  10.204   2.687   8.060
 2481POPC   C4B33502  10.329   2.969   7.764
 2482POPC   NC333503  26.527   4.088   9.509
 2482POPC   PO433504  27.007   4.553   9.599
 2482POPC   GL133505  26.888   4.366   9.270
 2482POPC   GL233506  26.594   4.511   9.108
 2482POPC   C1A33507  27.109   4.444   8.937
 2482POPC   D2A33508  27.118   4.418   8.519
 2482POPC   C3A33509  26.825   4.495   8.209
 2482POPC   C4A33510  27.007   4.492   7.791
 2482POPC   C1B33511  26.695   4.148   8.834
 2482POPC   C2B33512  26.582   4.034   8.417
 2482POPC   C3B33513  26.711   4.011   7.993
 2482POPC   C4B33514  26.510   4.359   7.810
 2483POPC   NC333515  35.988  13.295   9.871
 2483POPC   PO433516  36.120  12.732   9.516
 2483POPC   GL133517  36.111  12.784   9.102
 2483POPC   GL233518  36.204  13.127   9.131
 2483POPC   C1A33519  36.183  12.745   8.655
 2483POPC   D2A33520  36.216  13.063   8.314
 2483POPC   C3A33521  36.134  12.791   7.990
 2483POPC   C4A33522  36.157  12.441   7.678
 2483POPC   C1B33523  35.934  13.160   8.765
 2483POPC   C2B33524  35.765  13.366   8.419
 2483POPC   C3B33525  35.822  13.273   7.982
 2483POPC   C4B33526  36.182  13.232   7.735
 2484POPC   NC333527  15.564  39.370   9.466
 2484POPC   PO433528  16.247  39.188   9.558
 2484POPC   GL133529  16.031  39.154   9.174
 2484POPC   GL233530  16.266  38.840   9.169
 2484POPC   C1A33531  15.769  39.342   8.828
 2484POPC   D2A33532  15.867  39.464   8.419
 2484POPC   C3A33533  15.859  39.147   8.196
 2484POPC   C4A33534  15.965  39.138   7.808
 2484POPC   C1B33535  16.379  38.963   8.784
 2484POPC   C2B33536  16.315  39.100   8.401
 2484POPC   C3B33537  16.344  38.868   8.027
 2484POPC   C4B33538  16.468  39.078   7.659
 2485POPC   NC333539   3.114  23.285   9.615
 2485POPC   PO433540   2.536  22.963   9.668
 2485POPC   GL133541   2.745  22.989   9.260
 2485POPC   GL233542   3.102  22.828   9.301
 2485POPC   C1A33543   2.669  22.844   8.820
 2485POPC   D2A33544   2.533  23.008   8.421
 2485POPC   C3A33545   2.547  22.804   8.028
 2485POPC   C4A33546   2.635  22.912   7.596
 2485POPC   C1B33547   3.150  23.067   8.939
 2485POPC   C2B33548   3.031  23.097   8.500
 2485POPC   C3B33549   3.025  22.937   8.067
 2485POPC   C4B33550   3.191  23.008   7.671
 2486POPC   NC333551  35.236  36.421   9.979
 2486POPC   PO433552  35.418  35.969   9.606
 2486POPC   GL133553  35.357  36.097   9.180
 2486POPC   GL233554  35.670  35.915   9.084
 2486POPC   C1A33555  35.469  36.348   8.816
 2486POPC   D2A33556  35.438  36.157   8.405
 2486POPC   C3A33557  35.501  36.399   8.035
 2486POPC   C4A33558  35.446  36.305   7.605
 2486POPC   C1B33559  35.522  35.762   8.726
 2486POPC   C2B33560  35.701  35.741   8.298
 2486POPC   C3B33561  35.490  35.901   7.932
 2486POPC   C4B33562  35.502  35.809   7.491
 2487POPC   NC333563  35.771  36.231   9.455
 2487POPC   PO433564  36.407  36.003   9.461
 2487POPC   GL133565  36.185  35.970   9.078
 2487POPC   GL233566  36.131  36.304   9.101
 2487POPC   C1A33567  35.913  36.102   8.674
 2487POPC   D2A33568  35.956  36.233   8.240
 2487POPC   C3A33569  36.008  35.971   7.902
 2487POPC   C4A33570  35.839  35.575   7.788
 2487POPC   C1B33571  36.381  36.297   8.713
 2487POPC   C2B33572  36.369  36.540   8.332
 2487POPC   C3B33573  36.335  36.392   7.904
 2487POPC   C4B33574  36.323  36.385   7.415
 2488POPC   NC333575  23.581  22.063   9.557
 2488POPC   PO433576  23.787  22.738   9.383
 2488POPC   GL133577  23.742  22.322   9.153
 2488POPC   GL233578  23.846  21.929   9.145
 2488POPC   C1A33579  23.611  22.230   8.760
 2488POPC   D2A33580  23.712  22.080   8.401
 2488POPC   C3A33581  23.552  22.369   8.136
 2488POPC   C4A33582  23.654  22.472   7.744
 2488POPC   C1B33583  24.101  22.086   8.807
 2488POPC   C2B33584  24.160  22.313   8.423
 2488POPC   C3B33585  24.026  22.201   7.995
 2488POPC   C4B33586  23.996  22.120   7.506
 2489POPC   NC333587  30.996  30.559   9.519
 2489POPC   PO433588  30.356  30.835   9.526
 2489POPC   GL133589  30.670  30.715   9.156
 2489POPC   GL233590  30.993  30.921   9.064
 2489POPC   C1A33591  30.652  30.765   8.689
 2489POPC   D2A33592  30.390  30.985   8.354
 2489POPC   C3A33593  30.521  30.970   7.940
 2489POPC   C4A33594  30.431  30.581   7.699
 2489POPC   C1B33595  31.158  30.736   8.662
 2489POPC   C2B33596  30.939  30.611   8.277
 2489POPC   C3B33597  30.959  30.768   7.830
 2489POPC   C4B33598  30.862  30.698   7.392
 2490POPC   NC333599   1.093  21.474   9.355
 2490POPC   PO433600   1.144  20.865   9.520
 2490POPC   GL133601   1.302  21.021   9.138
 2490POPC   GL233602   1.549  21.280   9.223
 2490POPC   C1A33603   1.090  21.148   8.751
 2490POPC   D2A33604   1.009  21.495   8.449
 2490POPC   C3A33605   0.980  21.500   8.000
 2490POPC   C4A33606   1.078  21.416   7.557
 2490POPC   C1B33607   1.560  21.455   8.824
 2490POPC   C2B33608   1.491  21.271   8.450
 2490POPC   C3B33609   1.484  21.498   8.102
 2490POPC   C4B33610   1.560  21.378   7.717
 2491POPC   NC333611   1.443  28.846   9.450
 2491POPC   PO433612   1.283  29.481   9.587
 2491POPC   GL133613   1.167  29.286   9.155
 2491POPC   GL233614   1.016  28.951   9.137
 2491POPC   C1A33615   1.188  29.189   8.729
 2491POPC   D2A33616   1.500  29.220   8.458
 2491POPC   C3A33617   1.298  29.146   8.099
 2491POPC   C4A33618   1.423  29.341   7.749
 2491POPC   C1B33619   0.967  28.707   8.774
 2491POPC   C2B33620   1.147  28.681   8.354
 2491POPC   C3B33621   1.074  28.722   7.911
 2491POPC   C4B33622   0.993  29.067   7.638
 2492POPC   NC333623   9.402   1.609   9.450
 2492POPC   PO433624   8.715   1.607   9.499
 2492POPC   GL133625   8.789   1.931   9.156
 2492POPC   GL233626   9.131   2.033   9.245
 2492POPC   C1A33627   8.967   1.865   8.722
 2492POPC   D2A33628   9.073   1.785   8.299
 2492POPC   C3A33629   8.817   1.871   7.935
 2492POPC   C4A33630   9.019   1.932   7.517
 2492POPC   C1B33631   9.181   2.293   8.889
 2492POPC   C2B33632   9.093   2.330   8.444
 2492POPC   C3B33633   9.184   2.214   8.025
 2492POPC   C4B33634   9.394   2.284   7.670
 2493POPC   NC333635  11.049   2.157   9.501
 2493POPC   PO433636  10.400   2.397   9.538
 2493POPC   GL133637  10.543   2.295   9.162
 2493POPC   GL233638  10.687   1.978   9.145
 2493POPC   C1A33639  10.351   2.377   8.777
 2493POPC   D2A33640  10.470   2.079   8.471
 2493POPC   C3A33641  10.455   2.137   8.025
 2493POPC   C4A33642  10.375   2.133   7.557
 2493POPC   C1B33643  10.910   1.970   8.730
 2493POPC   C2B33644  10.864   1.616   8.432
 2493POPC   C3B33645  10.800   1.535   7.981
 2493POPC   C4B33646  10.814   1.920   7.722
 2494POPC   NC333647  43.474  29.878   9.408
 2494POPC   PO433648  42.855  29.665   9.572
 2494POPC   GL133649  42.894  29.886   9.165
 2494POPC   GL233650  43.191  30.081   9.034
 2494POPC   C1A33651  42.843  29.915   8.716
 2494POPC   D2A33652  43.015  29.729   8.324
 2494POPC   C3A33653  42.863  29.930   7.941
 2494POPC   C4A33654  43.005  29.835   7.511
 2494POPC   C1B33655  43.347  29.809   8.709
 2494POPC   C2B33656  43.474  29.954   8.284
 2494POPC   C3B33657  43.390  30.016   7.835
 2494POPC   C4B33658  43.430  30.085   7.343
 2495POPC   NC333659  37.035  20.092   9.449
 2495POPC   PO433660  36.854  19.514   9.147
 2495POPC   GL133661  37.001  19.877   8.985
 2495POPC   GL233662  36.773  20.188   9.016
 2495POPC   C1A33663  37.155  19.761   8.589
 2495POPC   D2A33664  36.885  19.701   8.278
 2495POPC   C3A33665  37.090  19.648   7.908
 2495POPC   C4A33666  36.754  19.761   7.653
 2495POPC   C1B33667  36.991  20.234   8.602
 2495POPC   C2B33668  37.206  20.132   8.209
 2495POPC   C3B33669  37.055  20.167   7.793
 2495POPC   C4B33670  37.241  20.190   7.372
 2496POPC   NC333671  22.419  32.053   9.435
 2496POPC   PO433672  21.905  32.439   9.673
 2496POPC   GL133673  22.050  32.370   9.205
 2496POPC   GL233674  22.353  32.448   9.124
 2496POPC   C1A33675  22.127  32.250   8.703
 2496POPC   D2A33676  22.065  32.233   8.199
 2496POPC   C3A33677  21.989  32.336   7.749
 2496POPC   C4A33678  22.063  32.027   7.482
 2496POPC   C1B33679  22.424  32.694   8.786
 2496POPC   C2B33680  22.277  32.650   8.388
 2496POPC   C3B33681  22.323  32.629   7.967
 2496POPC   C4B33682  22.658  32.427   7.749
 2497POPC   NC333683  21.387  41.660   9.590
 2497POPC   PO433684  21.415  41.034   9.687
 2497POPC   GL133685  21.506  41.291   9.223
 2497POPC   GL233686  21.579  41.619   9.131
 2497POPC   C1A33687  21.256  41.438   8.809
 2497POPC   D2A33688  21.500  41.442   8.419
 2497POPC   C3A33689  21.356  41.336   8.037
 2497POPC   C4A33690  21.127  41.428   7.676
 2497POPC   C1B33691  21.633  41.902   8.795
 2497POPC   C2B33692  21.449  41.946   8.417
 2497POPC   C3B33693  21.544  41.858   7.997
 2497POPC   C4B33694  21.535  41.714   7.589
 2498POPC   NC333695  19.289   3.398   9.562
 2498POPC   PO433696  18.674   3.506   9.460
 2498POPC   GL133697  18.901   3.535   9.079
 2498POPC   GL233698  19.220   3.676   9.117
 2498POPC   C1A33699  18.846   3.558   8.616
 2498POPC   D2A33700  18.866   3.423   8.183
 2498POPC   C3A33701  19.075   3.692   7.900
 2498POPC   C4A33702  19.079   3.586   7.474
 2498POPC   C1B33703  19.339   3.470   8.752
 2498POPC   C2B33704  19.352   3.540   8.323
 2498POPC   C3B33705  19.342   3.263   7.977
 2498POPC   C4B33706  19.229   3.115   7.563
 2499POPC   NC333707  28.492   1.454   9.394
 2499POPC   PO433708  28.012   1.109   9.492
 2499POPC   GL133709  28.103   1.203   9.086
 2499POPC   GL233710  28.056   1.549   9.062
 2499POPC   C1A33711  28.358   1.171   8.713
 2499POPC   D2A33712  28.421   1.362   8.312
 2499POPC   C3A33713  28.264   1.080   8.018
 2499POPC   C4A33714  28.638   0.939   7.783
 2499POPC   C1B33715  28.189   1.669   8.675
 2499POPC   C2B33716  28.145   1.808   8.275
 2499POPC   C3B33717  28.350   1.809   7.915
 2499POPC   C4B33718  28.522   1.431   7.782
 2500POPC   NC333719  19.299  26.605   9.587
 2500POPC   PO433720  19.017  27.159   9.378
 2500POPC   GL133721  19.110  26.779   9.154
 2500POPC   GL233722  18.786  26.692   8.963
 2500POPC   C1A33723  19.258  26.556   8.815
 2500POPC   D2A33724  18.949  26.502   8.468
 2500POPC   C3A33725  19.127  26.585   8.054
 2500POPC   C4A33726  19.357  26.789   7.730
 2500POPC   C1B33727  19.010  27.032   8.725
 2500POPC   C2B33728  18.916  27.287   8.397
 2500POPC   C3B33729  19.026  27.104   8.032
 2500POPC   C4B33730  18.902  27.193   7.650
 2501POPC   NC333731  25.744   7.912   9.353
 2501POPC   PO433732  26.083   8.406   9.592
 2501POPC   GL133733  26.146   8.332   9.153
 2501POPC   GL233734  25.894   8.203   8.954
 2501POPC   C1A33735  26.375   8.301   8.751
 2501POPC   D2A33736  26.198   8.218   8.342
 2501POPC   C3A33737  26.376   8.328   7.973
 2501POPC   C4A33738  26.073   8.623   7.811
 2501POPC   C1B33739  26.021   7.853   8.712
 2501POPC   C2B33740  26.011   7.729   8.287
 2501POPC   C3B33741  25.986   7.970   7.890
 2501POPC   C4B33742  25.998   7.860   7.454
 2502POPC   NC333743   9.263  23.881   9.508
 2502POPC   PO433744   8.612  23.903   9.355
 2502POPC   GL133745   8.931  23.743   9.125
 2502POPC   GL233746   8.658  23.521   8.994
 2502POPC   C1A33747   9.292  23.878   8.811
 2502POPC   D2A33748   9.497  23.898   8.408
 2502POPC   C3A33749   9.264  23.965   8.016
 2502POPC   C4A33750   9.169  23.786   7.589
 2502POPC   C1B33751   8.976  23.457   8.730
 2502POPC   C2B33752   9.106  23.560   8.376
 2502POPC   C3B33753   8.898  23.572   7.998
 2502POPC   C4B33754   8.740  23.929   7.783
 2503POPC   NC333755  19.713  14.005   9.445
 2503POPC   PO433756  19.786  13.335   9.435
 2503POPC   GL133757  19.793  13.613   9.101
 2503POPC   GL233758  20.122  13.753   9.023
 2503POPC   C1A33759  19.798  13.441   8.681
 2503POPC   D2A33760  19.709  13.118   8.356
 2503POPC   C3A33761  20.040  13.143   8.064
 2503POPC   C4A33762  20.048  13.382   7.703
 2503POPC   C1B33763  19.854  13.977   8.729
 2503POPC   C2B33764  19.693  13.828   8.331
 2503POPC   C3B33765  19.803  13.832   7.899
 2503POPC   C4B33766  19.580  14.094   7.614
 2504POPC   NC333767   5.272   3.709   9.627
 2504POPC   PO433768   4.821   3.285   9.547
 2504POPC   GL133769   4.953   3.652   9.235
 2504POPC   GL233770   5.288   3.572   9.145
 2504POPC   C1A33771   5.086   3.835   8.797
 2504POPC   D2A33772   5.207   3.562   8.459
 2504POPC   C3A33773   5.173   3.799   8.094
 2504POPC   C4A33774   5.103   3.595   7.710
 2504POPC   C1B33775   4.946   3.313   8.864
 2504POPC   C2B33776   4.759   3.206   8.468
 2504POPC   C3B33777   4.889   3.297   8.069
 2504POPC   C4B33778   4.752   3.245   7.639
 2505POPC   NC333779  31.220   0.077   9.483
 2505POPC   PO433780  31.520  44.517   9.416
 2505POPC   GL133781  31.623  44.746   9.051
 2505POPC   GL233782  31.288  44.848   9.046
 2505POPC   C1A33783  31.478  44.775   8.585
 2505POPC   D2A33784  31.058  44.636   8.403
 2505POPC   C3A33785  31.096  44.436   7.988
 2505POPC   C4A33786  31.523  44.338   7.847
 2505POPC   C1B33787  31.053   0.031   8.753
 2505POPC   C2B33788  31.142   0.209   8.353
 2505POPC   C3B33789  31.368  44.952   8.092
 2505POPC   C4B33790  31.337  44.802   7.703
 2506POPC   NC333791   2.649  25.550   9.948
 2506POPC   PO433792   2.827  25.136   9.433
 2506POPC   GL133793   2.745  25.425   9.133
 2506POPC   GL233794   2.482  25.229   9.026
 2506POPC   C1A33795   2.811  25.457   8.694
 2506POPC   D2A33796   2.692  25.690   8.334
 2506POPC   C3A33797   2.914  25.535   7.974
 2506POPC   C4A33798   2.887  25.119   7.848
 2506POPC   C1B33799   2.460  24.929   8.696
 2506POPC   C2B33800   2.335  24.977   8.261
 2506POPC   C3B33801   2.391  25.005   7.816
 2506POPC   C4B33802   2.421  24.994   7.334
 2507POPC   NC333803   9.317  22.002   9.634
 2507POPC   PO433804   9.953  22.164   9.631
 2507POPC   GL133805   9.855  22.091   9.188
 2507POPC   GL233806   9.518  22.096   9.152
 2507POPC   C1A33807   9.823  22.324   8.773
 2507POPC   D2A33808   9.739  22.460   8.331
 2507POPC   C3A33809   9.921  22.295   7.925
 2507POPC   C4A33810   9.795  21.931   7.663
 2507POPC   C1B33811   9.562  21.893   8.778
 2507POPC   C2B33812   9.380  22.031   8.426
 2507POPC   C3B33813   9.458  22.137   8.021
 2507POPC   C4B33814   9.371  22.208   7.597
 2508POPC   NC333815   1.528   6.824   9.265
 2508POPC   PO433816   1.212   6.423   9.699
 2508POPC   GL133817   1.164   6.414   9.240
 2508POPC   GL233818   1.447   6.254   9.093
 2508POPC   C1A33819   1.134   6.645   8.808
 2508POPC   D2A33820   1.144   6.844   8.419
 2508POPC   C3A33821   1.405   6.743   8.082
 2508POPC   C4A33822   1.161   6.849   7.747
 2508POPC   C1B33823   1.152   6.160   8.736
 2508POPC   C2B33824   1.060   6.355   8.297
 2508POPC   C3B33825   1.161   6.356   7.838
 2508POPC   C4B33826   1.461   6.495   7.522
 2509POPC   NC333827  18.041   9.383   9.486
 2509POPC   PO433828  18.324   8.711   9.432
 2509POPC   GL133829  18.365   8.811   9.035
 2509POPC   GL233830  18.309   9.176   9.092
 2509POPC   C1A33831  18.554   9.004   8.675
 2509POPC   D2A33832  18.639   9.014   8.253
 2509POPC   C3A33833  18.312   8.889   7.980
 2509POPC   C4A33834  18.386   8.890   7.555
 2509POPC   C1B33835  18.243   9.423   8.712
 2509POPC   C2B33836  18.264   9.381   8.271
 2509POPC   C3B33837  18.439   9.363   7.893
 2509POPC   C4B33838  18.303   9.368   7.473
 2510POPC   NC333839  43.450   8.699   9.519
 2510POPC   PO433840  42.917   9.122   9.490
 2510POPC   GL133841  43.024   8.786   9.222
 2510POPC   GL233842  43.278   8.890   9.051
 2510POPC   C1A33843  42.865   8.688   8.829
 2510POPC   D2A33844  43.076   8.873   8.505
 2510POPC   C3A33845  42.953   8.899   8.100
 2510POPC   C4A33846  43.201   8.798   7.737
 2510POPC   C1B33847  43.374   9.198   8.757
 2510POPC   C2B33848  43.456   9.234   8.329
 2510POPC   C3B33849  43.320   9.254   7.910
 2510POPC   C4B33850  43.306   9.297   7.443
 2511POPC   NC333851  25.078  11.343   9.510
 2511POPC   PO433852  25.715  11.455   9.458
 2511POPC   GL133853  25.416  11.543   9.148
 2511POPC   GL233854  25.278  11.226   9.047
 2511POPC   C1A33855  25.576  11.540   8.743
 2511POPC   D2A33856  25.392  11.664   8.343
 2511POPC   C3A33857  25.349  11.322   8.066
 2511POPC   C4A33858  25.382  11.123   7.653
 2511POPC   C1B33859  25.102  11.386   8.654
 2511POPC   C2B33860  24.881  11.484   8.263
 2511POPC   C3B33861  24.908  11.350   7.809
 2511POPC   C4B33862  24.932  11.198   7.377
 2512POPC   NC333863  32.082   8.162   9.706
 2512POPC   PO433864  32.497   7.747   9.442
 2512POPC   GL133865  32.360   8.129   9.189
 2512POPC   GL233866  32.044   8.257   9.199
 2512POPC   C1A33867  32.434   8.281   8.754
 2512POPC   D2A33868  32.372   8.107   8.332
 2512POPC   C3A33869  32.515   8.281   7.934
 2512POPC   C4A33870  32.285   8.582   7.726
 2512POPC   C1B33871  31.970   8.078   8.821
 2512POPC   C2B33872  31.884   8.299   8.466
 2512POPC   C3B33873  31.988   8.348   8.049
 2512POPC   C4B33874  31.994   8.050   7.713
 2513POPC   NC333875  10.362  17.671   9.634
 2513POPC   PO433876  10.694  17.091   9.626
 2513POPC   GL133877  10.463  17.342   9.256
 2513POPC   GL233878  10.494  17.714   9.123
 2513POPC   C1A33879  10.332  17.332   8.820
 2513POPC   D2A33880  10.394  17.533   8.418
 2513POPC   C3A33881  10.354  17.228   8.136
 2513POPC   C4A33882  10.357  17.152   7.738
 2513POPC   C1B33883  10.776  17.682   8.744
 2513POPC   C2B33884  10.964  17.484   8.367
 2513POPC   C3B33885  10.777  17.430   7.984
 2513POPC   C4B33886  10.398  17.648   7.853
 2514POPC   NC333887  38.373  11.071   9.515
 2514POPC   PO433888  38.186  11.697   9.656
 2514POPC   GL133889  38.270  11.540   9.228
 2514POPC   GL233890  38.079  11.275   9.138
 2514POPC   C1A33891  38.514  11.393   8.861
 2514POPC   D2A33892  38.708  11.571   8.500
 2514POPC   C3A33893  38.781  11.272   8.173
 2514POPC   C4A33894  38.529  11.424   7.841
 2514POPC   C1B33895  38.210  10.976   8.800
 2514POPC   C2B33896  38.340  11.033   8.364
 2514POPC   C3B33897  38.174  11.046   7.930
 2514POPC   C4B33898  38.196  11.182   7.489
 2515POPC   NC333899  15.782   6.943   9.463
 2515POPC   PO433900  15.802   6.289   9.689
 2515POPC   GL133901  15.997   6.427   9.301
 2515POPC   GL233902  16.294   6.653   9.332
 2515POPC   C1A33903  15.879   6.620   8.905
 2515POPC   D2A33904  15.726   6.559   8.506
 2515POPC   C3A33905  15.961   6.695   8.174
 2515POPC   C4A33906  15.874   6.483   7.778
 2515POPC   C1B33907  16.396   6.525   8.891
 2515POPC   C2B33908  16.418   6.638   8.429
 2515POPC   C3B33909  16.377   6.516   7.955
 2515POPC   C4B33910  16.303   6.543   7.469
 2516POPC   NC333911  21.999  25.764   9.566
 2516POPC   PO433912  22.647  26.066   9.491
 2516POPC   GL133913  22.291  26.039   9.244
 2516POPC   GL233914  21.995  26.271   9.350
 2516POPC   C1A33915  22.212  25.771   8.881
 2516POPC   D2A33916  22.090  25.884   8.462
 2516POPC   C3A33917  22.364  26.124   8.196
 2516POPC   C4A33918  22.326  25.938   7.808
 2516POPC   C1B33919  21.986  26.238   8.896
 2516POPC   C2B33920  21.894  26.372   8.461
 2516POPC   C3B33921  21.890  26.209   8.044
 2516POPC   C4B33922  21.797  26.026   7.673
 2517POPC   NC333923  17.263   8.756   9.480
 2517POPC   PO433924  17.574   9.365   9.525
 2517POPC   GL133925  17.583   9.071   9.222
 2517POPC   GL233926  17.781   8.761   9.233
 2517POPC   C1A33927  17.414   9.048   8.846
 2517POPC   D2A33928  17.527   8.910   8.473
 2517POPC   C3A33929  17.320   9.102   8.136
 2517POPC   C4A33930  17.438   9.040   7.735
 2517POPC   C1B33931  17.917   8.931   8.845
 2517POPC   C2B33932  18.063   8.943   8.440
 2517POPC   C3B33933  17.818   8.852   8.059
 2517POPC   C4B33934  17.900   8.857   7.627
 2518POPC   NC333935  25.395  34.223   9.546
 2518POPC   PO433936  24.853  34.631   9.481
 2518POPC   GL133937  25.128  34.577   9.122
 2518POPC   GL233938  25.511  34.589   9.187
 2518POPC   C1A33939  25.323  34.705   8.704
 2518POPC   D2A33940  25.498  34.941   8.333
 2518POPC   C3A33941  25.377  34.762   7.932
 2518POPC   C4A33942  25.071  34.540   7.723
 2518POPC   C1B33943  25.448  34.222   8.889
 2518POPC   C2B33944  25.305  34.067   8.489
 2518POPC   C3B33945  25.302  34.225   8.068
 2518POPC   C4B33946  25.565  34.297   7.735
 2519POPC   NC333947   7.661  39.757   9.346
 2519POPC   PO433948   7.199  40.151   9.655
 2519POPC   GL133949   7.312  40.114   9.195
 2519POPC   GL233950   7.337  39.787   8.968
 2519POPC   C1A33951   7.407  40.269   8.772
 2519POPC   D2A33952   7.550  40.132   8.376
 2519POPC   C3A33953   7.373  40.385   8.083
 2519POPC   C4A33954   7.299  40.217   7.677
 2519POPC   C1B33955   7.679  39.689   8.656
 2519POPC   C2B33956   7.836  39.713   8.216
 2519POPC   C3B33957   7.697  39.779   7.769
 2519POPC   C4B33958   7.484  39.796   7.360
 2520POPC   NC333959   2.293  42.484   9.750
 2520POPC   PO433960   2.861  42.476   9.331
 2520POPC   GL133961   2.673  42.449   8.982
 2520POPC   GL233962   2.530  42.121   8.981
 2520POPC   C1A33963   2.494  42.513   8.624
 2520POPC   D2A33964   2.694  42.310   8.299
 2520POPC   C3A33965   2.681  42.507   7.912
 2520POPC   C4A33966   2.449  42.299   7.604
 2520POPC   C1B33967   2.952  42.116   8.734
 2520POPC   C2B33968   3.188  42.138   8.348
 2520POPC   C3B33969   3.059  42.182   7.912
 2520POPC   C4B33970   3.042  42.107   7.432
 2521POPC   NC333971  12.957  13.507   9.538
 2521POPC   PO433972  12.889  14.203   9.511
 2521POPC   GL133973  12.952  13.867   9.163
 2521POPC   GL233974  12.729  13.527   9.101
 2521POPC   C1A33975  12.910  13.770   8.714
 2521POPC   D2A33976  12.784  13.491   8.373
 2521POPC   C3A33977  12.999  13.749   8.068
 2521POPC   C4A33978  12.994  14.013   7.709
 2521POPC   C1B33979  12.963  13.231   8.830
 2521POPC   C2B33980  13.040  13.032   8.435
 2521POPC   C3B33981  12.985  13.199   8.015
 2521POPC   C4B33982  13.051  13.458   7.661
 2522POPC   NC333983   7.492  40.584   9.606
 2522POPC   PO433984   6.900  40.677   9.392
 2522POPC   GL133985   7.276  40.638   9.127
 2522POPC   GL233986   7.501  40.904   9.189
 2522POPC   C1A33987   7.413  40.800   8.697
 2522POPC   D2A33988   7.594  41.071   8.390
 2522POPC   C3A33989   7.298  41.011   8.032
 2522POPC   C4A33990   7.302  40.724   7.698
 2522POPC   C1B33991   7.793  40.583   8.946
 2522POPC   C2B33992   7.829  40.574   8.476
 2522POPC   C3B33993   7.749  40.736   8.040
 2522POPC   C4B33994   7.746  41.139   7.829
 2523POPC   NC333995   6.240  27.876   9.422
 2523POPC   PO433996   5.700  27.490   9.439
 2523POPC   GL133997   5.844  27.704   9.127
 2523POPC   GL233998   6.161  27.493   9.101
 2523POPC   C1A33999   5.634  27.715   8.733
 2523POPC   D2A34000   5.774  27.595   8.326
 2523POPC   C3A34001   5.853  27.889   7.983
 2523POPC   C4A34002   5.931  27.705   7.579
 2523POPC   C1B34003   6.130  27.652   8.706
 2523POPC   C2B34004   6.275  27.518   8.343
 2523POPC   C3B34005   6.118  27.417   7.984
 2523POPC   C4B34006   6.311  27.127   7.742
 2524POPC   NC334007   3.346  39.641   9.480
 2524POPC   PO434008   4.010  39.487   9.323
 2524POPC   GL134009   3.844  39.147   9.140
 2524POPC   GL234010   3.512  39.256   9.149
 2524POPC   C1A34011   3.739  39.124   8.697
 2524POPC   D2A34012   3.417  39.088   8.377
 2524POPC   C3A34013   3.550  39.145   7.950
 2524POPC   C4A34014   3.833  39.128   7.597
 2524POPC   C1B34015   3.292  39.398   8.782
 2524POPC   C2B34016   3.364  39.611   8.377
 2524POPC   C3B34017   3.195  39.524   7.955
 2524POPC   C4B34018   3.331  39.391   7.517
 2525POPC   NC334019   5.267  11.281   9.724
 2525POPC   PO434020   4.807  11.728   9.620
 2525POPC   GL134021   4.992  11.453   9.270
 2525POPC   GL234022   5.341  11.589   9.291
 2525POPC   C1A34023   5.012  11.236   8.814
 2525POPC   D2A34024   5.181  10.941   8.472
 2525POPC   C3A34025   5.195  11.089   8.027
 2525POPC   C4A34026   4.907  11.249   7.704
 2525POPC   C1B34027   5.501  11.336   8.956
 2525POPC   C2B34028   5.595  11.311   8.526
 2525POPC   C3B34029   5.550  11.552   8.138
 2525POPC   C4B34030   5.368  11.503   7.745
 2526POPC   NC334031  11.669   2.168   9.730
 2526POPC   PO434032  11.156   1.767   9.717
 2526POPC   GL134033  11.186   1.795   9.184
 2526POPC   GL234034  10.981   1.563   8.997
 2526POPC   C1A34035  11.445   2.000   8.833
 2526POPC   D2A34036  11.415   2.273   8.459
 2526POPC   C3A34037  11.135   2.184   8.104
 2526POPC   C4A34038  11.276   2.201   7.681
 2526POPC   C1B34039  11.298   1.521   8.691
 2526POPC   C2B34040  11.418   1.758   8.371
 2526POPC   C3B34041  11.553   1.895   8.010
 2526POPC   C4B34042  11.270   1.695   7.757
 2527POPC   NC334043  44.953  29.288   9.562
 2527POPC   PO434044  44.390  29.100   9.361
 2527POPC   GL134045  44.665  29.113   9.057
 2527POPC   GL234046  44.904  28.899   9.209
 2527POPC   C1A34047  44.775  29.319   8.636
 2527POPC   D2A34048  44.632  29.509   8.232
 2527POPC   C3A34049  44.556  29.205   7.935
 2527POPC   C4A34050  44.412  29.209   7.536
 2527POPC   C1B34051   0.137  29.064   8.900
 2527POPC   C2B34052   0.166  28.978   8.495
 2527POPC   C3B34053  44.993  29.129   8.184
 2527POPC   C4B34054   0.014  29.046   7.773
 2528POPC   NC334055  31.314  26.893   9.662
 2528POPC   PO434056  31.872  26.581   9.591
 2528POPC   GL134057  31.635  26.777   9.273
 2528POPC   GL234058  31.277  26.668   9.204
 2528POPC   C1A34059  31.638  26.939   8.874
 2528POPC   D2A34060  31.722  26.700   8.526
 2528POPC   C3A34061  31.446  26.793   8.184
 2528POPC   C4A34062  31.423  27.180   7.974
 2528POPC   C1B34063  31.197  26.613   8.757
 2528POPC   C2B34064  30.953  26.493   8.392
 2528POPC   C3B34065  31.105  26.405   7.992
 2528POPC   C4B34066  31.437  26.526   7.740
 2529POPC   NC334067  31.790  21.713   9.737
 2529POPC   PO434068  31.166  21.734   9.451
 2529POPC   GL134069  31.427  21.525   9.170
 2529POPC   GL234070  31.756  21.445   9.084
 2529POPC   C1A34071  31.332  21.469   8.744
 2529POPC   D2A34072  31.493  21.411   8.363
 2529POPC   C3A34073  31.330  21.292   7.995
 2529POPC   C4A34074  31.421  21.515   7.615
 2529POPC   C1B34075  31.719  21.126   8.723
 2529POPC   C2B34076  31.908  21.146   8.288
 2529POPC   C3B34077  31.836  21.413   7.890
 2529POPC   C4B34078  31.893  21.518   7.412
 2530POPC   NC334079  28.392  28.582   9.878
 2530POPC   PO434080  28.399  29.088   9.529
 2530POPC   GL134081  28.366  28.862   9.160
 2530POPC   GL234082  28.624  28.614   9.091
 2530POPC   C1A34083  28.442  29.123   8.779
 2530POPC   D2A34084  28.177  29.140   8.432
 2530POPC   C3A34085  28.292  29.099   8.024
 2530POPC   C4A34086  27.998  29.131   7.701
 2530POPC   C1B34087  28.480  28.641   8.703
 2530POPC   C2B34088  28.520  28.757   8.339
 2530POPC   C3B34089  28.387  28.599   7.990
 2530POPC   C4B34090  28.369  28.777   7.615
 2531POPC   NC334091   4.259   0.991   9.631
 2531POPC   PO434092   4.442   0.319   9.697
 2531POPC   GL134093   4.380   0.483   9.269
 2531POPC   GL234094   4.666   0.351   9.109
 2531POPC   C1A34095   4.205   0.410   8.830
 2531POPC   D2A34096   4.228   0.190   8.408
 2531POPC   C3A34097   4.221   0.342   7.966
 2531POPC   C4A34098   3.953   0.344   7.575
 2531POPC   C1B34099   4.686   0.372   8.648
 2531POPC   C2B34100   4.692   0.316   8.195
 2531POPC   C3B34101   4.706   0.545   7.835
 2531POPC   C4B34102   4.434   0.544   7.538
 2532POPC   NC334103   3.320  18.215   9.670
 2532POPC   PO434104   3.855  17.804   9.485
 2532POPC   GL134105   3.483  17.898   9.144
 2532POPC   GL234106   3.312  18.217   9.168
 2532POPC   C1A34107   3.533  18.057   8.679
 2532POPC   D2A34108   3.580  17.977   8.227
 2532POPC   C3A34109   3.649  18.296   7.930
 2532POPC   C4A34110   4.062  18.236   7.827
 2532POPC   C1B34111   3.338  18.497   8.828
 2532POPC   C2B34112   3.429  18.502   8.385
 2532POPC   C3B34113   3.217  18.600   7.995
 2532POPC   C4B34114   3.352  18.561   7.557
 2533POPC   NC334115   1.827  22.802   9.604
 2533POPC   PO434116   1.151  22.801   9.629
 2533POPC   GL134117   1.317  22.967   9.263
 2533POPC   GL234118   1.415  22.703   9.067
 2533POPC   C1A34119   1.123  23.067   8.859
 2533POPC   D2A34120   1.305  22.945   8.459
 2533POPC   C3A34121   1.171  23.214   8.130
 2533POPC   C4A34122   1.198  23.062   7.732
 2533POPC   C1B34123   1.577  22.484   8.743
 2533POPC   C2B34124   1.432  22.422   8.331
 2533POPC   C3B34125   1.410  22.646   7.953
 2533POPC   C4B34126   1.652  22.804   7.627
 2534POPC   NC334127  24.113  32.526   9.395
 2534POPC   PO434128  24.491  32.033   9.638
 2534POPC   GL134129  24.514  32.231   9.235
 2534POPC   GL234130  24.485  31.921   9.092
 2534POPC   C1A34131  24.605  32.459   8.835
 2534POPC   D2A34132  24.907  32.479   8.485
 2534POPC   C3A34133  24.845  32.208   8.132
 2534POPC   C4A34134  24.730  32.319   7.686
 2534POPC   C1B34135  24.525  31.976   8.666
 2534POPC   C2B34136  24.408  32.299   8.396
 2534POPC   C3B34137  24.338  32.200   8.031
 2534POPC   C4B34138  24.286  32.051   7.672
 2535POPC   NC334139  32.575  42.486   9.323
 2535POPC   PO434140  32.067  42.623   9.783
 2535POPC   GL134141  32.041  42.472   9.306
 2535POPC   GL234142  32.168  42.179   9.152
 2535POPC   C1A34143  32.131  42.519   8.800
 2535POPC   D2A34144  32.478  42.518   8.488
 2535POPC   C3A34145  32.350  42.554   8.056
 2535POPC   C4A34146  32.435  42.402   7.634
 2535POPC   C1B34147  32.409  42.069   8.806
 2535POPC   C2B34148  32.281  42.005   8.401
 2535POPC   C3B34149  32.005  42.116   8.065
 2535POPC   C4B34150  31.900  42.390   7.733
 2536POPC   NC334151  29.422  35.158   9.407
 2536POPC   PO434152  28.918  35.539   9.538
 2536POPC   GL134153  29.098  35.513   9.157
 2536POPC   GL234154  28.988  35.166   9.116
 2536POPC   C1A34155  29.087  35.531   8.716
 2536POPC   D2A34156  29.408  35.436   8.411
 2536POPC   C3A34157  29.114  35.553   8.124
 2536POPC   C4A34158  29.054  35.590   7.717
 2536POPC   C1B34159  29.260  35.059   8.765
 2536POPC   C2B34160  29.072  35.044   8.343
 2536POPC   C3B34161  29.156  35.115   7.906
 2536POPC   C4B34162  28.967  35.108   7.519
 2537POPC   NC334163  12.710  44.372   9.551
 2537POPC   PO434164  13.071  44.838   9.462
 2537POPC   GL134165  12.773  44.674   9.147
 2537POPC   GL234166  12.758  44.306   9.066
 2537POPC   C1A34167  12.674  44.713   8.725
 2537POPC   D2A34168  12.981  44.864   8.455
 2537POPC   C3A34169  12.903  44.719   8.091
 2537POPC   C4A34170  13.090  44.707   7.739
 2537POPC   C1B34171  13.005  44.277   8.714
 2537POPC   C2B34172  12.837  44.223   8.339
 2537POPC   C3B34173  12.578  44.350   8.021
 2537POPC   C4B34174  12.803  44.222   7.718
 2538POPC   NC334175   3.085  37.973   9.477
 2538POPC   PO434176   2.588  37.536   9.267
 2538POPC   GL134177   2.927  37.684   9.079
 2538POPC   GL234178   2.796  37.989   9.047
 2538POPC   C1A34179   3.076  37.805   8.685
 2538POPC   D2A34180   2.835  37.544   8.450
 2538POPC   C3A34181   2.912  37.515   8.046
 2538POPC   C4A34182   3.090  37.867   7.828
 2538POPC   C1B34183   2.533  37.940   8.691
 2538POPC   C2B34184   2.409  37.777   8.297
 2538POPC   C3B34185   2.570  37.871   7.891
 2538POPC   C4B34186   2.693  37.583   7.600
 2539POPC   NC334187  38.226  38.671   9.370
 2539POPC   PO434188  38.680  38.958   9.812
 2539POPC   GL134189  38.602  39.044   9.349
 2539POPC   GL234190  38.259  39.178   9.259
 2539POPC   C1A34191  38.628  39.199   8.899
 2539POPC   D2A34192  38.431  39.299   8.480
 2539POPC   C3A34193  38.672  39.405   8.098
 2539POPC   C4A34194  38.752  39.124   7.772
 2539POPC   C1B34195  38.091  39.075   8.840
 2539POPC   C2B34196  37.881  39.118   8.445
 2539POPC   C3B34197  37.878  39.084   8.015
 2539POPC   C4B34198  38.185  39.179   7.713
 2540POPC   NC334199  31.157  13.552   9.654
 2540POPC   PO434200  31.446  14.120   9.564
 2540POPC   GL134201  31.399  13.807   9.268
 2540POPC   GL234202  31.734  13.770   9.227
 2540POPC   C1A34203  31.449  13.835   8.817
 2540POPC   D2A34204  31.518  13.624   8.437
 2540POPC   C3A34205  31.410  13.870   8.113
 2540POPC   C4A34206  31.369  13.712   7.750
 2540POPC   C1B34207  31.900  13.561   8.818
 2540POPC   C2B34208  32.002  13.412   8.377
 2540POPC   C3B34209  31.803  13.544   7.975
 2540POPC   C4B34210  31.684  13.367   7.544
 2541POPC   NC334211   2.963  36.538   9.550
 2541POPC   PO434212   2.688  37.151   9.635
 2541POPC   GL134213   2.597  37.018   9.186
 2541POPC   GL234214   2.575  36.687   9.238
 2541POPC   C1A34215   2.491  37.126   8.747
 2541POPC   D2A34216   2.506  37.192   8.307
 2541POPC   C3A34217   2.770  37.011   8.039
 2541POPC   C4A34218   2.956  37.129   7.670
 2541POPC   C1B34219   2.786  36.705   8.827
 2541POPC   C2B34220   2.589  36.684   8.411
 2541POPC   C3B34221   2.704  36.509   7.995
 2541POPC   C4B34222   2.984  36.491   7.644
 2542POPC   NC334223  23.855  18.944   9.300
 2542POPC   PO434224  23.432  19.475   9.520
 2542POPC   GL134225  23.569  19.288   9.059
 2542POPC   GL234226  23.957  19.168   8.892
 2542POPC   C1A34227  23.622  19.328   8.595
 2542POPC   D2A34228  23.737  18.912   8.406
 2542POPC   C3A34229  23.535  18.906   8.007
 2542POPC   C4A34230  23.609  19.213   7.697
 2542POPC   C1B34231  24.273  18.864   8.730
 2542POPC   C2B34232  24.251  18.655   8.326
 2542POPC   C3B34233  23.923  18.571   8.027
 2542POPC   C4B34234  23.883  18.752   7.605
 2543POPC   NC334235   3.704  14.582   9.691
 2543POPC   PO434236   3.298  14.123   9.645
 2543POPC   GL134237   3.590  14.231   9.288
 2543POPC   GL234238   3.560  14.576   9.198
 2543POPC   C1A34239   3.583  14.225   8.797
 2543POPC   D2A34240   3.334  14.343   8.380
 2543POPC   C3A34241   3.399  14.251   7.938
 2543POPC   C4A34242   3.274  14.361   7.519
 2543POPC   C1B34243   3.856  14.655   8.882
 2543POPC   C2B34244   3.776  14.624   8.434
 2543POPC   C3B34245   3.906  14.383   8.063
 2543POPC   C4B34246   3.784  14.497   7.653
 2544POPC   NC334247  31.175   9.538   9.344
 2544POPC   PO434248  31.547  10.003   9.672
 2544POPC   GL134249  31.578   9.832   9.238
 2544POPC   GL234250  31.632   9.461   9.126
 2544POPC   C1A34251  31.414   9.793   8.804
 2544POPC   D2A34252  31.552  10.014   8.452
 2544POPC   C3A34253  31.479   9.769   8.099
 2544POPC   C4A34254  31.460   9.910   7.688
 2544POPC   C1B34255  31.371   9.264   8.756
 2544POPC   C2B34256  31.228   9.111   8.344
 2544POPC   C3B34257  31.039   9.331   7.997
 2544POPC   C4B34258  31.228   9.475   7.594
 2545POPC   NC334259   6.012  15.037   9.480
 2545POPC   PO434260   5.549  15.486   9.699
 2545POPC   GL134261   5.605  15.255   9.217
 2545POPC   GL234262   5.930  15.165   8.998
 2545POPC   C1A34263   5.536  15.186   8.724
 2545POPC   D2A34264   5.688  15.320   8.309
 2545POPC   C3A34265   5.730  15.077   7.932
 2545POPC   C4A34266   6.140  14.928   7.744
 2545POPC   C1B34267   5.925  15.536   8.720
 2545POPC   C2B34268   6.128  15.626   8.331
 2545POPC   C3B34269   5.959  15.558   7.916
 2545POPC   C4B34270   6.116  15.389   7.529
 2546POPC   NC334271  20.685  10.434   9.510
 2546POPC   PO434272  20.551  11.047   9.555
 2546POPC   GL134273  20.469  10.773   9.163
 2546POPC   GL234274  20.450  10.385   9.047
 2546POPC   C1A34275  20.742  10.665   8.774
 2546POPC   D2A34276  20.940  10.379   8.499
 2546POPC   C3A34277  20.886  10.537   8.108
 2546POPC   C4A34278  20.561  10.584   7.855
 2546POPC   C1B34279  20.293  10.212   8.631
 2546POPC   C2B34280  20.238  10.282   8.163
 2546POPC   C3B34281  20.413  10.116   7.768
 2546POPC   C4B34282  20.783  10.217   7.508
 2547POPC   NC334283  41.238  37.200   9.327
 2547POPC   PO434284  41.514  36.603   9.555
 2547POPC   GL134285  41.422  36.751   9.156
 2547POPC   GL234286  41.044  36.734   9.175
 2547POPC   C1A34287  41.600  36.886   8.753
 2547POPC   D2A34288  41.478  36.711   8.351
 2547POPC   C3A34289  41.743  36.912   8.007
 2547POPC   C4A34290  41.942  36.830   7.600
 2547POPC   C1B34291  41.089  36.924   8.745
 2547POPC   C2B34292  41.251  37.200   8.405
 2547POPC   C3B34293  41.250  36.995   8.004
 2547POPC   C4B34294  41.145  36.564   7.961
 2548POPC   NC334295  26.334  39.526   9.432
 2548POPC   PO434296  25.946  38.859   9.444
 2548POPC   GL134297  26.148  39.094   9.151
 2548POPC   GL234298  26.024  38.899   8.858
 2548POPC   C1A34299  26.092  39.396   8.827
 2548POPC   D2A34300  25.993  39.252   8.435
 2548POPC   C3A34301  26.077  39.550   8.151
 2548POPC   C4A34302  26.033  39.621   7.736
 2548POPC   C1B34303  26.400  39.021   8.661
 2548POPC   C2B34304  26.476  39.086   8.249
 2548POPC   C3B34305  26.140  39.079   7.967
 2548POPC   C4B34306  26.389  39.250   7.693
 2549POPC   NC334307  20.857  11.419   9.527
 2549POPC   PO434308  20.601  12.040   9.668
 2549POPC   GL134309  20.516  11.714   9.267
 2549POPC   GL234310  20.675  11.432   9.054
 2549POPC   C1A34311  20.453  11.801   8.793
 2549POPC   D2A34312  20.565  11.505   8.447
 2549POPC   C3A34313  20.679  11.641   8.016
 2549POPC   C4A34314  20.465  11.559   7.647
 2549POPC   C1B34315  20.481  11.096   8.766
 2549POPC   C2B34316  20.482  10.910   8.334
 2549POPC   C3B34317  20.550  11.091   7.912
 2549POPC   C4B34318  20.475  11.005   7.478
 2550POPC   NC334319  29.390  43.530   9.338
 2550POPC   PO434320  29.435  44.058   9.768
 2550POPC   GL134321  29.418  44.051   9.281
 2550POPC   GL234322  29.076  43.895   9.202
 2550POPC   C1A34323  29.418  43.973   8.798
 2550POPC   D2A34324  29.305  43.787   8.385
 2550POPC   C3A34325  29.487  43.745   7.966
 2550POPC   C4A34326  29.253  43.866   7.599
 2550POPC   C1B34327  28.945  43.772   8.779
 2550POPC   C2B34328  28.922  43.462   8.436
 2550POPC   C3B34329  28.982  43.630   8.009
 2550POPC   C4B34330  28.749  43.842   7.677
 2551POPC   NC334331  41.019  20.507   9.395
 2551POPC   PO434332  41.722  20.526   9.580
 2551POPC   GL134333  41.712  20.797   9.202
 2551POPC   GL234334  41.361  20.888   9.176
 2551POPC   C1A34335  41.838  20.934   8.746
 2551POPC   D2A34336  41.840  20.822   8.254
 2551POPC   C3A34337  41.842  20.428   8.040
 2551POPC   C4A34338  41.694  20.302   7.628
 2551POPC   C1B34339  41.449  20.594   8.820
 2551POPC   C2B34340  41.345  20.612   8.379
 2551POPC   C3B34341  41.312  20.535   7.940
 2551POPC   C4B34342  40.911  20.417   7.778
 2552POPC   NC334343  35.963  41.577   9.525
 2552POPC   PO434344  36.428  41.009   9.407
 2552POPC   GL134345  36.155  41.201   9.084
 2552POPC   GL234346  36.019  41.545   9.040
 2552POPC   C1A34347  36.208  41.311   8.642
 2552POPC   D2A34348  35.985  41.340   8.292
 2552POPC   C3A34349  36.253  41.428   7.949
 2552POPC   C4A34350  36.211  41.591   7.524
 2552POPC   C1B34351  35.919  41.784   8.673
 2552POPC   C2B34352  36.027  41.871   8.238
 2552POPC   C3B34353  35.848  41.735   7.844
 2552POPC   C4B34354  35.836  41.931   7.408
 2553POPC   NC334355  26.769  38.120   9.497
 2553POPC   PO434356  27.290  37.774   9.720
 2553POPC   GL134357  27.052  37.739   9.198
 2553POPC   GL234358  26.829  37.418   9.075
 2553POPC   C1A34359  27.097  37.668   8.735
 2553POPC   D2A34360  26.878  37.783   8.364
 2553POPC   C3A34361  27.047  37.640   7.973
 2553POPC   C4A34362  26.886  37.841   7.609
 2553POPC   C1B34363  26.800  37.216   8.659
 2553POPC   C2B34364  26.782  37.285   8.228
 2553POPC   C3B34365  26.567  37.515   7.851
 2553POPC   C4B34366  26.673  37.417   7.377
 2554POPC   NC334367  39.057   3.190   9.514
 2554POPC   PO434368  39.038   3.876   9.679
 2554POPC   GL134369  39.288   3.748   9.276
 2554POPC   GL234370  39.255   3.415   9.108
 2554POPC   C1A34371  39.232   3.810   8.809
 2554POPC   D2A34372  39.072   3.641   8.420
 2554POPC   C3A34373  39.220   3.805   8.031
 2554POPC   C4A34374  39.308   3.744   7.587
 2554POPC   C1B34375  39.128   3.222   8.704
 2554POPC   C2B34376  39.141   3.190   8.217
 2554POPC   C3B34377  39.382   3.327   7.838
 2554POPC   C4B34378  39.136   3.296   7.394
 2555POPC   NC334379   1.770  27.289   9.539
 2555POPC   PO434380   2.381  27.638   9.556
 2555POPC   GL134381   2.043  27.620   9.238
 2555POPC   GL234382   1.840  27.964   9.239
 2555POPC   C1A34383   1.920  27.297   8.889
 2555POPC   D2A34384   2.005  27.466   8.479
 2555POPC   C3A34385   1.950  27.266   8.087
 2555POPC   C4A34386   1.841  27.491   7.712
 2555POPC   C1B34387   1.690  27.751   8.886
 2555POPC   C2B34388   1.617  27.822   8.488
 2555POPC   C3B34389   1.695  27.734   8.120
 2555POPC   C4B34390   1.660  27.984   7.789
 2556POPC   NC334391  25.008  30.860   9.504
 2556POPC   PO434392  25.613  30.497   9.568
 2556POPC   GL134393  25.429  30.736   9.180
 2556POPC   GL234394  25.076  30.624   9.077
 2556POPC   C1A34395  25.434  30.569   8.725
 2556POPC   D2A34396  25.622  30.439   8.331
 2556POPC   C3A34397  25.452  30.632   7.949
 2556POPC   C4A34398  25.332  30.903   7.576
 2556POPC   C1B34399  24.966  30.394   8.721
 2556POPC   C2B34400  25.115  30.458   8.308
 2556POPC   C3B34401  25.043  30.297   7.909
 2556POPC   C4B34402  24.960  30.387   7.473
 2557POPC   NC334403   2.004  18.546   9.716
 2557POPC   PO434404   1.671  18.059   9.251
 2557POPC   GL134405   2.016  18.040   8.973
 2557POPC   GL234406   2.049  18.340   8.769
 2557POPC   C1A34407   2.066  17.856   8.571
 2557POPC   D2A34408   2.357  17.999   8.246
 2557POPC   C3A34409   2.146  18.226   7.904
 2557POPC   C4A34410   2.137  18.042   7.485
 2557POPC   C1B34411   1.724  18.313   8.511
 2557POPC   C2B34412   1.924  18.613   8.252
 2557POPC   C3B34413   1.802  18.652   7.868
 2557POPC   C4B34414   1.667  18.275   7.654
 2558POPC   NC334415  44.682  32.662   9.327
 2558POPC   PO434416  44.392  32.091   9.517
 2558POPC   GL134417  44.400  32.269   9.110
 2558POPC   GL234418  44.648  32.420   8.872
 2558POPC   C1A34419  44.333  32.052   8.735
 2558POPC   D2A34420  44.571  32.122   8.367
 2558POPC   C3A34421  44.401  32.366   8.031
 2558POPC   C4A34422  44.528  32.439   7.591
 2558POPC   C1B34423   0.021  32.279   8.637
 2558POPC   C2B34424   0.076  32.113   8.265
 2558POPC   C3B34425  44.905  32.357   7.939
 2558POPC   C4B34426   0.053  32.496   7.551
 2559POPC   NC334427  37.291  32.681   9.368
 2559POPC   PO434428  36.872  33.198   9.502
 2559POPC   GL134429  36.981  33.025   9.145
 2559POPC   GL234430  36.805  32.726   9.213
 2559POPC   C1A34431  36.836  33.141   8.760
 2559POPC   D2A34432  36.641  33.323   8.421
 2559POPC   C3A34433  36.841  33.244   8.004
 2559POPC   C4A34434  37.059  33.056   7.649
 2559POPC   C1B34435  36.542  32.618   8.880
 2559POPC   C2B34436  36.519  32.816   8.489
 2559POPC   C3B34437  36.681  32.753   8.100
 2559POPC   C4B34438  36.588  32.891   7.717
 2560POPC   NC334439  35.385   6.195   9.690
 2560POPC   PO434440  35.016   6.614   9.360
 2560POPC   GL134441  35.333   6.548   9.070
 2560POPC   GL234442  35.080   6.412   8.857
 2560POPC   C1A34443  35.531   6.499   8.626
 2560POPC   D2A34444  35.403   6.205   8.270
 2560POPC   C3A34445  35.290   6.442   7.929
 2560POPC   C4A34446  35.518   6.853   7.792
 2560POPC   C1B34447  35.124   6.835   8.710
 2560POPC   C2B34448  34.942   6.959   8.367
 2560POPC   C3B34449  35.088   6.881   8.045
 2560POPC   C4B34450  35.055   6.999   7.653
 2561POPC   NC334451  33.202  35.761   9.559
 2561POPC   PO434452  33.095  35.084   9.596
 2561POPC   GL134453  33.269  35.054   9.199
 2561POPC   GL234454  33.378  35.399   9.161
 2561POPC   C1A34455  33.312  35.098   8.731
 2561POPC   D2A34456  33.288  35.491   8.484
 2561POPC   C3A34457  33.348  35.429   8.043
 2561POPC   C4A34458  33.399  35.005   7.814
 2561POPC   C1B34459  32.974  35.437   8.912
 2561POPC   C2B34460  32.798  35.324   8.499
 2561POPC   C3B34461  32.873  35.232   8.075
 2561POPC   C4B34462  32.796  35.533   7.752
 2562POPC   NC334463  27.543   9.431   9.366
 2562POPC   PO434464  27.962   9.975   9.359
 2562POPC   GL134465  27.774   9.797   9.033
 2562POPC   GL234466  27.887   9.464   8.984
 2562POPC   C1A34467  27.868   9.808   8.596
 2562POPC   D2A34468  27.543   9.706   8.329
 2562POPC   C3A34469  27.457   9.969   7.993
 2562POPC   C4A34470  27.139  10.037   7.714
 2562POPC   C1B34471  27.806   9.255   8.615
 2562POPC   C2B34472  27.872   9.334   8.179
 2562POPC   C3B34473  27.562   9.476   7.868
 2562POPC   C4B34474  27.697   9.355   7.483
 2563POPC   NC334475  38.900  41.111   9.916
 2563POPC   PO434476  39.283  40.611   9.532
 2563POPC   GL134477  39.295  40.767   9.135
 2563POPC   GL234478  39.273  40.481   8.941
 2563POPC   C1A34479  39.035  40.909   8.766
 2563POPC   D2A34480  39.164  40.879   8.342
 2563POPC   C3A34481  39.010  40.547   8.124
 2563POPC   C4A34482  38.826  40.328   7.794
 2563POPC   C1B34483  39.541  40.700   8.672
 2563POPC   C2B34484  39.527  40.529   8.277
 2563POPC   C3B34485  39.437  40.663   7.878
 2563POPC   C4B34486  39.399  40.351   7.582
 2564POPC   NC334487  14.363  18.647   9.369
 2564POPC   PO434488  14.117  18.097   9.568
 2564POPC   GL134489  14.228  18.225   9.099
 2564POPC   GL234490  14.146  18.605   8.932
 2564POPC   C1A34491  14.536  18.039   8.793
 2564POPC   D2A34492  14.801  18.199   8.447
 2564POPC   C3A34493  14.668  18.053   8.076
 2564POPC   C4A34494  14.325  18.154   7.804
 2564POPC   C1B34495  14.423  18.510   8.605
 2564POPC   C2B34496  14.411  18.529   8.153
 2564POPC   C3B34497  14.118  18.628   7.804
 2564POPC   C4B34498  13.984  18.603   7.313
 2565POPC   NC334499  25.873  11.920   9.428
 2565POPC   PO434500  25.218  12.267   9.471
 2565POPC   GL134501  25.427  12.062   9.142
 2565POPC   GL234502  25.604  12.328   9.020
 2565POPC   C1A34503  25.231  11.916   8.757
 2565POPC   D2A34504  25.018  12.049   8.369
 2565POPC   C3A34505  25.120  11.860   7.962
 2565POPC   C4A34506  25.544  11.733   7.841
 2565POPC   C1B34507  25.193  12.425   8.816
 2565POPC   C2B34508  25.066  12.591   8.418
 2565POPC   C3B34509  25.114  12.407   8.013
 2565POPC   C4B34510  25.491  12.251   7.799
 2566POPC   NC334511  29.459  24.350   9.401
 2566POPC   PO434512  28.861  24.181   9.472
 2566POPC   GL134513  29.044  24.368   9.107
 2566POPC   GL234514  29.034  24.707   9.170
 2566POPC   C1A34515  29.362  24.502   8.781
 2566POPC   D2A34516  29.185  24.482   8.380
 2566POPC   C3A34517  29.407  24.417   8.004
 2566POPC   C4A34518  29.303  24.093   7.738
 2566POPC   C1B34519  28.874  24.706   8.755
 2566POPC   C2B34520  28.909  24.921   8.389
 2566POPC   C3B34521  29.226  24.920   8.098
 2566POPC   C4B34522  29.116  24.797   7.729
 2567POPC   NC334523  38.267  25.972   9.611
 2567POPC   PO434524  38.692  25.415   9.568
 2567POPC   GL134525  38.621  25.805   9.233
 2567POPC   GL234526  38.416  26.134   9.164
 2567POPC   C1A34527  38.579  25.921   8.748
 2567POPC   D2A34528  38.734  25.942   8.323
 2567POPC   C3A34529  38.469  25.711   7.979
 2567POPC   C4A34530  38.322  25.712   7.514
 2567POPC   C1B34531  38.171  26.403   8.853
 2567POPC   C2B34532  38.231  26.481   8.425
 2567POPC   C3B34533  38.345  26.200   8.097
 2567POPC   C4B34534  38.178  26.157   7.705
 2568POPC   NC334535  42.698  42.448   9.779
 2568POPC   PO434536  42.273  42.013   9.510
 2568POPC   GL134537  42.373  42.299   9.074
 2568POPC   GL234538  42.753  42.342   8.940
 2568POPC   C1A34539  42.406  42.323   8.589
 2568POPC   D2A34540  42.495  42.651   8.261
 2568POPC   C3A34541  42.163  42.614   7.947
 2568POPC   C4A34542  42.020  42.297   7.644
 2568POPC   C1B34543  42.728  41.923   8.705
 2568POPC   C2B34544  42.662  41.689   8.325
 2568POPC   C3B34545  42.372  41.861   8.061
 2568POPC   C4B34546  42.437  42.020   7.639
 2569POPC   NC334547  29.337  41.364   9.500
 2569POPC   PO434548  28.683  41.502   9.421
 2569POPC   GL134549  28.897  41.695   9.075
 2569POPC   GL234550  29.272  41.645   9.065
 2569POPC   C1A34551  28.880  41.452   8.707
 2569POPC   D2A34552  29.067  41.193   8.400
 2569POPC   C3A34553  28.874  41.318   8.053
 2569POPC   C4A34554  28.914  41.642   7.754
 2569POPC   C1B34555  29.360  41.578   8.630
 2569POPC   C2B34556  29.214  41.687   8.278
 2569POPC   C3B34557  29.355  41.495   7.974
 2569POPC   C4B34558  29.436  41.651   7.604
 2570POPC   NC334559   2.869   3.739   9.560
 2570POPC   PO434560   2.470   3.195   9.349
 2570POPC   GL134561   2.868   3.400   9.159
 2570POPC   GL234562   2.696   3.717   9.086
 2570POPC   C1A34563   2.993   3.523   8.705
 2570POPC   D2A34564   2.725   3.325   8.351
 2570POPC   C3A34565   2.661   3.438   7.906
 2570POPC   C4A34566   2.502   3.207   7.538
 2570POPC   C1B34567   2.513   3.718   8.684
 2570POPC   C2B34568   2.687   3.844   8.299
 2570POPC   C3B34569   3.077   3.693   8.160
 2570POPC   C4B34570   3.128   3.552   7.749
 2571POPC   NC334571  16.507  33.230   9.479
 2571POPC   PO434572  17.066  32.947   9.434
 2571POPC   GL134573  16.896  33.243   9.111
 2571POPC   GL234574  16.562  33.098   8.997
 2571POPC   C1A34575  16.857  33.318   8.656
 2571POPC   D2A34576  16.510  33.138   8.366
 2571POPC   C3A34577  16.646  33.196   7.952
 2571POPC   C4A34578  16.826  33.059   7.567
 2571POPC   C1B34579  16.559  32.749   8.717
 2571POPC   C2B34580  16.556  32.602   8.298
 2571POPC   C3B34581  16.682  32.675   7.902
 2571POPC   C4B34582  16.355  32.853   7.683
 2572POPC   NC334583  43.578  33.989   9.465
 2572POPC   PO434584  42.968  34.045   9.464
 2572POPC   GL134585  42.980  33.748   9.157
 2572POPC   GL234586  43.306  33.622   9.142
 2572POPC   C1A34587  42.962  33.847   8.727
 2572POPC   D2A34588  42.889  34.013   8.303
 2572POPC   C3A34589  43.076  33.746   7.994
 2572POPC   C4A34590  42.992  33.603   7.593
 2572POPC   C1B34591  43.482  33.848   8.816
 2572POPC   C2B34592  43.385  33.869   8.402
 2572POPC   C3B34593  43.597  33.820   8.022
 2572POPC   C4B34594  43.472  33.842   7.632
 2573POPC   NC334595   8.709  41.528   9.514
 2573POPC   PO434596   9.329  41.600   9.493
 2573POPC   GL134597   9.118  41.611   9.121
 2573POPC   GL234598   8.955  41.300   9.112
 2573POPC   C1A34599   9.195  41.469   8.697
 2573POPC   D2A34600   9.272  41.356   8.292
 2573POPC   C3A34601   8.992  41.586   8.078
 2573POPC   C4A34602   9.033  41.720   7.674
 2573POPC   C1B34603   8.704  41.340   8.736
 2573POPC   C2B34604   8.558  41.481   8.333
 2573POPC   C3B34605   8.534  41.289   7.957
 2573POPC   C4B34606   8.895  41.229   7.719
 2574POPC   NC334607  29.873   1.956   9.827
 2574POPC   PO434608  29.740   1.688   9.283
 2574POPC   GL134609  29.983   1.821   8.943
 2574POPC   GL234610  29.916   2.144   9.102
 2574POPC   C1A34611  30.018   1.933   8.528
 2574POPC   D2A34612  30.018   2.260   8.256
 2574POPC   C3A34613  30.060   2.131   7.840
 2574POPC   C4A34614  30.082   1.796   7.544
 2574POPC   C1B34615  29.567   2.059   8.797
 2574POPC   C2B34616  29.516   1.851   8.437
 2574POPC   C3B34617  29.643   1.899   8.037
 2574POPC   C4B34618  29.593   2.045   7.632
 2575POPC   NC334619  43.134  17.203   9.488
 2575POPC   PO434620  42.854  17.801   9.381
 2575POPC   GL134621  43.123  17.567   9.083
 2575POPC   GL234622  42.986  17.266   9.018
 2575POPC   C1A34623  43.275  17.536   8.653
 2575POPC   D2A34624  43.103  17.298   8.312
 2575POPC   C3A34625  43.221  17.476   7.908
 2575POPC   C4A34626  43.418  17.864   7.752
 2575POPC   C1B34627  42.761  17.466   8.716
 2575POPC   C2B34628  42.557  17.414   8.349
 2575POPC   C3B34629  42.678  17.287   7.975
 2575POPC   C4B34630  42.859  17.271   7.594
 2576POPC   NC334631  11.474  32.197   9.349
 2576POPC   PO434632  10.975  32.534   9.707
 2576POPC   GL134633  11.149  32.496   9.138
 2576POPC   GL234634  11.070  32.098   9.033
 2576POPC   C1A34635  11.359  32.277   8.691
 2576POPC   D2A34636  11.266  31.983   8.346
 2576POPC   C3A34637  11.602  32.099   8.093
 2576POPC   C4A34638  11.678  32.332   7.728
 2576POPC   C1B34639  10.871  32.247   8.619
 2576POPC   C2B34640  10.766  32.525   8.303
 2576POPC   C3B34641  10.988  32.467   7.912
 2576POPC   C4B34642  11.208  32.104   7.767
 2577POPC   NC334643  17.199  27.668   9.453
 2577POPC   PO434644  17.921  27.554   9.372
 2577POPC   GL134645  17.597  27.810   9.143
 2577POPC   GL234646  17.680  28.183   9.130
 2577POPC   C1A34647  17.315  27.637   8.807
 2577POPC   D2A34648  17.243  27.248   8.569
 2577POPC   C3A34649  17.342  27.317   8.124
 2577POPC   C4A34650  17.277  27.743   7.932
 2577POPC   C1B34651  17.858  27.981   8.742
 2577POPC   C2B34652  17.626  27.780   8.409
 2577POPC   C3B34653  17.746  27.613   8.051
 2577POPC   C4B34654  17.812  27.448   7.698
 2578POPC   NC334655  10.810  33.653   9.547
 2578POPC   PO434656  10.456  34.246   9.452
 2578POPC   GL134657  10.514  33.985   9.111
 2578POPC   GL234658  10.474  33.627   9.161
 2578POPC   C1A34659  10.405  33.949   8.675
 2578POPC   D2A34660  10.639  33.875   8.283
 2578POPC   C3A34661  10.407  33.781   7.859
 2578POPC   C4A34662  10.147  33.904   7.478
 2578POPC   C1B34663  10.573  33.476   8.759
 2578POPC   C2B34664  10.311  33.447   8.396
 2578POPC   C3B34665  10.354  33.281   8.009
 2578POPC   C4B34666  10.738  33.337   7.785
 2579POPC   NC334667  17.104  34.029   9.415
 2579POPC   PO434668  17.700  33.889   9.355
 2579POPC   GL134669  17.379  33.752   9.101
 2579POPC   GL234670  17.549  33.455   9.068
 2579POPC   C1A34671  17.312  34.012   8.730
 2579POPC   D2A34672  17.595  34.171   8.401
 2579POPC   C3A34673  17.577  33.855   8.118
 2579POPC   C4A34674  17.349  33.829   7.744
 2579POPC   C1B34675  17.462  33.529   8.652
 2579POPC   C2B34676  17.300  33.316   8.345
 2579POPC   C3B34677  17.534  33.327   8.008
 2579POPC   C4B34678  17.802  33.560   7.757
 2580POPC   NC334679  11.856  31.389   9.492
 2580POPC   PO434680  12.463  31.754   9.432
 2580POPC   GL134681  12.271  31.411   9.178
 2580POPC   GL234682  11.916  31.385   9.008
 2580POPC   C1A34683  12.341  31.257   8.767
 2580POPC   D2A34684  12.236  31.471   8.413
 2580POPC   C3A34685  12.383  31.314   8.040
 2580POPC   C4A34686  12.264  31.514   7.674
 2580POPC   C1B34687  11.770  31.348   8.619
 2580POPC   C2B34688  11.754  31.650   8.320
 2580POPC   C3B34689  11.889  31.443   7.985
 2580POPC   C4B34690  11.724  31.400   7.564
 2581POPC   NC334691   0.712  42.488   9.663
 2581POPC   PO434692   0.139  42.031   9.464
 2581POPC   GL134693   0.220  42.349   9.136
 2581POPC   GL234694   0.555  42.514   9.173
 2581POPC   C1A34695   0.441  42.218   8.746
 2581POPC   D2A34696   0.693  42.284   8.381
 2581POPC   C3A34697   0.364  42.489   8.132
 2581POPC   C4A34698   0.158  42.310   7.744
 2581POPC   C1B34699   0.836  42.568   8.854
 2581POPC   C2B34700   0.949  42.726   8.456
 2581POPC   C3B34701   0.916  42.663   8.006
 2581POPC   C4B34702   0.593  42.559   7.700
 2582POPC   NC334703  10.678  21.035   9.724
 2582POPC   PO434704  10.471  20.354   9.819
 2582POPC   GL134705  10.453  20.639   9.395
 2582POPC   GL234706  10.187  20.502   9.211
 2582POPC   C1A34707  10.634  20.580   8.909
 2582POPC   D2A34708  10.790  20.730   8.471
 2582POPC   C3A34709  10.743  20.530   8.050
 2582POPC   C4A34710  10.531  20.636   7.658
 2582POPC   C1B34711  10.192  20.321   8.797
 2582POPC   C2B34712  10.433  20.246   8.392
 2582POPC   C3B34713  10.262  20.284   7.964
 2582POPC   C4B34714  10.169  20.302   7.527
 2583POPC   NC334715  42.808  25.839   9.252
 2583POPC   PO434716  43.244  26.220   9.599
 2583POPC   GL134717  43.294  26.142   9.115
 2583POPC   GL234718  43.140  25.864   8.882
 2583POPC   C1A34719  43.341  26.257   8.649
 2583POPC   D2A34720  43.165  25.944   8.342
 2583POPC   C3A34721  43.351  25.877   7.945
 2583POPC   C4A34722  43.352  26.153   7.573
 2583POPC   C1B34723  42.834  26.180   8.664
 2583POPC   C2B34724  42.942  26.479   8.329
 2583POPC   C3B34725  43.004  26.285   7.949
 2583POPC   C4B34726  42.819  25.886   7.919
 2584POPC   NC334727  26.316  18.158   9.437
 2584POPC   PO434728  26.897  18.073   9.776
 2584POPC   GL134729  26.914  18.197   9.271
 2584POPC   GL234730  26.627  18.274   9.059
 2584POPC   C1A34731  27.062  18.391   8.847
 2584POPC   D2A34732  26.942  18.282   8.413
 2584POPC   C3A34733  27.001  18.461   7.996
 2584POPC   C4A34734  26.800  18.295   7.617
 2584POPC   C1B34735  26.436  17.930   8.823
 2584POPC   C2B34736  26.550  17.803   8.411
 2584POPC   C3B34737  26.513  17.942   7.994
 2584POPC   C4B34738  26.461  17.870   7.575
 2585POPC   NC334739   0.733  10.051   9.611
 2585POPC   PO434740   0.276   9.449   9.573
 2585POPC   GL134741   0.262   9.676   9.181
 2585POPC   GL234742   0.560   9.860   9.169
 2585POPC   C1A34743   0.303   9.814   8.728
 2585POPC   D2A34744   0.402   9.675   8.321
 2585POPC   C3A34745   0.247   9.789   7.929
 2585POPC   C4A34746   0.126   9.518   7.587
 2585POPC   C1B34747   0.768  10.043   8.826
 2585POPC   C2B34748   0.889   9.870   8.443
 2585POPC   C3B34749   0.762   9.942   8.026
 2585POPC   C4B34750   0.697   9.680   7.698
 2586POPC   NC334751  23.869  18.141   9.496
 2586POPC   PO434752  23.444  18.695   9.422
 2586POPC   GL134753  23.455  18.305   9.230
 2586POPC   GL234754  23.776  18.449   9.098
 2586POPC   C1A34755  23.459  18.183   8.811
 2586POPC   D2A34756  23.407  18.525   8.542
 2586POPC   C3A34757  23.367  18.390   8.141
 2586POPC   C4A34758  23.475  18.480   7.748
 2586POPC   C1B34759  23.907  18.453   8.677
 2586POPC   C2B34760  23.755  18.177   8.369
 2586POPC   C3B34761  23.793  18.063   7.957
 2586POPC   C4B34762  23.897  18.239   7.602
 2587POPC   NC334763  22.357  29.289   9.566
 2587POPC   PO434764  22.093  29.958   9.522
 2587POPC   GL134765  21.980  29.965   9.128
 2587POPC   GL234766  21.912  29.630   9.105
 2587POPC   C1A34767  22.140  30.115   8.762
 2587POPC   D2A34768  22.389  30.164   8.394
 2587POPC   C3A34769  22.164  30.228   8.028
 2587POPC   C4A34770  22.255  29.871   7.794
 2587POPC   C1B34771  22.094  29.595   8.692
 2587POPC   C2B34772  22.217  29.595   8.253
 2587POPC   C3B34773  22.053  29.410   7.851
 2587POPC   C4B34774  21.926  29.670   7.470
 2588POPC   NC334775  15.011   4.489   9.502
 2588POPC   PO434776  15.638   4.197   9.528
 2588POPC   GL134777  15.524   4.353   9.162
 2588POPC   GL234778  15.230   4.129   9.181
 2588POPC   C1A34779  15.432   4.257   8.727
 2588POPC   D2A34780  15.361   4.025   8.349
 2588POPC   C3A34781  15.344   4.296   8.000
 2588POPC   C4A34782  15.245   4.235   7.572
 2588POPC   C1B34783  14.907   4.006   8.870
 2588POPC   C2B34784  14.891   3.805   8.466
 2588POPC   C3B34785  14.951   3.943   8.036
 2588POPC   C4B34786  15.009   3.806   7.624
 2589POPC   NC334787  35.174  13.829   9.641
 2589POPC   PO434788  35.684  13.481   9.564
 2589POPC   GL134789  35.492  13.745   9.237
 2589POPC   GL234790  35.150  13.722   9.156
 2589POPC   C1A34791  35.570  13.942   8.846
 2589POPC   D2A34792  35.430  13.810   8.475
 2589POPC   C3A34793  35.661  13.762   8.113
 2589POPC   C4A34794  35.529  13.669   7.728
 2589POPC   C1B34795  34.986  13.600   8.780
 2589POPC   C2B34796  34.926  13.803   8.391
 2589POPC   C3B34797  34.984  13.715   7.987
 2589POPC   C4B34798  35.048  13.586   7.593
 2590POPC   NC334799  21.284  33.422   9.438
 2590POPC   PO434800  21.672  34.023   9.493
 2590POPC   GL134801  21.432  33.857   9.185
 2590POPC   GL234802  21.689  33.577   9.159
 2590POPC   C1A34803  21.288  34.023   8.797
 2590POPC   D2A34804  21.355  34.090   8.350
 2590POPC   C3A34805  21.078  34.005   7.977
 2590POPC   C4A34806  21.286  34.088   7.601
 2590POPC   C1B34807  21.454  33.536   8.777
 2590POPC   C2B34808  21.221  33.592   8.386
 2590POPC   C3B34809  21.405  33.627   7.946
 2590POPC   C4B34810  21.367  33.571   7.470
 2591POPC   NC334811  27.204   3.355   9.472
 2591POPC   PO434812  27.671   3.803   9.605
 2591POPC   GL134813  27.631   3.564   9.242
 2591POPC   GL234814  27.345   3.759   9.165
 2591POPC   C1A34815  27.546   3.439   8.809
 2591POPC   D2A34816  27.496   3.665   8.429
 2591POPC   C3A34817  27.511   3.531   7.991
 2591POPC   C4A34818  27.756   3.685   7.636
 2591POPC   C1B34819  27.231   3.961   8.800
 2591POPC   C2B34820  27.076   3.936   8.382
 2591POPC   C3B34821  27.276   4.042   8.035
 2591POPC   C4B34822  27.288   3.930   7.634
 2592POPC   NC334823   9.262  30.056   9.517
 2592POPC   PO434824   9.911  29.808   9.530
 2592POPC   GL134825   9.733  29.951   9.167
 2592POPC   GL234826   9.923  30.230   9.024
 2592POPC   C1A34827   9.672  29.797   8.786
 2592POPC   D2A34828   9.810  29.928   8.407
 2592POPC   C3A34829   9.518  29.871   8.116
 2592POPC   C4A34830   9.418  29.498   7.871
 2592POPC   C1B34831   9.557  30.290   8.763
 2592POPC   C2B34832   9.422  30.338   8.366
 2592POPC   C3B34833   9.555  30.599   8.080
 2592POPC   C4B34834   9.603  30.313   7.769
 2593POPC   NC334835  13.686  35.074   9.506
 2593POPC   PO434836  13.480  35.711   9.492
 2593POPC   GL134837  13.707  35.510   9.220
 2593POPC   GL234838  14.050  35.463   9.339
 2593POPC   C1A34839  13.578  35.316   8.862
 2593POPC   D2A34840  13.472  35.067   8.523
 2593POPC   C3A34841  13.371  35.363   8.205
 2593POPC   C4A34842  13.399  35.280   7.762
 2593POPC   C1B34843  14.086  35.419   8.874
 2593POPC   C2B34844  13.845  35.452   8.456
 2593POPC   C3B34845  13.854  35.341   8.018
 2593POPC   C4B34846  13.807  35.622   7.654
 2594POPC   NC334847  11.460  42.148   9.355
 2594POPC   PO434848  10.925  42.386   9.467
 2594POPC   GL134849  11.041  42.257   9.073
 2594POPC   GL234850  11.175  42.578   9.011
 2594POPC   C1A34851  11.357  42.188   8.725
 2594POPC   D2A34852  11.251  42.133   8.331
 2594POPC   C3A34853  11.282  42.409   8.021
 2594POPC   C4A34854  11.137  42.073   7.798
 2594POPC   C1B34855  11.194  42.655   8.554
 2594POPC   C2B34856  11.487  42.839   8.247
 2594POPC   C3B34857  11.450  42.856   7.801
 2594POPC   C4B34858  11.158  42.697   7.484
 2595POPC   NC334859  13.243  33.584   9.869
 2595POPC   PO434860  13.723  33.725   9.431
 2595POPC   GL134861  13.635  33.844   9.047
 2595POPC   GL234862  13.291  33.834   9.041
 2595POPC   C1A34863  13.686  33.859   8.633
 2595POPC   D2A34864  13.615  33.609   8.306
 2595POPC   C3A34865  13.736  33.863   8.000
 2595POPC   C4A34866  13.850  33.583   7.716
 2595POPC   C1B34867  13.184  33.989   8.638
 2595POPC   C2B34868  13.289  33.993   8.215
 2595POPC   C3B34869  13.299  33.708   7.824
 2595POPC   C4B34870  13.496  33.875   7.455
 2596POPC   NC334871   3.320  22.043   9.372
 2596POPC   PO434872   3.952  22.213   9.455
 2596POPC   GL134873   3.807  22.053   9.103
 2596POPC   GL234874   3.783  21.730   9.219
 2596POPC   C1A34875   3.604  22.207   8.745
 2596POPC   D2A34876   3.403  22.267   8.367
 2596POPC   C3A34877   3.708  22.186   8.062
 2596POPC   C4A34878   3.852  22.294   7.663
 2596POPC   C1B34879   3.521  21.720   8.817
 2596POPC   C2B34880   3.333  21.721   8.409
 2596POPC   C3B34881   3.296  21.872   8.013
 2596POPC   C4B34882   3.565  21.869   7.665
 2597POPC   NC334883   2.548  41.137   9.532
 2597POPC   PO434884   2.947  40.560   9.597
 2597POPC   GL134885   2.700  40.661   9.232
 2597POPC   GL234886   2.855  41.002   9.153
 2597POPC   C1A34887   2.412  40.533   8.866
 2597POPC   D2A34888   2.403  40.695   8.439
 2597POPC   C3A34889   2.286  40.571   8.018
 2597POPC   C4A34890   2.518  40.525   7.639
 2597POPC   C1B34891   2.754  40.890   8.750
 2597POPC   C2B34892   2.887  40.831   8.324
 2597POPC   C3B34893   2.674  40.927   7.961
 2597POPC   C4B34894   3.004  40.758   7.733
 2598POPC   NC334895  38.446  31.863   9.484
 2598POPC   PO434896  38.505  31.189   9.525
 2598POPC   GL134897  38.654  31.318   9.129
 2598POPC   GL234898  38.613  31.656   9.071
 2598POPC   C1A34899  38.476  31.323   8.702
 2598POPC   D2A34900  38.161  31.140   8.392
 2598POPC   C3A34901  38.279  31.333   8.025
 2598POPC   C4A34902  38.654  31.520   7.896
 2598POPC   C1B34903  38.576  31.890   8.721
 2598POPC   C2B34904  38.524  31.845   8.305
 2598POPC   C3B34905  38.205  31.859   8.048
 2598POPC   C4B34906  38.242  31.751   7.665
 2599POPC   NC334907  19.658  44.959   9.560
 2599POPC   PO434908  19.853   0.600   9.705
 2599POPC   GL134909  19.829   0.392   9.285
 2599POPC   GL234910  19.954   0.674   9.177
 2599POPC   C1A34911  19.747   0.304   8.787
 2599POPC   D2A34912  19.778   0.247   8.300
 2599POPC   C3A34913  19.605   0.595   8.025
 2599POPC   C4A34914  19.404   0.709   7.598
 2599POPC   C1B34915  20.162   0.600   8.810
 2599POPC   C2B34916  20.048   0.712   8.397
 2599POPC   C3B34917  20.131   0.722   7.970
 2599POPC   C4B34918  19.910   0.725   7.575
 2600POPC   NC334919  22.636  24.223   9.569
 2600POPC   PO434920  22.029  24.485   9.709
 2600POPC   GL134921  22.135  24.510   9.247
 2600POPC   GL234922  21.929  24.761   9.073
 2600POPC   C1A34923  22.324  24.276   8.876
 2600POPC   D2A34924  22.478  24.393   8.430
 2600POPC   C3A34925  22.422  24.181   8.030
 2600POPC   C4A34926  22.478  24.402   7.664
 2600POPC   C1B34927  21.895  24.509   8.727
 2600POPC   C2B34928  21.977  24.375   8.363
 2600POPC   C3B34929  22.078  24.547   7.980
 2600POPC   C4B34930  21.978  24.447   7.541
 2601POPC   NC334931  11.056  25.746   9.457
 2601POPC   PO434932  11.470  26.283   9.600
 2601POPC   GL134933  11.572  26.189   9.224
 2601POPC   GL234934  11.363  25.943   9.117
 2601POPC   C1A34935  11.573  26.304   8.824
 2601POPC   D2A34936  11.262  26.172   8.556
 2601POPC   C3A34937  11.325  26.347   8.161
 2601POPC   C4A34938  11.413  26.144   7.781
 2601POPC   C1B34939  11.225  25.658   8.818
 2601POPC   C2B34940  11.014  25.690   8.458
 2601POPC   C3B34941  11.217  25.765   8.089
 2601POPC   C4B34942  11.122  25.738   7.664
 2602POPC   NC334943  33.655   0.967   9.460
 2602POPC   PO434944  34.173   1.290   9.200
 2602POPC   GL134945  33.871   1.148   9.037
 2602POPC   GL234946  33.655   1.406   9.207
 2602POPC   C1A34947  33.773   1.045   8.632
 2602POPC   D2A34948  33.903   1.361   8.362
 2602POPC   C3A34949  34.038   1.318   7.995
 2602POPC   C4A34950  33.857   1.252   7.652
 2602POPC   C1B34951  33.608   1.496   8.769
 2602POPC   C2B34952  33.388   1.321   8.410
 2602POPC   C3B34953  33.500   1.386   7.973
 2602POPC   C4B34954  33.396   1.382   7.515
 2603POPC   NC334955   5.662  41.979   9.400
 2603POPC   PO434956   5.338  42.596   9.492
 2603POPC   GL134957   5.621  42.453   9.191
 2603POPC   GL234958   5.874  42.671   9.171
 2603POPC   C1A34959   5.702  42.281   8.793
 2603POPC   D2A34960   5.529  42.331   8.383
 2603POPC   C3A34961   5.749  42.204   8.049
 2603POPC   C4A34962   6.049  42.188   7.726
 2603POPC   C1B34963   6.125  42.613   8.825
 2603POPC   C2B34964   6.034  42.451   8.431
 2603POPC   C3B34965   6.067  42.604   8.033
 2603POPC   C4B34966   6.248  42.662   7.626
 2604POPC   NC334967  35.269   1.597   9.361
 2604POPC   PO434968  35.708   2.038   9.579
 2604POPC   GL134969  35.485   2.004   9.164
 2604POPC   GL234970  35.265   2.267   9.001
 2604POPC   C1A34971  35.362   1.795   8.752
 2604POPC   D2A34972  35.120   1.795   8.358
 2604POPC   C3A34973  35.432   1.876   8.071
 2604POPC   C4A34974  35.389   2.075   7.674
 2604POPC   C1B34975  34.956   2.102   8.732
 2604POPC   C2B34976  34.848   2.287   8.389
 2604POPC   C3B34977  35.093   2.278   8.050
 2604POPC   C4B34978  34.959   2.356   7.676
 2605POPC   NC334979  44.690  38.449   9.622
 2605POPC   PO434980  44.138  38.650   9.852
 2605POPC   GL134981  44.297  38.527   9.321
 2605POPC   GL234982  44.511  38.223   9.206
 2605POPC   C1A34983  44.547  38.640   8.902
 2605POPC   D2A34984  44.743  38.590   8.466
 2605POPC   C3A34985  44.532  38.799   8.094
 2605POPC   C4A34986  44.683  38.713   7.659
 2605POPC   C1B34987  44.371  38.182   8.744
 2605POPC   C2B34988  44.467  38.139   8.290
 2605POPC   C3B34989  44.536  38.280   7.864
 2605POPC   C4B34990  44.652  38.258   7.371
 2606POPC   NC334991  21.882  20.081   9.638
 2606POPC   PO434992  22.478  19.727   9.516
 2606POPC   GL134993  22.215  19.686   9.182
 2606POPC   GL234994  22.063  19.986   9.156
 2606POPC   C1A34995  22.267  19.584   8.759
 2606POPC   D2A34996  22.136  19.328   8.423
 2606POPC   C3A34997  22.196  19.578   8.076
 2606POPC   C4A34998  22.075  19.758   7.707
 2606POPC   C1B34999  22.116  20.123   8.763
 2606POPC   C2B35000  22.267  20.152   8.372
 2606POPC   C3B35001  22.045  20.145   8.018
 2606POPC   C4B35002  22.197  20.320   7.672
 2607POPC   NC335003  36.460  38.381   9.357
 2607POPC   PO435004  35.816  38.466   9.426
 2607POPC   GL135005  36.026  38.436   9.074
 2607POPC   GL235006  36.092  38.108   9.156
 2607POPC   C1A35007  36.096  38.729   8.754
 2607POPC   D2A35008  35.813  38.780   8.405
 2607POPC   C3A35009  36.079  38.780   8.077
 2607POPC   C4A35010  36.069  38.651   7.659
 2607POPC   C1B35011  36.268  38.092   8.775
 2607POPC   C2B35012  36.080  38.296   8.445
 2607POPC   C3B35013  35.918  38.273   8.045
 2607POPC   C4B35014  36.027  38.152   7.659
 2608POPC   NC335015  34.175  36.646   9.438
 2608POPC   PO435016  33.736  37.131   9.467
 2608POPC   GL135017  33.751  36.851   9.131
 2608POPC   GL235018  34.050  37.000   9.056
 2608POPC   C1A35019  33.585  36.692   8.741
 2608POPC   D2A35020  33.730  36.494   8.348
 2608POPC   C3A35021  33.525  36.674   8.019
 2608POPC   C4A35022  33.634  36.979   7.737
 2608POPC   C1B35023  34.088  36.638   8.769
 2608POPC   C2B35024  34.266  36.583   8.360
 2608POPC   C3B35025  34.059  36.637   7.965
 2608POPC   C4B35026  34.010  36.693   7.526
 2609POPC   NC335027   7.149  29.490   9.439
 2609POPC   PO435028   7.348  28.792   9.531
 2609POPC   GL135029   7.586  29.041   9.192
 2609POPC   GL235030   7.300  29.158   9.088
 2609POPC   C1A35031   7.645  29.213   8.726
 2609POPC   D2A35032   7.601  29.060   8.300
 2609POPC   C3A35033   7.444  29.360   7.992
 2609POPC   C4A35034   7.354  29.539   7.611
 2609POPC   C1B35035   7.115  29.348   8.770
 2609POPC   C2B35036   7.089  29.233   8.377
 2609POPC   C3B35037   6.938  29.398   8.010
 2609POPC   C4B35038   6.983  29.193   7.638
 2610POPC   NC335039  34.982   5.242   9.575
 2610POPC   PO435040  34.325   5.176   9.485
 2610POPC   GL135041  34.619   5.014   9.199
 2610POPC   GL235042  34.841   5.267   9.099
 2610POPC   C1A35043  34.576   4.998   8.761
 2610POPC   D2A35044  34.714   4.845   8.409
 2610POPC   C3A35045  34.443   4.838   8.070
 2610POPC   C4A35046  34.584   4.867   7.661
 2610POPC   C1B35047  34.851   5.463   8.726
 2610POPC   C2B35048  34.691   5.390   8.343
 2610POPC   C3B35049  34.657   5.298   7.922
 2610POPC   C4B35050  34.265   5.241   7.713
 2611POPC   NC335051  38.202  17.280   9.340
 2611POPC   PO435052  38.724  17.707   9.487
 2611POPC   GL135053  38.614  17.593   9.079
 2611POPC   GL235054  38.988  17.728   9.032
 2611POPC   C1A35055  38.262  17.478   8.723
 2611POPC   D2A35056  38.157  17.115   8.407
 2611POPC   C3A35057  38.275  17.233   8.000
 2611POPC   C4A35058  38.265  17.602   7.757
 2611POPC   C1B35059  38.902  17.394   8.712
 2611POPC   C2B35060  38.640  17.369   8.368
 2611POPC   C3B35061  38.719  17.567   8.002
 2611POPC   C4B35062  38.809  17.452   7.593
 2612POPC   NC335063  28.632  16.937   9.446
 2612POPC   PO435064  28.342  17.465   9.442
 2612POPC   GL135065  28.200  17.398   9.060
 2612POPC   GL235066  27.975  17.105   9.130
 2612POPC   C1A35067  28.451  17.551   8.718
 2612POPC   D2A35068  28.547  17.803   8.380
 2612POPC   C3A35069  28.498  17.561   8.034
 2612POPC   C4A35070  28.560  17.817   7.694
 2612POPC   C1B35071  28.136  17.052   8.699
 2612POPC   C2B35072  27.960  16.989   8.319
 2612POPC   C3B35073  28.055  17.122   7.953
 2612POPC   C4B35074  28.412  17.134   7.726
 2613POPC   NC335075  28.820  22.760   9.245
 2613POPC   PO435076  29.290  23.180   9.577
 2613POPC   GL135077  29.307  23.009   9.127
 2613POPC   GL235078  29.278  22.646   9.050
 2613POPC   C1A35079  29.126  23.031   8.699
 2613POPC   D2A35080  28.780  22.995   8.399
 2613POPC   C3A35081  29.010  22.916   8.015
 2613POPC   C4A35082  28.939  22.894   7.558
 2613POPC   C1B35083  29.539  22.735   8.682
 2613POPC   C2B35084  29.638  22.522   8.296
 2613POPC   C3B35085  29.694  22.570   7.873
 2613POPC   C4B35086  29.423  22.846   7.681
 2614POPC   NC335087  42.967   9.574   9.542
 2614POPC   PO435088  43.582   9.814   9.771
 2614POPC   GL135089  43.427   9.740   9.365
 2614POPC   GL235090  43.333   9.379   9.238
 2614POPC   C1A35091  43.406   9.792   8.942
 2614POPC   D2A35092  43.273   9.668   8.554
 2614POPC   C3A35093  43.326   9.725   8.114
 2614POPC   C4A35094  43.056   9.732   7.729
 2614POPC   C1B35095  42.959   9.430   8.912
 2614POPC   C2B35096  42.889   9.349   8.471
 2614POPC   C3B35097  42.841   9.408   8.056
 2614POPC   C4B35098  42.867   9.185   7.667
 2615POPC   NC335099  44.405  20.612   9.412
 2615POPC   PO435100  43.751  20.642   9.496
 2615POPC   GL135101  43.712  20.656   9.095
 2615POPC   GL235102  44.051  20.731   9.037
 2615POPC   C1A35103  43.674  20.559   8.681
 2615POPC   D2A35104  43.824  20.585   8.292
 2615POPC   C3A35105  43.512  20.524   8.025
 2615POPC   C4A35106  43.667  20.616   7.663
 2615POPC   C1B35107  44.227  20.633   8.635
 2615POPC   C2B35108  44.279  20.819   8.226
 2615POPC   C3B35109  44.131  20.779   7.803
 2615POPC   C4B35110  44.160  20.459   7.445
 2616POPC   NC335111   4.149  16.984   9.356
 2616POPC   PO435112   3.736  16.636   9.676
 2616POPC   GL135113   3.751  16.694   9.232
 2616POPC   GL235114   3.974  16.422   9.203
 2616POPC   C1A35115   3.750  16.968   8.825
 2616POPC   D2A35116   3.527  16.844   8.445
 2616POPC   C3A35117   3.534  17.066   8.069
 2616POPC   C4A35118   3.661  16.888   7.695
 2616POPC   C1B35119   3.703  16.458   8.787
 2616POPC   C2B35120   3.788  16.353   8.376
 2616POPC   C3B35121   3.860  16.496   7.981
 2616POPC   C4B35122   3.689  16.375   7.581
 2617POPC   NC335123  20.067  42.708   9.569
 2617POPC   PO435124  19.879  43.366   9.743
 2617POPC   GL135125  19.849  43.314   9.247
 2617POPC   GL235126  19.991  42.987   9.132
 2617POPC   C1A35127  19.881  43.342   8.761
 2617POPC   D2A35128  19.995  43.365   8.293
 2617POPC   C3A35129  19.795  43.041   7.982
 2617POPC   C4A35130  19.745  43.016   7.519
 2617POPC   C1B35131  19.960  42.798   8.697
 2617POPC   C2B35132  20.176  42.869   8.276
 2617POPC   C3B35133  20.167  42.737   7.796
 2617POPC   C4B35134  20.244  42.930   7.404
 2618POPC   NC335135  20.281   1.704   9.683
 2618POPC   PO435136  20.708   1.095   9.551
 2618POPC   GL135137  20.711   1.046   9.126
 2618POPC   GL235138  20.375   0.959   9.163
 2618POPC   C1A35139  20.894   1.056   8.690
 2618POPC   D2A35140  20.871   1.327   8.303
 2618POPC   C3A35141  20.864   1.276   7.853
 2618POPC   C4A35142  20.887   0.870   7.639
 2618POPC   C1B35143  20.349   1.063   8.763
 2618POPC   C2B35144  20.473   1.014   8.393
 2618POPC   C3B35145  20.406   1.168   8.024
 2618POPC   C4B35146  20.164   1.169   7.697
 2619POPC   NC335147   9.994  34.226   9.467
 2619POPC   PO435148   9.704  33.653   9.428
 2619POPC   GL135149   9.923  33.849   9.110
 2619POPC   GL235150   9.637  34.097   9.118
 2619POPC   C1A35151   9.929  33.737   8.685
 2619POPC   D2A35152   9.602  33.581   8.443
 2619POPC   C3A35153   9.723  33.596   8.059
 2619POPC   C4A35154   9.530  33.624   7.688
 2619POPC   C1B35155   9.509  34.026   8.690
 2619POPC   C2B35156   9.693  34.069   8.281
 2619POPC   C3B35157   9.804  34.050   7.826
 2619POPC   C4B35158   9.608  34.040   7.405
 2620POPC   NC335159   3.332  32.468   9.476
 2620POPC   PO435160   3.466  31.804   9.524
 2620POPC   GL135161   3.513  32.071   9.180
 2620POPC   GL235162   3.796  32.300   9.236
 2620POPC   C1A35163   3.304  32.139   8.770
 2620POPC   D2A35164   3.176  31.923   8.381
 2620POPC   C3A35165   3.173  32.204   8.010
 2620POPC   C4A35166   3.343  32.293   7.597
 2620POPC   C1B35167   3.838  32.266   8.767
 2620POPC   C2B35168   3.623  32.225   8.354
 2620POPC   C3B35169   3.723  32.339   7.927
 2620POPC   C4B35170   3.855  32.217   7.500
 2621POPC   NC335171  41.092  36.843   9.714
 2621POPC   PO435172  40.786  37.213   9.241
 2621POPC   GL135173  40.591  36.981   9.021
 2621POPC   GL235174  40.524  36.739   9.286
 2621POPC   C1A35175  40.550  36.928   8.591
 2621POPC   D2A35176  40.856  36.852   8.301
 2621POPC   C3A35177  40.745  36.978   7.897
 2621POPC   C4A35178  40.935  36.828   7.577
 2621POPC   C1B35179  40.475  36.514   8.902
 2621POPC   C2B35180  40.555  36.419   8.479
 2621POPC   C3B35181  40.524  36.549   8.066
 2621POPC   C4B35182  40.369  36.611   7.614
 2622POPC   NC335183  29.315  22.731   9.570
 2622POPC   PO435184  29.981  22.957   9.450
 2622POPC   GL135185  29.804  22.929   9.108
 2622POPC   GL235186  29.771  22.561   9.101
 2622POPC   C1A35187  29.693  23.217   8.772
 2622POPC   D2A35188  29.497  23.203   8.368
 2622POPC   C3A35189  29.784  23.013   8.104
 2622POPC   C4A35190  29.902  23.015   7.698
 2622POPC   C1B35191  30.044  22.679   8.753
 2622POPC   C2B35192  30.130  22.645   8.350
 2622POPC   C3B35193  30.244  22.735   7.962
 2622POPC   C4B35194  30.111  22.580   7.564
 2623POPC   NC335195  16.496  14.761   9.419
 2623POPC   PO435196  16.707  14.093   9.406
 2623POPC   GL135197  16.643  14.382   9.108
 2623POPC   GL235198  16.891  14.623   9.109
 2623POPC   C1A35199  16.350  14.492   8.792
 2623POPC   D2A35200  16.435  14.556   8.374
 2623POPC   C3A35201  16.409  14.187   8.139
 2623POPC   C4A35202  16.458  14.273   7.708
 2623POPC   C1B35203  16.872  14.558   8.671
 2623POPC   C2B35204  16.924  14.767   8.275
 2623POPC   C3B35205  16.843  14.418   8.026
 2623POPC   C4B35206  17.067  14.142   7.784
 2624POPC   NC335207  28.737  14.733   9.431
 2624POPC   PO435208  29.411  14.487   9.518
 2624POPC   GL135209  29.211  14.258   9.204
 2624POPC   GL235210  29.031  14.511   9.087
 2624POPC   C1A35211  29.158  14.140   8.769
 2624POPC   D2A35212  29.079  14.400   8.400
 2624POPC   C3A35213  29.283  14.397   8.010
 2624POPC   C4A35214  29.146  14.540   7.618
 2624POPC   C1B35215  28.720  14.500   8.751
 2624POPC   C2B35216  28.517  14.635   8.361
 2624POPC   C3B35217  28.704  14.650   7.924
 2624POPC   C4B35218  28.641  14.540   7.450
 2625POPC   NC335219  43.828  20.170   9.520
 2625POPC   PO435220  44.007  19.478   9.598
 2625POPC   GL135221  44.025  19.761   9.285
 2625POPC   GL235222  43.693  19.765   9.172
 2625POPC   C1A35223  44.065  19.732   8.846
 2625POPC   D2A35224  43.919  19.588   8.471
 2625POPC   C3A35225  44.181  19.776   8.173
 2625POPC   C4A35226  44.203  19.780   7.754
 2625POPC   C1B35227  43.652  20.077   8.868
 2625POPC   C2B35228  43.666  20.106   8.418
 2625POPC   C3B35229  43.860  20.142   7.998
 2625POPC   C4B35230  43.846  20.113   7.561
 2626POPC   NC335231  28.388   9.620   9.527
 2626POPC   PO435232  28.170  10.155   9.842
 2626POPC   GL135233  28.419  10.166   9.347
 2626POPC   GL235234  28.635   9.911   9.185
 2626POPC   C1A35235  28.381  10.194   8.841
 2626POPC   D2A35236  28.414   9.942   8.426
 2626POPC   C3A35237  28.117   9.813   8.079
 2626POPC   C4A35238  28.111   9.832   7.592
 2626POPC   C1B35239  28.350   9.674   8.877
 2626POPC   C2B35240  28.260   9.469   8.491
 2626POPC   C3B35241  28.402   9.380   8.100
 2626POPC   C4B35242  28.565   9.601   7.767
 2627POPC   NC335243   5.406  15.781   9.376
 2627POPC   PO435244   4.845  15.910   9.769
 2627POPC   GL135245   4.918  15.892   9.275
 2627POPC   GL235246   4.674  15.712   9.082
 2627POPC   C1A35247   4.997  16.030   8.844
 2627POPC   D2A35248   5.307  16.116   8.524
 2627POPC   C3A35249   5.190  16.054   8.092
 2627POPC   C4A35250   5.360  16.004   7.691
 2627POPC   C1B35251   4.796  15.556   8.729
 2627POPC   C2B35252   4.785  15.745   8.351
 2627POPC   C3B35253   4.868  15.659   7.929
 2627POPC   C4B35254   4.728  16.009   7.728
 2628POPC   NC335255  31.062  33.839   9.505
 2628POPC   PO435256  30.414  33.823   9.429
 2628POPC   GL135257  30.725  33.718   9.128
 2628POPC   GL235258  30.812  33.369   9.198
 2628POPC   C1A35259  30.871  33.646   8.712
 2628POPC   D2A35260  30.581  33.712   8.393
 2628POPC   C3A35261  30.723  33.836   8.024
 2628POPC   C4A35262  31.001  33.605   7.771
 2628POPC   C1B35263  30.508  33.308   8.813
 2628POPC   C2B35264  30.461  33.217   8.351
 2628POPC   C3B35265  30.410  33.415   7.923
 2628POPC   C4B35266  30.533  33.723   7.572
 2629POPC   NC335267  32.624   8.935   9.524
 2629POPC   PO435268  32.027   8.627   9.552
 2629POPC   GL135269  32.208   8.923   9.215
 2629POPC   GL235270  32.434   8.670   9.107
 2629POPC   C1A35271  32.361   9.084   8.774
 2629POPC   D2A35272  32.250   9.295   8.349
 2629POPC   C3A35273  32.398   9.084   7.975
 2629POPC   C4A35274  32.728   8.801   7.840
 2629POPC   C1B35275  32.063   8.656   8.801
 2629POPC   C2B35276  32.023   8.829   8.372
 2629POPC   C3B35277  31.911   8.914   7.942
 2629POPC   C4B35278  31.839   8.706   7.565
 2630POPC   NC335279  36.319   4.710   9.485
 2630POPC   PO435280  36.011   5.352   9.389
 2630POPC   GL135281  36.133   5.127   9.026
 2630POPC   GL235282  36.456   4.996   9.064
 2630POPC   C1A35283  36.183   5.212   8.591
 2630POPC   D2A35284  35.909   5.275   8.268
 2630POPC   C3A35285  36.032   5.088   7.943
 2630POPC   C4A35286  36.124   5.194   7.536
 2630POPC   C1B35287  36.328   4.748   8.692
 2630POPC   C2B35288  36.399   4.874   8.249
 2630POPC   C3B35289  36.431   4.821   7.778
 2630POPC   C4B35290  36.253   4.740   7.353
 2631POPC   NC335291  24.599   6.990   9.464
 2631POPC   PO435292  24.435   6.371   9.536
 2631POPC   GL135293  24.297   6.641   9.202
 2631POPC   GL235294  24.111   6.929   9.298
 2631POPC   C1A35295  24.535   6.754   8.840
 2631POPC   D2A35296  24.703   6.573   8.468
 2631POPC   C3A35297  24.596   6.693   8.041
 2631POPC   C4A35298  24.393   6.470   7.718
 2631POPC   C1B35299  24.050   6.932   8.825
 2631POPC   C2B35300  24.216   6.760   8.414
 2631POPC   C3B35301  24.091   6.816   7.968
 2631POPC   C4B35302  24.378   7.007   7.670
 2632POPC   NC335303  32.932   2.185   9.513
 2632POPC   PO435304  33.291   1.667   9.482
 2632POPC   GL135305  32.972   1.794   9.155
 2632POPC   GL235306  32.992   2.121   9.015
 2632POPC   C1A35307  32.707   1.777   8.794
 2632POPC   D2A35308  32.811   2.033   8.458
 2632POPC   C3A35309  32.764   1.905   8.025
 2632POPC   C4A35310  32.874   2.035   7.581
 2632POPC   C1B35311  33.146   2.380   8.680
 2632POPC   C2B35312  33.199   2.321   8.233
 2632POPC   C3B35313  33.203   2.355   7.814
 2632POPC   C4B35314  33.495   2.207   7.477
 2633POPC   NC335315  12.064  21.483   9.504
 2633POPC   PO435316  11.761  20.873   9.525
 2633POPC   GL135317  11.952  21.047   9.146
 2633POPC   GL235318  11.718  21.285   9.125
 2633POPC   C1A35319  12.079  21.293   8.763
 2633POPC   D2A35320  12.167  21.191   8.315
 2633POPC   C3A35321  12.278  21.503   7.982
 2633POPC   C4A35322  11.979  21.775   7.756
 2633POPC   C1B35323  11.581  21.400   8.685
 2633POPC   C2B35324  11.560  21.278   8.244
 2633POPC   C3B35325  11.851  21.242   7.893
 2633POPC   C4B35326  12.185  21.095   7.572
 2634POPC   NC335327  26.267  29.382   9.581
 2634POPC   PO435328  25.793  28.814   9.422
 2634POPC   GL135329  26.051  29.106   9.195
 2634POPC   GL235330  25.805  29.359   9.171
 2634POPC   C1A35331  26.212  29.248   8.787
 2634POPC   D2A35332  26.176  29.105   8.370
 2634POPC   C3A35333  26.220  29.292   7.954
 2634POPC   C4A35334  26.218  29.011   7.562
 2634POPC   C1B35335  25.708  29.094   8.803
 2634POPC   C2B35336  25.632  29.038   8.384
 2634POPC   C3B35337  25.802  29.008   8.014
 2634POPC   C4B35338  25.769  29.239   7.662
 2635POPC   NC335339  10.481  28.768   9.553
 2635POPC   PO435340  10.783  29.388   9.491
 2635POPC   GL135341  10.692  29.089   9.188
 2635POPC   GL235342  10.365  29.117   9.166
 2635POPC   C1A35343  10.705  29.196   8.759
 2635POPC   D2A35344  10.545  29.553   8.516
 2635POPC   C3A35345  10.630  29.455   8.084
 2635POPC   C4A35346  10.677  29.006   7.986
 2635POPC   C1B35347  10.224  29.039   8.756
 2635POPC   C2B35348  10.242  29.152   8.274
 2635POPC   C3B35349  10.178  28.940   7.847
 2635POPC   C4B35350  10.068  29.094   7.427
 2636POPC   NC335351  17.172  29.532   9.529
 2636POPC   PO435352  17.239  28.907   9.505
 2636POPC   GL135353  17.461  29.052   9.138
 2636POPC   GL235354  17.427  29.408   9.102
 2636POPC   C1A35355  17.555  29.135   8.702
 2636POPC   D2A35356  17.328  29.357   8.398
 2636POPC   C3A35357  17.370  29.216   7.991
 2636POPC   C4A35358  17.772  29.064   7.901
 2636POPC   C1B35359  17.597  29.645   8.727
 2636POPC   C2B35360  17.611  29.782   8.271
 2636POPC   C3B35361  17.556  29.725   7.808
 2636POPC   C4B35362  17.494  29.882   7.362
 2637POPC   NC335363   5.687  18.679   9.416
 2637POPC   PO435364   5.947  19.405   9.475
 2637POPC   GL135365   5.952  19.080   9.163
 2637POPC   GL235366   6.210  18.811   9.329
 2637POPC   C1A35367   5.921  19.130   8.669
 2637POPC   D2A35368   6.082  19.344   8.248
 2637POPC   C3A35369   5.867  19.220   7.848
 2637POPC   C4A35370   5.599  18.887   7.804
 2637POPC   C1B35371   6.270  18.802   8.887
 2637POPC   C2B35372   6.181  18.750   8.429
 2637POPC   C3B35373   6.253  18.881   7.992
 2637POPC   C4B35374   6.367  19.275   7.769
 2638POPC   NC335375  16.065  27.167   9.554
 2638POPC   PO435376  15.993  27.885   9.766
 2638POPC   GL135377  15.889  27.617   9.333
 2638POPC   GL235378  16.179  27.463   9.139
 2638POPC   C1A35379  15.806  27.621   8.850
 2638POPC   D2A35380  15.968  27.370   8.477
 2638POPC   C3A35381  15.892  27.500   8.055
 2638POPC   C4A35382  15.738  27.852   7.810
 2638POPC   C1B35383  16.340  27.721   8.796
 2638POPC   C2B35384  16.385  27.669   8.366
 2638POPC   C3B35385  16.203  27.966   8.112
 2638POPC   C4B35386  16.345  27.949   7.742
 2639POPC   NC335387  19.555   0.916   9.834
 2639POPC   PO435388  19.811   1.470   9.648
 2639POPC   GL135389  19.871   1.173   9.292
 2639POPC   GL235390  20.062   1.374   9.128
 2639POPC   C1A35391  19.833   1.021   8.811
 2639POPC   D2A35392  19.587   1.014   8.394
 2639POPC   C3A35393  19.758   1.076   7.975
 2639POPC   C4A35394  19.676   1.172   7.536
 2639POPC   C1B35395  20.061   1.466   8.717
 2639POPC   C2B35396  20.024   1.282   8.356
 2639POPC   C3B35397  20.021   1.546   8.009
 2639POPC   C4B35398  19.863   1.631   7.589
 2640POPC   NC335399  15.165  37.268   9.403
 2640POPC   PO435400  15.368  37.945   9.523
 2640POPC   GL135401  15.130  37.746   9.215
 2640POPC   GL235402  15.464  37.560   9.114
 2640POPC   C1A35403  14.888  37.807   8.830
 2640POPC   D2A35404  15.073  37.906   8.426
 2640POPC   C3A35405  15.023  37.643   8.062
 2640POPC   C4A35406  15.002  37.709   7.620
 2640POPC   C1B35407  15.337  37.516   8.674
 2640POPC   C2B35408  15.505  37.525   8.247
 2640POPC   C3B35409  15.492  37.640   7.808
 2640POPC   C4B35410  15.398  37.561   7.370
 2641POPC   NC335411  19.381  34.821   9.788
 2641POPC   PO435412  19.931  34.426   9.517
 2641POPC   GL135413  19.949  34.612   9.151
 2641POPC   GL235414  19.952  34.946   9.243
 2641POPC   C1A35415  20.188  34.705   8.794
 2641POPC   D2A35416  19.911  34.665   8.450
 2641POPC   C3A35417  20.023  34.589   8.028
 2641POPC   C4A35418  19.744  34.399   7.741
 2641POPC   C1B35419  19.823  35.057   8.814
 2641POPC   C2B35420  19.731  35.147   8.386
 2641POPC   C3B35421  19.576  34.864   8.079
 2641POPC   C4B35422  19.749  34.898   7.688
 2642POPC   NC335423  10.256  12.613   9.446
 2642POPC   PO435424   9.592  12.436   9.533
 2642POPC   GL135425   9.567  12.699   9.152
 2642POPC   GL235426   9.899  12.587   9.082
 2642POPC   C1A35427   9.727  12.980   8.785
 2642POPC   D2A35428  10.024  12.871   8.441
 2642POPC   C3A35429   9.926  13.000   8.030
 2642POPC   C4A35430  10.228  13.036   7.729
 2642POPC   C1B35431   9.742  12.483   8.688
 2642POPC   C2B35432   9.543  12.658   8.340
 2642POPC   C3B35433   9.655  12.560   7.926
 2642POPC   C4B35434   9.527  12.181   7.734
 2643POPC   NC335435  23.934  21.133   9.460
 2643POPC   PO435436  23.509  21.590   9.526
 2643POPC   GL135437  23.482  21.511   9.117
 2643POPC   GL235438  23.772  21.353   9.028
 2643POPC   C1A35439  23.537  21.706   8.713
 2643POPC   D2A35440  23.703  21.571   8.300
 2643POPC   C3A35441  23.655  21.852   7.943
 2643POPC   C4A35442  23.594  21.790   7.521
 2643POPC   C1B35443  23.999  21.014   8.787
 2643POPC   C2B35444  24.006  20.831   8.342
 2643POPC   C3B35445  23.852  20.975   7.902
 2643POPC   C4B35446  23.469  21.225   7.724
 2644POPC   NC335447  44.199   7.379   9.497
 2644POPC   PO435448  43.622   7.680   9.526
 2644POPC   GL135449  43.746   7.492   9.102
 2644POPC   GL235450  44.005   7.286   9.049
 2644POPC   C1A35451  43.957   7.634   8.672
 2644POPC   D2A35452  43.786   7.726   8.264
 2644POPC   C3A35453  43.559   7.394   8.110
 2644POPC   C4A35454  43.706   7.062   7.835
 2644POPC   C1B35455  44.336   7.325   8.765
 2644POPC   C2B35456  44.535   7.466   8.385
 2644POPC   C3B35457  44.305   7.670   8.071
 2644POPC   C4B35458  43.991   7.482   7.849
 2645POPC   NC335459  43.026  33.363   9.586
 2645POPC   PO435460  43.431  32.734   9.609
 2645POPC   GL135461  43.414  32.813   9.205
 2645POPC   GL235462  43.216  33.102   9.215
 2645POPC   C1A35463  43.319  32.873   8.792
 2645POPC   D2A35464  43.116  32.917   8.454
 2645POPC   C3A35465  43.396  32.858   8.119
 2645POPC   C4A35466  43.245  32.822   7.714
 2645POPC   C1B35467  43.008  33.295   8.858
 2645POPC   C2B35468  43.031  33.451   8.431
 2645POPC   C3B35469  43.013  33.219   8.063
 2645POPC   C4B35470  42.832  33.135   7.715
 2646POPC   NC335471   7.325  17.855   9.418
 2646POPC   PO435472   7.566  18.470   9.500
 2646POPC   GL135473   7.806  18.233   9.208
 2646POPC   GL235474   7.784  17.903   9.161
 2646POPC   C1A35475   7.803  18.268   8.789
 2646POPC   D2A35476   7.394  18.394   8.593
 2646POPC   C3A35477   7.414  18.475   8.163
 2646POPC   C4A35478   7.442  18.508   7.725
 2646POPC   C1B35479   7.518  17.860   8.776
 2646POPC   C2B35480   7.643  18.012   8.352
 2646POPC   C3B35481   7.497  18.027   7.928
 2646POPC   C4B35482   7.325  17.959   7.515
 2647POPC   NC335483   8.699  11.647   9.392
 2647POPC   PO435484   9.142  12.130   9.432
 2647POPC   GL135485   9.020  12.076   9.071
 2647POPC   GL235486   9.068  12.408   9.010
 2647POPC   C1A35487   8.873  11.927   8.723
 2647POPC   D2A35488   8.731  12.112   8.356
 2647POPC   C3A35489   8.826  11.862   8.011
 2647POPC   C4A35490   9.130  11.843   7.721
 2647POPC   C1B35491   8.801  12.474   8.736
 2647POPC   C2B35492   8.983  12.571   8.384
 2647POPC   C3B35493   9.157  12.339   8.076
 2647POPC   C4B35494   8.868  12.309   7.771
 2648POPC   NC335495   6.031   4.181   9.443
 2648POPC   PO435496   5.647   4.771   9.592
 2648POPC   GL135497   5.610   4.464   9.210
 2648POPC   GL235498   5.643   4.097   9.114
 2648POPC   C1A35499   5.766   4.535   8.772
 2648POPC   D2A35500   5.536   4.655   8.396
 2648POPC   C3A35501   5.761   4.675   8.007
 2648POPC   C4A35502   5.985   4.464   7.709
 2648POPC   C1B35503   5.965   4.047   8.783
 2648POPC   C2B35504   5.988   4.187   8.349
 2648POPC   C3B35505   5.740   4.115   7.977
 2648POPC   C4B35506   5.502   3.902   7.681
 2649POPC   NC335507   7.730   0.622   9.420
 2649POPC   PO435508   7.089   0.379   9.452
 2649POPC   GL135509   7.294   0.592   9.126
 2649POPC   GL235510   7.470   0.297   8.988
 2649POPC   C1A35511   7.291   0.693   8.692
 2649POPC   D2A35512   7.440   0.447   8.355
 2649POPC   C3A35513   7.258   0.421   7.964
 2649POPC   C4A35514   6.989   0.475   7.652
 2649POPC   C1B35515   7.786   0.541   8.746
 2649POPC   C2B35516   7.992   0.610   8.363
 2649POPC   C3B35517   7.786   0.700   8.018
 2649POPC   C4B35518   7.595   0.659   7.650
 2650POPC   NC335519   3.404  40.639   9.490
 2650POPC   PO435520   3.360  41.351   9.398
 2650POPC   GL135521   3.368  41.005   9.132
 2650POPC   GL235522   3.663  40.885   9.009
 2650POPC   C1A35523   3.253  40.871   8.724
 2650POPC   D2A35524   3.395  41.108   8.421
 2650POPC   C3A35525   3.390  40.934   8.037
 2650POPC   C4A35526   3.615  40.932   7.690
 2650POPC   C1B35527   3.872  41.106   8.677
 2650POPC   C2B35528   3.880  41.020   8.233
 2650POPC   C3B35529   3.912  40.624   7.971
 2650POPC   C4B35530   3.916  40.571   7.485
 2651POPC   NC335531  23.396   3.068   9.505
 2651POPC   PO435532  22.664   3.236   9.480
 2651POPC   GL135533  22.908   2.963   9.175
 2651POPC   GL235534  23.164   2.729   9.091
 2651POPC   C1A35535  22.810   2.855   8.728
 2651POPC   D2A35536  22.919   2.953   8.303
 2651POPC   C3A35537  22.835   2.633   8.025
 2651POPC   C4A35538  22.997   2.373   7.730
 2651POPC   C1B35539  23.304   2.999   8.740
 2651POPC   C2B35540  23.485   3.001   8.327
 2651POPC   C3B35541  23.288   3.072   7.920
 2651POPC   C4B35542  22.884   3.010   7.698
 2652POPC   NC335543   5.148  14.756   9.493
 2652POPC   PO435544   4.910  14.105   9.565
 2652POPC   GL135545   4.851  14.410   9.239
 2652POPC   GL235546   5.216  14.394   9.130
 2652POPC   C1A35547   4.862  14.633   8.838
 2652POPC   D2A35548   5.109  14.540   8.457
 2652POPC   C3A35549   4.911  14.467   8.076
 2652POPC   C4A35550   4.965  14.134   7.772
 2652POPC   C1B35551   5.395  14.713   8.839
 2652POPC   C2B35552   5.597  14.727   8.427
 2652POPC   C3B35553   5.396  14.683   8.021
 2652POPC   C4B35554   5.180  14.609   7.659
 2653POPC   NC335555  13.394  18.602   9.328
 2653POPC   PO435556  13.117  18.077   9.559
 2653POPC   GL135557  12.904  18.302   9.233
 2653POPC   GL235558  12.617  18.093   9.172
 2653POPC   C1A35559  12.964  18.330   8.775
 2653POPC   D2A35560  13.009  18.085   8.374
 2653POPC   C3A35561  12.862  18.193   7.937
 2653POPC   C4A35562  13.105  18.467   7.623
 2653POPC   C1B35563  12.470  18.147   8.764
 2653POPC   C2B35564  12.586  18.396   8.425
 2653POPC   C3B35565  12.392  18.415   8.080
 2653POPC   C4B35566  12.400  18.157   7.733
 2654POPC   NC335567  44.900  11.217   9.803
 2654POPC   PO435568   0.544  11.157   9.686
 2654POPC   GL135569   0.283  11.198   9.326
 2654POPC   GL235570   0.593  11.264   9.136
 2654POPC   C1A35571   0.162  11.343   8.897
 2654POPC   D2A35572   0.390  11.467   8.516
 2654POPC   C3A35573   0.256  11.288   8.123
 2654POPC   C4A35574   0.404  11.401   7.706
 2654POPC   C1B35575   0.688  11.053   8.729
 2654POPC   C2B35576   0.559  10.826   8.348
 2654POPC   C3B35577   0.605  10.951   7.909
 2654POPC   C4B35578   0.731  11.086   7.469
 2655POPC   NC335579  42.706  42.075   9.357
 2655POPC   PO435580  43.173  42.403   9.702
 2655POPC   GL135581  43.190  42.364   9.243
 2655POPC   GL235582  43.200  41.995   9.219
 2655POPC   C1A35583  43.295  42.580   8.831
 2655POPC   D2A35584  43.469  42.335   8.423
 2655POPC   C3A35585  43.268  42.322   8.024
 2655POPC   C4A35586  43.001  42.550   7.764
 2655POPC   C1B35587  43.198  42.100   8.788
 2655POPC   C2B35588  42.945  42.343   8.471
 2655POPC   C3B35589  42.745  42.217   8.097
 2655POPC   C4B35590  42.931  42.007   7.769
 2656POPC   NC335591  24.494  14.846   9.391
 2656POPC   PO435592  24.077  14.436   9.615
 2656POPC   GL135593  24.314  14.360   9.157
 2656POPC   GL235594  24.562  14.583   8.971
 2656POPC   C1A35595  24.278  14.272   8.697
 2656POPC   D2A35596  24.073  14.143   8.337
 2656POPC   C3A35597  24.316  14.028   7.997
 2656POPC   C4A35598  24.512  14.210   7.652
 2656POPC   C1B35599  24.753  14.520   8.580
 2656POPC   C2B35600  24.766  14.453   8.137
 2656POPC   C3B35601  24.686  14.675   7.792
 2656POPC   C4B35602  24.934  14.820   7.424
 2657POPC   NC335603  29.521  38.235   9.503
 2657POPC   PO435604  30.034  37.715   9.426
 2657POPC   GL135605  29.709  37.807   9.136
 2657POPC   GL235606  29.866  38.148   9.117
 2657POPC   C1A35607  29.720  37.541   8.751
 2657POPC   D2A35608  29.931  37.318   8.400
 2657POPC   C3A35609  30.102  37.491   8.042
 2657POPC   C4A35610  29.876  37.682   7.703
 2657POPC   C1B35611  30.060  37.945   8.776
 2657POPC   C2B35612  29.982  37.854   8.365
 2657POPC   C3B35613  29.743  38.047   8.030
 2657POPC   C4B35614  29.934  38.206   7.635
 2658POPC   NC335615  43.237  41.276   9.760
 2658POPC   PO435616  42.763  41.619   9.462
 2658POPC   GL135617  42.980  41.541   9.104
 2658POPC   GL235618  43.286  41.419   9.255
 2658POPC   C1A35619  43.138  41.626   8.668
 2658POPC   D2A35620  43.137  41.884   8.287
 2658POPC   C3A35621  43.112  41.571   7.984
 2658POPC   C4A35622  43.037  41.207   7.732
 2658POPC   C1B35623  43.301  41.195   8.863
 2658POPC   C2B35624  43.471  41.290   8.459
 2658POPC   C3B35625  43.436  41.170   8.041
 2658POPC   C4B35626  43.490  41.414   7.637
 2659POPC   NC335627  10.204   1.011   9.456
 2659POPC   PO435628  10.647   1.503   9.363
 2659POPC   GL135629  10.539   1.202   9.096
 2659POPC   GL235630  10.205   1.327   9.046
 2659POPC   C1A35631  10.447   1.037   8.708
 2659POPC   D2A35632  10.544   1.227   8.336
 2659POPC   C3A35633  10.306   1.218   7.966
 2659POPC   C4A35634  10.519   1.127   7.609
 2659POPC   C1B35635  10.392   1.567   8.698
 2659POPC   C2B35636  10.308   1.666   8.248
 2659POPC   C3B35637  10.110   1.761   7.873
 2659POPC   C4B35638  10.414   1.615   7.634
 2660POPC   NC335639  18.491  18.904   9.440
 2660POPC   PO435640  17.874  18.924   9.376
 2660POPC   GL135641  17.993  19.242   9.085
 2660POPC   GL235642  18.357  19.200   9.036
 2660POPC   C1A35643  17.993  19.417   8.664
 2660POPC   D2A35644  18.289  19.376   8.338
 2660POPC   C3A35645  18.211  19.335   7.878
 2660POPC   C4A35646  18.059  19.449   7.432
 2660POPC   C1B35647  18.338  18.920   8.687
 2660POPC   C2B35648  18.370  18.666   8.292
 2660POPC   C3B35649  18.478  18.788   7.869
 2660POPC   C4B35650  18.492  18.575   7.426
 2661POPC   NC335651   6.799   8.382   9.515
 2661POPC   PO435652   6.259   7.933   9.493
 2661POPC   GL135653   6.455   8.215   9.181
 2661POPC   GL235654   6.780   8.055   9.096
 2661POPC   C1A35655   6.614   8.437   8.824
 2661POPC   D2A35656   6.743   8.198   8.465
 2661POPC   C3A35657   6.560   8.075   8.077
 2661POPC   C4A35658   6.689   8.127   7.653
 2661POPC   C1B35659   7.107   8.277   8.816
 2661POPC   C2B35660   7.184   8.418   8.349
 2661POPC   C3B35661   7.009   8.488   7.922
 2661POPC   C4B35662   7.116   8.433   7.469
 2662POPC   NC335663  37.249  28.068   9.525
 2662POPC   PO435664  36.606  28.264   9.564
 2662POPC   GL135665  36.901  28.346   9.239
 2662POPC   GL235666  36.757  28.641   9.116
 2662POPC   C1A35667  37.062  28.302   8.816
 2662POPC   D2A35668  36.842  28.302   8.408
 2662POPC   C3A35669  37.051  28.251   8.027
 2662POPC   C4A35670  37.199  28.415   7.669
 2662POPC   C1B35671  36.591  28.572   8.758
 2662POPC   C2B35672  36.661  28.794   8.372
 2662POPC   C3B35673  36.627  28.593   8.008
 2662POPC   C4B35674  36.686  28.719   7.621
 2663POPC   NC335675   1.796  25.579   9.428
 2663POPC   PO435676   2.035  25.002   9.470
 2663POPC   GL135677   1.977  25.218   9.087
 2663POPC   GL235678   2.091  25.570   9.014
 2663POPC   C1A35679   2.016  25.182   8.643
 2663POPC   D2A35680   1.719  24.974   8.369
 2663POPC   C3A35681   1.890  25.056   7.999
 2663POPC   C4A35682   1.883  25.180   7.603
 2663POPC   C1B35683   1.763  25.624   8.692
 2663POPC   C2B35684   1.806  25.497   8.269
 2663POPC   C3B35685   2.165  25.490   7.995
 2663POPC   C4B35686   1.982  25.677   7.642
 2664POPC   NC335687  16.938  13.701   9.395
 2664POPC   PO435688  17.097  13.076   9.485
 2664POPC   GL135689  16.895  13.243   9.142
 2664POPC   GL235690  16.544  13.327   9.205
 2664POPC   C1A35691  16.928  13.468   8.747
 2664POPC   D2A35692  17.142  13.506   8.343
 2664POPC   C3A35693  16.885  13.717   8.036
 2664POPC   C4A35694  16.703  13.453   7.728
 2664POPC   C1B35695  16.440  13.630   8.876
 2664POPC   C2B35696  16.542  13.759   8.447
 2664POPC   C3B35697  16.368  13.682   8.037
 2664POPC   C4B35698  16.342  13.773   7.599
 2665POPC   NC335699  37.730  21.705   9.542
 2665POPC   PO435700  37.806  22.283   9.482
 2665POPC   GL135701  37.862  21.964   9.135
 2665POPC   GL235702  37.504  21.941   9.127
 2665POPC   C1A35703  37.768  21.821   8.700
 2665POPC   D2A35704  37.862  22.008   8.292
 2665POPC   C3A35705  37.649  22.029   7.895
 2665POPC   C4A35706  37.635  22.309   7.551
 2665POPC   C1B35707  37.329  22.087   8.728
 2665POPC   C2B35708  37.358  22.069   8.294
 2665POPC   C3B35709  37.339  22.433   7.956
 2665POPC   C4B35710  37.136  22.353   7.506
 2666POPC   NC335711  34.430   1.076   9.511
 2666POPC   PO435712  35.106   1.162   9.445
 2666POPC   GL135713  34.855   1.368   9.153
 2666POPC   GL235714  34.624   1.102   9.017
 2666POPC   C1A35715  34.869   1.423   8.707
 2666POPC   D2A35716  34.845   1.003   8.523
 2666POPC   C3A35717  34.821   1.006   8.082
 2666POPC   C4A35718  34.421   1.004   7.915
 2666POPC   C1B35719  34.343   1.110   8.617
 2666POPC   C2B35720  34.472   1.371   8.307
 2666POPC   C3B35721  34.498   1.556   7.923
 2666POPC   C4B35722  34.293   1.469   7.544
 2667POPC   NC335723  43.982  16.737   9.562
 2667POPC   PO435724  43.331  16.787   9.546
 2667POPC   GL135725  43.619  16.833   9.225
 2667POPC   GL235726  43.798  17.129   9.257
 2667POPC   C1A35727  43.868  16.706   8.884
 2667POPC   D2A35728  43.961  16.570   8.462
 2667POPC   C3A35729  43.976  16.676   8.028
 2667POPC   C4A35730  44.274  16.370   7.894
 2667POPC   C1B35731  43.556  17.162   8.854
 2667POPC   C2B35732  43.662  17.088   8.403
 2667POPC   C3B35733  43.599  17.084   7.940
 2667POPC   C4B35734  43.401  17.040   7.503
 2668POPC   NC335735  23.952   6.290   9.500
 2668POPC   PO435736  23.658   6.881   9.582
 2668POPC   GL135737  23.621   6.888   9.140
 2668POPC   GL235738  23.783   6.572   9.119
 2668POPC   C1A35739  23.535   6.704   8.721
 2668POPC   D2A35740  23.674   6.619   8.332
 2668POPC   C3A35741  23.497   6.914   8.068
 2668POPC   C4A35742  23.626   6.866   7.679
 2668POPC   C1B35743  24.078   6.427   8.775
 2668POPC   C2B35744  24.057   6.273   8.339
 2668POPC   C3B35745  23.873   6.356   7.911
 2668POPC   C4B35746  23.935   6.510   7.483
 2669POPC   NC335747  31.176   3.867   9.616
 2669POPC   PO435748  31.763   4.304   9.491
 2669POPC   GL135749  31.456   4.303   9.133
 2669POPC   GL235750  31.234   3.971   9.111
 2669POPC   C1A35751  31.554   4.464   8.688
 2669POPC   D2A35752  31.689   4.552   8.249
 2669POPC   C3A35753  31.399   4.365   7.970
 2669POPC   C4A35754  31.193   4.483   7.616
 2669POPC   C1B35755  31.444   3.942   8.712
 2669POPC   C2B35756  31.604   4.037   8.305
 2669POPC   C3B35757  31.691   3.929   7.871
 2669POPC   C4B35758  31.628   3.818   7.416
 2670POPC   NC335759  38.794   4.815   9.340
 2670POPC   PO435760  38.518   4.361   9.702
 2670POPC   GL135761  38.466   4.162   9.268
 2670POPC   GL235762  38.561   4.445   9.061
 2670POPC   C1A35763  38.376   4.008   8.828
 2670POPC   D2A35764  38.539   4.184   8.411
 2670POPC   C3A35765  38.392   4.127   7.957
 2670POPC   C4A35766  38.351   3.883   7.564
 2670POPC   C1B35767  38.734   4.679   8.689
 2670POPC   C2B35768  38.875   4.678   8.255
 2670POPC   C3B35769  38.698   4.656   7.834
 2670POPC   C4B35770  38.551   4.354   7.506
 2671POPC   NC335771  29.715  32.736   9.798
 2671POPC   PO435772  30.231  33.052   9.515
 2671POPC   GL135773  30.132  33.012   9.074
 2671POPC   GL235774  30.159  32.652   9.098
 2671POPC   C1A35775  30.017  33.168   8.637
 2671POPC   D2A35776  29.985  33.060   8.192
 2671POPC   C3A35777  29.882  33.311   7.861
 2671POPC   C4A35778  29.729  33.376   7.433
 2671POPC   C1B35779  30.070  32.469   8.682
 2671POPC   C2B35780  29.845  32.560   8.295
 2671POPC   C3B35781  29.947  32.629   7.884
 2671POPC   C4B35782  30.063  32.904   7.550
 2672POPC   NC335783  27.387  12.101   9.526
 2672POPC   PO435784  27.241  11.477   9.349
 2672POPC   GL135785  27.359  11.831   9.093
 2672POPC   GL235786  27.695  12.062   9.122
 2672POPC   C1A35787  27.521  11.892   8.684
 2672POPC   D2A35788  27.651  12.175   8.385
 2672POPC   C3A35789  27.569  11.950   8.025
 2672POPC   C4A35790  27.791  11.850   7.660
 2672POPC   C1B35791  27.442  12.384   8.879
 2672POPC   C2B35792  27.390  12.604   8.473
 2672POPC   C3B35793  27.290  12.420   8.061
 2672POPC   C4B35794  27.482  12.301   7.680
 2673POPC   NC335795   6.028  28.606   9.797
 2673POPC   PO435796   5.837  28.031   9.573
 2673POPC   GL135797   5.988  28.231   9.186
 2673POPC   GL235798   6.085  28.562   9.260
 2673POPC   C1A35799   5.917  28.148   8.765
 2673POPC   D2A35800   6.087  28.449   8.504
 2673POPC   C3A35801   5.950  28.389   8.088
 2673POPC   C4A35802   6.122  28.287   7.705
 2673POPC   C1B35803   6.071  28.806   8.868
 2673POPC   C2B35804   6.221  28.934   8.463
 2673POPC   C3B35805   6.324  28.721   8.105
 2673POPC   C4B35806   6.174  28.807   7.700
 2674POPC   NC335807  28.734   0.176   9.596
 2674POPC   PO435808  29.284   0.584   9.450
 2674POPC   GL135809  28.968   0.413   9.189
 2674POPC   GL235810  28.597   0.500   9.238
 2674POPC   C1A35811  28.875   0.639   8.819
 2674POPC   D2A35812  29.110   0.583   8.489
 2674POPC   C3A35813  28.924   0.682   8.110
 2674POPC   C4A35814  29.040   0.607   7.687
 2674POPC   C1B35815  28.590   0.221   8.899
 2674POPC   C2B35816  28.742   0.245   8.480
 2674POPC   C3B35817  29.001   0.183   8.110
 2674POPC   C4B35818  28.895   0.077   7.670
 2675POPC   NC335819  16.316  29.828   9.415
 2675POPC   PO435820  16.051  30.408   9.511
 2675POPC   GL135821  15.945  30.184   9.168
 2675POPC   GL235822  15.857  29.831   9.158
 2675POPC   C1A35823  15.817  30.188   8.760
 2675POPC   D2A35824  15.892  30.287   8.330
 2675POPC   C3A35825  16.111  29.967   8.129
 2675POPC   C4A35826  15.987  29.994   7.746
 2675POPC   C1B35827  15.901  29.523   8.789
 2675POPC   C2B35828  15.786  29.367   8.381
 2675POPC   C3B35829  15.829  29.551   7.995
 2675POPC   C4B35830  16.182  29.549   7.726
 2676POPC   NC335831  18.732  40.809   9.635
 2676POPC   PO435832  19.353  40.556   9.490
 2676POPC   GL135833  19.156  40.834   9.210
 2676POPC   GL235834  18.790  40.790   9.123
 2676POPC   C1A35835  19.209  40.754   8.792
 2676POPC   D2A35836  18.917  40.665   8.484
 2676POPC   C3A35837  19.086  40.752   8.087
 2676POPC   C4A35838  19.302  40.832   7.722
 2676POPC   C1B35839  18.864  41.137   8.801
 2676POPC   C2B35840  18.803  41.340   8.386
 2676POPC   C3B35841  18.965  41.245   7.991
 2676POPC   C4B35842  18.719  41.116   7.702
 2677POPC   NC335843  19.397  27.404   9.351
 2677POPC   PO435844  19.533  28.031   9.425
 2677POPC   GL135845  19.289  27.896   9.056
 2677POPC   GL235846  18.999  27.645   9.112
 2677POPC   C1A35847  19.260  27.671   8.672
 2677POPC   D2A35848  19.410  27.366   8.426
 2677POPC   C3A35849  19.333  27.513   8.047
 2677POPC   C4A35850  19.381  27.303   7.671
 2677POPC   C1B35851  18.753  27.657   8.738
 2677POPC   C2B35852  18.832  27.801   8.306
 2677POPC   C3B35853  18.808  27.624   7.901
 2677POPC   C4B35854  18.753  27.776   7.461
 2678POPC   NC335855  23.317  13.057   9.610
 2678POPC   PO435856  23.558  12.529   9.377
 2678POPC   GL135857  23.835  12.755   9.124
 2678POPC   GL235858  23.899  13.077   9.176
 2678POPC   C1A35859  24.011  12.711   8.755
 2678POPC   D2A35860  23.833  12.799   8.363
 2678POPC   C3A35861  23.552  12.559   8.131
 2678POPC   C4A35862  23.618  12.649   7.697
 2678POPC   C1B35863  23.704  13.137   8.768
 2678POPC   C2B35864  23.412  13.084   8.415
 2678POPC   C3B35865  23.523  13.065   8.001
 2678POPC   C4B35866  23.624  13.411   7.798
 2679POPC   NC335867  29.872  10.353   9.528
 2679POPC   PO435868  29.712  11.044   9.590
 2679POPC   GL135869  29.631  10.734   9.192
 2679POPC   GL235870  29.707  10.363   9.053
 2679POPC   C1A35871  29.663  10.691   8.695
 2679POPC   D2A35872  29.598  10.466   8.292
 2679POPC   C3A35873  29.713  10.750   7.951
 2679POPC   C4A35874  29.904  10.775   7.565
 2679POPC   C1B35875  30.050  10.293   8.761
 2679POPC   C2B35876  30.116  10.493   8.379
 2679POPC   C3B35877  30.061  10.353   7.994
 2679POPC   C4B35878  30.206  10.371   7.619
 2680POPC   NC335879  13.939  13.657   9.419
 2680POPC   PO435880  13.297  13.838   9.601
 2680POPC   GL135881  13.457  13.678   9.231
 2680POPC   GL235882  13.334  13.353   9.143
 2680POPC   C1A35883  13.485  13.691   8.792
 2680POPC   D2A35884  13.301  13.535   8.425
 2680POPC   C3A35885  13.571  13.722   8.121
 2680POPC   C4A35886  13.448  13.776   7.728
 2680POPC   C1B35887  13.484  13.160   8.718
 2680POPC   C2B35888  13.772  13.327   8.396
 2680POPC   C3B35889  13.819  13.285   7.936
 2680POPC   C4B35890  14.005  13.459   7.578
 2681POPC   NC335891  23.548  31.165   9.475
 2681POPC   PO435892  23.851  31.717   9.437
 2681POPC   GL135893  23.662  31.596   9.058
 2681POPC   GL235894  23.561  31.908   8.915
 2681POPC   C1A35895  23.387  31.350   8.797
 2681POPC   D2A35896  23.171  31.356   8.380
 2681POPC   C3A35897  23.403  31.570   8.026
 2681POPC   C4A35898  23.518  31.344   7.631
 2681POPC   C1B35899  23.545  31.753   8.509
 2681POPC   C2B35900  23.703  31.340   8.387
 2681POPC   C3B35901  23.891  31.356   8.007
 2681POPC   C4B35902  23.878  31.775   7.826
 2682POPC   NC335903  36.971  16.198   9.428
 2682POPC   PO435904  36.871  15.520   9.354
 2682POPC   GL135905  36.991  15.823   9.079
 2682POPC   GL235906  36.631  15.955   9.092
 2682POPC   C1A35907  37.214  15.828   8.693
 2682POPC   D2A35908  37.350  15.917   8.263
 2682POPC   C3A35909  37.032  16.022   7.911
 2682POPC   C4A35910  37.163  15.850   7.503
 2682POPC   C1B35911  36.645  15.708   8.714
 2682POPC   C2B35912  36.822  15.747   8.294
 2682POPC   C3B35913  36.571  15.784   7.889
 2682POPC   C4B35914  36.421  16.121   7.561
 2683POPC   NC335915  21.957  21.502   9.843
 2683POPC   PO435916  21.450  21.176   9.555
 2683POPC   GL135917  21.461  21.398   9.222
 2683POPC   GL235918  21.246  21.148   9.062
 2683POPC   C1A35919  21.388  21.557   8.828
 2683POPC   D2A35920  21.281  21.293   8.499
 2683POPC   C3A35921  21.358  21.494   8.139
 2683POPC   C4A35922  21.381  21.397   7.757
 2683POPC   C1B35923  21.682  21.131   8.841
 2683POPC   C2B35924  21.934  21.079   8.480
 2683POPC   C3B35925  21.733  21.120   8.097
 2683POPC   C4B35926  21.848  21.216   7.701
 2684POPC   NC335927  41.330  27.605   9.504
 2684POPC   PO435928  41.914  27.774   9.872
 2684POPC   GL135929  41.849  27.619   9.374
 2684POPC   GL235930  41.909  27.318   9.120
 2684POPC   C1A35931  41.678  27.743   8.929
 2684POPC   D2A35932  41.797  27.863   8.463
 2684POPC   C3A35933  41.726  27.648   8.060
 2684POPC   C4A35934  41.525  27.761   7.694
 2684POPC   C1B35935  41.587  27.238   8.805
 2684POPC   C2B35936  41.357  27.271   8.426
 2684POPC   C3B35937  41.445  27.192   8.033
 2684POPC   C4B35938  41.589  27.252   7.636
 2685POPC   NC335939  10.578   5.517   9.507
 2685POPC   PO435940  10.931   4.973   9.507
 2685POPC   GL135941  10.722   4.856   9.124
 2685POPC   GL235942  10.536   5.171   9.067
 2685POPC   C1A35943  10.798   4.959   8.682
 2685POPC   D2A35944  10.931   5.042   8.231
 2685POPC   C3A35945  10.673   4.864   7.876
 2685POPC   C4A35946  10.393   4.874   7.481
 2685POPC   C1B35947  10.319   5.169   8.645
 2685POPC   C2B35948  10.398   5.161   8.201
 2685POPC   C3B35949  10.353   5.298   7.761
 2685POPC   C4B35950  10.200   5.626   7.462
 2686POPC   NC335951  29.222  16.640   9.533
 2686POPC   PO435952  28.546  16.486   9.448
 2686POPC   GL135953  28.849  16.581   9.093
 2686POPC   GL235954  29.005  16.873   9.089
 2686POPC   C1A35955  28.893  16.699   8.618
 2686POPC   D2A35956  29.179  16.577   8.294
 2686POPC   C3A35957  29.021  16.380   7.927
 2686POPC   C4A35958  29.063  16.285   7.504
 2686POPC   C1B35959  29.355  16.803   8.814
 2686POPC   C2B35960  29.688  16.905   8.513
 2686POPC   C3B35961  29.617  16.764   8.105
 2686POPC   C4B35962  29.208  16.857   7.852
 2687POPC   NC335963  30.187   1.635   9.350
 2687POPC   PO435964  29.852   1.110   9.546
 2687POPC   GL135965  29.938   1.226   9.122
 2687POPC   GL235966  30.292   1.166   9.126
 2687POPC   C1A35967  29.766   1.324   8.709
 2687POPC   D2A35968  29.842   1.488   8.319
 2687POPC   C3A35969  29.767   1.230   7.988
 2687POPC   C4A35970  29.693   1.462   7.647
 2687POPC   C1B35971  30.268   1.268   8.709
 2687POPC   C2B35972  30.152   1.096   8.339
 2687POPC   C3B35973  30.264   1.145   7.932
 2687POPC   C4B35974  30.188   1.291   7.497
 2688POPC   NC335975  30.205   9.319   9.431
 2688POPC   PO435976  29.856   9.885   9.513
 2688POPC   GL135977  29.938   9.905   9.118
 2688POPC   GL235978  30.307   9.950   9.131
 2688POPC   C1A35979  29.762   9.602   8.814
 2688POPC   D2A35980  29.860   9.414   8.417
 2688POPC   C3A35981  29.826   9.625   8.021
 2688POPC   C4A35982  30.079   9.420   7.704
 2688POPC   C1B35983  30.229   9.791   8.712
 2688POPC   C2B35984  30.229   9.941   8.299
 2688POPC   C3B35985  30.282   9.877   7.874
 2688POPC   C4B35986  29.948   9.925   7.603
 2689POPC   NC335987  11.055  27.295   9.486
 2689POPC   PO435988  11.509  27.794   9.627
 2689POPC   GL135989  11.405  27.586   9.227
 2689POPC   GL235990  11.083  27.708   9.158
 2689POPC   C1A35991  11.552  27.675   8.795
 2689POPC   D2A35992  11.697  27.490   8.415
 2689POPC   C3A35993  11.667  27.761   8.074
 2689POPC   C4A35994  11.581  27.512   7.731
 2689POPC   C1B35995  11.089  27.461   8.795
 2689POPC   C2B35996  11.145  27.548   8.374
 2689POPC   C3B35997  11.135  27.383   7.954
 2689POPC   C4B35998  11.116  27.561   7.524
 2690POPC   NC335999  23.384  24.707   9.512
 2690POPC   PO436000  23.907  24.271   9.508
 2690POPC   GL136001  23.666  24.376   9.166
 2690POPC   GL236002  23.342  24.244   9.112
 2690POPC   C1A36003  23.784  24.516   8.768
 2690POPC   D2A36004  23.705  24.783   8.429
 2690POPC   C3A36005  23.842  24.621   8.031
 2690POPC   C4A36006  23.652  24.624   7.621
 2690POPC   C1B36007  23.453  24.113   8.714
 2690POPC   C2B36008  23.553  24.296   8.337
 2690POPC   C3B36009  23.367  24.319   7.958
 2690POPC   C4B36010  23.333  24.252   7.531
 2691POPC   NC336011  28.463   2.328   9.470
 2691POPC   PO436012  28.173   1.792   9.477
 2691POPC   GL136013  28.363   1.958   9.140
 2691POPC   GL236014  28.696   1.927   9.232
 2691POPC   C1A36015  28.486   2.208   8.777
 2691POPC   D2A36016  28.586   2.033   8.371
 2691POPC   C3A36017  28.660   2.221   7.983
 2691POPC   C4A36018  28.393   2.343   7.693
 2691POPC   C1B36019  28.678   1.735   8.814
 2691POPC   C2B36020  28.849   1.613   8.425
 2691POPC   C3B36021  28.846   1.722   8.023
 2691POPC   C4B36022  28.767   1.851   7.613
 2692POPC   NC336023  25.449  33.582   9.475
 2692POPC   PO436024  24.973  34.021   9.534
 2692POPC   GL136025  25.122  33.892   9.140
 2692POPC   GL236026  25.069  33.539   9.149
 2692POPC   C1A36027  25.400  33.686   8.823
 2692POPC   D2A36028  25.539  33.577   8.429
 2692POPC   C3A36029  25.312  33.708   8.097
 2692POPC   C4A36030  25.423  33.819   7.720
 2692POPC   C1B36031  24.961  33.412   8.715
 2692POPC   C2B36032  24.885  33.468   8.275
 2692POPC   C3B36033  24.903  33.482   7.818
 2692POPC   C4B36034  25.076  33.637   7.407
 2693POPC   NC336035  22.727  40.999   9.505
 2693POPC   PO436036  23.262  40.604   9.429
 2693POPC   GL136037  23.059  40.828   9.144
 2693POPC   GL236038  22.741  40.641   9.127
 2693POPC   C1A36039  23.072  40.792   8.727
 2693POPC   D2A36040  22.918  40.601   8.360
 2693POPC   C3A36041  23.187  40.582   8.000
 2693POPC   C4A36042  23.269  40.775   7.609
 2693POPC   C1B36043  22.541  40.686   8.725
 2693POPC   C2B36044  22.383  40.788   8.314
 2693POPC   C3B36045  22.649  40.856   7.961
 2693POPC   C4B36046  22.748  40.532   7.685
 2694POPC   NC336047  32.391  23.596   9.564
 2694POPC   PO436048  31.876  23.846   9.289
 2694POPC   GL136049  32.176  23.622   9.052
 2694POPC   GL236050  32.461  23.358   9.121
 2694POPC   C1A36051  32.252  23.781   8.632
 2694POPC   D2A36052  32.547  23.969   8.324
 2694POPC   C3A36053  32.350  23.853   7.931
 2694POPC   C4A36054  31.975  24.047   7.795
 2694POPC   C1B36055  32.263  23.231   8.758
 2694POPC   C2B36056  32.287  23.362   8.344
 2694POPC   C3B36057  32.452  23.353   7.945
 2694POPC   C4B36058  32.287  23.289   7.580
 2695POPC   NC336059  13.782  15.208   9.609
 2695POPC   PO436060  13.286  15.623   9.421
 2695POPC   GL136061  13.587  15.360   9.162
 2695POPC   GL236062  13.966  15.340   9.140
 2695POPC   C1A36063  13.658  15.162   8.764
 2695POPC   D2A36064  13.458  15.334   8.407
 2695POPC   C3A36065  13.399  15.072   8.063
 2695POPC   C4A36066  13.619  14.748   7.830
 2695POPC   C1B36067  14.041  15.506   8.738
 2695POPC   C2B36068  14.181  15.458   8.323
 2695POPC   C3B36069  13.916  15.176   8.091
 2695POPC   C4B36070  13.728  15.233   7.687
 2696POPC   NC336071  14.497   5.688   9.810
 2696POPC   PO436072  14.055   6.123   9.569
 2696POPC   GL136073  14.228   5.826   9.259
 2696POPC   GL236074  14.591   5.788   9.223
 2696POPC   C1A36075  14.258   5.746   8.799
 2696POPC   D2A36076  14.423   5.917   8.398
 2696POPC   C3A36077  14.464   5.708   8.001
 2696POPC   C4A36078  14.313   5.849   7.566
 2696POPC   C1B36079  14.739   5.962   8.828
 2696POPC   C2B36080  14.745   6.323   8.502
 2696POPC   C3B36081  14.692   6.288   8.069
 2696POPC   C4B36082  14.799   5.982   7.729
 2697POPC   NC336083   7.347  20.583   9.492
 2697POPC   PO436084   7.940  20.590   9.261
 2697POPC   GL136085   7.580  20.531   9.022
 2697POPC   GL236086   7.266  20.298   9.075
 2697POPC   C1A36087   7.739  20.577   8.616
 2697POPC   D2A36088   7.532  20.556   8.286
 2697POPC   C3A36089   7.701  20.610   7.965
 2697POPC   C4A36090   7.674  20.421   7.554
 2697POPC   C1B36091   7.198  20.481   8.669
 2697POPC   C2B36092   7.087  20.337   8.252
 2697POPC   C3B36093   7.189  20.511   7.862
 2697POPC   C4B36094   7.221  20.532   7.405
 2698POPC   NC336095  40.271   0.341   9.785
 2698POPC   PO436096  40.811   0.460   9.555
 2698POPC   GL136097  40.763   0.636   9.135
 2698POPC   GL236098  40.394   0.774   9.132
 2698POPC   C1A36099  40.637   0.593   8.722
 2698POPC   D2A36100  40.430   0.324   8.467
 2698POPC   C3A36101  40.573   0.346   8.055
 2698POPC   C4A36102  40.876   0.595   7.830
 2698POPC   C1B36103  40.203   0.832   8.688
 2698POPC   C2B36104  40.430   0.851   8.263
 2698POPC   C3B36105  40.379   0.749   7.785
 2698POPC   C4B36106  40.228   0.662   7.324
 2699POPC   NC336107  17.054  18.229   9.442
 2699POPC   PO436108  16.401  18.007   9.574
 2699POPC   GL136109  16.360  18.239   9.186
 2699POPC   GL236110  16.114  17.988   9.074
 2699POPC   C1A36111  16.636  18.439   8.849
 2699POPC   D2A36112  16.985  18.561   8.546
 2699POPC   C3A36113  16.961  18.395   8.107
 2699POPC   C4A36114  16.660  18.431   7.758
 2699POPC   C1B36115  16.422  17.998   8.742
 2699POPC   C2B36116  16.527  18.247   8.383
 2699POPC   C3B36117  16.501  18.028   8.009
 2699POPC   C4B36118  16.867  17.971   7.773
 2700POPC   NC336119   0.580  42.054   9.368
 2700POPC   PO436120   0.676  41.586   9.855
 2700POPC   GL136121   0.752  41.604   9.291
 2700POPC   GL236122   0.976  41.314   9.193
 2700POPC   C1A36123   0.522  41.679   8.809
 2700POPC   D2A36124   0.241  41.642   8.411
 2700POPC   C3A36125   0.385  41.664   7.984
 2700POPC   C4A36126   0.557  41.986   7.680
 2700POPC   C1B36127   0.849  41.254   8.752
 2700POPC   C2B36128   0.710  41.377   8.318
 2700POPC   C3B36129   0.696  41.235   7.884
 2700POPC   C4B36130   0.561  41.482   7.525
 2701POPC   NC336131  29.316  37.444   9.307
 2701POPC   PO436132  29.096  38.020   9.488
 2701POPC   GL136133  29.140  37.895   9.098
 2701POPC   GL236134  28.889  37.638   9.109
 2701POPC   C1A36135  29.237  37.744   8.691
 2701POPC   D2A36136  29.491  37.708   8.328
 2701POPC   C3A36137  29.322  37.740   7.946
 2701POPC   C4A36138  29.458  37.970   7.604
 2701POPC   C1B36139  28.906  37.331   8.741
 2701POPC   C2B36140  28.979  37.428   8.299
 2701POPC   C3B36141  29.132  37.258   7.912
 2701POPC   C4B36142  29.042  37.254   7.473
 2702POPC   NC336143  34.499   2.879   9.516
 2702POPC   PO436144  34.060   2.273   9.343
 2702POPC   GL136145  34.480   2.478   9.158
 2702POPC   GL236146  34.835   2.475   9.272
 2702POPC   C1A36147  34.447   2.838   8.837
 2702POPC   D2A36148  34.402   2.579   8.448
 2702POPC   C3A36149  34.563   2.562   8.026
 2702POPC   C4A36150  34.420   2.823   7.664
 2702POPC   C1B36151  34.875   2.591   8.826
 2702POPC   C2B36152  34.898   3.025   8.627
 2702POPC   C3B36153  34.860   3.150   8.181
 2702POPC   C4B36154  34.889   2.878   7.820
 2703POPC   NC336155  22.840  16.131   9.512
 2703POPC   PO436156  23.186  15.701   9.876
 2703POPC   GL136157  23.146  15.718   9.348
 2703POPC   GL236158  23.261  16.001   9.157
 2703POPC   C1A36159  22.986  15.656   8.862
 2703POPC   D2A36160  23.078  15.831   8.431
 2703POPC   C3A36161  22.878  16.050   8.084
 2703POPC   C4A36162  23.014  15.875   7.713
 2703POPC   C1B36163  23.276  16.184   8.743
 2703POPC   C2B36164  23.226  16.379   8.288
 2703POPC   C3B36165  23.279  16.293   7.807
 2703POPC   C4B36166  23.231  16.213   7.322
 2704POPC   NC336167  19.139  42.853   9.514
 2704POPC   PO436168  19.220  42.159   9.478
 2704POPC   GL136169  19.057  42.219   9.126
 2704POPC   GL236170  19.130  42.550   9.113
 2704POPC   C1A36171  19.126  42.147   8.708
 2704POPC   D2A36172  19.275  42.167   8.317
 2704POPC   C3A36173  19.096  42.098   7.948
 2704POPC   C4A36174  18.959  42.020   7.556
 2704POPC   C1B36175  18.966  42.624   8.738
 2704POPC   C2B36176  19.188  42.668   8.391
 2704POPC   C3B36177  18.941  42.631   8.071
 2704POPC   C4B36178  18.894  42.489   7.704
 2705POPC   NC336179  33.375  32.556   9.460
 2705POPC   PO436180  33.326  31.855   9.602
 2705POPC   GL136181  33.091  32.092   9.347
 2705POPC   GL236182  33.345  32.158   9.139
 2705POPC   C1A36183  32.839  32.107   8.977
 2705POPC   D2A36184  32.751  32.113   8.527
 2705POPC   C3A36185  32.953  32.191   8.163
 2705POPC   C4A36186  33.058  32.342   7.765
 2705POPC   C1B36187  33.198  32.426   8.814
 2705POPC   C2B36188  33.227  32.541   8.415
 2705POPC   C3B36189  33.459  32.430   8.068
 2705POPC   C4B36190  33.422  32.698   7.714
 2706POPC   NC336191  13.155  20.414   9.464
 2706POPC   PO436192  12.637  20.869   9.452
 2706POPC   GL136193  12.812  20.761   9.083
 2706POPC   GL236194  12.748  20.417   9.139
 2706POPC   C1A36195  12.665  20.612   8.668
 2706POPC   D2A36196  12.539  20.749   8.267
 2706POPC   C3A36197  12.843  20.589   7.954
 2706POPC   C4A36198  13.008  20.746   7.567
 2706POPC   C1B36199  13.082  20.368   8.817
 2706POPC   C2B36200  12.994  20.282   8.401
 2706POPC   C3B36201  13.202  20.142   8.091
 2706POPC   C4B36202  13.215  20.290   7.695
 2707POPC   NC336203  44.471  18.136   9.830
 2707POPC   PO436204  44.982  18.473   9.488
 2707POPC   GL136205  44.696  18.245   9.247
 2707POPC   GL236206  44.328  18.309   9.263
 2707POPC   C1A36207  44.590  18.262   8.831
 2707POPC   D2A36208  44.554  18.365   8.451
 2707POPC   C3A36209  44.782  18.188   8.121
 2707POPC   C4A36210  44.689  18.435   7.753
 2707POPC   C1B36211  44.171  17.993   8.959
 2707POPC   C2B36212  44.321  17.895   8.537
 2707POPC   C3B36213  44.272  18.100   8.111
 2707POPC   C4B36214  44.380  18.045   7.667
 2708POPC   NC336215  29.880  20.221   9.573
 2708POPC   PO436216  30.111  19.662   9.892
 2708POPC   GL136217  30.106  19.849   9.333
 2708POPC   GL236218  30.212  20.172   9.200
 2708POPC   C1A36219  29.984  19.840   8.851
 2708POPC   D2A36220  29.762  19.827   8.431
 2708POPC   C3A36221  29.982  19.718   8.008
 2708POPC   C4A36222  29.911  19.682   7.514
 2708POPC   C1B36223  30.043  20.367   8.862
 2708POPC   C2B36224  30.039  20.288   8.468
 2708POPC   C3B36225  29.862  20.210   8.116
 2708POPC   C4B36226  30.011  20.137   7.721
 2709POPC   NC336227  15.548  20.220   9.483
 2709POPC   PO436228  15.981  20.768   9.499
 2709POPC   GL136229  16.073  20.637   9.101
 2709POPC   GL236230  15.812  20.411   9.098
 2709POPC   C1A36231  15.965  20.656   8.666
 2709POPC   D2A36232  16.169  20.571   8.336
 2709POPC   C3A36233  16.026  20.412   7.983
 2709POPC   C4A36234  15.958  20.656   7.654
 2709POPC   C1B36235  15.673  20.184   8.770
 2709POPC   C2B36236  15.705  20.299   8.370
 2709POPC   C3B36237  15.528  20.405   7.995
 2709POPC   C4B36238  15.469  20.565   7.600
 2710POPC   NC336239  20.070  27.922   9.534
 2710POPC   PO436240  19.796  27.227   9.513
 2710POPC   GL136241  19.870  27.357   9.149
 2710POPC   GL236242  20.134  27.531   9.204
 2710POPC   C1A36243  19.750  27.479   8.785
 2710POPC   D2A36244  19.893  27.198   8.488
 2710POPC   C3A36245  19.949  27.435   8.129
 2710POPC   C4A36246  19.769  27.583   7.771
 2710POPC   C1B36247  20.226  27.652   8.774
 2710POPC   C2B36248  20.025  27.871   8.408
 2710POPC   C3B36249  20.145  27.883   7.963
 2710POPC   C4B36250  20.086  27.872   7.510
 2711POPC   NC336251  41.138   4.952   9.696
 2711POPC   PO436252  40.706   5.432   9.628
 2711POPC   GL136253  40.706   5.252   9.211
 2711POPC   GL236254  41.034   5.280   9.269
 2711POPC   C1A36255  40.654   5.038   8.786
 2711POPC   D2A36256  40.788   4.780   8.431
 2711POPC   C3A36257  40.878   4.918   8.023
 2711POPC   C4A36258  40.583   5.096   7.720
 2711POPC   C1B36259  41.104   5.331   8.853
 2711POPC   C2B36260  40.986   5.250   8.453
 2711POPC   C3B36261  40.913   5.409   8.090
 2711POPC   C4B36262  41.038   5.318   7.726
 2712POPC   NC336263  21.456  38.708   9.769
 2712POPC   PO436264  21.561  38.029   9.798
 2712POPC   GL136265  21.421  38.151   9.315
 2712POPC   GL236266  21.701  38.144   9.055
 2712POPC   C1A36267  21.209  38.088   8.891
 2712POPC   D2A36268  21.115  38.335   8.511
 2712POPC   C3A36269  21.155  38.313   8.069
 2712POPC   C4A36270  21.044  38.630   7.765
 2712POPC   C1B36271  21.595  38.401   8.686
 2712POPC   C2B36272  21.448  38.705   8.367
 2712POPC   C3B36273  21.500  38.675   7.947
 2712POPC   C4B36274  21.842  38.706   7.731
 2713POPC   NC336275  36.004  16.381   9.609
 2713POPC   PO436276  36.129  17.054   9.528
 2713POPC   GL136277  36.138  16.702   9.228
 2713POPC   GL236278  35.791  16.578   9.185
 2713POPC   C1A36279  36.313  16.549   8.844
 2713POPC   D2A36280  36.169  16.731   8.445
 2713POPC   C3A36281  36.390  16.807   8.063
 2713POPC   C4A36282  36.303  16.606   7.672
 2713POPC   C1B36283  35.813  16.476   8.747
 2713POPC   C2B36284  35.898  16.313   8.309
 2713POPC   C3B36285  35.875  16.609   7.960
 2713POPC   C4B36286  35.744  16.616   7.517
 2714POPC   NC336287  27.955  20.770   9.577
 2714POPC   PO436288  27.500  20.370   9.469
 2714POPC   GL136289  27.687  20.544   9.146
 2714POPC   GL236290  27.706  20.884   9.125
 2714POPC   C1A36291  27.758  20.396   8.747
 2714POPC   D2A36292  27.458  20.088   8.507
 2714POPC   C3A36293  27.419  20.144   8.064
 2714POPC   C4A36294  27.539  20.413   7.717
 2714POPC   C1B36295  27.428  20.787   8.771
 2714POPC   C2B36296  27.508  20.622   8.356
 2714POPC   C3B36297  27.669  20.829   8.016
 2714POPC   C4B36298  27.509  20.896   7.599
 2715POPC   NC336299  25.443  42.530   9.850
 2715POPC   PO436300  24.969  42.115   9.804
 2715POPC   GL136301  25.279  42.424   9.398
 2715POPC   GL236302  25.645  42.486   9.353
 2715POPC   C1A36303  25.323  42.408   8.910
 2715POPC   D2A36304  25.517  42.074   8.633
 2715POPC   C3A36305  25.441  42.053   8.182
 2715POPC   C4A36306  25.296  42.184   7.800
 2715POPC   C1B36307  25.823  42.486   8.905
 2715POPC   C2B36308  25.596  42.562   8.497
 2715POPC   C3B36309  25.508  42.595   8.057
 2715POPC   C4B36310  25.279  42.674   7.683
 2716POPC   NC336311  27.323  24.493   9.570
 2716POPC   PO436312  26.625  24.499   9.637
 2716POPC   GL136313  26.632  24.387   9.213
 2716POPC   GL236314  26.865  24.627   9.124
 2716POPC   C1A36315  26.699  24.272   8.774
 2716POPC   D2A36316  26.653  24.530   8.412
 2716POPC   C3A36317  26.508  24.351   8.056
 2716POPC   C4A36318  26.481  24.539   7.672
 2716POPC   C1B36319  27.009  24.718   8.731
 2716POPC   C2B36320  27.107  24.743   8.293
 2716POPC   C3B36321  26.896  24.747   7.905
 2716POPC   C4B36322  27.098  24.949   7.537
 2717POPC   NC336323  24.749  28.308   9.567
 2717POPC   PO436324  24.064  28.465   9.477
 2717POPC   GL136325  24.412  28.356   9.181
 2717POPC   GL236326  24.500  28.705   9.112
 2717POPC   C1A36327  24.569  28.359   8.735
 2717POPC   D2A36328  24.779  28.543   8.375
 2717POPC   C3A36329  24.707  28.402   7.947
 2717POPC   C4A36330  24.400  28.141   7.732
 2717POPC   C1B36331  24.170  28.644   8.768
 2717POPC   C2B36332  24.270  28.593   8.311
 2717POPC   C3B36333  24.232  28.602   7.852
 2717POPC   C4B36334  24.136  28.537   7.394
 2718POPC   NC336335  42.961  44.798   9.554
 2718POPC   PO436336  43.239  44.199   9.617
 2718POPC   GL136337  43.068  44.359   9.225
 2718POPC   GL236338  43.230  44.656   9.136
 2718POPC   C1A36339  43.054  44.377   8.756
 2718POPC   D2A36340  42.885  44.345   8.322
 2718POPC   C3A36341  43.064  44.657   8.056
 2718POPC   C4A36342  43.321  44.622   7.699
 2718POPC   C1B36343  43.211  44.890   8.762
 2718POPC   C2B36344  43.200   0.064   8.372
 2718POPC   C3B36345  43.449   0.044   8.025
 2718POPC   C4B36346  43.359   0.131   7.602
 2719POPC   NC336347  44.772  27.413   9.680
 2719POPC   PO436348  44.783  27.976   9.266
 2719POPC   GL136349  44.736  27.505   9.118
 2719POPC   GL236350  44.637  27.708   8.851
 2719POPC   C1A36351  44.804  27.248   8.761
 2719POPC   D2A36352  44.934  27.534   8.440
 2719POPC   C3A36353  44.911  27.320   8.108
 2719POPC   C4A36354  44.650  27.295   7.784
 2719POPC   C1B36355  44.272  27.854   8.669
 2719POPC   C2B36356  44.258  27.931   8.262
 2719POPC   C3B36357  44.599  27.776   8.021
 2719POPC   C4B36358  44.638  27.784   7.601
 2720POPC   NC336359   5.890  30.403   9.516
 2720POPC   PO436360   5.917  31.158   9.583
 2720POPC   GL136361   5.888  30.985   9.154
 2720POPC   GL236362   5.664  30.721   9.176
 2720POPC   C1A36363   6.086  30.880   8.728
 2720POPC   D2A36364   6.110  31.118   8.328
 2720POPC   C3A36365   5.960  30.883   7.982
 2720POPC   C4A36366   6.135  30.505   7.788
 2720POPC   C1B36367   5.828  30.447   8.826
 2720POPC   C2B36368   5.967  30.493   8.378
 2720POPC   C3B36369   5.712  30.435   8.020
 2720POPC   C4B36370   5.422  30.516   7.709
 2721POPC   NC336371  25.747   3.995   9.531
 2721POPC   PO436372  26.232   4.494   9.472
 2721POPC   GL136373  26.016   4.300   9.170
 2721POPC   GL236374  26.249   4.090   9.095
 2721POPC   C1A36375  26.063   4.378   8.714
 2721POPC   D2A36376  26.252   4.406   8.301
 2721POPC   C3A36377  26.014   4.317   7.930
 2721POPC   C4A36378  25.874   4.010   7.625
 2721POPC   C1B36379  26.219   3.890   8.747
 2721POPC   C2B36380  25.988   3.961   8.364
 2721POPC   C3B36381  26.204   3.851   7.996
 2721POPC   C4B36382  26.385   3.873   7.567
 2722POPC   NC336383  22.263   0.080   9.601
 2722POPC   PO436384  22.558  44.446   9.483
 2722POPC   GL136385  22.397  44.654   9.120
 2722POPC   GL236386  22.092  44.819   9.165
 2722POPC   C1A36387  22.349  44.860   8.714
 2722POPC   D2A36388  22.122  44.995   8.332
 2722POPC   C3A36389  22.370  44.850   7.974
 2722POPC   C4A36390  22.409  44.682   7.536
 2722POPC   C1B36391  21.894  44.600   8.793
 2722POPC   C2B36392  21.961  44.481   8.334
 2722POPC   C3B36393  21.991  44.530   7.854
 2722POPC   C4B36394  22.009  44.393   7.396
 2723POPC   NC336395  14.876   1.373   9.486
 2723POPC   PO436396  14.499   0.862   9.444
 2723POPC   GL136397  14.416   1.249   9.237
 2723POPC   GL236398  14.698   1.145   9.043
 2723POPC   C1A36399  14.355   1.487   8.853
 2723POPC   D2A36400  14.315   1.446   8.411
 2723POPC   C3A36401  14.311   1.261   7.998
 2723POPC   C4A36402  14.034   1.430   7.686
 2723POPC   C1B36403  14.788   1.328   8.624
 2723POPC   C2B36404  14.774   1.464   8.175
 2723POPC   C3B36405  14.815   1.164   7.788
 2723POPC   C4B36406  14.753   0.976   7.359
 2724POPC   NC336407  33.040  27.064  10.111
 2724POPC   PO436408  32.862  27.167   9.425
 2724POPC   GL136409  33.044  26.934   9.055
 2724POPC   GL236410  33.154  26.577   9.082
 2724POPC   C1A36411  32.887  26.671   8.672
 2724POPC   D2A36412  32.889  26.448   8.300
 2724POPC   C3A36413  32.797  26.729   7.985
 2724POPC   C4A36414  32.881  26.718   7.546
 2724POPC   C1B36415  33.381  26.763   8.697
 2724POPC   C2B36416  33.269  26.779   8.240
 2724POPC   C3B36417  33.195  26.988   7.829
 2724POPC   C4B36418  33.148  27.131   7.365
 2725POPC   NC336419   1.877  18.458   9.221
 2725POPC   PO436420   2.361  18.789   9.505
 2725POPC   GL136421   2.064  18.938   9.200
 2725POPC   GL236422   2.179  19.277   9.093
 2725POPC   C1A36423   1.944  18.921   8.759
 2725POPC   D2A36424   2.157  19.072   8.407
 2725POPC   C3A36425   1.841  19.129   8.094
 2725POPC   C4A36426   1.864  19.113   7.654
 2725POPC   C1B36427   2.367  19.529   8.761
 2725POPC   C2B36428   2.507  19.492   8.349
 2725POPC   C3B36429   2.345  19.333   7.952
 2725POPC   C4B36430   2.441  19.328   7.476
 2726POPC   NC336431  32.768  39.648   9.683
 2726POPC   PO436432  33.168  39.072   9.787
 2726POPC   GL136433  33.079  39.231   9.352
 2726POPC   GL236434  32.707  39.282   9.242
 2726POPC   C1A36435  33.056  39.096   8.910
 2726POPC   D2A36436  32.903  39.273   8.512
 2726POPC   C3A36437  32.935  39.036   8.118
 2726POPC   C4A36438  33.153  39.049   7.716
 2726POPC   C1B36439  32.534  39.496   8.849
 2726POPC   C2B36440  32.595  39.673   8.391
 2726POPC   C3B36441  32.844  39.534   8.047
 2726POPC   C4B36442  32.739  39.344   7.695
 2727POPC   NC336443  16.330  29.134   9.645
 2727POPC   PO436444  16.735  29.678   9.531
 2727POPC   GL136445  16.624  29.346   9.229
 2727POPC   GL236446  16.945  29.171   9.181
 2727POPC   C1A36447  16.476  29.320   8.776
 2727POPC   D2A36448  16.313  29.515   8.342
 2727POPC   C3A36449  16.539  29.305   7.981
 2727POPC   C4A36450  16.519  28.883   7.909
 2727POPC   C1B36451  17.031  29.007   8.759
 2727POPC   C2B36452  16.824  28.855   8.367
 2727POPC   C3B36453  17.001  28.804   7.976
 2727POPC   C4B36454  16.970  29.082   7.664
 2728POPC   NC336455   3.448  29.688   9.356
 2728POPC   PO436456   3.537  30.374   9.450
 2728POPC   GL136457   3.461  30.119   9.105
 2728POPC   GL236458   3.814  30.052   9.023
 2728POPC   C1A36459   3.442  30.038   8.656
 2728POPC   D2A36460   3.235  29.930   8.286
 2728POPC   C3A36461   3.472  29.997   7.957
 2728POPC   C4A36462   3.332  29.890   7.600
 2728POPC   C1B36463   3.766  29.657   8.772
 2728POPC   C2B36464   3.904  29.487   8.382
 2728POPC   C3B36465   3.820  29.602   7.953
 2728POPC   C4B36466   3.691  29.518   7.521
 2729POPC   NC336467  30.625   7.045   9.526
 2729POPC   PO436468  31.070   6.547   9.680
 2729POPC   GL136469  30.852   6.635   9.282
 2729POPC   GL236470  30.523   6.575   9.247
 2729POPC   C1A36471  30.887   6.516   8.839
 2729POPC   D2A36472  30.796   6.727   8.449
 2729POPC   C3A36473  30.971   6.502   8.121
 2729POPC   C4A36474  30.875   6.631   7.741
 2729POPC   C1B36475  30.417   6.691   8.828
 2729POPC   C2B36476  30.333   6.455   8.481
 2729POPC   C3B36477  30.477   6.383   8.097
 2729POPC   C4B36478  30.390   6.519   7.703
 2730POPC   NC336479  12.548  27.404   9.465
 2730POPC   PO436480  13.129  27.791   9.579
 2730POPC   GL136481  12.976  27.589   9.225
 2730POPC   GL236482  12.670  27.781   9.163
 2730POPC   C1A36483  12.965  27.396   8.831
 2730POPC   D2A36484  12.745  27.336   8.477
 2730POPC   C3A36485  13.009  27.330   8.105
 2730POPC   C4A36486  12.870  27.403   7.686
 2730POPC   C1B36487  12.526  27.689   8.794
 2730POPC   C2B36488  12.629  27.825   8.415
 2730POPC   C3B36489  12.552  27.600   8.074
 2730POPC   C4B36490  12.501  27.728   7.683
 2731POPC   NC336491  13.127  19.555   9.474
 2731POPC   PO436492  13.775  19.955   9.466
 2731POPC   GL136493  13.535  19.757   9.157
 2731POPC   GL236494  13.239  19.920   9.021
 2731POPC   C1A36495  13.430  19.478   8.829
 2731POPC   D2A36496  13.608  19.496   8.432
 2731POPC   C3A36497  13.387  19.541   8.077
 2731POPC   C4A36498  13.407  19.823   7.764
 2731POPC   C1B36499  13.470  19.994   8.642
 2731POPC   C2B36500  13.699  19.973   8.244
 2731POPC   C3B36501  13.689  20.255   7.894
 2731POPC   C4B36502  13.701  20.249   7.459
 2732POPC   NC336503   8.342   0.531   9.643
 2732POPC   PO436504   7.873   0.202   9.302
 2732POPC   GL136505   8.155   0.524   9.139
 2732POPC   GL236506   8.529   0.516   9.173
 2732POPC   C1A36507   8.287   0.435   8.738
 2732POPC   D2A36508   8.350   0.156   8.403
 2732POPC   C3A36509   8.216   0.313   8.006
 2732POPC   C4A36510   8.156   0.570   7.666
 2732POPC   C1B36511   8.658   0.768   8.823
 2732POPC   C2B36512   8.584   0.633   8.380
 2732POPC   C3B36513   8.561   0.733   7.956
 2732POPC   C4B36514   8.661   0.516   7.586
 2733POPC   NC336515  33.969  14.204   9.292
 2733POPC   PO436516  33.519  14.650   9.555
 2733POPC   GL136517  33.735  14.596   9.122
 2733POPC   GL236518  34.023  14.825   9.049
 2733POPC   C1A36519  33.678  14.368   8.690
 2733POPC   D2A36520  33.469  14.339   8.270
 2733POPC   C3A36521  33.600  14.064   7.912
 2733POPC   C4A36522  33.929  14.216   7.680
 2733POPC   C1B36523  34.149  14.977   8.665
 2733POPC   C2B36524  33.976  14.663   8.375
 2733POPC   C3B36525  33.818  14.574   8.000
 2733POPC   C4B36526  33.470  14.515   7.738
 2734POPC   NC336527  23.123  17.712   9.712
 2734POPC   PO436528  22.686  17.304   9.401
 2734POPC   GL136529  22.918  17.465   9.112
 2734POPC   GL236530  23.245  17.504   9.234
 2734POPC   C1A36531  22.859  17.501   8.689
 2734POPC   D2A36532  23.045  17.472   8.324
 2734POPC   C3A36533  22.711  17.400   8.064
 2734POPC   C4A36534  22.580  17.276   7.666
 2734POPC   C1B36535  23.359  17.546   8.800
 2734POPC   C2B36536  23.431  17.797   8.465
 2734POPC   C3B36537  23.347  17.827   8.057
 2734POPC   C4B36538  23.037  17.644   7.787
 2735POPC   NC336539  42.745  23.468   9.539
 2735POPC   PO436540  42.132  23.863   9.544
 2735POPC   GL136541  42.238  23.728   9.186
 2735POPC   GL236542  42.507  23.889   9.127
 2735POPC   C1A36543  42.153  23.617   8.791
 2735POPC   D2A36544  42.190  23.782   8.372
 2735POPC   C3A36545  42.106  23.524   8.007
 2735POPC   C4A36546  42.032  23.440   7.578
 2735POPC   C1B36547  42.597  23.886   8.732
 2735POPC   C2B36548  42.733  23.733   8.372
 2735POPC   C3B36549  42.570  23.823   8.015
 2735POPC   C4B36550  42.459  23.674   7.655
 2736POPC   NC336551  40.491  16.586   9.712
 2736POPC   PO436552  41.023  16.132   9.595
 2736POPC   GL136553  40.860  16.184   9.178
 2736POPC   GL236554  41.111  15.947   9.081
 2736POPC   C1A36555  40.547  16.195   8.810
 2736POPC   D2A36556  40.354  16.142   8.374
 2736POPC   C3A36557  40.615  15.894   8.053
 2736POPC   C4A36558  40.706  16.011   7.618
 2736POPC   C1B36559  41.091  15.699   8.707
 2736POPC   C2B36560  41.052  15.758   8.265
 2736POPC   C3B36561  41.091  15.712   7.795
 2736POPC   C4B36562  41.229  15.440   7.412
 2737POPC   NC336563  41.849   1.157   9.648
 2737POPC   PO436564  41.164   1.057   9.442
 2737POPC   GL136565  41.552   1.170   9.231
 2737POPC   GL236566  41.794   0.925   9.139
 2737POPC   C1A36567  41.703   1.378   8.875
 2737POPC   D2A36568  41.774   1.213   8.500
 2737POPC   C3A36569  41.733   1.509   8.240
 2737POPC   C4A36570  41.745   1.435   7.870
 2737POPC   C1B36571  41.442   0.960   8.791
 2737POPC   C2B36572  41.384   0.905   8.339
 2737POPC   C3B36573  41.465   0.991   7.910
 2737POPC   C4B36574  41.134   0.964   7.598
 2738POPC   NC336575  22.438   6.881   9.495
 2738POPC   PO436576  22.382   7.453   9.561
 2738POPC   GL136577  22.045   7.331   9.255
 2738POPC   GL236578  22.117   7.017   9.108
 2738POPC   C1A36579  22.040   7.420   8.801
 2738POPC   D2A36580  22.298   7.339   8.434
 2738POPC   C3A36581  22.217   7.607   8.074
 2738POPC   C4A36582  22.160   7.623   7.618
 2738POPC   C1B36583  22.355   6.868   8.742
 2738POPC   C2B36584  22.253   6.827   8.310
 2738POPC   C3B36585  22.235   7.104   7.951
 2738POPC   C4B36586  22.592   7.393   7.803
 2739POPC   NC336587  26.935   6.435   9.598
 2739POPC   PO436588  26.397   6.874   9.475
 2739POPC   GL136589  26.775   6.764   9.226
 2739POPC   GL236590  27.068   7.022   9.228
 2739POPC   C1A36591  26.732   6.538   8.826
 2739POPC   D2A36592  26.471   6.696   8.479
 2739POPC   C3A36593  26.487   6.536   8.041
 2739POPC   C4A36594  26.874   6.534   7.798
 2739POPC   C1B36595  26.845   7.051   8.806
 2739POPC   C2B36596  26.910   6.956   8.364
 2739POPC   C3B36597  26.834   7.005   7.929
 2739POPC   C4B36598  27.195   6.897   7.624
 2740POPC   NC336599   4.168  18.720   9.627
 2740POPC   PO436600   4.432  19.300   9.436
 2740POPC   GL136601   4.145  19.059   9.214
 2740POPC   GL236602   4.487  18.893   9.126
 2740POPC   C1A36603   4.087  18.963   8.794
 2740POPC   D2A36604   4.418  19.070   8.532
 2740POPC   C3A36605   4.359  19.106   8.076
 2740POPC   C4A36606   4.313  19.251   7.634
 2740POPC   C1B36607   4.492  18.601   8.793
 2740POPC   C2B36608   4.399  18.595   8.365
 2740POPC   C3B36609   4.629  18.676   8.009
 2740POPC   C4B36610   4.656  18.864   7.619
 2741POPC   NC336611  43.034  16.418   9.534
 2741POPC   PO436612  42.685  17.006   9.506
 2741POPC   GL136613  42.905  16.775   9.141
 2741POPC   GL236614  43.211  16.584   9.079
 2741POPC   C1A36615  43.133  16.908   8.707
 2741POPC   D2A36616  43.250  16.788   8.289
 2741POPC   C3A36617  43.091  16.956   7.924
 2741POPC   C4A36618  43.023  16.712   7.569
 2741POPC   C1B36619  43.443  16.493   8.679
 2741POPC   C2B36620  43.542  16.380   8.227
 2741POPC   C3B36621  43.475  16.604   7.824
 2741POPC   C4B36622  43.432  16.494   7.372
 2742POPC   NC336623  28.419  43.387   9.529
 2742POPC   PO436624  28.602  42.763   9.409
 2742POPC   GL136625  28.476  43.089   9.113
 2742POPC   GL236626  28.189  43.357   9.098
 2742POPC   C1A36627  28.260  43.028   8.718
 2742POPC   D2A36628  28.446  42.946   8.362
 2742POPC   C3A36629  28.269  42.999   7.947
 2742POPC   C4A36630  28.476  42.964   7.523
 2742POPC   C1B36631  27.962  43.449   8.741
 2742POPC   C2B36632  27.949  43.276   8.344
 2742POPC   C3B36633  27.947  43.422   7.949
 2742POPC   C4B36634  28.075  43.277   7.554
 2743POPC   NC336635  21.686  40.399   9.408
 2743POPC   PO436636  22.349  40.711   9.500
 2743POPC   GL136637  22.202  40.738   9.099
 2743POPC   GL236638  22.387  41.043   9.105
 2743POPC   C1A36639  21.983  40.726   8.671
 2743POPC   D2A36640  21.918  40.519   8.242
 2743POPC   C3A36641  22.159  40.610   7.845
 2743POPC   C4A36642  21.974  40.886   7.506
 2743POPC   C1B36643  22.290  41.141   8.704
 2743POPC   C2B36644  22.006  41.147   8.350
 2743POPC   C3B36645  22.182  41.101   7.933
 2743POPC   C4B36646  22.447  41.084   7.545
 2744POPC   NC336647   6.755  11.854   9.399
 2744POPC   PO436648   6.920  12.519   9.370
 2744POPC   GL136649   6.882  12.223   9.045
 2744POPC   GL236650   6.511  12.146   9.034
 2744POPC   C1A36651   6.846  11.894   8.713
 2744POPC   D2A36652   6.998  11.707   8.330
 2744POPC   C3A36653   6.803  11.786   7.948
 2744POPC   C4A36654   6.435  11.955   7.824
 2744POPC   C1B36655   6.568  12.316   8.645
 2744POPC   C2B36656   6.656  12.177   8.248
 2744POPC   C3B36657   6.853  12.322   7.884
 2744POPC   C4B36658   6.497  12.477   7.687
 2745POPC   NC336659  32.116  40.374   9.463
 2745POPC   PO436660  32.407  41.033   9.558
 2745POPC   GL136661  32.308  40.810   9.167
 2745POPC   GL236662  31.939  40.697   9.115
 2745POPC   C1A36663  32.172  40.978   8.758
 2745POPC   D2A36664  32.230  40.754   8.397
 2745POPC   C3A36665  32.195  40.880   8.046
 2745POPC   C4A36666  32.416  40.730   7.711
 2745POPC   C1B36667  32.062  40.442   8.747
 2745POPC   C2B36668  31.967  40.335   8.278
 2745POPC   C3B36669  32.002  40.439   7.824
 2745POPC   C4B36670  32.102  40.552   7.351
 2746POPC   NC336671   3.265  30.750   9.365
 2746POPC   PO436672   2.650  30.565   9.549
 2746POPC   GL136673   2.730  30.647   9.115
 2746POPC   GL236674   2.677  30.977   8.962
 2746POPC   C1A36675   2.600  30.488   8.718
 2746POPC   D2A36676   2.457  30.428   8.300
 2746POPC   C3A36677   2.737  30.626   8.021
 2746POPC   C4A36678   3.004  30.684   7.676
 2746POPC   C1B36679   2.978  30.884   8.679
 2746POPC   C2B36680   3.188  30.930   8.299
 2746POPC   C3B36681   2.945  31.105   7.972
 2746POPC   C4B36682   2.621  31.036   7.678
 2747POPC   NC336683  44.433  15.861   9.502
 2747POPC   PO436684   0.026  15.721   9.419
 2747POPC   GL136685  44.827  15.817   9.073
 2747POPC   GL236686  44.791  16.143   9.188
 2747POPC   C1A36687  44.519  16.017   8.774
 2747POPC   D2A36688  44.318  16.128   8.375
 2747POPC   C3A36689  44.348  15.820   8.048
 2747POPC   C4A36690  44.532  15.903   7.662
 2747POPC   C1B36691   0.043  16.225   8.808
 2747POPC   C2B36692  44.869  16.191   8.417
 2747POPC   C3B36693  44.872  15.925   8.077
 2747POPC   C4B36694   0.124  15.987   7.744
 2748POPC   NC336695  29.660  18.327   9.661
 2748POPC   PO436696  29.012  18.122   9.611
 2748POPC   GL136697  29.048  18.345   9.238
 2748POPC   GL236698  29.364  18.191   9.177
 2748POPC   C1A36699  28.811  18.508   8.898
 2748POPC   D2A36700  28.812  18.715   8.513
 2748POPC   C3A36701  29.149  18.617   8.265
 2748POPC   C4A36702  29.026  18.667   7.845
 2748POPC   C1B36703  29.227  18.239   8.749
 2748POPC   C2B36704  28.896  18.193   8.493
 2748POPC   C3B36705  28.837  18.248   8.095
 2748POPC   C4B36706  29.117  18.180   7.753
 2749POPC   NC336707  13.881  42.300   9.526
 2749POPC   PO436708  13.360  42.792   9.661
 2749POPC   GL136709  13.565  42.647   9.232
 2749POPC   GL236710  13.758  42.348   9.035
 2749POPC   C1A36711  13.379  42.597   8.819
 2749POPC   D2A36712  13.325  42.225   8.552
 2749POPC   C3A36713  13.551  42.178   8.140
 2749POPC   C4A36714  13.581  42.445   7.778
 2749POPC   C1B36715  14.041  42.016   8.792
 2749POPC   C2B36716  14.175  41.975   8.337
 2749POPC   C3B36717  14.052  42.029   7.908
 2749POPC   C4B36718  13.708  41.978   7.638
 2750POPC   NC336719   1.701  40.920   9.425
 2750POPC   PO436720   1.152  40.669   9.558
 2750POPC   GL136721   1.217  40.800   9.153
 2750POPC   GL236722   1.546  40.661   9.034
 2750POPC   C1A36723   1.124  40.767   8.718
 2750POPC   D2A36724   1.021  40.949   8.378
 2750POPC   C3A36725   1.281  40.835   8.075
 2750POPC   C4A36726   1.090  40.918   7.746
 2750POPC   C1B36727   1.496  41.075   8.837
 2750POPC   C2B36728   1.529  41.079   8.439
 2750POPC   C3B36729   1.667  41.210   8.046
 2750POPC   C4B36730   1.556  41.081   7.640
 2751POPC   NC336731  27.174  22.799   9.552
 2751POPC   PO436732  27.764  23.115   9.583
 2751POPC   GL136733  27.579  22.912   9.246
 2751POPC   GL236734  27.640  22.574   9.227
 2751POPC   C1A36735  27.381  22.968   8.871
 2751POPC   D2A36736  27.548  23.122   8.492
 2751POPC   C3A36737  27.472  22.900   8.106
 2751POPC   C4A36738  27.599  23.063   7.705
 2751POPC   C1B36739  27.801  22.678   8.786
 2751POPC   C2B36740  27.931  22.736   8.352
 2751POPC   C3B36741  27.903  22.691   7.900
 2751POPC   C4B36742  27.664  22.582   7.544
 2752POPC   NC336743  37.213   4.331   9.356
 2752POPC   PO436744  36.799   4.442   9.934
 2752POPC   GL136745  36.703   4.388   9.410
 2752POPC   GL236746  36.802   4.122   9.138
 2752POPC   C1A36747  36.742   4.577   8.941
 2752POPC   D2A36748  36.764   4.588   8.479
 2752POPC   C3A36749  37.118   4.444   8.276
 2752POPC   C4A36750  37.062   4.455   7.845
 2752POPC   C1B36751  36.607   4.144   8.700
 2752POPC   C2B36752  36.679   4.104   8.247
 2752POPC   C3B36753  36.668   4.120   7.804
 2752POPC   C4B36754  36.609   3.998   7.374
 2753POPC   NC336755  26.837  11.670   9.531
 2753POPC   PO436756  26.809  11.023   9.529
 2753POPC   GL136757  26.841  11.247   9.111
 2753POPC   GL236758  26.842  11.601   9.048
 2753POPC   C1A36759  26.657  11.363   8.671
 2753POPC   D2A36760  26.878  11.360   8.294
 2753POPC   C3A36761  26.703  11.418   7.902
 2753POPC   C4A36762  26.687  11.254   7.483
 2753POPC   C1B36763  27.159  11.516   8.711
 2753POPC   C2B36764  27.343  11.573   8.295
 2753POPC   C3B36765  27.193  11.570   7.855
 2753POPC   C4B36766  27.021  11.618   7.413
 2754POPC   NC336767   6.176   9.104   9.474
 2754POPC   PO436768   5.681   8.680   9.340
 2754POPC   GL136769   5.927   8.855   9.073
 2754POPC   GL236770   5.812   9.209   9.128
 2754POPC   C1A36771   5.875   8.863   8.643
 2754POPC   D2A36772   6.071   8.836   8.239
 2754POPC   C3A36773   5.812   8.705   7.910
 2754POPC   C4A36774   5.952   8.733   7.485
 2754POPC   C1B36775   6.147   9.268   8.829
 2754POPC   C2B36776   6.034   9.312   8.392
 2754POPC   C3B36777   5.910   9.204   7.934
 2754POPC   C4B36778   5.582   9.091   7.629
 2755POPC   NC336779  17.458  36.368   9.580
 2755POPC   PO436780  17.961  35.992   9.411
 2755POPC   GL136781  17.714  36.166   9.083
 2755POPC   GL236782  17.402  36.003   9.141
 2755POPC   C1A36783  17.634  36.282   8.630
 2755POPC   D2A36784  17.714  36.337   8.155
 2755POPC   C3A36785  17.765  35.941   7.956
 2755POPC   C4A36786  17.673  35.543   7.799
 2755POPC   C1B36787  17.156  36.098   8.765
 2755POPC   C2B36788  17.204  36.204   8.322
 2755POPC   C3B36789  17.274  36.116   7.889
 2755POPC   C4B36790  17.105  36.273   7.492
 2756POPC   NC336791   5.815   1.901   9.674
 2756POPC   PO436792   6.348   1.848   9.284
 2756POPC   GL136793   6.063   2.106   9.113
 2756POPC   GL236794   5.775   1.975   9.169
 2756POPC   C1A36795   6.014   1.943   8.706
 2756POPC   D2A36796   6.232   1.758   8.373
 2756POPC   C3A36797   6.013   1.950   8.047
 2756POPC   C4A36798   5.938   1.823   7.673
 2756POPC   C1B36799   5.524   2.006   8.805
 2756POPC   C2B36800   5.592   1.895   8.390
 2756POPC   C3B36801   5.548   1.700   8.017
 2756POPC   C4B36802   5.448   1.958   7.674
 2757POPC   NC336803  20.296   0.733   9.620
 2757POPC   PO436804  20.744   0.147   9.724
 2757POPC   GL136805  20.722   0.498   9.366
 2757POPC   GL236806  20.403   0.422   9.235
 2757POPC   C1A36807  20.718   0.617   8.891
 2757POPC   D2A36808  20.546   0.507   8.500
 2757POPC   C3A36809  20.663   0.643   8.089
 2757POPC   C4A36810  20.895   0.374   7.829
 2757POPC   C1B36811  20.169   0.119   9.004
 2757POPC   C2B36812  20.190   0.104   8.558
 2757POPC   C3B36813  20.289   0.253   8.144
 2757POPC   C4B36814  20.393   0.365   7.720
 2758POPC   NC336815  37.867  31.616   9.536
 2758POPC   PO436816  37.397  31.193   9.516
 2758POPC   GL136817  37.616  31.453   9.154
 2758POPC   GL236818  37.989  31.329   9.108
 2758POPC   C1A36819  37.422  31.634   8.792
 2758POPC   D2A36820  37.410  31.459   8.374
 2758POPC   C3A36821  37.780  31.496   8.152
 2758POPC   C4A36822  37.498  31.530   7.813
 2758POPC   C1B36823  37.760  31.264   8.704
 2758POPC   C2B36824  37.621  30.982   8.365
 2758POPC   C3B36825  37.717  31.017   7.961
 2758POPC   C4B36826  37.926  31.335   7.673
 2759POPC   NC336827  22.688  33.134   9.635
 2759POPC   PO436828  23.241  33.001   9.686
 2759POPC   GL136829  23.017  33.091   9.265
 2759POPC   GL236830  23.275  32.999   9.075
 2759POPC   C1A36831  22.821  33.024   8.850
 2759POPC   D2A36832  22.993  33.178   8.444
 2759POPC   C3A36833  22.747  33.388   8.131
 2759POPC   C4A36834  22.732  33.329   7.734
 2759POPC   C1B36835  23.204  32.727   8.711
 2759POPC   C2B36836  22.830  32.671   8.461
 2759POPC   C3B36837  22.773  32.855   8.063
 2759POPC   C4B36838  23.037  32.782   7.728
 2760POPC   NC336839  28.305  20.091   9.415
 2760POPC   PO436840  28.413  20.774   9.522
 2760POPC   GL136841  28.233  20.862   9.148
 2760POPC   GL236842  28.181  20.504   9.104
 2760POPC   C1A36843  28.068  20.868   8.747
 2760POPC   D2A36844  28.040  20.671   8.353
 2760POPC   C3A36845  28.246  20.927   8.026
 2760POPC   C4A36846  28.532  20.724   7.735
 2760POPC   C1B36847  28.558  20.413   8.889
 2760POPC   C2B36848  28.613  20.242   8.499
 2760POPC   C3B36849  28.451  20.388   8.123
 2760POPC   C4B36850  28.674  20.233   7.785
 2761POPC   NC336851  35.872  42.246   9.515
 2761POPC   PO436852  36.350  41.836   9.632
 2761POPC   GL136853  36.349  42.288   9.288
 2761POPC   GL236854  36.117  42.541   9.180
 2761POPC   C1A36855  36.433  42.476   8.799
 2761POPC   D2A36856  36.381  42.230   8.384
 2761POPC   C3A36857  36.352  42.182   7.893
 2761POPC   C4A36858  36.444  42.603   7.685
 2761POPC   C1B36859  35.946  42.310   8.831
 2761POPC   C2B36860  35.954  42.534   8.457
 2761POPC   C3B36861  36.081  42.564   8.054
 2761POPC   C4B36862  35.846  42.247   7.827
 2762POPC   NC336863  16.043  25.644   9.692
 2762POPC   PO436864  15.619  25.154   9.473
 2762POPC   GL136865  15.920  25.246   9.126
 2762POPC   GL236866  16.189  25.095   9.075
 2762POPC   C1A36867  15.860  25.333   8.683
 2762POPC   D2A36868  16.016  25.052   8.376
 2762POPC   C3A36869  16.160  25.170   7.989
 2762POPC   C4A36870  16.001  25.413   7.704
 2762POPC   C1B36871  15.899  24.835   8.830
 2762POPC   C2B36872  15.552  24.921   8.542
 2762POPC   C3B36873  15.560  24.973   8.095
 2762POPC   C4B36874  15.793  24.944   7.717
 2763POPC   NC336875  17.592  15.053   9.576
 2763POPC   PO436876  16.954  14.806   9.595
 2763POPC   GL136877  17.240  14.988   9.215
 2763POPC   GL236878  17.632  14.912   9.096
 2763POPC   C1A36879  17.219  15.005   8.748
 2763POPC   D2A36880  17.454  14.880   8.392
 2763POPC   C3A36881  17.386  15.098   8.020
 2763POPC   C4A36882  17.374  15.095   7.577
 2763POPC   C1B36883  17.585  15.327   8.898
 2763POPC   C2B36884  17.432  15.424   8.472
 2763POPC   C3B36885  17.557  15.571   8.070
 2763POPC   C4B36886  17.800  15.339   7.759
 2764POPC   NC336887  43.523  23.541   9.357
 2764POPC   PO436888  42.897  23.901   9.444
 2764POPC   GL136889  42.998  24.057   9.069
 2764POPC   GL236890  43.202  23.774   9.064
 2764POPC   C1A36891  43.100  23.997   8.642
 2764POPC   D2A36892  43.250  23.693   8.394
 2764POPC   C3A36893  43.140  23.972   8.075
 2764POPC   C4A36894  42.960  23.930   7.714
 2764POPC   C1B36895  42.980  23.521   8.788
 2764POPC   C2B36896  42.955  23.263   8.388
 2764POPC   C3B36897  43.010  23.480   7.999
 2764POPC   C4B36898  43.344  23.480   7.746
 2765POPC   NC336899  20.164  29.092   9.622
 2765POPC   PO436900  19.589  29.001   9.464
 2765POPC   GL136901  19.937  28.956   9.179
 2765POPC   GL236902  20.065  29.324   9.175
 2765POPC   C1A36903  20.029  28.721   8.819
 2765POPC   D2A36904  19.933  28.940   8.449
 2765POPC   C3A36905  19.876  28.887   8.031
 2765POPC   C4A36906  19.917  28.761   7.625
 2765POPC   C1B36907  19.811  29.318   8.787
 2765POPC   C2B36908  19.765  29.401   8.337
 2765POPC   C3B36909  19.855  29.406   7.900
 2765POPC   C4B36910  19.753  29.232   7.499
 2766POPC   NC336911   1.233  44.191   9.511
 2766POPC   PO436912   1.674  43.697   9.320
 2766POPC   GL136913   1.249  43.819   9.119
 2766POPC   GL236914   0.986  44.144   9.084
 2766POPC   C1A36915   1.364  43.824   8.701
 2766POPC   D2A36916   1.541  43.659   8.329
 2766POPC   C3A36917   1.283  43.691   7.960
 2766POPC   C4A36918   1.203  43.956   7.562
 2766POPC   C1B36919   1.092  44.262   8.699
 2766POPC   C2B36920   1.124  44.054   8.323
 2766POPC   C3B36921   1.246  44.234   7.991
 2766POPC   C4B36922   0.941  44.420   7.777
 2767POPC   NC336923  34.206  27.736   9.474
 2767POPC   PO436924  33.861  27.201   9.415
 2767POPC   GL136925  33.858  27.603   9.103
 2767POPC   GL236926  34.171  27.832   8.991
 2767POPC   C1A36927  33.877  27.668   8.631
 2767POPC   D2A36928  33.589  27.844   8.356
 2767POPC   C3A36929  33.695  27.707   7.975
 2767POPC   C4A36930  33.441  27.415   7.735
 2767POPC   C1B36931  34.250  27.383   8.880
 2767POPC   C2B36932  34.293  27.322   8.497
 2767POPC   C3B36933  34.062  27.392   8.141
 2767POPC   C4B36934  33.943  27.343   7.725
 2768POPC   NC336935  38.543   1.466   9.497
 2768POPC   PO436936  38.753   0.789   9.436
 2768POPC   GL136937  38.590   1.096   9.156
 2768POPC   GL236938  38.224   1.170   9.241
 2768POPC   C1A36939  38.568   1.425   8.844
 2768POPC   D2A36940  38.724   1.411   8.453
 2768POPC   C3A36941  38.423   1.443   8.131
 2768POPC   C4A36942  38.722   1.268   7.889
 2768POPC   C1B36943  38.187   1.087   8.837
 2768POPC   C2B36944  38.355   1.042   8.476
 2768POPC   C3B36945  38.358   0.949   8.073
 2768POPC   C4B36946  38.550   0.766   7.783
 2769POPC   NC336947  42.600   4.615   9.321
 2769POPC   PO436948  43.291   4.602   9.521
 2769POPC   GL136949  43.102   4.397   9.099
 2769POPC   GL236950  43.028   4.015   9.061
 2769POPC   C1A36951  43.284   4.261   8.689
 2769POPC   D2A36952  43.471   4.243   8.280
 2769POPC   C3A36953  43.170   4.359   7.939
 2769POPC   C4A36954  42.736   4.385   7.850
 2769POPC   C1B36955  42.786   4.144   8.729
 2769POPC   C2B36956  42.933   4.115   8.310
 2769POPC   C3B36957  42.890   3.901   7.919
 2769POPC   C4B36958  42.808   3.979   7.490
 2770POPC   NC336959   3.431  27.134   9.491
 2770POPC   PO436960   3.369  27.773   9.631
 2770POPC   GL136961   3.538  27.584   9.245
 2770POPC   GL236962   3.862  27.371   9.307
 2770POPC   C1A36963   3.395  27.743   8.834
 2770POPC   D2A36964   3.365  27.974   8.429
 2770POPC   C3A36965   3.525  27.755   8.038
 2770POPC   C4A36966   3.428  27.827   7.605
 2770POPC   C1B36967   3.837  27.335   8.848
 2770POPC   C2B36968   3.611  27.418   8.470
 2770POPC   C3B36969   3.591  27.221   8.079
 2770POPC   C4B36970   3.502  27.309   7.650
 2771POPC   NC336971  12.129  18.884   9.412
 2771POPC   PO436972  11.640  19.278   9.573
 2771POPC   GL136973  11.753  19.301   9.132
 2771POPC   GL236974  11.980  19.066   8.970
 2771POPC   C1A36975  11.787  19.472   8.709
 2771POPC   D2A36976  12.025  19.571   8.362
 2771POPC   C3A36977  12.038  19.228   8.156
 2771POPC   C4A36978  12.043  19.166   7.759
 2771POPC   C1B36979  12.249  19.132   8.646
 2771POPC   C2B36980  12.380  18.886   8.292
 2771POPC   C3B36981  12.488  19.018   7.911
 2771POPC   C4B36982  12.419  19.033   7.433
 2772POPC   NC336983  37.673   9.586   9.440
 2772POPC   PO436984  37.247   9.286   8.992
 2772POPC   GL136985  37.626   9.464   8.943
 2772POPC   GL236986  37.678   9.827   8.986
 2772POPC   C1A36987  37.628   9.627   8.528
 2772POPC   D2A36988  37.876   9.932   8.341
 2772POPC   C3A36989  37.675   9.912   7.972
 2772POPC   C4A36990  37.863   9.847   7.577
 2772POPC   C1B36991  37.520  10.135   8.637
 2772POPC   C2B36992  37.524  10.363   8.247
 2772POPC   C3B36993  37.261  10.256   7.887
 2772POPC   C4B36994  37.372   9.969   7.562
 2773POPC   NC336995  40.185   7.208   9.479
 2773POPC   PO436996  39.812   7.768   9.576
 2773POPC   GL136997  39.923   7.510   9.168
 2773POPC   GL236998  40.147   7.272   8.990
 2773POPC   C1A36999  39.666   7.344   8.823
 2773POPC   D2A37000  39.552   7.450   8.412
 2773POPC   C3A37001  39.944   7.437   8.140
 2773POPC   C4A37002  40.051   7.358   7.716
 2773POPC   C1B37003  40.148   7.333   8.589
 2773POPC   C2B37004  40.283   7.040   8.295
 2773POPC   C3B37005  40.362   6.796   7.956
 2773POPC   C4B37006  40.186   6.802   7.569
 2774POPC   NC337007  21.234   4.993   9.323
 2774POPC   PO437008  21.617   5.471   9.410
 2774POPC   GL137009  21.693   5.143   9.060
 2774POPC   GL237010  21.476   4.841   8.891
 2774POPC   C1A37011  21.694   5.179   8.592
 2774POPC   D2A37012  21.438   5.281   8.264
 2774POPC   C3A37013  21.540   5.076   7.886
 2774POPC   C4A37014  21.184   5.068   7.659
 2774POPC   C1B37015  21.224   4.834   8.514
 2774POPC   C2B37016  21.157   4.754   8.081
 2774POPC   C3B37017  21.262   4.561   7.680
 2774POPC   C4B37018  21.598   4.775   7.443
 2775POPC   NC337019   1.132  29.914   9.605
 2775POPC   PO437020   1.759  30.118   9.465
 2775POPC   GL137021   1.364  30.119   9.156
 2775POPC   GL237022   1.133  29.796   9.122
 2775POPC   C1A37023   1.187  30.048   8.701
 2775POPC   D2A37024   1.247  29.682   8.414
 2775POPC   C3A37025   1.396  29.803   8.008
 2775POPC   C4A37026   1.521  30.201   7.806
 2775POPC   C1B37027   0.859  29.588   8.789
 2775POPC   C2B37028   0.844  29.363   8.366
 2775POPC   C3B37029   0.935  29.514   7.925
 2775POPC   C4B37030   0.862  29.580   7.465
 2776POPC   NC337031   3.446   8.469   9.529
 2776POPC   PO437032   3.634   7.809   9.387
 2776POPC   GL137033   3.631   8.137   9.093
 2776POPC   GL237034   3.308   8.218   9.105
 2776POPC   C1A37035   3.503   8.081   8.655
 2776POPC   D2A37036   3.643   7.915   8.274
 2776POPC   C3A37037   3.465   8.082   7.919
 2776POPC   C4A37038   3.733   8.086   7.584
 2776POPC   C1B37039   3.166   8.465   8.739
 2776POPC   C2B37040   3.002   8.608   8.348
 2776POPC   C3B37041   3.192   8.615   7.940
 2776POPC   C4B37042   3.350   8.437   7.560
 2777POPC   NC337043   2.553  39.533   9.586
 2777POPC   PO437044   3.065  39.224   9.401
 2777POPC   GL137045   2.729  39.254   9.170
 2777POPC   GL237046   2.662  38.950   9.202
 2777POPC   C1A37047   2.727  39.292   8.743
 2777POPC   D2A37048   2.960  39.306   8.399
 2777POPC   C3A37049   2.797  39.178   8.052
 2777POPC   C4A37050   2.814  39.310   7.662
 2777POPC   C1B37051   2.474  38.867   8.839
 2777POPC   C2B37052   2.405  38.998   8.424
 2777POPC   C3B37053   2.470  38.769   8.064
 2777POPC   C4B37054   2.616  38.842   7.680
 2778POPC   NC337055   0.952  33.175   9.611
 2778POPC   PO437056   1.623  32.934   9.529
 2778POPC   GL137057   1.429  32.859   9.164
 2778POPC   GL237058   1.079  32.965   9.149
 2778POPC   C1A37059   1.470  33.083   8.827
 2778POPC   D2A37060   1.341  33.283   8.482
 2778POPC   C3A37061   1.512  33.136   8.100
 2778POPC   C4A37062   1.369  33.140   7.704
 2778POPC   C1B37063   0.947  32.854   8.729
 2778POPC   C2B37064   0.974  32.989   8.278
 2778POPC   C3B37065   0.904  32.968   7.842
 2778POPC   C4B37066   0.761  33.159   7.477
 2779POPC   NC337067   6.794   6.639   9.408
 2779POPC   PO437068   6.130   6.794   9.403
 2779POPC   GL137069   6.272   6.502   9.139
 2779POPC   GL237070   6.540   6.251   9.115
 2779POPC   C1A37071   6.370   6.621   8.763
 2779POPC   D2A37072   6.533   6.659   8.386
 2779POPC   C3A37073   6.283   6.745   8.069
 2779POPC   C4A37074   6.378   6.544   7.732
 2779POPC   C1B37075   6.844   6.393   8.781
 2779POPC   C2B37076   7.027   6.587   8.393
 2779POPC   C3B37077   6.860   6.593   7.959
 2779POPC   C4B37078   7.065   6.801   7.611
 2780POPC   NC337079   0.829  20.514   9.541
 2780POPC   PO437080   0.164  20.698   9.635
 2780POPC   GL137081   0.370  20.547   9.308
 2780POPC   GL237082   0.457  20.894   9.220
 2780POPC   C1A37083   0.515  20.328   8.947
 2780POPC   D2A37084   0.682  20.589   8.589
 2780POPC   C3A37085   0.541  20.581   8.140
 2780POPC   C4A37086   0.520  20.697   7.707
 2780POPC   C1B37087   0.240  20.737   8.851
 2780POPC   C2B37088   0.205  20.824   8.433
 2780POPC   C3B37089   0.172  20.953   8.010
 2780POPC   C4B37090  44.865  20.954   7.664
 2781POPC   NC337091   3.039  43.210   9.458
 2781POPC   PO437092   2.500  42.897   9.649
 2781POPC   GL137093   2.709  42.974   9.175
 2781POPC   GL237094   3.025  42.856   9.051
 2781POPC   C1A37095   2.656  43.056   8.733
 2781POPC   D2A37096   2.637  42.864   8.294
 2781POPC   C3A37097   2.765  43.082   7.933
 2781POPC   C4A37098   2.515  43.317   7.631
 2781POPC   C1B37099   2.984  42.667   8.638
 2781POPC   C2B37100   3.101  42.633   8.213
 2781POPC   C3B37101   3.165  42.704   7.780
 2781POPC   C4B37102   3.025  43.035   7.488
 2782POPC   NC337103  40.030   6.215   9.338
 2782POPC   PO437104  39.816   5.581   9.559
 2782POPC   GL137105  39.740   5.595   9.148
 2782POPC   GL237106  39.638   5.923   9.193
 2782POPC   C1A37107  39.996   5.772   8.798
 2782POPC   D2A37108  40.122   6.007   8.409
 2782POPC   C3A37109  40.065   5.863   7.977
 2782POPC   C4A37110  40.334   5.985   7.628
 2782POPC   C1B37111  39.593   6.101   8.830
 2782POPC   C2B37112  39.613   5.874   8.477
 2782POPC   C3B37113  39.678   6.131   8.179
 2782POPC   C4B37114  39.609   6.104   7.773
 2783POPC   NC337115  31.411  23.463   9.420
 2783POPC   PO437116  31.126  24.124   9.550
 2783POPC   GL137117  31.090  23.815   9.163
 2783POPC   GL237118  31.455  23.717   8.997
 2783POPC   C1A37119  31.069  23.699   8.690
 2783POPC   D2A37120  31.421  23.796   8.447
 2783POPC   C3A37121  31.373  23.712   8.017
 2783POPC   C4A37122  31.572  23.799   7.648
 2783POPC   C1B37123  31.734  23.423   8.754
 2783POPC   C2B37124  31.721  23.388   8.312
 2783POPC   C3B37125  31.914  23.560   7.970
 2783POPC   C4B37126  31.785  23.339   7.636
 2784POPC   NC337127   3.946  34.587   9.405
 2784POPC   PO437128   4.583  34.819   9.477
 2784POPC   GL137129   4.388  34.648   9.113
 2784POPC   GL237130   4.367  34.301   9.244
 2784POPC   C1A37131   4.048  34.792   8.802
 2784POPC   D2A37132   3.807  34.754   8.414
 2784POPC   C3A37133   4.085  34.699   8.058
 2784POPC   C4A37134   4.419  34.751   7.762
 2784POPC   C1B37135   4.139  34.236   8.853
 2784POPC   C2B37136   4.279  34.122   8.451
 2784POPC   C3B37137   4.381  34.285   8.032
 2784POPC   C4B37138   4.143  34.324   7.658
 2785POPC   NC337139  25.653   0.817   9.425
 2785POPC   PO437140  25.919   0.223   9.598
 2785POPC   GL137141  26.168   0.430   9.285
 2785POPC   GL237142  25.900   0.501   9.111
 2785POPC   C1A37143  26.229   0.305   8.806
 2785POPC   D2A37144  26.045   0.338   8.395
 2785POPC   C3A37145  26.264   0.200   8.058
 2785POPC   C4A37146  26.180   0.450   7.730
 2785POPC   C1B37147  25.854   0.692   8.732
 2785POPC   C2B37148  25.987   0.873   8.360
 2785POPC   C3B37149  25.709   0.805   8.064
 2785POPC   C4B37150  25.684   0.649   7.683
 2786POPC   NC337151  33.743   1.962   9.507
 2786POPC   PO437152  34.208   1.534   9.681
 2786POPC   GL137153  34.005   1.766   9.155
 2786POPC   GL237154  33.551   1.886   9.062
 2786POPC   C1A37155  33.910   2.066   8.773
 2786POPC   D2A37156  33.651   2.305   8.471
 2786POPC   C3A37157  33.671   2.209   8.008
 2786POPC   C4A37158  33.926   2.430   7.689
 2786POPC   C1B37159  33.282   1.879   8.665
 2786POPC   C2B37160  33.234   1.798   8.221
 2786POPC   C3B37161  33.348   1.851   7.806
 2786POPC   C4B37162  33.738   1.771   7.586
 2787POPC   NC337163   0.579  28.518   9.688
 2787POPC   PO437164   0.507  27.856   9.567
 2787POPC   GL137165   0.313  28.145   9.268
 2787POPC   GL237166   0.404  28.490   9.218
 2787POPC   C1A37167   0.332  28.139   8.818
 2787POPC   D2A37168   0.667  28.352   8.525
 2787POPC   C3A37169   0.543  28.439   8.119
 2787POPC   C4A37170   0.384  28.167   7.811
 2787POPC   C1B37171   0.389  28.643   8.823
 2787POPC   C2B37172   0.138  28.469   8.468
 2787POPC   C3B37173   0.059  28.614   8.068
 2787POPC   C4B37174   0.141  28.591   7.634
 2788POPC   NC337175  30.069  27.782   9.452
 2788POPC   PO437176  29.390  27.746   9.467
 2788POPC   GL137177  29.673  27.544   9.114
 2788POPC   GL237178  30.070  27.485   9.049
 2788POPC   C1A37179  29.763  27.402   8.672
 2788POPC   D2A37180  29.923  27.253   8.266
 2788POPC   C3A37181  29.976  27.541   7.952
 2788POPC   C4A37182  30.342  27.710   7.798
 2788POPC   C1B37183  30.251  27.620   8.694
 2788POPC   C2B37184  30.014  27.832   8.430
 2788POPC   C3B37185  29.971  28.051   8.095
 2788POPC   C4B37186  29.673  27.953   7.799
 2789POPC   NC337187  10.003  44.407   9.785
 2789POPC   PO437188   9.640   0.046   9.536
 2789POPC   GL137189   9.721  44.747   9.149
 2789POPC   GL237190   9.803  44.390   8.954
 2789POPC   C1A37191   9.950  44.833   8.765
 2789POPC   D2A37192  10.142  44.998   8.424
 2789POPC   C3A37193  10.007  44.816   8.058
 2789POPC   C4A37194   9.943  44.552   7.687
 2789POPC   C1B37195   9.483  44.562   8.732
 2789POPC   C2B37196   9.619  44.728   8.375
 2789POPC   C3B37197   9.626  44.434   8.069
 2789POPC   C4B37198   9.371  44.490   7.749
 2790POPC   NC337199  10.246  13.550   9.465
 2790POPC   PO437200  10.879  13.319   9.552
 2790POPC   GL137201  10.699  13.603   9.207
 2790POPC   GL237202  10.828  13.943   9.115
 2790POPC   C1A37203  10.416  13.502   8.825
 2790POPC   D2A37204  10.509  13.281   8.441
 2790POPC   C3A37205  10.313  13.386   8.080
 2790POPC   C4A37206  10.326  13.535   7.686
 2790POPC   C1B37207  10.823  13.755   8.691
 2790POPC   C2B37208  10.748  13.724   8.250
 2790POPC   C3B37209  10.796  13.530   7.858
 2790POPC   C4B37210  10.874  13.660   7.432
 2791POPC   NC337211  42.187  16.888   9.548
 2791POPC   PO437212  42.572  16.264   9.525
 2791POPC   GL137213  42.373  16.525   9.185
 2791POPC   GL237214  42.372  16.908   9.094
 2791POPC   C1A37215  42.351  16.550   8.734
 2791POPC   D2A37216  42.267  16.673   8.306
 2791POPC   C3A37217  42.290  16.421   7.932
 2791POPC   C4A37218  42.247  16.496   7.481
 2791POPC   C1B37219  42.632  16.973   8.762
 2791POPC   C2B37220  42.746  16.912   8.369
 2791POPC   C3B37221  42.745  16.622   8.081
 2791POPC   C4B37222  42.563  16.815   7.757
 2792POPC   NC337223  43.959  44.032  10.007
 2792POPC   PO437224  44.023  43.593   9.485
 2792POPC   GL137225  43.971  43.808   9.109
 2792POPC   GL237226  44.137  44.135   9.126
 2792POPC   C1A37227  43.730  43.774   8.733
 2792POPC   D2A37228  43.926  43.740   8.339
 2792POPC   C3A37229  43.776  43.651   7.912
 2792POPC   C4A37230  43.885  43.894   7.549
 2792POPC   C1B37231  44.012  44.289   8.706
 2792POPC   C2B37232  44.019  44.259   8.261
 2792POPC   C3B37233  44.000  44.288   7.831
 2792POPC   C4B37234  43.751  44.377   7.456
 2793POPC   NC337235  22.952  18.664   9.457
 2793POPC   PO437236  22.759  18.033   9.725
 2793POPC   GL137237  22.870  17.937   9.320
 2793POPC   GL237238  22.723  18.224   9.195
 2793POPC   C1A37239  23.030  17.929   8.901
 2793POPC   D2A37240  23.035  18.111   8.487
 2793POPC   C3A37241  22.842  17.921   8.172
 2793POPC   C4A37242  23.000  18.176   7.865
 2793POPC   C1B37243  22.944  18.440   8.852
 2793POPC   C2B37244  22.931  18.659   8.462
 2793POPC   C3B37245  23.002  18.729   8.019
 2793POPC   C4B37246  22.727  18.571   7.712
 2794POPC   NC337247   0.713  22.710   9.739
 2794POPC   PO437248   0.123  23.078   9.618
 2794POPC   GL137249   0.374  22.941   9.259
 2794POPC   GL237250   0.763  22.907   9.277
 2794POPC   C1A37251   0.437  23.104   8.835
 2794POPC   D2A37252   0.203  23.098   8.456
 2794POPC   C3A37253   0.414  22.930   8.128
 2794POPC   C4A37254   0.313  22.793   7.714
 2794POPC   C1B37255   0.701  22.701   8.909
 2794POPC   C2B37256   0.797  22.882   8.497
 2794POPC   C3B37257   0.917  22.787   8.091
 2794POPC   C4B37258   0.823  22.698   7.701
 2795POPC   NC337259  34.491  15.126   9.715
 2795POPC   PO437260  34.807  14.713   9.290
 2795POPC   GL137261  34.591  14.860   8.969
 2795POPC   GL237262  34.447  15.110   9.122
 2795POPC   C1A37263  34.748  15.092   8.666
 2795POPC   D2A37264  34.736  15.376   8.347
 2795POPC   C3A37265  34.830  15.106   8.045
 2795POPC   C4A37266  34.673  14.750   7.901
 2795POPC   C1B37267  34.376  15.430   8.799
 2795POPC   C2B37268  34.253  15.530   8.353
 2795POPC   C3B37269  34.317  15.334   7.952
 2795POPC   C4B37270  34.192  14.906   7.856
 2796POPC   NC337271   6.954  16.293   9.537
 2796POPC   PO437272   6.505  15.780   9.692
 2796POPC   GL137273   6.539  15.742   9.253
 2796POPC   GL237274   6.589  16.056   9.240
 2796POPC   C1A37275   6.784  15.799   8.849
 2796POPC   D2A37276   6.627  15.718   8.451
 2796POPC   C3A37277   6.792  15.981   8.178
 2796POPC   C4A37278   6.758  15.920   7.764
 2796POPC   C1B37279   6.719  16.314   8.909
 2796POPC   C2B37280   6.680  16.411   8.514
 2796POPC   C3B37281   6.633  16.502   8.107
 2796POPC   C4B37282   6.760  16.406   7.711
 2797POPC   NC337283  28.071  14.356   9.445
 2797POPC   PO437284  28.746  14.282   9.480
 2797POPC   GL137285  28.473  14.261   9.134
 2797POPC   GL237286  28.351  14.594   9.105
 2797POPC   C1A37287  28.248  14.270   8.713
 2797POPC   D2A37288  28.115  14.120   8.305
 2797POPC   C3A37289  28.310  14.322   7.969
 2797POPC   C4A37290  28.286  14.189   7.565
 2797POPC   C1B37291  28.089  14.746   8.789
 2797POPC   C2B37292  28.175  14.992   8.451
 2797POPC   C3B37293  28.159  14.838   8.022
 2797POPC   C4B37294  28.394  14.953   7.647
 2798POPC   NC337295   4.782  35.076   9.156
 2798POPC   PO437296   4.289  35.464   9.514
 2798POPC   GL137297   4.390  35.438   9.137
 2798POPC   GL237298   4.613  35.695   9.117
 2798POPC   C1A37299   4.168  35.324   8.756
 2798POPC   D2A37300   4.191  35.489   8.312
 2798POPC   C3A37301   4.202  35.189   7.937
 2798POPC   C4A37302   4.342  35.186   7.469
 2798POPC   C1B37303   4.640  35.505   8.689
 2798POPC   C2B37304   4.680  35.363   8.271
 2798POPC   C3B37305   4.522  35.576   7.918
 2798POPC   C4B37306   4.676  35.751   7.561
 2799POPC   NC337307  31.122  22.907   9.461
 2799POPC   PO437308  31.754  23.185   9.591
 2799POPC   GL137309  31.563  23.084   9.102
 2799POPC   GL237310  31.286  22.836   9.009
 2799POPC   C1A37311  31.494  22.961   8.595
 2799POPC   D2A37312  31.618  22.690   8.216
 2799POPC   C3A37313  31.526  22.988   7.919
 2799POPC   C4A37314  31.181  23.250   7.899
 2799POPC   C1B37315  31.014  22.641   8.776
 2799POPC   C2B37316  31.168  22.497   8.419
 2799POPC   C3B37317  31.130  22.662   8.028
 2799POPC   C4B37318  31.126  22.790   7.626
 2800POPC   NC337319  17.645  15.963   9.495
 2800POPC   PO437320  17.230  15.447   9.543
 2800POPC   GL137321  17.330  15.726   9.157
 2800POPC   GL237322  17.318  16.120   9.111
 2800POPC   C1A37323  17.534  15.831   8.759
 2800POPC   D2A37324  17.448  16.131   8.427
 2800POPC   C3A37325  17.693  16.069   8.051
 2800POPC   C4A37326  17.677  15.860   7.641
 2800POPC   C1B37327  17.709  16.293   8.870
 2800POPC   C2B37328  17.931  16.369   8.472
 2800POPC   C3B37329  17.956  16.521   8.042
 2800POPC   C4B37330  17.933  16.313   7.652
 2801POPC   NC337331  10.124  26.942   9.391
 2801POPC   PO437332  10.746  26.961   9.560
 2801POPC   GL137333  10.598  26.632   9.248
 2801POPC   GL237334  10.415  26.859   9.005
 2801POPC   C1A37335  10.484  26.399   8.848
 2801POPC   D2A37336  10.522  26.699   8.488
 2801POPC   C3A37337  10.551  26.569   8.061
 2801POPC   C4A37338  10.490  26.762   7.684
 2801POPC   C1B37339  10.726  27.089   8.841
 2801POPC   C2B37340  10.743  27.235   8.432
 2801POPC   C3B37341  10.718  27.072   8.029
 2801POPC   C4B37342  10.835  27.144   7.608
 2802POPC   NC337343   9.559  29.539   9.436
 2802POPC   PO437344  10.048  29.039   9.560
 2802POPC   GL137345   9.859  29.204   9.178
 2802POPC   GL237346  10.015  29.514   9.088
 2802POPC   C1A37347   9.718  29.102   8.763
 2802POPC   D2A37348   9.886  28.828   8.429
 2802POPC   C3A37349   9.692  28.964   8.062
 2802POPC   C4A37350   9.609  29.054   7.642
 2802POPC   C1B37351  10.030  29.483   8.622
 2802POPC   C2B37352   9.775  29.425   8.277
 2802POPC   C3B37353   9.931  29.377   7.869
 2802POPC   C4B37354  10.228  29.550   7.568
 2803POPC   NC337355  20.499  20.658   9.497
 2803POPC   PO437356  21.108  20.261   9.569
 2803POPC   GL137357  20.899  20.510   9.204
 2803POPC   GL237358  20.790  20.902   9.151
 2803POPC   C1A37359  20.706  20.545   8.794
 2803POPC   D2A37360  20.997  20.633   8.483
 2803POPC   C3A37361  20.861  20.541   8.082
 2803POPC   C4A37362  20.656  20.425   7.696
 2803POPC   C1B37363  20.441  20.971   8.808
 2803POPC   C2B37364  20.418  20.730   8.383
 2803POPC   C3B37365  20.499  20.888   7.955
 2803POPC   C4B37366  20.586  21.171   7.625
 2804POPC   NC337367  38.580   3.899   9.702
 2804POPC   PO437368  38.124   3.504   9.519
 2804POPC   GL137369  38.377   3.597   9.168
 2804POPC   GL237370  38.755   3.703   9.240
 2804POPC   C1A37371  38.323   3.316   8.804
 2804POPC   D2A37372  38.166   3.058   8.487
 2804POPC   C3A37373  38.179   3.207   8.081
 2804POPC   C4A37374  38.414   3.430   7.807
 2804POPC   C1B37375  38.725   3.626   8.794
 2804POPC   C2B37376  38.422   3.684   8.429
 2804POPC   C3B37377  38.687   3.741   8.094
 2804POPC   C4B37378  38.908   3.458   7.831
 2805POPC   NC337379  11.171  16.526   9.551
 2805POPC   PO437380  11.531  17.031   9.284
 2805POPC   GL137381  11.341  16.710   9.100
 2805POPC   GL237382  11.607  16.513   8.922
 2805POPC   C1A37383  11.188  16.733   8.692
 2805POPC   D2A37384  11.479  16.682   8.319
 2805POPC   C3A37385  11.283  16.697   7.921
 2805POPC   C4A37386  10.991  16.517   7.651
 2805POPC   C1B37387  11.742  16.924   8.719
 2805POPC   C2B37388  11.918  17.070   8.355
 2805POPC   C3B37389  11.749  16.947   7.972
 2805POPC   C4B37390  11.611  16.841   7.553
 2806POPC   NC337391  12.452  34.062   9.486
 2806POPC   PO437392  13.073  33.817   9.510
 2806POPC   GL137393  12.776  33.835   9.161
 2806POPC   GL237394  12.631  33.531   9.059
 2806POPC   C1A37395  12.679  33.920   8.724
 2806POPC   D2A37396  12.785  33.850   8.298
 2806POPC   C3A37397  12.900  34.033   7.907
 2806POPC   C4A37398  12.955  33.953   7.470
 2806POPC   C1B37399  13.002  33.514   8.775
 2806POPC   C2B37400  13.132  33.498   8.344
 2806POPC   C3B37401  12.873  33.481   7.963
 2806POPC   C4B37402  12.743  33.505   7.543
 2807POPC   NC337403  19.436  12.368   9.262
 2807POPC   PO437404  20.105  12.387   9.450
 2807POPC   GL137405  19.872  12.114   9.136
 2807POPC   GL237406  20.019  11.792   9.124
 2807POPC   C1A37407  19.703  12.183   8.678
 2807POPC   D2A37408  19.856  12.216   8.257
 2807POPC   C3A37409  19.764  12.308   7.811
 2807POPC   C4A37410  20.129  12.330   7.537
 2807POPC   C1B37411  19.693  11.698   8.841
 2807POPC   C2B37412  19.832  11.723   8.401
 2807POPC   C3B37413  19.881  11.812   7.945
 2807POPC   C4B37414  19.952  11.697   7.531
 2808POPC   NC337415  28.053  11.940   9.510
 2808POPC   PO437416  28.563  12.336   9.420
 2808POPC   GL137417  28.636  12.095   9.093
 2808POPC   GL237418  28.535  11.802   9.255
 2808POPC   C1A37419  28.523  12.063   8.657
 2808POPC   D2A37420  28.099  11.922   8.452
 2808POPC   C3A37421  28.104  11.993   8.015
 2808POPC   C4A37422  28.271  12.280   7.706
 2808POPC   C1B37423  28.274  11.686   8.929
 2808POPC   C2B37424  28.432  11.570   8.568
 2808POPC   C3B37425  28.539  11.803   8.189
 2808POPC   C4B37426  28.548  11.832   7.742
 2809POPC   NC337427   9.492  26.215   9.294
 2809POPC   PO437428   9.925  25.667   9.444
 2809POPC   GL137429   9.834  25.891   9.068
 2809POPC   GL237430  10.002  26.220   8.974
 2809POPC   C1A37431   9.508  25.838   8.763
 2809POPC   D2A37432   9.465  25.941   8.325
 2809POPC   C3A37433   9.855  26.024   8.182
 2809POPC   C4A37434   9.978  25.974   7.770
 2809POPC   C1B37435   9.735  26.271   8.630
 2809POPC   C2B37436   9.562  26.448   8.258
 2809POPC   C3B37437   9.655  26.362   7.859
 2809POPC   C4B37438  10.080  26.451   7.671
 2810POPC   NC337439  17.254  10.696   9.599
 2810POPC   PO437440  18.001  10.728   9.688
 2810POPC   GL137441  17.762  10.690   9.290
 2810POPC   GL237442  17.699  10.359   9.169
 2810POPC   C1A37443  17.492  10.760   8.903
 2810POPC   D2A37444  17.498  10.806   8.440
 2810POPC   C3A37445  17.311  10.626   8.052
 2810POPC   C4A37446  17.070  10.234   7.929
 2810POPC   C1B37447  17.613  10.275   8.750
 2810POPC   C2B37448  17.417  10.247   8.369
 2810POPC   C3B37449  17.609  10.199   7.970
 2810POPC   C4B37450  17.712  10.571   7.725
 2811POPC   NC337451   0.030  43.115   9.570
 2811POPC   PO437452  44.512  43.476   9.812
 2811POPC   GL137453  44.579  43.367   9.274
 2811POPC   GL237454  44.911  43.260   9.113
 2811POPC   C1A37455  44.507  43.138   8.851
 2811POPC   D2A37456  44.702  43.136   8.445
 2811POPC   C3A37457  44.539  42.885   8.085
 2811POPC   C4A37458  44.340  42.909   7.666
 2811POPC   C1B37459  44.997  42.912   8.822
 2811POPC   C2B37460   0.167  42.925   8.379
 2811POPC   C3B37461   0.042  43.248   8.091
 2811POPC   C4B37462  44.753  43.218   7.760
 2812POPC   NC337463  11.679   6.040   9.411
 2812POPC   PO437464  12.382   5.930   9.414
 2812POPC   GL137465  12.105   5.839   9.126
 2812POPC   GL237466  12.031   6.199   9.041
 2812POPC   C1A37467  11.952   5.762   8.723
 2812POPC   D2A37468  11.854   6.032   8.386
 2812POPC   C3A37469  11.963   5.890   7.994
 2812POPC   C4A37470  12.074   5.617   7.678
 2812POPC   C1B37471  12.355   6.096   8.721
 2812POPC   C2B37472  12.460   5.897   8.333
 2812POPC   C3B37473  12.446   6.015   7.897
 2812POPC   C4B37474  12.298   6.048   7.460
 2813POPC   NC337475  44.999  24.372   9.467
 2813POPC   PO437476  44.393  24.427   9.548
 2813POPC   GL137477  44.544  24.252   9.169
 2813POPC   GL237478  44.665  24.572   9.112
 2813POPC   C1A37479  44.430  24.278   8.751
 2813POPC   D2A37480  44.581  24.627   8.587
 2813POPC   C3A37481  44.682  24.559   8.193
 2813POPC   C4A37482  44.551  24.441   7.787
 2813POPC   C1B37483  44.905  24.864   8.923
 2813POPC   C2B37484   0.051  24.831   8.518
 2813POPC   C3B37485  44.961  24.995   8.137
 2813POPC   C4B37486  44.969  24.748   7.790
 2814POPC   NC337487  41.742  20.045   9.679
 2814POPC   PO437488  42.379  19.773   9.602
 2814POPC   GL137489  42.337  19.717   9.183
 2814POPC   GL237490  42.687  19.718   9.116
 2814POPC   C1A37491  42.265  19.586   8.760
 2814POPC   D2A37492  42.265  19.878   8.459
 2814POPC   C3A37493  42.178  19.714   8.096
 2814POPC   C4A37494  42.003  19.984   7.845
 2814POPC   C1B37495  42.743  19.738   8.688
 2814POPC   C2B37496  42.619  19.525   8.328
 2814POPC   C3B37497  42.672  19.777   7.972
 2814POPC   C4B37498  42.480  19.920   7.593
 2815POPC   NC337499  20.079  10.970   9.614
 2815POPC   PO437500  19.608  10.486   9.684
 2815POPC   GL137501  19.634  10.545   9.245
 2815POPC   GL237502  19.993  10.551   9.220
 2815POPC   C1A37503  19.665  10.377   8.813
 2815POPC   D2A37504  19.766  10.248   8.378
 2815POPC   C3A37505  19.638  10.531   8.025
 2815POPC   C4A37506  19.649  10.930   7.761
 2815POPC   C1B37507  20.126  10.682   8.786
 2815POPC   C2B37508  19.980  10.775   8.359
 2815POPC   C3B37509  20.095  10.740   7.924
 2815POPC   C4B37510  19.982  10.351   7.674
 2816POPC   NC337511  24.897  21.307   9.535
 2816POPC   PO437512  25.582  21.210   9.343
 2816POPC   GL137513  25.178  21.227   9.120
 2816POPC   GL237514  25.020  21.572   9.125
 2816POPC   C1A37515  25.183  21.257   8.701
 2816POPC   D2A37516  25.517  21.387   8.444
 2816POPC   C3A37517  25.391  21.383   8.022
 2816POPC   C4A37518  25.193  21.138   7.645
 2816POPC   C1B37519  25.045  21.747   8.741
 2816POPC   C2B37520  25.035  21.626   8.311
 2816POPC   C3B37521  24.883  21.444   7.909
 2816POPC   C4B37522  24.838  21.503   7.446
 2817POPC   NC337523   5.497  16.766   9.519
 2817POPC   PO437524   6.034  16.397   9.592
 2817POPC   GL137525   5.838  16.552   9.196
 2817POPC   GL237526   6.002  16.816   9.021
 2817POPC   C1A37527   5.660  16.515   8.760
 2817POPC   D2A37528   5.708  16.700   8.323
 2817POPC   C3A37529   5.671  16.536   7.865
 2817POPC   C4A37530   5.856  16.645   7.429
 2817POPC   C1B37531   5.687  17.043   8.728
 2817POPC   C2B37532   5.653  17.320   8.376
 2817POPC   C3B37533   5.660  17.096   7.998
 2817POPC   C4B37534   6.040  16.928   7.809
 2818POPC   NC337535  20.767  18.025   9.409
 2818POPC   PO437536  20.331  18.545   9.498
 2818POPC   GL137537  20.428  18.320   9.142
 2818POPC   GL237538  20.528  18.627   9.036
 2818POPC   C1A37539  20.435  18.231   8.684
 2818POPC   D2A37540  20.676  18.120   8.278
 2818POPC   C3A37541  20.507  18.099   7.834
 2818POPC   C4A37542  20.736  17.976   7.424
 2818POPC   C1B37543  20.753  18.666   8.702
 2818POPC   C2B37544  20.544  18.622   8.342
 2818POPC   C3B37545  20.683  18.566   7.952
 2818POPC   C4B37546  20.622  18.483   7.499
 2819POPC   NC337547   5.456  37.169   9.607
 2819POPC   PO437548   5.052  36.599   9.581
 2819POPC   GL137549   5.033  36.811   9.209
 2819POPC   GL237550   5.075  37.158   9.254
 2819POPC   C1A37551   4.977  36.877   8.789
 2819POPC   D2A37552   5.074  36.634   8.456
 2819POPC   C3A37553   4.922  36.810   8.096
 2819POPC   C4A37554   5.213  36.796   7.777
 2819POPC   C1B37555   5.345  37.232   8.872
 2819POPC   C2B37556   5.220  37.161   8.410
 2819POPC   C3B37557   5.012  37.317   8.021
 2819POPC   C4B37558   4.728  37.370   7.691
 2820POPC   NC337559   4.864  19.281   9.271
 2820POPC   PO437560   5.228  18.714   9.399
 2820POPC   GL137561   5.188  18.948   9.052
 2820POPC   GL237562   5.378  19.261   9.126
 2820POPC   C1A37563   4.925  18.944   8.673
 2820POPC   D2A37564   4.858  19.086   8.249
 2820POPC   C3A37565   5.094  18.859   7.948
 2820POPC   C4A37566   5.153  18.912   7.522
 2820POPC   C1B37567   5.404  19.194   8.669
 2820POPC   C2B37568   5.539  19.248   8.254
 2820POPC   C3B37569   5.315  19.323   7.870
 2820POPC   C4B37570   4.874  19.306   7.766
 2821POPC   NC337571  27.007  37.407   9.550
 2821POPC   PO437572  26.757  36.721   9.571
 2821POPC   GL137573  26.739  36.886   9.185
 2821POPC   GL237574  26.430  37.062   9.164
 2821POPC   C1A37575  26.997  36.759   8.847
 2821POPC   D2A37576  27.126  36.832   8.436
 2821POPC   C3A37577  26.802  36.771   8.134
 2821POPC   C4A37578  26.920  36.636   7.723
 2821POPC   C1B37579  26.468  36.824   8.758
 2821POPC   C2B37580  26.355  37.012   8.388
 2821POPC   C3B37581  26.396  37.055   7.973
 2821POPC   C4B37582  26.381  37.022   7.564
 2822POPC   NC337583  19.073  27.991   9.508
 2822POPC   PO437584  19.021  28.661   9.446
 2822POPC   GL137585  18.985  28.360   9.105
 2822POPC   GL237586  19.290  28.425   8.949
 2822POPC   C1A37587  18.985  28.121   8.691
 2822POPC   D2A37588  19.234  28.148   8.270
 2822POPC   C3A37589  18.961  28.156   7.885
 2822POPC   C4A37590  18.501  28.046   7.855
 2822POPC   C1B37591  19.143  28.595   8.543
 2822POPC   C2B37592  19.126  28.633   8.102
 2822POPC   C3B37593  19.051  28.651   7.682
 2822POPC   C4B37594  18.938  28.851   7.323
 2823POPC   NC337595   7.035  32.040   9.527
 2823POPC   PO437596   7.598  32.530   9.606
 2823POPC   GL137597   7.471  32.412   9.216
 2823POPC   GL237598   7.486  32.071   9.244
 2823POPC   C1A37599   7.295  32.553   8.823
 2823POPC   D2A37600   7.472  32.659   8.426
 2823POPC   C3A37601   7.305  32.485   8.074
 2823POPC   C4A37602   7.506  32.255   7.712
 2823POPC   C1B37603   7.388  31.962   8.838
 2823POPC   C2B37604   7.220  32.163   8.457
 2823POPC   C3B37605   7.177  31.995   8.005
 2823POPC   C4B37606   7.127  31.920   7.522
 2824POPC   NC337607  24.576  39.611   9.327
 2824POPC   PO437608  24.986  39.083   9.468
 2824POPC   GL137609  24.664  39.094   9.152
 2824POPC   GL237610  24.755  39.374   8.922
 2824POPC   C1A37611  24.534  38.944   8.738
 2824POPC   D2A37612  24.768  39.154   8.406
 2824POPC   C3A37613  24.589  39.201   7.994
 2824POPC   C4A37614  24.571  39.029   7.605
 2824POPC   C1B37615  24.369  39.433   8.738
 2824POPC   C2B37616  24.329  39.473   8.345
 2824POPC   C3B37617  24.226  39.614   7.975
 2824POPC   C4B37618  24.356  39.507   7.572
 2825POPC   NC337619  14.882  35.992   9.488
 2825POPC   PO437620  15.551  36.273   9.598
 2825POPC   GL137621  15.314  36.104   9.222
 2825POPC   GL237622  14.999  36.236   9.068
 2825POPC   C1A37623  15.366  35.931   8.835
 2825POPC   D2A37624  15.419  36.077   8.418
 2825POPC   C3A37625  15.334  36.160   7.999
 2825POPC   C4A37626  15.538  36.164   7.616
 2825POPC   C1B37627  14.882  36.184   8.658
 2825POPC   C2B37628  14.923  36.004   8.265
 2825POPC   C3B37629  14.808  35.929   7.829
 2825POPC   C4B37630  15.049  35.892   7.412
 2826POPC   NC337631  28.769  21.912   9.300
 2826POPC   PO437632  29.296  22.274   9.475
 2826POPC   GL137633  29.190  22.116   9.079
 2826POPC   GL237634  29.205  21.753   9.070
 2826POPC   C1A37635  29.017  22.301   8.724
 2826POPC   D2A37636  29.132  22.590   8.404
 2826POPC   C3A37637  29.192  22.441   7.986
 2826POPC   C4A37638  28.800  22.408   7.775
 2826POPC   C1B37639  29.393  21.777   8.680
 2826POPC   C2B37640  29.254  22.059   8.337
 2826POPC   C3B37641  29.060  21.945   7.925
 2826POPC   C4B37642  29.135  21.945   7.481
 2827POPC   NC337643  36.840  37.456   9.360
 2827POPC   PO437644  37.285  38.037   9.488
 2827POPC   GL137645  37.053  37.860   9.137
 2827POPC   GL237646  36.725  38.010   9.083
 2827POPC   C1A37647  37.065  37.936   8.690
 2827POPC   D2A37648  36.804  37.933   8.330
 2827POPC   C3A37649  36.990  37.698   7.994
 2827POPC   C4A37650  37.238  37.782   7.650
 2827POPC   C1B37651  36.607  37.703   8.776
 2827POPC   C2B37652  36.531  37.380   8.469
 2827POPC   C3B37653  36.579  37.402   8.030
 2827POPC   C4B37654  36.712  37.412   7.594
 2828POPC   NC337655  34.955   3.454   9.371
 2828POPC   PO437656  35.432   3.875   9.434
 2828POPC   GL137657  35.587   3.695   9.073
 2828POPC   GL237658  35.436   3.371   9.124
 2828POPC   C1A37659  35.527   3.605   8.641
 2828POPC   D2A37660  35.158   3.478   8.443
 2828POPC   C3A37661  35.127   3.618   8.023
 2828POPC   C4A37662  35.170   3.282   7.728
 2828POPC   C1B37663  35.782   3.226   8.860
 2828POPC   C2B37664  35.608   3.090   8.481
 2828POPC   C3B37665  35.520   3.301   8.109
 2828POPC   C4B37666  35.566   3.584   7.743
 2829POPC   NC337667  19.626   1.816   9.405
 2829POPC   PO437668  20.069   2.175   9.681
 2829POPC   GL137669  20.153   1.871   9.245
 2829POPC   GL237670  19.881   1.837   8.986
 2829POPC   C1A37671  20.337   1.891   8.795
 2829POPC   D2A37672  20.059   1.910   8.418
 2829POPC   C3A37673  20.180   2.068   8.018
 2829POPC   C4A37674  20.118   2.096   7.587
 2829POPC   C1B37675  19.584   1.630   8.746
 2829POPC   C2B37676  19.632   1.654   8.321
 2829POPC   C3B37677  19.695   1.956   7.938
 2829POPC   C4B37678  19.618   2.073   7.467
 2830POPC   NC337679   8.001  25.900   9.549
 2830POPC   PO437680   8.637  26.225   9.429
 2830POPC   GL137681   8.316  26.225   9.139
 2830POPC   GL237682   8.250  25.880   9.123
 2830POPC   C1A37683   8.165  26.167   8.701
 2830POPC   D2A37684   7.893  26.300   8.373
 2830POPC   C3A37685   8.151  26.260   8.018
 2830POPC   C4A37686   8.349  25.898   7.859
 2830POPC   C1B37687   8.259  25.664   8.756
 2830POPC   C2B37688   8.107  25.780   8.307
 2830POPC   C3B37689   7.893  25.607   7.903
 2830POPC   C4B37690   7.870  25.617   7.377
 2831POPC   NC337691  33.284  43.828   9.856
 2831POPC   PO437692  32.831  44.184   9.443
 2831POPC   GL137693  33.144  44.046   9.169
 2831POPC   GL237694  33.201  43.731   9.322
 2831POPC   C1A37695  33.020  44.005   8.738
 2831POPC   D2A37696  33.188  43.885   8.383
 2831POPC   C3A37697  32.950  43.963   8.071
 2831POPC   C4A37698  33.237  44.057   7.771
 2831POPC   C1B37699  33.190  43.562   8.865
 2831POPC   C2B37700  32.900  43.481   8.453
 2831POPC   C3B37701  32.843  43.456   7.994
 2831POPC   C4B37702  33.140  43.438   7.641
 2832POPC   NC337703   7.140   5.154  10.002
 2832POPC   PO437704   6.518   5.256   9.666
 2832POPC   GL137705   6.433   5.105   9.229
 2832POPC   GL237706   6.666   4.835   9.186
 2832POPC   C1A37707   6.560   5.180   8.819
 2832POPC   D2A37708   6.572   4.922   8.489
 2832POPC   C3A37709   6.432   5.151   8.186
 2832POPC   C4A37710   6.535   5.157   7.796
 2832POPC   C1B37711   6.798   4.612   8.822
 2832POPC   C2B37712   7.025   4.649   8.418
 2832POPC   C3B37713   6.859   4.827   8.064
 2832POPC   C4B37714   6.961   4.909   7.665
 2833POPC   NC337715  20.108  20.003   9.632
 2833POPC   PO437716  19.526  19.785   9.452
 2833POPC   GL137717  19.659  19.964   9.102
 2833POPC   GL237718  20.041  19.970   9.113
 2833POPC   C1A37719  19.464  19.871   8.722
 2833POPC   D2A37720  19.268  19.998   8.401
 2833POPC   C3A37721  19.514  19.885   8.086
 2833POPC   C4A37722  19.696  20.252   7.928
 2833POPC   C1B37723  19.926  20.084   8.685
 2833POPC   C2B37724  20.025  19.955   8.248
 2833POPC   C3B37725  20.249  19.714   7.907
 2833POPC   C4B37726  20.098  19.713   7.453
 2834POPC   NC337727  25.809  30.910   9.517
 2834POPC   PO437728  26.316  30.563   9.329
 2834POPC   GL137729  25.988  30.743   9.080
 2834POPC   GL237730  25.845  30.492   8.987
 2834POPC   C1A37731  25.730  30.969   8.774
 2834POPC   D2A37732  25.825  31.064   8.350
 2834POPC   C3A37733  25.946  30.743   8.068
 2834POPC   C4A37734  25.875  30.647   7.642
 2834POPC   C1B37735  26.039  30.601   8.572
 2834POPC   C2B37736  26.301  30.418   8.243
 2834POPC   C3B37737  26.377  30.556   7.843
 2834POPC   C4B37738  26.514  30.548   7.382
 2835POPC   NC337739  35.321  39.545   9.660
 2835POPC   PO437740  35.768  39.262   9.237
 2835POPC   GL137741  35.452  39.218   9.018
 2835POPC   GL237742  35.180  39.311   9.186
 2835POPC   C1A37743  35.518  39.207   8.605
 2835POPC   D2A37744  35.698  39.560   8.405
 2835POPC   C3A37745  35.553  39.432   8.036
 2835POPC   C4A37746  35.413  39.043   7.868
 2835POPC   C1B37747  34.994  39.315   8.783
 2835POPC   C2B37748  35.114  39.423   8.364
 2835POPC   C3B37749  35.034  39.376   7.947
 2835POPC   C4B37750  34.943  39.129   7.617
 2836POPC   NC337751  14.630  20.219   9.507
 2836POPC   PO437752  14.354  20.770   9.476
 2836POPC   GL137753  14.381  20.477   9.121
 2836POPC   GL237754  14.741  20.381   9.011
 2836POPC   C1A37755  14.323  20.589   8.692
 2836POPC   D2A37756  14.586  20.475   8.368
 2836POPC   C3A37757  14.501  20.429   7.925
 2836POPC   C4A37758  14.248  20.273   7.547
 2836POPC   C1B37759  14.870  20.730   8.720
 2836POPC   C2B37760  14.860  20.903   8.286
 2836POPC   C3B37761  14.788  20.875   7.846
 2836POPC   C4B37762  14.559  20.690   7.503
 2837POPC   NC337763   6.099  19.876   9.319
 2837POPC   PO437764   5.543  20.170   9.596
 2837POPC   GL137765   5.623  20.057   9.177
 2837POPC   GL237766   5.622  19.714   9.138
 2837POPC   C1A37767   5.792  20.133   8.762
 2837POPC   D2A37768   6.094  20.021   8.418
 2837POPC   C3A37769   5.944  20.128   8.004
 2837POPC   C4A37770   5.522  20.076   7.794
 2837POPC   C1B37771   5.734  19.619   8.733
 2837POPC   C2B37772   5.575  19.827   8.384
 2837POPC   C3B37773   5.702  19.669   8.019
 2837POPC   C4B37774   5.625  19.624   7.591
 2838POPC   NC337775   4.752  25.918   9.484
 2838POPC   PO437776   5.420  26.174   9.455
 2838POPC   GL137777   5.199  25.978   9.130
 2838POPC   GL237778   4.920  26.197   9.082
 2838POPC   C1A37779   5.159  25.737   8.742
 2838POPC   D2A37780   4.963  25.750   8.316
 2838POPC   C3A37781   5.179  26.055   8.036
 2838POPC   C4A37782   5.385  26.011   7.600
 2838POPC   C1B37783   4.917  26.171   8.653
 2838POPC   C2B37784   4.668  26.294   8.315
 2838POPC   C3B37785   4.674  26.166   7.870
 2838POPC   C4B37786   4.880  26.114   7.454
 2839POPC   NC337787  11.641  10.538   9.440
 2839POPC   PO437788  12.319  10.786   9.466
 2839POPC   GL137789  12.083  10.602   9.139
 2839POPC   GL237790  12.020  10.273   9.190
 2839POPC   C1A37791  11.795  10.658   8.793
 2839POPC   D2A37792  11.631  10.693   8.390
 2839POPC   C3A37793  11.933  10.676   8.073
 2839POPC   C4A37794  11.797  10.741   7.681
 2839POPC   C1B37795  12.109  10.247   8.773
 2839POPC   C2B37796  11.970  10.263   8.374
 2839POPC   C3B37797  12.143  10.182   8.016
 2839POPC   C4B37798  12.069  10.128   7.594
 2840POPC   NC337799  12.856  31.392   9.494
 2840POPC   PO437800  13.494  31.581   9.627
 2840POPC   GL137801  13.175  31.690   9.177
 2840POPC   GL237802  12.787  31.593   9.051
 2840POPC   C1A37803  13.091  31.717   8.684
 2840POPC   D2A37804  12.740  31.574   8.365
 2840POPC   C3A37805  12.801  31.564   7.881
 2840POPC   C4A37806  13.015  31.388   7.510
 2840POPC   C1B37807  12.858  31.227   8.763
 2840POPC   C2B37808  12.671  31.042   8.385
 2840POPC   C3B37809  12.833  31.040   7.949
 2840POPC   C4B37810  12.583  31.121   7.586
 2841POPC   NC337811  31.821   9.087   9.518
 2841POPC   PO437812  31.197   8.633   9.410
 2841POPC   GL137813  31.366   8.810   8.999
 2841POPC   GL237814  31.705   8.960   9.043
 2841POPC   C1A37815  31.561   8.785   8.595
 2841POPC   D2A37816  31.573   8.601   8.198
 2841POPC   C3A37817  31.380   8.813   7.883
 2841POPC   C4A37818  31.104   8.995   7.624
 2841POPC   C1B37819  31.879   9.225   8.729
 2841POPC   C2B37820  31.723   9.328   8.326
 2841POPC   C3B37821  31.555   9.285   7.921
 2841POPC   C4B37822  31.640   9.148   7.480
 2842POPC   NC337823  21.650  23.047   9.518
 2842POPC   PO437824  22.303  22.754   9.602
 2842POPC   GL137825  22.173  22.923   9.208
 2842POPC   GL237826  21.995  23.236   9.200
 2842POPC   C1A37827  22.323  22.749   8.818
 2842POPC   D2A37828  22.279  22.960   8.429
 2842POPC   C3A37829  22.388  22.730   8.066
 2842POPC   C4A37830  22.241  22.708   7.682
 2842POPC   C1B37831  21.906  23.494   8.852
 2842POPC   C2B37832  21.995  23.462   8.431
 2842POPC   C3B37833  22.092  23.236   8.044
 2842POPC   C4B37834  22.012  23.183   7.623
 2843POPC   NC337835  17.814  20.047   9.532
 2843POPC   PO437836  17.263  19.636   9.462
 2843POPC   GL137837  17.442  19.838   9.148
 2843POPC   GL237838  17.747  19.710   9.081
 2843POPC   C1A37839  17.524  19.967   8.700
 2843POPC   D2A37840  17.736  19.810   8.327
 2843POPC   C3A37841  17.460  19.892   7.979
 2843POPC   C4A37842  17.245  20.268   7.808
 2843POPC   C1B37843  17.502  19.449   8.795
 2843POPC   C2B37844  17.565  19.306   8.377
 2843POPC   C3B37845  17.713  19.415   7.984
 2843POPC   C4B37846  17.588  19.584   7.582
 2844POPC   NC337847   5.877  40.322   9.460
 2844POPC   PO437848   5.819  40.940   9.709
 2844POPC   GL137849   5.894  40.998   9.199
 2844POPC   GL237850   5.813  40.655   9.092
 2844POPC   C1A37851   6.078  40.856   8.751
 2844POPC   D2A37852   5.967  40.971   8.390
 2844POPC   C3A37853   5.998  40.847   8.000
 2844POPC   C4A37854   5.827  41.195   7.801
 2844POPC   C1B37855   5.565  40.853   8.752
 2844POPC   C2B37856   5.540  40.641   8.358
 2844POPC   C3B37857   5.645  40.282   8.122
 2844POPC   C4B37858   5.764  40.463   7.758
 2845POPC   NC337859  16.948  41.680   9.400
 2845POPC   PO437860  16.355  41.799   9.613
 2845POPC   GL137861  16.526  41.785   9.156
 2845POPC   GL237862  16.578  41.504   8.920
 2845POPC   C1A37863  16.871  41.879   8.782
 2845POPC   D2A37864  16.781  41.608   8.403
 2845POPC   C3A37865  16.904  41.698   7.976
 2845POPC   C4A37866  16.843  41.750   7.533
 2845POPC   C1B37867  16.993  41.320   8.770
 2845POPC   C2B37868  16.934  41.088   8.410
 2845POPC   C3B37869  16.884  41.191   8.037
 2845POPC   C4B37870  17.186  41.194   7.748
 2846POPC   NC337871  28.038  22.301   9.476
 2846POPC   PO437872  27.399  22.083   9.556
 2846POPC   GL137873  27.590  22.067   9.217
 2846POPC   GL237874  27.843  21.838   9.244
 2846POPC   C1A37875  27.501  22.263   8.842
 2846POPC   D2A37876  27.460  22.109   8.448
 2846POPC   C3A37877  27.562  22.372   8.126
 2846POPC   C4A37878  27.464  22.173   7.755
 2846POPC   C1B37879  27.638  21.766   8.822
 2846POPC   C2B37880  27.764  21.692   8.422
 2846POPC   C3B37881  27.820  21.924   8.067
 2846POPC   C4B37882  27.752  21.730   7.689
 2847POPC   NC337883  36.958   1.790   9.552
 2847POPC   PO437884  36.590   2.393   9.511
 2847POPC   GL137885  36.804   2.131   9.189
 2847POPC   GL237886  37.148   1.978   9.136
 2847POPC   C1A37887  36.736   1.965   8.787
 2847POPC   D2A37888  36.572   2.132   8.398
 2847POPC   C3A37889  36.772   2.049   8.034
 2847POPC   C4A37890  36.733   1.704   7.783
 2847POPC   C1B37891  37.213   2.256   8.830
 2847POPC   C2B37892  37.111   2.111   8.438
 2847POPC   C3B37893  37.259   2.196   8.033
 2847POPC   C4B37894  37.214   1.955   7.697
 2848POPC   NC337895   4.593  31.138   9.317
 2848POPC   PO437896   4.047  31.421   9.490
 2848POPC   GL137897   4.239  31.458   9.087
 2848POPC   GL237898   4.521  31.651   9.172
 2848POPC   C1A37899   4.311  31.311   8.639
 2848POPC   D2A37900   4.117  31.477   8.252
 2848POPC   C3A37901   4.297  31.404   7.842
 2848POPC   C4A37902   4.557  31.101   7.607
 2848POPC   C1B37903   4.730  31.860   8.827
 2848POPC   C2B37904   4.807  31.644   8.443
 2848POPC   C3B37905   4.559  31.738   8.104
 2848POPC   C4B37906   4.519  32.074   7.827
 2849POPC   NC337907  44.056  27.927   9.739
 2849POPC   PO437908  43.911  28.486   9.359
 2849POPC   GL137909  43.972  28.141   9.033
 2849POPC   GL237910  44.046  28.419   8.866
 2849POPC   C1A37911  43.833  28.078   8.568
 2849POPC   D2A37912  43.576  28.256   8.242
 2849POPC   C3A37913  43.791  28.193   7.847
 2849POPC   C4A37914  44.142  27.892   7.767
 2849POPC   C1B37915  43.639  28.562   8.750
 2849POPC   C2B37916  43.689  28.763   8.382
 2849POPC   C3B37917  43.571  28.959   8.054
 2849POPC   C4B37918  43.668  28.698   7.731
 2850POPC   NC337919  43.453  10.948   9.307
 2850POPC   PO437920  43.976  11.369   9.439
 2850POPC   GL137921  43.895  11.223   9.062
 2850POPC   GL237922  44.010  10.886   9.146
 2850POPC   C1A37923  44.130  11.268   8.668
 2850POPC   D2A37924  44.254  11.423   8.290
 2850POPC   C3A37925  43.970  11.533   7.960
 2850POPC   C4A37926  43.871  11.299   7.584
 2850POPC   C1B37927  43.892  10.840   8.720
 2850POPC   C2B37928  44.010  10.805   8.293
 2850POPC   C3B37929  43.822  10.919   7.925
 2850POPC   C4B37930  43.443  11.019   7.706
 2851POPC   NC337931  33.630  44.268   9.380
 2851POPC   PO437932  33.989  44.817   9.720
 2851POPC   GL137933  33.906  44.686   9.282
 2851POPC   GL237934  33.606  44.844   9.258
 2851POPC   C1A37935  33.906  44.510   8.849
 2851POPC   D2A37936  33.802  44.612   8.444
 2851POPC   C3A37937  34.071  44.593   8.094
 2851POPC   C4A37938  34.060  44.685   7.647
 2851POPC   C1B37939  33.474  44.798   8.840
 2851POPC   C2B37940  33.358  44.869   8.413
 2851POPC   C3B37941  33.628  44.858   8.027
 2851POPC   C4B37942  33.615  44.468   7.757
 2852POPC   NC337943  28.333  21.257   9.479
 2852POPC   PO437944  28.386  21.983   9.555
 2852POPC   GL137945  28.345  21.671   9.198
 2852POPC   GL237946  28.081  21.417   9.066
 2852POPC   C1A37947  28.534  21.429   8.833
 2852POPC   D2A37948  28.413  21.288   8.427
 2852POPC   C3A37949  28.650  21.463   8.075
 2852POPC   C4A37950  28.648  21.213   7.715
 2852POPC   C1B37951  28.139  21.783   8.772
 2852POPC   C2B37952  28.266  21.813   8.363
 2852POPC   C3B37953  28.142  21.538   8.066
 2852POPC   C4B37954  28.259  21.503   7.703
 2853POPC   NC337955  33.474  28.199   9.637
 2853POPC   PO437956  32.847  28.373   9.509
 2853POPC   GL137957  33.044  28.183   9.179
 2853POPC   GL237958  33.322  28.381   9.188
 2853POPC   C1A37959  33.168  28.175   8.731
 2853POPC   D2A37960  32.997  28.395   8.367
 2853POPC   C3A37961  33.055  28.275   7.945
 2853POPC   C4A37962  32.879  27.961   7.657
 2853POPC   C1B37963  33.435  28.619   8.845
 2853POPC   C2B37964  33.509  28.488   8.429
 2853POPC   C3B37965  33.421  28.648   8.027
 2853POPC   C4B37966  33.423  28.470   7.591
 2854POPC   NC337967   4.284   6.043   9.578
 2854POPC   PO437968   4.049   5.526   9.285
 2854POPC   GL137969   4.227   5.922   9.082
 2854POPC   GL237970   4.600   5.950   9.088
 2854POPC   C1A37971   4.317   5.952   8.634
 2854POPC   D2A37972   4.225   5.615   8.361
 2854POPC   C3A37973   4.283   5.706   7.951
 2854POPC   C4A37974   4.169   6.131   7.897
 2854POPC   C1B37975   4.714   5.640   8.715
 2854POPC   C2B37976   4.702   5.458   8.248
 2854POPC   C3B37977   4.715   5.446   7.775
 2854POPC   C4B37978   4.947   5.456   7.353
 2855POPC   NC337979   7.799   2.349   9.409
 2855POPC   PO437980   7.249   2.694   9.683
 2855POPC   GL137981   7.435   2.754   9.280
 2855POPC   GL237982   7.669   3.010   9.238
 2855POPC   C1A37983   7.258   2.801   8.865
 2855POPC   D2A37984   7.222   2.552   8.487
 2855POPC   C3A37985   7.450   2.547   8.108
 2855POPC   C4A37986   7.312   2.611   7.714
 2855POPC   C1B37987   7.752   2.702   8.868
 2855POPC   C2B37988   7.925   2.761   8.468
 2855POPC   C3B37989   7.800   2.910   8.078
 2855POPC   C4B37990   7.795   2.759   7.706
 2856POPC   NC337991  25.413   1.531   9.558
 2856POPC   PO437992  26.043   1.202   9.468
 2856POPC   GL137993  26.052   1.004   9.089
 2856POPC   GL237994  26.339   0.781   8.955
 2856POPC   C1A37995  25.915   1.210   8.734
 2856POPC   D2A37996  25.771   1.420   8.353
 2856POPC   C3A37997  25.964   1.271   7.995
 2856POPC   C4A37998  26.063   0.979   7.676
 2856POPC   C1B37999  26.424   1.165   8.772
 2856POPC   C2B38000  26.295   1.297   8.397
 2856POPC   C3B38001  26.459   1.170   7.991
 2856POPC   C4B38002  26.394   1.370   7.598
 2857POPC   NC338003  28.625  22.101   9.928
 2857POPC   PO438004  28.463  22.539   9.452
 2857POPC   GL138005  28.380  22.252   9.098
 2857POPC   GL238006  28.029  22.256   8.974
 2857POPC   C1A38007  28.486  22.168   8.672
 2857POPC   D2A38008  28.726  22.196   8.270
 2857POPC   C3A38009  28.523  21.967   7.935
 2857POPC   C4A38010  28.675  21.761   7.593
 2857POPC   C1B38011  27.957  22.218   8.532
 2857POPC   C2B38012  28.160  22.287   8.141
 2857POPC   C3B38013  28.288  22.401   7.740
 2857POPC   C4B38014  28.136  22.428   7.314
 2858POPC   NC338015  34.064  19.786   9.548
 2858POPC   PO438016  33.487  20.115   9.516
 2858POPC   GL138017  33.741  19.956   9.124
 2858POPC   GL238018  33.951  19.608   9.095
 2858POPC   C1A38019  33.859  19.841   8.675
 2858POPC   D2A38020  34.070  19.824   8.309
 2858POPC   C3A38021  33.743  19.695   8.009
 2858POPC   C4A38022  33.711  19.681   7.567
 2858POPC   C1B38023  34.026  19.341   8.718
 2858POPC   C2B38024  33.944  19.293   8.268
 2858POPC   C3B38025  34.244  19.491   7.975
 2858POPC   C4B38026  34.240  19.590   7.559
 2859POPC   NC338027   5.429  38.698   9.791
 2859POPC   PO438028   5.929  38.321   9.596
 2859POPC   GL138029   5.805  38.349   9.173
 2859POPC   GL238030   5.917  38.659   9.026
 2859POPC   C1A38031   5.862  38.219   8.745
 2859POPC   D2A38032   5.923  38.531   8.436
 2859POPC   C3A38033   6.045  38.474   8.029
 2859POPC   C4A38034   5.952  38.287   7.613
 2859POPC   C1B38035   5.699  38.910   8.697
 2859POPC   C2B38036   5.542  38.857   8.340
 2859POPC   C3B38037   5.506  38.555   8.081
 2859POPC   C4B38038   5.697  38.702   7.751
 2860POPC   NC338039  23.970  41.821   9.548
 2860POPC   PO438040  23.411  41.420   9.455
 2860POPC   GL138041  23.619  41.521   9.101
 2860POPC   GL238042  23.993  41.487   9.138
 2860POPC   C1A38043  23.579  41.684   8.677
 2860POPC   D2A38044  23.493  41.456   8.281
 2860POPC   C3A38045  23.603  41.562   7.867
 2860POPC   C4A38046  23.940  41.329   7.695
 2860POPC   C1B38047  24.132  41.740   8.763
 2860POPC   C2B38048  23.985  42.005   8.385
 2860POPC   C3B38049  23.935  41.962   7.909
 2860POPC   C4B38050  24.176  41.823   7.543
 2861POPC   NC338051  34.011  43.487   9.549
 2861POPC   PO438052  33.844  42.804   9.750
 2861POPC   GL138053  33.777  42.872   9.266
 2861POPC   GL238054  33.695  43.240   9.201
 2861POPC   C1A38055  33.993  42.942   8.866
 2861POPC   D2A38056  33.815  43.157   8.548
 2861POPC   C3A38057  33.814  43.216   8.134
 2861POPC   C4A38058  34.097  43.029   7.863
 2861POPC   C1B38059  34.020  43.466   8.892
 2861POPC   C2B38060  34.133  43.552   8.447
 2861POPC   C3B38061  34.010  43.690   8.000
 2861POPC   C4B38062  34.126  43.471   7.589
 2862POPC   NC338063   0.408  44.031   9.439
 2862POPC   PO438064   1.016  43.686   9.567
 2862POPC   GL138065   0.714  43.728   9.146
 2862POPC   GL238066   0.356  43.787   9.001
 2862POPC   C1A38067   0.694  43.939   8.687
 2862POPC   D2A38068   0.398  44.117   8.375
 2862POPC   C3A38069   0.624  44.089   8.010
 2862POPC   C4A38070   0.804  43.765   7.788
 2862POPC   C1B38071   0.036  44.063   8.780
 2862POPC   C2B38072  44.904  44.286   8.417
 2862POPC   C3B38073  44.961  44.132   8.029
 2862POPC   C4B38074   0.218  44.065   7.709
 2863POPC   NC338075   4.495  19.749   9.544
 2863POPC   PO438076   3.852  20.049   9.532
 2863POPC   GL138077   4.069  19.799   9.195
 2863POPC   GL238078   4.379  19.960   9.119
 2863POPC   C1A38079   4.273  19.560   8.824
 2863POPC   D2A38080   4.425  19.553   8.393
 2863POPC   C3A38081   4.157  19.584   8.044
 2863POPC   C4A38082   4.215  19.755   7.661
 2863POPC   C1B38083   4.213  20.082   8.751
 2863POPC   C2B38084   4.028  19.937   8.402
 2863POPC   C3B38085   4.262  20.090   8.058
 2863POPC   C4B38086   4.116  20.246   7.684
 2864POPC   NC338087  16.051  32.425   9.358
 2864POPC   PO438088  15.607  31.966   9.433
 2864POPC   GL138089  15.739  32.154   9.062
 2864POPC   GL238090  15.597  32.506   9.128
 2864POPC   C1A38091  15.955  32.158   8.664
 2864POPC   D2A38092  15.885  32.312   8.262
 2864POPC   C3A38093  16.042  32.118   7.890
 2864POPC   C4A38094  16.369  32.313   7.604
 2864POPC   C1B38095  15.780  32.657   8.750
 2864POPC   C2B38096  15.566  32.704   8.357
 2864POPC   C3B38097  15.594  32.565   7.929
 2864POPC   C4B38098  15.921  32.566   7.667
 2865POPC   NC338099  32.860   3.981   9.383
 2865POPC   PO438100  32.889   3.337   9.674
 2865POPC   GL138101  32.986   3.482   9.236
 2865POPC   GL238102  33.289   3.707   9.206
 2865POPC   C1A38103  33.139   3.429   8.785
 2865POPC   D2A38104  33.317   3.295   8.392
 2865POPC   C3A38105  33.064   3.386   8.026
 2865POPC   C4A38106  32.834   3.284   7.624
 2865POPC   C1B38107  33.146   3.954   8.815
 2865POPC   C2B38108  33.147   3.817   8.370
 2865POPC   C3B38109  33.015   3.908   7.933
 2865POPC   C4B38110  33.222   3.968   7.529
 2866POPC   NC338111  36.711  18.453   9.424
 2866POPC   PO438112  37.176  18.000   9.498
 2866POPC   GL138113  36.995  18.109   9.120
 2866POPC   GL238114  36.646  18.069   9.072
 2866POPC   C1A38115  36.932  18.254   8.694
 2866POPC   D2A38116  37.175  18.367   8.378
 2866POPC   C3A38117  36.937  18.317   8.065
 2866POPC   C4A38118  37.110  18.345   7.680
 2866POPC   C1B38119  36.605  17.868   8.659
 2866POPC   C2B38120  36.512  17.811   8.201
 2866POPC   C3B38121  36.782  17.909   7.845
 2866POPC   C4B38122  36.626  18.228   7.596
 2867POPC   NC338123   2.878  24.036   9.510
 2867POPC   PO438124   2.358  23.697   9.401
 2867POPC   GL138125   2.723  23.745   9.139
 2867POPC   GL238126   2.990  23.521   9.183
 2867POPC   C1A38127   2.912  23.925   8.760
 2867POPC   D2A38128   2.693  24.028   8.361
 2867POPC   C3A38129   2.799  23.801   7.992
 2867POPC   C4A38130   2.461  23.762   7.720
 2867POPC   C1B38131   2.753  23.372   8.820
 2867POPC   C2B38132   2.734  23.504   8.407
 2867POPC   C3B38133   2.609  23.322   8.009
 2867POPC   C4B38134   2.784  23.375   7.619
 2868POPC   NC338135  24.204   3.657   9.488
 2868POPC   PO438136  24.681   3.164   9.768
 2868POPC   GL138137  24.464   3.197   9.365
 2868POPC   GL238138  24.638   3.479   9.238
 2868POPC   C1A38139  24.328   3.227   8.896
 2868POPC   D2A38140  24.457   3.375   8.480
 2868POPC   C3A38141  24.414   3.251   8.037
 2868POPC   C4A38142  24.840   3.243   7.774
 2868POPC   C1B38143  24.510   3.725   8.869
 2868POPC   C2B38144  24.703   3.845   8.498
 2868POPC   C3B38145  24.727   3.630   8.119
 2868POPC   C4B38146  24.590   3.672   7.720
 2869POPC   NC338147   6.362  38.440   9.527
 2869POPC   PO438148   6.961  38.711   9.512
 2869POPC   GL138149   6.813  38.610   9.094
 2869POPC   GL238150   6.463  38.680   9.080
 2869POPC   C1A38151   6.886  38.443   8.662
 2869POPC   D2A38152   6.973  38.636   8.259
 2869POPC   C3A38153   6.816  38.415   7.920
 2869POPC   C4A38154   6.897  38.476   7.483
 2869POPC   C1B38155   6.351  38.451   8.721
 2869POPC   C2B38156   6.307  38.171   8.356
 2869POPC   C3B38157   6.372  38.119   7.893
 2869POPC   C4B38158   6.412  38.500   7.626
 2870POPC   NC338159  21.941   4.366   9.392
 2870POPC   PO438160  22.451   3.971   9.621
 2870POPC   GL138161  22.284   4.063   9.186
 2870POPC   GL238162  21.947   3.970   9.039
 2870POPC   C1A38163  22.144   4.368   8.787
 2870POPC   D2A38164  22.226   4.597   8.432
 2870POPC   C3A38165  22.131   4.482   8.041
 2870POPC   C4A38166  22.285   4.461   7.633
 2870POPC   C1B38167  22.260   3.894   8.722
 2870POPC   C2B38168  22.179   4.043   8.316
 2870POPC   C3B38169  22.007   3.977   7.915
 2870POPC   C4B38170  22.128   4.010   7.473
 2871POPC   NC338171  18.842   2.952   9.450
 2871POPC   PO438172  19.525   3.013   9.639
 2871POPC   GL138173  19.323   2.860   9.293
 2871POPC   GL238174  19.188   3.128   9.136
 2871POPC   C1A38175  19.183   2.626   8.921
 2871POPC   D2A38176  19.410   2.617   8.521
 2871POPC   C3A38177  19.245   2.558   8.105
 2871POPC   C4A38178  19.321   2.452   7.686
 2871POPC   C1B38179  19.019   3.077   8.750
 2871POPC   C2B38180  19.140   3.020   8.356
 2871POPC   C3B38181  18.934   2.944   7.954
 2871POPC   C4B38182  18.598   2.643   7.858
 2872POPC   NC338183  15.302  34.885   9.371
 2872POPC   PO438184  15.030  35.526   9.585
 2872POPC   GL138185  15.057  35.605   9.136
 2872POPC   GL238186  15.298  35.322   9.070
 2872POPC   C1A38187  15.072  35.576   8.662
 2872POPC   D2A38188  15.422  35.534   8.423
 2872POPC   C3A38189  15.257  35.649   8.066
 2872POPC   C4A38190  15.018  35.463   7.771
 2872POPC   C1B38191  15.035  35.090   8.760
 2872POPC   C2B38192  14.888  35.207   8.307
 2872POPC   C3B38193  14.878  35.001   7.872
 2872POPC   C4B38194  14.742  35.060   7.421
 2873POPC   NC338195  14.832  38.973   9.521
 2873POPC   PO438196  15.087  39.593   9.499
 2873POPC   GL138197  14.913  39.361   9.184
 2873POPC   GL238198  15.157  39.111   9.156
 2873POPC   C1A38199  14.822  39.269   8.776
 2873POPC   D2A38200  15.002  39.029   8.446
 2873POPC   C3A38201  14.925  39.206   8.074
 2873POPC   C4A38202  15.090  39.258   7.688
 2873POPC   C1B38203  15.373  38.993   8.802
 2873POPC   C2B38204  15.473  38.828   8.388
 2873POPC   C3B38205  15.392  38.986   8.006
 2873POPC   C4B38206  15.498  39.374   7.942
 2874POPC   NC338207  39.177  30.193   9.493
 2874POPC   PO438208  39.609  29.691   9.363
 2874POPC   GL138209  39.347  29.905   9.098
 2874POPC   GL238210  39.419  30.256   9.038
 2874POPC   C1A38211  39.202  29.737   8.730
 2874POPC   D2A38212  39.391  29.758   8.331
 2874POPC   C3A38213  39.180  29.711   7.938
 2874POPC   C4A38214  39.372  29.710   7.517
 2874POPC   C1B38215  39.275  30.230   8.637
 2874POPC   C2B38216  39.111  30.163   8.235
 2874POPC   C3B38217  39.301  30.185   7.836
 2874POPC   C4B38218  39.178  30.205   7.432
 2875POPC   NC338219  22.453   2.737   9.477
 2875POPC   PO438220  21.972   3.134   9.654
 2875POPC   GL138221  22.102   3.048   9.211
 2875POPC   GL238222  22.419   3.015   9.064
 2875POPC   C1A38223  22.012   2.993   8.752
 2875POPC   D2A38224  21.844   3.050   8.338
 2875POPC   C3A38225  21.892   2.792   7.994
 2875POPC   C4A38226  22.169   2.854   7.679
 2875POPC   C1B38227  22.346   2.629   8.812
 2875POPC   C2B38228  22.198   2.638   8.387
 2875POPC   C3B38229  22.325   2.478   7.980
 2875POPC   C4B38230  22.539   2.521   7.597
 2876POPC   NC338231  39.522   8.146   9.514
 2876POPC   PO438232  40.129   8.400   9.336
 2876POPC   GL138233  40.061   8.213   8.997
 2876POPC   GL238234  39.811   8.003   9.117
 2876POPC   C1A38235  40.334   8.039   8.725
 2876POPC   D2A38236  40.246   7.801   8.379
 2876POPC   C3A38237  40.143   8.081   8.032
 2876POPC   C4A38238  40.025   8.258   7.636
 2876POPC   C1B38239  39.882   7.798   8.723
 2876POPC   C2B38240  39.747   7.896   8.295
 2876POPC   C3B38241  39.762   7.802   7.826
 2876POPC   C4B38242  39.628   8.023   7.452
 2877POPC   NC338243  18.421  43.458   9.788
 2877POPC   PO438244  19.054  43.317   9.489
 2877POPC   GL138245  19.060  43.152   9.104
 2877POPC   GL238246  18.789  42.924   9.088
 2877POPC   C1A38247  19.265  43.044   8.759
 2877POPC   D2A38248  19.515  43.119   8.413
 2877POPC   C3A38249  19.285  43.045   8.032
 2877POPC   C4A38250  19.336  42.736   7.737
 2877POPC   C1B38251  18.721  43.116   8.723
 2877POPC   C2B38252  18.896  43.084   8.382
 2877POPC   C3B38253  18.710  43.086   8.050
 2877POPC   C4B38254  18.880  43.014   7.703
 2878POPC   NC338255  11.442  38.829   9.557
 2878POPC   PO438256  11.241  39.443   9.426
 2878POPC   GL138257  11.328  39.270   9.079
 2878POPC   GL238258  11.154  38.970   9.155
 2878POPC   C1A38259  11.444  39.509   8.721
 2878POPC   D2A38260  11.607  39.379   8.333
 2878POPC   C3A38261  11.359  39.275   7.999
 2878POPC   C4A38262  11.443  39.325   7.577
 2878POPC   C1B38263  11.225  38.903   8.725
 2878POPC   C2B38264  11.026  38.989   8.324
 2878POPC   C3B38265  10.955  38.938   7.908
 2878POPC   C4B38266  11.288  38.836   7.667
 2879POPC   NC338267  44.133  31.682   9.490
 2879POPC   PO438268  43.619  31.256   9.333
 2879POPC   GL138269  43.761  31.609   9.101
 2879POPC   GL238270  44.105  31.505   9.023
 2879POPC   C1A38271  43.752  31.604   8.648
 2879POPC   D2A38272  43.654  31.244   8.365
 2879POPC   C3A38273  43.547  31.311   7.929
 2879POPC   C4A38274  43.560  31.068   7.542
 2879POPC   C1B38275  44.038  31.156   8.751
 2879POPC   C2B38276  44.186  31.183   8.342
 2879POPC   C3B38277  44.066  31.243   7.906
 2879POPC   C4B38278  44.092  31.531   7.560
 2880POPC   NC338279  12.457  28.975   9.531
 2880POPC   PO438280  11.806  29.287   9.635
 2880POPC   GL138281  11.929  29.135   9.219
 2880POPC   GL238282  12.252  29.145   9.107
 2880POPC   C1A38283  11.896  29.272   8.770
 2880POPC   D2A38284  11.851  29.138   8.356
 2880POPC   C3A38285  12.037  29.019   7.985
 2880POPC   C4A38286  11.950  29.229   7.636
 2880POPC   C1B38287  12.361  29.016   8.696
 2880POPC   C2B38288  12.455  29.193   8.314
 2880POPC   C3B38289  12.445  29.288   7.882
 2880POPC   C4B38290  12.349  28.946   7.549
 2881POPC   NC338291  21.056  43.075   9.535
 2881POPC   PO438292  20.516  42.808   9.537
 2881POPC   GL138293  20.499  43.023   9.165
 2881POPC   GL238294  20.785  43.122   9.064
 2881POPC   C1A38295  20.365  43.118   8.760
 2881POPC   D2A38296  20.713  43.180   8.491
 2881POPC   C3A38297  20.628  43.050   8.077
 2881POPC   C4A38298  20.285  43.221   7.861
 2881POPC   C1B38299  20.943  42.786   8.846
 2881POPC   C2B38300  21.096  42.820   8.452
 2881POPC   C3B38301  21.028  42.713   8.072
 2881POPC   C4B38302  21.084  43.048   7.794
 2882POPC   NC338303   9.054  43.232   9.558
 2882POPC   PO438304   8.427  43.410   9.428
 2882POPC   GL138305   8.724  43.149   9.168
 2882POPC   GL238306   9.111  43.053   9.076
 2882POPC   C1A38307   8.704  42.961   8.802
 2882POPC   D2A38308   8.868  43.149   8.452
 2882POPC   C3A38309   8.749  42.957   8.082
 2882POPC   C4A38310   8.528  43.191   7.812
 2882POPC   C1B38311   9.358  42.991   8.662
 2882POPC   C2B38312   9.280  42.984   8.199
 2882POPC   C3B38313   9.119  43.226   7.816
 2882POPC   C4B38314   9.262  43.157   7.372
 2883POPC   NC338315  27.874   0.686   9.629
 2883POPC   PO438316  28.276   0.138   9.525
 2883POPC   GL138317  28.076   0.295   9.178
 2883POPC   GL238318  28.119   0.671   9.186
 2883POPC   C1A38319  28.112   0.104   8.775
 2883POPC   D2A38320  28.232   0.268   8.387
 2883POPC   C3A38321  28.505   0.104   8.041
 2883POPC   C4A38322  28.243   0.214   7.705
 2883POPC   C1B38323  28.318   0.631   8.793
 2883POPC   C2B38324  28.513   0.726   8.417
 2883POPC   C3B38325  28.394   0.589   8.027
 2883POPC   C4B38326  28.001   0.649   7.839
 2884POPC   NC338327  25.669   7.940   9.977
 2884POPC   PO438328  25.130   8.105   9.590
 2884POPC   GL138329  25.029   8.005   9.184
 2884POPC   GL238330  25.352   8.122   9.117
 2884POPC   C1A38331  25.007   8.092   8.730
 2884POPC   D2A38332  25.044   7.963   8.306
 2884POPC   C3A38333  24.854   8.301   8.130
 2884POPC   C4A38334  25.069   8.600   7.926
 2884POPC   C1B38335  25.512   7.967   8.735
 2884POPC   C2B38336  25.708   8.129   8.408
 2884POPC   C3B38337  25.517   8.021   8.065
 2884POPC   C4B38338  25.220   8.143   7.814
 2885POPC   NC338339  33.375  36.745   9.550
 2885POPC   PO438340  32.803  36.698   9.256
 2885POPC   GL138341  33.118  36.789   9.027
 2885POPC   GL238342  32.967  37.119   8.926
 2885POPC   C1A38343  32.935  36.709   8.640
 2885POPC   D2A38344  32.770  37.032   8.420
 2885POPC   C3A38345  33.058  36.952   8.095
 2885POPC   C4A38346  33.129  36.822   7.686
 2885POPC   C1B38347  33.289  37.067   8.564
 2885POPC   C2B38348  33.493  37.216   8.179
 2885POPC   C3B38349  33.269  37.333   7.791
 2885POPC   C4B38350  33.302  37.295   7.337
 2886POPC   NC338351  11.009   0.419   9.445
 2886POPC   PO438352  11.469   0.948   9.486
 2886POPC   GL138353  11.490   0.692   9.063
 2886POPC   GL238354  11.326   0.357   9.044
 2886POPC   C1A38355  11.301   0.711   8.685
 2886POPC   D2A38356  11.224   0.498   8.320
 2886POPC   C3A38357  11.314   0.734   7.954
 2886POPC   C4A38358  11.345   0.631   7.520
 2886POPC   C1B38359  11.137   0.139   8.674
 2886POPC   C2B38360  11.004   0.045   8.212
 2886POPC   C3B38361  11.236   0.185   7.812
 2886POPC   C4B38362  11.515   0.163   7.404
 2887POPC   NC338363   4.278  30.231   9.229
 2887POPC   PO438364   3.985  29.704   9.416
 2887POPC   GL138365   4.196  29.712   9.043
 2887POPC   GL238366   4.468  29.800   9.036
 2887POPC   C1A38367   4.194  29.871   8.607
 2887POPC   D2A38368   3.858  30.049   8.343
 2887POPC   C3A38369   3.987  30.076   7.910
 2887POPC   C4A38370   4.185  29.799   7.569
 2887POPC   C1B38371   4.661  30.056   8.738
 2887POPC   C2B38372   4.714  29.873   8.370
 2887POPC   C3B38373   4.774  30.080   8.025
 2887POPC   C4B38374   4.459  30.209   7.770
 2888POPC   NC338375  15.054   8.028   9.626
 2888POPC   PO438376  15.565   8.224   9.287
 2888POPC   GL138377  15.190   8.122   9.126
 2888POPC   GL238378  15.034   7.791   9.166
 2888POPC   C1A38379  15.114   8.322   8.758
 2888POPC   D2A38380  15.155   8.563   8.417
 2888POPC   C3A38381  14.897   8.602   8.051
 2888POPC   C4A38382  15.109   8.634   7.651
 2888POPC   C1B38383  15.133   7.822   8.709
 2888POPC   C2B38384  15.070   8.040   8.311
 2888POPC   C3B38385  15.081   8.147   7.860
 2888POPC   C4B38386  14.944   7.870   7.522
 2889POPC   NC338387   3.165  12.091   9.529
 2889POPC   PO438388   3.795  11.963   9.751
 2889POPC   GL138389   3.635  11.881   9.310
 2889POPC   GL238390   3.347  11.637   9.311
 2889POPC   C1A38391   3.691  12.014   8.857
 2889POPC   D2A38392   3.451  12.096   8.495
 2889POPC   C3A38393   3.660  12.152   8.092
 2889POPC   C4A38394   3.639  12.497   7.784
 2889POPC   C1B38395   3.377  11.609   8.875
 2889POPC   C2B38396   3.300  11.593   8.438
 2889POPC   C3B38397   3.178  11.895   8.108
 2889POPC   C4B38398   3.310  12.091   7.724
 2890POPC   NC338399   1.844   8.623   9.434
 2890POPC   PO438400   2.243   9.216   9.430
 2890POPC   GL138401   2.084   8.967   9.120
 2890POPC   GL238402   1.713   8.999   9.117
 2890POPC   C1A38403   2.022   8.994   8.691
 2890POPC   D2A38404   2.126   8.823   8.308
 2890POPC   C3A38405   1.962   9.072   7.939
 2890POPC   C4A38406   1.882   9.171   7.484
 2890POPC   C1B38407   1.702   8.621   8.829
 2890POPC   C2B38408   1.683   8.555   8.393
 2890POPC   C3B38409   1.866   8.559   7.959
 2890POPC   C4B38410   1.694   8.707   7.584
 2891POPC   NC338411  11.969   7.960   9.625
 2891POPC   PO438412  11.441   8.317   9.743
 2891POPC   GL138413  11.878   8.415   9.384
 2891POPC   GL238414  12.183   8.172   9.226
 2891POPC   C1A38415  12.037   8.531   8.910
 2891POPC   D2A38416  12.313   8.515   8.500
 2891POPC   C3A38417  12.152   8.353   8.080
 2891POPC   C4A38418  12.251   8.496   7.662
 2891POPC   C1B38419  12.116   8.004   8.804
 2891POPC   C2B38420  12.172   7.879   8.367
 2891POPC   C3B38421  12.181   7.797   7.933
 2891POPC   C4B38422  12.031   8.060   7.613
 2892POPC   NC338423  32.908  12.705   9.454
 2892POPC   PO438424  33.420  13.154   9.331
 2892POPC   GL138425  33.135  12.979   9.067
 2892POPC   GL238426  32.806  13.143   9.106
 2892POPC   C1A38427  33.099  13.095   8.652
 2892POPC   D2A38428  33.125  12.911   8.283
 2892POPC   C3A38429  33.197  13.086   7.875
 2892POPC   C4A38430  33.037  12.853   7.516
 2892POPC   C1B38431  32.653  12.848   8.787
 2892POPC   C2B38432  32.688  12.628   8.360
 2892POPC   C3B38433  32.727  12.866   7.960
 2892POPC   C4B38434  32.546  12.987   7.582
 2893POPC   NC338435  35.555  19.091   9.572
 2893POPC   PO438436  34.917  19.058   9.424
 2893POPC   GL138437  35.257  18.891   9.187
 2893POPC   GL238438  35.356  19.213   9.115
 2893POPC   C1A38439  35.492  18.899   8.749
 2893POPC   D2A38440  35.759  18.943   8.377
 2893POPC   C3A38441  35.612  19.122   7.966
 2893POPC   C4A38442  35.398  19.036   7.551
 2893POPC   C1B38443  35.029  19.094   8.783
 2893POPC   C2B38444  35.072  18.898   8.402
 2893POPC   C3B38445  35.112  19.045   7.975
 2893POPC   C4B38446  34.878  19.125   7.636
 2894POPC   NC338447  21.001  30.576   9.538
 2894POPC   PO438448  21.440  31.062   9.452
 2894POPC   GL138449  21.470  30.729   9.146
 2894POPC   GL238450  21.460  30.367   9.310
 2894POPC   C1A38451  21.576  30.800   8.685
 2894POPC   D2A38452  21.646  31.109   8.325
 2894POPC   C3A38453  21.456  30.915   7.946
 2894POPC   C4A38454  21.053  30.718   7.791
 2894POPC   C1B38455  21.660  30.321   8.897
 2894POPC   C2B38456  21.480  30.276   8.473
 2894POPC   C3B38457  21.629  30.303   8.040
 2894POPC   C4B38458  21.492  30.479   7.683
 2895POPC   NC338459  27.585   2.356   9.807
 2895POPC   PO438460  27.397   2.915   9.470
 2895POPC   GL138461  27.623   3.004   9.089
 2895POPC   GL238462  27.450   2.724   8.895
 2895POPC   C1A38463  27.868   2.907   8.692
 2895POPC   D2A38464  27.728   2.652   8.342
 2895POPC   C3A38465  27.736   2.919   7.997
 2895POPC   C4A38466  27.645   3.169   7.658
 2895POPC   C1B38467  27.523   2.304   8.694
 2895POPC   C2B38468  27.402   2.221   8.276
 2895POPC   C3B38469  27.402   2.507   7.929
 2895POPC   C4B38470  27.730   2.523   7.641
 2896POPC   NC338471   7.450   2.323   9.855
 2896POPC   PO438472   7.304   1.705   9.543
 2896POPC   GL138473   7.382   2.014   9.227
 2896POPC   GL238474   7.212   1.778   9.018
 2896POPC   C1A38475   7.665   2.085   8.849
 2896POPC   D2A38476   7.690   2.312   8.494
 2896POPC   C3A38477   7.771   2.102   8.123
 2896POPC   C4A38478   7.803   2.264   7.748
 2896POPC   C1B38479   7.183   2.104   8.727
 2896POPC   C2B38480   7.258   2.076   8.274
 2896POPC   C3B38481   7.319   2.103   7.822
 2896POPC   C4B38482   7.244   2.129   7.385
 2897POPC   NC338483   1.717  24.593   9.280
 2897POPC   PO438484   1.087  24.695   9.396
 2897POPC   GL138485   1.257  24.476   9.038
 2897POPC   GL238486   1.514  24.659   8.833
 2897POPC   C1A38487   1.225  24.260   8.663
 2897POPC   D2A38488   0.942  24.167   8.380
 2897POPC   C3A38489   1.190  24.065   8.040
 2897POPC   C4A38490   1.347  24.407   7.810
 2897POPC   C1B38491   1.144  24.864   8.695
 2897POPC   C2B38492   1.034  24.673   8.321
 2897POPC   C3B38493   1.076  24.810   7.938
 2897POPC   C4B38494   1.465  24.902   7.758
 2898POPC   NC338495   2.486  14.884   9.372
 2898POPC   PO438496   2.944  15.432   9.450
 2898POPC   GL138497   2.566  15.376   9.147
 2898POPC   GL238498   2.690  15.066   8.937
 2898POPC   C1A38499   2.366  15.375   8.718
 2898POPC   D2A38500   2.622  15.193   8.388
 2898POPC   C3A38501   2.621  15.357   7.984
 2898POPC   C4A38502   2.599  15.096   7.634
 2898POPC   C1B38503   3.038  15.281   8.692
 2898POPC   C2B38504   3.113  15.343   8.231
 2898POPC   C3B38505   3.030  15.038   7.895
 2898POPC   C4B38506   2.919  14.732   7.529
 2899POPC   NC338507  27.390   7.873   9.670
 2899POPC   PO438508  27.878   8.343   9.720
 2899POPC   GL138509  27.491   8.185   9.294
 2899POPC   GL238510  27.311   8.484   9.098
 2899POPC   C1A38511  27.365   7.900   8.930
 2899POPC   D2A38512  27.542   7.849   8.496
 2899POPC   C3A38513  27.398   8.097   8.123
 2899POPC   C4A38514  27.461   7.925   7.712
 2899POPC   C1B38515  27.430   8.360   8.681
 2899POPC   C2B38516  27.786   8.315   8.405
 2899POPC   C3B38517  27.844   8.493   7.981
 2899POPC   C4B38518  27.715   8.344   7.653
 2900POPC   NC338519  24.548  15.696   9.499
 2900POPC   PO438520  24.283  16.291   9.496
 2900POPC   GL138521  24.324  16.037   9.152
 2900POPC   GL238522  24.681  16.082   9.174
 2900POPC   C1A38523  24.294  15.931   8.710
 2900POPC   D2A38524  24.097  16.055   8.326
 2900POPC   C3A38525  24.260  15.894   7.933
 2900POPC   C4A38526  24.089  15.828   7.538
 2900POPC   C1B38527  24.769  16.132   8.752
 2900POPC   C2B38528  24.629  16.030   8.329
 2900POPC   C3B38529  24.766  16.016   7.920
 2900POPC   C4B38530  24.887  15.979   7.529
 2901POPC   NC338531   3.245  42.233   9.398
 2901POPC   PO438532   3.825  42.523   9.592
 2901POPC   GL138533   3.631  42.497   9.220
 2901POPC   GL238534   3.733  42.231   9.095
 2901POPC   C1A38535   3.404  42.429   8.789
 2901POPC   D2A38536   3.669  42.270   8.464
 2901POPC   C3A38537   3.556  42.441   8.060
 2901POPC   C4A38538   3.499  42.237   7.678
 2901POPC   C1B38539   3.887  42.607   8.793
 2901POPC   C2B38540   4.022  42.628   8.354
 2901POPC   C3B38541   4.001  42.642   7.907
 2901POPC   C4B38542   3.782  42.655   7.540
 2902POPC   NC338543  37.433  38.494   9.502
 2902POPC   PO438544  38.036  38.293   9.616
 2902POPC   GL138545  37.894  38.382   9.157
 2902POPC   GL238546  37.597  38.471   9.032
 2902POPC   C1A38547  37.995  38.566   8.751
 2902POPC   D2A38548  37.997  38.332   8.393
 2902POPC   C3A38549  37.710  38.467   8.114
 2902POPC   C4A38550  37.713  38.704   7.731
 2902POPC   C1B38551  37.644  38.115   8.772
 2902POPC   C2B38552  37.608  37.943   8.380
 2902POPC   C3B38553  37.347  38.076   8.062
 2902POPC   C4B38554  37.442  38.248   7.673
 2903POPC   NC338555  24.194  15.105   9.981
 2903POPC   PO438556  24.673  15.258   9.561
 2903POPC   GL138557  24.537  15.268   9.131
 2903POPC   GL238558  24.532  15.583   9.005
 2903POPC   C1A38559  24.688  15.027   8.749
 2903POPC   D2A38560  24.802  14.964   8.299
 2903POPC   C3A38561  24.438  15.057   8.031
 2903POPC   C4A38562  24.402  15.022   7.568
 2903POPC   C1B38563  24.319  15.356   8.672
 2903POPC   C2B38564  24.342  15.526   8.297
 2903POPC   C3B38565  24.669  15.534   8.058
 2903POPC   C4B38566  24.587  15.564   7.655
 2904POPC   NC338567  43.653  37.117   9.791
 2904POPC   PO438568  44.092  36.682   9.569
 2904POPC   GL138569  44.049  36.804   9.170
 2904POPC   GL238570  44.385  36.814   9.103
 2904POPC   C1A38571  43.773  36.910   8.828
 2904POPC   D2A38572  43.888  37.177   8.463
 2904POPC   C3A38573  43.799  37.025   8.047
 2904POPC   C4A38574  43.638  37.238   7.708
 2904POPC   C1B38575  44.257  36.863   8.650
 2904POPC   C2B38576  44.285  36.868   8.178
 2904POPC   C3B38577  44.158  36.820   7.708
 2904POPC   C4B38578  44.095  36.690   7.268
 2905POPC   NC338579  18.955  17.089   9.505
 2905POPC   PO438580  19.246  16.517   9.609
 2905POPC   GL138581  19.277  16.620   9.200
 2905POPC   GL238582  19.319  16.998   9.181
 2905POPC   C1A38583  19.250  16.386   8.784
 2905POPC   D2A38584  19.392  16.410   8.318
 2905POPC   C3A38585  19.008  16.510   8.047
 2905POPC   C4A38586  18.786  16.632   7.644
 2905POPC   C1B38587  18.978  16.856   8.883
 2905POPC   C2B38588  19.112  16.800   8.476
 2905POPC   C3B38589  19.094  17.030   8.089
 2905POPC   C4B38590  18.812  17.139   7.745
 2906POPC   NC338591  39.628  21.610   9.263
 2906POPC   PO438592  39.259  21.147   9.659
 2906POPC   GL138593  39.275  21.208   9.224
 2906POPC   GL238594  39.578  21.069   9.118
 2906POPC   C1A38595  39.257  21.350   8.766
 2906POPC   D2A38596  39.210  21.085   8.407
 2906POPC   C3A38597  38.922  21.222   8.153
 2906POPC   C4A38598  39.128  21.435   7.829
 2906POPC   C1B38599  39.645  21.015   8.661
 2906POPC   C2B38600  39.652  21.330   8.301
 2906POPC   C3B38601  39.607  21.234   7.884
 2906POPC   C4B38602  39.443  20.860   7.817
 2907POPC   NC338603  42.747  13.696   9.706
 2907POPC   PO438604  42.152  13.450   9.446
 2907POPC   GL138605  42.279  13.712   9.084
 2907POPC   GL238606  42.038  13.993   9.017
 2907POPC   C1A38607  42.490  13.569   8.668
 2907POPC   D2A38608  42.775  13.708   8.341
 2907POPC   C3A38609  42.767  13.541   7.952
 2907POPC   C4A38610  42.342  13.464   7.879
 2907POPC   C1B38611  42.243  14.022   8.641
 2907POPC   C2B38612  42.263  13.822   8.262
 2907POPC   C3B38613  42.503  13.966   7.939
 2907POPC   C4B38614  42.478  13.822   7.521
 2908POPC   NC338615  26.055  41.209   9.459
 2908POPC   PO438616  25.976  40.572   9.527
 2908POPC   GL138617  26.070  40.747   9.133
 2908POPC   GL238618  25.782  40.911   9.139
 2908POPC   C1A38619  26.139  40.656   8.673
 2908POPC   D2A38620  26.269  40.882   8.289
 2908POPC   C3A38621  26.054  40.657   7.967
 2908POPC   C4A38622  25.667  40.419   7.965
 2908POPC   C1B38623  25.954  41.115   8.775
 2908POPC   C2B38624  25.830  41.210   8.369
 2908POPC   C3B38625  26.001  41.206   7.970
 2908POPC   C4B38626  25.983  41.025   7.587
 2909POPC   NC338627  36.570  33.664   9.427
 2909POPC   PO438628  37.226  33.930   9.467
 2909POPC   GL138629  36.961  33.896   9.142
 2909POPC   GL238630  36.970  33.547   9.146
 2909POPC   C1A38631  36.700  33.824   8.773
 2909POPC   D2A38632  36.639  34.046   8.397
 2909POPC   C3A38633  36.710  33.738   8.110
 2909POPC   C4A38634  36.845  33.786   7.710
 2909POPC   C1B38635  37.167  33.546   8.802
 2909POPC   C2B38636  37.128  33.411   8.401
 2909POPC   C3B38637  37.208  33.630   8.034
 2909POPC   C4B38638  37.282  33.548   7.635
 2910POPC   NC338639  15.560   3.743   9.468
 2910POPC   PO438640  14.897   3.610   9.418
 2910POPC   GL138641  15.185   3.617   9.141
 2910POPC   GL238642  15.260   3.307   9.126
 2910POPC   C1A38643  15.333   3.733   8.769
 2910POPC   D2A38644  15.284   3.467   8.414
 2910POPC   C3A38645  15.348   3.629   8.009
 2910POPC   C4A38646  15.522   3.632   7.616
 2910POPC   C1B38647  14.895   3.272   8.837
 2910POPC   C2B38648  14.686   3.331   8.437
 2910POPC   C3B38649  14.894   3.378   8.075
 2910POPC   C4B38650  15.048   3.322   7.676
 2911POPC   NC338651  14.321  41.459   9.564
 2911POPC   PO438652  14.778  41.047   9.772
 2911POPC   GL138653  14.722  41.312   9.283
 2911POPC   GL238654  14.405  41.569   9.097
 2911POPC   C1A38655  14.760  41.415   8.809
 2911POPC   D2A38656  14.462  41.626   8.571
 2911POPC   C3A38657  14.410  41.515   8.146
 2911POPC   C4A38658  14.680  41.410   7.821
 2911POPC   C1B38659  14.049  41.451   8.798
 2911POPC   C2B38660  13.995  41.243   8.376
 2911POPC   C3B38661  13.934  41.418   7.968
 2911POPC   C4B38662  14.182  41.571   7.650
 2912POPC   NC338663  25.355   6.389   9.555
 2912POPC   PO438664  25.063   7.097   9.464
 2912POPC   GL138665  25.057   6.828   9.120
 2912POPC   GL238666  25.406   6.719   9.161
 2912POPC   C1A38667  25.098   6.458   8.825
 2912POPC   D2A38668  25.107   6.261   8.413
 2912POPC   C3A38669  25.093   6.631   8.146
 2912POPC   C4A38670  25.059   6.755   7.752
 2912POPC   C1B38671  25.623   6.533   8.841
 2912POPC   C2B38672  25.505   6.582   8.429
 2912POPC   C3B38673  25.551   6.503   7.989
 2912POPC   C4B38674  25.620   6.720   7.622
 2913POPC   NC338675  18.157   2.835   9.681
 2913POPC   PO438676  18.649   2.552   9.495
 2913POPC   GL138677  18.416   2.780   9.165
 2913POPC   GL238678  18.390   3.131   9.248
 2913POPC   C1A38679  18.233   2.779   8.711
 2913POPC   D2A38680  18.078   3.083   8.356
 2913POPC   C3A38681  18.003   2.938   7.915
 2913POPC   C4A38682  17.921   2.638   7.555
 2913POPC   C1B38683  18.525   3.176   8.804
 2913POPC   C2B38684  18.601   3.037   8.375
 2913POPC   C3B38685  18.465   3.148   7.941
 2913POPC   C4B38686  18.338   2.931   7.521
 2914POPC   NC338687  35.751  38.027   9.554
 2914POPC   PO438688  36.444  37.937   9.490
 2914POPC   GL138689  36.242  37.628   9.146
 2914POPC   GL238690  35.859  37.658   9.140
 2914POPC   C1A38691  36.102  37.608   8.678
 2914POPC   D2A38692  36.294  37.831   8.328
 2914POPC   C3A38693  36.225  37.745   7.905
 2914POPC   C4A38694  36.196  37.391   7.650
 2914POPC   C1B38695  35.764  37.984   8.785
 2914POPC   C2B38696  35.762  37.844   8.328
 2914POPC   C3B38697  35.721  37.803   7.862
 2914POPC   C4B38698  35.854  37.713   7.450
 2915POPC   NC338699  26.533  12.574   9.310
 2915POPC   PO438700  26.920  12.116   9.647
 2915POPC   GL138701  26.801  12.103   9.219
 2915POPC   GL238702  26.949  12.403   9.079
 2915POPC   C1A38703  26.991  12.001   8.801
 2915POPC   D2A38704  27.087  12.185   8.456
 2915POPC   C3A38705  26.954  11.968   8.095
 2915POPC   C4A38706  27.054  12.048   7.679
 2915POPC   C1B38707  26.638  12.373   8.703
 2915POPC   C2B38708  26.569  12.295   8.252
 2915POPC   C3B38709  26.798  12.453   7.893
 2915POPC   C4B38710  26.698  12.495   7.437
 2916POPC   NC338711  32.609  31.043   9.448
 2916POPC   PO438712  33.026  30.532   9.695
 2916POPC   GL138713  33.036  30.617   9.240
 2916POPC   GL238714  33.235  30.863   9.037
 2916POPC   C1A38715  33.026  30.426   8.831
 2916POPC   D2A38716  32.910  30.315   8.408
 2916POPC   C3A38717  33.263  30.363   8.121
 2916POPC   C4A38718  33.358  30.791   7.936
 2916POPC   C1B38719  32.868  30.938   8.744
 2916POPC   C2B38720  32.784  31.100   8.298
 2916POPC   C3B38721  32.851  30.920   7.849
 2916POPC   C4B38722  32.749  31.042   7.403
 2917POPC   NC338723  34.855  36.630   9.408
 2917POPC   PO438724  34.549  36.045   9.511
 2917POPC   GL138725  34.545  35.982   9.079
 2917POPC   GL238726  34.880  35.838   9.048
 2917POPC   C1A38727  34.322  36.180   8.731
 2917POPC   D2A38728  34.066  36.114   8.358
 2917POPC   C3A38729  34.392  36.171   8.063
 2917POPC   C4A38730  34.347  36.263   7.660
 2917POPC   C1B38731  34.960  36.202   8.821
 2917POPC   C2B38732  34.801  36.282   8.428
 2917POPC   C3B38733  35.019  36.166   8.070
 2917POPC   C4B38734  34.881  36.324   7.688
 2918POPC   NC338735  28.930  39.041   9.550
 2918POPC   PO438736  29.186  39.587   9.385
 2918POPC   GL138737  29.019  39.329   9.099
 2918POPC   GL238738  29.260  39.055   9.172
 2918POPC   C1A38739  28.739  39.372   8.735
 2918POPC   D2A38740  28.672  39.092   8.373
 2918POPC   C3A38741  28.945  39.248   8.060
 2918POPC   C4A38742  28.911  39.568   7.737
 2918POPC   C1B38743  29.508  38.929   8.794
 2918POPC   C2B38744  29.411  39.074   8.383
 2918POPC   C3B38745  29.456  39.045   7.958
 2918POPC   C4B38746  29.186  39.125   7.625
 2919POPC   NC338747  14.023  43.548   9.808
 2919POPC   PO438748  14.605  43.637   9.603
 2919POPC   GL138749  14.650  43.878   9.228
 2919POPC   GL238750  14.390  44.114   9.166
 2919POPC   C1A38751  14.737  43.994   8.815
 2919POPC   D2A38752  14.651  43.774   8.462
 2919POPC   C3A38753  14.621  43.958   8.067
 2919POPC   C4A38754  14.657  43.695   7.736
 2919POPC   C1B38755  14.261  43.827   8.805
 2919POPC   C2B38756  14.189  43.979   8.427
 2919POPC   C3B38757  14.164  44.153   8.064
 2919POPC   C4B38758  14.142  43.865   7.758
 2920POPC   NC338759   1.679  24.875   9.738
 2920POPC   PO438760   2.114  24.434   9.440
 2920POPC   GL138761   2.164  24.589   9.046
 2920POPC   GL238762   2.066  24.241   8.962
 2920POPC   C1A38763   2.010  24.661   8.655
 2920POPC   D2A38764   2.058  24.525   8.264
 2920POPC   C3A38765   1.835  24.566   7.913
 2920POPC   C4A38766   2.049  24.711   7.613
 2920POPC   C1B38767   1.726  24.208   8.705
 2920POPC   C2B38768   1.574  24.341   8.293
 2920POPC   C3B38769   1.700  24.080   7.924
 2920POPC   C4B38770   1.742  24.077   7.442
 2921POPC   NC338771  38.238  22.155   9.481
 2921POPC   PO438772  38.758  22.546   9.638
 2921POPC   GL138773  38.794  22.303   9.201
 2921POPC   GL238774  38.736  21.927   9.185
 2921POPC   C1A38775  38.533  22.278   8.784
 2921POPC   D2A38776  38.294  22.258   8.343
 2921POPC   C3A38777  38.173  22.173   7.876
 2921POPC   C4A38778  38.117  22.535   7.627
 2921POPC   C1B38779  38.835  21.865   8.735
 2921POPC   C2B38780  38.790  22.138   8.358
 2921POPC   C3B38781  38.660  22.090   7.919
 2921POPC   C4B38782  38.904  21.960   7.548
 2922POPC   NC338783   0.223  33.161   9.515
 2922POPC   PO438784   0.780  32.756   9.520
 2922POPC   GL138785   0.558  32.663   9.118
 2922POPC   GL238786   0.189  32.751   9.172
 2922POPC   C1A38787   0.440  32.616   8.665
 2922POPC   D2A38788   0.518  32.702   8.215
 2922POPC   C3A38789   0.164  32.824   7.960
 2922POPC   C4A38790   0.249  32.986   7.539
 2922POPC   C1B38791   0.263  33.069   8.856
 2922POPC   C2B38792   0.288  33.140   8.395
 2922POPC   C3B38793   0.468  33.246   7.979
 2922POPC   C4B38794   0.380  33.471   7.603
 2923POPC   NC338795  33.386  37.210   9.196
 2923POPC   PO438796  33.703  37.829   9.441
 2923POPC   GL138797  33.853  37.893   9.050
 2923POPC   GL238798  33.960  37.538   9.013
 2923POPC   C1A38799  34.116  37.901   8.672
 2923POPC   D2A38800  34.085  37.686   8.271
 2923POPC   C3A38801  33.787  37.921   8.014
 2923POPC   C4A38802  33.446  37.886   7.704
 2923POPC   C1B38803  33.794  37.237   8.694
 2923POPC   C2B38804  33.920  36.969   8.382
 2923POPC   C3B38805  34.014  37.165   8.014
 2923POPC   C4B38806  33.775  37.470   7.752
 2924POPC   NC338807  35.099  37.276   9.653
 2924POPC   PO438808  34.513  36.970   9.429
 2924POPC   GL138809  34.516  36.817   9.040
 2924POPC   GL238810  34.764  37.039   8.985
 2924POPC   C1A38811  34.401  37.016   8.638
 2924POPC   D2A38812  34.684  36.888   8.334
 2924POPC   C3A38813  34.510  36.866   7.940
 2924POPC   C4A38814  34.311  37.088   7.611
 2924POPC   C1B38815  35.043  36.727   8.795
 2924POPC   C2B38816  35.206  36.596   8.421
 2924POPC   C3B38817  35.029  36.678   8.027
 2924POPC   C4B38818  34.930  36.908   7.662
 2925POPC   NC338819  29.306   8.431   9.657
 2925POPC   PO438820  28.726   8.658   9.752
 2925POPC   GL138821  28.993   8.621   9.283
 2925POPC   GL238822  29.129   8.265   9.217
 2925POPC   C1A38823  29.149   8.543   8.802
 2925POPC   D2A38824  29.025   8.281   8.406
 2925POPC   C3A38825  29.126   8.342   7.950
 2925POPC   C4A38826  29.267   8.275   7.493
 2925POPC   C1B38827  29.188   7.980   8.853
 2925POPC   C2B38828  29.029   7.786   8.457
 2925POPC   C3B38829  29.068   7.826   8.003
 2925POPC   C4B38830  28.854   8.017   7.648
 2926POPC   NC338831   1.884  33.348   9.499
 2926POPC   PO438832   2.450  33.005   9.507
 2926POPC   GL138833   2.083  32.956   9.222
 2926POPC   GL238834   1.944  32.609   9.221
 2926POPC   C1A38835   1.979  33.258   8.871
 2926POPC   D2A38836   1.848  33.150   8.483
 2926POPC   C3A38837   2.060  33.171   8.101
 2926POPC   C4A38838   1.875  33.254   7.716
 2926POPC   C1B38839   1.851  32.686   8.765
 2926POPC   C2B38840   1.897  32.678   8.289
 2926POPC   C3B38841   1.893  32.759   7.842
 2926POPC   C4B38842   2.179  32.852   7.484
 2927POPC   NC338843  42.429  22.524   9.618
 2927POPC   PO438844  43.107  22.311   9.594
 2927POPC   GL138845  42.952  22.184   9.218
 2927POPC   GL238846  42.750  22.493   9.170
 2927POPC   C1A38847  43.100  21.928   8.831
 2927POPC   D2A38848  43.090  21.676   8.428
 2927POPC   C3A38849  43.202  21.925   8.071
 2927POPC   C4A38850  43.068  21.972   7.644
 2927POPC   C1B38851  43.107  22.478   8.844
 2927POPC   C2B38852  43.188  22.320   8.413
 2927POPC   C3B38853  43.214  22.544   7.992
 2927POPC   C4B38854  43.258  22.614   7.525
 2928POPC   NC338855  39.203   9.230   9.483
 2928POPC   PO438856  39.494   8.653   9.510
 2928POPC   GL138857  39.501   8.928   9.166
 2928POPC   GL238858  39.164   8.920   9.019
 2928POPC   C1A38859  39.622   8.795   8.762
 2928POPC   D2A38860  39.850   8.914   8.401
 2928POPC   C3A38861  39.536   8.801   8.105
 2928POPC   C4A38862  39.252   8.933   7.801
 2928POPC   C1B38863  38.943   9.153   8.627
 2928POPC   C2B38864  39.062   9.366   8.209
 2928POPC   C3B38865  38.901   9.321   7.768
 2928POPC   C4B38866  39.049   9.126   7.367
 2929POPC   NC338867  26.178  26.457   9.661
 2929POPC   PO438868  25.881  25.807   9.424
 2929POPC   GL138869  26.052  25.856   9.027
 2929POPC   GL238870  26.163  26.167   8.940
 2929POPC   C1A38871  25.872  25.878   8.640
 2929POPC   D2A38872  26.106  25.786   8.298
 2929POPC   C3A38873  25.970  25.947   7.927
 2929POPC   C4A38874  26.396  26.032   7.886
 2929POPC   C1B38875  26.513  26.207   8.681
 2929POPC   C2B38876  26.397  26.389   8.303
 2929POPC   C3B38877  26.040  26.437   8.095
 2929POPC   C4B38878  25.964  26.385   7.668
 2930POPC   NC338879  21.066  19.956   9.929
 2930POPC   PO438880  20.519  19.786   9.569
 2930POPC   GL138881  20.513  19.694   9.125
 2930POPC   GL238882  20.629  20.060   9.053
 2930POPC   C1A38883  20.359  19.786   8.697
 2930POPC   D2A38884  20.394  20.216   8.533
 2930POPC   C3A38885  20.455  20.212   8.109
 2930POPC   C4A38886  20.173  20.194   7.789
 2930POPC   C1B38887  21.023  20.167   8.810
 2930POPC   C2B38888  20.885  20.132   8.409
 2930POPC   C3B38889  20.685  19.763   8.251
 2930POPC   C4B38890  20.742  19.578   7.854
 2931POPC   NC338891  15.046   2.296   9.232
 2931POPC   PO438892  15.220   1.722   9.549
 2931POPC   GL138893  15.277   1.851   9.141
 2931POPC   GL238894  14.914   1.808   9.132
 2931POPC   C1A38895  15.398   2.074   8.744
 2931POPC   D2A38896  15.529   2.217   8.346
 2931POPC   C3A38897  15.429   2.059   7.947
 2931POPC   C4A38898  15.576   2.039   7.515
 2931POPC   C1B38899  14.746   1.857   8.761
 2931POPC   C2B38900  14.961   2.062   8.428
 2931POPC   C3B38901  14.922   1.933   8.028
 2931POPC   C4B38902  15.042   1.882   7.624
 2932POPC   NC338903  16.746  15.544   9.368
 2932POPC   PO438904  16.578  16.174   9.329
 2932POPC   GL138905  16.531  15.963   8.980
 2932POPC   GL238906  16.864  15.895   9.003
 2932POPC   C1A38907  16.504  15.963   8.538
 2932POPC   D2A38908  16.498  15.649   8.211
 2932POPC   C3A38909  16.729  15.724   7.850
 2932POPC   C4A38910  16.740  16.017   7.526
 2932POPC   C1B38911  17.040  15.870   8.634
 2932POPC   C2B38912  16.951  16.020   8.242
 2932POPC   C3B38913  17.188  15.988   7.867
 2932POPC   C4B38914  17.201  15.552   7.703
 2933POPC   NC338915   1.626   2.536   9.661
 2933POPC   PO438916   2.194   2.346   9.265
 2933POPC   GL138917   1.843   2.613   9.154
 2933POPC   GL238918   1.901   2.982   9.202
 2933POPC   C1A38919   1.741   2.536   8.719
 2933POPC   D2A38920   1.975   2.432   8.336
 2933POPC   C3A38921   1.911   2.668   7.996
 2933POPC   C4A38922   2.145   2.884   7.747
 2933POPC   C1B38923   1.709   3.056   8.808
 2933POPC   C2B38924   1.703   2.972   8.358
 2933POPC   C3B38925   1.668   3.125   7.921
 2933POPC   C4B38926   1.693   2.891   7.520
 2934POPC   NC338927   5.127  13.707   9.600
 2934POPC   PO438928   4.718  13.247   9.525
 2934POPC   GL138929   5.035  13.446   9.161
 2934POPC   GL238930   5.167  13.834   9.120
 2934POPC   C1A38931   5.059  13.555   8.686
 2934POPC   D2A38932   5.013  13.299   8.304
 2934POPC   C3A38933   5.337  13.262   7.964
 2934POPC   C4A38934   5.396  13.438   7.574
 2934POPC   C1B38935   4.998  14.085   8.781
 2934POPC   C2B38936   4.999  14.023   8.337
 2934POPC   C3B38937   5.141  13.740   8.060
 2934POPC   C4B38938   4.911  13.612   7.728
 2935POPC   NC338939  11.326  15.546   9.331
 2935POPC   PO438940  11.285  16.116   9.736
 2935POPC   GL138941  11.429  16.189   9.286
 2935POPC   GL238942  11.528  15.956   9.027
 2935POPC   C1A38943  11.143  16.252   8.921
 2935POPC   D2A38944  11.242  16.266   8.495
 2935POPC   C3A38945  11.039  16.267   8.101
 2935POPC   C4A38946  11.326  16.164   7.767
 2935POPC   C1B38947  11.312  15.789   8.661
 2935POPC   C2B38948  11.254  15.823   8.203
 2935POPC   C3B38949  11.112  15.720   7.776
 2935POPC   C4B38950  11.525  15.548   7.658
 2936POPC   NC338951  36.516  19.252   9.341
 2936POPC   PO438952  35.905  18.941   9.322
 2936POPC   GL138953  36.159  19.058   9.030
 2936POPC   GL238954  36.067  19.404   9.122
 2936POPC   C1A38955  36.197  19.140   8.606
 2936POPC   D2A38956  36.289  18.847   8.283
 2936POPC   C3A38957  36.213  18.970   7.853
 2936POPC   C4A38958  35.884  18.937   7.550
 2936POPC   C1B38959  35.759  19.343   8.795
 2936POPC   C2B38960  35.747  19.474   8.360
 2936POPC   C3B38961  36.013  19.451   7.978
 2936POPC   C4B38962  36.347  19.425   7.639
 2937POPC   NC338963  42.027  19.467   9.526
 2937POPC   PO438964  42.496  19.042   9.448
 2937POPC   GL138965  42.483  19.245   9.111
 2937POPC   GL238966  42.151  19.217   9.069
 2937POPC   C1A38967  42.533  19.146   8.697
 2937POPC   D2A38968  42.447  18.775   8.460
 2937POPC   C3A38969  42.573  18.950   8.102
 2937POPC   C4A38970  42.447  19.326   7.877
 2937POPC   C1B38971  41.993  19.095   8.668
 2937POPC   C2B38972  42.107  19.160   8.242
 2937POPC   C3B38973  42.099  18.883   7.892
 2937POPC   C4B38974  41.848  18.786   7.510
 2938POPC   NC338975  36.313   2.984   9.538
 2938POPC   PO438976  35.834   2.571   9.466
 2938POPC   GL138977  36.203   2.640   9.182
 2938POPC   GL238978  36.353   2.357   9.055
 2938POPC   C1A38979  36.323   2.849   8.803
 2938POPC   D2A38980  36.125   2.972   8.438
 2938POPC   C3A38981  36.330   2.981   8.056
 2938POPC   C4A38982  36.167   3.001   7.667
 2938POPC   C1B38983  36.192   2.363   8.659
 2938POPC   C2B38984  36.132   2.303   8.213
 2938POPC   C3B38985  36.083   2.523   7.835
 2938POPC   C4B38986  36.096   2.501   7.346
 2939POPC   NC338987  32.673  43.086   9.585
 2939POPC   PO438988  33.311  43.328   9.637
 2939POPC   GL138989  33.074  43.227   9.287
 2939POPC   GL238990  33.225  42.962   9.167
 2939POPC   C1A38991  32.860  43.157   8.889
 2939POPC   D2A38992  32.990  42.987   8.475
 2939POPC   C3A38993  32.743  42.946   8.113
 2939POPC   C4A38994  32.867  43.009   7.694
 2939POPC   C1B38995  33.382  43.108   8.809
 2939POPC   C2B38996  33.362  43.314   8.414
 2939POPC   C3B38997  33.264  43.132   8.031
 2939POPC   C4B38998  33.398  42.968   7.644
 2940POPC   NC338999  43.546  21.089   9.595
 2940POPC   PO439000  43.929  21.626   9.517
 2940POPC   GL139001  44.070  21.414   9.172
 2940POPC   GL239002  43.827  21.172   9.178
 2940POPC   C1A39003  43.967  21.521   8.756
 2940POPC   D2A39004  44.052  21.729   8.389
 2940POPC   C3A39005  43.974  21.475   8.045
 2940POPC   C4A39006  44.019  21.640   7.673
 2940POPC   C1B39007  43.696  21.066   8.784
 2940POPC   C2B39008  43.868  21.089   8.406
 2940POPC   C3B39009  43.714  21.022   8.006
 2940POPC   C4B39010  43.694  21.224   7.611
 2941POPC   NC339011  43.354  38.628   9.454
 2941POPC   PO439012  42.946  38.084   9.481
 2941POPC   GL139013  42.957  38.387   9.184
 2941POPC   GL239014  43.296  38.379   9.013
 2941POPC   C1A39015  42.865  38.543   8.799
 2941POPC   D2A39016  43.165  38.543   8.486
 2941POPC   C3A39017  43.043  38.552   8.068
 2941POPC   C4A39018  43.326  38.678   7.714
 2941POPC   C1B39019  43.367  38.094   8.674
 2941POPC   C2B39020  43.341  38.048   8.246
 2941POPC   C3B39021  43.376  38.180   7.829
 2941POPC   C4B39022  42.966  38.306   7.641
 2942POPC   NC339023  17.976   5.289   9.611
 2942POPC   PO439024  17.727   4.790   9.330
 2942POPC   GL139025  17.421   4.895   8.984
 2942POPC   GL239026  17.206   5.234   8.915
 2942POPC   C1A39027  17.120   4.780   8.698
 2942POPC   D2A39028  17.408   4.751   8.369
 2942POPC   C3A39029  17.386   4.944   7.968
 2942POPC   C4A39030  17.624   5.131   7.622
 2942POPC   C1B39031  17.520   5.275   8.575
 2942POPC   C2B39032  17.906   5.466   8.370
 2942POPC   C3B39033  18.018   5.398   7.914
 2942POPC   C4B39034  17.825   5.590   7.566
 2943POPC   NC339035  37.904  20.221   9.373
 2943POPC   PO439036  37.413  19.883   9.684
 2943POPC   GL139037  37.483  19.814   9.202
 2943POPC   GL239038  37.810  19.759   9.182
 2943POPC   C1A39039  37.595  19.582   8.770
 2943POPC   D2A39040  37.524  19.386   8.342
 2943POPC   C3A39041  37.609  19.605   7.941
 2943POPC   C4A39042  37.632  19.801   7.522
 2943POPC   C1B39043  37.903  19.994   8.796
 2943POPC   C2B39044  37.778  20.156   8.418
 2943POPC   C3B39045  37.934  19.997   8.044
 2943POPC   C4B39046  38.073  20.023   7.641
 2944POPC   NC339047  38.181  21.161   9.575
 2944POPC   PO439048  37.505  21.281   9.540
 2944POPC   GL139049  37.572  21.438   9.118
 2944POPC   GL239050  37.921  21.391   9.160
 2944POPC   C1A39051  37.585  21.356   8.662
 2944POPC   D2A39052  37.553  21.580   8.260
 2944POPC   C3A39053  37.779  21.333   7.983
 2944POPC   C4A39054  37.700  21.173   7.578
 2944POPC   C1B39055  38.168  21.487   8.816
 2944POPC   C2B39056  38.075  21.527   8.401
 2944POPC   C3B39057  38.166  21.694   8.023
 2944POPC   C4B39058  37.940  21.713   7.662
 2945POPC   NC339059  31.738  26.051   9.561
 2945POPC   PO439060  31.047  26.028   9.469
 2945POPC   GL139061  31.381  26.164   9.178
 2945POPC   GL239062  31.552  25.882   9.109
 2945POPC   C1A39063  31.576  26.249   8.769
 2945POPC   D2A39064  31.440  26.319   8.376
 2945POPC   C3A39065  31.743  26.328   8.090
 2945POPC   C4A39066  31.727  26.086   7.699
 2945POPC   C1B39067  31.467  25.732   8.712
 2945POPC   C2B39068  31.648  25.846   8.328
 2945POPC   C3B39069  31.667  25.612   7.961
 2945POPC   C4B39070  31.534  25.572   7.567
 2946POPC   NC339071   7.812   5.088   9.569
 2946POPC   PO439072   7.270   4.597   9.668
 2946POPC   GL139073   7.221   4.734   9.193
 2946POPC   GL239074   7.139   5.075   9.195
 2946POPC   C1A39075   7.380   4.612   8.780
 2946POPC   D2A39076   7.547   4.784   8.388
 2946POPC   C3A39077   7.399   4.964   7.975
 2946POPC   C4A39078   7.722   5.191   7.683
 2946POPC   C1B39079   7.050   5.043   8.748
 2946POPC   C2B39080   6.894   5.288   8.382
 2946POPC   C3B39081   6.950   5.403   7.938
 2946POPC   C4B39082   7.254   5.340   7.623
 2947POPC   NC339083  32.424  38.034   9.530
 2947POPC   PO439084  32.197  37.362   9.564
 2947POPC   GL139085  32.325  37.589   9.237
 2947POPC   GL239086  32.553  37.395   9.106
 2947POPC   C1A39087  32.131  37.682   8.867
 2947POPC   D2A39088  31.906  37.794   8.509
 2947POPC   C3A39089  32.151  37.783   8.171
 2947POPC   C4A39090  32.116  37.936   7.793
 2947POPC   C1B39091  32.661  37.473   8.709
 2947POPC   C2B39092  32.636  37.519   8.304
 2947POPC   C3B39093  32.753  37.351   7.975
 2947POPC   C4B39094  32.500  37.543   7.711
 2948POPC   NC339095  25.168  18.874   9.521
 2948POPC   PO439096  25.075  19.434   9.257
 2948POPC   GL139097  25.377  19.140   9.114
 2948POPC   GL239098  25.666  19.380   9.158
 2948POPC   C1A39099  25.299  18.841   8.767
 2948POPC   D2A39100  25.217  18.663   8.342
 2948POPC   C3A39101  25.187  18.975   8.008
 2948POPC   C4A39102  24.892  19.082   7.693
 2948POPC   C1B39103  25.449  19.490   8.763
 2948POPC   C2B39104  25.343  19.275   8.431
 2948POPC   C3B39105  25.568  19.304   8.074
 2948POPC   C4B39106  25.310  19.397   7.710
 2949POPC   NC339107  19.448  34.780   9.284
 2949POPC   PO439108  18.938  34.411   9.638
 2949POPC   GL139109  18.977  34.519   9.212
 2949POPC   GL239110  19.251  34.326   9.112
 2949POPC   C1A39111  18.993  34.635   8.774
 2949POPC   D2A39112  19.152  34.659   8.354
 2949POPC   C3A39113  18.816  34.601   8.051
 2949POPC   C4A39114  18.826  34.660   7.611
 2949POPC   C1B39115  19.501  34.402   8.708
 2949POPC   C2B39116  19.544  34.343   8.234
 2949POPC   C3B39117  19.269  34.477   7.868
 2949POPC   C4B39118  19.253  34.440   7.413
 2950POPC   NC339119  14.914   5.409   9.414
 2950POPC   PO439120  15.354   4.896   9.529
 2950POPC   GL139121  15.299   5.116   9.151
 2950POPC   GL239122  14.942   5.036   9.060
 2950POPC   C1A39123  15.528   4.988   8.791
 2950POPC   D2A39124  15.557   4.680   8.445
 2950POPC   C3A39125  15.459   4.801   8.051
 2950POPC   C4A39126  15.154   4.709   7.744
 2950POPC   C1B39127  15.101   5.257   8.680
 2950POPC   C2B39128  15.298   5.244   8.266
 2950POPC   C3B39129  15.200   5.251   7.812
 2950POPC   C4B39130  14.788   5.468   7.662
 2951POPC   NC339131  12.797  10.778   9.493
 2951POPC   PO439132  12.754  11.457   9.548
 2951POPC   GL139133  12.694  11.342   9.154
 2951POPC   GL239134  12.381  11.484   9.094
 2951POPC   C1A39135  12.924  11.167   8.812
 2951POPC   D2A39136  13.258  11.028   8.519
 2951POPC   C3A39137  13.234  11.225   8.122
 2951POPC   C4A39138  13.076  11.236   7.745
 2951POPC   C1B39139  12.366  11.098   8.844
 2951POPC   C2B39140  12.545  11.076   8.461
 2951POPC   C3B39141  12.754  11.030   8.082
 2951POPC   C4B39142  12.689  10.881   7.672
 2952POPC   NC339143   5.473  40.796   9.436
 2952POPC   PO439144   4.847  40.706   9.738
 2952POPC   GL139145   4.915  40.824   9.273
 2952POPC   GL239146   4.902  40.515   9.081
 2952POPC   C1A39147   5.028  40.910   8.800
 2952POPC   D2A39148   4.854  40.717   8.399
 2952POPC   C3A39149   5.008  40.898   8.004
 2952POPC   C4A39150   5.447  40.852   7.857
 2952POPC   C1B39151   4.937  40.283   8.706
 2952POPC   C2B39152   5.187  40.270   8.354
 2952POPC   C3B39153   5.192  40.419   7.934
 2952POPC   C4B39154   4.880  40.519   7.637
 2953POPC   NC339155  11.264  18.980   9.574
 2953POPC   PO439156  10.707  19.484   9.732
 2953POPC   GL139157  10.903  19.288   9.257
 2953POPC   GL239158  11.172  19.061   9.103
 2953POPC   C1A39159  10.906  19.222   8.737
 2953POPC   D2A39160  11.243  19.041   8.492
 2953POPC   C3A39161  11.137  18.967   8.097
 2953POPC   C4A39162  11.051  19.096   7.719
 2953POPC   C1B39163  11.519  18.859   8.891
 2953POPC   C2B39164  11.761  18.942   8.510
 2953POPC   C3B39165  11.652  18.892   8.076
 2953POPC   C4B39166  11.548  19.097   7.723
 2954POPC   NC339167  42.088  21.678   9.437
 2954POPC   PO439168  42.359  21.104   9.431
 2954POPC   GL139169  42.524  21.431   9.177
 2954POPC   GL239170  42.639  21.179   8.972
 2954POPC   C1A39171  42.678  21.614   8.749
 2954POPC   D2A39172  42.665  21.282   8.422
 2954POPC   C3A39173  42.434  21.313   8.059
 2954POPC   C4A39174  42.256  21.648   7.798
 2954POPC   C1B39175  42.230  21.315   8.777
 2954POPC   C2B39176  42.050  21.256   8.384
 2954POPC   C3B39177  41.941  21.254   7.935
 2954POPC   C4B39178  42.151  21.229   7.524
 2955POPC   NC339179  43.692  23.244   9.768
 2955POPC   PO439180  43.764  23.935   9.475
 2955POPC   GL139181  43.957  23.720   9.142
 2955POPC   GL239182  43.719  23.503   8.900
 2955POPC   C1A39183  44.124  23.866   8.794
 2955POPC   D2A39184  43.931  23.726   8.461
 2955POPC   C3A39185  44.123  23.818   8.114
 2955POPC   C4A39186  43.996  23.856   7.724
 2955POPC   C1B39187  43.596  23.927   8.813
 2955POPC   C2B39188  43.554  24.082   8.438
 2955POPC   C3B39189  43.616  23.826   8.066
 2955POPC   C4B39190  43.496  23.951   7.683
 2956POPC   NC339191   4.427  15.675   9.547
 2956POPC   PO439192   4.403  16.373   9.596
 2956POPC   GL139193   4.500  16.170   9.178
 2956POPC   GL239194   4.229  15.968   9.152
 2956POPC   C1A39195   4.489  16.003   8.708
 2956POPC   D2A39196   4.122  15.963   8.443
 2956POPC   C3A39197   3.940  15.954   8.009
 2956POPC   C4A39198   4.020  16.013   7.539
 2956POPC   C1B39199   4.194  15.604   8.882
 2956POPC   C2B39200   4.355  15.496   8.492
 2956POPC   C3B39201   4.351  15.654   8.081
 2956POPC   C4B39202   4.349  15.654   7.650
 2957POPC   NC339203  28.890   3.925   9.690
 2957POPC   PO439204  29.029   4.515   9.518
 2957POPC   GL139205  28.939   4.237   9.172
 2957POPC   GL239206  29.238   4.373   9.025
 2957POPC   C1A39207  28.888   4.244   8.690
 2957POPC   D2A39208  29.074   4.460   8.315
 2957POPC   C3A39209  28.891   4.374   7.898
 2957POPC   C4A39210  28.933   4.161   7.479
 2957POPC   C1B39211  29.466   4.352   8.665
 2957POPC   C2B39212  29.469   4.111   8.299
 2957POPC   C3B39213  29.396   4.303   7.915
 2957POPC   C4B39214  29.451   4.217   7.512
 2958POPC   NC339215  10.951  37.296   9.420
 2958POPC   PO439216  10.514  36.932   9.683
 2958POPC   GL139217  10.586  36.916   9.225
 2958POPC   GL239218  10.897  36.749   9.209
 2958POPC   C1A39219  10.497  37.092   8.768
 2958POPC   D2A39220  10.329  37.312   8.352
 2958POPC   C3A39221  10.346  37.076   7.937
 2958POPC   C4A39222  10.355  36.754   7.564
 2958POPC   C1B39223  10.747  36.634   8.791
 2958POPC   C2B39224  10.530  36.714   8.378
 2958POPC   C3B39225  10.686  36.648   7.962
 2958POPC   C4B39226  10.836  37.014   7.760
 2959POPC   NC339227  38.802  19.023   9.584
 2959POPC   PO439228  38.258  19.321   9.653
 2959POPC   GL139229  38.439  19.155   9.239
 2959POPC   GL239230  38.735  19.360   9.188
 2959POPC   C1A39231  38.278  18.990   8.841
 2959POPC   D2A39232  38.457  18.770   8.500
 2959POPC   C3A39233  38.492  18.921   8.102
 2959POPC   C4A39234  38.318  19.135   7.776
 2959POPC   C1B39235  38.772  19.104   8.823
 2959POPC   C2B39236  38.578  19.280   8.460
 2959POPC   C3B39237  38.690  19.367   8.035
 2959POPC   C4B39238  38.804  19.145   7.654
 2960POPC   NC339239   9.771  33.271   9.664
 2960POPC   PO439240   9.951  32.684   9.448
 2960POPC   GL139241   9.795  33.009   9.176
 2960POPC   GL239242  10.047  33.314   9.247
 2960POPC   C1A39243   9.617  32.793   8.794
 2960POPC   D2A39244   9.451  32.919   8.396
 2960POPC   C3A39245   9.475  32.768   8.002
 2960POPC   C4A39246   9.473  33.125   7.765
 2960POPC   C1B39247  10.106  33.286   8.844
 2960POPC   C2B39248   9.887  33.162   8.507
 2960POPC   C3B39249   9.857  33.115   8.099
 2960POPC   C4B39250   9.952  33.321   7.693
 2961POPC   NC339251  27.092  14.152   9.477
 2961POPC   PO439252  26.518  14.438   9.437
 2961POPC   GL139253  26.688  14.571   9.075
 2961POPC   GL239254  27.038  14.650   9.218
 2961POPC   C1A39255  26.577  14.294   8.735
 2961POPC   D2A39256  26.540  14.072   8.351
 2961POPC   C3A39257  26.600  14.407   8.050
 2961POPC   C4A39258  26.799  14.580   7.700
 2961POPC   C1B39259  27.126  14.396   8.849
 2961POPC   C2B39260  27.011  14.262   8.455
 2961POPC   C3B39261  27.099  14.287   8.048
 2961POPC   C4B39262  26.998  14.112   7.681
 2962POPC   NC339263  24.347  31.562   9.523
 2962POPC   PO439264  25.022  31.295   9.683
 2962POPC   GL139265  24.787  31.537   9.252
 2962POPC   GL239266  24.433  31.412   9.050
 2962POPC   C1A39267  24.817  31.549   8.772
 2962POPC   D2A39268  24.893  31.250   8.413
 2962POPC   C3A39269  24.743  31.323   8.003
 2962POPC   C4A39270  24.363  31.135   7.874
 2962POPC   C1B39271  24.119  31.631   8.807
 2962POPC   C2B39272  24.089  31.701   8.359
 2962POPC   C3B39273  24.368  31.672   8.004
 2962POPC   C4B39274  24.785  31.801   7.804
 2963POPC   NC339275  10.020  42.398  10.035
 2963POPC   PO439276   9.544  42.282   9.531
 2963POPC   GL139277   9.813  42.276   9.171
 2963POPC   GL239278  10.101  42.116   9.307
 2963POPC   C1A39279   9.702  42.207   8.726
 2963POPC   D2A39280   9.401  42.352   8.419
 2963POPC   C3A39281   9.539  42.415   7.976
 2963POPC   C4A39282   9.950  42.587   7.853
 2963POPC   C1B39283  10.075  41.862   8.933
 2963POPC   C2B39284   9.987  41.817   8.533
 2963POPC   C3B39285   9.879  42.123   8.238
 2963POPC   C4B39286   9.911  42.028   7.834
 2964POPC   NC339287  30.959   0.669   9.584
 2964POPC   PO439288  31.555   0.404   9.520
 2964POPC   GL139289  31.603   0.265   9.119
 2964POPC   GL239290  31.334   0.522   9.064
 2964POPC   C1A39291  31.537   0.285   8.680
 2964POPC   D2A39292  31.367   0.660   8.496
 2964POPC   C3A39293  31.234   0.700   8.098
 2964POPC   C4A39294  31.288   0.384   7.814
 2964POPC   C1B39295  31.710   0.758   8.852
 2964POPC   C2B39296  31.866   0.768   8.389
 2964POPC   C3B39297  31.728   0.674   7.925
 2964POPC   C4B39298  31.627   0.662   7.471
 2965POPC   NC339299   5.775  32.215   9.555
 2965POPC   PO439300   6.020  32.686   9.190
 2965POPC   GL139301   5.924  32.328   9.075
 2965POPC   GL239302   6.151  32.082   9.213
 2965POPC   C1A39303   5.805  32.288   8.658
 2965POPC   D2A39304   5.582  32.155   8.315
 2965POPC   C3A39305   5.826  32.258   8.002
 2965POPC   C4A39306   6.066  32.593   7.870
 2965POPC   C1B39307   6.294  32.164   8.776
 2965POPC   C2B39308   6.210  32.101   8.319
 2965POPC   C3B39309   6.365  32.173   7.887
 2965POPC   C4B39310   6.439  31.926   7.486
 2966POPC   NC339311  10.806  30.589   9.579
 2966POPC   PO439312  10.262  30.805   9.532
 2966POPC   GL139313  10.416  30.522   9.181
 2966POPC   GL239314  10.780  30.496   9.086
 2966POPC   C1A39315  10.402  30.404   8.738
 2966POPC   D2A39316  10.382  30.664   8.353
 2966POPC   C3A39317  10.520  30.475   7.967
 2966POPC   C4A39318  10.441  30.526   7.532
 2966POPC   C1B39319  10.672  30.856   8.830
 2966POPC   C2B39320  10.849  30.901   8.413
 2966POPC   C3B39321  10.711  30.966   7.998
 2966POPC   C4B39322  10.867  30.779   7.639
 2967POPC   NC339323  30.349  32.033   9.479
 2967POPC   PO439324  29.941  31.646   9.632
 2967POPC   GL139325  30.186  31.595   9.193
 2967POPC   GL239326  30.069  31.253   9.099
 2967POPC   C1A39327  30.144  31.607   8.695
 2967POPC   D2A39328  30.088  31.408   8.235
 2967POPC   C3A39329  29.940  31.679   7.889
 2967POPC   C4A39330  29.926  31.701   7.426
 2967POPC   C1B39331  29.942  31.128   8.649
 2967POPC   C2B39332  29.634  31.187   8.279
 2967POPC   C3B39333  29.652  31.250   7.825
 2967POPC   C4B39334  29.756  30.923   7.528
 2968POPC   NC339335  20.152  39.339   9.333
 2968POPC   PO439336  19.536  39.079   9.454
 2968POPC   GL139337  19.741  39.126   9.090
 2968POPC   GL239338  19.689  39.492   9.067
 2968POPC   C1A39339  19.903  38.880   8.739
 2968POPC   D2A39340  19.739  38.890   8.337
 2968POPC   C3A39341  19.642  39.260   8.166
 2968POPC   C4A39342  19.692  39.105   7.749
 2968POPC   C1B39343  19.876  39.400   8.651
 2968POPC   C2B39344  20.047  39.607   8.277
 2968POPC   C3B39345  20.084  39.439   7.879
 2968POPC   C4B39346  19.943  39.443   7.459
 2969POPC   NC339347   6.235  29.489   9.844
 2969POPC   PO439348   5.809  29.857   9.505
 2969POPC   GL139349   5.648  29.907   9.107
 2969POPC   GL239350   5.381  29.672   9.018
 2969POPC   C1A39351   5.879  29.930   8.737
 2969POPC   D2A39352   6.208  29.898   8.429
 2969POPC   C3A39353   6.079  30.040   8.021
 2969POPC   C4A39354   6.026  29.923   7.579
 2969POPC   C1B39355   5.569  29.521   8.652
 2969POPC   C2B39356   5.693  29.748   8.287
 2969POPC   C3B39357   5.749  29.623   7.892
 2969POPC   C4B39358   5.603  29.627   7.448
 2970POPC   NC339359  27.688  11.263   9.466
 2970POPC   PO439360  28.303  11.575   9.662
 2970POPC   GL139361  28.250  11.314   9.292
 2970POPC   GL239362  28.587  11.301   9.143
 2970POPC   C1A39363  28.183  11.169   8.858
 2970POPC   D2A39364  28.277  11.130   8.405
 2970POPC   C3A39365  28.145  11.489   8.142
 2970POPC   C4A39366  28.192  11.483   7.681
 2970POPC   C1B39367  28.713  11.165   8.766
 2970POPC   C2B39368  28.816  11.318   8.383
 2970POPC   C3B39369  28.624  11.324   8.012
 2970POPC   C4B39370  28.893  11.351   7.678
 2971POPC   NC339371  31.057  24.573   9.653
 2971POPC   PO439372  30.365  24.414   9.559
 2971POPC   GL139373  30.606  24.568   9.214
 2971POPC   GL239374  30.850  24.312   9.178
 2971POPC   C1A39375  30.505  24.534   8.757
 2971POPC   D2A39376  30.518  24.338   8.327
 2971POPC   C3A39377  30.507  24.633   7.946
 2971POPC   C4A39378  30.225  24.948   7.772
 2971POPC   C1B39379  31.020  24.619   8.903
 2971POPC   C2B39380  30.954  24.566   8.481
 2971POPC   C3B39381  30.978  24.504   8.060
 2971POPC   C4B39382  30.987  24.853   7.776
 2972POPC   NC339383  40.548  33.137   9.602
 2972POPC   PO439384  40.690  32.484   9.640
 2972POPC   GL139385  40.521  32.720   9.241
 2972POPC   GL239386  40.546  33.094   9.100
 2972POPC   C1A39387  40.684  32.719   8.812
 2972POPC   D2A39388  40.837  32.934   8.429
 2972POPC   C3A39389  40.692  32.843   8.014
 2972POPC   C4A39390  40.935  32.895   7.636
 2972POPC   C1B39391  40.992  33.148   8.877
 2972POPC   C2B39392  41.223  33.259   8.467
 2972POPC   C3B39393  41.061  33.218   8.039
 2972POPC   C4B39394  40.697  33.334   7.777
 2973POPC   NC339395  21.226   7.735   9.533
 2973POPC   PO439396  20.626   8.048   9.540
 2973POPC   GL139397  20.449   8.188   9.142
 2973POPC   GL239398  20.298   8.525   9.079
 2973POPC   C1A39399  20.333   8.179   8.707
 2973POPC   D2A39400  20.342   8.113   8.293
 2973POPC   C3A39401  20.665   7.988   8.053
 2973POPC   C4A39402  20.441   8.180   7.722
 2973POPC   C1B39403  20.667   8.550   8.757
 2973POPC   C2B39404  20.724   8.481   8.310
 2973POPC   C3B39405  20.858   8.413   7.874
 2973POPC   C4B39406  21.187   8.456   7.561
 2974POPC   NC339407  34.752  21.880   9.443
 2974POPC   PO439408  34.390  22.400   9.558
 2974POPC   GL139409  34.428  22.153   9.165
 2974POPC   GL239410  34.707  22.359   9.123
 2974POPC   C1A39411  34.317  22.203   8.727
 2974POPC   D2A39412  34.042  22.180   8.356
 2974POPC   C3A39413  34.283  22.189   7.981
 2974POPC   C4A39414  34.527  21.925   7.748
 2974POPC   C1B39415  34.829  22.111   8.797
 2974POPC   C2B39416  34.901  22.276   8.431
 2974POPC   C3B39417  34.826  22.257   8.003
 2974POPC   C4B39418  34.963  22.584   7.762
 2975POPC   NC339419  42.838   1.094   9.515
 2975POPC   PO439420  42.241   1.373   9.862
 2975POPC   GL139421  42.303   1.219   9.382
 2975POPC   GL239422  42.558   1.439   9.208
 2975POPC   C1A39423  42.197   1.253   8.899
 2975POPC   D2A39424  42.224   1.439   8.450
 2975POPC   C3A39425  42.195   1.258   8.017
 2975POPC   C4A39426  42.194   1.496   7.599
 2975POPC   C1B39427  42.695   1.427   8.775
 2975POPC   C2B39428  42.712   1.284   8.340
 2975POPC   C3B39429  42.694   1.277   7.898
 2975POPC   C4B39430  42.956   1.099   7.584
 2976POPC   NC339431  25.006   8.557   9.553
 2976POPC   PO439432  25.452   9.050   9.650
 2976POPC   GL139433  25.429   8.818   9.267
 2976POPC   GL239434  25.682   8.582   9.219
 2976POPC   C1A39435  25.512   8.983   8.834
 2976POPC   D2A39436  25.529   8.899   8.388
 2976POPC   C3A39437  25.283   9.043   8.030
 2976POPC   C4A39438  25.139   9.252   7.651
 2976POPC   C1B39439  25.475   8.481   8.795
 2976POPC   C2B39440  25.305   8.420   8.375
 2976POPC   C3B39441  25.572   8.538   8.025
 2976POPC   C4B39442  25.481   8.747   7.643
 2977POPC   NC339443  42.599  13.369   9.302
 2977POPC   PO439444  42.413  12.703   9.490
 2977POPC   GL139445  42.329  12.824   9.107
 2977POPC   GL239446  42.188  13.153   9.023
 2977POPC   C1A39447  42.169  12.621   8.771
 2977POPC   D2A39448  41.990  12.755   8.392
 2977POPC   C3A39449  42.338  12.687   8.117
 2977POPC   C4A39450  42.501  12.571   7.720
 2977POPC   C1B39451  42.488  13.039   8.674
 2977POPC   C2B39452  42.556  13.185   8.266
 2977POPC   C3B39453  42.622  13.042   7.870
 2977POPC   C4B39454  42.225  12.991   7.673
 2978POPC   NC339455  36.140  10.728   9.721
 2978POPC   PO439456  36.424  10.232   9.367
 2978POPC   GL139457  36.257  10.475   9.063
 2978POPC   GL239458  36.032  10.681   9.205
 2978POPC   C1A39459  36.452  10.674   8.726
 2978POPC   D2A39460  36.638  10.671   8.318
 2978POPC   C3A39461  36.397  10.658   7.934
 2978POPC   C4A39462  36.118  10.307   7.812
 2978POPC   C1B39463  35.958  10.880   8.810
 2978POPC   C2B39464  36.116  10.861   8.386
 2978POPC   C3B39465  35.911  10.790   7.986
 2978POPC   C4B39466  35.768  10.946   7.632
 2979POPC   NC339467  37.610  18.048   9.587
 2979POPC   PO439468  38.093  18.474   9.477
 2979POPC   GL139469  37.869  18.218   9.183
 2979POPC   GL239470  37.507  18.325   9.171
 2979POPC   C1A39471  37.875  18.288   8.773
 2979POPC   D2A39472  37.682  18.374   8.383
 2979POPC   C3A39473  37.849  18.283   8.000
 2979POPC   C4A39474  37.660  18.234   7.594
 2979POPC   C1B39475  37.404  18.136   8.788
 2979POPC   C2B39476  37.433  17.913   8.415
 2979POPC   C3B39477  37.391  18.046   7.996
 2979POPC   C4B39478  37.288  17.874   7.583
 2980POPC   NC339479  26.293  44.976   9.541
 2980POPC   PO439480  25.776  44.473   9.426
 2980POPC   GL139481  26.006  44.642   9.114
 2980POPC   GL239482  25.988  44.981   9.116
 2980POPC   C1A39483  26.237  44.582   8.734
 2980POPC   D2A39484  26.357  44.788   8.351
 2980POPC   C3A39485  26.215  44.496   8.042
 2980POPC   C4A39486  26.129  44.429   7.623
 2980POPC   C1B39487  25.874  44.958   8.681
 2980POPC   C2B39488  25.868  44.840   8.243
 2980POPC   C3B39489  25.923  44.895   7.816
 2980POPC   C4B39490  25.783   0.183   7.527
 2981POPC   NC339491  32.491  42.235   9.795
 2981POPC   PO439492  32.946  42.698   9.523
 2981POPC   GL139493  33.088  42.404   9.249
 2981POPC   GL239494  33.387  42.496   9.184
 2981POPC   C1A39495  33.151  42.112   8.894
 2981POPC   D2A39496  33.006  41.964   8.482
 2981POPC   C3A39497  32.714  42.119   8.143
 2981POPC   C4A39498  32.892  42.194   7.739
 2981POPC   C1B39499  33.082  42.621   8.807
 2981POPC   C2B39500  33.007  42.498   8.359
 2981POPC   C3B39501  33.116  42.627   7.930
 2981POPC   C4B39502  33.073  42.575   7.445
 2982POPC   NC339503  35.122   7.874   9.503
 2982POPC   PO439504  35.552   8.367   9.449
 2982POPC   GL139505  35.480   8.309   9.073
 2982POPC   GL239506  35.289   8.027   9.066
 2982POPC   C1A39507  35.561   8.189   8.674
 2982POPC   D2A39508  35.290   8.139   8.364
 2982POPC   C3A39509  35.523   8.287   8.039
 2982POPC   C4A39510  35.416   8.321   7.643
 2982POPC   C1B39511  34.943   7.945   8.795
 2982POPC   C2B39512  34.797   7.984   8.396
 2982POPC   C3B39513  35.046   7.815   8.046
 2982POPC   C4B39514  35.156   7.895   7.621
 2983POPC   NC339515  10.264  16.952   9.563
 2983POPC   PO439516  10.769  16.610   9.354
 2983POPC   GL139517  10.546  16.842   9.145
 2983POPC   GL239518  10.834  17.044   9.064
 2983POPC   C1A39519  10.280  16.693   8.849
 2983POPC   D2A39520  10.342  16.862   8.465
 2983POPC   C3A39521  10.262  16.724   8.033
 2983POPC   C4A39522  10.199  16.452   7.678
 2983POPC   C1B39523  10.761  17.102   8.653
 2983POPC   C2B39524  10.879  16.947   8.267
 2983POPC   C3B39525  10.783  16.921   7.842
 2983POPC   C4B39526  10.681  17.021   7.378
 2984POPC   NC339527   0.671  40.660   9.547
 2984POPC   PO439528   0.397  41.268   9.291
 2984POPC   GL139529   0.365  40.882   9.167
 2984POPC   GL239530   0.325  40.522   9.198
 2984POPC   C1A39531   0.227  40.827   8.787
 2984POPC   D2A39532   0.482  40.966   8.481
 2984POPC   C3A39533   0.256  41.018   8.111
 2984POPC   C4A39534   0.326  40.876   7.699
 2984POPC   C1B39535   0.686  40.604   8.890
 2984POPC   C2B39536   0.728  40.522   8.440
 2984POPC   C3B39537   0.704  40.726   8.047
 2984POPC   C4B39538   0.741  40.580   7.632
 2985POPC   NC339539  40.868  35.358   9.969
 2985POPC   PO439540  40.418  35.476   9.509
 2985POPC   GL139541  40.724  35.378   9.201
 2985POPC   GL239542  40.698  35.090   8.997
 2985POPC   C1A39543  40.865  35.598   8.817
 2985POPC   D2A39544  40.790  35.437   8.407
 2985POPC   C3A39545  40.776  35.666   8.025
 2985POPC   C4A39546  40.826  35.526   7.571
 2985POPC   C1B39547  40.328  34.941   8.755
 2985POPC   C2B39548  40.260  34.968   8.344
 2985POPC   C3B39549  40.554  35.144   8.054
 2985POPC   C4B39550  40.708  34.997   7.678
 2986POPC   NC339551  12.377   6.394   9.404
 2986POPC   PO439552  11.678   6.533   9.443
 2986POPC   GL139553  12.059   6.732   9.202
 2986POPC   GL239554  12.199   7.080   9.137
 2986POPC   C1A39555  12.274   6.623   8.814
 2986POPC   D2A39556  12.026   6.496   8.520
 2986POPC   C3A39557  12.226   6.349   8.205
 2986POPC   C4A39558  12.095   6.360   7.817
 2986POPC   C1B39559  12.427   7.094   8.706
 2986POPC   C2B39560  12.365   6.855   8.286
 2986POPC   C3B39561  12.308   6.845   7.793
 2986POPC   C4B39562  12.094   7.049   7.374
 2987POPC   NC339563   5.621  19.708   9.641
 2987POPC   PO439564   4.972  19.691   9.462
 2987POPC   GL139565   5.110  19.911   9.126
 2987POPC   GL239566   4.840  20.171   9.063
 2987POPC   C1A39567   5.227  19.677   8.773
 2987POPC   D2A39568   5.096  19.528   8.379
 2987POPC   C3A39569   5.172  19.794   8.052
 2987POPC   C4A39570   5.118  19.779   7.632
 2987POPC   C1B39571   4.732  19.872   8.753
 2987POPC   C2B39572   4.730  19.940   8.321
 2987POPC   C3B39573   4.660  19.745   7.945
 2987POPC   C4B39574   4.639  20.044   7.650
 2988POPC   NC339575  35.121  29.845   9.587
 2988POPC   PO439576  35.780  29.798   9.547
 2988POPC   GL139577  35.501  29.993   9.221
 2988POPC   GL239578  35.358  29.676   9.105
 2988POPC   C1A39579  35.351  30.128   8.792
 2988POPC   D2A39580  35.334  30.250   8.327
 2988POPC   C3A39581  35.244  30.123   7.870
 2988POPC   C4A39582  35.486  29.999   7.482
 2988POPC   C1B39583  35.116  29.666   8.714
 2988POPC   C2B39584  35.231  29.740   8.281
 2988POPC   C3B39585  34.995  29.702   7.902
 2988POPC   C4B39586  35.146  29.600   7.474
 2989POPC   NC339587  39.120  25.598   9.570
 2989POPC   PO439588  39.275  26.212   9.725
 2989POPC   GL139589  39.052  26.062   9.299
 2989POPC   GL239590  39.250  25.778   9.108
 2989POPC   C1A39591  39.056  26.135   8.802
 2989POPC   D2A39592  39.152  26.430   8.437
 2989POPC   C3A39593  39.056  26.258   8.021
 2989POPC   C4A39594  39.054  25.817   7.948
 2989POPC   C1B39595  39.515  25.829   8.726
 2989POPC   C2B39596  39.352  25.965   8.348
 2989POPC   C3B39597  39.519  26.041   7.957
 2989POPC   C4B39598  39.632  26.025   7.560
 2990POPC   NC339599  44.245  23.996   9.480
 2990POPC   PO439600  44.885  23.767   9.579
 2990POPC   GL139601  44.790  23.658   9.199
 2990POPC   GL239602  44.540  23.424   9.127
 2990POPC   C1A39603  44.675  23.828   8.815
 2990POPC   D2A39604  44.488  23.661   8.459
 2990POPC   C3A39605  44.627  23.910   8.141
 2990POPC   C4A39606  44.501  23.925   7.762
 2990POPC   C1B39607  44.879  23.350   8.791
 2990POPC   C2B39608  44.996  23.557   8.385
 2990POPC   C3B39609  44.794  23.435   8.045
 2990POPC   C4B39610  44.373  23.392   7.991
 2991POPC   NC339611  42.592  43.384   9.368
 2991POPC   PO439612  42.765  42.614   9.364
 2991POPC   GL139613  42.521  42.828   9.043
 2991POPC   GL239614  42.244  43.057   9.127
 2991POPC   C1A39615  42.560  43.196   8.754
 2991POPC   D2A39616  42.470  43.183   8.356
 2991POPC   C3A39617  42.604  43.261   7.977
 2991POPC   C4A39618  42.521  42.910   7.752
 2991POPC   C1B39619  42.059  43.149   8.678
 2991POPC   C2B39620  41.996  43.069   8.205
 2991POPC   C3B39621  42.074  43.155   7.764
 2991POPC   C4B39622  42.156  43.256   7.315
 2992POPC   NC339623  17.068   6.134   9.583
 2992POPC   PO439624  16.557   5.693   9.641
 2992POPC   GL139625  16.759   5.628   9.236
 2992POPC   GL239626  16.785   5.970   9.150
 2992POPC   C1A39627  16.844   5.620   8.789
 2992POPC   D2A39628  16.616   5.610   8.405
 2992POPC   C3A39629  16.867   5.603   8.042
 2992POPC   C4A39630  16.919   5.844   7.664
 2992POPC   C1B39631  16.480   6.001   8.816
 2992POPC   C2B39632  16.513   6.134   8.410
 2992POPC   C3B39633  16.577   6.030   8.012
 2992POPC   C4B39634  16.254   6.085   7.699
 2993POPC   NC339635  34.155   0.119   9.416
 2993POPC   PO439636  34.672   0.543   9.640
 2993POPC   GL139637  34.730   0.612   9.207
 2993POPC   GL239638  34.603   0.278   9.178
 2993POPC   C1A39639  34.484   0.651   8.811
 2993POPC   D2A39640  34.411   0.448   8.405
 2993POPC   C3A39641  34.599   0.515   8.016
 2993POPC   C4A39642  34.362   0.504   7.655
 2993POPC   C1B39643  34.676   0.166   8.759
 2993POPC   C2B39644  34.806   0.092   8.335
 2993POPC   C3B39645  34.943   0.114   7.909
 2993POPC   C4B39646  34.800   0.320   7.521
 2994POPC   NC339647  37.432  30.716   9.514
 2994POPC   PO439648  38.040  30.446   9.681
 2994POPC   GL139649  37.917  30.807   9.272
 2994POPC   GL239650  37.612  30.949   9.106
 2994POPC   C1A39651  37.928  30.796   8.738
 2994POPC   D2A39652  37.717  30.478   8.426
 2994POPC   C3A39653  37.839  30.479   7.970
 2994POPC   C4A39654  37.748  30.574   7.517
 2994POPC   C1B39655  37.464  30.597   8.878
 2994POPC   C2B39656  37.128  30.561   8.603
 2994POPC   C3B39657  37.207  30.568   8.179
 2994POPC   C4B39658  37.346  30.652   7.801
 2995POPC   NC339659  14.164  14.578   9.633
 2995POPC   PO439660  14.286  13.964   9.531
 2995POPC   GL139661  14.332  14.306   9.234
 2995POPC   GL239662  14.507  14.621   9.249
 2995POPC   C1A39663  14.560  14.316   8.842
 2995POPC   D2A39664  14.505  14.044   8.516
 2995POPC   C3A39665  14.523  14.250   8.111
 2995POPC   C4A39666  14.283  14.279   7.738
 2995POPC   C1B39667  14.187  14.666   8.907
 2995POPC   C2B39668  14.161  14.448   8.498
 2995POPC   C3B39669  14.040  14.572   8.084
 2995POPC   C4B39670  14.115  14.841   7.743
 2996POPC   NC339671  13.329   2.440   9.549
 2996POPC   PO439672  13.727   3.004   9.388
 2996POPC   GL139673  13.525   2.700   9.147
 2996POPC   GL239674  13.731   2.430   9.211
 2996POPC   C1A39675  13.303   2.685   8.758
 2996POPC   D2A39676  13.244   3.004   8.441
 2996POPC   C3A39677  13.531   2.971   8.102
 2996POPC   C4A39678  13.431   2.939   7.664
 2996POPC   C1B39679  13.583   2.252   8.806
 2996POPC   C2B39680  13.563   2.406   8.333
 2996POPC   C3B39681  13.749   2.565   7.894
 2996POPC   C4B39682  13.930   2.606   7.474
 2997POPC   NC339683  13.919  12.098   9.429
 2997POPC   PO439684  14.526  12.363   9.449
 2997POPC   GL139685  14.371  12.093   9.125
 2997POPC   GL239686  14.295  11.730   9.246
 2997POPC   C1A39687  14.090  12.160   8.754
 2997POPC   D2A39688  13.969  12.344   8.343
 2997POPC   C3A39689  14.266  12.152   8.049
 2997POPC   C4A39690  14.584  12.186   7.717
 2997POPC   C1B39691  14.302  11.690   8.798
 2997POPC   C2B39692  14.466  11.827   8.423
 2997POPC   C3B39693  14.653  11.750   8.045
 2997POPC   C4B39694  14.363  11.735   7.738
 2998POPC   NC339695  38.523  28.585   9.944
 2998POPC   PO439696  38.483  28.051   9.537
 2998POPC   GL139697  38.369  28.276   9.170
 2998POPC   GL239698  38.417  28.619   9.013
 2998POPC   C1A39699  38.612  28.221   8.795
 2998POPC   D2A39700  38.630  28.472   8.431
 2998POPC   C3A39701  38.907  28.271   8.144
 2998POPC   C4A39702  38.790  28.014   7.780
 2998POPC   C1B39703  38.145  28.417   8.723
 2998POPC   C2B39704  38.079  28.318   8.320
 2998POPC   C3B39705  38.276  28.553   8.015
 2998POPC   C4B39706  38.234  28.711   7.592
 2999POPC   NC339707  26.535  27.862   9.508
 2999POPC   PO439708  27.251  27.883   9.452
 2999POPC   GL139709  26.924  27.782   9.156
 2999POPC   GL239710  26.595  27.944   9.008
 2999POPC   C1A39711  27.061  27.646   8.771
 2999POPC   D2A39712  27.187  27.810   8.405
 2999POPC   C3A39713  27.052  27.738   8.034
 2999POPC   C4A39714  27.068  27.578   7.664
 2999POPC   C1B39715  26.590  27.513   8.824
 2999POPC   C2B39716  26.757  27.512   8.382
 2999POPC   C3B39717  26.781  27.310   7.973
 2999POPC   C4B39718  26.571  27.527   7.595
 3000POPC   NC339719   8.286  14.890   9.437
 3000POPC   PO439720   7.966  15.555   9.460
 3000POPC   GL139721   8.101  15.253   9.122
 3000POPC   GL239722   8.473  15.292   9.149
 3000POPC   C1A39723   8.216  15.041   8.711
 3000POPC   D2A39724   8.398  14.844   8.308
 3000POPC   C3A39725   8.202  14.988   7.912
 3000POPC   C4A39726   7.817  15.165   7.754
 3000POPC   C1B39727   8.481  15.470   8.719
 3000POPC   C2B39728   8.426  15.362   8.282
 3000POPC   C3B39729   8.635  15.284   7.896
 3000POPC   C4B39730   8.630  14.940   7.621
 3001POPC   NC339731  11.691  19.741   9.542
 3001POPC   PO439732  12.243  19.324   9.325
 3001POPC   GL139733  12.143  19.659   9.050
 3001POPC   GL239734  11.839  19.848   9.077
 3001POPC   C1A39735  12.364  19.716   8.690
 3001POPC   D2A39736  12.506  19.947   8.304
 3001POPC   C3A39737  12.183  19.965   7.983
 3001POPC   C4A39738  11.902  19.653   7.876
 3001POPC   C1B39739  11.907  19.982   8.668
 3001POPC   C2B39740  11.685  19.956   8.292
 3001POPC   C3B39741  11.754  20.256   7.988
 3001POPC   C4B39742  11.685  20.058   7.662
 3002POPC   NC339743  23.578  15.527   9.671
 3002POPC   PO439744  24.076  15.099   9.528
 3002POPC   GL139745  23.769  15.194   9.207
 3002POPC   GL239746  23.547  15.459   9.178
 3002POPC   C1A39747  23.747  15.176   8.750
 3002POPC   D2A39748  23.981  15.140   8.346
 3002POPC   C3A39749  23.701  15.129   8.021
 3002POPC   C4A39750  23.400  14.980   7.767
 3002POPC   C1B39751  23.483  15.655   8.810
 3002POPC   C2B39752  23.441  15.474   8.407
 3002POPC   C3B39753  23.323  15.568   8.014
 3002POPC   C4B39754  23.597  15.512   7.681
 3003POPC   NC339755  17.705  34.687   9.625
 3003POPC   PO439756  17.051  34.434   9.643
 3003POPC   GL139757  17.351  34.485   9.257
 3003POPC   GL239758  17.546  34.802   9.163
 3003POPC   C1A39759  17.462  34.488   8.793
 3003POPC   D2A39760  17.226  34.540   8.417
 3003POPC   C3A39761  17.234  34.304   8.021
 3003POPC   C4A39762  17.288  34.590   7.692
 3003POPC   C1B39763  17.894  34.756   8.887
 3003POPC   C2B39764  17.848  34.647   8.462
 3003POPC   C3B39765  17.630  34.610   8.085
 3003POPC   C4B39766  17.848  34.726   7.713
 3004POPC   NC339767  43.783   0.784   9.617
 3004POPC   PO439768  43.942   1.452   9.409
 3004POPC   GL139769  43.824   1.292   9.023
 3004POPC   GL239770  43.827   0.970   9.153
 3004POPC   C1A39771  43.665   1.284   8.584
 3004POPC   D2A39772  43.649   1.038   8.191
 3004POPC   C3A39773  43.949   1.144   7.859
 3004POPC   C4A39774  44.281   1.444   7.807
 3004POPC   C1B39775  43.699   0.797   8.787
 3004POPC   C2B39776  43.967   0.616   8.517
 3004POPC   C3B39777  44.028   0.693   8.119
 3004POPC   C4B39778  44.101   0.665   7.703
 3005POPC   NC339779  43.699  40.754   9.550
 3005POPC   PO439780  44.374  40.512   9.509
 3005POPC   GL139781  44.093  40.703   9.180
 3005POPC   GL239782  43.802  40.510   9.130
 3005POPC   C1A39783  44.055  40.817   8.731
 3005POPC   D2A39784  44.319  40.737   8.341
 3005POPC   C3A39785  44.095  40.828   7.942
 3005POPC   C4A39786  44.065  40.647   7.514
 3005POPC   C1B39787  43.840  40.328   8.751
 3005POPC   C2B39788  43.828  40.511   8.354
 3005POPC   C3B39789  43.906  40.353   7.954
 3005POPC   C4B39790  43.657  40.358   7.587
 3006POPC   NC339791  27.046  19.153   9.460
 3006POPC   PO439792  26.603  18.582   9.480
 3006POPC   GL139793  26.916  18.725   9.202
 3006POPC   GL239794  26.647  18.951   9.061
 3006POPC   C1A39795  27.086  18.901   8.814
 3006POPC   D2A39796  26.820  19.058   8.483
 3006POPC   C3A39797  26.921  18.997   8.054
 3006POPC   C4A39798  27.079  19.273   7.734
 3006POPC   C1B39799  26.585  18.645   8.705
 3006POPC   C2B39800  26.582  18.599   8.241
 3006POPC   C3B39801  26.516  18.689   7.798
 3006POPC   C4B39802  26.498  18.782   7.340
 3007POPC   NC339803  34.501  40.684   9.539
 3007POPC   PO439804  34.065  41.197   9.367
 3007POPC   GL139805  34.273  40.864   9.093
 3007POPC   GL239806  34.652  40.813   9.085
 3007POPC   C1A39807  34.386  40.677   8.684
 3007POPC   D2A39808  34.552  40.717   8.298
 3007POPC   C3A39809  34.293  40.850   7.991
 3007POPC   C4A39810  34.191  40.648   7.627
 3007POPC   C1B39811  34.652  40.361   8.977
 3007POPC   C2B39812  34.712  40.258   8.551
 3007POPC   C3B39813  34.766  40.252   8.112
 3007POPC   C4B39814  34.717  40.608   7.819
 3008POPC   NC339815  43.567  14.260   9.600
 3008POPC   PO439816  44.155  14.695   9.503
 3008POPC   GL139817  43.946  14.583   9.129
 3008POPC   GL239818  43.608  14.583   9.196
 3008POPC   C1A39819  44.021  14.346   8.741
 3008POPC   D2A39820  44.112  14.028   8.430
 3008POPC   C3A39821  44.054  14.160   8.013
 3008POPC   C4A39822  44.031  14.519   7.763
 3008POPC   C1B39823  43.514  14.360   8.808
 3008POPC   C2B39824  43.611  14.234   8.338
 3008POPC   C3B39825  43.523  14.291   7.864
 3008POPC   C4B39826  43.430  14.042   7.453
 3009POPC   NC339827  41.692   5.616   9.653
 3009POPC   PO439828  41.284   6.137   9.469
 3009POPC   GL139829  41.593   5.909   9.235
 3009POPC   GL239830  41.430   5.595   9.204
 3009POPC   C1A39831  41.815   5.760   8.871
 3009POPC   D2A39832  41.631   5.691   8.479
 3009POPC   C3A39833  41.581   6.034   8.187
 3009POPC   C4A39834  41.744   5.895   7.807
 3009POPC   C1B39835  41.270   5.821   8.842
 3009POPC   C2B39836  41.131   5.743   8.420
 3009POPC   C3B39837  41.350   5.623   8.032
 3009POPC   C4B39838  41.265   5.741   7.609
 3010POPC   NC339839   2.432   7.180   9.376
 3010POPC   PO439840   1.773   7.195   9.401
 3010POPC   GL139841   1.914   7.433   9.067
 3010POPC   GL239842   2.207   7.288   8.914
 3010POPC   C1A39843   1.734   7.570   8.666
 3010POPC   D2A39844   1.783   7.578   8.216
 3010POPC   C3A39845   2.176   7.740   8.079
 3010POPC   C4A39846   2.251   7.814   7.647
 3010POPC   C1B39847   1.835   7.045   8.746
 3010POPC   C2B39848   1.826   6.814   8.381
 3010POPC   C3B39849   1.851   7.084   8.026
 3010POPC   C4B39850   2.194   7.319   7.791
 3011POPC   NC339851   6.313  31.496   9.473
 3011POPC   PO439852   6.896  31.111   9.386
 3011POPC   GL139853   6.767  31.499   9.125
 3011POPC   GL239854   6.454  31.707   9.031
 3011POPC   C1A39855   6.683  31.441   8.667
 3011POPC   D2A39856   6.796  31.361   8.252
 3011POPC   C3A39857   6.511  31.219   7.961
 3011POPC   C4A39858   6.792  31.194   7.640
 3011POPC   C1B39859   6.219  31.683   8.670
 3011POPC   C2B39860   6.325  31.580   8.290
 3011POPC   C3B39861   6.259  31.665   7.874
 3011POPC   C4B39862   6.352  31.406   7.486
 3012POPC   NC339863  31.192  40.936   9.498
 3012POPC   PO439864  31.647  40.438   9.510
 3012POPC   GL139865  31.399  40.583   9.170
 3012POPC   GL239866  31.495  40.960   9.088
 3012POPC   C1A39867  31.492  40.559   8.748
 3012POPC   D2A39868  31.734  40.841   8.509
 3012POPC   C3A39869  31.683  40.799   8.075
 3012POPC   C4A39870  31.861  40.895   7.677
 3012POPC   C1B39871  31.099  40.889   8.846
 3012POPC   C2B39872  30.992  41.018   8.440
 3012POPC   C3B39873  31.199  41.068   8.077
 3012POPC   C4B39874  31.305  40.791   7.722
 3013POPC   NC339875  24.176   0.743   9.802
 3013POPC   PO439876  24.435   1.312   9.484
 3013POPC   GL139877  24.426   1.068   9.098
 3013POPC   GL239878  24.298   1.390   8.945
 3013POPC   C1A39879  24.575   1.059   8.659
 3013POPC   D2A39880  24.448   1.455   8.445
 3013POPC   C3A39881  24.419   1.400   8.026
 3013POPC   C4A39882  24.730   1.128   7.812
 3013POPC   C1B39883  24.070   1.106   8.659
 3013POPC   C2B39884  24.161   1.012   8.230
 3013POPC   C3B39885  24.225   0.971   7.760
 3013POPC   C4B39886  24.032   1.042   7.332
 3014POPC   NC339887  31.169   6.225   9.346
 3014POPC   PO439888  31.484   5.753   9.758
 3014POPC   GL139889  31.381   5.708   9.307
 3014POPC   GL239890  31.685   5.651   9.113
 3014POPC   C1A39891  31.229   5.720   8.864
 3014POPC   D2A39892  31.445   5.782   8.479
 3014POPC   C3A39893  31.265   6.098   8.221
 3014POPC   C4A39894  31.309   6.156   7.779
 3014POPC   C1B39895  31.674   6.046   8.882
 3014POPC   C2B39896  31.731   6.195   8.434
 3014POPC   C3B39897  31.833   6.172   7.983
 3014POPC   C4B39898  31.780   6.233   7.543
 3015POPC   NC339899  40.271  28.910   9.429
 3015POPC   PO439900  40.963  29.178   9.361
 3015POPC   GL139901  40.739  29.198   9.019
 3015POPC   GL239902  40.538  28.942   9.020
 3015POPC   C1A39903  40.574  29.273   8.619
 3015POPC   D2A39904  40.918  29.236   8.358
 3015POPC   C3A39905  40.915  29.475   7.976
 3015POPC   C4A39906  40.747  29.477   7.539
 3015POPC   C1B39907  40.418  28.714   8.695
 3015POPC   C2B39908  40.634  28.798   8.343
 3015POPC   C3B39909  40.606  29.038   7.991
 3015POPC   C4B39910  40.392  28.746   7.779
 3016POPC   NC339911   3.827  23.455   9.555
 3016POPC   PO439912   3.231  23.749   9.595
 3016POPC   GL139913   3.516  23.778   9.231
 3016POPC   GL239914   3.511  23.432   9.155
 3016POPC   C1A39915   3.579  23.936   8.785
 3016POPC   D2A39916   3.310  23.901   8.395
 3016POPC   C3A39917   3.500  23.797   7.989
 3016POPC   C4A39918   3.806  23.789   7.649
 3016POPC   C1B39919   3.304  23.517   8.773
 3016POPC   C2B39920   3.421  23.398   8.383
 3016POPC   C3B39921   3.153  23.420   8.041
 3016POPC   C4B39922   3.249  23.532   7.637
 3017POPC   NC339923  40.985   8.661   9.474
 3017POPC   PO439924  40.431   9.157   9.392
 3017POPC   GL139925  40.551   9.140   8.978
 3017POPC   GL239926  40.857   8.973   9.078
 3017POPC   C1A39927  40.651   8.906   8.613
 3017POPC   D2A39928  40.768   8.809   8.221
 3017POPC   C3A39929  40.736   9.134   7.906
 3017POPC   C4A39930  40.436   9.140   7.568
 3017POPC   C1B39931  41.115   8.749   8.799
 3017POPC   C2B39932  41.249   8.868   8.434
 3017POPC   C3B39933  41.216   8.889   8.018
 3017POPC   C4B39934  40.961   8.716   7.704
 3018POPC   NC339935  26.580  13.300   9.580
 3018POPC   PO439936  26.930  12.692   9.509
 3018POPC   GL139937  26.918  12.936   9.167
 3018POPC   GL239938  26.627  13.141   9.104
 3018POPC   C1A39939  27.034  12.796   8.772
 3018POPC   D2A39940  26.889  12.681   8.367
 3018POPC   C3A39941  27.051  12.892   8.014
 3018POPC   C4A39942  27.104  12.753   7.585
 3018POPC   C1B39943  26.536  12.878   8.749
 3018POPC   C2B39944  26.365  12.748   8.389
 3018POPC   C3B39945  26.536  12.993   8.112
 3018POPC   C4B39946  26.607  12.906   7.717
 3019POPC   NC339947  28.842  26.181   9.513
 3019POPC   PO439948  29.436  25.792   9.505
 3019POPC   GL139949  29.242  26.032   9.178
 3019POPC   GL239950  29.351  26.400   9.164
 3019POPC   C1A39951  29.150  25.864   8.756
 3019POPC   D2A39952  29.414  25.856   8.399
 3019POPC   C3A39953  29.254  25.947   7.980
 3019POPC   C4A39954  29.260  26.188   7.609
 3019POPC   C1B39955  29.030  26.362   8.833
 3019POPC   C2B39956  29.018  26.251   8.374
 3019POPC   C3B39957  28.886  26.358   7.959
 3019POPC   C4B39958  28.789  26.457   7.526
 3020POPC   NC339959  16.966  25.275   9.443
 3020POPC   PO439960  16.444  25.719   9.496
 3020POPC   GL139961  16.606  25.433   9.103
 3020POPC   GL239962  16.691  25.073   9.073
 3020POPC   C1A39963  16.980  25.299   8.748
 3020POPC   D2A39964  17.009  25.113   8.315
 3020POPC   C3A39965  17.148  25.340   7.922
 3020POPC   C4A39966  16.933  25.365   7.499
 3020POPC   C1B39967  16.482  25.177   8.665
 3020POPC   C2B39968  16.521  24.977   8.289
 3020POPC   C3B39969  16.657  25.135   7.901
 3020POPC   C4B39970  16.741  24.903   7.571
 3021POPC   NC339971   5.472  38.818   9.272
 3021POPC   PO439972   5.186  38.301   9.630
 3021POPC   GL139973   5.295  38.328   9.198
 3021POPC   GL239974   5.001  38.476   9.126
 3021POPC   C1A39975   5.398  38.469   8.731
 3021POPC   D2A39976   5.076  38.405   8.379
 3021POPC   C3A39977   5.166  38.165   7.975
 3021POPC   C4A39978   5.431  38.296   7.631
 3021POPC   C1B39979   5.008  38.781   8.779
 3021POPC   C2B39980   5.056  38.924   8.326
 3021POPC   C3B39981   5.021  38.660   7.924
 3021POPC   C4B39982   4.905  38.358   7.570
 3022POPC   NC339983  18.426   7.543   9.401
 3022POPC   PO439984  17.880   7.131   9.500
 3022POPC   GL139985  18.078   7.259   9.079
 3022POPC   GL239986  18.463   7.278   8.972
 3022POPC   C1A39987  18.100   7.211   8.640
 3022POPC   D2A39988  18.318   7.497   8.380
 3022POPC   C3A39989  18.236   7.325   8.003
 3022POPC   C4A39990  18.487   7.184   7.662
 3022POPC   C1B39991  18.507   7.744   8.803
 3022POPC   C2B39992  18.316   8.034   8.505
 3022POPC   C3B39993  18.381   7.958   8.067
 3022POPC   C4B39994  18.745   7.877   7.833
 3023POPC   NC339995   5.562  31.285   9.855
 3023POPC   PO439996   5.901  31.749   9.519
 3023POPC   GL139997   5.923  31.632   9.108
 3023POPC   GL239998   5.675  31.891   9.051
 3023POPC   C1A39999   5.871  31.331   8.773
 3023POPC   D2A40000   5.611  31.117   8.476
 3023POPC   C3A40001   5.658  31.307   8.062
 3023POPC   C4A40002   5.919  31.334   7.721
 3023POPC   C1B40003   5.709  31.789   8.646
 3023POPC   C2B40004   5.850  31.738   8.227
 3023POPC   C3B40005   5.735  31.807   7.797
 3023POPC   C4B40006   5.524  31.980   7.418
 3024POPC   NC340007  11.622  24.228   9.578
 3024POPC   PO440008  11.183  24.614   9.632
 3024POPC   GL140009  11.164  24.429   9.227
 3024POPC   GL240010  11.500  24.436   9.113
 3024POPC   C1A40011  11.130  24.586   8.783
 3024POPC   D2A40012  11.269  24.477   8.356
 3024POPC   C3A40013  11.135  24.670   8.018
 3024POPC   C4A40014  11.100  24.528   7.628
 3024POPC   C1B40015  11.570  24.285   8.699
 3024POPC   C2B40016  11.764  24.401   8.284
 3024POPC   C3B40017  11.618  24.362   7.862
 3024POPC   C4B40018  11.536  24.448   7.395
 3025POPC   NC340019  22.668  31.559   9.737
 3025POPC   PO440020  23.096  31.067   9.498
 3025POPC   GL140021  23.041  31.420   9.179
 3025POPC   GL240022  22.714  31.562   9.199
 3025POPC   C1A40023  23.009  31.711   8.777
 3025POPC   D2A40024  22.972  31.849   8.319
 3025POPC   C3A40025  22.870  31.594   7.986
 3025POPC   C4A40026  23.068  31.256   7.817
 3025POPC   C1B40027  22.626  31.349   8.813
 3025POPC   C2B40028  22.641  31.407   8.389
 3025POPC   C3B40029  22.592  31.150   7.987
 3025POPC   C4B40030  22.677  31.120   7.539
 3026POPC   NC340031  33.794   8.073   9.576
 3026POPC   PO440032  33.817   8.664   9.514
 3026POPC   GL140033  34.016   8.380   9.179
 3026POPC   GL240034  34.216   8.066   9.281
 3026POPC   C1A40035  33.806   8.275   8.768
 3026POPC   D2A40036  33.646   8.141   8.371
 3026POPC   C3A40037  33.807   8.387   8.005
 3026POPC   C4A40038  33.529   8.513   7.710
 3026POPC   C1B40039  34.049   7.844   8.935
 3026POPC   C2B40040  34.183   7.879   8.518
 3026POPC   C3B40041  34.070   7.980   8.140
 3026POPC   C4B40042  33.724   7.881   7.905
 3027POPC   NC340043   4.402  35.917   9.528
 3027POPC   PO440044   4.138  36.484   9.442
 3027POPC   GL140045   4.404  36.254   9.143
 3027POPC   GL240046   4.160  35.985   9.061
 3027POPC   C1A40047   4.564  36.039   8.755
 3027POPC   D2A40048   4.566  35.867   8.340
 3027POPC   C3A40049   4.630  36.077   7.961
 3027POPC   C4A40050   4.377  36.199   7.599
 3027POPC   C1B40051   4.109  36.326   8.711
 3027POPC   C2B40052   4.042  36.308   8.249
 3027POPC   C3B40053   4.148  35.926   8.024
 3027POPC   C4B40054   4.147  35.727   7.623
 3028POPC   NC340055  44.555  18.739   9.439
 3028POPC   PO440056  44.975  19.278   9.445
 3028POPC   GL140057  44.852  19.021   9.133
 3028POPC   GL240058  44.478  19.093   9.087
 3028POPC   C1A40059  44.740  18.764   8.795
 3028POPC   D2A40060  44.482  18.874   8.490
 3028POPC   C3A40061  44.700  19.033   8.124
 3028POPC   C4A40062  44.553  18.929   7.737
 3028POPC   C1B40063  44.286  19.275   8.765
 3028POPC   C2B40064  44.374  19.356   8.370
 3028POPC   C3B40065  44.249  19.288   7.934
 3028POPC   C4B40066  44.267  19.326   7.491
 3029POPC   NC340067   2.141  28.765   9.414
 3029POPC   PO440068   1.660  29.200   9.262
 3029POPC   GL140069   2.018  29.172   9.102
 3029POPC   GL240070   2.283  29.301   9.327
 3029POPC   C1A40071   2.004  29.131   8.684
 3029POPC   D2A40072   2.087  29.198   8.307
 3029POPC   C3A40073   1.811  29.131   8.023
 3029POPC   C4A40074   1.891  28.950   7.640
 3029POPC   C1B40075   2.412  29.417   8.909
 3029POPC   C2B40076   2.440  29.521   8.504
 3029POPC   C3B40077   2.399  29.552   8.069
 3029POPC   C4B40078   2.097  29.442   7.745
 3030POPC   NC340079  32.981  23.135   9.570
 3030POPC   PO440080  32.755  22.492   9.468
 3030POPC   GL140081  32.921  22.695   9.105
 3030POPC   GL240082  32.881  23.035   9.083
 3030POPC   C1A40083  32.918  22.686   8.650
 3030POPC   D2A40084  33.155  22.780   8.295
 3030POPC   C3A40085  33.241  22.524   7.979
 3030POPC   C4A40086  33.303  22.613   7.530
 3030POPC   C1B40087  32.757  23.157   8.680
 3030POPC   C2B40088  32.730  23.031   8.245
 3030POPC   C3B40089  32.939  23.147   7.877
 3030POPC   C4B40090  32.778  23.308   7.478
 3031POPC   NC340091   4.080   1.407   9.423
 3031POPC   PO440092   4.721   1.134   9.652
 3031POPC   GL140093   4.527   1.241   9.242
 3031POPC   GL240094   4.468   0.967   9.147
 3031POPC   C1A40095   4.320   1.365   8.814
 3031POPC   D2A40096   4.121   1.172   8.431
 3031POPC   C3A40097   4.145   1.349   8.000
 3031POPC   C4A40098   4.403   1.503   7.659
 3031POPC   C1B40099   4.444   0.862   8.754
 3031POPC   C2B40100   4.388   0.691   8.385
 3031POPC   C3B40101   4.338   0.858   8.038
 3031POPC   C4B40102   4.052   0.822   7.733
 3032POPC   NC340103   5.674  29.438   9.369
 3032POPC   PO440104   6.120  29.053   9.713
 3032POPC   GL140105   6.065  29.112   9.268
 3032POPC   GL240106   5.736  28.937   9.258
 3032POPC   C1A40107   6.064  29.315   8.824
 3032POPC   D2A40108   6.055  29.416   8.377
 3032POPC   C3A40109   5.973  29.151   8.029
 3032POPC   C4A40110   6.033  29.314   7.609
 3032POPC   C1B40111   5.587  29.039   8.851
 3032POPC   C2B40112   5.688  29.063   8.458
 3032POPC   C3B40113   5.476  29.228   8.129
 3032POPC   C4B40114   5.538  29.183   7.715
 3033POPC   NC340115  41.195  18.912   9.513
 3033POPC   PO440116  41.692  19.244   9.288
 3033POPC   GL140117  41.356  19.082   9.054
 3033POPC   GL240118  41.542  18.822   9.004
 3033POPC   C1A40119  41.328  19.084   8.594
 3033POPC   D2A40120  41.603  18.880   8.277
 3033POPC   C3A40121  41.635  19.094   7.872
 3033POPC   C4A40122  41.386  19.347   7.622
 3033POPC   C1B40123  41.174  18.625   8.788
 3033POPC   C2B40124  40.993  18.735   8.361
 3033POPC   C3B40125  41.175  18.863   7.983
 3033POPC   C4B40126  41.405  18.622   7.712
 3034POPC   NC340127  38.027  34.787   9.533
 3034POPC   PO440128  37.320  34.595   9.507
 3034POPC   GL140129  37.648  34.671   9.216
 3034POPC   GL240130  37.460  34.936   9.078
 3034POPC   C1A40131  37.801  34.623   8.812
 3034POPC   D2A40132  37.493  34.377   8.551
 3034POPC   C3A40133  37.455  34.519   8.121
 3034POPC   C4A40134  37.789  34.468   7.816
 3034POPC   C1B40135  37.353  34.837   8.697
 3034POPC   C2B40136  37.692  34.921   8.389
 3034POPC   C3B40137  37.745  34.980   7.947
 3034POPC   C4B40138  37.425  34.801   7.688
 3035POPC   NC340139  38.911  40.448   9.304
 3035POPC   PO440140  39.116  39.834   9.605
 3035POPC   GL140141  39.264  40.052   9.250
 3035POPC   GL240142  39.609  40.257   9.248
 3035POPC   C1A40143  39.064  39.975   8.857
 3035POPC   D2A40144  39.141  40.233   8.504
 3035POPC   C3A40145  39.210  40.077   8.088
 3035POPC   C4A40146  39.165  39.919   7.664
 3035POPC   C1B40147  39.562  40.046   8.818
 3035POPC   C2B40148  39.689  40.064   8.364
 3035POPC   C3B40149  39.691  40.073   7.906
 3035POPC   C4B40150  39.695  39.941   7.472
 3036POPC   NC340151   1.833  40.969   9.950
 3036POPC   PO440152   1.958  40.509   9.452
 3036POPC   GL140153   2.061  40.779   9.114
 3036POPC   GL240154   2.331  40.983   9.098
 3036POPC   C1A40155   1.968  40.879   8.706
 3036POPC   D2A40156   1.995  40.917   8.278
 3036POPC   C3A40157   1.774  40.721   7.968
 3036POPC   C4A40158   1.933  40.481   7.657
 3036POPC   C1B40159   2.386  41.247   8.763
 3036POPC   C2B40160   2.434  41.202   8.350
 3036POPC   C3B40161   2.233  41.254   7.989
 3036POPC   C4B40162   2.126  40.978   7.690
 3037POPC   NC340163  10.014  30.428   9.484
 3037POPC   PO440164   9.531  31.105   9.444
 3037POPC   GL140165   9.569  30.811   9.107
 3037POPC   GL240166   9.919  30.795   9.149
 3037POPC   C1A40167   9.473  30.803   8.650
 3037POPC   D2A40168   9.368  31.106   8.313
 3037POPC   C3A40169   9.637  31.090   7.962
 3037POPC   C4A40170   9.598  30.837   7.612
 3037POPC   C1B40171   9.967  30.663   8.768
 3037POPC   C2B40172   9.942  30.407   8.436
 3037POPC   C3B40173  10.038  30.280   8.039
 3037POPC   C4B40174  10.016  30.618   7.779
 3038POPC   NC340175  26.598   5.560   9.492
 3038POPC   PO440176  26.983   5.997   9.687
 3038POPC   GL140177  26.871   5.899   9.237
 3038POPC   GL240178  26.895   5.520   9.100
 3038POPC   C1A40179  26.909   5.929   8.789
 3038POPC   D2A40180  27.079   5.854   8.384
 3038POPC   C3A40181  26.859   6.123   8.098
 3038POPC   C4A40182  26.757   6.070   7.652
 3038POPC   C1B40183  26.609   5.479   8.763
 3038POPC   C2B40184  26.593   5.662   8.351
 3038POPC   C3B40185  26.784   5.645   7.946
 3038POPC   C4B40186  26.692   5.599   7.472
 3039POPC   NC340187   3.558  25.848   9.680
 3039POPC   PO440188   3.152  26.248   9.313
 3039POPC   GL140189   3.599  26.102   9.230
 3039POPC   GL240190   3.635  25.747   9.176
 3039POPC   C1A40191   3.865  26.054   8.860
 3039POPC   D2A40192   3.686  25.879   8.496
 3039POPC   C3A40193   3.906  25.819   8.123
 3039POPC   C4A40194   3.795  25.567   7.775
 3039POPC   C1B40195   3.296  25.825   8.848
 3039POPC   C2B40196   3.218  25.649   8.435
 3039POPC   C3B40197   3.393  25.758   8.076
 3039POPC   C4B40198   3.271  25.846   7.704
 3040POPC   NC340199   2.243  23.249   9.438
 3040POPC   PO440200   2.159  22.558   9.393
 3040POPC   GL140201   2.224  22.874   9.098
 3040POPC   GL240202   1.873  22.916   9.100
 3040POPC   C1A40203   2.101  23.057   8.680
 3040POPC   D2A40204   1.806  22.810   8.437
 3040POPC   C3A40205   1.950  22.619   8.056
 3040POPC   C4A40206   2.125  22.885   7.750
 3040POPC   C1B40207   1.626  23.185   8.828
 3040POPC   C2B40208   1.680  23.325   8.422
 3040POPC   C3B40209   1.665  23.106   8.047
 3040POPC   C4B40210   1.651  23.305   7.687
 3041POPC   NC340211  14.439  34.608   9.555
 3041POPC   PO440212  14.399  34.003   9.564
 3041POPC   GL140213  14.496  34.286   9.175
 3041POPC   GL240214  14.155  34.475   9.151
 3041POPC   C1A40215  14.610  34.632   8.861
 3041POPC   D2A40216  14.823  34.726   8.460
 3041POPC   C3A40217  14.614  34.624   8.064
 3041POPC   C4A40218  14.417  34.806   7.715
 3041POPC   C1B40219  14.198  34.345   8.732
 3041POPC   C2B40220  14.302  34.223   8.298
 3041POPC   C3B40221  14.205  34.381   7.885
 3041POPC   C4B40222  14.043  34.562   7.471
 3042POPC   NC340223  26.919  15.137   9.500
 3042POPC   PO440224  26.330  15.440   9.304
 3042POPC   GL140225  26.670  15.283   9.110
 3042POPC   GL240226  26.954  15.449   9.091
 3042POPC   C1A40227  26.938  14.959   8.825
 3042POPC   D2A40228  26.764  14.722   8.453
 3042POPC   C3A40229  26.933  14.899   8.065
 3042POPC   C4A40230  27.167  15.157   7.748
 3042POPC   C1B40231  26.779  15.433   8.676
 3042POPC   C2B40232  26.637  15.246   8.338
 3042POPC   C3B40233  26.730  15.379   7.954
 3042POPC   C4B40234  26.809  15.616   7.619
 3043POPC   NC340235  40.478  37.546   9.371
 3043POPC   PO440236  41.054  37.328   9.733
 3043POPC   GL140237  41.024  37.662   9.283
 3043POPC   GL240238  40.787  37.653   8.987
 3043POPC   C1A40239  41.172  37.931   8.856
 3043POPC   D2A40240  41.121  37.740   8.438
 3043POPC   C3A40241  40.772  37.848   8.155
 3043POPC   C4A40242  40.944  37.912   7.744
 3043POPC   C1B40243  40.795  37.376   8.635
 3043POPC   C2B40244  40.661  37.342   8.243
 3043POPC   C3B40245  40.984  37.436   7.964
 3043POPC   C4B40246  41.171  37.300   7.627
 3044POPC   NC340247   9.140  34.602   9.677
 3044POPC   PO440248   8.889  34.042   9.695
 3044POPC   GL140249   9.160  34.219   9.318
 3044POPC   GL240250   8.909  34.472   9.200
 3044POPC   C1A40251   9.292  34.427   8.888
 3044POPC   D2A40252   9.130  34.325   8.446
 3044POPC   C3A40253   9.179  34.586   8.068
 3044POPC   C4A40254   9.145  34.452   7.626
 3044POPC   C1B40255   8.738  34.559   8.751
 3044POPC   C2B40256   8.707  34.605   8.289
 3044POPC   C3B40257   8.731  34.708   7.830
 3044POPC   C4B40258   8.427  34.691   7.504
 3045POPC   NC340259  44.008  28.902   9.521
 3045POPC   PO440260  43.592  29.429   9.261
 3045POPC   GL140261  43.757  29.003   9.071
 3045POPC   GL240262  44.078  28.902   9.014
 3045POPC   C1A40263  43.817  29.157   8.656
 3045POPC   D2A40264  43.678  29.502   8.425
 3045POPC   C3A40265  43.719  29.446   7.994
 3045POPC   C4A40266  43.806  29.183   7.614
 3045POPC   C1B40267  44.320  29.061   8.668
 3045POPC   C2B40268  44.165  29.186   8.267
 3045POPC   C3B40269  44.114  28.920   7.928
 3045POPC   C4B40270  44.164  28.782   7.512
 3046POPC   NC340271  12.598  39.456   9.486
 3046POPC   PO440272  12.928  38.943   9.511
 3046POPC   GL140273  12.962  39.232   9.169
 3046POPC   GL240274  12.648  39.109   9.097
 3046POPC   C1A40275  12.994  39.480   8.797
 3046POPC   D2A40276  12.834  39.388   8.403
 3046POPC   C3A40277  12.980  39.519   8.003
 3046POPC   C4A40278  12.801  39.357   7.606
 3046POPC   C1B40279  12.834  38.986   8.728
 3046POPC   C2B40280  12.959  38.896   8.318
 3046POPC   C3B40281  12.769  38.955   7.949
 3046POPC   C4B40282  12.726  38.827   7.539
 3047POPC   NC340283  44.169  41.628   9.666
 3047POPC   PO440284  43.681  41.204   9.710
 3047POPC   GL140285  43.837  41.429   9.287
 3047POPC   GL240286  44.087  41.738   9.177
 3047POPC   C1A40287  43.677  41.561   8.870
 3047POPC   D2A40288  43.592  41.830   8.513
 3047POPC   C3A40289  43.645  41.641   8.111
 3047POPC   C4A40290  43.915  41.331   7.892
 3047POPC   C1B40291  43.992  41.977   8.799
 3047POPC   C2B40292  44.080  41.968   8.356
 3047POPC   C3B40293  44.048  41.895   7.914
 3047POPC   C4B40294  44.369  41.690   7.674
 3048POPC   NC340295  27.260  16.089   9.297
 3048POPC   PO440296  27.854  15.783   9.608
 3048POPC   GL140297  27.712  15.853   9.160
 3048POPC   GL240298  27.366  15.813   8.901
 3048POPC   C1A40299  27.834  15.689   8.789
 3048POPC   D2A40300  27.617  15.534   8.432
 3048POPC   C3A40301  27.691  15.745   8.059
 3048POPC   C4A40302  27.861  15.812   7.660
 3048POPC   C1B40303  27.649  16.179   8.755
 3048POPC   C2B40304  27.828  16.396   8.387
 3048POPC   C3B40305  27.818  16.271   7.935
 3048POPC   C4B40306  27.408  16.338   7.726
 3049POPC   NC340307   3.762  17.365   9.614
 3049POPC   PO440308   3.323  16.975   9.313
 3049POPC   GL140309   3.403  17.399   9.218
 3049POPC   GL240310   3.732  17.428   9.099
 3049POPC   C1A40311   3.347  17.587   8.783
 3049POPC   D2A40312   3.566  17.498   8.414
 3049POPC   C3A40313   3.357  17.558   7.989
 3049POPC   C4A40314   3.300  17.260   7.618
 3049POPC   C1B40315   3.906  17.750   8.830
 3049POPC   C2B40316   4.026  17.777   8.405
 3049POPC   C3B40317   3.892  17.532   8.023
 3049POPC   C4B40318   3.830  17.780   7.654
 3050POPC   NC340319  39.528   5.173   9.457
 3050POPC   PO440320  39.017   4.874   9.736
 3050POPC   GL140321  39.025   5.241   9.314
 3050POPC   GL240322  39.292   5.211   9.033
 3050POPC   C1A40323  38.854   5.297   8.847
 3050POPC   D2A40324  39.112   5.052   8.538
 3050POPC   C3A40325  39.088   5.135   8.086
 3050POPC   C4A40326  39.285   5.077   7.679
 3050POPC   C1B40327  39.628   5.291   8.746
 3050POPC   C2B40328  39.781   5.017   8.443
 3050POPC   C3B40329  39.629   5.150   8.039
 3050POPC   C4B40330  39.808   5.040   7.622
 3051POPC   NC340331  30.460  23.177   9.539
 3051POPC   PO440332  31.071  23.267   9.162
 3051POPC   GL140333  30.746  22.963   9.095
 3051POPC   GL240334  30.401  22.862   9.132
 3051POPC   C1A40335  30.647  22.984   8.663
 3051POPC   D2A40336  30.933  23.050   8.323
 3051POPC   C3A40337  30.724  22.967   7.943
 3051POPC   C4A40338  30.622  22.667   7.622
 3051POPC   C1B40339  30.216  23.143   8.865
 3051POPC   C2B40340  30.163  23.167   8.424
 3051POPC   C3B40341  30.276  23.249   7.988
 3051POPC   C4B40342  30.374  23.094   7.582
 3052POPC   NC340343   0.198   1.410   9.524
 3052POPC   PO440344   0.762   1.034   9.540
 3052POPC   GL140345   0.409   1.033   9.239
 3052POPC   GL240346   0.419   1.371   9.081
 3052POPC   C1A40347   0.183   1.005   8.834
 3052POPC   D2A40348   0.480   0.985   8.508
 3052POPC   C3A40349   0.400   1.234   8.162
 3052POPC   C4A40350   0.348   1.047   7.787
 3052POPC   C1B40351   0.497   1.492   8.665
 3052POPC   C2B40352   0.371   1.734   8.316
 3052POPC   C3B40353   0.476   1.692   7.922
 3052POPC   C4B40354   0.200   1.509   7.633
 3053POPC   NC340355  22.726  22.571   9.663
 3053POPC   PO440356  23.109  22.036   9.600
 3053POPC   GL140357  23.074  22.173   9.211
 3053POPC   GL240358  23.331  21.996   9.101
 3053POPC   C1A40359  22.712  22.295   8.965
 3053POPC   D2A40360  22.534  22.346   8.553
 3053POPC   C3A40361  22.774  22.314   8.182
 3053POPC   C4A40362  22.598  22.303   7.764
 3053POPC   C1B40363  23.118  22.051   8.688
 3053POPC   C2B40364  23.219  21.988   8.244
 3053POPC   C3B40365  23.214  22.158   7.800
 3053POPC   C4B40366  23.144  21.968   7.390
 3054POPC   NC340367  33.781  40.182   9.584
 3054POPC   PO440368  33.285  39.776   9.493
 3054POPC   GL140369  33.554  39.988   9.161
 3054POPC   GL240370  33.805  40.272   9.098
 3054POPC   C1A40371  33.763  39.881   8.775
 3054POPC   D2A40372  33.647  39.894   8.356
 3054POPC   C3A40373  33.861  39.827   7.981
 3054POPC   C4A40374  33.627  39.805   7.588
 3054POPC   C1B40375  33.492  40.337   8.780
 3054POPC   C2B40376  33.495  40.379   8.362
 3054POPC   C3B40377  33.542  40.225   7.950
 3054POPC   C4B40378  33.903  40.234   7.679
 3055POPC   NC340379  41.163  39.210   9.526
 3055POPC   PO440380  41.793  39.010   9.668
 3055POPC   GL140381  41.654  39.168   9.205
 3055POPC   GL240382  41.322  39.160   9.000
 3055POPC   C1A40383  41.712  39.405   8.775
 3055POPC   D2A40384  41.728  39.253   8.344
 3055POPC   C3A40385  41.656  39.498   7.997
 3055POPC   C4A40386  41.656  39.441   7.547
 3055POPC   C1B40387  41.389  38.978   8.615
 3055POPC   C2B40388  41.525  38.805   8.219
 3055POPC   C3B40389  41.530  39.012   7.802
 3055POPC   C4B40390  41.235  39.113   7.427
 3056POPC   NC340391  21.040  23.839   9.490
 3056POPC   PO440392  21.711  23.556   9.524
 3056POPC   GL140393  21.491  23.770   9.203
 3056POPC   GL240394  21.186  23.545   9.111
 3056POPC   C1A40395  21.446  23.776   8.758
 3056POPC   D2A40396  21.469  23.397   8.549
 3056POPC   C3A40397  21.538  23.399   8.131
 3056POPC   C4A40398  21.365  23.632   7.806
 3056POPC   C1B40399  20.950  23.860   8.810
 3056POPC   C2B40400  20.974  24.038   8.363
 3056POPC   C3B40401  21.169  24.091   7.935
 3056POPC   C4B40402  21.075  23.903   7.498
 3057POPC   NC340403   1.751  35.304   9.631
 3057POPC   PO440404   2.220  35.765   9.624
 3057POPC   GL140405   2.221  35.436   9.249
 3057POPC   GL240406   1.957  35.157   9.194
 3057POPC   C1A40407   2.163  35.344   8.778
 3057POPC   D2A40408   2.182  35.564   8.392
 3057POPC   C3A40409   2.022  35.456   7.959
 3057POPC   C4A40410   1.981  35.505   7.473
 3057POPC   C1B40411   1.805  34.979   8.810
 3057POPC   C2B40412   1.950  34.956   8.399
 3057POPC   C3B40413   1.709  35.067   8.064
 3057POPC   C4B40414   1.801  35.062   7.675
 3058POPC   NC340415  42.228  28.947   9.574
 3058POPC   PO440416  42.939  28.802   9.444
 3058POPC   GL140417  42.571  28.878   9.206
 3058POPC   GL240418  42.687  29.230   9.165
 3058POPC   C1A40419  42.304  29.108   8.873
 3058POPC   D2A40420  42.170  29.290   8.479
 3058POPC   C3A40421  42.334  29.084   8.113
 3058POPC   C4A40422  42.173  29.184   7.746
 3058POPC   C1B40423  42.812  28.935   8.782
 3058POPC   C2B40424  42.610  28.732   8.436
 3058POPC   C3B40425  42.646  28.661   8.007
 3058POPC   C4B40426  42.657  28.992   7.698
 3059POPC   NC340427  33.720  11.469   9.760
 3059POPC   PO440428  33.769  12.087   9.503
 3059POPC   GL140429  33.535  11.930   9.168
 3059POPC   GL240430  33.832  11.743   9.090
 3059POPC   C1A40431  33.628  12.120   8.746
 3059POPC   D2A40432  33.686  12.403   8.388
 3059POPC   C3A40433  33.499  12.217   8.048
 3059POPC   C4A40434  33.396  11.829   7.888
 3059POPC   C1B40435  33.694  11.598   8.692
 3059POPC   C2B40436  33.718  11.781   8.315
 3059POPC   C3B40437  33.978  12.032   8.118
 3059POPC   C4B40438  33.867  12.015   7.720
 3060POPC   NC340439  23.320  43.403   9.462
 3060POPC   PO440440  23.249  44.150   9.553
 3060POPC   GL140441  23.457  43.958   9.183
 3060POPC   GL240442  23.826  43.893   9.214
 3060POPC   C1A40443  23.416  43.762   8.768
 3060POPC   D2A40444  23.705  43.638   8.459
 3060POPC   C3A40445  23.605  43.666   8.037
 3060POPC   C4A40446  23.482  43.793   7.639
 3060POPC   C1B40447  23.915  43.958   8.783
 3060POPC   C2B40448  23.827  44.149   8.356
 3060POPC   C3B40449  23.956  44.054   7.920
 3060POPC   C4B40450  23.939  43.942   7.448
 3061POPC   NC340451   8.378  14.094   9.472
 3061POPC   PO440452   7.907  14.630   9.352
 3061POPC   GL140453   8.276  14.470   9.122
 3061POPC   GL240454   8.392  14.119   8.964
 3061POPC   C1A40455   8.426  14.580   8.756
 3061POPC   D2A40456   8.151  14.339   8.490
 3061POPC   C3A40457   8.098  14.444   8.078
 3061POPC   C4A40458   8.372  14.528   7.750
 3061POPC   C1B40459   7.989  13.960   8.805
 3061POPC   C2B40460   7.751  14.009   8.404
 3061POPC   C3B40461   7.870  13.950   7.999
 3061POPC   C4B40462   8.233  14.037   7.772
 3062POPC   NC340463  22.728  14.056   9.373
 3062POPC   PO440464  23.065  13.466   9.551
 3062POPC   GL140465  23.011  13.369   9.156
 3062POPC   GL240466  22.693  13.539   9.174
 3062POPC   C1A40467  23.241  13.420   8.756
 3062POPC   D2A40468  23.208  13.702   8.403
 3062POPC   C3A40469  23.178  13.495   8.030
 3062POPC   C4A40470  22.801  13.390   7.851
 3062POPC   C1B40471  22.837  13.723   8.812
 3062POPC   C2B40472  22.706  13.734   8.421
 3062POPC   C3B40473  22.813  13.868   8.032
 3062POPC   C4B40474  23.072  14.086   7.768
 3063POPC   NC340475  11.460  28.968   9.602
 3063POPC   PO440476  10.905  28.564   9.596
 3063POPC   GL140477  11.137  28.835   9.239
 3063POPC   GL240478  11.526  28.833   9.110
 3063POPC   C1A40479  11.201  29.144   8.891
 3063POPC   D2A40480  11.357  29.069   8.470
 3063POPC   C3A40481  11.155  29.233   8.116
 3063POPC   C4A40482  11.119  29.484   7.773
 3063POPC   C1B40483  11.707  28.745   8.672
 3063POPC   C2B40484  11.638  28.706   8.190
 3063POPC   C3B40485  11.541  28.986   7.836
 3063POPC   C4B40486  11.481  28.830   7.334
 3064POPC   NC340487  41.384  31.179   9.483
 3064POPC   PO440488  42.007  31.546   9.542
 3064POPC   GL140489  41.793  31.407   9.201
 3064POPC   GL240490  41.498  31.603   9.147
 3064POPC   C1A40491  41.682  31.303   8.785
 3064POPC   D2A40492  41.594  31.158   8.388
 3064POPC   C3A40493  41.685  31.484   8.117
 3064POPC   C4A40494  41.812  31.439   7.729
 3064POPC   C1B40495  41.351  31.699   8.734
 3064POPC   C2B40496  41.198  31.483   8.362
 3064POPC   C3B40497  41.257  31.227   7.998
 3064POPC   C4B40498  41.324  31.577   7.717
 3065POPC   NC340499  11.403  37.741   9.650
 3065POPC   PO440500  10.870  37.415   9.854
 3065POPC   GL140501  11.147  37.680   9.227
 3065POPC   GL240502  11.557  37.708   9.179
 3065POPC   C1A40503  10.943  37.799   8.830
 3065POPC   D2A40504  11.041  38.034   8.452
 3065POPC   C3A40505  11.085  37.791   8.068
 3065POPC   C4A40506  11.308  37.838   7.704
 3065POPC   C1B40507  11.437  37.816   8.831
 3065POPC   C2B40508  11.371  37.645   8.455
 3065POPC   C3B40509  11.599  37.767   8.096
 3065POPC   C4B40510  11.827  37.706   7.708
 3066POPC   NC340511  42.869  25.970   9.739
 3066POPC   PO440512  42.331  25.847   9.302
 3066POPC   GL140513  42.441  26.236   9.073
 3066POPC   GL240514  42.753  26.477   9.063
 3066POPC   C1A40515  42.303  26.185   8.657
 3066POPC   D2A40516  42.411  25.874   8.313
 3066POPC   C3A40517  42.160  25.854   7.936
 3066POPC   C4A40518  42.255  25.902   7.472
 3066POPC   C1B40519  42.547  26.639   8.661
 3066POPC   C2B40520  42.442  26.409   8.224
 3066POPC   C3B40521  42.453  26.254   7.780
 3066POPC   C4B40522  42.421  26.334   7.287
 3067POPC   NC340523   4.979  17.327   9.465
 3067POPC   PO440524   5.418  17.828   9.652
 3067POPC   GL140525   5.259  17.644   9.154
 3067POPC   GL240526   4.894  17.492   9.005
 3067POPC   C1A40527   5.307  17.494   8.725
 3067POPC   D2A40528   4.989  17.576   8.394
 3067POPC   C3A40529   4.977  17.844   8.067
 3067POPC   C4A40530   5.060  17.635   7.689
 3067POPC   C1B40531   4.843  17.200   8.687
 3067POPC   C2B40532   5.178  17.107   8.400
 3067POPC   C3B40533   5.158  17.211   7.984
 3067POPC   C4B40534   4.939  16.920   7.774
 3068POPC   NC340535  13.128   7.049   9.390
 3068POPC   PO440536  12.503   6.829   9.476
 3068POPC   GL140537  12.670   6.762   9.101
 3068POPC   GL240538  12.935   6.544   9.209
 3068POPC   C1A40539  12.965   6.813   8.761
 3068POPC   D2A40540  13.124   6.713   8.361
 3068POPC   C3A40541  12.827   6.803   8.088
 3068POPC   C4A40542  12.856   6.908   7.717
 3068POPC   C1B40543  12.815   6.325   8.823
 3068POPC   C2B40544  12.709   6.376   8.386
 3068POPC   C3B40545  12.886   6.312   7.966
 3068POPC   C4B40546  12.683   6.430   7.559
 3069POPC   NC340547  14.616  29.625   9.320
 3069POPC   PO440548  14.550  28.970   9.547
 3069POPC   GL140549  14.478  29.141   9.175
 3069POPC   GL240550  14.352  28.857   9.071
 3069POPC   C1A40551  14.400  29.309   8.761
 3069POPC   D2A40552  14.291  29.454   8.356
 3069POPC   C3A40553  14.374  29.258   8.007
 3069POPC   C4A40554  14.024  29.263   7.779
 3069POPC   C1B40555  14.116  28.892   8.731
 3069POPC   C2B40556  14.391  28.892   8.368
 3069POPC   C3B40557  14.325  28.719   7.949
 3069POPC   C4B40558  14.063  28.796   7.533
 3070POPC   NC340559  13.388  37.593   9.443
 3070POPC   PO440560  14.009  37.829   9.487
 3070POPC   GL140561  13.724  37.887   9.135
 3070POPC   GL240562  13.722  37.534   9.052
 3070POPC   C1A40563  13.561  37.900   8.698
 3070POPC   D2A40564  13.506  37.845   8.252
 3070POPC   C3A40565  13.471  38.181   7.892
 3070POPC   C4A40566  13.586  37.949   7.484
 3070POPC   C1B40567  13.978  37.600   8.670
 3070POPC   C2B40568  13.992  37.646   8.221
 3070POPC   C3B40569  13.743  37.569   7.863
 3070POPC   C4B40570  13.475  37.381   7.539
 3071POPC   NC340571  22.241   6.270   9.639
 3071POPC   PO440572  21.954   6.880   9.602
 3071POPC   GL140573  21.944   6.571   9.265
 3071POPC   GL240574  22.286   6.495   9.150
 3071POPC   C1A40575  21.918   6.612   8.788
 3071POPC   D2A40576  21.759   6.633   8.351
 3071POPC   C3A40577  22.014   6.537   7.967
 3071POPC   C4A40578  21.980   6.789   7.603
 3071POPC   C1B40579  22.553   6.350   8.799
 3071POPC   C2B40580  22.699   6.450   8.368
 3071POPC   C3B40581  22.544   6.551   7.956
 3071POPC   C4B40582  22.632   6.905   7.693
 3072POPC   NC340583  13.244  14.401   9.283
 3072POPC   PO440584  13.721  14.744   9.617
 3072POPC   GL140585  13.819  14.490   9.231
 3072POPC   GL240586  13.825  14.134   9.262
 3072POPC   C1A40587  13.727  14.396   8.771
 3072POPC   D2A40588  13.570  14.537   8.328
 3072POPC   C3A40589  13.575  14.259   7.944
 3072POPC   C4A40590  13.792  14.352   7.526
 3072POPC   C1B40591  14.089  14.034   8.884
 3072POPC   C2B40592  14.048  13.803   8.514
 3072POPC   C3B40593  14.027  14.052   8.156
 3072POPC   C4B40594  13.921  13.925   7.765
 3073POPC   NC340595  38.069  13.332   9.574
 3073POPC   PO440596  38.135  13.928   9.319
 3073POPC   GL140597  38.323  13.762   9.009
 3073POPC   GL240598  38.390  13.460   9.160
 3073POPC   C1A40599  38.337  13.698   8.588
 3073POPC   D2A40600  38.361  13.653   8.181
 3073POPC   C3A40601  38.508  13.903   7.907
 3073POPC   C4A40602  38.279  13.632   7.653
 3073POPC   C1B40603  38.688  13.422   8.808
 3073POPC   C2B40604  38.808  13.452   8.322
 3073POPC   C3B40605  38.682  13.386   7.863
 3073POPC   C4B40606  38.729  13.606   7.450
 3074POPC   NC340607  37.776  11.790   9.872
 3074POPC   PO440608  37.410  12.067   9.355
 3074POPC   GL140609  37.529  12.044   8.985
 3074POPC   GL240610  37.874  12.127   8.998
 3074POPC   C1A40611  37.610  12.070   8.566
 3074POPC   D2A40612  37.464  11.957   8.217
 3074POPC   C3A40613  37.686  12.208   7.985
 3074POPC   C4A40614  37.687  12.302   7.576
 3074POPC   C1B40615  38.067  11.835   8.729
 3074POPC   C2B40616  37.968  11.795   8.300
 3074POPC   C3B40617  38.079  11.691   7.884
 3074POPC   C4B40618  38.092  11.984   7.550
 3075POPC   NC340619  15.735  34.045   9.715
 3075POPC   PO440620  16.132  33.516   9.565
 3075POPC   GL140621  15.878  33.676   9.213
 3075POPC   GL240622  15.758  34.037   9.204
 3075POPC   C1A40623  15.977  33.797   8.793
 3075POPC   D2A40624  16.007  33.627   8.390
 3075POPC   C3A40625  16.113  33.892   8.086
 3075POPC   C4A40626  16.032  33.851   7.678
 3075POPC   C1B40627  15.558  34.090   8.774
 3075POPC   C2B40628  15.741  34.100   8.363
 3075POPC   C3B40629  15.627  34.066   7.906
 3075POPC   C4B40630  15.789  34.294   7.526
 3076POPC   NC340631  10.627  32.248   9.838
 3076POPC   PO440632  10.702  32.355   9.238
 3076POPC   GL140633  10.485  32.207   8.991
 3076POPC   GL240634  10.402  31.907   9.168
 3076POPC   C1A40635  10.378  32.354   8.611
 3076POPC   D2A40636  10.251  32.318   8.225
 3076POPC   C3A40637  10.492  32.370   7.866
 3076POPC   C4A40638  10.674  32.540   7.518
 3076POPC   C1B40639  10.146  31.896   8.782
 3076POPC   C2B40640  10.026  31.882   8.335
 3076POPC   C3B40641  10.305  31.907   7.930
 3076POPC   C4B40642  10.413  32.032   7.462
 3077POPC   NC340643  27.456  19.906   9.503
 3077POPC   PO440644  28.093  19.679   9.478
 3077POPC   GL140645  27.858  19.967   9.150
 3077POPC   GL240646  27.508  20.047   9.025
 3077POPC   C1A40647  27.807  19.724   8.748
 3077POPC   D2A40648  27.688  19.527   8.370
 3077POPC   C3A40649  27.797  19.767   8.039
 3077POPC   C4A40650  27.729  19.933   7.676
 3077POPC   C1B40651  27.282  19.690   8.818
 3077POPC   C2B40652  27.071  19.687   8.417
 3077POPC   C3B40653  27.269  19.628   8.067
 3077POPC   C4B40654  27.241  19.761   7.679
 3078POPC   NC340655   6.996  21.516   9.410
 3078POPC   PO440656   7.661  21.286   9.487
 3078POPC   GL140657   7.443  21.547   9.155
 3078POPC   GL240658   7.182  21.308   8.990
 3078POPC   C1A40659   7.322  21.719   8.746
 3078POPC   D2A40660   7.195  21.412   8.434
 3078POPC   C3A40661   7.255  21.630   8.052
 3078POPC   C4A40662   7.191  21.455   7.700
 3078POPC   C1B40663   7.474  21.014   8.808
 3078POPC   C2B40664   7.657  21.060   8.409
 3078POPC   C3B40665   7.517  21.131   8.005
 3078POPC   C4B40666   7.449  20.904   7.649
 3079POPC   NC340667  26.626  20.044   9.630
 3079POPC   PO440668  27.098  19.605   9.537
 3079POPC   GL140669  26.862  19.707   9.178
 3079POPC   GL240670  26.765  20.073   9.153
 3079POPC   C1A40671  26.772  19.474   8.806
 3079POPC   D2A40672  26.540  19.523   8.439
 3079POPC   C3A40673  26.736  19.500   8.050
 3079POPC   C4A40674  26.707  19.648   7.622
 3079POPC   C1B40675  26.879  20.003   8.755
 3079POPC   C2B40676  26.677  20.029   8.360
 3079POPC   C3B40677  26.859  20.005   7.968
 3079POPC   C4B40678  27.076  20.242   7.681
 3080POPC   NC340679  34.934  17.595   9.542
 3080POPC   PO440680  34.377  17.288   9.543
 3080POPC   GL140681  34.494  17.618   9.213
 3080POPC   GL240682  34.808  17.681   9.051
 3080POPC   C1A40683  34.388  17.790   8.781
 3080POPC   D2A40684  34.591  17.855   8.373
 3080POPC   C3A40685  34.504  17.628   7.992
 3080POPC   C4A40686  34.100  17.650   7.769
 3080POPC   C1B40687  35.017  17.458   8.731
 3080POPC   C2B40688  34.901  17.445   8.298
 3080POPC   C3B40689  34.929  17.349   7.869
 3080POPC   C4B40690  34.680  17.404   7.517
 3081POPC   NC340691  37.063   6.110   9.426
 3081POPC   PO440692  36.803   6.728   9.640
 3081POPC   GL140693  36.821   6.666   9.217
 3081POPC   GL240694  36.630   6.362   9.290
 3081POPC   C1A40695  36.945   6.764   8.757
 3081POPC   D2A40696  37.193   6.861   8.358
 3081POPC   C3A40697  37.043   6.776   7.911
 3081POPC   C4A40698  37.083   6.433   7.619
 3081POPC   C1B40699  36.592   6.387   8.871
 3081POPC   C2B40700  36.622   6.338   8.458
 3081POPC   C3B40701  36.599   6.600   8.112
 3081POPC   C4B40702  36.601   6.530   7.674
 3082POPC   NC340703  12.209  34.710   9.710
 3082POPC   PO440704  11.979  34.074   9.574
 3082POPC   GL140705  11.974  34.296   9.210
 3082POPC   GL240706  12.316  34.463   9.195
 3082POPC   C1A40707  11.991  34.491   8.803
 3082POPC   D2A40708  12.214  34.380   8.438
 3082POPC   C3A40709  12.017  34.383   8.041
 3082POPC   C4A40710  11.939  34.741   7.835
 3082POPC   C1B40711  12.483  34.691   8.809
 3082POPC   C2B40712  12.522  34.792   8.357
 3082POPC   C3B40713  12.443  34.678   7.922
 3082POPC   C4B40714  12.511  34.773   7.424
 3083POPC   NC340715  12.276  43.457   9.491
 3083POPC   PO440716  11.811  42.897   9.398
 3083POPC   GL140717  12.084  43.140   9.131
 3083POPC   GL240718  12.383  42.977   9.219
 3083POPC   C1A40719  12.326  43.422   8.820
 3083POPC   D2A40720  12.444  43.346   8.368
 3083POPC   C3A40721  12.108  43.196   8.085
 3083POPC   C4A40722  11.891  43.112   7.713
 3083POPC   C1B40723  12.419  42.911   8.787
 3083POPC   C2B40724  12.542  42.805   8.387
 3083POPC   C3B40725  12.547  42.956   8.004
 3083POPC   C4B40726  12.372  42.865   7.639
 3084POPC   NC340727   3.418   1.591   9.594
 3084POPC   PO440728   3.804   1.105   9.727
 3084POPC   GL140729   3.594   1.241   9.279
 3084POPC   GL240730   3.355   0.966   9.186
 3084POPC   C1A40731   3.752   1.367   8.836
 3084POPC   D2A40732   3.596   1.349   8.411
 3084POPC   C3A40733   3.708   1.032   8.122
 3084POPC   C4A40734   3.707   1.183   7.712
 3084POPC   C1B40735   3.443   0.922   8.748
 3084POPC   C2B40736   3.200   0.961   8.363
 3084POPC   C3B40737   3.225   1.150   7.949
 3084POPC   C4B40738   3.230   1.028   7.509
 3085POPC   NC340739  12.343  11.243   9.540
 3085POPC   PO440740  11.734  11.147   9.757
 3085POPC   GL140741  11.900  11.372   9.315
 3085POPC   GL240742  11.983  11.095   9.197
 3085POPC   C1A40743  11.954  11.630   8.895
 3085POPC   D2A40744  12.226  11.519   8.550
 3085POPC   C3A40745  12.088  11.615   8.123
 3085POPC   C4A40746  12.309  11.593   7.730
 3085POPC   C1B40747  11.848  11.159   8.803
 3085POPC   C2B40748  12.009  11.064   8.426
 3085POPC   C3B40749  12.236  11.116   8.045
 3085POPC   C4B40750  12.248  11.080   7.616
 3086POPC   NC340751   3.769  28.071   9.581
 3086POPC   PO440752   3.483  28.708   9.652
 3086POPC   GL140753   3.427  28.475   9.261
 3086POPC   GL240754   3.744  28.592   9.141
 3086POPC   C1A40755   3.447  28.355   8.800
 3086POPC   D2A40756   3.366  28.533   8.350
 3086POPC   C3A40757   3.431  28.267   7.971
 3086POPC   C4A40758   3.785  28.176   7.672
 3086POPC   C1B40759   3.703  28.805   8.744
 3086POPC   C2B40760   3.700  28.959   8.349
 3086POPC   C3B40761   3.770  28.656   8.023
 3086POPC   C4B40762   3.559  28.658   7.647
 3087POPC   NC340763  16.466  39.589   9.544
 3087POPC   PO440764  16.645  40.205   9.377
 3087POPC   GL140765  16.724  39.815   9.177
 3087POPC   GL240766  16.367  39.835   9.097
 3087POPC   C1A40767  16.754  39.636   8.777
 3087POPC   D2A40768  16.811  39.932   8.468
 3087POPC   C3A40769  16.733  39.828   8.073
 3087POPC   C4A40770  16.766  40.129   7.768
 3087POPC   C1B40771  16.278  40.066   8.705
 3087POPC   C2B40772  16.374  40.173   8.261
 3087POPC   C3B40773  16.291  39.959   7.861
 3087POPC   C4B40774  16.316  40.075   7.433
 3088POPC   NC340775  27.927  36.141   9.449
 3088POPC   PO440776  28.557  36.413   9.215
 3088POPC   GL140777  28.258  36.195   9.018
 3088POPC   GL240778  28.322  35.898   9.209
 3088POPC   C1A40779  28.281  36.203   8.571
 3088POPC   D2A40780  28.541  36.296   8.208
 3088POPC   C3A40781  28.346  36.292   7.790
 3088POPC   C4A40782  28.305  36.138   7.356
 3088POPC   C1B40783  28.487  35.777   8.799
 3088POPC   C2B40784  28.307  35.716   8.408
 3088POPC   C3B40785  28.456  35.790   8.012
 3088POPC   C4B40786  28.140  35.810   7.711
 3089POPC   NC340787   9.577  11.964   9.484
 3089POPC   PO440788  10.223  12.142   9.358
 3089POPC   GL140789   9.866  12.063   9.065
 3089POPC   GL240790   9.525  12.202   9.040
 3089POPC   C1A40791   9.767  11.966   8.647
 3089POPC   D2A40792   9.734  12.173   8.263
 3089POPC   C3A40793   9.982  12.028   7.939
 3089POPC   C4A40794  10.009  12.267   7.554
 3089POPC   C1B40795   9.303  12.190   8.595
 3089POPC   C2B40796   9.316  11.889   8.204
 3089POPC   C3B40797   9.596  11.693   7.849
 3089POPC   C4B40798   9.633  11.802   7.395
 3090POPC   NC340799  31.078  37.285   9.497
 3090POPC   PO440800  30.463  36.947   9.508
 3090POPC   GL140801  30.758  37.002   9.188
 3090POPC   GL240802  30.940  36.745   8.984
 3090POPC   C1A40803  30.541  37.022   8.815
 3090POPC   D2A40804  30.657  36.765   8.463
 3090POPC   C3A40805  30.458  36.873   8.071
 3090POPC   C4A40806  30.598  36.976   7.657
 3090POPC   C1B40807  31.027  37.137   8.764
 3090POPC   C2B40808  30.947  37.187   8.347
 3090POPC   C3B40809  30.992  36.979   7.976
 3090POPC   C4B40810  31.030  37.274   7.661
 3091POPC   NC340811   5.828  41.376   9.553
 3091POPC   PO440812   6.102  41.997   9.253
 3091POPC   GL140813   5.873  41.602   9.092
 3091POPC   GL240814   5.535  41.661   9.036
 3091POPC   C1A40815   5.769  41.339   8.717
 3091POPC   D2A40816   5.826  41.432   8.277
 3091POPC   C3A40817   6.030  41.766   8.082
 3091POPC   C4A40818   6.103  41.643   7.667
 3091POPC   C1B40819   5.496  41.831   8.627
 3091POPC   C2B40820   5.477  41.776   8.175
 3091POPC   C3B40821   5.612  41.788   7.753
 3091POPC   C4B40822   5.689  41.492   7.415
 3092POPC   NC340823  16.552  38.831   9.631
 3092POPC   PO440824  16.935  39.445   9.547
 3092POPC   GL140825  16.829  39.291   9.154
 3092POPC   GL240826  16.508  39.321   9.115
 3092POPC   C1A40827  16.888  39.096   8.733
 3092POPC   D2A40828  16.811  39.020   8.273
 3092POPC   C3A40829  16.887  39.354   7.964
 3092POPC   C4A40830  16.658  39.558   7.635
 3092POPC   C1B40831  16.256  39.474   8.776
 3092POPC   C2B40832  16.345  39.654   8.382
 3092POPC   C3B40833  16.306  39.460   7.995
 3092POPC   C4B40834  16.184  39.546   7.546
 3093POPC   NC340835  32.009   9.991   9.662
 3093POPC   PO440836  32.314   9.381   9.516
 3093POPC   GL140837  32.365   9.628   9.161
 3093POPC   GL240838  32.072   9.725   9.198
 3093POPC   C1A40839  32.390   9.615   8.716
 3093POPC   D2A40840  32.606   9.718   8.321
 3093POPC   C3A40841  32.389   9.633   7.967
 3093POPC   C4A40842  32.507   9.420   7.599
 3093POPC   C1B40843  31.919   9.775   8.780
 3093POPC   C2B40844  32.027   9.777   8.337
 3093POPC   C3B40845  31.931   9.968   7.938
 3093POPC   C4B40846  32.043   9.861   7.530
 3094POPC   NC340847   5.849   6.517   9.631
 3094POPC   PO440848   5.984   5.829   9.619
 3094POPC   GL140849   6.006   5.765   9.182
 3094POPC   GL240850   5.903   6.144   9.193
 3094POPC   C1A40851   5.980   5.627   8.722
 3094POPC   D2A40852   6.038   5.889   8.333
 3094POPC   C3A40853   5.901   5.701   7.925
 3094POPC   C4A40854   5.727   5.876   7.559
 3094POPC   C1B40855   6.150   6.104   8.824
 3094POPC   C2B40856   6.471   6.124   8.546
 3094POPC   C3B40857   6.445   6.202   8.117
 3094POPC   C4B40858   6.215   6.050   7.747
 3095POPC   NC340859  43.683  35.619   9.370
 3095POPC   PO440860  44.102  35.126   9.577
 3095POPC   GL140861  43.937  35.208   9.185
 3095POPC   GL240862  44.278  35.169   9.085
 3095POPC   C1A40863  43.920  35.342   8.761
 3095POPC   D2A40864  43.969  35.121   8.392
 3095POPC   C3A40865  43.906  35.381   8.036
 3095POPC   C4A40866  43.985  35.203   7.633
 3095POPC   C1B40867  44.395  35.514   8.846
 3095POPC   C2B40868  44.274  35.597   8.421
 3095POPC   C3B40869  44.392  35.498   8.021
 3095POPC   C4B40870  44.212  35.677   7.652
 3096POPC   NC340871  24.813   4.322   9.383
 3096POPC   PO440872  25.458   4.480   9.534
 3096POPC   GL140873  25.493   4.260   9.164
 3096POPC   GL240874  25.617   4.558   8.962
 3096POPC   C1A40875  25.653   4.078   8.788
 3096POPC   D2A40876  25.641   4.358   8.407
 3096POPC   C3A40877  25.569   4.117   8.036
 3096POPC   C4A40878  25.357   4.119   7.616
 3096POPC   C1B40879  25.219   4.369   8.744
 3096POPC   C2B40880  24.915   4.295   8.406
 3096POPC   C3B40881  24.962   4.454   8.022
 3096POPC   C4B40882  25.361   4.556   7.865
 3097POPC   NC340883  24.379   2.728   9.793
 3097POPC   PO440884  24.905   2.624   9.390
 3097POPC   GL140885  24.794   2.730   9.013
 3097POPC   GL240886  24.467   2.753   9.093
 3097POPC   C1A40887  24.659   2.855   8.604
 3097POPC   D2A40888  24.802   3.022   8.229
 3097POPC   C3A40889  24.737   2.767   7.864
 3097POPC   C4A40890  24.461   2.379   7.844
 3097POPC   C1B40891  24.168   2.753   8.771
 3097POPC   C2B40892  24.161   2.962   8.431
 3097POPC   C3B40893  24.336   2.756   8.163
 3097POPC   C4B40894  24.243   2.859   7.763
 3098POPC   NC340895   9.709  38.837   9.432
 3098POPC   PO440896   9.346  38.258   9.583
 3098POPC   GL140897   9.522  38.440   9.184
 3098POPC   GL240898   9.885  38.369   9.228
 3098POPC   C1A40899   9.689  38.702   8.782
 3098POPC   D2A40900   9.541  38.894   8.361
 3098POPC   C3A40901   9.721  38.670   7.994
 3098POPC   C4A40902  10.152  38.528   7.892
 3098POPC   C1B40903   9.766  38.203   8.821
 3098POPC   C2B40904   9.706  38.340   8.397
 3098POPC   C3B40905   9.843  38.154   8.017
 3098POPC   C4B40906   9.759  37.930   7.634
 3099POPC   NC340907  13.258   4.080   9.615
 3099POPC   PO440908  13.668   4.603   9.459
 3099POPC   GL140909  13.586   4.432   9.094
 3099POPC   GL240910  13.571   4.130   9.131
 3099POPC   C1A40911  13.776   4.319   8.699
 3099POPC   D2A40912  13.602   4.482   8.346
 3099POPC   C3A40913  13.805   4.371   7.953
 3099POPC   C4A40914  13.755   4.619   7.565
 3099POPC   C1B40915  13.262   4.315   8.735
 3099POPC   C2B40916  13.084   4.466   8.342
 3099POPC   C3B40917  13.306   4.454   7.924
 3099POPC   C4B40918  13.462   4.186   7.589
 3100POPC   NC340919  21.864  35.070   9.921
 3100POPC   PO440920  21.989  35.596   9.469
 3100POPC   GL140921  22.207  35.423   9.114
 3100POPC   GL240922  22.472  35.170   9.195
 3100POPC   C1A40923  22.071  35.462   8.703
 3100POPC   D2A40924  22.079  35.621   8.305
 3100POPC   C3A40925  21.827  35.447   7.994
 3100POPC   C4A40926  21.808  35.545   7.556
 3100POPC   C1B40927  22.387  35.047   8.770
 3100POPC   C2B40928  22.283  35.141   8.339
 3100POPC   C3B40929  22.193  35.081   7.923
 3100POPC   C4B40930  22.107  35.137   7.497
 3101POPC   NC340931  29.715  41.980   9.596
 3101POPC   PO440932  30.122  42.450   9.558
 3101POPC   GL140933  29.896  42.280   9.194
 3101POPC   GL240934  29.637  42.033   9.095
 3101POPC   C1A40935  30.034  42.258   8.793
 3101POPC   D2A40936  30.141  42.447   8.418
 3101POPC   C3A40937  30.116  42.279   8.026
 3101POPC   C4A40938  29.773  42.452   7.765
 3101POPC   C1B40939  29.751  41.860   8.714
 3101POPC   C2B40940  29.662  42.041   8.294
 3101POPC   C3B40941  29.775  41.942   7.856
 3101POPC   C4B40942  29.865  41.835   7.400
 3102POPC   NC340943  18.960  40.332   9.388
 3102POPC   PO440944  19.363  39.796   9.362
 3102POPC   GL140945  19.109  40.015   8.998
 3102POPC   GL240946  18.887  40.327   8.905
 3102POPC   C1A40947  19.215  40.172   8.571
 3102POPC   D2A40948  18.964  39.918   8.321
 3102POPC   C3A40949  19.097  39.906   7.916
 3102POPC   C4A40950  19.467  40.114   7.774
 3102POPC   C1B40951  18.504  40.492   8.764
 3102POPC   C2B40952  18.418  40.442   8.359
 3102POPC   C3B40953  18.757  40.331   8.098
 3102POPC   C4B40954  19.011  40.378   7.728
 3103POPC   NC340955   5.394  23.235   9.498
 3103POPC   PO440956   5.244  22.594   9.687
 3103POPC   GL140957   5.217  22.718   9.237
 3103POPC   GL240958   5.058  23.037   9.149
 3103POPC   C1A40959   5.182  22.719   8.775
 3103POPC   D2A40960   5.209  23.024   8.429
 3103POPC   C3A40961   5.360  22.882   8.027
 3103POPC   C4A40962   5.408  23.155   7.707
 3103POPC   C1B40963   4.869  23.195   8.782
 3103POPC   C2B40964   4.787  23.461   8.410
 3103POPC   C3B40965   4.738  23.384   7.964
 3103POPC   C4B40966   4.781  22.965   7.770
 3104POPC   NC340967  44.172  32.498   9.503
 3104POPC   PO440968  43.670  31.926   9.523
 3104POPC   GL140969  43.907  32.106   9.212
 3104POPC   GL240970  43.784  32.447   9.175
 3104POPC   C1A40971  43.824  32.122   8.774
 3104POPC   D2A40972  44.041  32.288   8.395
 3104POPC   C3A40973  43.978  32.025   8.056
 3104POPC   C4A40974  43.558  31.849   7.947
 3104POPC   C1B40975  44.101  32.561   8.835
 3104POPC   C2B40976  44.238  32.758   8.449
 3104POPC   C3B40977  43.986  32.716   8.080
 3104POPC   C4B40978  43.988  32.443   7.727
 3105POPC   NC340979  38.500   7.186   9.549
 3105POPC   PO440980  38.118   7.711   9.575
 3105POPC   GL140981  38.367   7.581   9.226
 3105POPC   GL240982  38.307   7.253   9.074
 3105POPC   C1A40983  38.389   7.684   8.793
 3105POPC   D2A40984  38.245   7.398   8.477
 3105POPC   C3A40985  38.246   7.561   8.053
 3105POPC   C4A40986  38.337   7.375   7.661
 3105POPC   C1B40987  38.659   7.253   8.795
 3105POPC   C2B40988  38.730   7.499   8.403
 3105POPC   C3B40989  38.650   7.239   8.052
 3105POPC   C4B40990  38.884   7.031   7.764
 3106POPC   NC340991  28.198  27.153   9.438
 3106POPC   PO440992  28.430  26.438   9.504
 3106POPC   GL140993  28.328  26.590   9.088
 3106POPC   GL240994  28.407  26.971   9.033
 3106POPC   C1A40995  28.585  26.623   8.721
 3106POPC   D2A40996  28.636  26.683   8.313
 3106POPC   C3A40997  28.284  26.531   8.066
 3106POPC   C4A40998  28.259  26.378   7.648
 3106POPC   C1B40999  28.237  27.135   8.673
 3106POPC   C2B41000  28.296  27.044   8.240
 3106POPC   C3B41001  28.321  27.207   7.844
 3106POPC   C4B41002  28.105  26.857   7.705
 3107POPC   NC341003  31.988  27.096   9.544
 3107POPC   PO441004  32.590  26.848   9.821
 3107POPC   GL141005  32.424  26.875   9.362
 3107POPC   GL241006  32.381  27.236   9.230
 3107POPC   C1A41007  32.137  26.790   8.979
 3107POPC   D2A41008  32.156  26.978   8.559
 3107POPC   C3A41009  32.048  26.783   8.144
 3107POPC   C4A41010  31.805  26.877   7.789
 3107POPC   C1B41011  32.577  27.024   8.864
 3107POPC   C2B41012  32.633  27.032   8.415
 3107POPC   C3B41013  32.439  27.105   8.025
 3107POPC   C4B41014  32.361  26.858   7.683
 3108POPC   NC341015   1.076  36.497   9.518
 3108POPC   PO441016   0.712  35.961   9.449
 3108POPC   GL141017   1.032  36.005   9.149
 3108POPC   GL241018   1.233  36.310   9.066
 3108POPC   C1A41019   1.064  35.888   8.711
 3108POPC   D2A41020   1.256  36.265   8.537
 3108POPC   C3A41021   1.087  36.404   8.164
 3108POPC   C4A41022   1.281  36.446   7.769
 3108POPC   C1B41023   1.501  35.990   8.915
 3108POPC   C2B41024   1.649  35.910   8.525
 3108POPC   C3B41025   1.501  36.097   8.130
 3108POPC   C4B41026   1.337  35.950   7.765
 3109POPC   NC341027  36.408  14.783   9.560
 3109POPC   PO441028  35.906  15.336   9.541
 3109POPC   GL141029  36.042  15.292   9.127
 3109POPC   GL241030  36.180  15.035   9.197
 3109POPC   C1A41031  36.233  15.335   8.703
 3109POPC   D2A41032  36.051  15.236   8.308
 3109POPC   C3A41033  36.085  15.429   7.908
 3109POPC   C4A41034  35.974  15.242   7.500
 3109POPC   C1B41035  36.309  14.854   8.867
 3109POPC   C2B41036  36.319  14.824   8.447
 3109POPC   C3B41037  36.421  14.973   8.033
 3109POPC   C4B41038  36.293  14.829   7.640
 3110POPC   NC341039  23.175  25.765   9.538
 3110POPC   PO441040  23.028  26.460   9.421
 3110POPC   GL141041  23.085  26.114   9.131
 3110POPC   GL241042  22.894  25.801   9.113
 3110POPC   C1A41043  23.001  26.155   8.680
 3110POPC   D2A41044  23.235  26.225   8.333
 3110POPC   C3A41045  23.045  26.302   7.987
 3110POPC   C4A41046  22.822  26.075   7.744
 3110POPC   C1B41047  22.743  25.707   8.704
 3110POPC   C2B41048  22.795  25.861   8.279
 3110POPC   C3B41049  22.752  25.621   7.922
 3110POPC   C4B41050  22.610  25.662   7.489
 3111POPC   NC341051  20.840  29.786   9.592
 3111POPC   PO441052  20.584  30.427   9.455
 3111POPC   GL141053  20.612  30.053   9.223
 3111POPC   GL241054  20.335  29.793   9.228
 3111POPC   C1A41055  20.707  29.839   8.871
 3111POPC   D2A41056  20.677  29.611   8.501
 3111POPC   C3A41057  20.781  29.845   8.143
 3111POPC   C4A41058  20.732  29.788   7.724
 3111POPC   C1B41059  20.235  29.661   8.782
 3111POPC   C2B41060  20.227  29.825   8.335
 3111POPC   C3B41061  20.296  29.671   7.929
 3111POPC   C4B41062  20.129  29.609   7.499
 3112POPC   NC341063   9.059  42.232   9.545
 3112POPC   PO441064   8.747  42.835   9.574
 3112POPC   GL141065   8.899  42.593   9.201
 3112POPC   GL241066   8.871  42.203   9.086
 3112POPC   C1A41067   9.123  42.563   8.828
 3112POPC   D2A41068   8.939  42.643   8.460
 3112POPC   C3A41069   9.051  42.518   8.096
 3112POPC   C4A41070   9.063  42.735   7.757
 3112POPC   C1B41071   9.128  42.036   8.775
 3112POPC   C2B41072   8.964  42.066   8.363
 3112POPC   C3B41073   8.838  42.073   7.960
 3112POPC   C4B41074   9.142  42.234   7.659
 3113POPC   NC341075  43.558  13.486   9.560
 3113POPC   PO441076  43.099  13.992   9.611
 3113POPC   GL141077  43.022  13.747   9.257
 3113POPC   GL241078  43.373  13.771   9.164
 3113POPC   C1A41079  43.024  13.656   8.814
 3113POPC   D2A41080  43.221  13.910   8.507
 3113POPC   C3A41081  43.256  13.637   8.161
 3113POPC   C4A41082  43.232  13.684   7.745
 3113POPC   C1B41083  43.529  13.445   8.865
 3113POPC   C2B41084  43.523  13.252   8.456
 3113POPC   C3B41085  43.690  13.302   8.062
 3113POPC   C4B41086  43.500  13.211   7.696
 3114POPC   NC341087  35.946   5.836   9.438
 3114POPC   PO441088  36.652   5.859   9.441
 3114POPC   GL141089  36.381   5.929   9.129
 3114POPC   GL241090  36.357   5.585   9.077
 3114POPC   C1A41091  36.237   6.064   8.739
 3114POPC   D2A41092  35.839   6.078   8.524
 3114POPC   C3A41093  35.896   6.020   8.079
 3114POPC   C4A41094  36.298   6.115   7.877
 3114POPC   C1B41095  35.990   5.629   8.795
 3114POPC   C2B41096  36.184   5.703   8.385
 3114POPC   C3B41097  36.216   5.585   7.978
 3114POPC   C4B41098  35.834   5.546   7.765
 3115POPC   NC341099  26.118  34.825   9.455
 3115POPC   PO441100  25.838  34.194   9.440
 3115POPC   GL141101  25.976  34.328   9.049
 3115POPC   GL241102  26.315  34.368   9.129
 3115POPC   C1A41103  25.869  34.355   8.583
 3115POPC   D2A41104  25.774  34.485   8.158
 3115POPC   C3A41105  26.054  34.324   7.809
 3115POPC   C4A41106  26.053  34.286   7.372
 3115POPC   C1B41107  26.330  34.616   8.768
 3115POPC   C2B41108  26.110  34.779   8.437
 3115POPC   C3B41109  26.206  34.736   8.051
 3115POPC   C4B41110  26.314  34.730   7.654
 3116POPC   NC341111  17.313  38.381  10.098
 3116POPC   PO441112  17.116  38.467   9.444
 3116POPC   GL141113  17.394  38.337   9.111
 3116POPC   GL241114  17.622  38.617   9.090
 3116POPC   C1A41115  17.473  38.399   8.657
 3116POPC   D2A41116  17.258  38.300   8.266
 3116POPC   C3A41117  17.264  38.503   7.897
 3116POPC   C4A41118  17.394  38.194   7.610
 3116POPC   C1B41119  17.919  38.792   8.828
 3116POPC   C2B41120  17.960  38.921   8.423
 3116POPC   C3B41121  17.729  38.766   8.085
 3116POPC   C4B41122  17.603  38.777   7.658
 3117POPC   NC341123  37.685  32.285   9.607
 3117POPC   PO441124  38.080  31.858   9.211
 3117POPC   GL141125  37.687  32.073   9.130
 3117POPC   GL241126  37.697  32.445   9.136
 3117POPC   C1A41127  37.570  32.131   8.697
 3117POPC   D2A41128  37.832  32.088   8.339
 3117POPC   C3A41129  37.712  31.973   7.912
 3117POPC   C4A41130  37.793  31.940   7.466
 3117POPC   C1B41131  37.623  32.648   8.762
 3117POPC   C2B41132  37.505  32.526   8.355
 3117POPC   C3B41133  37.649  32.472   7.930
 3117POPC   C4B41134  37.390  32.304   7.603
 3118POPC   NC341135  27.164   0.823   9.608
 3118POPC   PO441136  27.575   0.232   9.594
 3118POPC   GL141137  27.544   0.255   9.154
 3118POPC   GL241138  27.617   0.615   9.156
 3118POPC   C1A41139  27.685   0.373   8.718
 3118POPC   D2A41140  27.720   0.207   8.315
 3118POPC   C3A41141  27.333   0.192   8.137
 3118POPC   C4A41142  27.218   0.259   7.736
 3118POPC   C1B41143  27.845   0.851   8.788
 3118POPC   C2B41144  27.799   0.769   8.327
 3118POPC   C3B41145  27.504   0.670   7.967
 3118POPC   C4B41146  27.553   0.598   7.511
 3119POPC   NC341147  15.271  15.611   9.532
 3119POPC   PO441148  14.821  16.157   9.429
 3119POPC   GL141149  15.058  15.831   9.136
 3119POPC   GL241150  15.372  15.793   9.048
 3119POPC   C1A41151  14.994  15.733   8.741
 3119POPC   D2A41152  15.049  15.971   8.396
 3119POPC   C3A41153  15.080  15.736   8.008
 3119POPC   C4A41154  14.905  15.818   7.621
 3119POPC   C1B41155  15.481  16.018   8.727
 3119POPC   C2B41156  15.540  15.845   8.344
 3119POPC   C3B41157  15.390  16.131   8.033
 3119POPC   C4B41158  15.432  16.119   7.619
 3120POPC   NC341159  19.297  24.378   9.600
 3120POPC   PO441160  18.587  24.456   9.520
 3120POPC   GL141161  18.731  24.479   9.113
 3120POPC   GL241162  19.103  24.524   9.152
 3120POPC   C1A41163  18.688  24.398   8.665
 3120POPC   D2A41164  19.004  24.429   8.378
 3120POPC   C3A41165  18.924  24.633   8.000
 3120POPC   C4A41166  18.768  24.366   7.695
 3120POPC   C1B41167  19.051  24.751   8.785
 3120POPC   C2B41168  19.204  24.883   8.395
 3120POPC   C3B41169  19.426  24.609   8.115
 3120POPC   C4B41170  19.331  24.701   7.711
 3121POPC   NC341171  27.798  37.158   9.458
 3121POPC   PO441172  27.608  36.503   9.517
 3121POPC   GL141173  27.532  36.783   9.217
 3121POPC   GL241174  27.239  36.970   9.231
 3121POPC   C1A41175  27.554  36.757   8.812
 3121POPC   D2A41176  27.780  37.022   8.551
 3121POPC   C3A41177  27.649  36.976   8.149
 3121POPC   C4A41178  27.659  37.046   7.727
 3121POPC   C1B41179  27.290  37.185   8.789
 3121POPC   C2B41180  27.299  37.328   8.356
 3121POPC   C3B41181  27.201  37.118   7.967
 3121POPC   C4B41182  26.860  37.127   7.747
 3122POPC   NC341183  18.247  39.760   9.504
 3122POPC   PO441184  18.505  40.423   9.505
 3122POPC   GL141185  18.456  40.128   9.155
 3122POPC   GL241186  18.099  40.059   9.126
 3122POPC   C1A41187  18.590  39.921   8.749
 3122POPC   D2A41188  18.555  39.621   8.377
 3122POPC   C3A41189  18.550  39.878   7.993
 3122POPC   C4A41190  18.497  40.174   7.649
 3122POPC   C1B41191  18.080  40.186   8.744
 3122POPC   C2B41192  18.201  39.987   8.388
 3122POPC   C3B41193  18.113  40.161   8.023
 3122POPC   C4B41194  18.025  40.004   7.636
 3123POPC   NC341195  30.573  28.975   9.575
 3123POPC   PO441196  31.113  29.345   9.374
 3123POPC   GL141197  30.842  29.179   9.124
 3123POPC   GL241198  30.533  29.323   9.177
 3123POPC   C1A41199  30.975  29.254   8.722
 3123POPC   D2A41200  31.159  29.155   8.370
 3123POPC   C3A41201  30.801  29.070   8.125
 3123POPC   C4A41202  30.805  29.221   7.751
 3123POPC   C1B41203  30.400  29.259   8.746
 3123POPC   C2B41204  30.215  29.253   8.318
 3123POPC   C3B41205  30.343  29.353   7.880
 3123POPC   C4B41206  30.463  29.316   7.410
 3124POPC   NC341207  40.437  16.839   5.498
 3124POPC   PO441208  39.732  16.659   5.428
 3124POPC   GL141209  39.812  16.532   5.811
 3124POPC   GL241210  40.178  16.577   5.848
 3124POPC   C1A41211  39.789  16.740   6.191
 3124POPC   D2A41212  39.545  16.774   6.531
 3124POPC   C3A41213  39.775  16.694   6.867
 3124POPC   C4A41214  39.800  16.630   7.273
 3124POPC   C1B41215  40.319  16.818   6.200
 3124POPC   C2B41216  40.137  16.929   6.586
 3124POPC   C3B41217  40.250  16.798   7.004
 3124POPC   C4B41218  40.204  16.951   7.386
 3125POPC   NC341219  34.592  22.725   5.426
 3125POPC   PO441220  34.875  23.230   5.422
 3125POPC   GL141221  34.622  23.086   5.790
 3125POPC   GL241222  34.254  23.095   5.785
 3125POPC   C1A41223  34.561  22.954   6.230
 3125POPC   D2A41224  34.347  23.014   6.635
 3125POPC   C3A41225  34.520  22.921   7.075
 3125POPC   C4A41226  34.256  22.888   7.467
 3125POPC   C1B41227  34.363  23.408   6.128
 3125POPC   C2B41228  34.375  23.528   6.586
 3125POPC   C3B41229  34.344  23.395   7.030
 3125POPC   C4B41230  34.511  23.460   7.477
 3126POPC   NC341231  11.315  16.825   5.314
 3126POPC   PO441232  11.036  16.327   5.519
 3126POPC   GL141233  11.115  16.662   5.778
 3126POPC   GL241234  11.421  16.460   5.873
 3126POPC   C1A41235  11.225  16.835   6.184
 3126POPC   D2A41236  11.431  16.616   6.526
 3126POPC   C3A41237  11.269  16.799   6.903
 3126POPC   C4A41238  11.135  16.847   7.304
 3126POPC   C1B41239  11.659  16.220   6.206
 3126POPC   C2B41240  11.857  16.291   6.619
 3126POPC   C3B41241  11.692  16.521   6.992
 3126POPC   C4B41242  11.409  16.437   7.330
 3127POPC   NC341243  15.007  33.211   5.504
 3127POPC   PO441244  15.364  33.820   5.396
 3127POPC   GL141245  15.073  33.801   5.786
 3127POPC   GL241246  15.342  33.729   5.930
 3127POPC   C1A41247  15.005  33.701   6.283
 3127POPC   D2A41248  15.248  33.690   6.694
 3127POPC   C3A41249  14.987  33.734   7.080
 3127POPC   C4A41250  14.926  33.437   7.419
 3127POPC   C1B41251  15.532  33.895   6.275
 3127POPC   C2B41252  15.482  34.150   6.615
 3127POPC   C3B41253  15.312  34.133   6.999
 3127POPC   C4B41254  15.259  34.171   7.432
 3128POPC   NC341255  29.080  23.481   5.075
 3128POPC   PO441256  29.037  23.989   5.498
 3128POPC   GL141257  29.171  23.860   5.928
 3128POPC   GL241258  29.398  23.631   5.890
 3128POPC   C1A41259  29.088  23.622   6.304
 3128POPC   D2A41260  29.093  23.846   6.669
 3128POPC   C3A41261  28.900  23.653   7.002
 3128POPC   C4A41262  29.049  23.778   7.426
 3128POPC   C1B41263  29.580  23.782   6.240
 3128POPC   C2B41264  29.574  23.644   6.647
 3128POPC   C3B41265  29.428  23.666   7.062
 3128POPC   C4B41266  29.560  23.761   7.468
 3129POPC   NC341267   9.381   0.545   5.397
 3129POPC   PO441268   9.901   0.085   5.595
 3129POPC   GL141269   9.754   0.447   5.847
 3129POPC   GL241270   9.475   0.677   5.882
 3129POPC   C1A41271   9.831   0.630   6.243
 3129POPC   D2A41272  10.055   0.516   6.564
 3129POPC   C3A41273   9.787   0.588   6.891
 3129POPC   C4A41274   9.864   0.534   7.323
 3129POPC   C1B41275   9.380   0.383   6.229
 3129POPC   C2B41276   9.612   0.170   6.577
 3129POPC   C3B41277   9.720   0.107   7.022
 3129POPC   C4B41278   9.454   0.251   7.339
 3130POPC   NC341279  40.213  10.449   5.565
 3130POPC   PO441280  39.583  10.540   5.545
 3130POPC   GL141281  39.876  10.658   5.899
 3130POPC   GL241282  40.218  10.840   5.907
 3130POPC   C1A41283  39.882  10.783   6.333
 3130POPC   D2A41284  39.806  10.922   6.752
 3130POPC   C3A41285  39.871  10.640   7.102
 3130POPC   C4A41286  39.882  10.193   7.014
 3130POPC   C1B41287  40.351  10.532   6.236
 3130POPC   C2B41288  40.214  10.409   6.669
 3130POPC   C3B41289  40.352  10.466   7.100
 3130POPC   C4B41290  40.388  10.833   7.321
 3131POPC   NC341291  42.163  39.755   5.370
 3131POPC   PO441292  42.584  40.210   5.520
 3131POPC   GL141293  42.387  39.923   5.826
 3131POPC   GL241294  42.476  39.580   5.774
 3131POPC   C1A41295  42.273  39.887   6.260
 3131POPC   D2A41296  42.311  40.153   6.616
 3131POPC   C3A41297  42.269  39.950   6.991
 3131POPC   C4A41298  42.212  40.131   7.389
 3131POPC   C1B41299  42.700  39.593   6.183
 3131POPC   C2B41300  42.670  39.758   6.600
 3131POPC   C3B41301  42.716  39.642   7.014
 3131POPC   C4B41302  42.538  39.763   7.397
 3132POPC   NC341303  37.486  39.349   5.285
 3132POPC   PO441304  37.851  38.891   5.611
 3132POPC   GL141305  37.729  39.347   5.749
 3132POPC   GL241306  37.366  39.442   5.787
 3132POPC   C1A41307  37.748  39.544   6.160
 3132POPC   D2A41308  37.765  39.223   6.496
 3132POPC   C3A41309  38.031  39.159   6.863
 3132POPC   C4A41310  38.010  39.387   7.266
 3132POPC   C1B41311  37.253  39.720   6.135
 3132POPC   C2B41312  37.403  39.626   6.552
 3132POPC   C3B41313  37.651  39.526   6.912
 3132POPC   C4B41314  37.494  39.564   7.323
 3133POPC   NC341315  28.534  39.378   5.476
 3133POPC   PO441316  28.478  38.770   5.271
 3133POPC   GL141317  28.447  38.969   5.792
 3133POPC   GL241318  28.245  39.289   5.885
 3133POPC   C1A41319  28.570  39.135   6.260
 3133POPC   D2A41320  28.711  39.143   6.735
 3133POPC   C3A41321  28.410  39.158   7.123
 3133POPC   C4A41322  28.141  39.129   7.540
 3133POPC   C1B41323  28.072  39.296   6.278
 3133POPC   C2B41324  28.173  39.080   6.638
 3133POPC   C3B41325  27.933  39.238   6.983
 3133POPC   C4B41326  27.974  39.534   7.295
 3134POPC   NC341327  35.752  21.943   5.124
 3134POPC   PO441328  35.329  22.290   5.409
 3134POPC   GL141329  35.225  22.172   5.849
 3134POPC   GL241330  34.857  22.202   5.824
 3134POPC   C1A41331  35.299  22.156   6.296
 3134POPC   D2A41332  35.407  21.881   6.667
 3134POPC   C3A41333  35.370  22.067   7.112
 3134POPC   C4A41334  35.448  22.389   7.426
 3134POPC   C1B41335  34.791  21.962   6.207
 3134POPC   C2B41336  34.925  22.071   6.629
 3134POPC   C3B41337  34.978  22.355   6.944
 3134POPC   C4B41338  34.958  22.657   7.260
 3135POPC   NC341339  14.159   0.405   5.272
 3135POPC   PO441340  14.450   0.974   5.342
 3135POPC   GL141341  14.388   0.659   5.688
 3135POPC   GL241342  14.052   0.583   5.786
 3135POPC   C1A41343  14.408   0.388   6.089
 3135POPC   D2A41344  14.253   0.296   6.506
 3135POPC   C3A41345  14.429   0.380   6.926
 3135POPC   C4A41346  14.615   0.155   7.279
 3135POPC   C1B41347  13.993   0.696   6.252
 3135POPC   C2B41348  13.900   0.615   6.709
 3135POPC   C3B41349  13.954   0.487   7.166
 3135POPC   C4B41350  13.844   0.542   7.635
 3136POPC   NC341351  25.714  36.259   5.355
 3136POPC   PO441352  26.292  36.419   5.514
 3136POPC   GL141353  25.976  36.347   5.815
 3136POPC   GL241354  25.868  35.990   5.767
 3136POPC   C1A41355  26.021  36.177   6.217
 3136POPC   D2A41356  26.178  35.867   6.509
 3136POPC   C3A41357  26.413  36.071   6.862
 3136POPC   C4A41358  26.134  36.299   7.140
 3136POPC   C1B41359  25.714  35.779   6.139
 3136POPC   C2B41360  25.641  35.927   6.573
 3136POPC   C3B41361  25.881  35.895   6.934
 3136POPC   C4B41362  26.177  35.776   7.210
 3137POPC   NC341363  28.813  10.061   5.468
 3137POPC   PO441364  28.286   9.621   5.408
 3137POPC   GL141365  28.146   9.726   5.821
 3137POPC   GL241366  28.514   9.805   5.857
 3137POPC   C1A41367  28.215   9.818   6.267
 3137POPC   D2A41368  28.396  10.037   6.604
 3137POPC   C3A41369  28.319   9.797   6.985
 3137POPC   C4A41370  28.045   9.525   7.174
 3137POPC   C1B41371  28.738   9.743   6.261
 3137POPC   C2B41372  28.773   9.706   6.709
 3137POPC   C3B41373  28.767  10.035   7.022
 3137POPC   C4B41374  28.655  10.007   7.468
 3138POPC   NC341375   0.773  18.800   5.450
 3138POPC   PO441376   1.240  19.266   5.369
 3138POPC   GL141377   1.284  19.103   5.787
 3138POPC   GL241378   0.920  19.134   5.858
 3138POPC   C1A41379   1.558  19.170   6.161
 3138POPC   D2A41380   1.436  19.302   6.575
 3138POPC   C3A41381   1.516  19.115   6.985
 3138POPC   C4A41382   1.349  19.228   7.378
 3138POPC   C1B41383   1.098  18.973   6.273
 3138POPC   C2B41384   1.111  18.896   6.730
 3138POPC   C3B41385   0.904  19.004   7.133
 3138POPC   C4B41386   0.956  18.967   7.571
 3139POPC   NC341387  23.659  17.032   5.510
 3139POPC   PO441388  24.012  16.556   5.235
 3139POPC   GL141389  23.915  16.610   5.712
 3139POPC   GL241390  23.969  16.941   5.897
 3139POPC   C1A41391  23.636  16.621   6.097
 3139POPC   D2A41392  23.647  16.719   6.574
 3139POPC   C3A41393  23.509  16.495   6.975
 3139POPC   C4A41394  23.604  16.543   7.442
 3139POPC   C1B41395  24.134  16.692   6.241
 3139POPC   C2B41396  24.130  16.615   6.680
 3139POPC   C3B41397  23.954  16.788   7.042
 3139POPC   C4B41398  24.226  16.623   7.315
 3140POPC   NC341399  16.196  15.945   5.488
 3140POPC   PO441400  15.552  15.991   5.424
 3140POPC   GL141401  15.825  16.168   5.777
 3140POPC   GL241402  15.988  15.845   5.931
 3140POPC   C1A41403  16.033  16.278   6.184
 3140POPC   D2A41404  16.045  15.975   6.504
 3140POPC   C3A41405  15.935  15.972   6.922
 3140POPC   C4A41406  15.584  16.082   7.131
 3140POPC   C1B41407  16.215  15.572   6.225
 3140POPC   C2B41408  16.227  15.526   6.672
 3140POPC   C3B41409  16.380  15.683   7.036
 3140POPC   C4B41410  16.379  15.600   7.468
 3141POPC   NC341411  33.917  39.998   5.305
 3141POPC   PO441412  33.278  39.803   5.188
 3141POPC   GL141413  33.441  39.867   5.684
 3141POPC   GL241414  33.741  40.122   5.763
 3141POPC   C1A41415  33.566  39.756   6.163
 3141POPC   D2A41416  33.534  39.648   6.630
 3141POPC   C3A41417  33.782  39.936   6.922
 3141POPC   C4A41418  34.036  39.915   7.298
 3141POPC   C1B41419  33.639  40.253   6.168
 3141POPC   C2B41420  33.399  40.146   6.537
 3141POPC   C3B41421  33.431  40.319   6.943
 3141POPC   C4B41422  33.533  40.270   7.359
 3142POPC   NC341423   4.754  21.888   5.089
 3142POPC   PO441424   5.218  22.363   5.395
 3142POPC   GL141425   5.276  22.114   5.824
 3142POPC   GL241426   5.444  22.396   5.861
 3142POPC   C1A41427   5.102  22.060   6.273
 3142POPC   D2A41428   4.898  21.933   6.688
 3142POPC   C3A41429   4.744  22.226   7.049
 3142POPC   C4A41430   4.788  22.161   7.529
 3142POPC   C1B41431   5.122  22.556   6.105
 3142POPC   C2B41432   5.030  22.503   6.524
 3142POPC   C3B41433   5.228  22.294   6.853
 3142POPC   C4B41434   5.202  22.351   7.290
 3143POPC   NC341435  16.504  34.174   5.518
 3143POPC   PO441436  16.796  34.750   5.362
 3143POPC   GL141437  16.714  34.564   5.770
 3143POPC   GL241438  16.977  34.309   5.785
 3143POPC   C1A41439  16.557  34.390   6.172
 3143POPC   D2A41440  16.590  34.654   6.533
 3143POPC   C3A41441  16.485  34.622   6.954
 3143POPC   C4A41442  16.623  34.373   7.271
 3143POPC   C1B41443  17.066  34.540   6.180
 3143POPC   C2B41444  17.048  34.880   6.464
 3143POPC   C3B41445  16.929  34.881   6.885
 3143POPC   C4B41446  17.058  34.620   7.240
 3144POPC   NC341447  29.739  12.205   5.498
 3144POPC   PO441448  30.107  11.599   5.322
 3144POPC   GL141449  30.145  11.893   5.742
 3144POPC   GL241450  30.354  12.220   5.807
 3144POPC   C1A41451  29.956  12.126   6.152
 3144POPC   D2A41452  29.937  12.335   6.595
 3144POPC   C3A41453  29.590  12.292   6.939
 3144POPC   C4A41454  29.468  11.884   7.191
 3144POPC   C1B41455  30.460  12.327   6.268
 3144POPC   C2B41456  30.455  12.488   6.742
 3144POPC   C3B41457  30.132  12.404   7.056
 3144POPC   C4B41458  29.979  11.965   7.062
 3145POPC   NC341459  28.105  44.357   5.575
 3145POPC   PO441460  28.702  44.506   5.410
 3145POPC   GL141461  28.477  44.627   5.813
 3145POPC   GL241462  28.292  44.353   6.043
 3145POPC   C1A41463  28.564  44.732   6.240
 3145POPC   D2A41464  28.390  44.665   6.665
 3145POPC   C3A41465  28.676  44.664   7.033
 3145POPC   C4A41466  28.776  44.329   7.316
 3145POPC   C1B41467  28.021  44.687   6.229
 3145POPC   C2B41468  27.945  44.948   6.605
 3145POPC   C3B41469  27.853  44.815   7.043
 3145POPC   C4B41470  27.973  44.842   7.511
 3146POPC   NC341471  38.948   9.294   5.486
 3146POPC   PO441472  39.537   8.859   5.455
 3146POPC   GL141473  39.332   9.068   5.781
 3146POPC   GL241474  39.018   8.862   5.797
 3146POPC   C1A41475  39.448   9.244   6.191
 3146POPC   D2A41476  39.424   9.037   6.594
 3146POPC   C3A41477  39.421   9.217   6.999
 3146POPC   C4A41478  39.536   8.938   7.339
 3146POPC   C1B41479  39.218   8.734   6.182
 3146POPC   C2B41480  39.040   8.708   6.600
 3146POPC   C3B41481  39.158   8.770   7.012
 3146POPC   C4B41482  39.114   8.630   7.431
 3147POPC   NC341483  26.183   3.545   5.424
 3147POPC   PO441484  25.667   3.902   5.388
 3147POPC   GL141485  25.775   3.657   5.756
 3147POPC   GL241486  25.771   3.298   5.717
 3147POPC   C1A41487  25.941   3.763   6.169
 3147POPC   D2A41488  25.788   3.984   6.540
 3147POPC   C3A41489  25.771   3.738   6.918
 3147POPC   C4A41490  26.161   3.637   7.135
 3147POPC   C1B41491  25.696   3.322   6.172
 3147POPC   C2B41492  25.924   3.391   6.553
 3147POPC   C3B41493  26.190   3.212   6.851
 3147POPC   C4B41494  26.060   3.128   7.243
 3148POPC   NC341495  39.624   2.604   5.461
 3148POPC   PO441496  40.220   2.941   5.322
 3148POPC   GL141497  40.200   2.993   5.793
 3148POPC   GL241498  40.168   2.670   5.803
 3148POPC   C1A41499  39.911   2.889   6.201
 3148POPC   D2A41500  39.793   2.483   6.496
 3148POPC   C3A41501  39.736   2.621   6.934
 3148POPC   C4A41502  39.880   2.985   7.153
 3148POPC   C1B41503  40.231   2.495   6.224
 3148POPC   C2B41504  40.473   2.545   6.586
 3148POPC   C3B41505  40.249   2.552   6.982
 3148POPC   C4B41506  40.332   2.824   7.316
 3149POPC   NC341507  31.043  22.216   5.440
 3149POPC   PO441508  30.419  22.430   5.484
 3149POPC   GL141509  30.659  22.086   5.769
 3149POPC   GL241510  31.033  22.097   5.936
 3149POPC   C1A41511  30.633  21.967   6.215
 3149POPC   D2A41512  30.621  21.844   6.649
 3149POPC   C3A41513  30.610  22.215   6.903
 3149POPC   C4A41514  30.433  22.357   7.254
 3149POPC   C1B41515  31.134  21.780   6.290
 3149POPC   C2B41516  31.121  21.726   6.753
 3149POPC   C3B41517  31.031  21.982   7.101
 3149POPC   C4B41518  31.211  21.966   7.540
 3150POPC   NC341519  24.137  41.853   5.146
 3150POPC   PO441520  24.611  41.366   5.272
 3150POPC   GL141521  24.517  41.603   5.678
 3150POPC   GL241522  24.310  41.894   5.771
 3150POPC   C1A41523  24.784  41.629   6.043
 3150POPC   D2A41524  24.670  41.656   6.495
 3150POPC   C3A41525  24.543  41.408   6.862
 3150POPC   C4A41526  24.667  41.625   7.250
 3150POPC   C1B41527  24.282  41.653   6.148
 3150POPC   C2B41528  24.141  41.459   6.527
 3150POPC   C3B41529  24.077  41.595   6.965
 3150POPC   C4B41530  24.232  41.394   7.288
 3151POPC   NC341531   5.633   2.236   4.940
 3151POPC   PO441532   5.253   2.210   5.481
 3151POPC   GL141533   4.971   2.329   5.840
 3151POPC   GL241534   4.677   2.090   5.899
 3151POPC   C1A41535   5.013   2.218   6.289
 3151POPC   D2A41536   5.285   1.905   6.474
 3151POPC   C3A41537   5.256   1.806   6.879
 3151POPC   C4A41538   5.278   2.074   7.204
 3151POPC   C1B41539   4.718   1.820   6.291
 3151POPC   C2B41540   4.778   1.958   6.717
 3151POPC   C3B41541   4.806   1.877   7.150
 3151POPC   C4B41542   4.522   1.949   7.476
 3152POPC   NC341543  41.233  41.943   5.490
 3152POPC   PO441544  41.590  41.383   5.263
 3152POPC   GL141545  41.701  41.318   5.747
 3152POPC   GL241546  41.393  41.138   5.870
 3152POPC   C1A41547  41.650  41.364   6.231
 3152POPC   D2A41548  41.746  41.529   6.621
 3152POPC   C3A41549  41.696  41.281   7.001
 3152POPC   C4A41550  41.869  41.436   7.386
 3152POPC   C1B41551  41.239  41.056   6.296
 3152POPC   C2B41552  41.228  41.258   6.703
 3152POPC   C3B41553  41.195  41.421   7.113
 3152POPC   C4B41554  41.401  41.272   7.478
 3153POPC   NC341555  18.096  23.001   5.566
 3153POPC   PO441556  17.526  23.169   5.250
 3153POPC   GL141557  17.477  23.148   5.724
 3153POPC   GL241558  17.669  22.840   5.800
 3153POPC   C1A41559  17.331  22.945   6.164
 3153POPC   D2A41560  17.459  22.754   6.575
 3153POPC   C3A41561  17.661  23.046   6.832
 3153POPC   C4A41562  17.407  23.012   7.177
 3153POPC   C1B41563  17.844  22.743   6.210
 3153POPC   C2B41564  17.976  22.599   6.606
 3153POPC   C3B41565  17.880  22.628   7.042
 3153POPC   C4B41566  17.952  22.986   7.299
 3154POPC   NC341567  38.699  20.410   5.595
 3154POPC   PO441568  38.283  20.794   5.179
 3154POPC   GL141569  38.249  20.756   5.673
 3154POPC   GL241570  38.107  20.467   5.794
 3154POPC   C1A41571  38.354  20.791   6.159
 3154POPC   D2A41572  38.583  20.846   6.585
 3154POPC   C3A41573  38.410  20.796   6.987
 3154POPC   C4A41574  38.547  20.747   7.438
 3154POPC   C1B41575  38.121  20.306   6.184
 3154POPC   C2B41576  38.392  20.358   6.539
 3154POPC   C3B41577  38.502  20.293   6.953
 3154POPC   C4B41578  38.248  20.372   7.289
 3155POPC   NC341579   5.430  16.826   5.351
 3155POPC   PO441580   5.068  16.300   5.336
 3155POPC   GL141581   5.063  16.678   5.693
 3155POPC   GL241582   5.352  16.895   5.850
 3155POPC   C1A41583   4.874  16.824   6.117
 3155POPC   D2A41584   5.010  16.724   6.562
 3155POPC   C3A41585   4.778  16.734   6.943
 3155POPC   C4A41586   5.037  16.708   7.300
 3155POPC   C1B41587   5.319  17.017   6.283
 3155POPC   C2B41588   5.503  16.929   6.696
 3155POPC   C3B41589   5.481  16.893   7.153
 3155POPC   C4B41590   5.430  16.883   7.604
 3156POPC   NC341591  19.104  25.980   5.509
 3156POPC   PO441592  18.622  26.386   5.797
 3156POPC   GL141593  18.769  25.961   5.924
 3156POPC   GL241594  19.146  25.865   6.010
 3156POPC   C1A41595  18.770  25.851   6.365
 3156POPC   D2A41596  18.898  26.051   6.739
 3156POPC   C3A41597  19.150  25.963   7.105
 3156POPC   C4A41598  18.798  25.883   7.368
 3156POPC   C1B41599  19.041  26.253   6.251
 3156POPC   C2B41600  18.909  26.527   6.582
 3156POPC   C3B41601  18.870  26.458   7.053
 3156POPC   C4B41602  19.215  26.524   7.320
 3157POPC   NC341603  43.328  33.900   5.554
 3157POPC   PO441604  42.792  34.204   5.495
 3157POPC   GL141605  42.907  33.976   5.855
 3157POPC   GL241606  42.917  33.592   5.828
 3157POPC   C1A41607  43.061  33.873   6.234
 3157POPC   D2A41608  43.287  33.992   6.573
 3157POPC   C3A41609  43.036  34.027   6.900
 3157POPC   C4A41610  43.135  34.001   7.307
 3157POPC   C1B41611  42.908  33.397   6.243
 3157POPC   C2B41612  43.146  33.489   6.637
 3157POPC   C3B41613  43.025  33.554   7.062
 3157POPC   C4B41614  42.708  33.318   7.264
 3158POPC   NC341615   7.812   0.010   5.025
 3158POPC   PO441616   8.395  44.767   5.336
 3158POPC   GL141617   8.260  44.699   5.791
 3158POPC   GL241618   8.092  44.380   5.866
 3158POPC   C1A41619   8.154  44.743   6.223
 3158POPC   D2A41620   8.009  44.919   6.582
 3158POPC   C3A41621   7.916  44.573   6.862
 3158POPC   C4A41622   8.040  44.352   7.222
 3158POPC   C1B41623   8.453  44.334   6.177
 3158POPC   C2B41624   8.446  44.548   6.599
 3158POPC   C3B41625   8.364  44.791   6.955
 3158POPC   C4B41626   8.316  44.741   7.396
 3159POPC   NC341627  10.097  43.989   5.210
 3159POPC   PO441628   9.632  43.611   5.328
 3159POPC   GL141629   9.504  43.656   5.791
 3159POPC   GL241630   9.452  44.039   5.944
 3159POPC   C1A41631   9.696  43.654   6.192
 3159POPC   D2A41632   9.543  43.615   6.595
 3159POPC   C3A41633   9.869  43.586   6.894
 3159POPC   C4A41634   9.804  43.820   7.228
 3159POPC   C1B41635   9.666  44.137   6.343
 3159POPC   C2B41636   9.771  44.106   6.777
 3159POPC   C3B41637   9.521  44.224   7.117
 3159POPC   C4B41638   9.182  44.378   7.265
 3160POPC   NC341639   4.020  29.393   5.304
 3160POPC   PO441640   4.517  28.988   5.278
 3160POPC   GL141641   4.551  28.975   5.751
 3160POPC   GL241642   4.669  29.299   5.891
 3160POPC   C1A41643   4.296  29.024   6.182
 3160POPC   D2A41644   4.161  29.256   6.597
 3160POPC   C3A41645   4.155  28.976   6.968
 3160POPC   C4A41646   4.330  28.912   7.409
 3160POPC   C1B41647   4.553  29.448   6.340
 3160POPC   C2B41648   4.604  29.408   6.830
 3160POPC   C3B41649   4.446  29.420   7.244
 3160POPC   C4B41650   4.588  29.479   7.674
 3161POPC   NC341651  38.052  32.896   4.999
 3161POPC   PO441652  38.299  33.074   5.556
 3161POPC   GL141653  38.392  32.994   5.935
 3161POPC   GL241654  38.736  33.065   5.911
 3161POPC   C1A41655  38.256  33.101   6.344
 3161POPC   D2A41656  38.559  33.151   6.677
 3161POPC   C3A41657  38.493  32.981   7.076
 3161POPC   C4A41658  38.169  33.076   7.397
 3161POPC   C1B41659  38.710  32.815   6.297
 3161POPC   C2B41660  38.831  32.700   6.739
 3161POPC   C3B41661  38.741  32.537   7.164
 3161POPC   C4B41662  38.699  32.744   7.620
 3162POPC   NC341663  30.611  36.774   5.477
 3162POPC   PO441664  30.484  37.451   5.453
 3162POPC   GL141665  30.645  37.171   5.818
 3162POPC   GL241666  30.440  36.852   5.937
 3162POPC   C1A41667  30.791  37.029   6.247
 3162POPC   D2A41668  30.648  37.034   6.661
 3162POPC   C3A41669  30.968  37.128   6.910
 3162POPC   C4A41670  30.956  36.931   7.298
 3162POPC   C1B41671  30.541  36.542   6.235
 3162POPC   C2B41672  30.807  36.549   6.586
 3162POPC   C3B41673  30.662  36.627   6.997
 3162POPC   C4B41674  30.357  36.441   7.271
 3163POPC   NC341675   0.622  35.855   5.367
 3163POPC   PO441676   0.270  36.376   5.420
 3163POPC   GL141677   0.427  36.137   5.759
 3163POPC   GL241678   0.168  35.869   5.786
 3163POPC   C1A41679   0.728  36.098   6.118
 3163POPC   D2A41680   0.622  36.015   6.552
 3163POPC   C3A41681   0.514  36.377   6.803
 3163POPC   C4A41682   0.609  36.415   7.230
 3163POPC   C1B41683   0.204  36.054   6.206
 3163POPC   C2B41684   0.109  35.906   6.599
 3163POPC   C3B41685   0.225  35.976   6.988
 3163POPC   C4B41686  44.883  36.183   7.159
 3164POPC   NC341687   3.949   4.664   5.446
 3164POPC   PO441688   3.358   4.216   5.492
 3164POPC   GL141689   3.578   4.200   5.839
 3164POPC   GL241690   3.648   4.532   5.837
 3164POPC   C1A41691   3.495   4.298   6.250
 3164POPC   D2A41692   3.418   4.096   6.637
 3164POPC   C3A41693   3.429   4.329   6.997
 3164POPC   C4A41694   3.592   4.133   7.333
 3164POPC   C1B41695   3.980   4.537   6.136
 3164POPC   C2B41696   3.868   4.432   6.562
 3164POPC   C3B41697   3.886   4.608   6.947
 3164POPC   C4B41698   3.687   4.690   7.326
 3165POPC   NC341699  42.338  43.480   5.419
 3165POPC   PO441700  42.229  44.079   5.385
 3165POPC   GL141701  42.308  43.860   5.789
 3165POPC   GL241702  42.632  43.716   5.757
 3165POPC   C1A41703  42.274  43.900   6.271
 3165POPC   D2A41704  42.254  44.185   6.678
 3165POPC   C3A41705  42.395  43.988   7.070
 3165POPC   C4A41706  42.074  43.854   7.392
 3165POPC   C1B41707  42.771  43.913   6.142
 3165POPC   C2B41708  42.673  43.913   6.599
 3165POPC   C3B41709  42.806  43.665   6.980
 3165POPC   C4B41710  42.880  43.889   7.385
 3166POPC   NC341711   1.651  42.044   5.432
 3166POPC   PO441712   0.962  42.281   5.407
 3166POPC   GL141713   1.136  42.307   5.843
 3166POPC   GL241714   1.489  42.260   5.866
 3166POPC   C1A41715   1.292  42.496   6.262
 3166POPC   D2A41716   1.343  42.312   6.669
 3166POPC   C3A41717   1.203  42.583   6.960
 3166POPC   C4A41718   1.280  42.655   7.406
 3166POPC   C1B41719   1.695  42.163   6.228
 3166POPC   C2B41720   1.724  41.970   6.607
 3166POPC   C3B41721   1.645  41.996   7.013
 3166POPC   C4B41722   1.643  42.385   7.199
 3167POPC   NC341723  10.994  32.573   5.473
 3167POPC   PO441724  10.980  31.893   5.427
 3167POPC   GL141725  11.141  32.204   5.783
 3167POPC   GL241726  11.432  32.321   5.717
 3167POPC   C1A41727  11.242  32.503   6.167
 3167POPC   D2A41728  11.159  32.371   6.606
 3167POPC   C3A41729  11.350  32.415   7.017
 3167POPC   C4A41730  11.267  32.498   7.463
 3167POPC   C1B41731  11.592  32.138   6.099
 3167POPC   C2B41732  11.538  31.984   6.530
 3167POPC   C3B41733  11.688  32.021   6.930
 3167POPC   C4B41734  11.559  32.040   7.343
 3168POPC   NC341735   1.469  43.649   5.600
 3168POPC   PO441736   0.979  44.060   5.396
 3168POPC   GL141737   1.000  43.844   5.808
 3168POPC   GL241738   1.262  44.019   5.888
 3168POPC   C1A41739   1.178  43.611   6.203
 3168POPC   D2A41740   1.123  43.448   6.630
 3168POPC   C3A41741   1.233  43.594   7.050
 3168POPC   C4A41742   0.845  43.700   7.253
 3168POPC   C1B41743   1.185  44.119   6.276
 3168POPC   C2B41744   1.206  43.981   6.669
 3168POPC   C3B41745   1.119  44.108   7.080
 3168POPC   C4B41746   1.012  44.482   7.289
 3169POPC   NC341747   3.331  19.601   5.512
 3169POPC   PO441748   2.565  19.863   5.422
 3169POPC   GL141749   2.623  19.899   5.843
 3169POPC   GL241750   2.974  19.960   5.776
 3169POPC   C1A41751   2.482  19.846   6.265
 3169POPC   D2A41752   2.265  20.175   6.515
 3169POPC   C3A41753   2.348  20.147   6.960
 3169POPC   C4A41754   2.401  19.771   7.204
 3169POPC   C1B41755   2.961  20.023   6.228
 3169POPC   C2B41756   2.776  20.030   6.661
 3169POPC   C3B41757   2.893  19.947   7.089
 3169POPC   C4B41758   2.835  19.676   7.480
 3170POPC   NC341759  22.130  35.681   5.401
 3170POPC   PO441760  22.137  36.289   5.352
 3170POPC   GL141761  22.055  36.086   5.761
 3170POPC   GL241762  21.917  35.740   5.860
 3170POPC   C1A41763  22.049  36.224   6.189
 3170POPC   D2A41764  22.040  36.471   6.549
 3170POPC   C3A41765  22.082  36.313   6.961
 3170POPC   C4A41766  22.046  36.483   7.344
 3170POPC   C1B41767  22.086  35.732   6.288
 3170POPC   C2B41768  22.025  35.725   6.704
 3170POPC   C3B41769  21.792  35.775   7.056
 3170POPC   C4B41770  22.009  35.971   7.374
 3171POPC   NC341771  28.652  37.833   5.614
 3171POPC   PO441772  28.197  37.522   5.240
 3171POPC   GL141773  28.285  37.528   5.738
 3171POPC   GL241774  28.232  37.850   5.933
 3171POPC   C1A41775  28.533  37.473   6.134
 3171POPC   D2A41776  28.475  37.663   6.539
 3171POPC   C3A41777  28.455  37.506   6.943
 3171POPC   C4A41778  28.145  37.667   7.254
 3171POPC   C1B41779  28.459  38.097   6.272
 3171POPC   C2B41780  28.608  38.128   6.704
 3171POPC   C3B41781  28.564  37.963   7.160
 3171POPC   C4B41782  28.420  37.910   7.638
 3172POPC   NC341783  24.245  35.277   5.038
 3172POPC   PO441784  24.190  35.466   5.602
 3172POPC   GL141785  24.532  35.215   5.709
 3172POPC   GL241786  24.793  35.451   5.722
 3172POPC   C1A41787  24.624  35.126   6.123
 3172POPC   D2A41788  24.540  35.295   6.508
 3172POPC   C3A41789  24.466  35.082   6.899
 3172POPC   C4A41790  24.321  35.306   7.257
 3172POPC   C1B41791  24.702  35.674   6.111
 3172POPC   C2B41792  24.774  35.750   6.544
 3172POPC   C3B41793  24.794  35.503   6.938
 3172POPC   C4B41794  24.713  35.640   7.373
 3173POPC   NC341795  12.653  19.977   5.404
 3173POPC   PO441796  13.272  19.664   5.403
 3173POPC   GL141797  13.063  19.748   5.813
 3173POPC   GL241798  12.754  19.915   5.904
 3173POPC   C1A41799  13.154  19.828   6.261
 3173POPC   D2A41800  13.327  19.732   6.673
 3173POPC   C3A41801  12.972  19.694   6.984
 3173POPC   C4A41802  12.818  19.803   7.404
 3173POPC   C1B41803  12.575  19.767   6.277
 3173POPC   C2B41804  12.616  19.944   6.689
 3173POPC   C3B41805  12.452  20.151   7.052
 3173POPC   C4B41806  12.377  20.065   7.499
 3174POPC   NC341807  36.366  30.827   5.547
 3174POPC   PO441808  35.978  30.342   5.451
 3174POPC   GL141809  36.030  30.546   5.863
 3174POPC   GL241810  36.341  30.460   6.021
 3174POPC   C1A41811  36.124  30.908   6.170
 3174POPC   D2A41812  35.918  31.058   6.544
 3174POPC   C3A41813  36.040  30.941   6.911
 3174POPC   C4A41814  36.089  30.760   7.248
 3174POPC   C1B41815  36.042  30.444   6.381
 3174POPC   C2B41816  35.955  30.423   6.814
 3174POPC   C3B41817  36.218  30.295   7.134
 3174POPC   C4B41818  36.192  30.401   7.577
 3175POPC   NC341819  23.929  32.615   5.506
 3175POPC   PO441820  23.661  33.254   5.396
 3175POPC   GL141821  23.724  33.027   5.793
 3175POPC   GL241822  23.488  32.761   5.877
 3175POPC   C1A41823  23.938  33.071   6.206
 3175POPC   D2A41824  23.807  33.305   6.582
 3175POPC   C3A41825  23.803  33.345   7.012
 3175POPC   C4A41826  23.750  33.145   7.425
 3175POPC   C1B41827  23.738  32.596   6.218
 3175POPC   C2B41828  23.799  32.793   6.617
 3175POPC   C3B41829  23.589  32.872   6.980
 3175POPC   C4B41830  23.346  32.797   7.337
 3176POPC   NC341831  43.842  20.990   5.431
 3176POPC   PO441832  44.074  20.337   5.405
 3176POPC   GL141833  43.917  20.597   5.766
 3176POPC   GL241834  44.087  20.910   5.897
 3176POPC   C1A41835  43.655  20.622   6.149
 3176POPC   D2A41836  43.727  20.609   6.602
 3176POPC   C3A41837  43.417  20.786   6.877
 3176POPC   C4A41838  43.425  20.910   7.308
 3176POPC   C1B41839  44.161  20.595   6.228
 3176POPC   C2B41840  44.335  20.616   6.634
 3176POPC   C3B41841  44.100  20.678   6.982
 3176POPC   C4B41842  43.947  20.897   7.325
 3177POPC   NC341843  24.988  27.265   5.585
 3177POPC   PO441844  24.883  27.835   5.581
 3177POPC   GL141845  25.250  27.700   5.814
 3177POPC   GL241846  25.481  27.974   5.911
 3177POPC   C1A41847  25.258  27.519   6.216
 3177POPC   D2A41848  25.117  27.363   6.620
 3177POPC   C3A41849  25.081  27.515   7.013
 3177POPC   C4A41850  25.278  27.345   7.375
 3177POPC   C1B41851  25.302  28.023   6.348
 3177POPC   C2B41852  25.213  27.989   6.805
 3177POPC   C3B41853  25.289  27.965   7.263
 3177POPC   C4B41854  25.270  27.748   7.696
 3178POPC   NC341855  20.004  16.481   5.487
 3178POPC   PO441856  19.541  16.913   5.263
 3178POPC   GL141857  19.698  16.868   5.704
 3178POPC   GL241858  20.072  16.917   5.724
 3178POPC   C1A41859  19.765  16.673   6.122
 3178POPC   D2A41860  19.581  16.556   6.534
 3178POPC   C3A41861  19.825  16.586   6.913
 3178POPC   C4A41862  19.744  16.907   7.211
 3178POPC   C1B41863  20.087  17.074   6.131
 3178POPC   C2B41864  20.083  16.844   6.493
 3178POPC   C3B41865  20.116  17.005   6.864
 3178POPC   C4B41866  20.267  16.846   7.206
 3179POPC   NC341867   9.352  43.995   5.432
 3179POPC   PO441868   8.695  44.009   5.562
 3179POPC   GL141869   8.620  43.816   5.902
 3179POPC   GL241870   8.999  43.803   5.918
 3179POPC   C1A41871   8.678  43.704   6.306
 3179POPC   D2A41872   8.645  44.007   6.534
 3179POPC   C3A41873   8.725  43.850   6.882
 3179POPC   C4A41874   8.940  43.933   7.224
 3179POPC   C1B41875   9.140  43.972   6.342
 3179POPC   C2B41876   9.228  43.983   6.781
 3179POPC   C3B41877   9.344  43.645   7.096
 3179POPC   C4B41878   9.395  43.621   7.561
 3180POPC   NC341879  40.607   7.418   5.233
 3180POPC   PO441880  41.027   7.597   5.690
 3180POPC   GL141881  40.889   7.386   5.964
 3180POPC   GL241882  40.613   7.212   5.839
 3180POPC   C1A41883  40.863   7.596   6.342
 3180POPC   D2A41884  40.669   7.621   6.681
 3180POPC   C3A41885  40.876   7.644   7.052
 3180POPC   C4A41886  40.598   7.548   7.396
 3180POPC   C1B41887  40.679   7.108   6.318
 3180POPC   C2B41888  40.575   7.049   6.745
 3180POPC   C3B41889  40.748   7.128   7.129
 3180POPC   C4B41890  41.067   6.881   7.395
 3181POPC   NC341891  23.172   0.984   5.656
 3181POPC   PO441892  23.103   1.500   5.216
 3181POPC   GL141893  22.883   1.568   5.769
 3181POPC   GL241894  22.809   1.247   5.916
 3181POPC   C1A41895  23.122   1.526   6.244
 3181POPC   D2A41896  23.329   1.377   6.627
 3181POPC   C3A41897  23.065   1.300   6.990
 3181POPC   C4A41898  23.217   1.156   7.369
 3181POPC   C1B41899  22.677   1.294   6.367
 3181POPC   C2B41900  22.754   1.002   6.696
 3181POPC   C3B41901  22.933   0.808   7.044
 3181POPC   C4B41902  22.706   0.989   7.350
 3182POPC   NC341903   9.529   2.094   5.322
 3182POPC   PO441904  10.057   1.667   5.418
 3182POPC   GL141905   9.780   1.821   5.720
 3182POPC   GL241906   9.910   2.108   5.776
 3182POPC   C1A41907   9.607   1.819   6.124
 3182POPC   D2A41908   9.631   2.112   6.462
 3182POPC   C3A41909   9.618   1.953   6.853
 3182POPC   C4A41910   9.476   2.150   7.190
 3182POPC   C1B41911  10.078   2.075   6.198
 3182POPC   C2B41912  10.099   2.099   6.655
 3182POPC   C3B41913  10.057   2.168   7.080
 3182POPC   C4B41914  10.044   1.803   7.347
 3183POPC   NC341915  13.958   1.967   5.340
 3183POPC   PO441916  13.303   2.064   5.418
 3183POPC   GL141917  13.582   1.938   5.750
 3183POPC   GL241918  13.780   2.238   5.796
 3183POPC   C1A41919  13.603   1.680   6.156
 3183POPC   D2A41920  13.360   1.768   6.547
 3183POPC   C3A41921  13.513   1.833   6.943
 3183POPC   C4A41922  13.417   1.829   7.361
 3183POPC   C1B41923  13.743   2.163   6.213
 3183POPC   C2B41924  13.740   2.138   6.612
 3183POPC   C3B41925  13.954   2.080   6.969
 3183POPC   C4B41926  13.821   2.131   7.346
 3184POPC   NC341927  27.256  34.638   5.355
 3184POPC   PO441928  27.806  34.301   5.259
 3184POPC   GL141929  27.681  34.521   5.648
 3184POPC   GL241930  27.358  34.421   5.801
 3184POPC   C1A41931  27.681  34.724   6.067
 3184POPC   D2A41932  27.852  34.672   6.471
 3184POPC   C3A41933  27.818  34.681   6.907
 3184POPC   C4A41934  27.590  34.703   7.245
 3184POPC   C1B41935  27.497  34.262   6.221
 3184POPC   C2B41936  27.628  34.220   6.649
 3184POPC   C3B41937  27.532  34.230   7.078
 3184POPC   C4B41938  27.416  34.081   7.481
 3185POPC   NC341939   6.397  42.778   5.213
 3185POPC   PO441940   6.595  42.193   5.381
 3185POPC   GL141941   6.684  42.169   5.799
 3185POPC   GL241942   6.949  41.966   5.767
 3185POPC   C1A41943   6.543  42.366   6.201
 3185POPC   D2A41944   6.414  42.489   6.631
 3185POPC   C3A41945   6.609  42.241   6.959
 3185POPC   C4A41946   6.624  42.321   7.402
 3185POPC   C1B41947   7.033  42.188   6.160
 3185POPC   C2B41948   6.942  42.392   6.546
 3185POPC   C3B41949   7.114  42.322   6.937
 3185POPC   C4B41950   7.129  42.393   7.356
 3186POPC   NC341951  33.306   6.793   5.529
 3186POPC   PO441952  33.928   6.806   5.252
 3186POPC   GL141953  33.975   6.779   5.698
 3186POPC   GL241954  33.671   6.868   5.855
 3186POPC   C1A41955  33.892   6.494   6.080
 3186POPC   D2A41956  33.768   6.448   6.516
 3186POPC   C3A41957  33.915   6.556   6.940
 3186POPC   C4A41958  33.567   6.381   7.157
 3186POPC   C1B41959  33.580   6.899   6.282
 3186POPC   C2B41960  33.801   7.003   6.681
 3186POPC   C3B41961  33.685   6.986   7.127
 3186POPC   C4B41962  33.788   6.770   7.483
 3187POPC   NC341963  11.241   4.736   5.610
 3187POPC   PO441964  11.102   5.458   5.422
 3187POPC   GL141965  11.189   5.217   5.773
 3187POPC   GL241966  10.957   4.963   5.939
 3187POPC   C1A41967  11.393   5.164   6.163
 3187POPC   D2A41968  11.407   5.271   6.612
 3187POPC   C3A41969  11.566   5.014   6.939
 3187POPC   C4A41970  11.410   5.071   7.357
 3187POPC   C1B41971  10.908   5.143   6.319
 3187POPC   C2B41972  10.872   5.319   6.697
 3187POPC   C3B41973  11.055   5.214   7.052
 3187POPC   C4B41974  10.911   4.955   7.434
 3188POPC   NC341975  11.948  12.818   5.377
 3188POPC   PO441976  12.280  13.291   5.539
 3188POPC   GL141977  12.178  12.996   5.895
 3188POPC   GL241978  12.143  12.614   5.847
 3188POPC   C1A41979  12.305  12.897   6.338
 3188POPC   D2A41980  12.500  12.703   6.738
 3188POPC   C3A41981  12.357  12.936   7.094
 3188POPC   C4A41982  11.909  13.018   7.155
 3188POPC   C1B41983  11.860  12.665   6.211
 3188POPC   C2B41984  11.877  12.770   6.677
 3188POPC   C3B41985  12.012  12.537   7.078
 3188POPC   C4B41986  11.905  12.523   7.552
 3189POPC   NC341987  12.637  32.114   5.704
 3189POPC   PO441988  13.037  32.586   5.535
 3189POPC   GL141989  12.896  32.497   5.923
 3189POPC   GL241990  12.595  32.449   6.101
 3189POPC   C1A41991  13.052  32.296   6.288
 3189POPC   D2A41992  12.975  32.139   6.704
 3189POPC   C3A41993  12.948  32.325   7.125
 3189POPC   C4A41994  12.681  32.379   7.521
 3189POPC   C1B41995  12.528  32.103   6.406
 3189POPC   C2B41996  12.594  31.810   6.768
 3189POPC   C3B41997  12.528  32.016   7.181
 3189POPC   C4B41998  12.528  31.925   7.639
 3190POPC   NC341999  41.557  21.317   5.417
 3190POPC   PO442000  42.182  21.599   5.225
 3190POPC   GL142001  41.893  21.672   5.676
 3190POPC   GL242002  41.678  21.396   5.890
 3190POPC   C1A42003  41.936  21.728   6.154
 3190POPC   D2A42004  41.649  21.675   6.494
 3190POPC   C3A42005  41.719  21.521   6.916
 3190POPC   C4A42006  41.353  21.612   7.146
 3190POPC   C1B42007  41.775  21.226   6.294
 3190POPC   C2B42008  41.555  21.062   6.661
 3190POPC   C3B42009  41.477  21.108   7.088
 3190POPC   C4B42010  41.648  21.203   7.482
 3191POPC   NC342011  35.814  18.736   5.594
 3191POPC   PO442012  36.308  19.111   5.270
 3191POPC   GL142013  36.176  19.129   5.739
 3191POPC   GL242014  35.826  19.130   5.886
 3191POPC   C1A42015  36.272  18.957   6.174
 3191POPC   D2A42016  36.303  19.107   6.610
 3191POPC   C3A42017  36.368  18.787   6.927
 3191POPC   C4A42018  36.312  19.008   7.324
 3191POPC   C1B42019  35.767  18.893   6.232
 3191POPC   C2B42020  35.927  18.763   6.593
 3191POPC   C3B42021  35.883  18.941   6.991
 3191POPC   C4B42022  35.591  18.719   7.198
 3192POPC   NC342023  18.993  39.352   5.387
 3192POPC   PO442024  19.342  38.830   5.480
 3192POPC   GL142025  19.023  39.016   5.801
 3192POPC   GL242026  18.952  39.413   5.899
 3192POPC   C1A42027  19.131  39.093   6.234
 3192POPC   D2A42028  19.028  39.344   6.578
 3192POPC   C3A42029  19.110  39.083   6.916
 3192POPC   C4A42030  18.997  39.008   7.297
 3192POPC   C1B42031  19.311  39.575   6.199
 3192POPC   C2B42032  19.461  39.602   6.661
 3192POPC   C3B42033  19.158  39.583   7.037
 3192POPC   C4B42034  19.115  39.462   7.491
 3193POPC   NC342035  41.318  31.037   5.443
 3193POPC   PO442036  41.659  31.625   5.435
 3193POPC   GL142037  41.365  31.455   5.743
 3193POPC   GL242038  41.590  31.219   5.826
 3193POPC   C1A42039  41.398  31.565   6.175
 3193POPC   D2A42040  41.534  31.375   6.535
 3193POPC   C3A42041  41.411  31.586   6.900
 3193POPC   C4A42042  41.592  31.532   7.276
 3193POPC   C1B42043  41.884  31.426   6.093
 3193POPC   C2B42044  42.030  31.484   6.509
 3193POPC   C3B42045  41.903  31.324   6.894
 3193POPC   C4B42046  42.054  31.332   7.288
 3194POPC   NC342047  10.401  35.825   5.378
 3194POPC   PO442048  10.633  36.408   5.309
 3194POPC   GL142049  10.629  36.196   5.753
 3194POPC   GL242050  10.672  35.834   5.817
 3194POPC   C1A42051  10.677  36.161   6.239
 3194POPC   D2A42052  10.537  36.212   6.686
 3194POPC   C3A42053  10.757  36.107   7.087
 3194POPC   C4A42054  10.656  36.327   7.507
 3194POPC   C1B42055  10.675  35.630   6.237
 3194POPC   C2B42056  10.771  35.744   6.655
 3194POPC   C3B42057  10.628  35.611   7.045
 3194POPC   C4B42058  10.534  35.813   7.468
 3195POPC   NC342059  11.953  28.011   5.353
 3195POPC   PO442060  12.248  27.445   5.664
 3195POPC   GL142061  12.251  27.806   5.885
 3195POPC   GL242062  11.892  27.844   5.871
 3195POPC   C1A42063  12.301  27.828   6.342
 3195POPC   D2A42064  12.360  27.747   6.781
 3195POPC   C3A42065  12.080  27.403   6.892
 3195POPC   C4A42066  11.954  27.436   7.301
 3195POPC   C1B42067  11.633  27.940   6.238
 3195POPC   C2B42068  11.854  27.906   6.624
 3195POPC   C3B42069  11.888  27.881   7.038
 3195POPC   C4B42070  11.593  27.816   7.327
 3196POPC   NC342071  43.456  30.060   5.484
 3196POPC   PO442072  42.773  30.144   5.548
 3196POPC   GL142073  43.070  29.859   5.771
 3196POPC   GL242074  43.111  29.489   5.835
 3196POPC   C1A42075  43.198  29.943   6.186
 3196POPC   D2A42076  42.912  30.068   6.500
 3196POPC   C3A42077  43.112  30.026   6.888
 3196POPC   C4A42078  42.875  30.202   7.177
 3196POPC   C1B42079  42.814  29.605   6.202
 3196POPC   C2B42080  42.776  29.602   6.674
 3196POPC   C3B42081  43.044  29.535   7.057
 3196POPC   C4B42082  42.897  29.354   7.457
 3197POPC   NC342083  32.822   6.950   5.135
 3197POPC   PO442084  33.018   6.407   5.542
 3197POPC   GL142085  33.021   6.607   5.915
 3197POPC   GL242086  33.361   6.470   5.957
 3197POPC   C1A42087  32.752   6.678   6.273
 3197POPC   D2A42088  32.871   6.682   6.695
 3197POPC   C3A42089  32.700   6.560   7.070
 3197POPC   C4A42090  32.729   6.833   7.403
 3197POPC   C1B42091  33.252   6.507   6.381
 3197POPC   C2B42092  33.378   6.729   6.759
 3197POPC   C3B42093  33.188   6.723   7.154
 3197POPC   C4B42094  33.097   6.300   7.368
 3198POPC   NC342095  27.357  25.454   5.454
 3198POPC   PO442096  27.868  25.084   5.418
 3198POPC   GL142097  27.677  25.275   5.834
 3198POPC   GL242098  27.540  24.992   6.075
 3198POPC   C1A42099  27.511  25.493   6.146
 3198POPC   D2A42100  27.441  25.292   6.511
 3198POPC   C3A42101  27.697  25.445   6.773
 3198POPC   C4A42102  27.723  25.383   7.148
 3198POPC   C1B42103  27.161  24.896   6.319
 3198POPC   C2B42104  27.066  24.958   6.724
 3198POPC   C3B42105  27.200  24.745   7.073
 3198POPC   C4B42106  27.611  24.886   7.220
 3199POPC   NC342107  34.273  11.980   5.351
 3199POPC   PO442108  34.921  12.127   5.477
 3199POPC   GL142109  34.729  12.189   5.847
 3199POPC   GL242110  34.382  12.205   5.814
 3199POPC   C1A42111  34.780  12.133   6.278
 3199POPC   D2A42112  34.862  11.874   6.620
 3199POPC   C3A42113  34.657  11.905   7.036
 3199POPC   C4A42114  34.721  12.184   7.409
 3199POPC   C1B42115  34.384  11.865   6.131
 3199POPC   C2B42116  34.386  11.711   6.561
 3199POPC   C3B42117  34.162  11.847   6.938
 3199POPC   C4B42118  34.239  12.097   7.300
 3200POPC   NC342119   5.619  17.349   5.369
 3200POPC   PO442120   6.096  17.773   5.493
 3200POPC   GL142121   5.805  17.639   5.789
 3200POPC   GL242122   5.930  17.303   5.782
 3200POPC   C1A42123   5.870  17.778   6.218
 3200POPC   D2A42124   6.140  17.793   6.571
 3200POPC   C3A42125   5.873  17.803   6.930
 3200POPC   C4A42126   6.001  17.682   7.332
 3200POPC   C1B42127   5.716  17.277   6.146
 3200POPC   C2B42128   5.729  17.413   6.574
 3200POPC   C3B42129   5.702  17.331   7.012
 3200POPC   C4B42130   5.842  17.165   7.398
 3201POPC   NC342131  34.698  42.462   5.282
 3201POPC   PO442132  34.659  43.150   5.260
 3201POPC   GL142133  34.615  43.123   5.725
 3201POPC   GL242134  34.256  43.105   5.779
 3201POPC   C1A42135  34.618  43.015   6.176
 3201POPC   D2A42136  34.872  43.226   6.481
 3201POPC   C3A42137  34.708  43.334   6.857
 3201POPC   C4A42138  34.786  43.166   7.248
 3201POPC   C1B42139  34.163  43.256   6.212
 3201POPC   C2B42140  34.243  43.118   6.646
 3201POPC   C3B42141  34.242  43.267   7.084
 3201POPC   C4B42142  34.339  42.976   7.428
 3202POPC   NC342143   6.107  12.108   5.489
 3202POPC   PO442144   5.422  11.836   5.458
 3202POPC   GL142145   5.625  12.004   5.833
 3202POPC   GL242146   5.897  11.792   5.835
 3202POPC   C1A42147   5.776  11.971   6.292
 3202POPC   D2A42148   5.969  12.285   6.544
 3202POPC   C3A42149   5.869  12.090   6.877
 3202POPC   C4A42150   5.730  12.070   7.253
 3202POPC   C1B42151   6.256  11.801   6.126
 3202POPC   C2B42152   6.325  11.929   6.548
 3202POPC   C3B42153   6.267  11.788   6.997
 3202POPC   C4B42154   6.092  11.780   7.419
 3203POPC   NC342155  36.807  17.026   5.441
 3203POPC   PO442156  37.410  16.680   5.469
 3203POPC   GL142157  37.083  16.802   5.805
 3203POPC   GL242158  36.721  16.898   5.933
 3203POPC   C1A42159  37.158  16.993   6.196
 3203POPC   D2A42160  37.026  16.887   6.616
 3203POPC   C3A42161  37.241  17.003   7.000
 3203POPC   C4A42162  36.979  16.746   7.245
 3203POPC   C1B42163  36.765  16.496   6.180
 3203POPC   C2B42164  36.827  16.398   6.633
 3203POPC   C3B42165  36.613  16.440   7.042
 3203POPC   C4B42166  36.472  16.829   7.249
 3204POPC   NC342167  29.696  19.104   5.384
 3204POPC   PO442168  29.554  18.435   5.476
 3204POPC   GL142169  29.662  18.809   5.817
 3204POPC   GL242170  29.477  18.701   6.056
 3204POPC   C1A42171  29.687  19.153   6.236
 3204POPC   D2A42172  29.982  19.369   6.618
 3204POPC   C3A42173  29.967  19.309   7.091
 3204POPC   C4A42174  30.185  19.256   7.522
 3204POPC   C1B42175  29.769  18.678   6.419
 3204POPC   C2B42176  29.925  18.881   6.798
 3204POPC   C3B42177  29.848  18.812   7.252
 3204POPC   C4B42178  29.781  18.416   7.488
 3205POPC   NC342179  37.571  17.117   5.547
 3205POPC   PO442180  37.755  17.770   5.420
 3205POPC   GL142181  37.669  17.609   5.809
 3205POPC   GL242182  37.908  17.336   5.875
 3205POPC   C1A42183  37.396  17.462   6.136
 3205POPC   D2A42184  37.283  17.334   6.559
 3205POPC   C3A42185  37.599  17.400   6.842
 3205POPC   C4A42186  37.512  17.407   7.269
 3205POPC   C1B42187  37.972  17.478   6.306
 3205POPC   C2B42188  38.088  17.263   6.696
 3205POPC   C3B42189  38.020  17.363   7.152
 3205POPC   C4B42190  37.918  17.269   7.596
 3206POPC   NC342191  32.467  37.863   5.575
 3206POPC   PO442192  32.136  38.398   5.233
 3206POPC   GL142193  32.247  38.321   5.693
 3206POPC   GL242194  31.931  38.178   5.703
 3206POPC   C1A42195  32.403  38.351   6.182
 3206POPC   D2A42196  32.425  38.493   6.600
 3206POPC   C3A42197  32.336  38.323   6.970
 3206POPC   C4A42198  32.260  38.585   7.330
 3206POPC   C1B42199  31.922  38.259   6.127
 3206POPC   C2B42200  32.068  38.082   6.519
 3206POPC   C3B42201  31.856  38.099   6.930
 3206POPC   C4B42202  32.054  38.139   7.344
 3207POPC   NC342203   6.547   3.554   5.041
 3207POPC   PO442204   6.882   3.831   5.543
 3207POPC   GL142205   6.710   3.624   5.877
 3207POPC   GL242206   6.497   3.355   5.785
 3207POPC   C1A42207   6.459   3.643   6.256
 3207POPC   D2A42208   6.217   3.430   6.593
 3207POPC   C3A42209   6.346   3.384   7.010
 3207POPC   C4A42210   6.687   3.515   7.237
 3207POPC   C1B42211   6.727   3.207   6.187
 3207POPC   C2B42212   6.610   3.071   6.622
 3207POPC   C3B42213   6.703   3.036   7.061
 3207POPC   C4B42214   6.516   3.122   7.493
 3208POPC   NC342215  29.402   0.536   5.359
 3208POPC   PO442216  28.780   0.375   5.231
 3208POPC   GL142217  28.844   0.330   5.735
 3208POPC   GL242218  29.231   0.356   5.824
 3208POPC   C1A42219  28.910   0.429   6.198
 3208POPC   D2A42220  29.114   0.726   6.469
 3208POPC   C3A42221  29.056   0.654   6.901
 3208POPC   C4A42222  28.899   0.389   7.244
 3208POPC   C1B42223  29.466   0.735   6.087
 3208POPC   C2B42224  29.554   0.968   6.522
 3208POPC   C3B42225  29.552   0.839   6.965
 3208POPC   C4B42226  29.377   0.571   7.278
 3209POPC   NC342227  16.090  10.200   5.516
 3209POPC   PO442228  16.372  10.833   5.643
 3209POPC   GL142229  16.283  10.514   5.889
 3209POPC   GL242230  15.949  10.475   5.918
 3209POPC   C1A42231  16.327  10.417   6.296
 3209POPC   D2A42232  16.101  10.236   6.610
 3209POPC   C3A42233  16.254  10.352   6.950
 3209POPC   C4A42234  15.929  10.516   7.204
 3209POPC   C1B42235  15.767  10.470   6.306
 3209POPC   C2B42236  15.474  10.296   6.594
 3209POPC   C3B42237  15.582  10.185   7.002
 3209POPC   C4B42238  15.482  10.331   7.414
 3210POPC   NC342239  42.772  16.799   5.330
 3210POPC   PO442240  43.247  16.336   5.380
 3210POPC   GL142241  43.141  16.510   5.783
 3210POPC   GL242242  43.111  16.865   5.735
 3210POPC   C1A42243  43.250  16.649   6.204
 3210POPC   D2A42244  43.408  16.959   6.520
 3210POPC   C3A42245  43.366  16.784   6.946
 3210POPC   C4A42246  43.017  16.468   7.082
 3210POPC   C1B42247  42.780  16.742   6.045
 3210POPC   C2B42248  42.882  16.890   6.434
 3210POPC   C3B42249  42.861  16.866   6.821
 3210POPC   C4B42250  42.988  17.051   7.177
 3211POPC   NC342251   1.685  39.371   5.185
 3211POPC   PO442252   1.134  39.086   5.369
 3211POPC   GL142253   1.061  39.291   5.763
 3211POPC   GL242254   1.407  39.413   5.761
 3211POPC   C1A42255   1.031  39.305   6.202
 3211POPC   D2A42256   1.286  39.556   6.467
 3211POPC   C3A42257   1.176  39.504   6.885
 3211POPC   C4A42258   1.124  39.355   7.282
 3211POPC   C1B42259   1.679  39.426   6.118
 3211POPC   C2B42260   1.799  39.383   6.563
 3211POPC   C3B42261   1.687  39.688   6.872
 3211POPC   C4B42262   1.449  39.751   7.254
 3212POPC   NC342263  26.821   2.369   5.566
 3212POPC   PO442264  26.693   1.712   5.391
 3212POPC   GL142265  26.774   1.771   5.835
 3212POPC   GL242266  26.866   2.119   6.007
 3212POPC   C1A42267  26.628   1.770   6.279
 3212POPC   D2A42268  26.796   2.059   6.565
 3212POPC   C3A42269  26.636   1.984   6.964
 3212POPC   C4A42270  26.847   2.085   7.347
 3212POPC   C1B42271  27.126   1.780   6.189
 3212POPC   C2B42272  27.143   1.654   6.589
 3212POPC   C3B42273  27.086   1.778   6.968
 3212POPC   C4B42274  27.301   1.852   7.308
 3213POPC   NC342275  23.456  18.914   5.553
 3213POPC   PO442276  24.102  19.053   5.556
 3213POPC   GL142277  23.765  19.245   5.838
 3213POPC   GL242278  23.436  19.072   6.017
 3213POPC   C1A42279  23.740  19.346   6.260
 3213POPC   D2A42280  23.463  19.226   6.572
 3213POPC   C3A42281  23.599  19.338   6.970
 3213POPC   C4A42282  23.829  19.073   7.221
 3213POPC   C1B42283  23.560  18.741   6.266
 3213POPC   C2B42284  23.581  18.551   6.663
 3213POPC   C3B42285  23.474  18.843   6.952
 3213POPC   C4B42286  23.399  18.867   7.406
 3214POPC   NC342287  30.837  13.643   5.295
 3214POPC   PO442288  30.807  13.028   5.380
 3214POPC   GL142289  30.873  13.362   5.738
 3214POPC   GL242290  30.820  13.734   5.798
 3214POPC   C1A42291  30.540  13.453   6.086
 3214POPC   D2A42292  30.348  13.700   6.427
 3214POPC   C3A42293  30.540  13.659   6.830
 3214POPC   C4A42294  30.569  13.612   7.295
 3214POPC   C1B42295  30.834  13.825   6.256
 3214POPC   C2B42296  31.075  13.902   6.604
 3214POPC   C3B42297  30.972  13.826   7.019
 3214POPC   C4B42298  31.066  13.941   7.421
 3215POPC   NC342299  33.086  39.450   5.391
 3215POPC   PO442300  32.981  38.788   5.392
 3215POPC   GL142301  32.884  39.140   5.749
 3215POPC   GL242302  33.094  39.442   5.885
 3215POPC   C1A42303  32.769  39.185   6.198
 3215POPC   D2A42304  32.702  38.902   6.560
 3215POPC   C3A42305  32.859  39.000   6.965
 3215POPC   C4A42306  32.776  39.390   7.176
 3215POPC   C1B42307  33.276  39.351   6.259
 3215POPC   C2B42308  33.097  39.279   6.609
 3215POPC   C3B42309  33.230  39.403   6.965
 3215POPC   C4B42310  33.310  39.105   7.230
 3216POPC   NC342311   4.671  38.839   5.559
 3216POPC   PO442312   5.206  39.132   5.313
 3216POPC   GL142313   5.176  39.334   5.725
 3216POPC   GL242314   4.875  39.233   5.845
 3216POPC   C1A42315   5.177  39.466   6.180
 3216POPC   D2A42316   4.950  39.301   6.542
 3216POPC   C3A42317   5.105  39.396   6.965
 3216POPC   C4A42318   5.163  39.259   7.395
 3216POPC   C1B42319   4.630  39.009   6.179
 3216POPC   C2B42320   4.686  38.853   6.584
 3216POPC   C3B42321   4.862  38.940   6.985
 3216POPC   C4B42322   4.773  38.805   7.372
 3217POPC   NC342323  25.989  26.231   5.620
 3217POPC   PO442324  26.481  25.844   5.421
 3217POPC   GL142325  26.342  25.881   5.861
 3217POPC   GL242326  26.521  25.571   5.990
 3217POPC   C1A42327  26.191  26.166   6.255
 3217POPC   D2A42328  26.031  26.370   6.660
 3217POPC   C3A42329  25.930  26.110   6.991
 3217POPC   C4A42330  26.076  25.991   7.379
 3217POPC   C1B42331  26.206  25.649   6.296
 3217POPC   C2B42332  26.272  25.774   6.701
 3217POPC   C3B42333  26.465  25.613   7.045
 3217POPC   C4B42334  26.496  25.745   7.465
 3218POPC   NC342335   4.223  41.769   5.345
 3218POPC   PO442336   4.307  41.148   5.600
 3218POPC   GL142337   4.264  41.530   5.786
 3218POPC   GL242338   4.590  41.604   5.666
 3218POPC   C1A42339   4.226  41.735   6.170
 3218POPC   D2A42340   4.024  41.591   6.595
 3218POPC   C3A42341   4.147  41.401   7.000
 3218POPC   C4A42342   3.913  41.393   7.403
 3218POPC   C1B42343   4.705  41.503   6.112
 3218POPC   C2B42344   4.545  41.562   6.543
 3218POPC   C3B42345   4.536  41.779   6.932
 3218POPC   C4B42346   4.761  41.589   7.270
 3219POPC   NC342347  13.512  31.985   5.447
 3219POPC   PO442348  13.841  32.594   5.454
 3219POPC   GL142349  13.753  32.278   5.789
 3219POPC   GL242350  13.367  32.275   5.837
 3219POPC   C1A42351  13.889  32.152   6.211
 3219POPC   D2A42352  13.886  32.387   6.598
 3219POPC   C3A42353  13.839  32.169   6.976
 3219POPC   C4A42354  13.835  32.394   7.346
 3219POPC   C1B42355  13.416  31.959   6.158
 3219POPC   C2B42356  13.481  32.055   6.584
 3219POPC   C3B42357  13.353  31.997   7.009
 3219POPC   C4B42358  13.359  32.186   7.445
 3220POPC   NC342359   7.749  41.579   5.501
 3220POPC   PO442360   7.228  41.915   5.305
 3220POPC   GL142361   7.304  41.609   5.732
 3220POPC   GL242362   7.057  41.376   5.830
 3220POPC   C1A42363   7.453  41.417   6.175
 3220POPC   D2A42364   7.345  41.586   6.614
 3220POPC   C3A42365   7.588  41.444   7.009
 3220POPC   C4A42366   7.721  41.542   7.451
 3220POPC   C1B42367   7.013  41.675   6.188
 3220POPC   C2B42368   6.911  41.886   6.585
 3220POPC   C3B42369   6.961  41.822   7.014
 3220POPC   C4B42370   7.140  41.436   7.202
 3221POPC   NC342371  26.973  43.227   5.432
 3221POPC   PO442372  26.424  43.261   5.740
 3221POPC   GL142373  26.784  43.121   5.931
 3221POPC   GL242374  26.959  42.837   5.796
 3221POPC   C1A42375  26.788  43.153   6.376
 3221POPC   D2A42376  26.878  43.375   6.760
 3221POPC   C3A42377  26.752  43.136   7.105
 3221POPC   C4A42378  26.404  43.228   7.332
 3221POPC   C1B42379  27.187  42.878   6.183
 3221POPC   C2B42380  27.203  42.996   6.638
 3221POPC   C3B42381  27.091  42.754   7.020
 3221POPC   C4B42382  27.152  42.861   7.445
 3222POPC   NC342383   6.187   5.169   5.475
 3222POPC   PO442384   5.579   4.817   5.393
 3222POPC   GL142385   5.779   4.906   5.810
 3222POPC   GL242386   5.843   5.247   5.867
 3222POPC   C1A42387   5.718   5.004   6.291
 3222POPC   D2A42388   5.742   5.282   6.676
 3222POPC   C3A42389   5.825   5.040   7.059
 3222POPC   C4A42390   6.040   4.691   7.258
 3222POPC   C1B42391   6.180   5.250   6.185
 3222POPC   C2B42392   6.226   5.486   6.565
 3222POPC   C3B42393   6.166   5.401   6.972
 3222POPC   C4B42394   6.309   5.289   7.364
 3223POPC   NC342395  44.545  37.994   5.073
 3223POPC   PO442396  44.562  37.326   5.369
 3223POPC   GL142397  44.688  37.503   5.771
 3223POPC   GL242398  44.428  37.323   5.900
 3223POPC   C1A42399  44.601  37.840   6.118
 3223POPC   D2A42400  44.431  37.852   6.561
 3223POPC   C3A42401  44.639  37.936   6.951
 3223POPC   C4A42402  44.975  37.834   7.252
 3223POPC   C1B42403  44.571  37.387   6.325
 3223POPC   C2B42404  44.557  37.339   6.750
 3223POPC   C3B42405  44.741  37.419   7.126
 3223POPC   C4B42406  44.751  37.501   7.602
 3224POPC   NC342407   9.237   3.708   5.532
 3224POPC   PO442408   8.626   3.323   5.399
 3224POPC   GL142409   8.868   3.328   5.829
 3224POPC   GL242410   9.233   3.208   5.865
 3224POPC   C1A42411   8.986   3.465   6.263
 3224POPC   D2A42412   8.975   3.684   6.668
 3224POPC   C3A42413   9.056   3.453   7.075
 3224POPC   C4A42414   8.806   3.606   7.426
 3224POPC   C1B42415   9.473   3.417   6.183
 3224POPC   C2B42416   9.394   3.383   6.631
 3224POPC   C3B42417   9.441   3.749   6.878
 3224POPC   C4B42418   9.361   3.824   7.298
 3225POPC   NC342419  23.492  19.787   5.402
 3225POPC   PO442420  24.046  20.031   5.550
 3225POPC   GL142421  23.835  19.777   5.822
 3225POPC   GL242422  23.546  20.006   5.862
 3225POPC   C1A42423  23.897  19.845   6.253
 3225POPC   D2A42424  24.047  20.039   6.640
 3225POPC   C3A42425  23.875  19.811   6.991
 3225POPC   C4A42426  23.789  19.585   7.379
 3225POPC   C1B42427  23.394  19.691   6.137
 3225POPC   C2B42428  23.541  19.721   6.581
 3225POPC   C3B42429  23.344  19.784   6.937
 3225POPC   C4B42430  23.439  19.974   7.275
 3226POPC   NC342431  29.979  34.714   5.589
 3226POPC   PO442432  30.072  34.049   5.658
 3226POPC   GL142433  30.083  34.390   5.960
 3226POPC   GL242434  29.829  34.673   6.063
 3226POPC   C1A42435  30.192  34.390   6.367
 3226POPC   D2A42436  30.329  34.506   6.741
 3226POPC   C3A42437  30.057  34.405   7.069
 3226POPC   C4A42438  29.856  34.677   7.352
 3226POPC   C1B42439  29.674  34.315   6.272
 3226POPC   C2B42440  29.796  34.185   6.682
 3226POPC   C3B42441  29.547  34.301   7.034
 3226POPC   C4B42442  29.356  34.650   7.176
 3227POPC   NC342443   4.403   9.468   5.473
 3227POPC   PO442444   4.151   9.981   5.145
 3227POPC   GL142445   4.298   9.943   5.650
 3227POPC   GL242446   4.631   9.851   5.761
 3227POPC   C1A42447   4.247   9.876   6.111
 3227POPC   D2A42448   4.457   9.930   6.526
 3227POPC   C3A42449   4.253   9.761   6.925
 3227POPC   C4A42450   4.375   9.939   7.301
 3227POPC   C1B42451   4.572   9.484   6.108
 3227POPC   C2B42452   4.443   9.420   6.536
 3227POPC   C3B42453   4.731   9.604   6.828
 3227POPC   C4B42454   4.679   9.528   7.224
 3228POPC   NC342455  40.811  30.205   5.456
 3228POPC   PO442456  40.478  29.645   5.612
 3228POPC   GL142457  40.769  29.906   5.897
 3228POPC   GL242458  40.953  30.277   5.927
 3228POPC   C1A42459  40.550  30.096   6.238
 3228POPC   D2A42460  40.592  30.200   6.657
 3228POPC   C3A42461  40.904  29.926   6.820
 3228POPC   C4A42462  40.815  29.885   7.230
 3228POPC   C1B42463  40.997  30.315   6.357
 3228POPC   C2B42464  41.028  30.499   6.726
 3228POPC   C3B42465  40.885  30.364   7.072
 3228POPC   C4B42466  41.026  30.375   7.483
 3229POPC   NC342467  40.370   6.530   5.628
 3229POPC   PO442468  40.761   6.962   5.273
 3229POPC   GL142469  40.867   6.800   5.709
 3229POPC   GL242470  40.647   6.707   5.989
 3229POPC   C1A42471  41.092   6.851   6.117
 3229POPC   D2A42472  40.897   6.665   6.488
 3229POPC   C3A42473  41.010   6.734   6.895
 3229POPC   C4A42474  40.910   6.452   7.213
 3229POPC   C1B42475  40.410   6.537   6.320
 3229POPC   C2B42476  40.266   6.617   6.738
 3229POPC   C3B42477  40.469   6.697   7.149
 3229POPC   C4B42478  40.533   6.453   7.550
 3230POPC   NC342479  26.062  24.635   5.223
 3230POPC   PO442480  26.162  24.131   5.607
 3230POPC   GL142481  26.228  24.514   5.835
 3230POPC   GL242482  25.979  24.748   5.784
 3230POPC   C1A42483  26.237  24.659   6.254
 3230POPC   D2A42484  26.424  24.796   6.627
 3230POPC   C3A42485  26.183  24.632   6.972
 3230POPC   C4A42486  26.119  24.792   7.382
 3230POPC   C1B42487  25.789  24.463   6.100
 3230POPC   C2B42488  25.930  24.304   6.499
 3230POPC   C3B42489  25.776  24.321   6.910
 3230POPC   C4B42490  25.860  24.369   7.312
 3231POPC   NC342491  42.115  30.542   5.147
 3231POPC   PO442492  42.467  31.023   5.409
 3231POPC   GL142493  42.323  30.886   5.786
 3231POPC   GL242494  42.062  31.051   5.801
 3231POPC   C1A42495  42.419  30.708   6.180
 3231POPC   D2A42496  42.249  30.484   6.552
 3231POPC   C3A42497  42.450  30.566   6.965
 3231POPC   C4A42498  42.209  30.383   7.292
 3231POPC   C1B42499  41.913  30.908   6.183
 3231POPC   C2B42500  41.780  30.904   6.611
 3231POPC   C3B42501  41.967  30.793   7.002
 3231POPC   C4B42502  41.913  30.864   7.426
 3232POPC   NC342503  11.308  35.874   5.329
 3232POPC   PO442504  11.676  36.364   5.510
 3232POPC   GL142505  11.282  36.177   5.748
 3232POPC   GL242506  11.230  35.785   5.819
 3232POPC   C1A42507  11.160  36.315   6.183
 3232POPC   D2A42508  11.050  36.182   6.596
 3232POPC   C3A42509  11.325  36.194   6.895
 3232POPC   C4A42510  11.230  36.190   7.279
 3232POPC   C1B42511  11.158  35.805   6.244
 3232POPC   C2B42512  11.272  35.696   6.637
 3232POPC   C3B42513  11.149  35.737   7.043
 3232POPC   C4B42514  10.980  35.555   7.384
 3233POPC   NC342515  22.430  34.324   5.429
 3233POPC   PO442516  21.956  34.868   5.498
 3233POPC   GL142517  21.962  34.459   5.715
 3233POPC   GL242518  22.272  34.579   5.823
 3233POPC   C1A42519  22.014  34.267   6.148
 3233POPC   D2A42520  22.252  34.415   6.522
 3233POPC   C3A42521  22.199  34.232   6.935
 3233POPC   C4A42522  22.102  34.431   7.293
 3233POPC   C1B42523  22.079  34.781   6.166
 3233POPC   C2B42524  22.223  34.950   6.554
 3233POPC   C3B42525  22.106  34.780   6.926
 3233POPC   C4B42526  21.796  34.842   7.237
 3234POPC   NC342527  18.344  11.002   5.208
 3234POPC   PO442528  18.280  10.303   5.436
 3234POPC   GL142529  18.257  10.542   5.797
 3234POPC   GL242530  18.159  10.883   5.701
 3234POPC   C1A42531  18.060  10.495   6.208
 3234POPC   D2A42532  17.879  10.456   6.639
 3234POPC   C3A42533  18.240  10.360   6.881
 3234POPC   C4A42534  18.224  10.509   7.282
 3234POPC   C1B42535  18.259  10.977   6.156
 3234POPC   C2B42536  18.267  10.805   6.578
 3234POPC   C3B42537  18.100  10.898   6.982
 3234POPC   C4B42538  18.383  11.018   7.319
 3235POPC   NC342539  33.299   5.276   5.657
 3235POPC   PO442540  33.953   5.151   5.449
 3235POPC   GL142541  34.156   4.942   5.827
 3235POPC   GL242542  33.810   4.899   5.965
 3235POPC   C1A42543  34.189   4.910   6.300
 3235POPC   D2A42544  33.827   4.840   6.545
 3235POPC   C3A42545  33.836   5.016   6.925
 3235POPC   C4A42546  33.566   5.145   7.208
 3235POPC   C1B42547  33.897   5.312   6.148
 3235POPC   C2B42548  34.006   5.386   6.568
 3235POPC   C3B42549  34.213   5.363   6.959
 3235POPC   C4B42550  33.998   5.401   7.312
 3236POPC   NC342551  18.717  34.607   5.516
 3236POPC   PO442552  19.327  34.413   5.405
 3236POPC   GL142553  19.147  34.567   5.805
 3236POPC   GL242554  18.943  34.260   5.853
 3236POPC   C1A42555  19.155  34.719   6.260
 3236POPC   D2A42556  18.872  34.704   6.667
 3236POPC   C3A42557  19.066  34.799   7.096
 3236POPC   C4A42558  19.538  34.848   7.220
 3236POPC   C1B42559  18.904  34.285   6.289
 3236POPC   C2B42560  19.046  34.214   6.677
 3236POPC   C3B42561  18.869  34.290   7.070
 3236POPC   C4B42562  18.539  34.351   7.343
 3237POPC   NC342563  42.862  28.614   5.060
 3237POPC   PO442564  42.590  28.067   5.370
 3237POPC   GL142565  42.839  28.240   5.771
 3237POPC   GL242566  43.199  28.404   5.754
 3237POPC   C1A42567  42.923  28.410   6.223
 3237POPC   D2A42568  43.113  28.438   6.684
 3237POPC   C3A42569  42.915  28.393   7.130
 3237POPC   C4A42570  42.923  28.568   7.575
 3237POPC   C1B42571  43.401  28.166   6.132
 3237POPC   C2B42572  43.529  28.111   6.609
 3237POPC   C3B42573  43.427  28.223   7.090
 3237POPC   C4B42574  43.372  28.329   7.536
 3238POPC   NC342575   9.546  18.475   5.524
 3238POPC   PO442576  10.076  18.030   5.617
 3238POPC   GL142577   9.811  18.210   5.903
 3238POPC   GL242578   9.927  18.550   5.916
 3238POPC   C1A42579   9.598  18.346   6.282
 3238POPC   D2A42580   9.787  18.511   6.652
 3238POPC   C3A42581   9.772  18.243   7.026
 3238POPC   C4A42582   9.402  18.260   7.261
 3238POPC   C1B42583  10.122  18.355   6.293
 3238POPC   C2B42584  10.290  18.495   6.703
 3238POPC   C3B42585  10.105  18.676   7.019
 3238POPC   C4B42586  10.047  18.523   7.384
 3239POPC   NC342587  29.391  27.785   5.418
 3239POPC   PO442588  29.373  27.078   5.346
 3239POPC   GL142589  29.312  27.384   5.754
 3239POPC   GL242590  29.540  27.650   5.876
 3239POPC   C1A42591  29.059  27.515   6.154
 3239POPC   D2A42592  29.124  27.320   6.581
 3239POPC   C3A42593  29.246  27.483   6.991
 3239POPC   C4A42594  28.935  27.727   7.203
 3239POPC   C1B42595  29.528  27.529   6.297
 3239POPC   C2B42596  29.323  27.804   6.583
 3239POPC   C3B42597  29.318  27.996   6.977
 3239POPC   C4B42598  29.398  27.830   7.388
 3240POPC   NC342599   1.381  13.494   5.192
 3240POPC   PO442600   1.012  13.238   5.724
 3240POPC   GL142601   1.145  13.656   5.945
 3240POPC   GL242602   1.323  13.994   5.953
 3240POPC   C1A42603   1.422  13.646   6.308
 3240POPC   D2A42604   1.537  13.335   6.594
 3240POPC   C3A42605   1.177  13.316   6.814
 3240POPC   C4A42606   1.140  13.366   7.233
 3240POPC   C1B42607   1.063  14.178   6.271
 3240POPC   C2B42608   0.971  14.134   6.709
 3240POPC   C3B42609   1.276  13.845   6.885
 3240POPC   C4B42610   1.562  13.951   7.169
 3241POPC   NC342611  26.866  35.417   5.315
 3241POPC   PO442612  26.264  35.101   5.536
 3241POPC   GL142613  26.645  35.101   5.827
 3241POPC   GL242614  26.856  35.406   5.822
 3241POPC   C1A42615  26.914  35.129   6.237
 3241POPC   D2A42616  27.024  35.317   6.630
 3241POPC   C3A42617  26.988  35.054   6.978
 3241POPC   C4A42618  27.142  34.956   7.392
 3241POPC   C1B42619  26.555  35.514   6.159
 3241POPC   C2B42620  26.647  35.684   6.570
 3241POPC   C3B42621  26.592  35.540   6.971
 3241POPC   C4B42622  26.919  35.468   7.250
 3242POPC   NC342623  15.223   4.645   5.554
 3242POPC   PO442624  14.963   3.967   5.465
 3242POPC   GL142625  15.149   4.174   5.791
 3242POPC   GL242626  15.496   4.113   5.791
 3242POPC   C1A42627  14.971   4.304   6.171
 3242POPC   D2A42628  15.115   4.523   6.568
 3242POPC   C3A42629  14.982   4.213   6.873
 3242POPC   C4A42630  14.848   4.134   7.261
 3242POPC   C1B42631  15.462   4.290   6.218
 3242POPC   C2B42632  15.451   4.123   6.650
 3242POPC   C3B42633  15.431   4.330   7.055
 3242POPC   C4B42634  15.133   4.590   7.226
 3243POPC   NC342635  28.929  27.115   5.522
 3243POPC   PO442636  29.414  26.599   5.639
 3243POPC   GL142637  29.315  26.891   5.885
 3243POPC   GL242638  28.997  26.777   5.903
 3243POPC   C1A42639  29.260  26.900   6.312
 3243POPC   D2A42640  28.974  26.831   6.623
 3243POPC   C3A42641  29.245  26.958   6.953
 3243POPC   C4A42642  29.465  27.003   7.363
 3243POPC   C1B42643  28.782  27.089   6.180
 3243POPC   C2B42644  28.613  27.204   6.579
 3243POPC   C3B42645  28.793  27.240   7.007
 3243POPC   C4B42646  28.933  26.987   7.351
 3244POPC   NC342647  30.389  40.142   5.507
 3244POPC   PO442648  31.011  40.376   5.592
 3244POPC   GL142649  30.824  40.176   5.947
 3244POPC   GL242650  30.452  40.125   6.003
 3244POPC   C1A42651  30.787  40.089   6.387
 3244POPC   D2A42652  31.029  40.094   6.728
 3244POPC   C3A42653  30.921  40.012   7.174
 3244POPC   C4A42654  30.707  40.239   7.517
 3244POPC   C1B42655  30.394  39.779   6.311
 3244POPC   C2B42656  30.308  39.694   6.732
 3244POPC   C3B42657  30.411  39.937   7.081
 3244POPC   C4B42658  30.226  40.051   7.456
 3245POPC   NC342659   1.742  23.265   5.315
 3245POPC   PO442660   1.800  23.911   5.478
 3245POPC   GL142661   2.006  23.710   5.791
 3245POPC   GL242662   2.012  23.319   5.786
 3245POPC   C1A42663   2.109  23.824   6.210
 3245POPC   D2A42664   2.066  23.762   6.636
 3245POPC   C3A42665   1.971  23.959   6.993
 3245POPC   C4A42666   2.209  23.729   7.276
 3245POPC   C1B42667   1.720  23.442   6.111
 3245POPC   C2B42668   1.585  23.755   6.408
 3245POPC   C3B42669   1.595  23.641   6.837
 3245POPC   C4B42670   1.711  23.596   7.275
 3246POPC   NC342671  30.782  38.826   5.475
 3246POPC   PO442672  30.554  39.432   5.182
 3246POPC   GL142673  30.730  39.307   5.643
 3246POPC   GL242674  31.103  39.372   5.680
 3246POPC   C1A42675  30.703  39.186   6.129
 3246POPC   D2A42676  30.963  39.078   6.548
 3246POPC   C3A42677  30.825  39.006   6.993
 3246POPC   C4A42678  30.409  39.000   7.133
 3246POPC   C1B42679  30.869  39.659   5.982
 3246POPC   C2B42680  30.853  39.585   6.420
 3246POPC   C3B42681  30.871  39.608   6.824
 3246POPC   C4B42682  30.608  39.460   7.079
 3247POPC   NC342683  11.780  44.281   5.423
 3247POPC   PO442684  11.162  44.428   5.506
 3247POPC   GL142685  11.385  44.673   5.796
 3247POPC   GL242686  11.602  44.420   5.877
 3247POPC   C1A42687  11.375  44.785   6.242
 3247POPC   D2A42688  11.490  44.618   6.640
 3247POPC   C3A42689  11.359  44.786   7.065
 3247POPC   C4A42690  11.215  44.760   7.522
 3247POPC   C1B42691  11.674  44.262   6.255
 3247POPC   C2B42692  11.790  44.190   6.653
 3247POPC   C3B42693  11.587  44.298   7.015
 3247POPC   C4B42694  11.402  44.323   7.356
 3248POPC   NC342695   1.014  13.960   5.513
 3248POPC   PO442696   1.376  14.463   5.169
 3248POPC   GL142697   1.403  14.414   5.655
 3248POPC   GL242698   1.058  14.429   5.801
 3248POPC   C1A42699   1.491  14.467   6.141
 3248POPC   D2A42700   1.512  14.280   6.571
 3248POPC   C3A42701   1.475  14.485   6.946
 3248POPC   C4A42702   1.159  14.278   7.182
 3248POPC   C1B42703   1.039  14.712   6.179
 3248POPC   C2B42704   1.093  14.611   6.607
 3248POPC   C3B42705   0.812  14.572   6.981
 3248POPC   C4B42706   0.707  14.706   7.421
 3249POPC   NC342707  32.209  31.892   5.375
 3249POPC   PO442708  32.637  31.360   5.430
 3249POPC   GL142709  32.485  31.366   5.819
 3249POPC   GL242710  32.158  31.522   5.771
 3249POPC   C1A42711  32.235  31.217   6.183
 3249POPC   D2A42712  32.090  31.413   6.557
 3249POPC   C3A42713  32.203  31.200   6.947
 3249POPC   C4A42714  32.340  31.325   7.332
 3249POPC   C1B42715  31.960  31.701   6.150
 3249POPC   C2B42716  31.889  31.872   6.556
 3249POPC   C3B42717  31.936  31.944   6.970
 3249POPC   C4B42718  32.002  31.699   7.294
 3250POPC   NC342719  19.376  17.257   5.543
 3250POPC   PO442720  18.886  17.666   5.222
 3250POPC   GL142721  19.001  17.556   5.725
 3250POPC   GL242722  19.174  17.264   6.001
 3250POPC   C1A42723  18.935  17.675   6.177
 3250POPC   D2A42724  18.833  17.465   6.576
 3250POPC   C3A42725  19.010  17.555   6.966
 3250POPC   C4A42726  19.073  17.472   7.432
 3250POPC   C1B42727  19.567  17.145   6.271
 3250POPC   C2B42728  19.593  17.077   6.730
 3250POPC   C3B42729  19.438  17.289   7.127
 3250POPC   C4B42730  19.476  17.210   7.605
 3251POPC   NC342731  34.430  35.940   5.462
 3251POPC   PO442732  34.902  36.370   5.436
 3251POPC   GL142733  34.708  36.219   5.810
 3251POPC   GL242734  34.356  36.355   5.808
 3251POPC   C1A42735  34.506  36.015   6.167
 3251POPC   D2A42736  34.569  35.783   6.547
 3251POPC   C3A42737  34.511  36.081   6.872
 3251POPC   C4A42738  34.649  36.188   7.259
 3251POPC   C1B42739  34.213  36.480   6.236
 3251POPC   C2B42740  34.318  36.525   6.686
 3251POPC   C3B42741  34.264  36.472   7.133
 3251POPC   C4B42742  34.543  36.665   7.449
 3252POPC   NC342743  22.622  18.300   5.291
 3252POPC   PO442744  23.118  18.599   5.536
 3252POPC   GL142745  22.926  18.486   5.893
 3252POPC   GL242746  22.748  18.209   5.780
 3252POPC   C1A42747  23.065  18.495   6.311
 3252POPC   D2A42748  22.846  18.433   6.681
 3252POPC   C3A42749  23.108  18.509   7.000
 3252POPC   C4A42750  23.136  18.399   7.398
 3252POPC   C1B42751  22.902  18.031   6.170
 3252POPC   C2B42752  22.827  17.931   6.588
 3252POPC   C3B42753  22.924  18.028   7.020
 3252POPC   C4B42754  22.826  18.011   7.437
 3253POPC   NC342755  30.748  10.455   5.093
 3253POPC   PO442756  31.431  10.592   5.300
 3253POPC   GL142757  31.363  10.599   5.740
 3253POPC   GL242758  31.632  10.411   5.852
 3253POPC   C1A42759  31.162  10.545   6.135
 3253POPC   D2A42760  31.066  10.578   6.573
 3253POPC   C3A42761  31.392  10.415   6.827
 3253POPC   C4A42762  31.465  10.583   7.236
 3253POPC   C1B42763  31.619  10.329   6.317
 3253POPC   C2B42764  31.833  10.038   6.614
 3253POPC   C3B42765  31.886  10.026   7.067
 3253POPC   C4B42766  31.762  10.257   7.477
 3254POPC   NC342767  41.192  22.355   5.373
 3254POPC   PO442768  41.460  21.766   5.433
 3254POPC   GL142769  41.451  21.860   5.867
 3254POPC   GL242770  41.438  22.196   5.857
 3254POPC   C1A42771  41.240  21.885   6.266
 3254POPC   D2A42772  41.308  22.082   6.670
 3254POPC   C3A42773  41.664  22.020   6.870
 3254POPC   C4A42774  41.724  21.987   7.270
 3254POPC   C1B42775  41.664  22.190   6.274
 3254POPC   C2B42776  41.649  22.478   6.634
 3254POPC   C3B42777  41.504  22.450   7.078
 3254POPC   C4B42778  41.839  22.481   7.396
 3255POPC   NC342779   9.177   4.400   5.445
 3255POPC   PO442780   8.566   4.087   5.444
 3255POPC   GL142781   8.819   4.322   5.792
 3255POPC   GL242782   9.131   4.089   5.856
 3255POPC   C1A42783   9.052   4.433   6.203
 3255POPC   D2A42784   8.939   4.290   6.628
 3255POPC   C3A42785   9.176   4.233   7.011
 3255POPC   C4A42786   9.133   4.525   7.345
 3255POPC   C1B42787   8.800   3.948   6.161
 3255POPC   C2B42788   8.560   3.956   6.569
 3255POPC   C3B42789   8.712   3.962   7.034
 3255POPC   C4B42790   8.509   4.030   7.464
 3256POPC   NC342791  24.198  17.832   5.589
 3256POPC   PO442792  24.607  17.308   5.286
 3256POPC   GL142793  24.530  17.472   5.745
 3256POPC   GL242794  24.578  17.832   5.915
 3256POPC   C1A42795  24.799  17.454   6.135
 3256POPC   D2A42796  24.682  17.313   6.527
 3256POPC   C3A42797  24.727  17.552   6.875
 3256POPC   C4A42798  24.695  17.391   7.264
 3256POPC   C1B42799  24.336  17.592   6.259
 3256POPC   C2B42800  24.228  17.626   6.709
 3256POPC   C3B42801  24.251  17.610   7.186
 3256POPC   C4B42802  24.283  17.883   7.589
 3257POPC   NC342803   2.395  41.559   5.543
 3257POPC   PO442804   2.996  41.322   5.455
 3257POPC   GL142805   2.837  41.501   5.824
 3257POPC   GL242806   2.959  41.200   5.951
 3257POPC   C1A42807   2.584  41.558   6.214
 3257POPC   D2A42808   2.467  41.321   6.594
 3257POPC   C3A42809   2.523  41.468   7.033
 3257POPC   C4A42810   2.456  41.436   7.519
 3257POPC   C1B42811   3.021  41.291   6.369
 3257POPC   C2B42812   3.018  41.715   6.531
 3257POPC   C3B42813   3.093  41.867   6.949
 3257POPC   C4B42814   2.976  41.606   7.302
 3258POPC   NC342815  44.763  14.930   5.452
 3258POPC   PO442816  44.423  15.412   5.499
 3258POPC   GL142817  44.642  15.222   5.850
 3258POPC   GL242818  44.923  14.967   5.926
 3258POPC   C1A42819  44.571  15.250   6.248
 3258POPC   D2A42820  44.591  15.059   6.606
 3258POPC   C3A42821  44.381  15.346   6.881
 3258POPC   C4A42822  44.362  15.105   7.235
 3258POPC   C1B42823   0.066  15.187   6.293
 3258POPC   C2B42824  44.959  15.396   6.666
 3258POPC   C3B42825  44.844  15.200   7.047
 3258POPC   C4B42826  44.769  14.794   7.121
 3259POPC   NC342827   0.990   0.368   5.077
 3259POPC   PO442828   0.446   0.471   5.469
 3259POPC   GL142829   0.445   0.535   5.879
 3259POPC   GL242830   0.738   0.758   5.895
 3259POPC   C1A42831   0.270   0.382   6.272
 3259POPC   D2A42832   0.497   0.169   6.600
 3259POPC   C3A42833   0.324   0.187   6.992
 3259POPC   C4A42834   0.573   0.283   7.306
 3259POPC   C1B42835   0.693   0.663   6.346
 3259POPC   C2B42836   0.529   0.669   6.771
 3259POPC   C3B42837   0.756   0.733   7.175
 3259POPC   C4B42838   0.816   0.834   7.627
 3260POPC   NC342839  22.458  20.888   5.338
 3260POPC   PO442840  22.147  20.291   5.355
 3260POPC   GL142841  21.972  20.529   5.712
 3260POPC   GL242842  22.101  20.866   5.821
 3260POPC   C1A42843  22.039  20.453   6.153
 3260POPC   D2A42844  22.111  20.593   6.566
 3260POPC   C3A42845  22.359  20.371   6.872
 3260POPC   C4A42846  22.094  20.528   7.200
 3260POPC   C1B42847  22.385  20.858   6.206
 3260POPC   C2B42848  22.599  20.732   6.591
 3260POPC   C3B42849  22.429  20.870   6.969
 3260POPC   C4B42850  22.211  21.042   7.344
 3261POPC   NC342851  40.538  23.099   5.509
 3261POPC   PO442852  41.227  22.836   5.387
 3261POPC   GL142853  40.932  22.907   5.756
 3261POPC   GL242854  40.957  23.291   5.754
 3261POPC   C1A42855  40.867  22.827   6.201
 3261POPC   D2A42856  40.644  22.606   6.526
 3261POPC   C3A42857  40.723  22.793   6.907
 3261POPC   C4A42858  40.671  22.959   7.311
 3261POPC   C1B42859  40.822  23.343   6.164
 3261POPC   C2B42860  40.699  23.177   6.566
 3261POPC   C3B42861  40.791  23.310   6.964
 3261POPC   C4B42862  41.103  23.299   7.282
 3262POPC   NC342863  36.796  14.638   5.227
 3262POPC   PO442864  37.036  14.165   5.599
 3262POPC   GL142865  36.742  14.350   5.839
 3262POPC   GL242866  36.886  14.660   5.740
 3262POPC   C1A42867  36.704  14.173   6.240
 3262POPC   D2A42868  36.460  14.143   6.611
 3262POPC   C3A42869  36.661  14.090   7.005
 3262POPC   C4A42870  36.994  14.123   7.339
 3262POPC   C1B42871  36.976  14.648   6.196
 3262POPC   C2B42872  36.843  14.506   6.611
 3262POPC   C3B42873  36.910  14.537   7.041
 3262POPC   C4B42874  37.113  14.861   7.235
 3263POPC   NC342875  44.805  17.244   5.223
 3263POPC   PO442876  44.253  17.581   5.502
 3263POPC   GL142877  44.625  17.555   5.763
 3263POPC   GL242878  44.806  17.245   5.744
 3263POPC   C1A42879  44.766  17.633   6.195
 3263POPC   D2A42880  44.525  17.595   6.560
 3263POPC   C3A42881  44.751  17.643   6.921
 3263POPC   C4A42882  44.565  17.671   7.303
 3263POPC   C1B42883  44.589  17.136   6.124
 3263POPC   C2B42884  44.721  17.128   6.540
 3263POPC   C3B42885  44.531  17.200   6.938
 3263POPC   C4B42886  44.668  17.137   7.320
 3264POPC   NC342887  25.012  15.463   5.417
 3264POPC   PO442888  25.597  15.048   5.416
 3264POPC   GL142889  25.310  15.104   5.729
 3264POPC   GL242890  25.161  14.794   5.743
 3264POPC   C1A42891  25.321  15.279   6.124
 3264POPC   D2A42892  25.221  15.270   6.543
 3264POPC   C3A42893  25.198  15.565   6.883
 3264POPC   C4A42894  25.305  15.488   7.309
 3264POPC   C1B42895  24.981  14.891   6.162
 3264POPC   C2B42896  24.878  14.895   6.579
 3264POPC   C3B42897  25.066  15.027   6.981
 3264POPC   C4B42898  24.817  15.308   7.274
 3265POPC   NC342899   8.360  14.331   5.451
 3265POPC   PO442900   7.789  14.472   5.221
 3265POPC   GL142901   7.934  14.465   5.710
 3265POPC   GL242902   7.876  14.188   5.886
 3265POPC   C1A42903   8.221  14.533   6.116
 3265POPC   D2A42904   8.393  14.293   6.511
 3265POPC   C3A42905   8.282  14.460   6.930
 3265POPC   C4A42906   8.210  14.295   7.331
 3265POPC   C1B42907   8.007  14.071   6.260
 3265POPC   C2B42908   7.941  14.156   6.691
 3265POPC   C3B42909   7.871  14.017   7.065
 3265POPC   C4B42910   7.824  14.017   7.491
 3266POPC   NC342911  35.643  34.732   5.497
 3266POPC   PO442912  35.043  34.345   5.345
 3266POPC   GL142913  35.260  34.467   5.761
 3266POPC   GL242914  35.566  34.267   5.891
 3266POPC   C1A42915  35.127  34.672   6.161
 3266POPC   D2A42916  35.269  34.796   6.587
 3266POPC   C3A42917  35.064  34.692   6.972
 3266POPC   C4A42918  35.314  34.644   7.340
 3266POPC   C1B42919  35.165  34.150   6.135
 3266POPC   C2B42920  35.072  34.310   6.549
 3266POPC   C3B42921  35.382  34.315   6.892
 3266POPC   C4B42922  35.289  34.142   7.273
 3267POPC   NC342923  39.376  16.346   5.478
 3267POPC   PO442924  38.983  15.823   5.536
 3267POPC   GL142925  39.307  15.753   5.815
 3267POPC   GL242926  39.502  16.075   5.886
 3267POPC   C1A42927  39.157  15.752   6.223
 3267POPC   D2A42928  39.113  16.019   6.560
 3267POPC   C3A42929  39.202  15.917   6.958
 3267POPC   C4A42930  39.163  16.140   7.333
 3267POPC   C1B42931  39.578  16.012   6.293
 3267POPC   C2B42932  39.574  16.269   6.638
 3267POPC   C3B42933  39.634  16.170   7.063
 3267POPC   C4B42934  39.581  15.831   7.346
 3268POPC   NC342935  41.140   2.083   5.608
 3268POPC   PO442936  41.544   1.694   5.153
 3268POPC   GL142937  41.609   1.917   5.708
 3268POPC   GL242938  41.620   1.759   6.013
 3268POPC   C1A42939  41.511   2.208   6.164
 3268POPC   D2A42940  41.655   2.289   6.582
 3268POPC   C3A42941  41.402   2.089   6.860
 3268POPC   C4A42942  41.513   2.174   7.261
 3268POPC   C1B42943  41.547   1.553   6.382
 3268POPC   C2B42944  41.630   1.509   6.798
 3268POPC   C3B42945  41.499   1.676   7.156
 3268POPC   C4B42946  41.715   1.760   7.499
 3269POPC   NC342947   6.778  29.711   5.774
 3269POPC   PO442948   6.943  30.252   5.360
 3269POPC   GL142949   6.545  30.212   5.780
 3269POPC   GL242950   6.285  29.965   5.828
 3269POPC   C1A42951   6.531  30.041   6.270
 3269POPC   D2A42952   6.792  29.822   6.565
 3269POPC   C3A42953   6.693  30.078   6.909
 3269POPC   C4A42954   6.908  30.067   7.267
 3269POPC   C1B42955   6.169  29.689   6.179
 3269POPC   C2B42956   6.307  29.647   6.604
 3269POPC   C3B42957   6.513  29.590   6.967
 3269POPC   C4B42958   6.461  29.830   7.309
 3270POPC   NC342959  40.004  39.383   5.237
 3270POPC   PO442960  40.119  38.862   5.748
 3270POPC   GL142961  40.011  39.166   5.930
 3270POPC   GL242962  40.205  39.404   5.720
 3270POPC   C1A42963  40.081  39.123   6.365
 3270POPC   D2A42964  39.996  39.403   6.655
 3270POPC   C3A42965  39.975  39.209   7.013
 3270POPC   C4A42966  39.807  39.508   7.225
 3270POPC   C1B42967  40.302  39.534   6.139
 3270POPC   C2B42968  40.502  39.413   6.534
 3270POPC   C3B42969  40.452  39.531   6.946
 3270POPC   C4B42970  40.318  39.411   7.341
 3271POPC   NC342971  41.186  35.927   5.524
 3271POPC   PO442972  40.508  36.165   5.444
 3271POPC   GL142973  40.700  35.978   5.764
 3271POPC   GL242974  40.913  36.217   5.853
 3271POPC   C1A42975  40.645  35.892   6.189
 3271POPC   D2A42976  40.601  36.175   6.519
 3271POPC   C3A42977  40.638  36.022   6.910
 3271POPC   C4A42978  40.843  36.009   7.274
 3271POPC   C1B42979  41.024  36.307   6.277
 3271POPC   C2B42980  41.109  36.130   6.681
 3271POPC   C3B42981  41.272  36.223   7.066
 3271POPC   C4B42982  41.190  36.400   7.465
 3272POPC   NC342983  10.282  33.530   5.508
 3272POPC   PO442984  10.755  34.011   5.433
 3272POPC   GL142985  10.464  33.952   5.770
 3272POPC   GL242986  10.653  33.663   5.859
 3272POPC   C1A42987  10.447  33.992   6.225
 3272POPC   D2A42988  10.644  33.894   6.630
 3272POPC   C3A42989  10.443  33.888   7.050
 3272POPC   C4A42990  10.722  33.782   7.406
 3272POPC   C1B42991  10.405  33.462   6.184
 3272POPC   C2B42992  10.350  33.456   6.628
 3272POPC   C3B42993  10.569  33.404   7.019
 3272POPC   C4B42994  10.380  33.434   7.442
 3273POPC   NC342995   1.773  29.661   5.620
 3273POPC   PO442996   2.324  30.114   5.438
 3273POPC   GL142997   2.174  29.950   5.838
 3273POPC   GL242998   2.250  29.590   5.828
 3273POPC   C1A42999   1.983  30.050   6.254
 3273POPC   D2A43000   2.162  30.147   6.670
 3273POPC   C3A43001   1.961  30.078   7.074
 3273POPC   C4A43002   1.519  30.210   7.269
 3273POPC   C1B43003   2.037  29.538   6.229
 3273POPC   C2B43004   1.852  29.677   6.611
 3273POPC   C3B43005   2.021  29.514   6.974
 3273POPC   C4B43006   2.266  29.630   7.301
 3274POPC   NC343007  43.415  25.788   5.371
 3274POPC   PO443008  43.009  26.299   5.331
 3274POPC   GL143009  43.149  26.082   5.764
 3274POPC   GL243010  43.490  25.907   5.873
 3274POPC   C1A43011  43.136  26.110   6.247
 3274POPC   D2A43012  42.922  26.172   6.655
 3274POPC   C3A43013  43.097  26.127   7.088
 3274POPC   C4A43014  42.850  26.121   7.471
 3274POPC   C1B43015  43.358  25.654   6.257
 3274POPC   C2B43016  43.100  25.659   6.664
 3274POPC   C3B43017  43.210  25.629   7.110
 3274POPC   C4B43018  43.129  25.683   7.539
 3275POPC   NC343019  41.205  18.540   5.527
 3275POPC   PO443020  41.837  18.585   5.409
 3275POPC   GL143021  41.828  18.565   5.851
 3275POPC   GL243022  41.515  18.368   5.887
 3275POPC   C1A43023  41.844  18.331   6.263
 3275POPC   D2A43024  41.580  18.270   6.596
 3275POPC   C3A43025  41.709  18.112   6.985
 3275POPC   C4A43026  41.614  18.386   7.279
 3275POPC   C1B43027  41.215  18.353   6.220
 3275POPC   C2B43028  41.090  18.113   6.561
 3275POPC   C3B43029  41.210  18.241   6.956
 3275POPC   C4B43030  41.123  18.493   7.291
 3276POPC   NC343031  43.626  16.390   5.653
 3276POPC   PO443032  44.156  16.018   5.349
 3276POPC   GL143033  44.154  15.939   5.817
 3276POPC   GL243034  44.155  15.562   5.918
 3276POPC   C1A43035  43.955  16.074   6.246
 3276POPC   D2A43036  43.789  16.243   6.673
 3276POPC   C3A43037  43.875  16.067   7.106
 3276POPC   C4A43038  43.615  15.786   7.358
 3276POPC   C1B43039  44.352  15.716   6.283
 3276POPC   C2B43040  44.226  15.834   6.668
 3276POPC   C3B43041  44.353  15.893   7.072
 3276POPC   C4B43042  44.109  15.630   7.313
 3277POPC   NC343043  28.516  19.080   5.533
 3277POPC   PO443044  27.903  18.701   5.604
 3277POPC   GL143045  28.095  19.013   5.778
 3277POPC   GL243046  28.084  19.347   5.823
 3277POPC   C1A43047  28.305  19.016   6.155
 3277POPC   D2A43048  28.171  18.965   6.527
 3277POPC   C3A43049  28.350  18.649   6.792
 3277POPC   C4A43050  28.359  18.597   7.243
 3277POPC   C1B43051  28.179  19.495   6.259
 3277POPC   C2B43052  28.250  19.461   6.702
 3277POPC   C3B43053  28.306  19.369   7.130
 3277POPC   C4B43054  28.570  19.301   7.490
 3278POPC   NC343055  24.897  42.460   5.389
 3278POPC   PO443056  24.243  42.252   5.412
 3278POPC   GL143057  24.551  42.354   5.744
 3278POPC   GL243058  24.811  42.063   5.746
 3278POPC   C1A43059  24.497  42.583   6.149
 3278POPC   D2A43060  24.648  42.655   6.561
 3278POPC   C3A43061  24.503  42.508   7.006
 3278POPC   C4A43062  24.395  42.614   7.469
 3278POPC   C1B43063  24.626  42.082   6.172
 3278POPC   C2B43064  24.552  42.148   6.602
 3278POPC   C3B43065  24.777  42.048   6.973
 3278POPC   C4B43066  24.560  42.123   7.367
 3279POPC   NC343067  42.351  35.545   5.447
 3279POPC   PO443068  41.722  35.333   5.287
 3279POPC   GL143069  41.997  35.314   5.727
 3279POPC   GL243070  42.114  35.657   5.890
 3279POPC   C1A43071  42.244  35.199   6.150
 3279POPC   D2A43072  42.335  35.312   6.593
 3279POPC   C3A43073  42.270  35.074   6.982
 3279POPC   C4A43074  42.313  35.012   7.423
 3279POPC   C1B43075  42.412  35.720   6.258
 3279POPC   C2B43076  42.674  35.675   6.652
 3279POPC   C3B43077  42.620  35.454   7.047
 3279POPC   C4B43078  42.343  35.508   7.394
 3280POPC   NC343079  27.780   0.199   5.393
 3280POPC   PO443080  27.130   0.273   5.524
 3280POPC   GL143081  27.475   0.442   5.794
 3280POPC   GL243082  27.812   0.295   5.889
 3280POPC   C1A43083  27.497   0.483   6.260
 3280POPC   D2A43084  27.474   0.206   6.630
 3280POPC   C3A43085  27.557   0.343   7.047
 3280POPC   C4A43086  27.924   0.268   7.281
 3280POPC   C1B43087  28.018   0.596   6.188
 3280POPC   C2B43088  28.152   0.462   6.579
 3280POPC   C3B43089  27.977   0.662   6.927
 3280POPC   C4B43090  28.037   0.737   7.341
 3281POPC   NC343091   3.750  42.646   5.425
 3281POPC   PO443092   3.264  42.275   5.596
 3281POPC   GL143093   3.416  42.049   5.934
 3281POPC   GL243094   3.767  41.998   5.771
 3281POPC   C1A43095   3.283  42.149   6.375
 3281POPC   D2A43096   3.307  42.574   6.547
 3281POPC   C3A43097   3.389  42.724   6.939
 3281POPC   C4A43098   3.334  42.547   7.323
 3281POPC   C1B43099   3.851  42.268   6.136
 3281POPC   C2B43100   3.750  42.265   6.571
 3281POPC   C3B43101   3.495  42.216   6.920
 3281POPC   C4B43102   3.757  42.234   7.254
 3282POPC   NC343103  20.060  22.843   5.418
 3282POPC   PO443104  19.430  22.814   5.250
 3282POPC   GL143105  19.651  22.800   5.736
 3282POPC   GL243106  19.998  22.947   5.911
 3282POPC   C1A43107  19.741  22.612   6.189
 3282POPC   D2A43108  19.652  22.829   6.600
 3282POPC   C3A43109  19.808  22.748   7.023
 3282POPC   C4A43110  19.820  22.951   7.447
 3282POPC   C1B43111  19.777  23.167   6.222
 3282POPC   C2B43112  19.828  23.374   6.612
 3282POPC   C3B43113  19.925  23.253   7.027
 3282POPC   C4B43114  19.655  23.427   7.349
 3283POPC   NC343115  20.419  17.634   5.462
 3283POPC   PO443116  20.928  17.164   5.243
 3283POPC   GL143117  20.712  17.231   5.669
 3283POPC   GL243118  20.842  17.563   5.767
 3283POPC   C1A43119  20.554  17.307   6.126
 3283POPC   D2A43120  20.315  17.351   6.533
 3283POPC   C3A43121  20.488  17.346   6.968
 3283POPC   C4A43122  20.351  17.687   7.259
 3283POPC   C1B43123  20.975  17.596   6.202
 3283POPC   C2B43124  20.797  17.557   6.594
 3283POPC   C3B43125  20.905  17.719   6.993
 3283POPC   C4B43126  20.827  17.471   7.338
 3284POPC   NC343127  34.088  22.245   5.404
 3284POPC   PO443128  33.483  22.135   5.424
 3284POPC   GL143129  33.751  22.159   5.804
 3284POPC   GL243130  33.939  21.873   5.763
 3284POPC   C1A43131  33.742  22.174   6.278
 3284POPC   D2A43132  33.690  22.268   6.742
 3284POPC   C3A43133  33.678  21.949   7.092
 3284POPC   C4A43134  33.629  22.233   7.431
 3284POPC   C1B43135  33.940  21.705   6.187
 3284POPC   C2B43136  33.945  21.822   6.634
 3284POPC   C3B43137  34.147  22.075   6.976
 3284POPC   C4B43138  34.139  22.086   7.432
 3285POPC   NC343139  10.999  40.922   5.447
 3285POPC   PO443140  11.443  40.385   5.514
 3285POPC   GL143141  11.376  40.758   5.772
 3285POPC   GL243142  11.681  40.971   5.826
 3285POPC   C1A43143  11.252  40.674   6.189
 3285POPC   D2A43144  11.455  40.369   6.454
 3285POPC   C3A43145  11.458  40.424   6.889
 3285POPC   C4A43146  11.305  40.524   7.267
 3285POPC   C1B43147  11.509  41.126   6.212
 3285POPC   C2B43148  11.451  40.906   6.614
 3285POPC   C3B43149  11.359  40.981   7.053
 3285POPC   C4B43150  11.421  41.034   7.531
 3286POPC   NC343151  26.521  28.940   5.058
 3286POPC   PO443152  26.920  29.381   5.367
 3286POPC   GL143153  26.976  29.170   5.781
 3286POPC   GL243154  27.319  29.273   5.924
 3286POPC   C1A43155  26.684  28.996   6.140
 3286POPC   D2A43156  26.487  28.794   6.511
 3286POPC   C3A43157  26.628  28.941   6.894
 3286POPC   C4A43158  26.688  28.986   7.314
 3286POPC   C1B43159  27.054  29.345   6.266
 3286POPC   C2B43160  26.860  29.351   6.671
 3286POPC   C3B43161  27.004  29.527   7.065
 3286POPC   C4B43162  27.293  29.329   7.320
 3287POPC   NC343163  12.504  27.177   5.396
 3287POPC   PO443164  13.119  26.834   5.403
 3287POPC   GL143165  12.899  26.958   5.754
 3287POPC   GL243166  12.596  26.745   5.751
 3287POPC   C1A43167  13.080  27.052   6.170
 3287POPC   D2A43168  13.208  26.839   6.562
 3287POPC   C3A43169  13.064  26.883   7.001
 3287POPC   C4A43170  12.873  26.597   7.400
 3287POPC   C1B43171  12.641  26.808   6.201
 3287POPC   C2B43172  12.700  26.661   6.620
 3287POPC   C3B43173  12.579  26.770   7.018
 3287POPC   C4B43174  12.729  27.074   7.338
 3288POPC   NC343175  40.487  28.556   5.292
 3288POPC   PO443176  40.889  28.038   5.404
 3288POPC   GL143177  40.930  28.368   5.697
 3288POPC   GL243178  40.591  28.431   5.783
 3288POPC   C1A43179  40.988  28.565   6.096
 3288POPC   D2A43180  40.806  28.513   6.507
 3288POPC   C3A43181  41.054  28.508   6.881
 3288POPC   C4A43182  40.877  28.512   7.283
 3288POPC   C1B43183  40.386  28.701   6.092
 3288POPC   C2B43184  40.312  28.713   6.549
 3288POPC   C3B43185  40.401  28.838   6.999
 3288POPC   C4B43186  40.370  28.554   7.315
 3289POPC   NC343187  12.516   2.965   5.411
 3289POPC   PO443188  13.036   2.608   5.635
 3289POPC   GL143189  12.838   2.778   5.939
 3289POPC   GL243190  12.549   2.609   5.856
 3289POPC   C1A43191  12.875   2.605   6.349
 3289POPC   D2A43192  12.779   2.471   6.738
 3289POPC   C3A43193  12.760   2.828   6.994
 3289POPC   C4A43194  12.960   2.934   7.413
 3289POPC   C1B43195  12.470   2.350   6.212
 3289POPC   C2B43196  12.367   2.166   6.614
 3289POPC   C3B43197  12.383   2.376   7.050
 3289POPC   C4B43198  12.763   2.419   7.275
 3290POPC   NC343199  36.395   6.344   5.356
 3290POPC   PO443200  35.974   6.882   5.355
 3290POPC   GL143201  36.095   6.897   5.776
 3290POPC   GL243202  36.153   6.537   5.808
 3290POPC   C1A43203  35.950   6.988   6.202
 3290POPC   D2A43204  35.953   6.752   6.600
 3290POPC   C3A43205  35.893   6.949   7.014
 3290POPC   C4A43206  35.850   6.798   7.416
 3290POPC   C1B43207  36.323   6.437   6.233
 3290POPC   C2B43208  36.403   6.272   6.667
 3290POPC   C3B43209  36.143   6.469   7.009
 3290POPC   C4B43210  36.159   6.348   7.444
 3291POPC   NC343211   0.039   0.149   5.377
 3291POPC   PO443212  44.798   0.831   5.212
 3291POPC   GL143213  44.797   0.611   5.644
 3291POPC   GL243214  44.667   0.249   5.731
 3291POPC   C1A43215  44.845   0.642   6.094
 3291POPC   D2A43216  44.781   0.362   6.455
 3291POPC   C3A43217  44.903   0.458   6.871
 3291POPC   C4A43218  44.697   0.697   7.188
 3291POPC   C1B43219  44.385   0.386   6.078
 3291POPC   C2B43220  44.322   0.602   6.453
 3291POPC   C3B43221  44.382   0.393   6.846
 3291POPC   C4B43222  44.208   0.478   7.239
 3292POPC   NC343223  14.450  37.740   5.414
 3292POPC   PO443224  14.044  37.264   5.664
 3292POPC   GL143225  14.202  37.669   5.878
 3292POPC   GL243226  14.600  37.785   5.900
 3292POPC   C1A43227  14.305  37.739   6.308
 3292POPC   D2A43228  14.491  37.548   6.629
 3292POPC   C3A43229  14.354  37.759   6.971
 3292POPC   C4A43230  14.458  37.577   7.371
 3292POPC   C1B43231  14.840  37.853   6.309
 3292POPC   C2B43232  14.826  37.958   6.765
 3292POPC   C3B43233  14.772  37.955   7.219
 3292POPC   C4B43234  14.597  37.964   7.658
 3293POPC   NC343235  29.800  10.221   5.496
 3293POPC   PO443236  30.362  10.629   5.279
 3293POPC   GL143237  30.219  10.551   5.812
 3293POPC   GL243238  29.870  10.410   5.976
 3293POPC   C1A43239  30.275  10.475   6.244
 3293POPC   D2A43240  29.925  10.597   6.536
 3293POPC   C3A43241  29.903  10.702   6.959
 3293POPC   C4A43242  30.246  10.682   7.194
 3293POPC   C1B43243  29.877  10.137   6.360
 3293POPC   C2B43244  29.861  10.206   6.844
 3293POPC   C3B43245  29.765  10.317   7.314
 3293POPC   C4B43246  29.598  10.267   7.776
 3294POPC   NC343247  44.791   9.408   5.544
 3294POPC   PO443248  44.544  10.074   5.552
 3294POPC   GL143249  44.562   9.767   5.862
 3294POPC   GL243250  44.324   9.478   5.792
 3294POPC   C1A43251  44.639   9.849   6.281
 3294POPC   D2A43252  44.391  10.052   6.575
 3294POPC   C3A43253  44.560   9.942   6.951
 3294POPC   C4A43254  44.893   9.710   7.144
 3294POPC   C1B43255  44.574   9.322   6.150
 3294POPC   C2B43256  44.636   9.240   6.567
 3294POPC   C3B43257  44.738   9.247   7.001
 3294POPC   C4B43258  44.653   9.376   7.457
 3295POPC   NC343259  22.323  13.172   5.421
 3295POPC   PO443260  22.142  12.488   5.290
 3295POPC   GL143261  22.045  12.747   5.700
 3295POPC   GL243262  22.328  12.876   5.875
 3295POPC   C1A43263  21.857  12.941   6.127
 3295POPC   D2A43264  21.939  13.123   6.581
 3295POPC   C3A43265  21.932  12.833   6.946
 3295POPC   C4A43266  21.880  12.557   7.316
 3295POPC   C1B43267  22.298  12.792   6.325
 3295POPC   C2B43268  22.426  12.988   6.679
 3295POPC   C3B43269  22.403  12.862   7.081
 3295POPC   C4B43270  22.266  12.846   7.461
 3296POPC   NC343271  44.985  27.529   5.422
 3296POPC   PO443272  44.237  27.448   5.403
 3296POPC   GL143273  44.584  27.467   5.720
 3296POPC   GL243274  44.659  27.746   5.840
 3296POPC   C1A43275  44.731  27.338   6.186
 3296POPC   D2A43276   0.006  27.407   6.525
 3296POPC   C3A43277  44.974  27.255   6.951
 3296POPC   C4A43278  44.722  27.412   7.270
 3296POPC   C1B43279  44.658  27.927   6.249
 3296POPC   C2B43280  44.580  27.989   6.693
 3296POPC   C3B43281  44.748  27.909   7.095
 3296POPC   C4B43282   0.089  27.903   7.416
 3297POPC   NC343283   0.091   3.526   5.471
 3297POPC   PO443284  44.467   3.574   5.449
 3297POPC   GL143285  44.650   3.516   5.868
 3297POPC   GL243286  44.473   3.197   5.844
 3297POPC   C1A43287  44.789   3.585   6.337
 3297POPC   D2A43288  44.778   3.711   6.801
 3297POPC   C3A43289   0.046   3.420   7.108
 3297POPC   C4A43290  44.934   3.346   7.586
 3297POPC   C1B43291  44.404   3.237   6.279
 3297POPC   C2B43292  44.590   3.236   6.706
 3297POPC   C3B43293  44.540   3.379   7.133
 3297POPC   C4B43294  44.424   3.276   7.525
 3298POPC   NC343295  14.090   7.641   5.337
 3298POPC   PO443296  14.460   8.293   5.411
 3298POPC   GL143297  14.324   8.121   5.780
 3298POPC   GL243298  14.631   8.193   5.944
 3298POPC   C1A43299  14.165   8.355   6.150
 3298POPC   D2A43300  14.246   8.524   6.577
 3298POPC   C3A43301  14.350   8.184   6.848
 3298POPC   C4A43302  14.376   8.056   7.262
 3298POPC   C1B43303  14.625   8.603   6.223
 3298POPC   C2B43304  14.745   8.689   6.660
 3298POPC   C3B43305  14.637   8.531   7.100
 3298POPC   C4B43306  14.733   8.344   7.510
 3299POPC   NC343307  14.495  38.652   5.435
 3299POPC   PO443308  14.160  38.103   5.361
 3299POPC   GL143309  14.377  38.241   5.752
 3299POPC   GL243310  14.266  38.581   5.890
 3299POPC   C1A43311  14.474  38.224   6.203
 3299POPC   D2A43312  14.396  38.502   6.555
 3299POPC   C3A43313  14.460  38.306   6.964
 3299POPC   C4A43314  14.259  38.104   7.317
 3299POPC   C1B43315  14.653  38.718   6.139
 3299POPC   C2B43316  14.776  38.861   6.538
 3299POPC   C3B43317  14.541  38.864   6.921
 3299POPC   C4B43318  14.677  38.678   7.250
 3300POPC   NC343319   0.766  34.638   5.301
 3300POPC   PO443320   0.138  34.566   5.401
 3300POPC   GL143321   0.260  34.524   5.853
 3300POPC   GL243322   0.566  34.333   5.890
 3300POPC   C1A43323   0.243  34.858   6.203
 3300POPC   D2A43324   0.473  34.954   6.554
 3300POPC   C3A43325   0.482  34.699   6.921
 3300POPC   C4A43326   0.422  34.978   7.292
 3300POPC   C1B43327   0.497  34.440   6.351
 3300POPC   C2B43328   0.246  34.230   6.657
 3300POPC   C3B43329   0.226  34.246   7.098
 3300POPC   C4B43330   0.467  34.467   7.400
 3301POPC   NC343331  21.696  44.255   5.237
 3301POPC   PO443332  21.172  43.710   5.373
 3301POPC   GL143333  21.165  43.824   5.835
 3301POPC   GL243334  21.529  43.926   5.873
 3301POPC   C1A43335  21.309  43.721   6.298
 3301POPC   D2A43336  21.574  43.833   6.693
 3301POPC   C3A43337  21.281  43.828   7.047
 3301POPC   C4A43338  21.277  43.770   7.497
 3301POPC   C1B43339  21.575  44.189   6.278
 3301POPC   C2B43340  21.605  44.353   6.698
 3301POPC   C3B43341  21.600  44.227   7.116
 3301POPC   C4B43342  21.729  43.961   7.432
 3302POPC   NC343343  28.113  10.726   5.730
 3302POPC   PO443344  28.711  10.525   5.394
 3302POPC   GL143345  28.520  10.333   5.791
 3302POPC   GL243346  28.209  10.231   5.960
 3302POPC   C1A43347  28.671  10.294   6.219
 3302POPC   D2A43348  28.645  10.640   6.549
 3302POPC   C3A43349  28.386  10.485   6.860
 3302POPC   C4A43350  28.305  10.254   7.194
 3302POPC   C1B43351  28.215  10.494   6.347
 3302POPC   C2B43352  28.020  10.781   6.641
 3302POPC   C3B43353  27.912  10.660   7.044
 3302POPC   C4B43354  28.175  10.693   7.392
 3303POPC   NC343355  20.044  21.667   5.417
 3303POPC   PO443356  19.739  21.118   5.272
 3303POPC   GL143357  19.785  21.332   5.718
 3303POPC   GL243358  20.079  21.475   5.889
 3303POPC   C1A43359  19.639  21.315   6.157
 3303POPC   D2A43360  19.785  21.169   6.567
 3303POPC   C3A43361  19.698  21.468   6.884
 3303POPC   C4A43362  19.770  21.340   7.278
 3303POPC   C1B43363  20.118  21.489   6.325
 3303POPC   C2B43364  20.136  21.730   6.692
 3303POPC   C3B43365  20.182  21.618   7.094
 3303POPC   C4B43366  20.280  21.215   7.210
 3304POPC   NC343367   4.949  30.885   5.396
 3304POPC   PO443368   5.420  30.435   5.561
 3304POPC   GL143369   5.306  30.516   5.936
 3304POPC   GL243370   4.981  30.596   5.863
 3304POPC   C1A43371   5.244  30.807   6.268
 3304POPC   D2A43372   4.935  30.811   6.579
 3304POPC   C3A43373   5.175  30.611   6.863
 3304POPC   C4A43374   5.286  30.464   7.236
 3304POPC   C1B43375   4.934  30.369   6.274
 3304POPC   C2B43376   4.767  30.341   6.689
 3304POPC   C3B43377   4.807  30.341   7.141
 3304POPC   C4B43378   4.962  30.296   7.593
 3305POPC   NC343379  15.777  33.618   5.316
 3305POPC   PO443380  16.030  34.307   5.413
 3305POPC   GL143381  16.029  33.945   5.684
 3305POPC   GL243382  15.714  34.031   5.790
 3305POPC   C1A43383  15.934  33.633   6.049
 3305POPC   D2A43384  15.952  33.431   6.470
 3305POPC   C3A43385  15.771  33.574   6.854
 3305POPC   C4A43386  16.064  33.618   7.210
 3305POPC   C1B43387  15.970  34.149   6.151
 3305POPC   C2B43388  15.980  33.947   6.553
 3305POPC   C3B43389  15.836  34.079   6.966
 3305POPC   C4B43390  15.644  33.876   7.301
 3306POPC   NC343391  32.147  39.584   5.485
 3306POPC   PO443392  32.499  40.173   5.386
 3306POPC   GL143393  32.368  40.066   5.823
 3306POPC   GL243394  32.360  39.728   5.947
 3306POPC   C1A43395  32.202  40.100   6.277
 3306POPC   D2A43396  32.177  39.866   6.677
 3306POPC   C3A43397  32.105  40.102   7.076
 3306POPC   C4A43398  32.281  40.103   7.513
 3306POPC   C1B43399  31.924  39.666   6.189
 3306POPC   C2B43400  31.830  39.505   6.630
 3306POPC   C3B43401  31.810  39.688   7.026
 3306POPC   C4B43402  31.923  39.748   7.427
 3307POPC   NC343403  37.717  31.096   5.315
 3307POPC   PO443404  38.026  31.627   5.557
 3307POPC   GL143405  37.638  31.484   5.726
 3307POPC   GL243406  37.786  31.184   5.816
 3307POPC   C1A43407  37.535  31.462   6.158
 3307POPC   D2A43408  37.694  31.313   6.540
 3307POPC   C3A43409  37.678  31.593   6.889
 3307POPC   C4A43410  37.605  31.493   7.302
 3307POPC   C1B43411  37.983  31.048   6.192
 3307POPC   C2B43412  38.181  31.128   6.589
 3307POPC   C3B43413  37.942  31.159   6.962
 3307POPC   C4B43414  37.982  30.991   7.321
 3308POPC   NC343415  32.952  11.752   5.279
 3308POPC   PO443416  33.227  12.328   5.348
 3308POPC   GL143417  33.368  12.106   5.713
 3308POPC   GL243418  33.201  12.363   5.891
 3308POPC   C1A43419  33.130  11.838   6.035
 3308POPC   D2A43420  32.801  11.736   6.365
 3308POPC   C3A43421  32.882  11.822   6.803
 3308POPC   C4A43422  32.790  12.110   7.145
 3308POPC   C1B43423  33.291  12.290   6.319
 3308POPC   C2B43424  33.119  12.283   6.743
 3308POPC   C3B43425  33.165  12.447   7.178
 3308POPC   C4B43426  33.368  12.341   7.574
 3309POPC   NC343427  24.047  24.009   5.289
 3309POPC   PO443428  23.810  24.676   5.448
 3309POPC   GL143429  23.880  24.668   5.877
 3309POPC   GL243430  23.637  24.508   6.072
 3309POPC   C1A43431  24.121  24.641   6.258
 3309POPC   D2A43432  24.030  24.685   6.702
 3309POPC   C3A43433  23.676  24.418   6.808
 3309POPC   C4A43434  23.333  24.472   7.075
 3309POPC   C1B43435  23.878  24.179   6.339
 3309POPC   C2B43436  23.931  23.975   6.753
 3309POPC   C3B43437  23.937  24.090   7.215
 3309POPC   C4B43438  23.938  24.196   7.688
 3310POPC   NC343439  37.166  27.798   5.591
 3310POPC   PO443440  36.662  27.428   5.434
 3310POPC   GL143441  36.817  27.394   5.869
 3310POPC   GL243442  37.181  27.356   5.839
 3310POPC   C1A43443  36.682  27.598   6.271
 3310POPC   D2A43444  36.908  27.780   6.614
 3310POPC   C3A43445  36.775  27.675   7.043
 3310POPC   C4A43446  36.631  27.804   7.451
 3310POPC   C1B43447  37.163  27.463   6.301
 3310POPC   C2B43448  37.046  27.304   6.743
 3310POPC   C3B43449  37.199  27.414   7.198
 3310POPC   C4B43450  37.307  27.180   7.595
 3311POPC   NC343451  14.804  33.847   5.344
 3311POPC   PO443452  14.496  33.352   5.561
 3311POPC   GL143453  14.568  33.626   5.867
 3311POPC   GL243454  14.265  33.809   5.983
 3311POPC   C1A43455  14.537  33.481   6.289
 3311POPC   D2A43456  14.299  33.651   6.600
 3311POPC   C3A43457  14.433  33.691   7.018
 3311POPC   C4A43458  14.064  33.728   7.263
 3311POPC   C1B43459  14.559  34.004   6.275
 3311POPC   C2B43460  14.499  34.118   6.711
 3311POPC   C3B43461  14.237  34.203   7.067
 3311POPC   C4B43462  14.417  34.168   7.469
 3312POPC   NC343463   9.548  12.693   5.423
 3312POPC   PO443464  10.125  12.285   5.432
 3312POPC   GL143465   9.960  12.631   5.763
 3312POPC   GL243466   9.663  12.882   5.885
 3312POPC   C1A43467   9.910  12.595   6.214
 3312POPC   D2A43468  10.009  12.389   6.619
 3312POPC   C3A43469   9.973  12.655   7.017
 3312POPC   C4A43470   9.911  12.748   7.491
 3312POPC   C1B43471   9.716  13.090   6.303
 3312POPC   C2B43472   9.745  13.117   6.784
 3312POPC   C3B43473   9.582  13.003   7.217
 3312POPC   C4B43474   9.524  13.021   7.687
 3313POPC   NC343475  20.960   8.350   5.474
 3313POPC   PO443476  20.340   8.043   5.331
 3313POPC   GL143477  20.453   8.312   5.682
 3313POPC   GL243478  20.344   8.016   5.875
 3313POPC   C1A43479  20.531   8.458   6.122
 3313POPC   D2A43480  20.506   8.216   6.519
 3313POPC   C3A43481  20.658   8.380   6.910
 3313POPC   C4A43482  20.689   8.480   7.375
 3313POPC   C1B43483  20.369   7.744   6.259
 3313POPC   C2B43484  20.619   7.720   6.656
 3313POPC   C3B43485  20.734   7.877   7.099
 3313POPC   C4B43486  20.881   7.973   7.543
 3314POPC   NC343487  28.000   9.250   5.343
 3314POPC   PO443488  28.565   8.900   5.328
 3314POPC   GL143489  28.281   8.941   5.638
 3314POPC   GL243490  28.325   9.251   5.740
 3314POPC   C1A43491  28.214   8.876   6.052
 3314POPC   D2A43492  28.333   8.870   6.468
 3314POPC   C3A43493  28.043   8.937   6.771
 3314POPC   C4A43494  28.108   9.008   7.189
 3314POPC   C1B43495  28.475   9.324   6.118
 3314POPC   C2B43496  28.352   9.399   6.529
 3314POPC   C3B43497  28.438   9.285   6.917
 3314POPC   C4B43498  28.525   9.401   7.310
 3315POPC   NC343499   9.125  38.107   4.803
 3315POPC   PO443500   8.899  38.499   5.329
 3315POPC   GL143501   8.903  38.460   5.793
 3315POPC   GL243502   9.230  38.488   5.966
 3315POPC   C1A43503   8.783  38.314   6.217
 3315POPC   D2A43504   8.848  38.170   6.646
 3315POPC   C3A43505   8.781  38.317   7.069
 3315POPC   C4A43506   8.776  38.189   7.520
 3315POPC   C1B43507   9.084  38.697   6.344
 3315POPC   C2B43508   9.134  38.644   6.771
 3315POPC   C3B43509   9.275  38.545   7.186
 3315POPC   C4B43510   9.127  38.554   7.614
 3316POPC   NC343511   9.768  19.926   5.079
 3316POPC   PO443512   9.368  20.040   5.588
 3316POPC   GL143513   9.624  20.067   5.941
 3316POPC   GL243514   9.966  19.978   5.833
 3316POPC   C1A43515   9.725  19.787   6.306
 3316POPC   D2A43516   9.488  19.523   6.614
 3316POPC   C3A43517   9.509  19.615   7.071
 3316POPC   C4A43518   9.373  19.656   7.514
 3316POPC   C1B43519  10.064  20.173   6.218
 3316POPC   C2B43520  10.033  20.041   6.663
 3316POPC   C3B43521  10.048  20.045   7.093
 3316POPC   C4B43522  10.018  19.642   7.227
 3317POPC   NC343523  12.114  25.289   5.405
 3317POPC   PO443524  11.793  25.864   5.272
 3317POPC   GL143525  11.836  25.554   5.746
 3317POPC   GL243526  12.007  25.203   5.883
 3317POPC   C1A43527  12.036  25.571   6.210
 3317POPC   D2A43528  11.941  25.364   6.612
 3317POPC   C3A43529  12.156  25.415   6.996
 3317POPC   C4A43530  11.925  25.359   7.390
 3317POPC   C1B43531  11.854  24.985   6.253
 3317POPC   C2B43532  11.971  24.854   6.693
 3317POPC   C3B43533  12.152  24.930   7.129
 3317POPC   C4B43534  12.319  25.054   7.571
 3318POPC   NC343535  21.124   5.815   5.345
 3318POPC   PO443536  21.725   6.074   5.386
 3318POPC   GL143537  21.409   5.958   5.753
 3318POPC   GL243538  21.063   6.135   5.767
 3318POPC   C1A43539  21.247   5.788   6.176
 3318POPC   D2A43540  21.568   5.701   6.520
 3318POPC   C3A43541  21.595   5.644   6.982
 3318POPC   C4A43542  21.705   5.799   7.398
 3318POPC   C1B43543  21.047   6.304   6.208
 3318POPC   C2B43544  21.227   6.253   6.632
 3318POPC   C3B43545  21.194   5.972   6.981
 3318POPC   C4B43546  21.195   5.703   7.334
 3319POPC   NC343547  30.966  29.201   5.328
 3319POPC   PO443548  31.675  29.139   5.292
 3319POPC   GL143549  31.453  29.042   5.740
 3319POPC   GL243550  31.148  28.820   5.744
 3319POPC   C1A43551  31.597  28.886   6.194
 3319POPC   D2A43552  31.575  29.092   6.603
 3319POPC   C3A43553  31.654  28.891   6.999
 3319POPC   C4A43554  31.600  29.063   7.387
 3319POPC   C1B43555  31.107  29.007   6.171
 3319POPC   C2B43556  31.083  28.924   6.616
 3319POPC   C3B43557  31.153  29.017   7.047
 3319POPC   C4B43558  30.821  28.942   7.307
 3320POPC   NC343559  34.287  40.311   5.684
 3320POPC   PO443560  34.766  39.970   5.241
 3320POPC   GL143561  34.693  39.973   5.697
 3320POPC   GL243562  34.779  40.223   5.904
 3320POPC   C1A43563  34.508  39.791   6.086
 3320POPC   D2A43564  34.523  39.601   6.508
 3320POPC   C3A43565  34.350  39.764   6.890
 3320POPC   C4A43566  34.455  40.126   7.117
 3320POPC   C1B43567  34.947  39.997   6.275
 3320POPC   C2B43568  34.803  40.039   6.724
 3320POPC   C3B43569  34.946  40.016   7.156
 3320POPC   C4B43570  34.891  40.220   7.533
 3321POPC   NC343571   5.268  26.193   5.526
 3321POPC   PO443572   4.656  26.074   5.335
 3321POPC   GL143573   4.862  25.966   5.738
 3321POPC   GL243574   4.927  26.326   5.891
 3321POPC   C1A43575   5.059  25.885   6.152
 3321POPC   D2A43576   5.244  25.982   6.574
 3321POPC   C3A43577   4.957  25.999   6.948
 3321POPC   C4A43578   4.943  25.658   7.266
 3321POPC   C1B43579   5.289  26.358   6.217
 3321POPC   C2B43580   5.381  26.457   6.694
 3321POPC   C3B43581   5.247  26.397   7.187
 3321POPC   C4B43582   5.164  26.462   7.692
 3322POPC   NC343583  11.620  10.665   5.360
 3322POPC   PO443584  11.049  10.365   5.372
 3322POPC   GL143585  11.256  10.380   5.751
 3322POPC   GL243586  11.188  10.672   5.975
 3322POPC   C1A43587  11.448  10.258   6.131
 3322POPC   D2A43588  11.302  10.438   6.514
 3322POPC   C3A43589  11.538  10.411   6.911
 3322POPC   C4A43590  11.497  10.675   7.262
 3322POPC   C1B43591  10.933  10.302   6.152
 3322POPC   C2B43592  10.763  10.240   6.575
 3322POPC   C3B43593  11.048  10.215   6.908
 3322POPC   C4B43594  11.103  10.361   7.299
 3323POPC   NC343595  19.974  44.333   5.402
 3323POPC   PO443596  19.645  43.770   5.557
 3323POPC   GL143597  19.753  43.880   5.979
 3323POPC   GL243598  20.096  44.041   6.030
 3323POPC   C1A43599  19.675  43.847   6.409
 3323POPC   D2A43600  20.006  43.956   6.668
 3323POPC   C3A43601  19.851  43.801   7.035
 3323POPC   C4A43602  19.954  43.899   7.449
 3323POPC   C1B43603  20.117  43.620   6.281
 3323POPC   C2B43604  20.246  43.508   6.726
 3323POPC   C3B43605  20.343  43.721   7.099
 3323POPC   C4B43606  20.375  43.607   7.540
 3324POPC   NC343607  17.993  15.909   5.512
 3324POPC   PO443608  18.474  15.380   5.478
 3324POPC   GL143609  18.439  15.720   5.807
 3324POPC   GL243610  18.461  16.082   5.705
 3324POPC   C1A43611  18.357  15.850   6.244
 3324POPC   D2A43612  18.095  15.873   6.627
 3324POPC   C3A43613  18.255  16.125   6.955
 3324POPC   C4A43614  18.238  16.028   7.382
 3324POPC   C1B43615  18.651  16.227   6.100
 3324POPC   C2B43616  18.564  16.257   6.560
 3324POPC   C3B43617  18.769  16.222   6.981
 3324POPC   C4B43618  18.737  16.152   7.440
 3325POPC   NC343619  35.603  36.424   5.419
 3325POPC   PO443620  35.652  35.754   5.517
 3325POPC   GL143621  35.587  36.103   5.810
 3325POPC   GL243622  35.231  36.107   5.754
 3325POPC   C1A43623  35.510  36.138   6.249
 3325POPC   D2A43624  35.592  35.817   6.550
 3325POPC   C3A43625  35.588  35.972   6.982
 3325POPC   C4A43626  35.461  36.395   7.058
 3325POPC   C1B43627  35.032  35.915   6.116
 3325POPC   C2B43628  35.084  35.824   6.551
 3325POPC   C3B43629  35.044  36.108   6.887
 3325POPC   C4B43630  35.131  36.099   7.296
 3326POPC   NC343631  34.139   0.306   5.301
 3326POPC   PO443632  34.478  44.657   5.239
 3326POPC   GL143633  34.466  44.746   5.693
 3326POPC   GL243634  34.400  44.438   5.891
 3326POPC   C1A43635  34.691  44.806   6.109
 3326POPC   D2A43636  34.503  44.621   6.484
 3326POPC   C3A43637  34.485  44.853   6.851
 3326POPC   C4A43638  34.803  44.996   7.141
 3326POPC   C1B43639  34.801  44.306   6.183
 3326POPC   C2B43640  34.905  44.281   6.651
 3326POPC   C3B43641  34.814  44.480   7.070
 3326POPC   C4B43642  34.438  44.654   7.314
 3327POPC   NC343643  31.691   8.235   5.433
 3327POPC   PO443644  31.042   8.197   5.314
 3327POPC   GL143645  31.261   8.258   5.712
 3327POPC   GL243646  31.450   7.930   5.753
 3327POPC   C1A43647  31.476   8.295   6.127
 3327POPC   D2A43648  31.536   8.457   6.546
 3327POPC   C3A43649  31.434   8.291   6.911
 3327POPC   C4A43650  31.071   8.359   7.130
 3327POPC   C1B43651  31.554   7.793   6.166
 3327POPC   C2B43652  31.651   7.927   6.572
 3327POPC   C3B43653  31.553   7.796   6.934
 3327POPC   C4B43654  31.408   7.930   7.285
 3328POPC   NC343655  40.574  27.713   5.499
 3328POPC   PO443656  41.057  27.295   5.579
 3328POPC   GL143657  40.847  27.534   5.908
 3328POPC   GL243658  40.875  27.891   5.899
 3328POPC   C1A43659  40.626  27.655   6.307
 3328POPC   D2A43660  40.686  27.895   6.705
 3328POPC   C3A43661  40.784  27.612   7.031
 3328POPC   C4A43662  40.783  27.603   7.454
 3328POPC   C1B43663  41.005  28.077   6.301
 3328POPC   C2B43664  41.228  28.065   6.684
 3328POPC   C3B43665  41.068  28.031   7.101
 3328POPC   C4B43666  41.080  27.997   7.540
 3329POPC   NC343667  42.515   1.213   5.458
 3329POPC   PO443668  41.910   0.904   5.644
 3329POPC   GL143669  42.276   0.985   5.899
 3329POPC   GL243670  42.347   1.314   5.922
 3329POPC   C1A43671  42.434   0.938   6.324
 3329POPC   D2A43672  42.222   0.943   6.740
 3329POPC   C3A43673  42.375   1.057   7.134
 3329POPC   C4A43674  42.432   1.024   7.556
 3329POPC   C1B43675  42.747   1.309   6.133
 3329POPC   C2B43676  42.723   1.319   6.577
 3329POPC   C3B43677  42.856   1.231   6.989
 3329POPC   C4B43678  42.679   1.430   7.338
 3330POPC   NC343679   3.459  18.089   4.940
 3330POPC   PO443680   3.921  18.483   5.441
 3330POPC   GL143681   3.607  18.349   5.778
 3330POPC   GL243682   3.462  18.002   5.826
 3330POPC   C1A43683   3.537  18.314   6.252
 3330POPC   D2A43684   3.656  18.104   6.656
 3330POPC   C3A43685   3.555  18.279   7.080
 3330POPC   C4A43686   3.836  18.485   7.418
 3330POPC   C1B43687   3.335  17.836   6.256
 3330POPC   C2B43688   3.156  18.045   6.643
 3330POPC   C3B43689   3.112  18.026   7.129
 3330POPC   C4B43690   3.430  18.063   7.522
 3331POPC   NC343691   7.348  20.527   5.356
 3331POPC   PO443692   7.963  20.653   5.171
 3331POPC   GL143693   7.784  20.550   5.653
 3331POPC   GL243694   7.575  20.332   5.833
 3331POPC   C1A43695   7.726  20.686   6.148
 3331POPC   D2A43696   7.516  20.482   6.534
 3331POPC   C3A43697   7.551  20.600   6.998
 3331POPC   C4A43698   7.793  20.881   7.282
 3331POPC   C1B43699   7.213  20.309   6.140
 3331POPC   C2B43700   7.108  20.184   6.598
 3331POPC   C3B43701   7.136  20.212   7.016
 3331POPC   C4B43702   7.541  20.104   7.156
 3332POPC   NC343703  36.699   8.498   5.482
 3332POPC   PO443704  37.283   8.079   5.456
 3332POPC   GL143705  36.977   8.219   5.797
 3332POPC   GL243706  36.934   7.905   5.947
 3332POPC   C1A43707  36.622   8.234   6.144
 3332POPC   D2A43708  36.629   8.025   6.554
 3332POPC   C3A43709  36.554   8.286   6.913
 3332POPC   C4A43710  36.719   8.501   7.258
 3332POPC   C1B43711  37.092   8.091   6.301
 3332POPC   C2B43712  37.146   7.982   6.707
 3332POPC   C3B43713  37.013   8.097   7.058
 3332POPC   C4B43714  37.182   8.188   7.427
 3333POPC   NC343715   1.860  21.118   5.509
 3333POPC   PO443716   2.483  21.478   5.425
 3333POPC   GL143717   2.153  21.497   5.736
 3333POPC   GL243718   2.287  21.159   5.803
 3333POPC   C1A43719   1.905  21.624   6.159
 3333POPC   D2A43720   1.791  21.457   6.600
 3333POPC   C3A43721   1.911  21.639   7.013
 3333POPC   C4A43722   1.955  21.390   7.407
 3333POPC   C1B43723   2.375  21.435   6.185
 3333POPC   C2B43724   2.292  21.642   6.607
 3333POPC   C3B43725   2.401  21.502   7.051
 3333POPC   C4B43726   2.399  21.562   7.542
 3334POPC   NC343727  28.482   2.948   5.453
 3334POPC   PO443728  27.883   2.748   5.244
 3334POPC   GL143729  28.136   2.712   5.721
 3334POPC   GL243730  28.513   2.575   5.819
 3334POPC   C1A43731  28.164   2.641   6.188
 3334POPC   D2A43732  28.425   2.601   6.580
 3334POPC   C3A43733  28.223   2.700   6.969
 3334POPC   C4A43734  28.107   2.445   7.299
 3334POPC   C1B43735  28.747   2.747   6.189
 3334POPC   C2B43736  28.914   2.885   6.609
 3334POPC   C3B43737  28.746   2.702   6.996
 3334POPC   C4B43738  28.558   2.752   7.406
 3335POPC   NC343739  27.394  29.280   5.406
 3335POPC   PO443740  27.965  28.879   5.239
 3335POPC   GL143741  27.687  28.962   5.674
 3335POPC   GL243742  27.359  28.809   5.702
 3335POPC   C1A43743  27.660  28.876   6.135
 3335POPC   D2A43744  27.479  29.128   6.488
 3335POPC   C3A43745  27.637  29.033   6.932
 3335POPC   C4A43746  27.788  29.326   7.259
 3335POPC   C1B43747  27.161  28.808   6.124
 3335POPC   C2B43748  27.016  28.897   6.522
 3335POPC   C3B43749  27.137  28.945   6.934
 3335POPC   C4B43750  27.147  28.753   7.317
 3336POPC   NC343751  31.313  37.505   5.502
 3336POPC   PO443752  31.850  37.673   5.017
 3336POPC   GL143753  31.768  37.706   5.597
 3336POPC   GL243754  31.703  37.372   5.831
 3336POPC   C1A43755  31.790  37.758   6.141
 3336POPC   D2A43756  31.594  37.743   6.595
 3336POPC   C3A43757  31.691  37.611   7.071
 3336POPC   C4A43758  31.660  37.855   7.479
 3336POPC   C1B43759  31.338  37.511   6.158
 3336POPC   C2B43760  31.107  37.592   6.554
 3336POPC   C3B43761  31.227  37.798   6.939
 3336POPC   C4B43762  31.186  37.596   7.301
 3337POPC   NC343763  14.687  10.251   5.498
 3337POPC   PO443764  14.203  10.496   5.450
 3337POPC   GL143765  14.491  10.731   5.707
 3337POPC   GL243766  14.179  10.877   5.847
 3337POPC   C1A43767  14.595  10.574   6.126
 3337POPC   D2A43768  14.435  10.437   6.520
 3337POPC   C3A43769  14.509  10.544   6.923
 3337POPC   C4A43770  14.136  10.519   7.130
 3337POPC   C1B43771  14.313  10.957   6.304
 3337POPC   C2B43772  14.209  10.935   6.742
 3337POPC   C3B43773  14.394  11.010   7.153
 3337POPC   C4B43774  14.688  10.735   7.364
 3338POPC   NC343775  30.585  23.646   5.412
 3338POPC   PO443776  30.886  24.274   5.231
 3338POPC   GL143777  30.832  24.001   5.675
 3338POPC   GL243778  30.857  23.645   5.828
 3338POPC   C1A43779  30.623  23.948   6.153
 3338POPC   D2A43780  30.767  23.723   6.555
 3338POPC   C3A43781  30.553  23.813   6.952
 3338POPC   C4A43782  30.706  23.996   7.326
 3338POPC   C1B43783  30.646  23.401   6.168
 3338POPC   C2B43784  30.627  23.206   6.605
 3338POPC   C3B43785  30.482  23.295   7.034
 3338POPC   C4B43786  30.494  23.556   7.437
 3339POPC   NC343787  42.257  32.774   5.398
 3339POPC   PO443788  42.538  33.336   5.555
 3339POPC   GL143789  42.342  33.062   5.822
 3339POPC   GL243790  42.517  32.750   5.856
 3339POPC   C1A43791  42.122  33.094   6.211
 3339POPC   D2A43792  42.257  33.193   6.623
 3339POPC   C3A43793  42.099  32.943   6.956
 3339POPC   C4A43794  42.184  33.298   7.187
 3339POPC   C1B43795  42.649  32.946   6.224
 3339POPC   C2B43796  42.556  32.787   6.595
 3339POPC   C3B43797  42.600  32.896   7.005
 3339POPC   C4B43798  42.821  32.804   7.353
 3340POPC   NC343799  21.185  40.896   5.460
 3340POPC   PO443800  21.796  40.922   5.272
 3340POPC   GL143801  21.593  40.760   5.744
 3340POPC   GL243802  21.315  40.566   5.827
 3340POPC   C1A43803  21.606  40.674   6.229
 3340POPC   D2A43804  21.681  40.905   6.638
 3340POPC   C3A43805  21.482  40.736   7.038
 3340POPC   C4A43806  21.480  40.703   7.510
 3340POPC   C1B43807  21.069  40.774   6.181
 3340POPC   C2B43808  21.006  40.940   6.611
 3340POPC   C3B43809  20.901  40.741   6.991
 3340POPC   C4B43810  20.992  40.626   7.419
 3341POPC   NC343811  23.401  16.068   5.563
 3341POPC   PO443812  22.826  15.674   5.325
 3341POPC   GL143813  22.827  15.835   5.887
 3341POPC   GL243814  23.146  16.024   6.026
 3341POPC   C1A43815  22.807  15.972   6.398
 3341POPC   D2A43816  23.071  16.086   6.817
 3341POPC   C3A43817  22.840  15.920   7.176
 3341POPC   C4A43818  22.479  15.693   7.115
 3341POPC   C1B43819  23.151  15.627   6.284
 3341POPC   C2B43820  23.311  15.379   6.549
 3341POPC   C3B43821  23.230  15.588   6.933
 3341POPC   C4B43822  23.285  15.714   7.329
 3342POPC   NC343823  33.966  41.939   5.558
 3342POPC   PO443824  33.739  41.402   5.180
 3342POPC   GL143825  33.882  41.504   5.740
 3342POPC   GL243826  34.162  41.453   5.955
 3342POPC   C1A43827  33.685  41.718   6.142
 3342POPC   D2A43828  33.364  41.772   6.513
 3342POPC   C3A43829  33.507  41.922   6.915
 3342POPC   C4A43830  33.694  41.772   7.312
 3342POPC   C1B43831  34.111  41.546   6.418
 3342POPC   C2B43832  34.032  41.668   6.851
 3342POPC   C3B43833  33.967  41.332   7.152
 3342POPC   C4B43834  34.003  41.122   7.571
 3343POPC   NC343835  40.586  19.109   5.166
 3343POPC   PO443836  41.180  19.277   5.414
 3343POPC   GL143837  40.941  19.174   5.898
 3343POPC   GL243838  40.604  19.051   5.839
 3343POPC   C1A43839  40.920  18.933   6.291
 3343POPC   D2A43840  41.101  18.672   6.625
 3343POPC   C3A43841  41.019  18.931   6.998
 3343POPC   C4A43842  40.989  19.333   7.282
 3343POPC   C1B43843  40.428  19.166   6.235
 3343POPC   C2B43844  40.544  19.075   6.667
 3343POPC   C3B43845  40.544  19.061   7.111
 3343POPC   C4B43846  40.531  19.206   7.508
 3344POPC   NC343847  20.691  43.636   5.373
 3344POPC   PO443848  20.222  43.140   5.481
 3344POPC   GL143849  20.515  43.174   5.839
 3344POPC   GL243850  20.738  42.900   5.775
 3344POPC   C1A43851  20.520  43.293   6.294
 3344POPC   D2A43852  20.548  43.072   6.680
 3344POPC   C3A43853  20.545  43.243   7.094
 3344POPC   C4A43854  20.668  43.182   7.512
 3344POPC   C1B43855  20.946  42.841   6.143
 3344POPC   C2B43856  20.830  42.666   6.522
 3344POPC   C3B43857  20.954  42.829   6.887
 3344POPC   C4B43858  20.971  42.834   7.292
 3345POPC   NC343859  37.293   9.464   5.268
 3345POPC   PO443860  37.034   8.827   5.428
 3345POPC   GL143861  36.810   8.939   5.787
 3345POPC   GL243862  36.628   8.697   5.943
 3345POPC   C1A43863  36.809   9.095   6.221
 3345POPC   D2A43864  36.790   8.956   6.666
 3345POPC   C3A43865  36.818   9.243   7.038
 3345POPC   C4A43866  37.120   9.198   7.374
 3345POPC   C1B43867  36.972   8.607   6.246
 3345POPC   C2B43868  37.000   8.478   6.684
 3345POPC   C3B43869  37.281   8.524   7.046
 3345POPC   C4B43870  37.137   8.701   7.448
 3346POPC   NC343871   0.902   0.315   5.642
 3346POPC   PO443872   1.282  45.000   5.188
 3346POPC   GL143873   1.393   0.339   5.646
 3346POPC   GL243874   1.712   0.554   5.641
 3346POPC   C1A43875   1.262   0.357   6.157
 3346POPC   D2A43876   1.015   0.113   6.492
 3346POPC   C3A43877   0.921   0.350   6.878
 3346POPC   C4A43878   1.069   0.345   7.321
 3346POPC   C1B43879   1.647   0.677   6.082
 3346POPC   C2B43880   1.666   0.566   6.548
 3346POPC   C3B43881   1.671   0.730   7.001
 3346POPC   C4B43882   1.322   0.784   7.305
 3347POPC   NC343883  42.075  28.786   5.434
 3347POPC   PO443884  42.496  29.332   5.551
 3347POPC   GL143885  42.297  29.370   5.901
 3347POPC   GL243886  42.143  29.067   5.895
 3347POPC   C1A43887  42.356  29.422   6.332
 3347POPC   D2A43888  42.432  29.111   6.609
 3347POPC   C3A43889  42.634  29.217   6.985
 3347POPC   C4A43890  42.395  29.269   7.308
 3347POPC   C1B43891  41.911  28.773   6.158
 3347POPC   C2B43892  41.982  28.610   6.563
 3347POPC   C3B43893  42.135  28.803   6.920
 3347POPC   C4B43894  42.006  28.929   7.323
 3348POPC   NC343895   7.923  10.629   5.460
 3348POPC   PO443896   7.291  10.629   5.322
 3348POPC   GL143897   7.520  10.535   5.762
 3348POPC   GL243898   7.655  10.180   5.772
 3348POPC   C1A43899   7.713  10.516   6.226
 3348POPC   D2A43900   7.751  10.783   6.653
 3348POPC   C3A43901   7.679  10.726   7.129
 3348POPC   C4A43902   7.270  10.676   7.274
 3348POPC   C1B43903   7.301  10.205   6.085
 3348POPC   C2B43904   7.301  10.338   6.519
 3348POPC   C3B43905   7.451  10.302   6.944
 3348POPC   C4B43906   7.168  10.164   7.269
 3349POPC   NC343907   4.818   8.000   5.637
 3349POPC   PO443908   4.190   7.995   5.349
 3349POPC   GL143909   4.145   8.028   5.773
 3349POPC   GL243910   4.413   8.250   5.844
 3349POPC   C1A43911   4.050   8.095   6.191
 3349POPC   D2A43912   4.217   8.059   6.568
 3349POPC   C3A43913   4.115   8.350   6.869
 3349POPC   C4A43914   4.076   8.061   7.206
 3349POPC   C1B43915   4.536   8.381   6.273
 3349POPC   C2B43916   4.704   8.187   6.652
 3349POPC   C3B43917   4.546   8.164   7.058
 3349POPC   C4B43918   4.575   8.192   7.491
 3350POPC   NC343919  27.158  38.469   5.374
 3350POPC   PO443920  26.586  38.247   5.408
 3350POPC   GL143921  26.815  38.383   5.754
 3350POPC   GL243922  26.879  38.745   5.702
 3350POPC   C1A43923  26.977  38.435   6.168
 3350POPC   D2A43924  27.034  38.161   6.507
 3350POPC   C3A43925  26.738  38.239   6.820
 3350POPC   C4A43926  26.712  38.104   7.213
 3350POPC   C1B43927  27.234  38.831   5.988
 3350POPC   C2B43928  27.235  38.842   6.466
 3350POPC   C3B43929  27.172  38.574   6.828
 3350POPC   C4B43930  26.924  38.583   7.224
 3351POPC   NC343931  24.049  38.360   5.599
 3351POPC   PO443932  23.568  38.782   5.260
 3351POPC   GL143933  23.596  38.734   5.725
 3351POPC   GL243934  23.379  38.468   5.800
 3351POPC   C1A43935  23.749  38.592   6.174
 3351POPC   D2A43936  23.945  38.259   6.486
 3351POPC   C3A43937  23.867  38.286   6.929
 3351POPC   C4A43938  23.954  38.678   7.123
 3351POPC   C1B43939  23.262  38.380   6.206
 3351POPC   C2B43940  23.460  38.438   6.586
 3351POPC   C3B43941  23.326  38.327   6.967
 3351POPC   C4B43942  23.516  38.435   7.294
 3352POPC   NC343943   1.131  17.030   5.599
 3352POPC   PO443944   1.314  16.422   5.315
 3352POPC   GL143945   1.174  16.566   5.776
 3352POPC   GL243946   0.938  16.835   5.996
 3352POPC   C1A43947   1.216  16.514   6.236
 3352POPC   D2A43948   1.390  16.443   6.634
 3352POPC   C3A43949   1.402  16.781   6.931
 3352POPC   C4A43950   1.430  16.471   7.218
 3352POPC   C1B43951   0.763  16.764   6.373
 3352POPC   C2B43952   0.930  16.665   6.760
 3352POPC   C3B43953   0.980  16.732   7.211
 3352POPC   C4B43954   0.883  17.053   7.521
 3353POPC   NC343955  14.632   6.102   5.465
 3353POPC   PO443956  14.156   5.631   5.474
 3353POPC   GL143957  14.451   5.718   5.838
 3353POPC   GL243958  14.446   6.052   5.936
 3353POPC   C1A43959  14.583   5.745   6.311
 3353POPC   D2A43960  14.256   5.722   6.644
 3353POPC   C3A43961  14.309   5.688   7.071
 3353POPC   C4A43962  14.702   5.721   7.231
 3353POPC   C1B43963  14.175   6.353   6.127
 3353POPC   C2B43964  14.053   6.313   6.550
 3353POPC   C3B43965  14.166   6.155   6.922
 3353POPC   C4B43966  14.158   6.410   7.218
 3354POPC   NC343967  19.634   4.192   5.487
 3354POPC   PO443968  19.841   4.740   5.203
 3354POPC   GL143969  20.029   4.491   5.669
 3354POPC   GL243970  19.954   4.102   5.862
 3354POPC   C1A43971  20.053   4.483   6.159
 3354POPC   D2A43972  19.837   4.188   6.477
 3354POPC   C3A43973  19.827   4.346   6.905
 3354POPC   C4A43974  19.763   4.217   7.313
 3354POPC   C1B43975  20.250   4.008   6.230
 3354POPC   C2B43976  20.238   3.803   6.635
 3354POPC   C3B43977  20.162   3.983   7.040
 3354POPC   C4B43978  20.231   4.296   7.410
 3355POPC   NC343979   7.115  39.186   5.522
 3355POPC   PO443980   7.586  39.556   5.316
 3355POPC   GL143981   7.613  39.310   5.743
 3355POPC   GL243982   7.839  39.021   5.846
 3355POPC   C1A43983   7.399  39.226   6.169
 3355POPC   D2A43984   7.315  38.949   6.561
 3355POPC   C3A43985   7.308  39.168   6.960
 3355POPC   C4A43986   7.639  39.428   7.069
 3355POPC   C1B43987   7.827  38.928   6.332
 3355POPC   C2B43988   7.878  38.921   6.808
 3355POPC   C3B43989   7.746  38.939   7.262
 3355POPC   C4B43990   7.695  38.886   7.736
 3356POPC   NC343991  30.529  31.707   5.493
 3356POPC   PO443992  30.962  31.248   5.469
 3356POPC   GL143993  30.853  31.388   5.861
 3356POPC   GL243994  30.514  31.323   5.844
 3356POPC   C1A43995  30.929  31.589   6.292
 3356POPC   D2A43996  30.731  31.627   6.709
 3356POPC   C3A43997  30.929  31.598   7.143
 3356POPC   C4A43998  30.857  31.718   7.611
 3356POPC   C1B43999  30.419  31.523   6.238
 3356POPC   C2B44000  30.216  31.673   6.624
 3356POPC   C3B44001  30.309  31.692   7.057
 3356POPC   C4B44002  30.442  31.503   7.421
 3357POPC   NC344003  25.083  36.488   5.609
 3357POPC   PO444004  25.440  35.897   5.479
 3357POPC   GL144005  25.342  36.074   5.832
 3357POPC   GL244006  24.997  35.988   5.829
 3357POPC   C1A44007  25.478  36.240   6.189
 3357POPC   D2A44008  25.307  36.408   6.541
 3357POPC   C3A44009  25.182  36.093   6.808
 3357POPC   C4A44010  25.401  35.881   7.127
 3357POPC   C1B44011  24.940  36.190   6.240
 3357POPC   C2B44012  24.727  36.267   6.647
 3357POPC   C3B44013  24.690  36.009   6.980
 3357POPC   C4B44014  24.954  36.075   7.281
 3358POPC   NC344015  11.211  23.781   5.251
 3358POPC   PO444016  10.612  24.008   5.248
 3358POPC   GL144017  10.958  23.976   5.654
 3358POPC   GL244018  11.314  23.900   5.755
 3358POPC   C1A44019  10.987  23.894   6.147
 3358POPC   D2A44020  10.855  23.799   6.619
 3358POPC   C3A44021  11.015  23.680   7.075
 3358POPC   C4A44022  11.154  23.665   7.547
 3358POPC   C1B44023  11.443  24.158   6.179
 3358POPC   C2B44024  11.654  24.246   6.629
 3358POPC   C3B44025  11.647  24.038   7.082
 3358POPC   C4B44026  11.609  23.951   7.542
 3359POPC   NC344027  40.497  14.904   5.075
 3359POPC   PO444028  40.990  15.210   5.466
 3359POPC   GL144029  40.985  15.379   5.875
 3359POPC   GL244030  40.651  15.277   5.875
 3359POPC   C1A44031  40.855  15.385   6.333
 3359POPC   D2A44032  41.022  15.405   6.738
 3359POPC   C3A44033  41.107  15.083   6.991
 3359POPC   C4A44034  40.921  15.022   7.372
 3359POPC   C1B44035  40.369  15.348   6.186
 3359POPC   C2B44036  40.413  15.200   6.584
 3359POPC   C3B44037  40.578  15.239   6.990
 3359POPC   C4B44038  40.361  15.174   7.345
 3360POPC   NC344039   7.161  39.843   5.291
 3360POPC   PO444040   7.602  40.277   5.427
 3360POPC   GL144041   7.404  40.020   5.747
 3360POPC   GL244042   7.238  39.663   5.751
 3360POPC   C1A44043   7.516  40.100   6.182
 3360POPC   D2A44044   7.356  40.055   6.590
 3360POPC   C3A44045   7.478  40.165   6.988
 3360POPC   C4A44046   7.348  40.494   7.240
 3360POPC   C1B44047   7.056  39.660   6.147
 3360POPC   C2B44048   7.162  39.549   6.547
 3360POPC   C3B44049   7.178  39.703   6.935
 3360POPC   C4B44050   7.055  39.516   7.293
 3361POPC   NC344051  30.544  32.694   5.448
 3361POPC   PO444052  30.872  32.099   5.512
 3361POPC   GL144053  30.809  32.438   5.851
 3361POPC   GL244054  30.443  32.479   5.885
 3361POPC   C1A44055  30.719  32.441   6.330
 3361POPC   D2A44056  30.500  32.107   6.601
 3361POPC   C3A44057  30.688  32.033   7.003
 3361POPC   C4A44058  30.647  32.146   7.410
 3361POPC   C1B44059  30.202  32.429   6.243
 3361POPC   C2B44060  30.201  32.507   6.646
 3361POPC   C3B44061  30.560  32.588   6.927
 3361POPC   C4B44062  30.440  32.605   7.376
 3362POPC   NC344063  40.187   1.784   5.568
 3362POPC   PO444064  39.668   2.135   5.534
 3362POPC   GL144065  39.991   2.187   5.839
 3362POPC   GL244066  39.754   2.426   5.985
 3362POPC   C1A44067  40.176   1.989   6.220
 3362POPC   D2A44068  40.147   2.141   6.642
 3362POPC   C3A44069  40.308   1.882   6.963
 3362POPC   C4A44070  40.146   1.653   7.300
 3362POPC   C1B44071  39.660   2.010   6.183
 3362POPC   C2B44072  39.556   1.984   6.567
 3362POPC   C3B44073  39.739   2.100   6.952
 3362POPC   C4B44074  40.012   2.149   7.296
 3363POPC   NC344075  35.509  33.192   5.222
 3363POPC   PO444076  35.474  32.538   5.161
 3363POPC   GL144077  35.544  32.792   5.603
 3363POPC   GL244078  35.481  33.162   5.728
 3363POPC   C1A44079  35.493  32.758   6.089
 3363POPC   D2A44080  35.247  32.853   6.500
 3363POPC   C3A44081  35.400  32.686   6.919
 3363POPC   C4A44082  35.337  32.853   7.347
 3363POPC   C1B44083  35.380  33.279   6.156
 3363POPC   C2B44084  35.536  33.318   6.572
 3363POPC   C3B44085  35.481  33.222   7.010
 3363POPC   C4B44086  35.491  33.352   7.439
 3364POPC   NC344087   1.402  44.543   5.157
 3364POPC   PO444088   1.082  44.872   5.670
 3364POPC   GL144089   1.202  44.556   5.907
 3364POPC   GL244090   1.466  44.425   5.685
 3364POPC   C1A44091   1.035  44.601   6.315
 3364POPC   D2A44092   1.001  44.536   6.757
 3364POPC   C3A44093   1.058  44.887   7.006
 3364POPC   C4A44094   1.338  44.899   7.345
 3364POPC   C1B44095   1.613  44.386   6.137
 3364POPC   C2B44096   1.454  44.437   6.558
 3364POPC   C3B44097   1.479  44.462   7.022
 3364POPC   C4B44098   1.473  44.427   7.500
 3365POPC   NC344099  12.989   5.370   5.416
 3365POPC   PO444100  12.744   6.070   5.311
 3365POPC   GL144101  12.708   5.841   5.701
 3365POPC   GL244102  12.990   5.845   5.968
 3365POPC   C1A44103  12.527   5.991   6.084
 3365POPC   D2A44104  12.821   6.063   6.414
 3365POPC   C3A44105  12.731   5.916   6.792
 3365POPC   C4A44106  12.694   6.090   7.161
 3365POPC   C1B44107  13.051   5.590   6.335
 3365POPC   C2B44108  13.219   5.824   6.661
 3365POPC   C3B44109  13.227   5.964   6.997
 3365POPC   C4B44110  13.055   5.695   7.242
 3366POPC   NC344111   8.003  33.563   5.265
 3366POPC   PO444112   8.456  34.013   5.335
 3366POPC   GL144113   8.174  33.880   5.775
 3366POPC   GL244114   7.978  33.522   5.791
 3366POPC   C1A44115   8.201  33.913   6.300
 3366POPC   D2A44116   8.474  34.010   6.731
 3366POPC   C3A44117   8.337  34.030   7.194
 3366POPC   C4A44118   8.174  34.241   7.589
 3366POPC   C1B44119   8.170  33.398   6.204
 3366POPC   C2B44120   8.489  33.548   6.514
 3366POPC   C3B44121   8.415  33.566   6.937
 3366POPC   C4B44122   8.092  33.566   7.185
 3367POPC   NC344123  23.163  40.673   5.260
 3367POPC   PO444124  22.552  40.750   5.417
 3367POPC   GL144125  22.901  40.740   5.740
 3367POPC   GL244126  23.155  40.462   5.709
 3367POPC   C1A44127  23.015  40.867   6.177
 3367POPC   D2A44128  22.802  40.801   6.571
 3367POPC   C3A44129  22.970  40.714   6.939
 3367POPC   C4A44130  22.848  40.870   7.313
 3367POPC   C1B44131  23.074  40.368   6.100
 3367POPC   C2B44132  23.126  40.395   6.513
 3367POPC   C3B44133  23.354  40.376   6.895
 3367POPC   C4B44134  23.119  40.414   7.311
 3368POPC   NC344135   4.618  26.534   5.360
 3368POPC   PO444136   4.285  27.177   5.296
 3368POPC   GL144137   4.287  26.833   5.636
 3368POPC   GL244138   4.638  26.796   5.812
 3368POPC   C1A44139   4.195  26.604   6.038
 3368POPC   D2A44140   4.394  26.544   6.450
 3368POPC   C3A44141   4.264  26.661   6.882
 3368POPC   C4A44142   4.609  26.833   7.104
 3368POPC   C1B44143   4.366  27.072   6.103
 3368POPC   C2B44144   4.167  27.024   6.509
 3368POPC   C3B44145   4.184  27.161   6.945
 3368POPC   C4B44146   4.407  27.275   7.296
 3369POPC   NC344147  26.114  35.550   5.606
 3369POPC   PO444148  25.597  35.175   5.325
 3369POPC   GL144149  25.670  35.204   5.813
 3369POPC   GL244150  25.987  35.213   5.968
 3369POPC   C1A44151  25.609  35.306   6.307
 3369POPC   D2A44152  26.016  35.368   6.579
 3369POPC   C3A44153  26.102  35.278   7.045
 3369POPC   C4A44154  26.047  35.180   7.503
 3369POPC   C1B44155  26.307  35.075   6.227
 3369POPC   C2B44156  26.519  35.160   6.596
 3369POPC   C3B44157  26.496  34.936   6.965
 3369POPC   C4B44158  26.615  35.013   7.361
 3370POPC   NC344159  39.798   9.333   5.555
 3370POPC   PO444160  40.205   9.985   5.519
 3370POPC   GL144161  40.162   9.665   5.852
 3370POPC   GL244162  40.488   9.786   5.932
 3370POPC   C1A44163  39.953   9.586   6.286
 3370POPC   D2A44164  39.807   9.476   6.743
 3370POPC   C3A44165  39.892   9.696   7.134
 3370POPC   C4A44166  39.621   9.939   7.437
 3370POPC   C1B44167  40.319   9.989   6.280
 3370POPC   C2B44168  40.203   9.871   6.690
 3370POPC   C3B44169  40.403   9.972   7.043
 3370POPC   C4B44170  40.161  10.056   7.408
 3371POPC   NC344171  44.838  31.975   5.413
 3371POPC   PO444172  44.195  32.095   5.502
 3371POPC   GL144173  44.349  32.260   5.863
 3371POPC   GL244174  44.699  32.352   5.795
 3371POPC   C1A44175  44.430  32.155   6.281
 3371POPC   D2A44176  44.630  32.347   6.629
 3371POPC   C3A44177  44.509  32.178   6.996
 3371POPC   C4A44178  44.189  32.246   7.264
 3371POPC   C1B44179  44.921  32.309   6.201
 3371POPC   C2B44180   0.133  32.298   6.615
 3371POPC   C3B44181   0.003  32.267   7.062
 3371POPC   C4B44182  44.826  32.043   7.444
 3372POPC   NC344183  20.067  33.381   5.509
 3372POPC   PO444184  19.508  33.775   5.412
 3372POPC   GL144185  19.790  33.813   5.760
 3372POPC   GL244186  19.697  33.510   5.870
 3372POPC   C1A44187  19.905  34.048   6.160
 3372POPC   D2A44188  20.206  34.051   6.523
 3372POPC   C3A44189  20.117  33.925   6.963
 3372POPC   C4A44190  19.740  33.783   7.140
 3372POPC   C1B44191  20.053  33.571   6.167
 3372POPC   C2B44192  19.872  33.626   6.570
 3372POPC   C3B44193  19.732  33.358   6.877
 3372POPC   C4B44194  20.089  33.376   7.161
 3373POPC   NC344195  14.184  27.759   5.417
 3373POPC   PO444196  13.473  27.707   5.337
 3373POPC   GL144197  13.541  27.757   5.775
 3373POPC   GL244198  13.656  27.420   5.786
 3373POPC   C1A44199  13.704  27.786   6.211
 3373POPC   D2A44200  13.749  27.535   6.620
 3373POPC   C3A44201  13.695  27.753   7.007
 3373POPC   C4A44202  13.621  27.801   7.462
 3373POPC   C1B44203  13.508  27.319   6.193
 3373POPC   C2B44204  13.271  27.355   6.582
 3373POPC   C3B44205  13.449  27.278   6.995
 3373POPC   C4B44206  13.309  27.114   7.391
 3374POPC   NC344207  39.833  40.973   5.429
 3374POPC   PO444208  40.474  40.799   5.377
 3374POPC   GL144209  40.153  40.684   5.729
 3374POPC   GL244210  39.831  40.761   5.882
 3374POPC   C1A44211  40.194  40.521   6.145
 3374POPC   D2A44212  40.252  40.740   6.500
 3374POPC   C3A44213  40.056  40.678   6.893
 3374POPC   C4A44214  40.200  40.885   7.287
 3374POPC   C1B44215  39.786  40.877   6.308
 3374POPC   C2B44216  39.865  41.096   6.691
 3374POPC   C3B44217  39.728  40.996   7.118
 3374POPC   C4B44218  39.454  41.048   7.470
 3375POPC   NC344219  27.493   2.992   5.310
 3375POPC   PO444220  27.910   3.162   5.820
 3375POPC   GL144221  27.669   2.780   5.903
 3375POPC   GL244222  27.401   2.592   5.802
 3375POPC   C1A44223  27.652   2.523   6.264
 3375POPC   D2A44224  27.842   2.425   6.668
 3375POPC   C3A44225  27.627   2.613   7.006
 3375POPC   C4A44226  27.829   2.876   7.271
 3375POPC   C1B44227  27.136   2.565   6.175
 3375POPC   C2B44228  27.224   2.615   6.622
 3375POPC   C3B44229  27.138   2.794   7.032
 3375POPC   C4B44230  27.344   2.864   7.432
 3376POPC   NC344231  42.747  42.903   5.378
 3376POPC   PO444232  42.101  43.090   5.463
 3376POPC   GL144233  42.495  43.162   5.761
 3376POPC   GL244234  42.611  42.890   5.894
 3376POPC   C1A44235  42.663  43.380   6.143
 3376POPC   D2A44236  42.478  43.444   6.557
 3376POPC   C3A44237  42.498  43.090   6.829
 3376POPC   C4A44238  42.550  42.919   7.230
 3376POPC   C1B44239  42.460  42.931   6.316
 3376POPC   C2B44240  42.075  42.904   6.576
 3376POPC   C3B44241  42.081  42.820   7.006
 3376POPC   C4B44242  42.137  42.744   7.440
 3377POPC   NC344243  24.344   3.170   5.269
 3377POPC   PO444244  24.682   2.597   5.373
 3377POPC   GL144245  24.682   2.944   5.677
 3377POPC   GL244246  24.335   3.015   5.757
 3377POPC   C1A44247  24.712   3.065   6.133
 3377POPC   D2A44248  24.584   2.858   6.542
 3377POPC   C3A44249  24.731   2.679   6.962
 3377POPC   C4A44250  24.570   2.616   7.395
 3377POPC   C1B44251  24.100   2.968   6.139
 3377POPC   C2B44252  24.090   3.043   6.579
 3377POPC   C3B44253  24.225   2.748   6.900
 3377POPC   C4B44254  24.107   2.820   7.290
 3378POPC   NC344255  25.401  43.286   5.327
 3378POPC   PO444256  25.321  42.605   5.250
 3378POPC   GL144257  25.179  42.841   5.662
 3378POPC   GL244258  25.284  43.189   5.789
 3378POPC   C1A44259  25.094  42.921   6.143
 3378POPC   D2A44260  25.395  43.068   6.453
 3378POPC   C3A44261  25.264  42.990   6.883
 3378POPC   C4A44262  25.068  42.862   7.282
 3378POPC   C1B44263  25.421  43.480   6.109
 3378POPC   C2B44264  25.513  43.565   6.576
 3378POPC   C3B44265  25.474  43.440   6.999
 3378POPC   C4B44266  25.519  43.090   7.313
 3379POPC   NC344267  24.717  32.000   5.457
 3379POPC   PO444268  24.381  32.547   5.404
 3379POPC   GL144269  24.291  32.330   5.779
 3379POPC   GL244270  24.298  31.944   5.759
 3379POPC   C1A44271  24.288  32.577   6.169
 3379POPC   D2A44272  24.188  32.485   6.576
 3379POPC   C3A44273  24.434  32.532   6.915
 3379POPC   C4A44274  24.319  32.317   7.263
 3379POPC   C1B44275  24.446  31.836   6.155
 3379POPC   C2B44276  24.362  31.994   6.554
 3379POPC   C3B44277  24.587  32.049   6.909
 3379POPC   C4B44278  24.656  31.931   7.330
 3380POPC   NC344279  34.890   7.241   5.420
 3380POPC   PO444280  34.340   7.712   5.346
 3380POPC   GL144281  34.582   7.511   5.770
 3380POPC   GL244282  34.424   7.256   5.919
 3380POPC   C1A44283  34.726   7.370   6.282
 3380POPC   D2A44284  34.739   7.142   6.730
 3380POPC   C3A44285  34.963   7.314   7.095
 3380POPC   C4A44286  34.918   7.455   7.527
 3380POPC   C1B44287  34.243   7.567   6.179
 3380POPC   C2B44288  34.399   7.777   6.536
 3380POPC   C3B44289  34.557   7.606   6.885
 3380POPC   C4B44290  34.467   7.503   7.295
 3381POPC   NC344291  27.083   7.608   5.290
 3381POPC   PO444292  26.534   7.288   5.457
 3381POPC   GL144293  26.607   7.634   5.795
 3381POPC   GL244294  26.958   7.758   5.787
 3381POPC   C1A44295  26.734   7.652   6.272
 3381POPC   D2A44296  26.816   7.419   6.674
 3381POPC   C3A44297  26.848   7.394   7.128
 3381POPC   C4A44298  26.691   7.079   7.422
 3381POPC   C1B44299  27.093   7.376   6.020
 3381POPC   C2B44300  27.208   7.174   6.410
 3381POPC   C3B44301  27.305   7.300   6.829
 3381POPC   C4B44302  27.341   7.174   7.233
 3382POPC   NC344303   0.391  20.912   5.382
 3382POPC   PO444304   0.619  21.506   5.565
 3382POPC   GL144305   0.470  21.216   5.858
 3382POPC   GL244306   0.115  21.191   5.778
 3382POPC   C1A44307   0.511  21.322   6.315
 3382POPC   D2A44308   0.835  21.467   6.624
 3382POPC   C3A44309   0.714  21.339   7.012
 3382POPC   C4A44310   0.582  21.542   7.382
 3382POPC   C1B44311   0.093  21.005   6.209
 3382POPC   C2B44312   0.123  21.152   6.665
 3382POPC   C3B44313   0.194  21.287   7.100
 3382POPC   C4B44314   0.054  21.721   7.253
 3383POPC   NC344315   2.257  15.361   5.505
 3383POPC   PO444316   1.827  14.822   5.507
 3383POPC   GL144317   1.898  15.127   5.782
 3383POPC   GL244318   1.600  15.294   5.793
 3383POPC   C1A44319   1.979  15.283   6.172
 3383POPC   D2A44320   2.038  15.078   6.519
 3383POPC   C3A44321   2.086  15.262   6.890
 3383POPC   C4A44322   2.318  15.116   7.225
 3383POPC   C1B44323   1.513  15.007   6.160
 3383POPC   C2B44324   1.554  14.859   6.589
 3383POPC   C3B44325   1.613  15.031   6.995
 3383POPC   C4B44326   1.827  15.260   7.333
 3384POPC   NC344327  37.672  16.368   5.187
 3384POPC   PO444328  37.971  16.808   5.590
 3384POPC   GL144329  37.877  16.800   5.991
 3384POPC   GL244330  37.546  16.714   5.977
 3384POPC   C1A44331  37.686  17.043   6.321
 3384POPC   D2A44332  37.547  16.816   6.641
 3384POPC   C3A44333  37.799  16.901   6.981
 3384POPC   C4A44334  37.707  16.869   7.396
 3384POPC   C1B44335  37.255  16.519   6.333
 3384POPC   C2B44336  37.319  16.325   6.733
 3384POPC   C3B44337  37.433  16.534   7.114
 3384POPC   C4B44338  37.303  16.482   7.551
 3385POPC   NC344339  38.094  19.619   5.499
 3385POPC   PO444340  38.727  19.935   5.435
 3385POPC   GL144341  38.548  19.701   5.763
 3385POPC   GL244342  38.304  19.987   5.802
 3385POPC   C1A44343  38.326  19.601   6.125
 3385POPC   D2A44344  38.154  19.851   6.438
 3385POPC   C3A44345  38.025  19.634   6.791
 3385POPC   C4A44346  38.040  19.787   7.196
 3385POPC   C1B44347  38.580  20.051   6.165
 3385POPC   C2B44348  38.682  19.925   6.594
 3385POPC   C3B44349  38.484  19.788   6.940
 3385POPC   C4B44350  38.535  19.946   7.337
 3386POPC   NC344351   0.892   3.642   5.213
 3386POPC   PO444352   1.321   3.373   5.721
 3386POPC   GL144353   1.365   3.640   6.037
 3386POPC   GL244354   1.044   3.721   6.122
 3386POPC   C1A44355   1.412   3.780   6.463
 3386POPC   D2A44356   0.999   3.703   6.625
 3386POPC   C3A44357   1.054   3.584   7.000
 3386POPC   C4A44358   1.418   3.738   7.202
 3386POPC   C1B44359   1.033   3.294   6.296
 3386POPC   C2B44360   1.181   3.106   6.624
 3386POPC   C3B44361   1.057   3.047   7.002
 3386POPC   C4B44362   1.361   3.216   7.261
 3387POPC   NC344363  24.332  15.812   5.421
 3387POPC   PO444364  24.953  15.926   5.537
 3387POPC   GL144365  24.645  16.094   5.821
 3387POPC   GL244366  24.322  16.271   5.696
 3387POPC   C1A44367  24.522  15.799   6.125
 3387POPC   D2A44368  24.398  15.641   6.500
 3387POPC   C3A44369  24.640  15.829   6.806
 3387POPC   C4A44370  24.569  15.782   7.207
 3387POPC   C1B44371  24.227  16.208   6.147
 3387POPC   C2B44372  24.441  16.221   6.552
 3387POPC   C3B44373  24.396  16.236   7.004
 3387POPC   C4B44374  24.428  16.190   7.471
 3388POPC   NC344375   0.802   8.742   5.646
 3388POPC   PO444376   0.226   9.200   5.521
 3388POPC   GL144377   0.447   9.034   5.856
 3388POPC   GL244378   0.803   9.172   5.898
 3388POPC   C1A44379   0.484   8.977   6.286
 3388POPC   D2A44380   0.679   8.827   6.652
 3388POPC   C3A44381   0.463   8.941   7.019
 3388POPC   C4A44382   0.114   9.070   7.318
 3388POPC   C1B44383   0.967   9.161   6.317
 3388POPC   C2B44384   0.948   9.264   6.754
 3388POPC   C3B44385   0.936   9.105   7.154
 3388POPC   C4B44386   0.809   8.756   7.355
 3389POPC   NC344387  20.690   5.423   5.601
 3389POPC   PO444388  20.721   6.028   5.355
 3389POPC   GL144389  20.545   5.897   5.797
 3389POPC   GL244390  20.267   5.607   5.830
 3389POPC   C1A44391  20.720   5.899   6.226
 3389POPC   D2A44392  20.907   5.755   6.608
 3389POPC   C3A44393  20.689   5.908   6.985
 3389POPC   C4A44394  20.533   5.805   7.371
 3389POPC   C1B44395  20.462   5.457   6.234
 3389POPC   C2B44396  20.389   5.662   6.636
 3389POPC   C3B44397  20.174   5.623   7.061
 3389POPC   C4B44398  20.135   5.585   7.575
 3390POPC   NC344399  22.100  28.102   5.422
 3390POPC   PO444400  21.777  28.710   5.550
 3390POPC   GL144401  21.849  28.333   5.822
 3390POPC   GL244402  22.237  28.243   5.903
 3390POPC   C1A44403  21.837  28.177   6.244
 3390POPC   D2A44404  22.144  28.168   6.581
 3390POPC   C3A44405  22.054  28.393   6.972
 3390POPC   C4A44406  22.333  28.645   7.205
 3390POPC   C1B44407  22.570  28.122   6.239
 3390POPC   C2B44408  22.628  27.981   6.702
 3390POPC   C3B44409  22.518  28.148   7.151
 3390POPC   C4B44410  22.501  28.083   7.637
 3391POPC   NC344411   1.710  33.203   5.292
 3391POPC   PO444412   2.219  32.976   5.149
 3391POPC   GL144413   2.114  33.160   5.643
 3391POPC   GL244414   1.786  33.265   5.795
 3391POPC   C1A44415   2.166  33.103   6.121
 3391POPC   D2A44416   2.053  32.853   6.512
 3391POPC   C3A44417   1.995  32.940   6.953
 3391POPC   C4A44418   2.084  33.276   7.253
 3391POPC   C1B44419   1.523  33.370   6.158
 3391POPC   C2B44420   1.512  33.206   6.593
 3391POPC   C3B44421   1.611  33.244   7.060
 3391POPC   C4B44422   1.677  32.907   7.372
 3392POPC   NC344423  44.677  13.309   5.310
 3392POPC   PO444424  44.599  12.589   5.320
 3392POPC   GL144425  44.682  12.884   5.648
 3392POPC   GL244426  44.358  13.069   5.652
 3392POPC   C1A44427  44.907  13.040   6.040
 3392POPC   D2A44428  44.982  13.223   6.470
 3392POPC   C3A44429  44.920  12.919   6.818
 3392POPC   C4A44430  44.818  13.006   7.247
 3392POPC   C1B44431  44.393  13.141   6.094
 3392POPC   C2B44432  44.465  13.030   6.524
 3392POPC   C3B44433  44.482  13.236   6.925
 3392POPC   C4B44434  44.308  13.075   7.285
 3393POPC   NC344435  36.061   3.994   5.327
 3393POPC   PO444436  36.357   4.556   5.488
 3393POPC   GL144437  36.131   4.441   5.821
 3393POPC   GL244438  36.246   4.145   5.826
 3393POPC   C1A44439  36.200   4.538   6.269
 3393POPC   D2A44440  36.205   4.781   6.632
 3393POPC   C3A44441  36.099   4.547   6.910
 3393POPC   C4A44442  36.345   4.287   7.090
 3393POPC   C1B44443  36.470   4.105   6.210
 3393POPC   C2B44444  36.212   4.107   6.584
 3393POPC   C3B44445  35.940   4.040   6.919
 3393POPC   C4B44446  36.121   3.894   7.326
 3394POPC   NC344447  32.158  35.177   5.548
 3394POPC   PO444448  32.323  35.736   5.234
 3394POPC   GL144449  32.514  35.383   5.812
 3394POPC   GL244450  32.251  35.213   6.033
 3394POPC   C1A44451  32.416  35.612   6.278
 3394POPC   D2A44452  32.283  35.341   6.659
 3394POPC   C3A44453  32.327  35.443   7.134
 3394POPC   C4A44454  32.231  35.555   7.610
 3394POPC   C1B44455  31.864  35.072   6.247
 3394POPC   C2B44456  31.599  35.130   6.578
 3394POPC   C3B44457  31.854  35.213   6.941
 3394POPC   C4B44458  31.833  35.449   7.310
 3395POPC   NC344459   7.007  44.821   5.471
 3395POPC   PO444460   7.688  44.663   5.328
 3395POPC   GL144461   7.649  44.626   5.774
 3395POPC   GL244462   7.318  44.471   5.791
 3395POPC   C1A44463   7.642  44.772   6.221
 3395POPC   D2A44464   7.486  44.845   6.651
 3395POPC   C3A44465   7.713   0.027   7.003
 3395POPC   C4A44466   7.670  44.721   7.318
 3395POPC   C1B44467   7.217  44.479   6.223
 3395POPC   C2B44468   7.074  44.548   6.638
 3395POPC   C3B44469   7.222  44.640   7.087
 3395POPC   C4B44470   7.235  44.329   7.462
 3396POPC   NC344471  20.708  26.895   5.392
 3396POPC   PO444472  20.392  26.333   5.707
 3396POPC   GL144473  20.548  26.679   5.951
 3396POPC   GL244474  20.675  27.034   5.869
 3396POPC   C1A44475  20.685  26.825   6.361
 3396POPC   D2A44476  20.429  26.974   6.698
 3396POPC   C3A44477  20.584  26.865   7.117
 3396POPC   C4A44478  20.755  26.753   7.511
 3396POPC   C1B44479  20.937  27.223   6.185
 3396POPC   C2B44480  20.791  27.324   6.614
 3396POPC   C3B44481  20.869  27.265   7.061
 3396POPC   C4B44482  20.712  27.259   7.514
 3397POPC   NC344483  12.299  16.665   5.393
 3397POPC   PO444484  11.666  16.503   5.299
 3397POPC   GL144485  11.912  16.574   5.740
 3397POPC   GL244486  12.094  16.904   5.783
 3397POPC   C1A44487  12.054  16.569   6.212
 3397POPC   D2A44488  12.330  16.510   6.607
 3397POPC   C3A44489  12.185  16.423   7.015
 3397POPC   C4A44490  12.052  16.713   7.332
 3397POPC   C1B44491  12.299  17.021   6.156
 3397POPC   C2B44492  12.168  17.008   6.563
 3397POPC   C3B44493  12.339  16.899   6.943
 3397POPC   C4B44494  12.459  17.020   7.321
 3398POPC   NC344495  21.862   3.142   5.453
 3398POPC   PO444496  21.166   3.589   5.509
 3398POPC   GL144497  21.393   3.440   5.821
 3398POPC   GL244498  21.702   3.624   5.758
 3398POPC   C1A44499  21.239   3.361   6.235
 3398POPC   D2A44500  21.319   3.160   6.607
 3398POPC   C3A44501  21.291   3.313   7.007
 3398POPC   C4A44502  21.610   3.380   7.321
 3398POPC   C1B44503  21.539   3.838   6.143
 3398POPC   C2B44504  21.493   3.702   6.586
 3398POPC   C3B44505  21.395   3.792   7.029
 3398POPC   C4B44506  21.008   3.736   7.162
 3399POPC   NC344507  40.041  13.381   5.521
 3399POPC   PO444508  40.233  12.677   5.559
 3399POPC   GL144509  40.222  12.980   5.848
 3399POPC   GL244510  39.870  12.961   5.823
 3399POPC   C1A44511  40.093  13.124   6.261
 3399POPC   D2A44512  40.322  13.230   6.634
 3399POPC   C3A44513  40.141  12.996   6.947
 3399POPC   C4A44514  40.226  12.918   7.321
 3399POPC   C1B44515  39.642  12.826   6.164
 3399POPC   C2B44516  39.650  13.024   6.539
 3399POPC   C3B44517  39.611  12.848   6.905
 3399POPC   C4B44518  39.749  12.849   7.286
 3400POPC   NC344519  28.746  13.834   5.592
 3400POPC   PO444520  29.365  13.563   5.441
 3400POPC   GL144521  29.217  13.785   5.806
 3400POPC   GL244522  29.006  13.520   5.900
 3400POPC   C1A44523  29.030  13.919   6.214
 3400POPC   D2A44524  29.134  13.713   6.586
 3400POPC   C3A44525  29.114  13.890   6.987
 3400POPC   C4A44526  29.233  13.727   7.400
 3400POPC   C1B44527  29.361  13.451   6.181
 3400POPC   C2B44528  29.444  13.279   6.592
 3400POPC   C3B44529  29.384  13.369   7.028
 3400POPC   C4B44530  29.436  13.116   7.400
 3401POPC   NC344531  43.072  14.842   5.338
 3401POPC   PO444532  42.784  14.264   5.395
 3401POPC   GL144533  42.951  14.487   5.735
 3401POPC   GL244534  43.194  14.246   5.813
 3401POPC   C1A44535  42.873  14.558   6.172
 3401POPC   D2A44536  42.734  14.381   6.556
 3401POPC   C3A44537  42.852  14.529   6.940
 3401POPC   C4A44538  43.150  14.393   7.222
 3401POPC   C1B44539  43.328  14.320   6.229
 3401POPC   C2B44540  43.271  14.497   6.635
 3401POPC   C3B44541  43.304  14.812   6.958
 3401POPC   C4B44542  43.461  15.018   7.313
 3402POPC   NC344543  25.695  25.099   5.542
 3402POPC   PO444544  25.167  25.444   5.280
 3402POPC   GL144545  25.180  25.202   5.663
 3402POPC   GL244546  25.399  25.435   5.810
 3402POPC   C1A44547  25.098  25.084   6.108
 3402POPC   D2A44548  25.336  25.082   6.502
 3402POPC   C3A44549  25.170  24.975   6.892
 3402POPC   C4A44550  25.229  25.131   7.295
 3402POPC   C1B44551  25.138  25.596   6.139
 3402POPC   C2B44552  25.317  25.584   6.554
 3402POPC   C3B44553  25.486  25.392   6.907
 3402POPC   C4B44554  25.444  25.575   7.329
 3403POPC   NC344555  17.054  43.852   5.525
 3403POPC   PO444556  16.422  43.893   5.311
 3403POPC   GL144557  16.489  43.888   5.783
 3403POPC   GL244558  16.797  44.065   5.914
 3403POPC   C1A44559  16.576  43.721   6.229
 3403POPC   D2A44560  16.479  43.523   6.629
 3403POPC   C3A44561  16.703  43.464   6.991
 3403POPC   C4A44562  16.756  43.392   7.423
 3403POPC   C1B44563  16.814  44.151   6.368
 3403POPC   C2B44564  16.763  43.936   6.738
 3403POPC   C3B44565  16.748  43.921   7.169
 3403POPC   C4B44566  16.608  43.862   7.545
 3404POPC   NC344567   8.835  27.684   5.382
 3404POPC   PO444568   9.349  27.818   5.750
 3404POPC   GL144569   8.923  27.732   5.874
 3404POPC   GL244570   8.634  27.979   5.751
 3404POPC   C1A44571   8.918  27.571   6.272
 3404POPC   D2A44572   9.186  27.678   6.613
 3404POPC   C3A44573   9.012  27.495   6.993
 3404POPC   C4A44574   9.381  27.481   7.246
 3404POPC   C1B44575   8.673  28.025   6.224
 3404POPC   C2B44576   8.695  27.828   6.662
 3404POPC   C3B44577   8.663  28.001   7.092
 3404POPC   C4B44578   8.544  27.879   7.556
 3405POPC   NC344579  29.633  20.150   5.473
 3405POPC   PO444580  29.964  19.555   5.392
 3405POPC   GL144581  29.789  19.721   5.768
 3405POPC   GL244582  29.447  19.811   5.803
 3405POPC   C1A44583  29.815  19.674   6.220
 3405POPC   D2A44584  29.896  19.925   6.585
 3405POPC   C3A44585  30.136  19.791   6.927
 3405POPC   C4A44586  30.238  20.014   7.275
 3405POPC   C1B44587  29.478  20.068   6.199
 3405POPC   C2B44588  29.399  20.027   6.644
 3405POPC   C3B44589  29.473  20.253   7.006
 3405POPC   C4B44590  29.685  20.112   7.340
 3406POPC   NC344591  41.345  27.985   5.417
 3406POPC   PO444592  41.784  28.445   5.586
 3406POPC   GL144593  41.482  28.468   5.927
 3406POPC   GL244594  41.331  28.145   5.913
 3406POPC   C1A44595  41.389  28.492   6.396
 3406POPC   D2A44596  41.516  28.708   6.746
 3406POPC   C3A44597  41.656  28.523   7.064
 3406POPC   C4A44598  41.354  28.389   7.323
 3406POPC   C1B44599  41.641  28.085   6.230
 3406POPC   C2B44600  41.729  28.171   6.668
 3406POPC   C3B44601  41.603  28.017   7.065
 3406POPC   C4B44602  41.744  28.130   7.464
 3407POPC   NC344603   3.041   0.262   5.171
 3407POPC   PO444604   2.599   0.663   5.481
 3407POPC   GL144605   2.863   0.512   5.797
 3407POPC   GL244606   3.072   0.193   5.681
 3407POPC   C1A44607   2.731   0.547   6.249
 3407POPC   D2A44608   2.537   0.344   6.627
 3407POPC   C3A44609   2.823   0.447   6.995
 3407POPC   C4A44610   2.829   0.840   7.265
 3407POPC   C1B44611   2.929   0.100   6.080
 3407POPC   C2B44612   2.999   0.148   6.503
 3407POPC   C3B44613   2.997  44.957   6.887
 3407POPC   C4B44614   3.129   0.061   7.291
 3408POPC   NC344615  21.127  19.558   5.106
 3408POPC   PO444616  21.456  20.129   5.391
 3408POPC   GL144617  21.202  19.962   5.704
 3408POPC   GL244618  21.445  19.739   5.791
 3408POPC   C1A44619  21.120  20.112   6.168
 3408POPC   D2A44620  21.346  20.127   6.605
 3408POPC   C3A44621  21.201  20.298   6.999
 3408POPC   C4A44622  21.219  20.110   7.420
 3408POPC   C1B44623  21.546  19.830   6.208
 3408POPC   C2B44624  21.527  19.636   6.608
 3408POPC   C3B44625  21.453  19.796   7.011
 3408POPC   C4B44626  21.639  19.804   7.398
 3409POPC   NC344627  41.582  40.949   5.414
 3409POPC   PO444628  41.051  40.528   5.155
 3409POPC   GL144629  41.300  40.361   5.631
 3409POPC   GL244630  41.599  40.591   5.763
 3409POPC   C1A44631  41.284  40.509   6.136
 3409POPC   D2A44632  41.547  40.400   6.517
 3409POPC   C3A44633  41.362  40.513   6.901
 3409POPC   C4A44634  41.315  40.928   7.109
 3409POPC   C1B44635  41.699  40.836   6.173
 3409POPC   C2B44636  41.589  40.894   6.630
 3409POPC   C3B44637  41.792  40.759   7.011
 3409POPC   C4B44638  41.785  40.940   7.418
 3410POPC   NC344639   1.361  24.099   5.447
 3410POPC   PO444640   1.381  23.510   5.088
 3410POPC   GL144641   1.402  23.627   5.652
 3410POPC   GL244642   1.243  23.945   5.898
 3410POPC   C1A44643   1.204  23.505   6.103
 3410POPC   D2A44644   1.050  23.683   6.508
 3410POPC   C3A44645   1.070  23.452   6.908
 3410POPC   C4A44646   1.238  23.728   7.176
 3410POPC   C1B44647   0.904  24.101   6.204
 3410POPC   C2B44648   0.757  24.185   6.640
 3410POPC   C3B44649   0.839  24.004   7.039
 3410POPC   C4B44650   0.829  23.944   7.502
 3411POPC   NC344651  31.289  25.828   5.343
 3411POPC   PO444652  31.853  25.518   5.476
 3411POPC   GL144653  31.617  25.909   5.714
 3411POPC   GL244654  31.304  26.134   5.758
 3411POPC   C1A44655  31.602  25.849   6.142
 3411POPC   D2A44656  31.741  25.695   6.526
 3411POPC   C3A44657  31.717  26.073   6.789
 3411POPC   C4A44658  31.611  25.990   7.218
 3411POPC   C1B44659  31.139  26.067   6.200
 3411POPC   C2B44660  31.273  25.938   6.585
 3411POPC   C3B44661  31.128  26.035   7.002
 3411POPC   C4B44662  31.206  26.227   7.419
 3412POPC   NC344663  34.034  34.334   5.384
 3412POPC   PO444664  33.488  34.642   5.578
 3412POPC   GL144665  33.794  34.397   5.824
 3412POPC   GL244666  34.192  34.326   5.866
 3412POPC   C1A44667  33.680  34.262   6.223
 3412POPC   D2A44668  33.415  34.488   6.527
 3412POPC   C3A44669  33.601  34.422   6.938
 3412POPC   C4A44670  33.646  34.665   7.283
 3412POPC   C1B44671  34.075  34.592   6.212
 3412POPC   C2B44672  33.887  34.742   6.593
 3412POPC   C3B44673  34.068  34.721   6.987
 3412POPC   C4B44674  34.108  34.469   7.343
 3413POPC   NC344675  32.211  27.382   5.505
 3413POPC   PO444676  32.626  26.929   5.233
 3413POPC   GL144677  32.382  26.928   5.690
 3413POPC   GL244678  31.989  26.904   5.746
 3413POPC   C1A44679  32.313  26.667   6.085
 3413POPC   D2A44680  32.127  26.612   6.496
 3413POPC   C3A44681  32.422  26.713   6.823
 3413POPC   C4A44682  32.263  26.663   7.223
 3413POPC   C1B44683  32.068  27.118   6.127
 3413POPC   C2B44684  31.927  27.091   6.559
 3413POPC   C3B44685  31.863  26.874   6.943
 3413POPC   C4B44686  31.974  27.061   7.345
 3414POPC   NC344687  27.314  19.762   5.394
 3414POPC   PO444688  26.669  19.801   5.380
 3414POPC   GL144689  26.841  19.671   5.730
 3414POPC   GL244690  27.047  19.384   5.618
 3414POPC   C1A44691  26.915  19.882   6.140
 3414POPC   D2A44692  26.742  20.033   6.538
 3414POPC   C3A44693  26.883  19.796   6.897
 3414POPC   C4A44694  26.897  19.973   7.302
 3414POPC   C1B44695  27.198  19.460   6.018
 3414POPC   C2B44696  27.242  19.449   6.467
 3414POPC   C3B44697  27.264  19.406   6.895
 3414POPC   C4B44698  27.080  19.506   7.278
 3415POPC   NC344699  26.831   0.634   5.559
 3415POPC   PO444700  26.454   0.216   5.165
 3415POPC   GL144701  26.587   0.238   5.735
 3415POPC   GL244702  26.493   0.530   5.985
 3415POPC   C1A44703  26.923   0.352   6.138
 3415POPC   D2A44704  26.975   0.612   6.512
 3415POPC   C3A44705  27.003   0.334   6.849
 3415POPC   C4A44706  27.078   0.339   7.263
 3415POPC   C1B44707  26.259   0.593   6.366
 3415POPC   C2B44708  26.506   0.412   6.695
 3415POPC   C3B44709  26.548   0.523   7.129
 3415POPC   C4B44710  26.519   0.791   7.527
 3416POPC   NC344711  41.786  26.419   5.555
 3416POPC   PO444712  41.372  26.844   5.209
 3416POPC   GL144713  41.496  26.893   5.701
 3416POPC   GL244714  41.576  26.634   5.966
 3416POPC   C1A44715  41.578  27.146   6.106
 3416POPC   D2A44716  41.775  27.166   6.540
 3416POPC   C3A44717  41.587  27.162   6.962
 3416POPC   C4A44718  41.337  26.961   7.258
 3416POPC   C1B44719  41.916  26.622   6.256
 3416POPC   C2B44720  41.931  26.453   6.654
 3416POPC   C3B44721  41.625  26.612   6.969
 3416POPC   C4B44722  41.556  26.524   7.397
 3417POPC   NC344723   0.775  16.318   5.474
 3417POPC   PO444724   0.238  15.949   5.359
 3417POPC   GL144725   0.438  15.993   5.760
 3417POPC   GL244726   0.653  15.756   5.878
 3417POPC   C1A44727   0.375  15.979   6.222
 3417POPC   D2A44728   0.281  15.803   6.606
 3417POPC   C3A44729   0.162  16.078   6.895
 3417POPC   C4A44730   0.313  15.981   7.268
 3417POPC   C1B44731   0.891  15.743   6.242
 3417POPC   C2B44732   0.909  15.577   6.627
 3417POPC   C3B44733   0.691  15.724   6.967
 3417POPC   C4B44734   0.910  15.831   7.302
 3418POPC   NC344735   5.936   4.512   5.277
 3418POPC   PO444736   5.600   4.105   5.557
 3418POPC   GL144737   5.763   4.395   5.788
 3418POPC   GL244738   6.090   4.313   5.760
 3418POPC   C1A44739   5.767   4.458   6.217
 3418POPC   D2A44740   5.750   4.155   6.561
 3418POPC   C3A44741   5.961   4.297   6.935
 3418POPC   C4A44742   5.862   4.155   7.345
 3418POPC   C1B44743   6.105   4.048   6.141
 3418POPC   C2B44744   6.232   3.986   6.564
 3418POPC   C3B44745   6.073   3.807   6.922
 3418POPC   C4B44746   6.238   3.802   7.327
 3419POPC   NC344747  36.858  10.895   5.431
 3419POPC   PO444748  37.182  10.259   5.626
 3419POPC   GL144749  36.977  10.571   5.889
 3419POPC   GL244750  37.049  10.931   5.907
 3419POPC   C1A44751  36.910  10.389   6.306
 3419POPC   D2A44752  37.034  10.444   6.713
 3419POPC   C3A44753  36.747  10.345   7.017
 3419POPC   C4A44754  37.086  10.154   7.188
 3419POPC   C1B44755  36.846  10.884   6.281
 3419POPC   C2B44756  36.998  10.936   6.674
 3419POPC   C3B44757  36.865  10.827   7.084
 3419POPC   C4B44758  36.641  10.862   7.468
 3420POPC   NC344759  38.453  31.773   5.683
 3420POPC   PO444760  38.472  31.119   5.464
 3420POPC   GL144761  38.675  31.346   5.813
 3420POPC   GL244762  38.310  31.311   5.909
 3420POPC   C1A44763  38.789  31.624   6.198
 3420POPC   D2A44764  38.949  31.706   6.598
 3420POPC   C3A44765  38.728  31.850   6.952
 3420POPC   C4A44766  38.632  31.656   7.348
 3420POPC   C1B44767  38.176  31.528   6.257
 3420POPC   C2B44768  38.445  31.584   6.584
 3420POPC   C3B44769  38.374  31.448   6.957
 3420POPC   C4B44770  38.094  31.567   7.233
 3421POPC   NC344771  35.198   2.567   5.492
 3421POPC   PO444772  34.569   2.839   5.486
 3421POPC   GL144773  34.728   2.543   5.768
 3421POPC   GL244774  34.435   2.610   5.951
 3421POPC   C1A44775  34.865   2.489   6.203
 3421POPC   D2A44776  34.837   2.716   6.583
 3421POPC   C3A44777  34.885   2.496   6.944
 3421POPC   C4A44778  34.776   2.652   7.329
 3421POPC   C1B44779  34.599   2.980   6.185
 3421POPC   C2B44780  34.664   3.221   6.579
 3421POPC   C3B44781  34.671   3.035   6.991
 3421POPC   C4B44782  34.798   3.151   7.401
 3422POPC   NC344783  11.668  18.380   5.510
 3422POPC   PO444784  11.020  18.181   5.323
 3422POPC   GL144785  11.152  18.111   5.775
 3422POPC   GL244786  11.520  18.006   5.838
 3422POPC   C1A44787  11.066  18.386   6.150
 3422POPC   D2A44788  11.045  18.616   6.556
 3422POPC   C3A44789  11.372  18.479   6.857
 3422POPC   C4A44790  11.223  18.398   7.236
 3422POPC   C1B44791  11.342  17.975   6.260
 3422POPC   C2B44792  11.128  18.085   6.605
 3422POPC   C3B44793  11.190  17.944   7.001
 3422POPC   C4B44794  11.571  18.037   7.190
 3423POPC   NC344795   4.931  17.639   5.555
 3423POPC   PO444796   4.300  17.559   5.384
 3423POPC   GL144797   4.223  17.481   5.800
 3423POPC   GL244798   4.558  17.508   5.869
 3423POPC   C1A44799   4.229  17.619   6.244
 3423POPC   D2A44800   4.266  17.429   6.645
 3423POPC   C3A44801   4.315  17.668   7.027
 3423POPC   C4A44802   4.263  17.527   7.455
 3423POPC   C1B44803   4.682  17.859   6.125
 3423POPC   C2B44804   4.690  17.738   6.541
 3423POPC   C3B44805   4.826  17.619   6.906
 3423POPC   C4B44806   4.759  17.549   7.300
 3424POPC   NC344807  38.765  41.074   5.005
 3424POPC   PO444808  38.616  41.652   5.301
 3424POPC   GL144809  38.430  41.540   5.748
 3424POPC   GL244810  38.106  41.320   5.756
 3424POPC   C1A44811  38.606  41.579   6.198
 3424POPC   D2A44812  38.697  41.325   6.611
 3424POPC   C3A44813  38.710  41.509   7.069
 3424POPC   C4A44814  38.472  41.879   7.240
 3424POPC   C1B44815  38.079  41.565   6.153
 3424POPC   C2B44816  38.249  41.613   6.572
 3424POPC   C3B44817  38.100  41.598   6.970
 3424POPC   C4B44818  38.229  41.401   7.303
 3425POPC   NC344819  16.931  42.571   5.508
 3425POPC   PO444820  16.886  43.320   5.499
 3425POPC   GL144821  16.602  43.147   5.813
 3425POPC   GL244822  16.653  42.804   5.879
 3425POPC   C1A44823  16.491  43.189   6.244
 3425POPC   D2A44824  16.583  43.034   6.687
 3425POPC   C3A44825  16.964  43.040   6.927
 3425POPC   C4A44826  17.028  42.957   7.366
 3425POPC   C1B44827  16.902  42.868   6.217
 3425POPC   C2B44828  16.940  42.649   6.589
 3425POPC   C3B44829  16.672  42.604   6.936
 3425POPC   C4B44830  16.561  42.823   7.211
 3426POPC   NC344831  25.528  40.622   5.401
 3426POPC   PO444832  24.892  40.455   5.320
 3426POPC   GL144833  25.051  40.768   5.725
 3426POPC   GL244834  25.416  40.859   5.845
 3426POPC   C1A44835  25.045  40.768   6.199
 3426POPC   D2A44836  24.853  40.627   6.597
 3426POPC   C3A44837  25.140  40.569   6.919
 3426POPC   C4A44838  25.035  40.718   7.317
 3426POPC   C1B44839  25.563  41.050   6.230
 3426POPC   C2B44840  25.327  41.089   6.617
 3426POPC   C3B44841  25.403  41.011   7.055
 3426POPC   C4B44842  25.532  40.849   7.438
 3427POPC   NC344843  33.947  33.374   5.650
 3427POPC   PO444844  33.479  33.708   5.308
 3427POPC   GL144845  33.581  33.812   5.770
 3427POPC   GL244846  33.907  33.895   5.904
 3427POPC   C1A44847  33.573  33.753   6.260
 3427POPC   D2A44848  33.491  33.991   6.652
 3427POPC   C3A44849  33.607  33.884   7.086
 3427POPC   C4A44850  33.639  34.153   7.459
 3427POPC   C1B44851  34.198  33.962   6.246
 3427POPC   C2B44852  34.229  33.655   6.587
 3427POPC   C3B44853  34.045  33.615   6.986
 3427POPC   C4B44854  34.135  33.977   7.244
 3428POPC   NC344855  42.816  36.428   5.486
 3428POPC   PO444856  42.365  36.005   5.555
 3428POPC   GL144857  42.332  36.152   5.951
 3428POPC   GL244858  42.234  36.467   5.890
 3428POPC   C1A44859  42.272  36.258   6.385
 3428POPC   D2A44860  42.222  35.951   6.716
 3428POPC   C3A44861  42.410  35.935   7.109
 3428POPC   C4A44862  42.577  36.286   7.290
 3428POPC   C1B44863  42.229  36.781   6.187
 3428POPC   C2B44864  42.391  36.768   6.576
 3428POPC   C3B44865  42.339  36.452   6.862
 3428POPC   C4B44866  42.156  36.572   7.215
 3429POPC   NC344867  35.017   8.722   5.533
 3429POPC   PO444868  35.634   8.430   5.398
 3429POPC   GL144869  35.708   8.284   5.822
 3429POPC   GL244870  35.355   8.302   5.964
 3429POPC   C1A44871  35.688   8.003   6.188
 3429POPC   D2A44872  35.372   8.070   6.515
 3429POPC   C3A44873  35.552   8.075   6.927
 3429POPC   C4A44874  35.675   8.412   7.218
 3429POPC   C1B44875  34.994   8.331   6.229
 3429POPC   C2B44876  34.831   8.506   6.601
 3429POPC   C3B44877  34.932   8.553   7.009
 3429POPC   C4B44878  35.177   8.231   7.210
 3430POPC   NC344879  11.075  25.316   5.591
 3430POPC   PO444880  11.677  25.133   5.498
 3430POPC   GL144881  11.476  25.160   5.910
 3430POPC   GL244882  11.131  25.239   6.078
 3430POPC   C1A44883  11.552  25.388   6.279
 3430POPC   D2A44884  11.335  25.401   6.670
 3430POPC   C3A44885  11.594  25.179   6.947
 3430POPC   C4A44886  11.636  24.946   7.284
 3430POPC   C1B44887  10.949  24.901   6.286
 3430POPC   C2B44888  10.838  24.833   6.707
 3430POPC   C3B44889  10.999  25.097   7.051
 3430POPC   C4B44890  11.147  25.008   7.482
 3431POPC   NC344891   4.168   3.167   5.222
 3431POPC   PO444892   4.183   3.871   5.358
 3431POPC   GL144893   4.299   3.824   5.842
 3431POPC   GL244894   4.573   3.675   5.932
 3431POPC   C1A44895   4.196   3.580   6.266
 3431POPC   D2A44896   4.418   3.507   6.675
 3431POPC   C3A44897   4.328   3.772   7.035
 3431POPC   C4A44898   4.026   3.800   7.367
 3431POPC   C1B44899   4.682   3.324   6.240
 3431POPC   C2B44900   4.677   3.068   6.639
 3431POPC   C3B44901   4.774   3.284   7.049
 3431POPC   C4B44902   4.757   3.648   7.321
 3432POPC   NC344903  25.691  42.553   5.537
 3432POPC   PO444904  25.223  42.055   5.388
 3432POPC   GL144905  25.259  42.326   5.734
 3432POPC   GL244906  25.545  42.216   5.898
 3432POPC   C1A44907  24.991  42.431   6.079
 3432POPC   D2A44908  25.027  42.296   6.510
 3432POPC   C3A44909  25.021  42.525   6.882
 3432POPC   C4A44910  25.070  42.359   7.270
 3432POPC   C1B44911  25.471  42.563   6.191
 3432POPC   C2B44912  25.481  42.557   6.644
 3432POPC   C3B44913  25.501  42.602   7.108
 3432POPC   C4B44914  25.553  42.265   7.383
 3433POPC   NC344915  12.658   8.917   5.477
 3433POPC   PO444916  13.084   9.428   5.447
 3433POPC   GL144917  13.024   9.144   5.832
 3433POPC   GL244918  12.680   9.085   5.940
 3433POPC   C1A44919  13.013   8.849   6.222
 3433POPC   D2A44920  12.790   8.855   6.628
 3433POPC   C3A44921  13.060   8.908   6.976
 3433POPC   C4A44922  13.203   9.164   7.333
 3433POPC   C1B44923  12.743   9.290   6.331
 3433POPC   C2B44924  12.485   9.292   6.671
 3433POPC   C3B44925  12.451   9.102   7.041
 3433POPC   C4B44926  12.728   8.983   7.347
 3434POPC   NC344927  10.254  19.143   5.466
 3434POPC   PO444928  10.872  19.485   5.456
 3434POPC   GL144929  10.792  19.242   5.820
 3434POPC   GL244930  10.489  19.085   5.909
 3434POPC   C1A44931  10.932  19.023   6.201
 3434POPC   D2A44932  10.849  19.147   6.626
 3434POPC   C3A44933  10.741  18.834   6.971
 3434POPC   C4A44934  10.885  18.719   7.423
 3434POPC   C1B44935  10.489  19.338   6.278
 3434POPC   C2B44936  10.315  19.529   6.649
 3434POPC   C3B44937  10.561  19.388   6.975
 3434POPC   C4B44938  10.778  19.240   7.320
 3435POPC   NC344939   4.683  40.894   5.499
 3435POPC   PO444940   4.059  40.589   5.402
 3435POPC   GL144941   4.095  40.719   5.808
 3435POPC   GL244942   4.446  40.654   5.898
 3435POPC   C1A44943   3.960  40.924   6.187
 3435POPC   D2A44944   4.018  41.006   6.620
 3435POPC   C3A44945   4.162  40.735   6.928
 3435POPC   C4A44946   4.195  40.962   7.299
 3435POPC   C1B44947   4.429  40.751   6.367
 3435POPC   C2B44948   4.684  40.779   6.786
 3435POPC   C3B44949   4.682  41.044   7.184
 3435POPC   C4B44950   4.598  40.941   7.634
 3436POPC   NC344951   5.560  23.772   5.487
 3436POPC   PO444952   6.172  23.558   5.529
 3436POPC   GL144953   6.102  23.789   5.927
 3436POPC   GL244954   5.743  23.901   5.956
 3436POPC   C1A44955   6.199  23.712   6.381
 3436POPC   D2A44956   6.171  23.356   6.674
 3436POPC   C3A44957   5.878  23.464   7.000
 3436POPC   C4A44958   5.914  23.731   7.366
 3436POPC   C1B44959   5.762  23.964   6.357
 3436POPC   C2B44960   5.788  23.935   6.787
 3436POPC   C3B44961   5.486  23.990   7.111
 3436POPC   C4B44962   5.445  24.030   7.566
 3437POPC   NC344963  41.024  21.522   5.408
 3437POPC   PO444964  40.330  21.608   5.520
 3437POPC   GL144965  40.695  21.496   5.812
 3437POPC   GL244966  41.062  21.532   5.898
 3437POPC   C1A44967  40.743  21.216   6.164
 3437POPC   D2A44968  40.559  21.080   6.552
 3437POPC   C3A44969  40.683  21.358   6.886
 3437POPC   C4A44970  40.638  21.547   7.279
 3437POPC   C1B44971  41.280  21.356   6.215
 3437POPC   C2B44972  41.078  21.203   6.562
 3437POPC   C3B44973  41.022  20.955   6.907
 3437POPC   C4B44974  41.023  21.210   7.276
 3438POPC   NC344975  39.151  40.905   5.421
 3438POPC   PO444976  39.746  40.504   5.420
 3438POPC   GL144977  39.376  40.559   5.797
 3438POPC   GL244978  39.000  40.653   5.847
 3438POPC   C1A44979  39.293  40.672   6.292
 3438POPC   D2A44980  39.536  40.660   6.724
 3438POPC   C3A44981  39.370  40.645   7.173
 3438POPC   C4A44982  39.049  40.711   7.522
 3438POPC   C1B44983  38.771  40.776   6.252
 3438POPC   C2B44984  38.836  40.821   6.719
 3438POPC   C3B44985  38.989  41.026   7.124
 3438POPC   C4B44986  39.033  41.306   7.539
 3439POPC   NC344987  15.184  39.308   5.358
 3439POPC   PO444988  14.557  39.641   5.384
 3439POPC   GL144989  14.953  39.609   5.736
 3439POPC   GL244990  15.274  39.376   5.830
 3439POPC   C1A44991  15.048  39.590   6.215
 3439POPC   D2A44992  14.965  39.357   6.619
 3439POPC   C3A44993  15.001  39.553   6.994
 3439POPC   C4A44994  14.943  39.666   7.410
 3439POPC   C1B44995  15.533  39.325   6.159
 3439POPC   C2B44996  15.463  39.499   6.539
 3439POPC   C3B44997  15.539  39.352   6.923
 3439POPC   C4B44998  15.308  39.255   7.250
 3440POPC   NC344999  32.491  36.162   5.245
 3440POPC   PO445000  32.156  35.704   5.708
 3440POPC   GL145001  32.211  36.066   5.899
 3440POPC   GL245002  32.472  36.279   5.759
 3440POPC   C1A45003  32.054  36.098   6.343
 3440POPC   D2A45004  31.986  35.789   6.703
 3440POPC   C3A45005  32.169  35.915   7.097
 3440POPC   C4A45006  32.088  36.125   7.470
 3440POPC   C1B45007  32.535  36.238   6.229
 3440POPC   C2B45008  32.449  36.100   6.695
 3440POPC   C3B45009  32.524  36.314   7.130
 3440POPC   C4B45010  32.834  36.304   7.510
 3441POPC   NC345011  12.937  31.231   5.446
 3441POPC   PO445012  12.440  31.702   5.614
 3441POPC   GL145013  12.787  31.539   5.850
 3441POPC   GL245014  13.031  31.816   5.869
 3441POPC   C1A45015  12.712  31.268   6.217
 3441POPC   D2A45016  12.849  31.239   6.650
 3441POPC   C3A45017  12.640  31.186   7.055
 3441POPC   C4A45018  12.577  31.538   7.293
 3441POPC   C1B45019  12.924  31.782   6.298
 3441POPC   C2B45020  13.150  31.653   6.636
 3441POPC   C3B45021  13.016  31.586   7.033
 3441POPC   C4B45022  12.971  31.871   7.378
 3442POPC   NC345023  32.468   5.536   5.617
 3442POPC   PO445024  32.077   5.044   5.295
 3442POPC   GL145025  32.148   4.849   5.706
 3442POPC   GL245026  32.093   5.191   5.845
 3442POPC   C1A45027  32.132   4.778   6.163
 3442POPC   D2A45028  32.297   4.690   6.581
 3442POPC   C3A45029  32.357   4.982   6.888
 3442POPC   C4A45030  32.014   4.866   7.112
 3442POPC   C1B45031  32.204   5.283   6.286
 3442POPC   C2B45032  31.955   5.263   6.681
 3442POPC   C3B45033  31.975   5.398   7.105
 3442POPC   C4B45034  32.133   5.371   7.519
 3443POPC   NC345035  32.887  33.350   5.481
 3443POPC   PO445036  33.317  32.853   5.341
 3443POPC   GL145037  33.171  32.977   5.745
 3443POPC   GL245038  32.855  32.848   5.879
 3443POPC   C1A45039  33.238  33.021   6.185
 3443POPC   D2A45040  33.021  32.916   6.545
 3443POPC   C3A45041  33.228  33.076   6.861
 3443POPC   C4A45042  33.309  32.925   7.261
 3443POPC   C1B45043  32.751  33.200   6.176
 3443POPC   C2B45044  32.596  33.309   6.599
 3443POPC   C3B45045  32.707  33.171   7.006
 3443POPC   C4B45046  33.035  33.353   7.224
 3444POPC   NC345047  25.162   7.367   5.397
 3444POPC   PO445048  25.712   7.857   5.465
 3444POPC   GL145049  25.466   7.609   5.821
 3444POPC   GL245050  25.103   7.522   5.880
 3444POPC   C1A45051  25.370   7.495   6.286
 3444POPC   D2A45052  25.524   7.222   6.597
 3444POPC   C3A45053  25.409   7.511   6.905
 3444POPC   C4A45054  25.146   7.655   7.249
 3444POPC   C1B45055  25.060   7.112   6.106
 3444POPC   C2B45056  25.031   7.053   6.571
 3444POPC   C3B45057  25.004   7.172   7.014
 3444POPC   C4B45058  24.783   6.990   7.358
 3445POPC   NC345059   5.496  40.255   5.517
 3445POPC   PO445060   4.905  40.083   5.238
 3445POPC   GL145061   4.872  39.973   5.692
 3445POPC   GL245062   5.213  39.855   5.724
 3445POPC   C1A45063   4.907  39.950   6.161
 3445POPC   D2A45064   4.783  39.803   6.576
 3445POPC   C3A45065   5.026  39.921   6.928
 3445POPC   C4A45066   4.828  39.741   7.232
 3445POPC   C1B45067   5.449  39.933   6.106
 3445POPC   C2B45068   5.319  39.864   6.508
 3445POPC   C3B45069   5.512  39.760   6.880
 3445POPC   C4B45070   5.357  39.727   7.279
 3446POPC   NC345071  29.487  39.342   5.439
 3446POPC   PO445072  28.902  39.103   5.590
 3446POPC   GL145073  29.213  39.171   5.896
 3446POPC   GL245074  29.402  38.873   5.838
 3446POPC   C1A45075  29.147  39.461   6.247
 3446POPC   D2A45076  28.889  39.621   6.581
 3446POPC   C3A45077  29.049  39.500   6.940
 3446POPC   C4A45078  28.882  39.326   7.279
 3446POPC   C1B45079  29.537  38.970   6.265
 3446POPC   C2B45080  29.356  39.179   6.641
 3446POPC   C3B45081  29.323  39.064   7.075
 3446POPC   C4B45082  29.520  38.824   7.400
 3447POPC   NC345083  36.550  27.010   5.602
 3447POPC   PO445084  37.160  26.951   5.404
 3447POPC   GL145085  37.010  26.869   5.802
 3447POPC   GL245086  36.924  26.526   5.786
 3447POPC   C1A45087  36.918  27.000   6.221
 3447POPC   D2A45088  36.693  26.866   6.570
 3447POPC   C3A45089  36.971  26.811   6.853
 3447POPC   C4A45090  37.081  26.910   7.227
 3447POPC   C1B45091  37.299  26.558   6.103
 3447POPC   C2B45092  37.377  26.697   6.549
 3447POPC   C3B45093  37.326  26.495   7.002
 3447POPC   C4B45094  36.919  26.406   7.273
 3448POPC   NC345095  33.332  24.334   5.058
 3448POPC   PO445096  32.915  24.413   5.515
 3448POPC   GL145097  33.070  24.537   5.841
 3448POPC   GL245098  33.413  24.513   5.721
 3448POPC   C1A45099  32.805  24.505   6.186
 3448POPC   D2A45100  32.697  24.587   6.577
 3448POPC   C3A45101  32.905  24.375   6.877
 3448POPC   C4A45102  33.025  24.401   7.280
 3448POPC   C1B45103  33.454  24.695   6.129
 3448POPC   C2B45104  33.234  24.588   6.523
 3448POPC   C3B45105  33.303  24.700   6.945
 3448POPC   C4B45106  33.482  24.594   7.330
 3449POPC   NC345107  30.804   5.887   5.247
 3449POPC   PO445108  30.521   5.412   5.593
 3449POPC   GL145109  30.609   5.681   5.922
 3449POPC   GL245110  30.693   5.990   5.749
 3449POPC   C1A45111  30.473   5.747   6.346
 3449POPC   D2A45112  30.789   5.797   6.656
 3449POPC   C3A45113  30.670   5.659   7.048
 3449POPC   C4A45114  30.907   5.806   7.396
 3449POPC   C1B45115  30.674   6.169   6.165
 3449POPC   C2B45116  30.479   6.210   6.584
 3449POPC   C3B45117  30.635   6.156   6.988
 3449POPC   C4B45118  30.499   6.104   7.390
 3450POPC   NC345119  39.220  21.031   5.606
 3450POPC   PO445120  39.138  21.700   5.465
 3450POPC   GL145121  39.305  21.470   5.856
 3450POPC   GL245122  38.997  21.388   5.907
 3450POPC   C1A45123  39.504  21.394   6.277
 3450POPC   D2A45124  39.648  21.526   6.694
 3450POPC   C3A45125  39.413  21.375   7.090
 3450POPC   C4A45126  39.203  21.119   7.438
 3450POPC   C1B45127  39.032  21.587   6.295
 3450POPC   C2B45128  39.121  21.343   6.656
 3450POPC   C3B45129  38.916  21.192   7.021
 3450POPC   C4B45130  38.860  21.492   7.371
 3451POPC   NC345131  41.751  32.259   5.573
 3451POPC   PO445132  41.141  32.260   5.520
 3451POPC   GL145133  41.347  32.279   5.878
 3451POPC   GL245134  41.409  31.951   5.859
 3451POPC   C1A45135  41.553  32.203   6.272
 3451POPC   D2A45136  41.545  32.420   6.633
 3451POPC   C3A45137  41.910  32.424   6.904
 3451POPC   C4A45138  41.853  32.318   7.334
 3451POPC   C1B45139  41.079  32.001   6.220
 3451POPC   C2B45140  41.158  32.085   6.668
 3451POPC   C3B45141  41.437  32.113   7.037
 3451POPC   C4B45142  41.482  31.993   7.451
 3452POPC   NC345143   4.572   4.088   5.449
 3452POPC   PO445144   4.413   4.705   5.356
 3452POPC   GL145145   4.355   4.473   5.742
 3452POPC   GL245146   4.073   4.247   5.719
 3452POPC   C1A45147   4.431   4.244   6.129
 3452POPC   D2A45148   4.378   4.465   6.516
 3452POPC   C3A45149   4.356   4.352   6.929
 3452POPC   C4A45150   4.603   4.559   7.233
 3452POPC   C1B45151   3.967   4.042   6.155
 3452POPC   C2B45152   4.142   3.999   6.575
 3452POPC   C3B45153   3.922   4.088   6.957
 3452POPC   C4B45154   4.062   4.328   7.373
 3453POPC   NC345155  12.682   0.248   5.617
 3453POPC   PO445156  12.917   0.834   5.398
 3453POPC   GL145157  13.069   0.597   5.764
 3453POPC   GL245158  13.177   0.210   5.724
 3453POPC   C1A45159  13.030   0.758   6.199
 3453POPC   D2A45160  12.990   0.909   6.606
 3453POPC   C3A45161  12.750   0.670   6.905
 3453POPC   C4A45162  13.030   0.651   7.247
 3453POPC   C1B45163  13.184   0.275   6.156
 3453POPC   C2B45164  12.946   0.348   6.538
 3453POPC   C3B45165  13.030   0.244   6.957
 3453POPC   C4B45166  13.034   0.107   7.400
 3454POPC   NC345167  28.245  37.118   5.438
 3454POPC   PO445168  28.646  36.611   5.482
 3454POPC   GL145169  28.531  36.896   5.852
 3454POPC   GL245170  28.171  36.865   5.945
 3454POPC   C1A45171  28.480  37.010   6.330
 3454POPC   D2A45172  28.679  36.933   6.719
 3454POPC   C3A45173  28.467  37.020   7.098
 3454POPC   C4A45174  28.283  36.668   7.299
 3454POPC   C1B45175  28.201  36.601   6.340
 3454POPC   C2B45176  28.149  36.775   6.777
 3454POPC   C3B45177  27.988  37.158   7.044
 3454POPC   C4B45178  28.123  37.205   7.494
 3455POPC   NC345179  36.188   0.899   5.487
 3455POPC   PO445180  36.003   1.548   5.207
 3455POPC   GL145181  35.972   1.448   5.717
 3455POPC   GL245182  35.915   1.110   5.842
 3455POPC   C1A45183  35.976   1.555   6.173
 3455POPC   D2A45184  35.744   1.490   6.585
 3455POPC   C3A45185  35.968   1.511   6.982
 3455POPC   C4A45186  36.436   1.527   7.029
 3455POPC   C1B45187  36.244   1.102   6.160
 3455POPC   C2B45188  36.255   1.299   6.573
 3455POPC   C3B45189  36.208   1.066   6.950
 3455POPC   C4B45190  36.500   0.890   7.217
 3456POPC   NC345191  31.716  34.593   5.483
 3456POPC   PO445192  32.398  34.758   5.495
 3456POPC   GL145193  32.205  34.519   5.754
 3456POPC   GL245194  31.988  34.715   5.905
 3456POPC   C1A45195  32.414  34.296   6.072
 3456POPC   D2A45196  32.540  34.315   6.463
 3456POPC   C3A45197  32.233  34.271   6.770
 3456POPC   C4A45198  32.291  34.305   7.220
 3456POPC   C1B45199  32.289  34.754   6.234
 3456POPC   C2B45200  32.175  34.785   6.645
 3456POPC   C3B45201  32.033  34.727   7.057
 3456POPC   C4B45202  32.144  35.030   7.357
 3457POPC   NC345203   2.303   2.460   5.508
 3457POPC   PO445204   1.960   2.969   5.173
 3457POPC   GL145205   2.007   2.972   5.660
 3457POPC   GL245206   2.257   2.782   5.885
 3457POPC   C1A45207   1.848   2.965   6.092
 3457POPC   D2A45208   2.059   3.168   6.472
 3457POPC   C3A45209   1.998   2.966   6.866
 3457POPC   C4A45210   2.106   3.048   7.278
 3457POPC   C1B45211   2.085   2.514   6.233
 3457POPC   C2B45212   1.934   2.445   6.682
 3457POPC   C3B45213   1.993   2.538   7.137
 3457POPC   C4B45214   2.110   2.414   7.557
 3458POPC   NC345215  28.698   5.871   5.588
 3458POPC   PO445216  29.335   5.896   5.343
 3458POPC   GL145217  29.172   5.900   5.777
 3458POPC   GL245218  29.052   6.228   5.717
 3458POPC   C1A45219  28.947   5.770   6.207
 3458POPC   D2A45220  28.933   5.568   6.651
 3458POPC   C3A45221  29.273   5.649   6.990
 3458POPC   C4A45222  29.421   6.029   7.235
 3458POPC   C1B45223  28.947   6.292   6.125
 3458POPC   C2B45224  28.791   6.236   6.532
 3458POPC   C3B45225  28.928   6.040   6.900
 3458POPC   C4B45226  28.921   5.864   7.291
 3459POPC   NC345227  35.679  44.405   5.493
 3459POPC   PO445228  36.294  44.701   5.461
 3459POPC   GL145229  36.189  44.632   5.873
 3459POPC   GL245230  35.973  44.373   5.918
 3459POPC   C1A45231  36.076  44.810   6.268
 3459POPC   D2A45232  36.235  44.684   6.663
 3459POPC   C3A45233  35.954  44.721   6.983
 3459POPC   C4A45234  35.693  44.873   7.334
 3459POPC   C1B45235  36.151  44.310   6.331
 3459POPC   C2B45236  35.961  44.234   6.757
 3459POPC   C3B45237  36.165  44.303   7.178
 3459POPC   C4B45238  36.190  44.672   7.445
 3460POPC   NC345239   8.501  34.442   5.514
 3460POPC   PO445240   9.164  34.277   5.402
 3460POPC   GL145241   9.269  34.371   5.843
 3460POPC   GL245242   9.400  34.705   5.794
 3460POPC   C1A45243   9.203  34.292   6.277
 3460POPC   D2A45244   9.322  34.483   6.645
 3460POPC   C3A45245   8.942  34.530   6.823
 3460POPC   C4A45246   8.832  34.601   7.228
 3460POPC   C1B45247   9.154  34.794   6.180
 3460POPC   C2B45248   9.144  34.988   6.580
 3460POPC   C3B45249   9.272  34.893   6.952
 3460POPC   C4B45250   9.239  34.887   7.331
 3461POPC   NC345251   3.096  39.660   5.451
 3461POPC   PO445252   2.740  40.305   5.420
 3461POPC   GL145253   2.592  40.075   5.774
 3461POPC   GL245254   2.913  39.916   5.833
 3461POPC   C1A45255   2.625  39.975   6.227
 3461POPC   D2A45256   2.732  39.706   6.574
 3461POPC   C3A45257   2.783  39.929   6.952
 3461POPC   C4A45258   2.608  40.098   7.338
 3461POPC   C1B45259   3.125  39.775   6.199
 3461POPC   C2B45260   3.230  39.855   6.626
 3461POPC   C3B45261   3.246  39.697   7.060
 3461POPC   C4B45262   2.940  39.715   7.407
 3462POPC   NC345263  34.095  42.739   5.429
 3462POPC   PO445264  33.677  43.188   5.444
 3462POPC   GL145265  33.742  43.161   5.835
 3462POPC   GL245266  33.707  42.808   5.800
 3462POPC   C1A45267  33.689  43.419   6.202
 3462POPC   D2A45268  33.839  43.462   6.640
 3462POPC   C3A45269  33.725  43.139   6.935
 3462POPC   C4A45270  33.841  43.101   7.375
 3462POPC   C1B45271  33.930  42.808   6.192
 3462POPC   C2B45272  33.889  42.703   6.644
 3462POPC   C3B45273  34.043  42.710   7.079
 3462POPC   C4B45274  33.943  42.642   7.539
 3463POPC   NC345275  24.312  20.357   5.356
 3463POPC   PO445276  24.825  20.792   5.399
 3463POPC   GL145277  24.574  20.539   5.747
 3463POPC   GL245278  24.275  20.713   5.816
 3463POPC   C1A45279  24.450  20.386   6.180
 3463POPC   D2A45280  24.576  20.182   6.592
 3463POPC   C3A45281  24.369  20.322   6.965
 3463POPC   C4A45282  24.449  20.230   7.402
 3463POPC   C1B45283  24.429  20.877   6.250
 3463POPC   C2B45284  24.563  20.714   6.638
 3463POPC   C3B45285  24.420  20.825   7.040
 3463POPC   C4B45286  24.249  20.829   7.473
 3464POPC   NC345287   8.152   1.899   5.411
 3464POPC   PO445288   8.725   1.884   5.705
 3464POPC   GL145289   8.330   1.847   5.905
 3464POPC   GL245290   8.094   2.176   5.833
 3464POPC   C1A45291   8.311   1.639   6.331
 3464POPC   D2A45292   8.472   1.825   6.731
 3464POPC   C3A45293   8.254   1.818   7.154
 3464POPC   C4A45294   8.508   1.875   7.526
 3464POPC   C1B45295   8.011   2.046   6.255
 3464POPC   C2B45296   7.964   1.937   6.699
 3464POPC   C3B45297   8.003   2.248   7.025
 3464POPC   C4B45298   8.197   2.299   7.436
 3465POPC   NC345299  13.628  41.421   5.538
 3465POPC   PO445300  13.523  42.079   5.385
 3465POPC   GL145301  13.591  41.882   5.755
 3465POPC   GL245302  13.252  41.781   5.789
 3465POPC   C1A45303  13.806  41.700   6.100
 3465POPC   D2A45304  13.881  41.878   6.484
 3465POPC   C3A45305  13.921  41.627   6.801
 3465POPC   C4A45306  13.875  41.641   7.243
 3465POPC   C1B45307  13.343  41.461   6.122
 3465POPC   C2B45308  13.509  41.467   6.539
 3465POPC   C3B45309  13.475  41.423   6.998
 3465POPC   C4B45310  13.364  41.815   7.242
 3466POPC   NC345311  44.268  44.628   5.380
 3466POPC   PO445312  43.627  44.422   5.237
 3466POPC   GL145313  43.655  44.560   5.718
 3466POPC   GL245314  44.030  44.598   5.828
 3466POPC   C1A45315  43.722  44.483   6.185
 3466POPC   D2A45316  43.957  44.637   6.521
 3466POPC   C3A45317  43.668  44.754   6.812
 3466POPC   C4A45318  43.556  44.789   7.234
 3466POPC   C1B45319  44.321  44.882   6.053
 3466POPC   C2B45320  44.521  44.918   6.463
 3466POPC   C3B45321  44.342  44.813   6.861
 3466POPC   C4B45322  44.060  44.805   7.210
 3467POPC   NC345323  29.476  43.338   5.374
 3467POPC   PO445324  28.795  43.082   5.392
 3467POPC   GL145325  29.160  43.044   5.665
 3467POPC   GL245326  29.182  43.367   5.789
 3467POPC   C1A45327  29.326  42.976   6.100
 3467POPC   D2A45328  29.270  42.831   6.545
 3467POPC   C3A45329  29.297  42.973   6.975
 3467POPC   C4A45330  28.999  42.960   7.338
 3467POPC   C1B45331  29.050  43.408   6.202
 3467POPC   C2B45332  29.151  43.348   6.612
 3467POPC   C3B45333  28.934  43.351   6.997
 3467POPC   C4B45334  29.162  43.452   7.352
 3468POPC   NC345335   4.724  42.485   5.582
 3468POPC   PO445336   5.262  42.073   5.605
 3468POPC   GL145337   5.033  42.165   5.928
 3468POPC   GL245338   4.738  42.040   5.860
 3468POPC   C1A45339   4.962  42.445   6.245
 3468POPC   D2A45340   5.229  42.600   6.562
 3468POPC   C3A45341   5.131  42.490   6.976
 3468POPC   C4A45342   4.900  42.648   7.275
 3468POPC   C1B45343   4.699  41.996   6.301
 3468POPC   C2B45344   4.721  42.253   6.691
 3468POPC   C3B45345   4.608  42.260   7.135
 3468POPC   C4B45346   4.622  42.011   7.507
 3469POPC   NC345347  38.885  39.424   5.468
 3469POPC   PO445348  39.546  39.327   5.300
 3469POPC   GL145349  39.472  39.206   5.796
 3469POPC   GL245350  39.156  39.350   5.894
 3469POPC   C1A45351  39.523  39.258   6.287
 3469POPC   D2A45352  39.466  39.628   6.599
 3469POPC   C3A45353  39.343  39.561   7.034
 3469POPC   C4A45354  39.428  39.128   7.119
 3469POPC   C1B45355  38.989  39.236   6.271
 3469POPC   C2B45356  39.002  39.373   6.678
 3469POPC   C3B45357  38.943  39.222   7.042
 3469POPC   C4B45358  38.898  38.957   7.308
 3470POPC   NC345359  34.427  10.922   5.551
 3470POPC   PO445360  34.791  11.491   5.385
 3470POPC   GL145361  34.619  11.490   5.819
 3470POPC   GL245362  34.328  11.378   5.925
 3470POPC   C1A45363  34.752  11.533   6.243
 3470POPC   D2A45364  34.841  11.359   6.624
 3470POPC   C3A45365  34.496  11.245   6.852
 3470POPC   C4A45366  34.381  11.405   7.210
 3470POPC   C1B45367  34.360  11.194   6.348
 3470POPC   C2B45368  34.110  10.928   6.646
 3470POPC   C3B45369  34.007  11.076   7.073
 3470POPC   C4B45370  34.047  11.179   7.539
 3471POPC   NC345371  19.807   6.066   5.415
 3471POPC   PO445372  19.410   5.547   5.465
 3471POPC   GL145373  19.636   5.807   5.842
 3471POPC   GL245374  19.964   6.048   5.881
 3471POPC   C1A45375  19.698   5.880   6.286
 3471POPC   D2A45376  19.881   5.770   6.660
 3471POPC   C3A45377  19.630   5.768   7.007
 3471POPC   C4A45378  19.665   5.615   7.386
 3471POPC   C1B45379  20.202   5.935   6.216
 3471POPC   C2B45380  20.207   6.144   6.567
 3471POPC   C3B45381  20.223   6.105   6.950
 3471POPC   C4B45382  20.034   6.015   7.339
 3472POPC   NC345383   0.579  38.272   5.393
 3472POPC   PO445384   0.182  38.800   5.483
 3472POPC   GL145385   0.355  38.537   5.806
 3472POPC   GL245386   0.698  38.478   5.851
 3472POPC   C1A45387   0.351  38.661   6.232
 3472POPC   D2A45388   0.264  38.480   6.629
 3472POPC   C3A45389   0.424  38.708   6.937
 3472POPC   C4A45390   0.385  38.781   7.323
 3472POPC   C1B45391   0.752  38.305   6.275
 3472POPC   C2B45392   0.720  38.127   6.707
 3472POPC   C3B45393   0.676  38.304   7.132
 3472POPC   C4B45394   0.671  38.451   7.570
 3473POPC   NC345395  38.693  20.631   5.057
 3473POPC   PO445396  39.187  20.422   5.440
 3473POPC   GL145397  39.125  20.585   5.848
 3473POPC   GL245398  38.910  20.860   5.978
 3473POPC   C1A45399  39.307  20.648   6.246
 3473POPC   D2A45400  39.242  20.813   6.641
 3473POPC   C3A45401  39.351  20.492   6.918
 3473POPC   C4A45402  39.299  20.612   7.363
 3473POPC   C1B45403  38.797  20.519   6.247
 3473POPC   C2B45404  38.909  20.406   6.655
 3473POPC   C3B45405  38.883  20.606   7.067
 3473POPC   C4B45406  38.837  20.338   7.446
 3474POPC   NC345407   3.528  29.756   5.405
 3474POPC   PO445408   3.200  30.346   5.321
 3474POPC   GL145409   3.350  30.064   5.733
 3474POPC   GL245410   3.710  30.112   5.768
 3474POPC   C1A45411   3.535  29.857   6.169
 3474POPC   D2A45412   3.391  30.026   6.571
 3474POPC   C3A45413   3.512  30.079   6.967
 3474POPC   C4A45414   3.453  29.707   7.136
 3474POPC   C1B45415   3.839  30.261   6.192
 3474POPC   C2B45416   3.902  30.104   6.637
 3474POPC   C3B45417   3.963  29.875   7.066
 3474POPC   C4B45418   3.769  30.043   7.439
 3475POPC   NC345419  12.636  40.317   5.257
 3475POPC   PO445420  13.034  39.872   5.469
 3475POPC   GL145421  12.988  40.074   5.822
 3475POPC   GL245422  12.655  39.939   5.882
 3475POPC   C1A45423  13.023  39.965   6.245
 3475POPC   D2A45424  12.774  39.712   6.488
 3475POPC   C3A45425  12.675  39.883   6.895
 3475POPC   C4A45426  12.881  40.193   7.132
 3475POPC   C1B45427  12.485  40.114   6.287
 3475POPC   C2B45428  12.322  40.250   6.709
 3475POPC   C3B45429  12.382  40.257   7.174
 3475POPC   C4B45430  12.523  40.329   7.595
 3476POPC   NC345431  17.188   7.048   5.623
 3476POPC   PO445432  16.677   7.387   5.492
 3476POPC   GL145433  16.748   7.337   5.889
 3476POPC   GL245434  17.079   7.446   5.914
 3476POPC   C1A45435  16.478   7.204   6.244
 3476POPC   D2A45436  16.501   7.040   6.645
 3476POPC   C3A45437  16.857   7.294   6.774
 3476POPC   C4A45438  16.920   7.461   7.174
 3476POPC   C1B45439  16.814   7.769   6.115
 3476POPC   C2B45440  16.877   7.936   6.473
 3476POPC   C3B45441  16.750   7.800   6.836
 3476POPC   C4B45442  16.780   7.981   7.217
 3477POPC   NC345443  22.258  43.879   5.468
 3477POPC   PO445444  22.130  44.510   5.253
 3477POPC   GL145445  22.446  44.289   5.685
 3477POPC   GL245446  22.465  43.887   5.904
 3477POPC   C1A45447  22.386  44.272   6.178
 3477POPC   D2A45448  22.051  44.103   6.461
 3477POPC   C3A45449  22.067  44.199   6.894
 3477POPC   C4A45450  22.325  44.048   7.208
 3477POPC   C1B45451  22.352  43.615   6.276
 3477POPC   C2B45452  22.249  43.673   6.731
 3477POPC   C3B45453  21.973  43.680   7.072
 3477POPC   C4B45454  21.605  43.477   7.207
 3478POPC   NC345455  13.389  40.204   5.468
 3478POPC   PO445456  13.871  39.622   5.370
 3478POPC   GL145457  13.737  39.892   5.700
 3478POPC   GL245458  13.970  40.160   5.747
 3478POPC   C1A45459  13.513  39.986   6.076
 3478POPC   D2A45460  13.481  40.209   6.462
 3478POPC   C3A45461  13.257  40.002   6.810
 3478POPC   C4A45462  13.354  40.075   7.229
 3478POPC   C1B45463  14.064  40.039   6.140
 3478POPC   C2B45464  14.047  40.151   6.548
 3478POPC   C3B45465  13.780  40.095   6.896
 3478POPC   C4B45466  13.778  40.369   7.241
 3479POPC   NC345467  35.324   8.081   5.518
 3479POPC   PO445468  35.311   7.483   5.408
 3479POPC   GL145469  35.496   7.523   5.791
 3479POPC   GL245470  35.653   7.186   5.780
 3479POPC   C1A45471  35.302   7.648   6.184
 3479POPC   D2A45472  35.161   7.428   6.547
 3479POPC   C3A45473  35.176   7.715   6.851
 3479POPC   C4A45474  35.346   7.652   7.226
 3479POPC   C1B45475  35.383   7.146   6.149
 3479POPC   C2B45476  35.569   7.105   6.542
 3479POPC   C3B45477  35.481   7.255   6.928
 3479POPC   C4B45478  35.416   7.047   7.298
 3480POPC   NC345479   2.375  12.090   5.360
 3480POPC   PO445480   2.928  11.745   5.284
 3480POPC   GL145481   2.833  11.794   5.759
 3480POPC   GL245482   2.495  11.938   5.845
 3480POPC   C1A45483   2.958  12.052   6.143
 3480POPC   D2A45484   3.249  12.219   6.493
 3480POPC   C3A45485   3.105  12.136   6.921
 3480POPC   C4A45486   3.175  11.822   7.232
 3480POPC   C1B45487   2.432  11.965   6.293
 3480POPC   C2B45488   2.393  11.724   6.667
 3480POPC   C3B45489   2.626  11.895   6.996
 3480POPC   C4B45490   2.561  12.337   7.102
 3481POPC   NC345491  16.230  16.435   5.107
 3481POPC   PO445492  15.690  16.630   5.377
 3481POPC   GL145493  15.865  16.698   5.814
 3481POPC   GL245494  16.170  16.923   5.858
 3481POPC   C1A45495  15.656  16.598   6.236
 3481POPC   D2A45496  15.705  16.387   6.659
 3481POPC   C3A45497  15.933  16.479   7.038
 3481POPC   C4A45498  16.296  16.606   7.215
 3481POPC   C1B45499  16.022  16.957   6.292
 3481POPC   C2B45500  16.151  16.848   6.734
 3481POPC   C3B45501  16.178  17.085   7.143
 3481POPC   C4B45502  16.319  17.122   7.597
 3482POPC   NC345503  30.846  38.336   5.444
 3482POPC   PO445504  30.295  38.752   5.681
 3482POPC   GL145505  30.564  38.454   5.919
 3482POPC   GL245506  30.921  38.353   5.935
 3482POPC   C1A45507  30.694  38.440   6.372
 3482POPC   D2A45508  30.870  38.539   6.778
 3482POPC   C3A45509  30.534  38.510   7.064
 3482POPC   C4A45510  30.410  38.291   7.440
 3482POPC   C1B45511  30.973  38.015   6.241
 3482POPC   C2B45512  30.852  38.030   6.680
 3482POPC   C3B45513  30.835  38.096   7.127
 3482POPC   C4B45514  31.208  38.099   7.366
 3483POPC   NC345515  37.555   3.923   5.592
 3483POPC   PO445516  37.860   3.378   5.288
 3483POPC   GL145517  37.779   3.461   5.733
 3483POPC   GL245518  37.998   3.701   5.829
 3483POPC   C1A45519  37.619   3.549   6.185
 3483POPC   D2A45520  37.561   3.282   6.552
 3483POPC   C3A45521  37.424   3.356   6.974
 3483POPC   C4A45522  37.626   3.342   7.409
 3483POPC   C1B45523  37.973   3.894   6.234
 3483POPC   C2B45524  37.951   3.658   6.617
 3483POPC   C3B45525  37.858   3.605   7.049
 3483POPC   C4B45526  37.855   3.778   7.514
 3484POPC   NC345527  26.718  15.847   5.605
 3484POPC   PO445528  26.123  15.880   5.241
 3484POPC   GL145529  26.021  16.083   5.674
 3484POPC   GL245530  25.994  15.757   5.835
 3484POPC   C1A45531  26.082  16.139   6.174
 3484POPC   D2A45532  25.954  15.924   6.575
 3484POPC   C3A45533  26.125  16.028   6.971
 3484POPC   C4A45534  26.163  16.333   7.235
 3484POPC   C1B45535  26.269  15.668   6.230
 3484POPC   C2B45536  26.390  15.670   6.693
 3484POPC   C3B45537  26.093  15.534   7.041
 3484POPC   C4B45538  25.694  15.746   7.091
 3485POPC   NC345539  25.000   5.558   5.402
 3485POPC   PO445540  25.331   6.176   5.500
 3485POPC   GL145541  25.079   6.025   5.819
 3485POPC   GL245542  25.288   5.736   5.813
 3485POPC   C1A45543  24.941   5.865   6.221
 3485POPC   D2A45544  25.145   5.976   6.617
 3485POPC   C3A45545  25.025   5.831   6.978
 3485POPC   C4A45546  24.969   6.010   7.422
 3485POPC   C1B45547  25.454   5.767   6.224
 3485POPC   C2B45548  25.363   5.521   6.583
 3485POPC   C3B45549  25.480   5.606   6.982
 3485POPC   C4B45550  25.451   5.880   7.313
 3486POPC   NC345551  25.638  41.373   5.589
 3486POPC   PO445552  25.948  41.830   5.170
 3486POPC   GL145553  26.091  41.643   5.579
 3486POPC   GL245554  25.843  41.818   5.756
 3486POPC   C1A45555  26.122  41.407   6.022
 3486POPC   D2A45556  26.214  41.467   6.479
 3486POPC   C3A45557  26.307  41.199   6.846
 3486POPC   C4A45558  26.272  41.353   7.287
 3486POPC   C1B45559  25.659  41.756   6.158
 3486POPC   C2B45560  25.686  41.496   6.490
 3486POPC   C3B45561  25.544  41.487   6.894
 3486POPC   C4B45562  25.742  41.340   7.252
 3487POPC   NC345563   1.568  41.001   5.604
 3487POPC   PO445564   2.109  40.769   5.219
 3487POPC   GL145565   2.046  40.658   5.693
 3487POPC   GL245566   1.754  40.480   5.759
 3487POPC   C1A45567   2.209  40.632   6.134
 3487POPC   D2A45568   2.113  40.402   6.508
 3487POPC   C3A45569   2.109  40.573   6.893
 3487POPC   C4A45570   2.215  40.713   7.272
 3487POPC   C1B45571   1.700  40.662   6.163
 3487POPC   C2B45572   1.577  40.542   6.547
 3487POPC   C3B45573   1.652  40.782   6.893
 3487POPC   C4B45574   1.671  40.716   7.298
 3488POPC   NC345575  12.764   6.490   5.109
 3488POPC   PO445576  13.086   6.938   5.500
 3488POPC   GL145577  13.000   6.609   5.801
 3488POPC   GL245578  12.723   6.361   5.783
 3488POPC   C1A45579  13.135   6.423   6.197
 3488POPC   D2A45580  12.981   6.559   6.589
 3488POPC   C3A45581  13.034   6.423   6.984
 3488POPC   C4A45582  13.072   6.685   7.328
 3488POPC   C1B45583  12.621   6.494   6.202
 3488POPC   C2B45584  12.501   6.397   6.645
 3488POPC   C3B45585  12.566   6.584   7.024
 3488POPC   C4B45586  12.558   6.882   7.321
 3489POPC   NC345587  37.955   7.007   5.407
 3489POPC   PO445588  37.457   6.580   5.432
 3489POPC   GL145589  37.493   6.520   5.839
 3489POPC   GL245590  37.854   6.455   5.878
 3489POPC   C1A45591  37.619   6.861   6.113
 3489POPC   D2A45592  37.749   6.813   6.518
 3489POPC   C3A45593  37.475   6.649   6.800
 3489POPC   C4A45594  37.329   6.574   7.189
 3489POPC   C1B45595  38.093   6.347   6.272
 3489POPC   C2B45596  37.938   6.368   6.690
 3489POPC   C3B45597  37.876   6.571   7.102
 3489POPC   C4B45598  38.066   6.490   7.492
 3490POPC   NC345599   8.043  16.967   5.332
 3490POPC   PO445600   8.391  16.354   5.245
 3490POPC   GL145601   8.304  16.520   5.671
 3490POPC   GL245602   7.940  16.604   5.698
 3490POPC   C1A45603   8.355  16.657   6.128
 3490POPC   D2A45604   8.293  17.006   6.460
 3490POPC   C3A45605   8.239  16.827   6.872
 3490POPC   C4A45606   8.485  16.564   7.125
 3490POPC   C1B45607   7.886  16.868   6.069
 3490POPC   C2B45608   7.831  16.792   6.517
 3490POPC   C3B45609   7.787  16.597   6.902
 3490POPC   C4B45610   7.948  16.499   7.327
 3491POPC   NC345611  24.184  39.372   5.516
 3491POPC   PO445612  24.691  39.054   5.303
 3491POPC   GL145613  24.660  39.091   5.728
 3491POPC   GL245614  24.619  39.431   5.838
 3491POPC   C1A45615  24.666  39.024   6.169
 3491POPC   D2A45616  24.713  39.330   6.476
 3491POPC   C3A45617  24.722  39.138   6.837
 3491POPC   C4A45618  24.657  39.334   7.208
 3491POPC   C1B45619  24.286  39.379   6.157
 3491POPC   C2B45620  24.227  39.151   6.527
 3491POPC   C3B45621  24.263  39.337   6.893
 3491POPC   C4B45622  24.054  39.606   7.163
 3492POPC   NC345623   0.160  22.907   5.478
 3492POPC   PO445624  44.446  22.879   5.365
 3492POPC   GL145625  44.696  22.835   5.753
 3492POPC   GL245626  44.982  22.573   5.801
 3492POPC   C1A45627  44.609  23.017   6.159
 3492POPC   D2A45628  44.828  23.111   6.514
 3492POPC   C3A45629  44.719  23.035   6.907
 3492POPC   C4A45630  44.517  23.106   7.275
 3492POPC   C1B45631   0.097  22.844   6.154
 3492POPC   C2B45632   0.277  22.857   6.559
 3492POPC   C3B45633   0.166  22.748   6.968
 3492POPC   C4B45634  44.968  22.889   7.346
 3493POPC   NC345635  38.109  36.994   5.438
 3493POPC   PO445636  38.777  37.068   5.481
 3493POPC   GL145637  38.523  36.814   5.725
 3493POPC   GL245638  38.411  37.110   5.915
 3493POPC   C1A45639  38.634  36.584   6.074
 3493POPC   D2A45640  38.812  36.532   6.461
 3493POPC   C3A45641  38.684  36.795   6.801
 3493POPC   C4A45642  38.774  36.744   7.265
 3493POPC   C1B45643  38.283  36.890   6.315
 3493POPC   C2B45644  38.094  36.818   6.738
 3493POPC   C3B45645  38.310  36.944   7.116
 3493POPC   C4B45646  38.604  37.278   7.153
 3494POPC   NC345647  28.247  40.321   5.481
 3494POPC   PO445648  28.695  39.820   5.402
 3494POPC   GL145649  28.520  39.960   5.794
 3494POPC   GL245650  28.787  40.202   5.841
 3494POPC   C1A45651  28.325  39.753   6.190
 3494POPC   D2A45652  28.368  39.547   6.631
 3494POPC   C3A45653  28.380  39.767   7.037
 3494POPC   C4A45654  28.066  40.031   7.266
 3494POPC   C1B45655  28.784  39.979   6.246
 3494POPC   C2B45656  28.483  40.053   6.600
 3494POPC   C3B45657  28.415  40.282   6.990
 3494POPC   C4B45658  28.757  40.423   7.248
 3495POPC   NC345659  22.485  14.670   5.521
 3495POPC   PO445660  21.936  14.261   5.356
 3495POPC   GL145661  22.138  14.276   5.757
 3495POPC   GL245662  22.093  14.616   5.844
 3495POPC   C1A45663  22.221  14.234   6.215
 3495POPC   D2A45664  22.009  14.135   6.632
 3495POPC   C3A45665  22.229  14.163   7.019
 3495POPC   C4A45666  22.101  14.130   7.449
 3495POPC   C1B45667  22.069  14.710   6.265
 3495POPC   C2B45668  22.240  14.587   6.624
 3495POPC   C3B45669  22.090  14.742   6.956
 3495POPC   C4B45670  22.175  14.616   7.345
 3496POPC   NC345671  35.910  11.696   5.418
 3496POPC   PO445672  36.382  11.198   5.511
 3496POPC   GL145673  36.243  11.296   5.881
 3496POPC   GL245674  35.869  11.367   5.809
 3496POPC   C1A45675  36.304  10.978   6.207
 3496POPC   D2A45676  36.113  10.944   6.603
 3496POPC   C3A45677  36.182  11.254   6.919
 3496POPC   C4A45678  35.982  11.182   7.260
 3496POPC   C1B45679  35.885  11.302   6.242
 3496POPC   C2B45680  36.150  11.534   6.498
 3496POPC   C3B45681  35.955  11.739   6.849
 3496POPC   C4B45682  35.944  11.689   7.267
 3497POPC   NC345683  16.042  19.810   5.379
 3497POPC   PO445684  15.537  20.145   5.529
 3497POPC   GL145685  15.779  19.804   5.804
 3497POPC   GL245686  15.572  19.582   5.920
 3497POPC   C1A45687  15.939  19.698   6.265
 3497POPC   D2A45688  15.960  19.872   6.716
 3497POPC   C3A45689  15.837  19.714   7.149
 3497POPC   C4A45690  16.089  19.753   7.535
 3497POPC   C1B45691  15.529  20.022   6.172
 3497POPC   C2B45692  15.618  20.260   6.553
 3497POPC   C3B45693  15.593  20.133   6.986
 3497POPC   C4B45694  15.731  20.116   7.464
 3498POPC   NC345695  23.138  38.742   5.441
 3498POPC   PO445696  22.668  38.309   5.555
 3498POPC   GL145697  22.850  38.596   5.866
 3498POPC   GL245698  22.521  38.709   5.946
 3498POPC   C1A45699  22.872  38.701   6.305
 3498POPC   D2A45700  22.936  38.385   6.628
 3498POPC   C3A45701  22.858  38.540   7.033
 3498POPC   C4A45702  23.088  38.730   7.370
 3498POPC   C1B45703  22.531  38.341   6.232
 3498POPC   C2B45704  22.461  38.564   6.619
 3498POPC   C3B45705  22.483  38.900   6.894
 3498POPC   C4B45706  22.590  38.861   7.339
 3499POPC   NC345707   7.676  18.787   5.480
 3499POPC   PO445708   7.291  19.342   5.436
 3499POPC   GL145709   7.568  19.171   5.792
 3499POPC   GL245710   7.309  18.973   5.932
 3499POPC   C1A45711   7.750  19.038   6.190
 3499POPC   D2A45712   7.595  18.811   6.528
 3499POPC   C3A45713   7.539  19.026   6.922
 3499POPC   C4A45714   7.445  18.802   7.319
 3499POPC   C1B45715   7.262  19.249   6.316
 3499POPC   C2B45716   6.958  19.410   6.624
 3499POPC   C3B45717   6.904  19.282   7.041
 3499POPC   C4B45718   7.260  19.275   7.294
 3500POPC   NC345719   5.234  32.665   5.206
 3500POPC   PO445720   4.824  33.185   5.500
 3500POPC   GL145721   5.114  33.222   5.843
 3500POPC   GL245722   5.451  33.244   5.685
 3500POPC   C1A45723   5.118  33.242   6.291
 3500POPC   D2A45724   5.138  33.455   6.687
 3500POPC   C3A45725   5.004  33.250   7.061
 3500POPC   C4A45726   4.938  32.915   7.324
 3500POPC   C1B45727   5.445  32.859   5.981
 3500POPC   C2B45728   5.453  32.875   6.454
 3500POPC   C3B45729   5.437  33.036   6.876
 3500POPC   C4B45730   5.483  32.831   7.272
 3501POPC   NC345731  20.219  19.319   5.452
 3501POPC   PO445732  19.729  18.843   5.216
 3501POPC   GL145733  19.776  18.881   5.674
 3501POPC   GL245734  20.144  18.857   5.756
 3501POPC   C1A45735  19.565  18.919   6.096
 3501POPC   D2A45736  19.531  19.218   6.477
 3501POPC   C3A45737  19.740  19.068   6.882
 3501POPC   C4A45738  19.790  19.000   7.344
 3501POPC   C1B45739  20.050  19.114   6.133
 3501POPC   C2B45740  20.050  19.361   6.529
 3501POPC   C3B45741  20.155  19.402   6.969
 3501POPC   C4B45742  20.283  19.035   7.199
 3502POPC   NC345743  24.858  13.134   5.564
 3502POPC   PO445744  25.447  12.740   5.487
 3502POPC   GL145745  25.295  12.961   5.837
 3502POPC   GL245746  24.954  12.849   5.985
 3502POPC   C1A45747  25.480  12.826   6.216
 3502POPC   D2A45748  25.481  12.963   6.612
 3502POPC   C3A45749  25.379  12.648   6.867
 3502POPC   C4A45750  25.490  12.698   7.249
 3502POPC   C1B45751  25.129  13.180   6.283
 3502POPC   C2B45752  25.117  13.338   6.719
 3502POPC   C3B45753  25.088  13.026   7.052
 3502POPC   C4B45754  24.821  12.680   7.088
 3503POPC   NC345755  26.568  23.779   5.338
 3503POPC   PO445756  27.052  24.209   5.566
 3503POPC   GL145757  27.044  23.847   5.835
 3503POPC   GL245758  26.672  23.770   5.839
 3503POPC   C1A45759  26.946  23.692   6.248
 3503POPC   D2A45760  26.657  23.783   6.559
 3503POPC   C3A45761  26.874  23.700   6.949
 3503POPC   C4A45762  26.878  23.714   7.367
 3503POPC   C1B45763  26.390  23.553   6.124
 3503POPC   C2B45764  26.343  23.333   6.518
 3503POPC   C3B45765  26.398  23.503   6.902
 3503POPC   C4B45766  26.443  23.465   7.303
 3504POPC   NC345767  16.791  14.290   5.470
 3504POPC   PO445768  16.843  14.995   5.526
 3504POPC   GL145769  16.588  14.643   5.819
 3504POPC   GL245770  16.414  14.275   5.834
 3504POPC   C1A45771  16.716  14.447   6.215
 3504POPC   D2A45772  16.916  14.520   6.594
 3504POPC   C3A45773  16.701  14.637   6.980
 3504POPC   C4A45774  16.849  14.450   7.398
 3504POPC   C1B45775  16.380  14.075   6.250
 3504POPC   C2B45776  16.470  14.258   6.683
 3504POPC   C3B45777  16.823  14.129   6.987
 3504POPC   C4B45778  16.773  13.952   7.427
 3505POPC   NC345779  31.361   9.237   5.454
 3505POPC   PO445780  31.751   8.676   5.581
 3505POPC   GL145781  31.401   8.746   5.872
 3505POPC   GL245782  31.100   8.965   5.828
 3505POPC   C1A45783  31.384   8.864   6.299
 3505POPC   D2A45784  31.677   8.959   6.657
 3505POPC   C3A45785  31.686   8.722   7.035
 3505POPC   C4A45786  31.400   8.670   7.345
 3505POPC   C1B45787  31.146   9.298   6.164
 3505POPC   C2B45788  31.250   9.237   6.613
 3505POPC   C3B45789  31.215   8.826   6.843
 3505POPC   C4B45790  31.265   9.125   7.155
 3506POPC   NC345791  21.521  22.139   5.424
 3506POPC   PO445792  20.950  21.796   5.176
 3506POPC   GL145793  21.161  21.836   5.689
 3506POPC   GL245794  21.188  22.223   5.818
 3506POPC   C1A45795  21.420  21.828   6.158
 3506POPC   D2A45796  21.676  21.991   6.524
 3506POPC   C3A45797  21.558  22.271   6.860
 3506POPC   C4A45798  21.396  22.105   7.253
 3506POPC   C1B45799  20.898  22.451   6.138
 3506POPC   C2B45800  20.761  22.440   6.574
 3506POPC   C3B45801  21.044  22.355   6.931
 3506POPC   C4B45802  20.981  22.464   7.341
 3507POPC   NC345803   5.244  37.159   5.395
 3507POPC   PO445804   5.245  36.525   5.458
 3507POPC   GL145805   4.916  36.682   5.731
 3507POPC   GL245806   5.063  36.995   5.856
 3507POPC   C1A45807   4.750  36.697   6.181
 3507POPC   D2A45808   4.554  36.602   6.579
 3507POPC   C3A45809   4.826  36.578   6.937
 3507POPC   C4A45810   4.905  36.812   7.332
 3507POPC   C1B45811   5.326  37.154   6.203
 3507POPC   C2B45812   5.451  37.231   6.656
 3507POPC   C3B45813   5.221  37.100   7.039
 3507POPC   C4B45814   5.158  37.211   7.489
 3508POPC   NC345815  41.301  36.920   5.500
 3508POPC   PO445816  41.958  36.719   5.545
 3508POPC   GL145817  41.770  36.758   5.951
 3508POPC   GL245818  41.511  37.000   5.942
 3508POPC   C1A45819  41.771  36.915   6.399
 3508POPC   D2A45820  41.988  37.030   6.776
 3508POPC   C3A45821  41.759  36.892   7.117
 3508POPC   C4A45822  41.650  36.500   7.266
 3508POPC   C1B45823  41.325  36.712   6.229
 3508POPC   C2B45824  41.359  36.581   6.675
 3508POPC   C3B45825  41.230  36.759   7.090
 3508POPC   C4B45826  41.424  36.880   7.510
 3509POPC   NC345827  31.593  39.173   5.408
 3509POPC   PO445828  31.142  38.851   5.760
 3509POPC   GL145829  31.551  39.050   5.896
 3509POPC   GL245830  31.595  39.403   5.873
 3509POPC   C1A45831  31.767  39.155   6.281
 3509POPC   D2A45832  31.623  38.996   6.688
 3509POPC   C3A45833  31.781  39.177   7.057
 3509POPC   C4A45834  31.564  39.373   7.425
 3509POPC   C1B45835  31.266  39.362   6.180
 3509POPC   C2B45836  31.326  39.435   6.592
 3509POPC   C3B45837  31.264  39.282   6.996
 3509POPC   C4B45838  31.052  39.527   7.319
 3510POPC   NC345839   5.899  37.846   5.513
 3510POPC   PO445840   5.643  37.351   5.570
 3510POPC   GL145841   5.634  37.660   5.948
 3510POPC   GL245842   5.696  38.052   5.929
 3510POPC   C1A45843   5.767  37.630   6.387
 3510POPC   D2A45844   5.969  37.801   6.776
 3510POPC   C3A45845   5.771  37.563   7.128
 3510POPC   C4A45846   5.640  37.358   7.509
 3510POPC   C1B45847   5.571  38.101   6.367
 3510POPC   C2B45848   5.492  38.275   6.790
 3510POPC   C3B45849   5.696  38.076   7.146
 3510POPC   C4B45850   6.109  37.896   7.290
 3511POPC   NC345851  43.306  35.162   5.288
 3511POPC   PO445852  42.817  35.609   5.389
 3511POPC   GL145853  42.872  35.415   5.782
 3511POPC   GL245854  43.067  35.140   5.727
 3511POPC   C1A45855  42.922  35.483   6.219
 3511POPC   D2A45856  42.935  35.244   6.585
 3511POPC   C3A45857  43.113  35.468   6.910
 3511POPC   C4A45858  43.054  35.266   7.288
 3511POPC   C1B45859  43.257  35.065   6.126
 3511POPC   C2B45860  43.427  35.231   6.493
 3511POPC   C3B45861  43.343  35.036   6.901
 3511POPC   C4B45862  43.545  35.151   7.324
 3512POPC   NC345863  32.591  29.284   5.553
 3512POPC   PO445864  33.229  29.027   5.257
 3512POPC   GL145865  33.075  29.058   5.700
 3512POPC   GL245866  33.095  29.398   5.776
 3512POPC   C1A45867  32.936  29.078   6.175
 3512POPC   D2A45868  32.792  28.922   6.618
 3512POPC   C3A45869  32.969  29.151   6.978
 3512POPC   C4A45870  33.109  29.114   7.395
 3512POPC   C1B45871  32.861  29.594   6.125
 3512POPC   C2B45872  32.854  29.451   6.562
 3512POPC   C3B45873  32.763  29.639   6.957
 3512POPC   C4B45874  32.716  29.429   7.354
 3513POPC   NC345875   6.010  19.011   5.328
 3513POPC   PO445876   5.609  19.495   5.504
 3513POPC   GL145877   5.774  19.174   5.837
 3513POPC   GL245878   5.993  18.847   5.825
 3513POPC   C1A45879   5.834  19.064   6.284
 3513POPC   D2A45880   6.021  19.291   6.619
 3513POPC   C3A45881   5.909  19.141   6.996
 3513POPC   C4A45882   6.033  19.359   7.370
 3513POPC   C1B45883   6.248  18.748   6.206
 3513POPC   C2B45884   6.101  18.784   6.641
 3513POPC   C3B45885   6.170  18.690   7.068
 3513POPC   C4B45886   5.958  18.879   7.430
 3514POPC   NC345887  15.035   2.891   5.393
 3514POPC   PO445888  15.568   3.090   5.202
 3514POPC   GL145889  15.398   2.845   5.727
 3514POPC   GL245890  15.011   2.928   5.894
 3514POPC   C1A45891  15.294   2.578   6.115
 3514POPC   D2A45892  15.174   2.504   6.553
 3514POPC   C3A45893  15.366   2.601   6.961
 3514POPC   C4A45894  15.386   2.528   7.417
 3514POPC   C1B45895  14.975   2.993   6.348
 3514POPC   C2B45896  15.042   3.140   6.818
 3514POPC   C3B45897  15.057   2.929   7.253
 3514POPC   C4B45898  14.921   2.841   7.707
 3515POPC   NC345899  25.885   8.461   5.585
 3515POPC   PO445900  26.316   8.057   5.326
 3515POPC   GL145901  26.329   8.197   5.750
 3515POPC   GL245902  26.055   7.964   5.827
 3515POPC   C1A45903  26.177   8.322   6.171
 3515POPC   D2A45904  26.059   8.099   6.517
 3515POPC   C3A45905  26.120   8.256   6.925
 3515POPC   C4A45906  26.114   8.376   7.360
 3515POPC   C1B45907  25.757   7.852   6.155
 3515POPC   C2B45908  25.803   7.655   6.548
 3515POPC   C3B45909  25.869   7.814   6.935
 3515POPC   C4B45910  25.566   7.968   7.201
 3516POPC   NC345911   0.780  43.629   5.391
 3516POPC   PO445912   0.050  43.699   5.481
 3516POPC   GL145913   0.367  43.813   5.780
 3516POPC   GL245914   0.543  44.083   5.668
 3516POPC   C1A45915   0.325  43.932   6.210
 3516POPC   D2A45916   0.163  43.754   6.608
 3516POPC   C3A45917   0.426  43.821   6.936
 3516POPC   C4A45918   0.336  43.750   7.346
 3516POPC   C1B45919   0.722  44.218   6.103
 3516POPC   C2B45920   0.726  44.139   6.560
 3516POPC   C3B45921   0.634  44.276   6.992
 3516POPC   C4B45922   0.671  44.134   7.441
 3517POPC   NC345923   8.515   9.970   5.706
 3517POPC   PO445924   9.134   9.961   5.387
 3517POPC   GL145925   8.970   9.721   5.806
 3517POPC   GL245926   8.658   9.488   5.866
 3517POPC   C1A45927   8.925   9.778   6.296
 3517POPC   D2A45928   9.153  10.048   6.622
 3517POPC   C3A45929   9.181   9.983   7.087
 3517POPC   C4A45930   9.117   9.767   7.505
 3517POPC   C1B45931   8.476   9.465   6.317
 3517POPC   C2B45932   8.531   9.646   6.751
 3517POPC   C3B45933   8.739   9.607   7.175
 3517POPC   C4B45934   8.857   9.330   7.547
 3518POPC   NC345935  20.984  39.623   5.500
 3518POPC   PO445936  21.079  40.344   5.415
 3518POPC   GL145937  20.780  40.066   5.721
 3518POPC   GL245938  20.926  39.812   5.969
 3518POPC   C1A45939  20.479  39.964   6.099
 3518POPC   D2A45940  20.690  40.106   6.473
 3518POPC   C3A45941  20.575  40.078   6.871
 3518POPC   C4A45942  20.708  39.902   7.240
 3518POPC   C1B45943  20.894  39.654   6.396
 3518POPC   C2B45944  21.067  39.829   6.792
 3518POPC   C3B45945  21.210  39.794   7.239
 3518POPC   C4B45946  20.995  39.763   7.660
 3519POPC   NC345947   2.532   5.441   5.483
 3519POPC   PO445948   2.940   5.995   5.446
 3519POPC   GL145949   2.915   5.851   5.820
 3519POPC   GL245950   2.559   5.789   5.859
 3519POPC   C1A45951   2.830   6.064   6.187
 3519POPC   D2A45952   2.619   5.978   6.548
 3519POPC   C3A45953   2.837   5.881   6.920
 3519POPC   C4A45954   2.706   6.067   7.284
 3519POPC   C1B45955   2.346   5.569   6.213
 3519POPC   C2B45956   2.271   5.622   6.644
 3519POPC   C3B45957   2.450   5.528   7.034
 3519POPC   C4B45958   2.677   5.560   7.391
 3520POPC   NC345959  15.337   5.485   5.549
 3520POPC   PO445960  14.899   4.962   5.439
 3520POPC   GL145961  15.005   5.055   5.847
 3520POPC   GL245962  14.658   5.136   5.893
 3520POPC   C1A45963  15.233   4.935   6.224
 3520POPC   D2A45964  15.560   5.002   6.503
 3520POPC   C3A45965  15.453   4.892   6.922
 3520POPC   C4A45966  15.433   4.975   7.364
 3520POPC   C1B45967  14.809   5.267   6.306
 3520POPC   C2B45968  15.104   5.228   6.647
 3520POPC   C3B45969  14.991   5.056   7.032
 3520POPC   C4B45970  14.927   5.019   7.438
 3521POPC   NC345971  27.425  26.922   5.380
 3521POPC   PO445972  27.717  26.291   5.504
 3521POPC   GL145973  27.606  26.552   5.874
 3521POPC   GL245974  27.269  26.740   5.841
 3521POPC   C1A45975  27.759  26.766   6.279
 3521POPC   D2A45976  27.582  27.109   6.561
 3521POPC   C3A45977  27.597  26.986   6.999
 3521POPC   C4A45978  27.540  26.530   7.086
 3521POPC   C1B45979  27.256  26.749   6.299
 3521POPC   C2B45980  27.267  26.710   6.702
 3521POPC   C3B45981  27.084  26.864   7.040
 3521POPC   C4B45982  27.281  26.856   7.391
 3522POPC   NC345983  38.046  29.981   5.283
 3522POPC   PO445984  37.584  29.508   5.349
 3522POPC   GL145985  37.772  29.722   5.725
 3522POPC   GL245986  37.511  29.988   5.780
 3522POPC   C1A45987  37.960  29.718   6.177
 3522POPC   D2A45988  38.015  29.933   6.579
 3522POPC   C3A45989  37.971  29.719   6.948
 3522POPC   C4A45990  37.620  29.862   7.162
 3522POPC   C1B45991  37.614  30.104   6.214
 3522POPC   C2B45992  37.635  30.278   6.640
 3522POPC   C3B45993  37.406  30.289   6.998
 3522POPC   C4B45994  37.354  30.196   7.452
 3523POPC   NC345995   9.918  14.849   5.509
 3523POPC   PO445996   9.962  14.084   5.451
 3523POPC   GL145997   9.742  14.337   5.694
 3523POPC   GL245998   9.608  14.631   5.830
 3523POPC   C1A45999   9.813  14.262   6.109
 3523POPC   D2A46000   9.756  14.127   6.496
 3523POPC   C3A46001   9.785  14.428   6.800
 3523POPC   C4A46002   9.756  14.408   7.234
 3523POPC   C1B46003   9.553  14.692   6.246
 3523POPC   C2B46004   9.311  14.587   6.595
 3523POPC   C3B46005   9.402  14.734   7.000
 3523POPC   C4B46006   9.801  14.903   7.078
 3524POPC   NC346007   0.778  13.088   5.358
 3524POPC   PO446008   0.111  13.313   5.463
 3524POPC   GL146009   0.302  12.941   5.622
 3524POPC   GL246010   0.486  13.166   5.856
 3524POPC   C1A46011   0.319  12.714   6.019
 3524POPC   D2A46012   0.373  12.906   6.436
 3524POPC   C3A46013   0.434  12.848   6.864
 3524POPC   C4A46014   0.278  12.540   7.118
 3524POPC   C1B46015   0.661  13.293   6.266
 3524POPC   C2B46016   0.638  13.304   6.711
 3524POPC   C3B46017   0.602  13.267   7.128
 3524POPC   C4B46018   0.325  12.999   7.355
 3525POPC   NC346019  14.073   9.692   5.359
 3525POPC   PO446020  14.800   9.846   5.309
 3525POPC   GL146021  14.610   9.843   5.784
 3525POPC   GL246022  14.249   9.804   5.817
 3525POPC   C1A46023  14.462  10.031   6.210
 3525POPC   D2A46024  14.166   9.995   6.588
 3525POPC   C3A46025  14.401  10.028   6.979
 3525POPC   C4A46026  14.764   9.885   7.235
 3525POPC   C1B46027  14.370   9.516   6.147
 3525POPC   C2B46028  14.392   9.530   6.574
 3525POPC   C3B46029  14.535   9.509   6.976
 3525POPC   C4B46030  14.304   9.258   7.290
 3526POPC   NC346031  30.953  40.807   5.402
 3526POPC   PO446032  30.338  40.591   5.163
 3526POPC   GL146033  30.438  40.838   5.625
 3526POPC   GL246034  30.724  40.736   5.850
 3526POPC   C1A46035  30.318  40.962   6.113
 3526POPC   D2A46036  30.200  40.785   6.554
 3526POPC   C3A46037  30.451  40.748   6.922
 3526POPC   C4A46038  30.432  40.954   7.311
 3526POPC   C1B46039  30.628  40.566   6.250
 3526POPC   C2B46040  30.842  40.559   6.621
 3526POPC   C3B46041  30.912  40.507   7.034
 3526POPC   C4B46042  30.895  40.725   7.385
 3527POPC   NC346043   9.548  35.844   5.400
 3527POPC   PO446044   9.548  36.543   5.433
 3527POPC   GL146045   9.756  36.205   5.722
 3527POPC   GL246046  10.112  36.067   5.742
 3527POPC   C1A46047   9.791  36.152   6.204
 3527POPC   D2A46048  10.010  36.237   6.644
 3527POPC   C3A46049   9.789  36.146   7.056
 3527POPC   C4A46050   9.630  36.219   7.473
 3527POPC   C1B46051  10.244  35.900   6.147
 3527POPC   C2B46052  10.268  35.783   6.590
 3527POPC   C3B46053  10.248  35.930   7.027
 3527POPC   C4B46054  10.035  35.690   7.353
 3528POPC   NC346055   4.587   6.693   5.712
 3528POPC   PO446056   5.153   6.626   5.294
 3528POPC   GL146057   5.068   6.716   5.820
 3528POPC   GL246058   4.909   7.021   5.920
 3528POPC   C1A46059   4.903   6.483   6.243
 3528POPC   D2A46060   4.837   6.561   6.712
 3528POPC   C3A46061   5.160   6.494   7.059
 3528POPC   C4A46062   5.155   6.288   7.494
 3528POPC   C1B46063   5.102   6.930   6.325
 3528POPC   C2B46064   5.271   6.872   6.721
 3528POPC   C3B46065   5.303   7.033   7.121
 3528POPC   C4B46066   5.057   6.906   7.464
 3529POPC   NC346067  27.978  13.723   5.224
 3529POPC   PO446068  27.307  13.624   5.379
 3529POPC   GL146069  27.622  13.797   5.668
 3529POPC   GL246070  27.634  13.501   5.833
 3529POPC   C1A46071  27.733  13.940   6.096
 3529POPC   D2A46072  27.760  13.860   6.557
 3529POPC   C3A46073  27.683  13.822   7.008
 3529POPC   C4A46074  27.810  14.033   7.430
 3529POPC   C1B46075  27.787  13.434   6.254
 3529POPC   C2B46076  27.628  13.356   6.664
 3529POPC   C3B46077  27.818  13.335   7.065
 3529POPC   C4B46078  27.823  13.527   7.490
 3530POPC   NC346079   3.749   7.851   5.411
 3530POPC   PO446080   3.346   7.387   5.328
 3530POPC   GL146081   3.500   7.518   5.737
 3530POPC   GL246082   3.885   7.555   5.803
 3530POPC   C1A46083   3.580   7.289   6.122
 3530POPC   D2A46084   3.643   7.197   6.550
 3530POPC   C3A46085   3.375   7.485   6.797
 3530POPC   C4A46086   3.343   7.469   7.252
 3530POPC   C1B46087   3.983   7.596   6.249
 3530POPC   C2B46088   3.917   7.627   6.690
 3530POPC   C3B46089   3.824   7.385   7.052
 3530POPC   C4B46090   3.905   7.618   7.424
 3531POPC   NC346091   4.717   3.414   5.526
 3531POPC   PO446092   5.422   3.170   5.476
 3531POPC   GL146093   5.330   3.310   5.877
 3531POPC   GL246094   5.052   3.500   5.897
 3531POPC   C1A46095   5.318   3.439   6.312
 3531POPC   D2A46096   5.063   3.405   6.630
 3531POPC   C3A46097   5.309   3.235   6.946
 3531POPC   C4A46098   5.238   3.531   7.234
 3531POPC   C1B46099   4.939   3.803   6.248
 3531POPC   C2B46100   4.658   3.978   6.575
 3531POPC   C3B46101   4.748   4.051   7.014
 3531POPC   C4B46102   4.526   4.098   7.424
 3532POPC   NC346103  36.518  40.598   5.517
 3532POPC   PO446104  35.883  40.701   5.414
 3532POPC   GL146105  35.928  41.034   5.731
 3532POPC   GL246106  35.709  40.847   5.883
 3532POPC   C1A46107  36.117  41.063   6.170
 3532POPC   D2A46108  36.339  41.039   6.588
 3532POPC   C3A46109  36.339  40.748   6.938
 3532POPC   C4A46110  36.047  40.795   7.273
 3532POPC   C1B46111  35.888  40.505   6.148
 3532POPC   C2B46112  36.119  40.469   6.549
 3532POPC   C3B46113  35.914  40.418   6.944
 3532POPC   C4B46114  35.784  40.336   7.360
 3533POPC   NC346115  37.941  33.853   5.268
 3533POPC   PO446116  37.636  34.398   5.551
 3533POPC   GL146117  37.700  34.013   5.780
 3533POPC   GL246118  38.008  33.822   5.776
 3533POPC   C1A46119  37.628  33.835   6.190
 3533POPC   D2A46120  37.664  33.485   6.469
 3533POPC   C3A46121  37.689  33.663   6.851
 3533POPC   C4A46122  37.561  33.699   7.239
 3533POPC   C1B46123  38.078  34.099   6.142
 3533POPC   C2B46124  37.976  33.998   6.572
 3533POPC   C3B46125  38.123  33.939   7.005
 3533POPC   C4B46126  38.082  33.544   7.198
 3534POPC   NC346127   8.765  20.992   5.493
 3534POPC   PO446128   9.205  20.492   5.274
 3534POPC   GL146129   9.154  20.472   5.750
 3534POPC   GL246130   8.999  20.747   5.875
 3534POPC   C1A46131   9.223  20.367   6.187
 3534POPC   D2A46132   9.220  20.611   6.581
 3534POPC   C3A46133   9.107  20.454   6.984
 3534POPC   C4A46134   9.233  20.639   7.352
 3534POPC   C1B46135   8.852  20.941   6.240
 3534POPC   C2B46136   9.046  21.113   6.590
 3534POPC   C3B46137   9.064  20.986   7.009
 3534POPC   C4B46138   8.704  20.740   7.210
 3535POPC   NC346139   4.520  28.533   5.398
 3535POPC   PO446140   3.967  28.210   5.537
 3535POPC   GL146141   4.240  28.394   5.884
 3535POPC   GL246142   4.625  28.483   5.913
 3535POPC   C1A46143   4.206  28.501   6.334
 3535POPC   D2A46144   4.472  28.535   6.700
 3535POPC   C3A46145   4.333  28.500   7.121
 3535POPC   C4A46146   4.156  28.104   7.272
 3535POPC   C1B46147   4.596  28.105   6.178
 3535POPC   C2B46148   4.440  28.005   6.593
 3535POPC   C3B46149   4.621  28.117   6.992
 3535POPC   C4B46150   4.605  28.223   7.468
 3536POPC   NC346151  14.227  39.310   5.419
 3536POPC   PO446152  14.823  38.983   5.432
 3536POPC   GL146153  14.491  39.028   5.773
 3536POPC   GL246154  14.544  39.333   5.823
 3536POPC   C1A46155  14.233  39.007   6.208
 3536POPC   D2A46156  13.955  39.243   6.528
 3536POPC   C3A46157  14.035  39.216   7.004
 3536POPC   C4A46158  14.288  39.112   7.412
 3536POPC   C1B46159  14.670  39.255   6.211
 3536POPC   C2B46160  14.463  39.255   6.601
 3536POPC   C3B46161  14.518  39.378   7.012
 3536POPC   C4B46162  14.785  39.186   7.287
 3537POPC   NC346163  16.755  27.298   5.244
 3537POPC   PO446164  16.926  27.754   5.675
 3537POPC   GL146165  16.764  27.499   5.948
 3537POPC   GL246166  17.044  27.270   5.940
 3537POPC   C1A46167  16.670  27.713   6.326
 3537POPC   D2A46168  16.774  27.577   6.725
 3537POPC   C3A46169  16.564  27.840   7.016
 3537POPC   C4A46170  16.530  27.631   7.390
 3537POPC   C1B46171  17.144  27.541   6.310
 3537POPC   C2B46172  17.253  27.771   6.687
 3537POPC   C3B46173  17.075  27.814   7.094
 3537POPC   C4B46174  17.020  27.670   7.495
 3538POPC   NC346175  18.905   7.845   5.497
 3538POPC   PO446176  19.128   7.257   5.195
 3538POPC   GL146177  18.970   7.393   5.727
 3538POPC   GL246178  19.165   7.624   5.892
 3538POPC   C1A46179  19.056   7.199   6.200
 3538POPC   D2A46180  19.007   7.238   6.674
 3538POPC   C3A46181  19.211   7.054   7.028
 3538POPC   C4A46182  18.871   7.022   7.354
 3538POPC   C1B46183  18.793   7.630   6.166
 3538POPC   C2B46184  18.581   7.478   6.547
 3538POPC   C3B46185  18.695   7.620   6.942
 3538POPC   C4B46186  18.668   7.530   7.341
 3539POPC   NC346187  38.759  29.284   5.349
 3539POPC   PO446188  38.315  28.835   5.465
 3539POPC   GL146189  38.405  29.218   5.738
 3539POPC   GL246190  38.730  29.414   5.854
 3539POPC   C1A46191  38.295  29.310   6.168
 3539POPC   D2A46192  38.298  29.519   6.563
 3539POPC   C3A46193  38.347  29.254   6.861
 3539POPC   C4A46194  38.302  29.035   7.208
 3539POPC   C1B46195  38.725  28.995   6.045
 3539POPC   C2B46196  38.528  28.888   6.420
 3539POPC   C3B46197  38.583  28.806   6.848
 3539POPC   C4B46198  38.648  28.672   7.264
 3540POPC   NC346199  40.597   3.217   5.365
 3540POPC   PO446200  40.377   3.848   5.409
 3540POPC   GL146201  40.739   3.646   5.691
 3540POPC   GL246202  40.699   3.300   5.859
 3540POPC   C1A46203  40.934   3.767   6.116
 3540POPC   D2A46204  40.885   4.076   6.485
 3540POPC   C3A46205  41.001   3.874   6.878
 3540POPC   C4A46206  40.925   3.918   7.283
 3540POPC   C1B46207  40.929   3.224   6.236
 3540POPC   C2B46208  40.914   3.367   6.655
 3540POPC   C3B46209  40.885   3.400   7.103
 3540POPC   C4B46210  41.006   3.280   7.541
 3541POPC   NC346211  15.308  25.565   5.024
 3541POPC   PO446212  15.402  24.923   5.369
 3541POPC   GL146213  15.283  25.097   5.764
 3541POPC   GL246214  15.140  25.415   5.721
 3541POPC   C1A46215  15.168  25.012   6.190
 3541POPC   D2A46216  15.264  25.119   6.619
 3541POPC   C3A46217  15.071  25.065   7.049
 3541POPC   C4A46218  15.315  24.982   7.446
 3541POPC   C1B46219  15.227  25.541   6.158
 3541POPC   C2B46220  15.393  25.617   6.575
 3541POPC   C3B46221  15.347  25.489   7.017
 3541POPC   C4B46222  15.465  25.741   7.397
 3542POPC   NC346223   1.745  17.542   5.354
 3542POPC   PO446224   1.071  17.504   5.595
 3542POPC   GL146225   1.106  17.351   5.987
 3542POPC   GL246226   1.465  17.192   5.964
 3542POPC   C1A46227   1.310  17.552   6.292
 3542POPC   D2A46228   1.513  17.403   6.605
 3542POPC   C3A46229   1.250  17.641   6.844
 3542POPC   C4A46230   1.299  17.734   7.234
 3542POPC   C1B46231   1.274  17.013   6.353
 3542POPC   C2B46232   1.055  17.167   6.716
 3542POPC   C3B46233   1.189  17.220   7.146
 3542POPC   C4B46234   1.488  17.092   7.482
 3543POPC   NC346235   1.452  15.691   5.087
 3543POPC   PO446236   0.998  15.918   5.566
 3543POPC   GL146237   1.029  16.113   5.939
 3543POPC   GL246238   0.747  16.348   5.971
 3543POPC   C1A46239   1.310  16.028   6.315
 3543POPC   D2A46240   1.352  15.846   6.717
 3543POPC   C3A46241   1.411  15.954   7.171
 3543POPC   C4A46242   1.321  15.782   7.589
 3543POPC   C1B46243   0.787  16.249   6.357
 3543POPC   C2B46244   0.916  16.089   6.666
 3543POPC   C3B46245   1.024  16.235   7.007
 3543POPC   C4B46246   0.680  16.320   7.217
 3544POPC   NC346247  41.836   6.273   5.507
 3544POPC   PO446248  41.313   5.861   5.258
 3544POPC   GL146249  41.225   5.900   5.728
 3544POPC   GL246250  41.521   6.054   5.887
 3544POPC   C1A46251  41.215   5.789   6.209
 3544POPC   D2A46252  41.367   5.896   6.661
 3544POPC   C3A46253  41.595   5.633   6.981
 3544POPC   C4A46254  41.942   5.651   7.270
 3544POPC   C1B46255  41.732   6.203   6.259
 3544POPC   C2B46256  41.911   6.174   6.662
 3544POPC   C3B46257  41.876   6.157   7.089
 3544POPC   C4B46258  41.586   6.017   7.353
 3545POPC   NC346259  41.856   2.782   5.602
 3545POPC   PO446260  42.317   2.374   5.381
 3545POPC   GL146261  42.376   2.691   5.749
 3545POPC   GL246262  42.656   2.941   5.672
 3545POPC   C1A46263  42.179   2.824   6.185
 3545POPC   D2A46264  42.060   2.633   6.595
 3545POPC   C3A46265  42.174   2.862   6.955
 3545POPC   C4A46266  42.426   2.727   7.247
 3545POPC   C1B46267  42.648   3.043   6.127
 3545POPC   C2B46268  42.489   3.085   6.588
 3545POPC   C3B46269  42.716   3.075   7.026
 3545POPC   C4B46270  42.582   3.095   7.527
 3546POPC   NC346271  43.312  36.852   5.438
 3546POPC   PO446272  43.148  37.414   5.532
 3546POPC   GL146273  43.006  37.121   5.860
 3546POPC   GL246274  43.010  36.742   5.837
 3546POPC   C1A46275  43.149  36.939   6.285
 3546POPC   D2A46276  43.365  36.712   6.639
 3546POPC   C3A46277  43.207  36.895   7.049
 3546POPC   C4A46278  43.358  37.299   7.267
 3546POPC   C1B46279  42.738  36.593   6.166
 3546POPC   C2B46280  42.866  36.593   6.605
 3546POPC   C3B46281  42.727  36.718   7.032
 3546POPC   C4B46282  42.838  36.714   7.484
 3547POPC   NC346283  14.702  20.978   5.515
 3547POPC   PO446284  15.011  20.441   5.273
 3547POPC   GL146285  15.010  20.519   5.746
 3547POPC   GL246286  15.144  20.812   5.834
 3547POPC   C1A46287  15.206  20.430   6.173
 3547POPC   D2A46288  15.088  20.118   6.510
 3547POPC   C3A46289  15.006  20.333   6.906
 3547POPC   C4A46290  15.218  20.280   7.280
 3547POPC   C1B46291  15.043  20.971   6.214
 3547POPC   C2B46292  15.123  20.995   6.640
 3547POPC   C3B46293  14.849  20.833   6.969
 3547POPC   C4B46294  15.042  20.751   7.348
 3548POPC   NC346295  22.695  20.154   5.034
 3548POPC   PO446296  22.893  20.740   5.317
 3548POPC   GL146297  22.715  20.732   5.776
 3548POPC   GL246298  22.467  20.498   5.884
 3548POPC   C1A46299  22.890  20.598   6.187
 3548POPC   D2A46300  23.122  20.694   6.580
 3548POPC   C3A46301  22.972  20.705   7.011
 3548POPC   C4A46302  23.219  20.960   7.313
 3548POPC   C1B46303  22.504  20.294   6.319
 3548POPC   C2B46304  22.841  20.246   6.651
 3548POPC   C3B46305  22.999  20.194   7.083
 3548POPC   C4B46306  23.036  20.424   7.488
 3549POPC   NC346307  20.087  30.196   5.548
 3549POPC   PO446308  20.635  29.818   5.296
 3549POPC   GL146309  20.665  29.789   5.738
 3549POPC   GL246310  20.541  30.109   5.798
 3549POPC   C1A46311  20.692  29.792   6.182
 3549POPC   D2A46312  20.652  30.008   6.576
 3549POPC   C3A46313  20.757  29.829   6.960
 3549POPC   C4A46314  20.581  29.556   7.264
 3549POPC   C1B46315  20.482  30.323   6.199
 3549POPC   C2B46316  20.291  30.364   6.632
 3549POPC   C3B46317  20.491  30.265   7.030
 3549POPC   C4B46318  20.440  30.035   7.415
 3550POPC   NC346319  27.987  16.657   5.283
 3550POPC   PO446320  28.634  16.672   5.371
 3550POPC   GL146321  28.496  16.650   5.836
 3550POPC   GL246322  28.140  16.521   5.810
 3550POPC   C1A46323  28.393  16.486   6.284
 3550POPC   D2A46324  28.105  16.411   6.674
 3550POPC   C3A46325  28.294  16.558   7.090
 3550POPC   C4A46326  28.443  16.976   7.236
 3550POPC   C1B46327  27.889  16.612   6.189
 3550POPC   C2B46328  27.756  16.830   6.564
 3550POPC   C3B46329  27.908  16.885   6.973
 3550POPC   C4B46330  27.835  16.582   7.300
 3551POPC   NC346331  11.694  43.227   5.443
 3551POPC   PO446332  12.396  43.340   5.353
 3551POPC   GL146333  12.157  43.237   5.713
 3551POPC   GL246334  12.011  43.530   5.826
 3551POPC   C1A46335  12.146  43.088   6.153
 3551POPC   D2A46336  11.848  42.890   6.501
 3551POPC   C3A46337  11.957  42.730   6.923
 3551POPC   C4A46338  12.108  43.003   7.244
 3551POPC   C1B46339  11.742  43.384   6.132
 3551POPC   C2B46340  11.987  43.384   6.526
 3551POPC   C3B46341  11.851  43.266   6.903
 3551POPC   C4B46342  11.850  43.439   7.292
 3552POPC   NC346343  29.855  24.027   5.381
 3552POPC   PO446344  29.428  23.538   5.386
 3552POPC   GL146345  29.848  23.608   5.671
 3552POPC   GL246346  29.979  23.929   5.857
 3552POPC   C1A46347  30.001  23.477   6.110
 3552POPC   D2A46348  30.244  23.540   6.518
 3552POPC   C3A46349  30.023  23.590   6.917
 3552POPC   C4A46350  30.039  23.321   7.281
 3552POPC   C1B46351  30.042  23.963   6.307
 3552POPC   C2B46352  29.783  24.098   6.673
 3552POPC   C3B46353  29.921  24.148   7.096
 3552POPC   C4B46354  30.079  23.831   7.379
 3553POPC   NC346355  15.751   6.529   5.479
 3553POPC   PO446356  16.539   6.404   5.617
 3553POPC   GL146357  16.200   6.624   5.797
 3553POPC   GL246358  16.025   6.316   5.834
 3553POPC   C1A46359  16.176   6.779   6.227
 3553POPC   D2A46360  16.008   6.628   6.621
 3553POPC   C3A46361  16.153   6.770   7.005
 3553POPC   C4A46362  15.867   6.779   7.342
 3553POPC   C1B46363  16.054   6.287   6.250
 3553POPC   C2B46364  15.665   6.256   6.543
 3553POPC   C3B46365  15.724   6.336   6.965
 3553POPC   C4B46366  15.926   6.231   7.329
 3554POPC   NC346367  35.837  16.179   5.610
 3554POPC   PO446368  36.423  16.002   5.305
 3554POPC   GL146369  36.321  16.052   5.760
 3554POPC   GL246370  36.032  15.835   5.916
 3554POPC   C1A46371  36.210  16.278   6.149
 3554POPC   D2A46372  36.331  16.295   6.565
 3554POPC   C3A46373  36.056  16.107   6.839
 3554POPC   C4A46374  35.808  15.965   7.174
 3554POPC   C1B46375  36.157  15.809   6.347
 3554POPC   C2B46376  36.250  15.642   6.732
 3554POPC   C3B46377  36.042  15.529   7.080
 3554POPC   C4B46378  36.173  15.708   7.470
 3555POPC   NC346379  41.394  19.672   5.408
 3555POPC   PO446380  41.667  20.283   5.485
 3555POPC   GL146381  41.640  19.921   5.785
 3555POPC   GL246382  41.297  19.817   5.889
 3555POPC   C1A46383  41.856  19.852   6.175
 3555POPC   D2A46384  42.029  19.764   6.584
 3555POPC   C3A46385  41.829  19.682   6.990
 3555POPC   C4A46386  41.390  19.612   7.133
 3555POPC   C1B46387  41.378  20.063   6.275
 3555POPC   C2B46388  41.519  19.989   6.711
 3555POPC   C3B46389  41.545  20.119   7.142
 3555POPC   C4B46390  41.236  20.260   7.416
 3556POPC   NC346391   0.480  31.747   5.545
 3556POPC   PO446392   0.601  31.056   5.650
 3556POPC   GL146393   0.506  31.402   5.923
 3556POPC   GL246394   0.184  31.522   5.900
 3556POPC   C1A46395   0.449  31.699   6.301
 3556POPC   D2A46396   0.375  31.866   6.734
 3556POPC   C3A46397   0.356  31.609   7.106
 3556POPC   C4A46398   0.462  31.198   7.322
 3556POPC   C1B46399   0.122  31.304   6.254
 3556POPC   C2B46400   0.110  31.443   6.665
 3556POPC   C3B46401   0.059  31.181   7.026
 3556POPC   C4B46402  44.944  31.125   7.454
 3557POPC   NC346403  36.613  13.990   5.471
 3557POPC   PO446404  35.958  13.676   5.392
 3557POPC   GL146405  36.273  13.651   5.729
 3557POPC   GL246406  36.368  13.972   5.899
 3557POPC   C1A46407  36.258  13.556   6.158
 3557POPC   D2A46408  36.237  13.373   6.558
 3557POPC   C3A46409  36.313  13.632   6.903
 3557POPC   C4A46410  36.296  13.545   7.333
 3557POPC   C1B46411  35.960  13.991   6.078
 3557POPC   C2B46412  36.010  13.898   6.520
 3557POPC   C3B46413  36.078  14.070   6.930
 3557POPC   C4B46414  36.012  13.957   7.322
 3558POPC   NC346415   5.651  20.551   5.105
 3558POPC   PO446416   6.102  20.321   5.572
 3558POPC   GL146417   5.993  20.623   5.883
 3558POPC   GL246418   5.766  20.427   6.127
 3558POPC   C1A46419   5.956  20.861   6.254
 3558POPC   D2A46420   5.821  20.756   6.687
 3558POPC   C3A46421   5.982  20.910   7.100
 3558POPC   C4A46422   5.998  20.896   7.557
 3558POPC   C1B46423   5.790  20.185   6.463
 3558POPC   C2B46424   6.064  20.307   6.773
 3558POPC   C3B46425   5.963  20.373   7.179
 3558POPC   C4B46426   5.849  20.409   7.595
 3559POPC   NC346427  17.430   6.831   5.055
 3559POPC   PO446428  17.703   6.217   5.209
 3559POPC   GL146429  17.494   6.295   5.657
 3559POPC   GL246430  17.514   6.656   5.795
 3559POPC   C1A46431  17.395   6.314   6.144
 3559POPC   D2A46432  17.573   6.430   6.544
 3559POPC   C3A46433  17.516   6.611   6.955
 3559POPC   C4A46434  17.547   6.319   7.294
 3559POPC   C1B46435  17.463   6.841   6.221
 3559POPC   C2B46436  17.427   7.065   6.638
 3559POPC   C3B46437  17.252   7.071   7.065
 3559POPC   C4B46438  17.401   7.059   7.481
 3560POPC   NC346439  23.318  33.577   5.229
 3560POPC   PO446440  22.814  34.030   5.471
 3560POPC   GL146441  22.882  33.702   5.770
 3560POPC   GL246442  22.971  33.995   5.968
 3560POPC   C1A46443  23.044  33.552   6.199
 3560POPC   D2A46444  23.031  33.808   6.591
 3560POPC   C3A46445  22.976  33.576   6.980
 3560POPC   C4A46446  23.062  33.590   7.431
 3560POPC   C1B46447  22.770  34.178   6.306
 3560POPC   C2B46448  22.548  34.004   6.626
 3560POPC   C3B46449  22.641  33.954   7.041
 3560POPC   C4B46450  23.028  34.063   7.235
 3561POPC   NC346451  35.746  37.235   5.707
 3561POPC   PO446452  35.175  37.176   5.302
 3561POPC   GL146453  35.315  36.933   5.699
 3561POPC   GL246454  35.242  36.614   5.759
 3561POPC   C1A46455  35.344  36.953   6.174
 3561POPC   D2A46456  35.540  37.117   6.583
 3561POPC   C3A46457  35.694  36.821   6.861
 3561POPC   C4A46458  35.727  36.750   7.293
 3561POPC   C1B46459  35.095  36.459   6.168
 3561POPC   C2B46460  35.156  36.571   6.618
 3561POPC   C3B46461  35.185  36.913   6.902
 3561POPC   C4B46462  35.299  37.047   7.288
 3562POPC   NC346463  31.302  35.260   5.181
 3562POPC   PO446464  31.720  35.031   5.608
 3562POPC   GL146465  31.537  35.357   5.763
 3562POPC   GL246466  31.207  35.245   5.810
 3562POPC   C1A46467  31.517  35.490   6.193
 3562POPC   D2A46468  31.275  35.627   6.547
 3562POPC   C3A46469  31.448  35.534   6.967
 3562POPC   C4A46470  31.352  35.607   7.424
 3562POPC   C1B46471  31.144  35.131   6.275
 3562POPC   C2B46472  31.086  35.191   6.741
 3562POPC   C3B46473  31.115  35.195   7.199
 3562POPC   C4B46474  31.162  34.917   7.550
 3563POPC   NC346475  13.940  42.266   5.366
 3563POPC   PO446476  14.611  42.264   5.219
 3563POPC   GL146477  14.510  42.390   5.704
 3563POPC   GL246478  14.170  42.446   5.804
 3563POPC   C1A46479  14.515  42.482   6.189
 3563POPC   D2A46480  14.723  42.376   6.599
 3563POPC   C3A46481  14.507  42.466   6.985
 3563POPC   C4A46482  14.559  42.347   7.444
 3563POPC   C1B46483  14.288  42.029   6.057
 3563POPC   C2B46484  14.418  41.929   6.508
 3563POPC   C3B46485  14.204  42.053   6.897
 3563POPC   C4B46486  14.223  41.991   7.357
 3564POPC   NC346487   1.060  29.722   5.720
 3564POPC   PO446488   1.617  30.104   5.568
 3564POPC   GL146489   1.360  30.110   5.931
 3564POPC   GL246490   1.016  30.225   5.855
 3564POPC   C1A46491   1.446  30.036   6.368
 3564POPC   D2A46492   1.562  30.087   6.771
 3564POPC   C3A46493   1.544  29.741   7.074
 3564POPC   C4A46494   1.341  29.775   7.502
 3564POPC   C1B46495   0.994  30.289   6.315
 3564POPC   C2B46496   1.046  30.068   6.738
 3564POPC   C3B46497   1.026  30.041   7.211
 3564POPC   C4B46498   0.920  30.040   7.685
 3565POPC   NC346499   4.181  11.981   5.530
 3565POPC   PO446500   4.217  12.590   5.257
 3565POPC   GL146501   4.334  12.424   5.732
 3565POPC   GL246502   4.040  12.413   5.924
 3565POPC   C1A46503   4.410  12.153   6.162
 3565POPC   D2A46504   4.397  11.863   6.529
 3565POPC   C3A46505   4.474  11.927   6.958
 3565POPC   C4A46506   4.081  12.008   7.171
 3565POPC   C1B46507   4.164  12.571   6.343
 3565POPC   C2B46508   4.411  12.386   6.688
 3565POPC   C3B46509   4.414  12.414   7.150
 3565POPC   C4B46510   4.429  12.396   7.573
 3566POPC   NC346511  18.647  21.824   5.370
 3566POPC   PO446512  18.503  21.133   5.449
 3566POPC   GL146513  18.302  21.262   5.840
 3566POPC   GL246514  18.348  21.627   5.807
 3566POPC   C1A46515  18.274  21.388   6.280
 3566POPC   D2A46516  18.372  21.216   6.649
 3566POPC   C3A46517  18.292  21.117   7.052
 3566POPC   C4A46518  18.535  21.072   7.426
 3566POPC   C1B46519  17.940  21.692   6.055
 3566POPC   C2B46520  17.837  21.588   6.502
 3566POPC   C3B46521  17.868  21.803   6.907
 3566POPC   C4B46522  18.223  21.651   7.109
 3567POPC   NC346523  16.969   6.255   5.675
 3567POPC   PO446524  16.761   5.965   5.185
 3567POPC   GL146525  16.650   5.880   5.710
 3567POPC   GL246526  16.729   5.580   5.889
 3567POPC   C1A46527  16.557   5.995   6.170
 3567POPC   D2A46528  16.814   6.123   6.545
 3567POPC   C3A46529  16.709   5.946   6.892
 3567POPC   C4A46530  16.554   5.952   7.301
 3567POPC   C1B46531  16.928   5.406   6.262
 3567POPC   C2B46532  16.853   5.415   6.694
 3567POPC   C3B46533  16.657   5.482   7.093
 3567POPC   C4B46534  17.006   5.672   7.200
 3568POPC   NC346535  35.614  31.459   5.361
 3568POPC   PO446536  35.032  31.763   5.535
 3568POPC   GL146537  35.239  31.600   5.896
 3568POPC   GL246538  35.573  31.501   5.868
 3568POPC   C1A46539  35.269  31.283   6.226
 3568POPC   D2A46540  35.420  31.091   6.582
 3568POPC   C3A46541  35.218  31.140   6.951
 3568POPC   C4A46542  35.321  31.339   7.339
 3568POPC   C1B46543  35.549  31.748   6.265
 3568POPC   C2B46544  35.461  31.598   6.674
 3568POPC   C3B46545  35.701  31.356   6.967
 3568POPC   C4B46546  35.722  31.634   7.302
 3569POPC   NC346547   5.819  30.499   5.365
 3569POPC   PO446548   5.471  31.114   5.398
 3569POPC   GL146549   5.670  30.839   5.747
 3569POPC   GL246550   6.013  30.933   5.837
 3569POPC   C1A46551   5.749  30.665   6.177
 3569POPC   D2A46552   6.040  30.696   6.548
 3569POPC   C3A46553   5.855  30.510   6.916
 3569POPC   C4A46554   5.749  30.664   7.332
 3569POPC   C1B46555   6.271  30.992   6.183
 3569POPC   C2B46556   6.236  31.183   6.619
 3569POPC   C3B46557   6.126  30.944   7.022
 3569POPC   C4B46558   6.144  30.932   7.491
 3570POPC   NC346559  20.303  34.985   5.477
 3570POPC   PO446560  20.316  34.273   5.360
 3570POPC   GL146561  20.510  34.432   5.762
 3570POPC   GL246562  20.681  34.775   5.779
 3570POPC   C1A46563  20.535  34.315   6.200
 3570POPC   D2A46564  20.430  34.516   6.589
 3570POPC   C3A46565  20.733  34.573   6.888
 3570POPC   C4A46566  20.459  34.438   7.206
 3570POPC   C1B46567  20.454  34.856   6.189
 3570POPC   C2B46568  20.499  35.024   6.645
 3570POPC   C3B46569  20.433  34.926   7.089
 3570POPC   C4B46570  20.726  34.801   7.447
 3571POPC   NC346571  29.864  28.393   5.313
 3571POPC   PO446572  30.229  28.776   5.680
 3571POPC   GL146573  30.085  28.346   5.870
 3571POPC   GL246574  29.776  28.114   5.764
 3571POPC   C1A46575  30.045  28.271   6.327
 3571POPC   D2A46576  30.124  28.551   6.673
 3571POPC   C3A46577  30.033  28.405   7.092
 3571POPC   C4A46578  30.051  28.625   7.481
 3571POPC   C1B46579  29.555  28.096   6.185
 3571POPC   C2B46580  29.593  28.278   6.618
 3571POPC   C3B46581  29.476  28.485   7.015
 3571POPC   C4B46582  29.626  28.283   7.391
 3572POPC   NC346583  10.168   0.508   5.545
 3572POPC   PO446584  10.734   0.182   5.511
 3572POPC   GL146585  10.507   0.364   5.897
 3572POPC   GL246586  10.262   0.628   6.007
 3572POPC   C1A46587  10.402   0.210   6.292
 3572POPC   D2A46588  10.640   0.058   6.623
 3572POPC   C3A46589  10.582   0.229   7.040
 3572POPC   C4A46590  10.240   0.192   7.272
 3572POPC   C1B46591  10.537   0.721   6.291
 3572POPC   C2B46592  10.552   0.571   6.665
 3572POPC   C3B46593  10.298   0.696   6.998
 3572POPC   C4B46594  10.444   0.669   7.370
 3573POPC   NC346595   0.706   9.354   5.423
 3573POPC   PO446596   0.702  10.072   5.595
 3573POPC   GL146597   0.429   9.862   5.891
 3573POPC   GL246598   0.428   9.555   5.808
 3573POPC   C1A46599   0.094   9.655   6.178
 3573POPC   D2A46600  44.986   9.630   6.625
 3573POPC   C3A46601   0.293   9.894   6.860
 3573POPC   C4A46602   0.396   9.825   7.294
 3573POPC   C1B46603   0.574   9.484   6.219
 3573POPC   C2B46604   0.468   9.416   6.621
 3573POPC   C3B46605   0.296   9.412   7.006
 3573POPC   C4B46606   0.544   9.325   7.376
 3574POPC   NC346607   2.383  19.380   5.431
 3574POPC   PO446608   3.090  19.042   5.438
 3574POPC   GL146609   2.750  19.117   5.708
 3574POPC   GL246610   2.831  19.464   5.668
 3574POPC   C1A46611   2.560  18.980   6.088
 3574POPC   D2A46612   2.482  19.143   6.503
 3574POPC   C3A46613   2.729  18.973   6.851
 3574POPC   C4A46614   2.562  18.840   7.252
 3574POPC   C1B46615   2.909  19.516   6.103
 3574POPC   C2B46616   2.835  19.531   6.551
 3574POPC   C3B46617   2.769  19.461   6.995
 3574POPC   C4B46618   2.911  19.188   7.317
 3575POPC   NC346619  35.201  10.789   5.385
 3575POPC   PO446620  35.250  10.117   5.209
 3575POPC   GL146621  35.379  10.325   5.679
 3575POPC   GL246622  35.155  10.566   5.863
 3575POPC   C1A46623  35.342  10.169   6.154
 3575POPC   D2A46624  35.664  10.175   6.465
 3575POPC   C3A46625  35.484  10.468   6.762
 3575POPC   C4A46626  35.322  10.382   7.187
 3575POPC   C1B46627  35.144  10.611   6.303
 3575POPC   C2B46628  35.000  10.377   6.610
 3575POPC   C3B46629  34.860  10.397   6.977
 3575POPC   C4B46630  34.928  10.735   7.237
 3576POPC   NC346631  37.270  37.144   5.664
 3576POPC   PO446632  36.702  37.000   5.218
 3576POPC   GL146633  36.854  36.833   5.673
 3576POPC   GL246634  37.213  36.673   5.793
 3576POPC   C1A46635  36.830  36.940   6.146
 3576POPC   D2A46636  37.018  37.157   6.542
 3576POPC   C3A46637  37.150  37.011   6.979
 3576POPC   C4A46638  36.929  37.006   7.379
 3576POPC   C1B46639  37.089  36.508   6.193
 3576POPC   C2B46640  36.894  36.643   6.592
 3576POPC   C3B46641  36.838  36.602   7.039
 3576POPC   C4B46642  37.104  36.526   7.394
 3577POPC   NC346643  33.987  17.300   5.581
 3577POPC   PO446644  34.173  17.861   5.524
 3577POPC   GL146645  33.799  17.743   5.774
 3577POPC   GL246646  33.503  17.541   5.629
 3577POPC   C1A46647  33.853  17.558   6.206
 3577POPC   D2A46648  34.002  17.611   6.631
 3577POPC   C3A46649  33.835  17.373   7.001
 3577POPC   C4A46650  33.720  17.520   7.426
 3577POPC   C1B46651  33.362  17.584   6.105
 3577POPC   C2B46652  33.467  17.577   6.606
 3577POPC   C3B46653  33.336  17.556   7.083
 3577POPC   C4B46654  33.254  17.743   7.524
 3578POPC   NC346655  34.563   3.922   5.384
 3578POPC   PO446656  34.328   4.526   5.489
 3578POPC   GL146657  34.584   4.365   5.812
 3578POPC   GL246658  34.920   4.537   5.750
 3578POPC   C1A46659  34.476   4.317   6.251
 3578POPC   D2A46660  34.214   4.462   6.553
 3578POPC   C3A46661  34.453   4.357   6.880
 3578POPC   C4A46662  34.430   4.054   7.193
 3578POPC   C1B46663  34.964   4.383   6.186
 3578POPC   C2B46664  34.938   4.209   6.614
 3578POPC   C3B46665  34.935   4.400   7.047
 3578POPC   C4B46666  34.786   4.830   7.177
 3579POPC   NC346667  37.359   2.199   5.507
 3579POPC   PO446668  37.988   1.840   5.412
 3579POPC   GL146669  37.694   1.881   5.766
 3579POPC   GL246670  37.352   1.713   5.716
 3579POPC   C1A46671  37.599   2.217   6.120
 3579POPC   D2A46672  37.522   2.241   6.567
 3579POPC   C3A46673  37.869   2.082   6.797
 3579POPC   C4A46674  37.915   1.908   7.207
 3579POPC   C1B46675  37.398   1.763   6.160
 3579POPC   C2B46676  37.630   1.689   6.530
 3579POPC   C3B46677  37.512   1.738   6.939
 3579POPC   C4B46678  37.417   2.029   7.216
 3580POPC   NC346679  32.598   7.381   5.693
 3580POPC   PO446680  31.972   7.682   5.531
 3580POPC   GL146681  32.133   7.551   5.889
 3580POPC   GL246682  32.406   7.787   5.901
 3580POPC   C1A46683  32.121   7.639   6.336
 3580POPC   D2A46684  32.015   7.621   6.779
 3580POPC   C3A46685  32.166   7.310   7.087
 3580POPC   C4A46686  32.037   7.192   7.517
 3580POPC   C1B46687  32.643   7.692   6.283
 3580POPC   C2B46688  32.509   7.495   6.678
 3580POPC   C3B46689  32.462   7.727   7.032
 3580POPC   C4B46690  32.762   7.789   7.335
 3581POPC   NC346691  18.312  33.363   5.404
 3581POPC   PO446692  18.567  34.109   5.480
 3581POPC   GL146693  18.312  33.899   5.800
 3581POPC   GL246694  18.530  33.651   5.876
 3581POPC   C1A46695  18.126  33.694   6.193
 3581POPC   D2A46696  18.107  33.857   6.609
 3581POPC   C3A46697  17.991  33.652   6.982
 3581POPC   C4A46698  18.090  33.782   7.388
 3581POPC   C1B46699  18.524  33.974   6.241
 3581POPC   C2B46700  18.637  33.886   6.655
 3581POPC   C3B46701  18.437  33.963   7.030
 3581POPC   C4B46702  18.587  33.780   7.415
 3582POPC   NC346703   7.907  40.630   5.530
 3582POPC   PO446704   7.388  41.119   5.531
 3582POPC   GL146705   7.368  40.900   5.908
 3582POPC   GL246706   7.473  40.547   5.860
 3582POPC   C1A46707   7.531  40.920   6.332
 3582POPC   D2A46708   7.374  41.089   6.680
 3582POPC   C3A46709   7.503  40.927   7.025
 3582POPC   C4A46710   7.481  41.093   7.400
 3582POPC   C1B46711   7.818  40.527   6.185
 3582POPC   C2B46712   7.700  40.480   6.626
 3582POPC   C3B46713   7.838  40.549   7.058
 3582POPC   C4B46714   7.788  40.704   7.520
 3583POPC   NC346715  41.730  34.195   5.309
 3583POPC   PO446716  41.422  33.572   5.334
 3583POPC   GL146717  41.527  33.731   5.761
 3583POPC   GL246718  41.557  34.083   5.766
 3583POPC   C1A46719  41.699  33.557   6.163
 3583POPC   D2A46720  41.793  33.417   6.593
 3583POPC   C3A46721  41.656  33.709   6.920
 3583POPC   C4A46722  41.501  33.596   7.322
 3583POPC   C1B46723  41.389  34.102   6.150
 3583POPC   C2B46724  41.419  34.143   6.564
 3583POPC   C3B46725  41.278  34.122   6.952
 3583POPC   C4B46726  41.530  34.098   7.309
 3584POPC   NC346727  20.529  44.757   5.297
 3584POPC   PO446728  21.059  44.672   5.618
 3584POPC   GL146729  20.639  44.704   5.829
 3584POPC   GL246730  20.355  44.488   5.707
 3584POPC   C1A46731  20.585  44.788   6.278
 3584POPC   D2A46732  20.625   0.093   6.597
 3584POPC   C3A46733  20.856  44.824   6.856
 3584POPC   C4A46734  20.840  44.627   7.233
 3584POPC   C1B46735  20.153  44.583   6.077
 3584POPC   C2B46736  20.174  44.446   6.488
 3584POPC   C3B46737  20.347  44.670   6.799
 3584POPC   C4B46738  20.347  44.584   7.215
 3585POPC   NC346739  14.278  14.852   5.685
 3585POPC   PO446740  14.362  14.346   5.358
 3585POPC   GL146741  14.470  14.184   5.782
 3585POPC   GL246742  14.758  14.021   5.713
 3585POPC   C1A46743  14.345  14.056   6.229
 3585POPC   D2A46744  14.138  14.257   6.605
 3585POPC   C3A46745  14.374  14.465   6.926
 3585POPC   C4A46746  14.217  14.574   7.334
 3585POPC   C1B46747  14.846  14.175   6.149
 3585POPC   C2B46748  14.684  14.239   6.585
 3585POPC   C3B46749  14.554  14.001   6.976
 3585POPC   C4B46750  14.613  14.236   7.340
 3586POPC   NC346751  44.388  31.364   5.365
 3586POPC   PO446752   0.038  31.563   5.426
 3586POPC   GL146753  44.703  31.506   5.745
 3586POPC   GL246754  44.652  31.834   5.850
 3586POPC   C1A46755  44.626  31.290   6.148
 3586POPC   D2A46756  44.756  31.115   6.548
 3586POPC   C3A46757  44.629  31.364   6.847
 3586POPC   C4A46758  44.509  31.209   7.203
 3586POPC   C1B46759  44.847  31.767   6.219
 3586POPC   C2B46760  44.664  31.820   6.596
 3586POPC   C3B46761  44.874  31.810   6.938
 3586POPC   C4B46762  44.872  31.583   7.249
 3587POPC   NC346763  20.195  20.904   5.359
 3587POPC   PO446764  19.636  20.410   5.586
 3587POPC   GL146765  19.810  20.543   5.964
 3587POPC   GL246766  20.104  20.664   5.805
 3587POPC   C1A46767  19.643  20.725   6.331
 3587POPC   D2A46768  19.512  20.556   6.733
 3587POPC   C3A46769  19.805  20.484   7.056
 3587POPC   C4A46770  19.899  20.872   7.188
 3587POPC   C1B46771  20.260  20.462   6.167
 3587POPC   C2B46772  20.077  20.531   6.576
 3587POPC   C3B46773  20.259  20.303   6.897
 3587POPC   C4B46774  20.229  20.266   7.305
 3588POPC   NC346775  32.467  44.928   5.624
 3588POPC   PO446776  32.213   0.529   5.407
 3588POPC   GL146777  32.144   0.398   5.830
 3588POPC   GL246778  31.778   0.287   5.914
 3588POPC   C1A46779  32.437   0.472   6.201
 3588POPC   D2A46780  32.576   0.746   6.573
 3588POPC   C3A46781  32.632   0.547   6.995
 3588POPC   C4A46782  32.582   0.668   7.464
 3588POPC   C1B46783  31.991   0.266   6.295
 3588POPC   C2B46784  32.176   0.431   6.702
 3588POPC   C3B46785  32.198   0.358   7.136
 3588POPC   C4B46786  32.519   0.026   7.125
 3589POPC   NC346787  25.059  19.696   5.272
 3589POPC   PO446788  25.664  19.748   5.551
 3589POPC   GL146789  25.277  19.757   5.781
 3589POPC   GL246790  25.062  20.026   5.719
 3589POPC   C1A46791  25.338  19.811   6.216
 3589POPC   D2A46792  25.597  19.995   6.549
 3589POPC   C3A46793  25.471  19.792   6.943
 3589POPC   C4A46794  25.191  19.550   7.224
 3589POPC   C1B46795  24.887  20.083   6.112
 3589POPC   C2B46796  24.860  19.736   6.385
 3589POPC   C3B46797  24.923  19.757   6.822
 3589POPC   C4B46798  24.862  20.132   7.054
 3590POPC   NC346799  38.856  37.625   5.230
 3590POPC   PO446800  38.184  37.792   5.476
 3590POPC   GL146801  38.470  37.716   5.848
 3590POPC   GL246802  38.739  37.915   5.736
 3590POPC   C1A46803  38.581  37.563   6.316
 3590POPC   D2A46804  38.383  37.264   6.646
 3590POPC   C3A46805  38.136  37.395   6.987
 3590POPC   C4A46806  38.224  37.530   7.376
 3590POPC   C1B46807  38.763  38.050   6.161
 3590POPC   C2B46808  38.490  38.023   6.524
 3590POPC   C3B46809  38.521  37.748   6.915
 3590POPC   C4B46810  38.566  37.964   7.310
 3591POPC   NC346811  23.591   0.032   5.150
 3591POPC   PO446812  23.463   0.651   5.439
 3591POPC   GL146813  23.672   0.506   5.813
 3591POPC   GL246814  23.541   0.171   5.802
 3591POPC   C1A46815  23.887   0.627   6.226
 3591POPC   D2A46816  23.717   0.712   6.662
 3591POPC   C3A46817  23.990   0.656   7.000
 3591POPC   C4A46818  24.137   0.262   7.163
 3591POPC   C1B46819  23.750   0.138   6.216
 3591POPC   C2B46820  23.939   0.231   6.608
 3591POPC   C3B46821  23.673   0.273   6.935
 3591POPC   C4B46822  23.645   0.211   7.335
 3592POPC   NC346823  21.862  20.023   5.600
 3592POPC   PO446824  22.399  19.688   5.448
 3592POPC   GL146825  22.211  19.649   5.845
 3592POPC   GL246826  21.899  19.508   5.783
 3592POPC   C1A46827  22.122  19.925   6.198
 3592POPC   D2A46828  21.872  20.103   6.522
 3592POPC   C3A46829  22.047  19.968   6.881
 3592POPC   C4A46830  22.088  20.024   7.284
 3592POPC   C1B46831  21.851  19.424   6.205
 3592POPC   C2B46832  22.027  19.574   6.569
 3592POPC   C3B46833  21.898  19.492   7.001
 3592POPC   C4B46834  22.242  19.543   7.278
 3593POPC   NC346835  16.776  10.800   5.411
 3593POPC   PO446836  16.609  10.098   5.431
 3593POPC   GL146837  16.743  10.278   5.846
 3593POPC   GL246838  16.784  10.652   5.904
 3593POPC   C1A46839  16.860  10.318   6.288
 3593POPC   D2A46840  16.674  10.478   6.679
 3593POPC   C3A46841  16.835  10.352   7.079
 3593POPC   C4A46842  17.106  10.371   7.426
 3593POPC   C1B46843  16.608  10.859   6.309
 3593POPC   C2B46844  16.667  10.968   6.758
 3593POPC   C3B46845  16.530  10.755   7.129
 3593POPC   C4B46846  16.702  10.667   7.524
 3594POPC   NC346847   6.102  43.634   5.331
 3594POPC   PO446848   5.992  44.315   5.321
 3594POPC   GL146849   5.864  44.015   5.709
 3594POPC   GL246850   6.092  43.794   5.821
 3594POPC   C1A46851   5.711  43.829   6.146
 3594POPC   D2A46852   5.845  43.956   6.567
 3594POPC   C3A46853   5.762  43.775   6.986
 3594POPC   C4A46854   5.587  43.721   7.396
 3594POPC   C1B46855   6.226  43.719   6.236
 3594POPC   C2B46856   6.335  43.839   6.620
 3594POPC   C3B46857   6.241  43.555   6.910
 3594POPC   C4B46858   6.161  43.600   7.314
 3595POPC   NC346859  41.954   0.527   5.381
 3595POPC   PO446860  42.593   0.710   5.408
 3595POPC   GL146861  42.538   0.524   5.789
 3595POPC   GL246862  42.196   0.493   5.827
 3595POPC   C1A46863  42.562   0.340   6.176
 3595POPC   D2A46864  42.483   0.494   6.590
 3595POPC   C3A46865  42.344   0.256   6.929
 3595POPC   C4A46866  42.440   0.412   7.324
 3595POPC   C1B46867  42.091   0.542   6.265
 3595POPC   C2B46868  41.947   0.525   6.712
 3595POPC   C3B46869  42.023   0.661   7.175
 3595POPC   C4B46870  42.133   0.625   7.669
 3596POPC   NC346871  29.160  10.664   5.383
 3596POPC   PO446872  29.821  10.668   5.547
 3596POPC   GL146873  29.438  10.616   5.796
 3596POPC   GL246874  29.310  10.288   5.717
 3596POPC   C1A46875  29.110  10.602   6.142
 3596POPC   D2A46876  29.062  10.363   6.566
 3596POPC   C3A46877  28.919  10.565   6.983
 3596POPC   C4A46878  28.718  10.519   7.431
 3596POPC   C1B46879  29.391  10.186   6.167
 3596POPC   C2B46880  29.445  10.022   6.598
 3596POPC   C3B46881  29.382  10.294   6.963
 3596POPC   C4B46882  29.138  10.230   7.298
 3597POPC   NC346883  27.640   7.993   5.476
 3597POPC   PO446884  27.827   8.734   5.469
 3597POPC   GL146885  27.626   8.471   5.779
 3597POPC   GL246886  27.840   8.204   5.894
 3597POPC   C1A46887  27.436   8.352   6.178
 3597POPC   D2A46888  27.350   8.155   6.541
 3597POPC   C3A46889  27.242   8.304   6.948
 3597POPC   C4A46890  27.197   8.216   7.386
 3597POPC   C1B46891  27.822   8.013   6.329
 3597POPC   C2B46892  27.779   8.074   6.788
 3597POPC   C3B46893  27.674   8.093   7.207
 3597POPC   C4B46894  27.952   7.914   7.532
 3598POPC   NC346895   3.987  22.240   5.410
 3598POPC   PO446896   3.341  22.102   5.333
 3598POPC   GL146897   3.586  22.007   5.675
 3598POPC   GL246898   3.528  22.317   5.837
 3598POPC   C1A46899   3.627  21.886   6.104
 3598POPC   D2A46900   3.878  22.031   6.455
 3598POPC   C3A46901   3.646  22.135   6.796
 3598POPC   C4A46902   3.658  22.071   7.223
 3598POPC   C1B46903   3.623  22.426   6.259
 3598POPC   C2B46904   3.361  22.559   6.615
 3598POPC   C3B46905   3.409  22.518   7.030
 3598POPC   C4B46906   3.815  22.549   7.231
 3599POPC   NC346907   7.982  31.974   5.606
 3599POPC   PO446908   7.792  31.393   5.533
 3599POPC   GL146909   8.152  31.415   5.839
 3599POPC   GL246910   8.382  31.690   5.762
 3599POPC   C1A46911   8.337  31.284   6.239
 3599POPC   D2A46912   8.173  31.136   6.597
 3599POPC   C3A46913   8.342  31.266   6.943
 3599POPC   C4A46914   8.164  31.366   7.314
 3599POPC   C1B46915   8.418  31.794   6.202
 3599POPC   C2B46916   8.453  31.653   6.645
 3599POPC   C3B46917   8.297  31.801   7.065
 3599POPC   C4B46918   8.398  31.789   7.517
 3600POPC   NC346919  38.281   1.621   5.694
 3600POPC   PO446920  38.186   0.966   5.405
 3600POPC   GL146921  38.162   1.151   5.825
 3600POPC   GL246922  38.554   1.217   5.846
 3600POPC   C1A46923  38.259   1.337   6.292
 3600POPC   D2A46924  38.301   1.440   6.767
 3600POPC   C3A46925  38.596   1.225   7.058
 3600POPC   C4A46926  38.454   1.213   7.475
 3600POPC   C1B46927  38.802   1.445   6.176
 3600POPC   C2B46928  38.812   1.483   6.631
 3600POPC   C3B46929  38.788   1.719   7.020
 3600POPC   C4B46930  38.857   1.520   7.440
 3601POPC   NC346931   4.114   1.738   5.511
 3601POPC   PO446932   3.922   2.357   5.580
 3601POPC   GL146933   4.129   2.075   5.888
 3601POPC   GL246934   3.886   1.797   5.949
 3601POPC   C1A46935   4.229   1.970   6.304
 3601POPC   D2A46936   4.295   2.196   6.652
 3601POPC   C3A46937   4.285   1.979   7.011
 3601POPC   C4A46938   4.049   2.082   7.356
 3601POPC   C1B46939   3.930   1.535   6.289
 3601POPC   C2B46940   4.086   1.594   6.707
 3601POPC   C3B46941   3.953   1.607   7.142
 3601POPC   C4B46942   3.925   1.626   7.585
 3602POPC   NC346943  41.902  36.190   5.579
 3602POPC   PO446944  41.236  36.437   5.501
 3602POPC   GL146945  41.442  36.220   5.916
 3602POPC   GL246946  41.810  36.071   6.051
 3602POPC   C1A46947  41.397  35.930   6.300
 3602POPC   D2A46948  41.625  35.988   6.702
 3602POPC   C3A46949  41.552  35.779   7.105
 3602POPC   C4A46950  41.548  36.028   7.489
 3602POPC   C1B46951  41.748  36.399   6.342
 3602POPC   C2B46952  41.844  36.456   6.781
 3602POPC   C3B46953  41.937  36.125   7.115
 3602POPC   C4B46954  42.019  36.226   7.563
 3603POPC   NC346955   9.288  14.209   5.466
 3603POPC   PO446956   8.730  14.694   5.423
 3603POPC   GL146957   8.822  14.734   5.839
 3603POPC   GL246958   9.121  14.510   5.899
 3603POPC   C1A46959   8.743  14.554   6.250
 3603POPC   D2A46960   8.900  14.295   6.580
 3603POPC   C3A46961   8.909  14.543   6.942
 3603POPC   C4A46962   8.647  14.543   7.281
 3603POPC   C1B46963   9.302  14.188   6.199
 3603POPC   C2B46964   9.294  13.969   6.609
 3603POPC   C3B46965   9.337  14.215   6.949
 3603POPC   C4B46966   9.212  14.354   7.351
 3604POPC   NC346967  33.341  29.485   5.290
 3604POPC   PO446968  32.670  29.626   5.247
 3604POPC   GL146969  32.914  29.848   5.616
 3604POPC   GL246970  33.267  29.868   5.640
 3604POPC   C1A46971  33.046  30.100   6.045
 3604POPC   D2A46972  33.075  29.918   6.490
 3604POPC   C3A46973  33.005  30.092   6.910
 3604POPC   C4A46974  32.990  30.119   7.352
 3604POPC   C1B46975  33.391  29.736   6.075
 3604POPC   C2B46976  33.523  29.643   6.501
 3604POPC   C3B46977  33.326  29.520   6.863
 3604POPC   C4B46978  33.178  29.627   7.249
 3605POPC   NC346979  33.967  27.694   5.243
 3605POPC   PO446980  33.473  27.374   5.522
 3605POPC   GL146981  33.730  27.653   5.792
 3605POPC   GL246982  34.105  27.705   5.729
 3605POPC   C1A46983  33.780  27.784   6.247
 3605POPC   D2A46984  33.614  27.574   6.621
 3605POPC   C3A46985  33.726  27.700   7.025
 3605POPC   C4A46986  33.762  27.727   7.454
 3605POPC   C1B46987  34.073  27.390   6.064
 3605POPC   C2B46988  34.143  27.473   6.499
 3605POPC   C3B46989  34.029  27.312   6.881
 3605POPC   C4B46990  34.164  27.480   7.254
 3606POPC   NC346991  31.763   6.101   5.815
 3606POPC   PO446992  32.337   5.983   5.521
 3606POPC   GL146993  32.297   5.989   5.932
 3606POPC   GL246994  32.108   5.697   5.967
 3606POPC   C1A46995  32.444   5.855   6.344
 3606POPC   D2A46996  32.282   5.913   6.767
 3606POPC   C3A46997  32.379   5.725   7.167
 3606POPC   C4A46998  32.258   5.883   7.568
 3606POPC   C1B46999  31.824   5.641   6.324
 3606POPC   C2B47000  31.784   5.792   6.738
 3606POPC   C3B47001  31.895   5.905   7.150
 3606POPC   C4B47002  31.784   5.723   7.525
 3607POPC   NC347003  32.768   3.226   5.107
 3607POPC   PO447004  33.143   3.841   5.093
 3607POPC   GL147005  33.071   3.613   5.528
 3607POPC   GL247006  32.967   3.258   5.590
 3607POPC   C1A47007  33.049   3.687   6.007
 3607POPC   D2A47008  33.238   3.615   6.392
 3607POPC   C3A47009  33.046   3.619   6.789
 3607POPC   C4A47010  32.924   3.638   7.233
 3607POPC   C1B47011  32.858   3.209   6.050
 3607POPC   C2B47012  32.733   3.434   6.420
 3607POPC   C3B47013  32.589   3.357   6.848
 3607POPC   C4B47014  32.449   3.444   7.251
 3608POPC   NC347015  37.657  44.797   5.367
 3608POPC   PO447016  37.644  44.193   5.439
 3608POPC   GL147017  37.561  44.524   5.793
 3608POPC   GL247018  37.238  44.713   5.694
 3608POPC   C1A47019  37.725  44.614   6.254
 3608POPC   D2A47020  37.824  44.447   6.702
 3608POPC   C3A47021  37.675  44.522   7.134
 3608POPC   C4A47022  37.211  44.577   7.230
 3608POPC   C1B47023  37.249  44.820   6.147
 3608POPC   C2B47024  37.335  44.724   6.602
 3608POPC   C3B47025  37.463  44.939   6.972
 3608POPC   C4B47026  37.758   0.024   7.277
 3609POPC   NC347027   9.733  33.477   4.906
 3609POPC   PO447028   9.954  33.949   5.416
 3609POPC   GL147029   9.857  33.695   5.785
 3609POPC   GL247030   9.956  33.378   5.872
 3609POPC   C1A47031   9.944  33.727   6.254
 3609POPC   D2A47032  10.120  33.925   6.635
 3609POPC   C3A47033   9.854  33.906   6.972
 3609POPC   C4A47034   9.831  33.577   7.264
 3609POPC   C1B47035   9.523  33.405   6.052
 3609POPC   C2B47036   9.393  33.613   6.447
 3609POPC   C3B47037   9.490  33.537   6.868
 3609POPC   C4B47038   9.291  33.622   7.248
 3610POPC   NC347039  39.074  41.602   5.261
 3610POPC   PO447040  39.463  41.198   5.577
 3610POPC   GL147041  39.143  41.168   5.902
 3610POPC   GL247042  38.952  41.472   5.792
 3610POPC   C1A47043  39.121  41.147   6.380
 3610POPC   D2A47044  39.346  41.149   6.780
 3610POPC   C3A47045  39.254  41.445   7.118
 3610POPC   C4A47046  39.499  41.598   7.460
 3610POPC   C1B47047  39.125  41.624   6.208
 3610POPC   C2B47048  39.096  41.650   6.677
 3610POPC   C3B47049  39.030  41.906   7.076
 3610POPC   C4B47050  39.015  41.813   7.521
 3611POPC   NC347051   7.670  28.147   5.501
 3611POPC   PO447052   7.434  28.719   5.368
 3611POPC   GL147053   7.274  28.598   5.777
 3611POPC   GL247054   7.322  28.249   5.846
 3611POPC   C1A47055   7.419  28.637   6.177
 3611POPC   D2A47056   7.518  28.462   6.531
 3611POPC   C3A47057   7.428  28.536   6.929
 3611POPC   C4A47058   7.559  28.618   7.320
 3611POPC   C1B47059   7.375  28.074   6.225
 3611POPC   C2B47060   7.347  27.820   6.536
 3611POPC   C3B47061   7.411  28.028   6.940
 3611POPC   C4B47062   7.533  28.107   7.394
 3612POPC   NC347063   8.814  32.032   5.505
 3612POPC   PO447064   8.860  32.605   5.218
 3612POPC   GL147065   9.085  32.434   5.654
 3612POPC   GL247066   8.813  32.338   5.908
 3612POPC   C1A47067   9.288  32.364   6.109
 3612POPC   D2A47068   9.164  32.367   6.568
 3612POPC   C3A47069   9.296  32.150   6.970
 3612POPC   C4A47070   9.064  32.354   7.328
 3612POPC   C1B47071   8.885  32.038   6.261
 3612POPC   C2B47072   8.909  31.897   6.721
 3612POPC   C3B47073   8.769  31.984   7.178
 3612POPC   C4B47074   8.703  32.166   7.665
 3613POPC   NC347075  17.356  25.292   5.210
 3613POPC   PO447076  17.706  25.782   5.497
 3613POPC   GL147077  17.535  25.464   5.806
 3613POPC   GL247078  17.242  25.239   5.731
 3613POPC   C1A47079  17.673  25.243   6.190
 3613POPC   D2A47080  17.918  25.263   6.571
 3613POPC   C3A47081  17.756  25.367   6.937
 3613POPC   C4A47082  17.628  25.095   7.194
 3613POPC   C1B47083  17.171  25.246   6.184
 3613POPC   C2B47084  17.365  25.136   6.620
 3613POPC   C3B47085  17.195  25.250   7.009
 3613POPC   C4B47086  17.151  24.940   7.309
 3614POPC   NC347087  43.721  27.421   5.389
 3614POPC   PO447088  43.897  26.759   5.357
 3614POPC   GL147089  43.890  26.971   5.735
 3614POPC   GL247090  44.090  26.683   5.862
 3614POPC   C1A47091  43.688  26.893   6.144
 3614POPC   D2A47092  43.835  26.722   6.533
 3614POPC   C3A47093  43.763  26.934   6.903
 3614POPC   C4A47094  43.682  26.804   7.288
 3614POPC   C1B47095  44.220  26.512   6.233
 3614POPC   C2B47096  44.334  26.641   6.643
 3614POPC   C3B47097  44.134  26.596   7.017
 3614POPC   C4B47098  44.018  26.412   7.402
 3615POPC   NC347099  16.370  19.337   5.563
 3615POPC   PO447100  16.880  18.965   5.366
 3615POPC   GL147101  16.818  18.863   5.780
 3615POPC   GL247102  16.807  19.204   5.923
 3615POPC   C1A47103  16.705  18.795   6.213
 3615POPC   D2A47104  16.700  19.025   6.598
 3615POPC   C3A47105  16.660  18.798   6.987
 3615POPC   C4A47106  16.899  18.750   7.381
 3615POPC   C1B47107  16.389  19.188   6.179
 3615POPC   C2B47108  16.276  19.336   6.571
 3615POPC   C3B47109  16.540  19.371   6.951
 3615POPC   C4B47110  16.894  19.257   7.214
 3616POPC   NC347111  36.399  30.201   5.578
 3616POPC   PO447112  36.164  29.682   5.217
 3616POPC   GL147113  35.901  29.743   5.686
 3616POPC   GL247114  36.041  30.025   5.874
 3616POPC   C1A47115  35.786  29.779   6.213
 3616POPC   D2A47116  35.894  29.659   6.671
 3616POPC   C3A47117  35.865  29.931   7.046
 3616POPC   C4A47118  35.994  29.946   7.482
 3616POPC   C1B47119  36.289  29.978   6.242
 3616POPC   C2B47120  36.235  30.020   6.671
 3616POPC   C3B47121  36.371  29.825   7.051
 3616POPC   C4B47122  36.518  30.038   7.449
 3617POPC   NC347123   0.722  41.037   5.374
 3617POPC   PO447124   0.358  40.546   5.542
 3617POPC   GL147125   0.506  40.814   5.863
 3617POPC   GL247126   0.342  41.119   5.738
 3617POPC   C1A47127   0.520  40.705   6.317
 3617POPC   D2A47128   0.439  40.482   6.713
 3617POPC   C3A47129   0.724  40.460   7.063
 3617POPC   C4A47130   0.403  40.646   7.261
 3617POPC   C1B47131   0.384  41.211   6.198
 3617POPC   C2B47132   0.461  41.200   6.650
 3617POPC   C3B47133   0.727  40.960   6.935
 3617POPC   C4B47134   0.736  41.017   7.383
 3618POPC   NC347135  38.806  17.755   5.709
 3618POPC   PO447136  39.407  17.603   5.489
 3618POPC   GL147137  39.248  17.545   5.911
 3618POPC   GL247138  38.942  17.342   5.990
 3618POPC   C1A47139  39.345  17.451   6.343
 3618POPC   D2A47140  39.526  17.725   6.663
 3618POPC   C3A47141  39.464  17.516   7.060
 3618POPC   C4A47142  39.037  17.330   7.144
 3618POPC   C1B47143  38.878  17.681   6.304
 3618POPC   C2B47144  38.855  17.915   6.613
 3618POPC   C3B47145  39.068  17.810   6.923
 3618POPC   C4B47146  38.929  17.841   7.302
 3619POPC   NC347147  37.260  15.271   5.553
 3619POPC   PO447148  36.685  15.087   5.227
 3619POPC   GL147149  36.708  15.140   5.682
 3619POPC   GL247150  36.429  14.895   5.656
 3619POPC   C1A47151  36.928  15.170   6.127
 3619POPC   D2A47152  37.118  15.055   6.551
 3619POPC   C3A47153  37.072  15.288   6.963
 3619POPC   C4A47154  37.020  15.356   7.411
 3619POPC   C1B47155  36.509  14.781   6.055
 3619POPC   C2B47156  36.579  14.950   6.442
 3619POPC   C3B47157  36.707  14.953   6.845
 3619POPC   C4B47158  36.560  14.907   7.223
 3620POPC   NC347159  18.605  14.215   5.480
 3620POPC   PO447160  17.954  13.954   5.458
 3620POPC   GL147161  18.194  14.175   5.822
 3620POPC   GL247162  18.460  14.165   5.992
 3620POPC   C1A47163  18.062  14.401   6.211
 3620POPC   D2A47164  18.175  14.315   6.627
 3620POPC   C3A47165  18.125  14.620   6.940
 3620POPC   C4A47166  18.439  14.755   7.192
 3620POPC   C1B47167  18.537  14.558   6.263
 3620POPC   C2B47168  18.596  14.617   6.693
 3620POPC   C3B47169  18.580  14.276   6.972
 3620POPC   C4B47170  18.310  14.263   7.306
 3621POPC   NC347171  29.761  40.215   5.539
 3621POPC   PO447172  30.219  39.749   5.690
 3621POPC   GL147173  29.981  39.855   6.023
 3621POPC   GL247174  29.858  40.142   6.026
 3621POPC   C1A47175  29.903  39.847   6.446
 3621POPC   D2A47176  29.759  40.106   6.725
 3621POPC   C3A47177  29.880  39.947   7.098
 3621POPC   C4A47178  29.738  40.185   7.442
 3621POPC   C1B47179  30.129  40.306   6.344
 3621POPC   C2B47180  30.383  40.275   6.681
 3621POPC   C3B47181  30.125  40.380   7.025
 3621POPC   C4B47182  30.103  40.560   7.407
 3622POPC   NC347183   9.521  41.892   5.603
 3622POPC   PO447184   9.869  41.339   5.305
 3622POPC   GL147185   9.777  41.482   5.745
 3622POPC   GL247186   9.464  41.353   5.861
 3622POPC   C1A47187   9.738  41.636   6.200
 3622POPC   D2A47188   9.905  41.868   6.555
 3622POPC   C3A47189   9.697  41.866   6.960
 3622POPC   C4A47190   9.953  41.872   7.325
 3622POPC   C1B47191   9.396  41.274   6.326
 3622POPC   C2B47192   9.637  41.426   6.696
 3622POPC   C3B47193   9.699  41.398   7.150
 3622POPC   C4B47194   9.645  41.097   7.443
 3623POPC   NC347195   9.246  11.119   5.275
 3623POPC   PO447196   8.700  11.486   5.233
 3623POPC   GL147197   9.047  11.396   5.639
 3623POPC   GL247198   9.095  11.641   5.871
 3623POPC   C1A47199   9.282  11.189   6.010
 3623POPC   D2A47200   9.247  11.066   6.469
 3623POPC   C3A47201   9.150  11.257   6.888
 3623POPC   C4A47202   8.875  11.072   7.181
 3623POPC   C1B47203   8.964  11.478   6.291
 3623POPC   C2B47204   8.891  11.673   6.689
 3623POPC   C3B47205   8.799  11.582   7.132
 3623POPC   C4B47206   8.687  11.621   7.582
 3624POPC   NC347207  23.828   3.423   5.413
 3624POPC   PO447208  24.108   3.929   5.654
 3624POPC   GL147209  23.656   3.822   5.776
 3624POPC   GL247210  23.549   3.461   5.849
 3624POPC   C1A47211  23.537   3.826   6.221
 3624POPC   D2A47212  23.907   3.851   6.520
 3624POPC   C3A47213  23.993   3.782   6.956
 3624POPC   C4A47214  23.889   3.802   7.410
 3624POPC   C1B47215  23.786   3.365   6.235
 3624POPC   C2B47216  23.614   3.345   6.655
 3624POPC   C3B47217  23.597   3.500   7.085
 3624POPC   C4B47218  23.933   3.301   7.280
 3625POPC   NC347219  42.457  24.566   5.481
 3625POPC   PO447220  41.855  24.291   5.324
 3625POPC   GL147221  42.036  24.422   5.707
 3625POPC   GL247222  42.071  24.770   5.762
 3625POPC   C1A47223  42.172  24.368   6.132
 3625POPC   D2A47224  41.963  24.387   6.535
 3625POPC   C3A47225  42.200  24.512   6.879
 3625POPC   C4A47226  42.483  24.323   7.141
 3625POPC   C1B47227  42.313  24.868   6.168
 3625POPC   C2B47228  42.549  24.823   6.580
 3625POPC   C3B47229  42.601  24.815   7.039
 3625POPC   C4B47230  42.238  24.722   7.359
 3626POPC   NC347231  13.791  16.280   5.426
 3626POPC   PO447232  13.295  15.829   5.406
 3626POPC   GL147233  13.436  16.129   5.778
 3626POPC   GL247234  13.760  15.971   5.828
 3626POPC   C1A47235  13.723  16.369   6.127
 3626POPC   D2A47236  14.002  16.220   6.471
 3626POPC   C3A47237  13.844  16.194   6.911
 3626POPC   C4A47238  13.542  16.173   7.284
 3626POPC   C1B47239  13.660  15.884   6.251
 3626POPC   C2B47240  13.840  15.740   6.642
 3626POPC   C3B47241  13.708  15.730   7.039
 3626POPC   C4B47242  13.933  15.558   7.345
 3627POPC   NC347243  25.388   4.152   5.656
 3627POPC   PO447244  24.817   4.366   5.262
 3627POPC   GL147245  24.949   4.412   5.758
 3627POPC   GL247246  24.955   4.100   6.001
 3627POPC   C1A47247  25.080   4.504   6.252
 3627POPC   D2A47248  25.421   4.380   6.605
 3627POPC   C3A47249  25.368   4.239   7.075
 3627POPC   C4A47250  25.078   4.472   7.380
 3627POPC   C1B47251  24.851   4.035   6.425
 3627POPC   C2B47252  24.904   4.121   6.869
 3627POPC   C3B47253  24.928   3.991   7.295
 3627POPC   C4B47254  24.801   4.131   7.682
 3628POPC   NC347255  25.829  23.651   5.209
 3628POPC   PO447256  26.019  23.005   5.447
 3628POPC   GL147257  25.911  23.119   5.845
 3628POPC   GL247258  25.681  22.884   5.910
 3628POPC   C1A47259  25.943  23.062   6.322
 3628POPC   D2A47260  25.884  23.170   6.778
 3628POPC   C3A47261  26.180  23.065   7.082
 3628POPC   C4A47262  26.383  22.667   7.060
 3628POPC   C1B47263  25.830  22.553   6.211
 3628POPC   C2B47264  25.960  22.644   6.647
 3628POPC   C3B47265  25.781  22.723   7.057
 3628POPC   C4B47266  25.967  22.800   7.479
 3629POPC   NC347267  22.491  33.465   5.416
 3629POPC   PO447268  22.077  34.009   5.418
 3629POPC   GL147269  22.274  33.823   5.748
 3629POPC   GL247270  22.440  34.074   5.911
 3629POPC   C1A47271  22.047  33.751   6.134
 3629POPC   D2A47272  22.047  33.914   6.542
 3629POPC   C3A47273  22.216  33.701   6.881
 3629POPC   C4A47274  22.048  33.539   7.217
 3629POPC   C1B47275  22.555  33.719   6.178
 3629POPC   C2B47276  22.619  33.479   6.548
 3629POPC   C3B47277  22.547  33.304   6.937
 3629POPC   C4B47278  22.547  33.520   7.310
 3630POPC   NC347279  31.811  28.694   5.161
 3630POPC   PO447280  31.462  28.179   5.476
 3630POPC   GL147281  31.432  28.308   5.857
 3630POPC   GL247282  31.647  28.564   5.816
 3630POPC   C1A47283  31.267  28.488   6.237
 3630POPC   D2A47284  31.460  28.582   6.605
 3630POPC   C3A47285  31.244  28.522   6.949
 3630POPC   C4A47286  31.363  28.610   7.345
 3630POPC   C1B47287  31.785  28.387   6.230
 3630POPC   C2B47288  31.786  28.194   6.645
 3630POPC   C3B47289  31.752  28.385   7.051
 3630POPC   C4B47290  31.695  28.256   7.479
 3631POPC   NC347291  12.092  19.175   5.076
 3631POPC   PO447292  11.936  18.742   5.611
 3631POPC   GL147293  12.172  18.930   5.905
 3631POPC   GL247294  11.860  19.076   6.016
 3631POPC   C1A47295  12.370  18.757   6.273
 3631POPC   D2A47296  12.269  18.727   6.726
 3631POPC   C3A47297  11.863  18.849   6.920
 3631POPC   C4A47298  11.879  18.957   7.342
 3631POPC   C1B47299  11.938  18.990   6.402
 3631POPC   C2B47300  11.868  19.305   6.677
 3631POPC   C3B47301  12.006  19.376   7.078
 3631POPC   C4B47302  11.766  19.455   7.435
 3632POPC   NC347303  38.384  38.997   5.548
 3632POPC   PO447304  38.367  39.694   5.365
 3632POPC   GL147305  38.260  39.441   5.772
 3632POPC   GL247306  38.581  39.313   5.940
 3632POPC   C1A47307  38.171  39.244   6.199
 3632POPC   D2A47308  38.522  39.398   6.482
 3632POPC   C3A47309  38.490  39.381   6.913
 3632POPC   C4A47310  38.519  39.334   7.357
 3632POPC   C1B47311  38.570  38.939   6.254
 3632POPC   C2B47312  38.676  38.925   6.703
 3632POPC   C3B47313  38.457  38.880   7.081
 3632POPC   C4B47314  38.461  38.799   7.532
 3633POPC   NC347315  43.346  21.155   5.548
 3633POPC   PO447316  42.809  21.537   5.467
 3633POPC   GL147317  43.043  21.464   5.839
 3633POPC   GL247318  43.326  21.626   5.723
 3633POPC   C1A47319  43.236  21.184   6.186
 3633POPC   D2A47320  43.076  21.066   6.597
 3633POPC   C3A47321  43.146  21.229   7.013
 3633POPC   C4A47322  43.148  21.329   7.489
 3633POPC   C1B47323  43.410  21.646   6.178
 3633POPC   C2B47324  43.508  21.426   6.595
 3633POPC   C3B47325  43.497  21.584   7.034
 3633POPC   C4B47326  43.066  21.731   7.184
 3634POPC   NC347327   5.560  13.951   5.600
 3634POPC   PO447328   5.863  14.580   5.359
 3634POPC   GL147329   5.855  14.413   5.753
 3634POPC   GL247330   5.524  14.424   5.826
 3634POPC   C1A47331   6.063  14.408   6.159
 3634POPC   D2A47332   6.249  14.557   6.550
 3634POPC   C3A47333   6.074  14.381   6.905
 3634POPC   C4A47334   5.787  14.241   7.179
 3634POPC   C1B47335   5.525  14.560   6.272
 3634POPC   C2B47336   5.532  14.447   6.744
 3634POPC   C3B47337   5.442  14.599   7.186
 3634POPC   C4B47338   5.694  14.813   7.489
 3635POPC   NC347339   4.663  16.142   5.542
 3635POPC   PO447340   4.418  15.541   5.305
 3635POPC   GL147341   4.269  15.659   5.747
 3635POPC   GL247342   4.028  15.975   5.751
 3635POPC   C1A47343   4.131  15.761   6.202
 3635POPC   D2A47344   4.418  15.840   6.545
 3635POPC   C3A47345   4.314  15.814   6.973
 3635POPC   C4A47346   4.644  15.735   7.259
 3635POPC   C1B47347   4.091  16.258   6.146
 3635POPC   C2B47348   4.280  16.344   6.572
 3635POPC   C3B47349   4.595  16.240   6.904
 3635POPC   C4B47350   4.440  16.184   7.315
 3636POPC   NC347351  18.072  12.504   5.535
 3636POPC   PO447352  18.530  12.091   5.308
 3636POPC   GL147353  18.347  12.075   5.727
 3636POPC   GL247354  18.402  12.392   5.950
 3636POPC   C1A47355  18.306  11.913   6.137
 3636POPC   D2A47356  18.442  12.143   6.496
 3636POPC   C3A47357  18.265  12.118   6.873
 3636POPC   C4A47358  18.313  11.823   7.213
 3636POPC   C1B47359  18.155  12.550   6.310
 3636POPC   C2B47360  17.797  12.580   6.575
 3636POPC   C3B47361  17.918  12.606   7.004
 3636POPC   C4B47362  18.152  12.377   7.282
 3637POPC   NC347363  34.142   2.612   5.533
 3637POPC   PO447364  33.589   3.037   5.472
 3637POPC   GL147365  33.593   2.802   5.881
 3637POPC   GL247366  33.871   2.607   5.958
 3637POPC   C1A47367  33.731   2.843   6.365
 3637POPC   D2A47368  33.825   2.541   6.724
 3637POPC   C3A47369  33.540   2.608   7.052
 3637POPC   C4A47370  33.636   3.003   7.183
 3637POPC   C1B47371  34.115   2.513   6.312
 3637POPC   C2B47372  34.308   2.813   6.594
 3637POPC   C3B47373  34.130   3.003   6.950
 3637POPC   C4B47374  34.081   2.753   7.300
 3638POPC   NC347375   8.813  33.021   5.045
 3638POPC   PO447376   9.043  32.931   5.647
 3638POPC   GL147377   8.952  33.119   5.971
 3638POPC   GL247378   8.947  32.781   6.124
 3638POPC   C1A47379   9.099  33.215   6.352
 3638POPC   D2A47380   9.082  32.902   6.617
 3638POPC   C3A47381   9.175  33.137   6.944
 3638POPC   C4A47382   8.997  33.089   7.306
 3638POPC   C1B47383   8.593  32.591   6.294
 3638POPC   C2B47384   8.433  32.711   6.695
 3638POPC   C3B47385   8.704  32.707   7.081
 3638POPC   C4B47386   8.651  32.659   7.523
 3639POPC   NC347387  28.116  38.709   5.528
 3639POPC   PO447388  28.650  38.285   5.677
 3639POPC   GL147389  28.344  38.456   5.911
 3639POPC   GL247390  28.007  38.282   5.769
 3639POPC   C1A47391  28.486  38.632   6.302
 3639POPC   D2A47392  28.736  38.625   6.684
 3639POPC   C3A47393  28.489  38.491   7.036
 3639POPC   C4A47394  28.378  38.715   7.391
 3639POPC   C1B47395  27.972  38.281   6.206
 3639POPC   C2B47396  28.155  38.385   6.600
 3639POPC   C3B47397  28.118  38.139   6.944
 3639POPC   C4B47398  28.150  38.236   7.365
 3640POPC   NC347399   7.941   2.633   5.536
 3640POPC   PO447400   7.218   2.806   5.508
 3640POPC   GL147401   7.337   2.675   5.852
 3640POPC   GL247402   7.537   2.440   5.765
 3640POPC   C1A47403   7.462   2.926   6.173
 3640POPC   D2A47404   7.665   2.877   6.540
 3640POPC   C3A47405   7.653   3.138   6.905
 3640POPC   C4A47406   7.574   2.978   7.313
 3640POPC   C1B47407   7.715   2.454   6.163
 3640POPC   C2B47408   7.706   2.352   6.577
 3640POPC   C3B47409   7.608   2.579   6.943
 3640POPC   C4B47410   7.610   2.466   7.329
 3641POPC   NC347411  23.766  22.450   5.672
 3641POPC   PO447412  23.699  23.114   5.407
 3641POPC   GL147413  23.694  23.080   5.842
 3641POPC   GL247414  23.375  23.242   5.941
 3641POPC   C1A47415  23.775  23.201   6.282
 3641POPC   D2A47416  23.379  23.334   6.562
 3641POPC   C3A47417  23.436  23.242   7.007
 3641POPC   C4A47418  23.819  23.084   7.144
 3641POPC   C1B47419  23.367  22.912   6.256
 3641POPC   C2B47420  23.579  22.874   6.685
 3641POPC   C3B47421  23.442  22.711   7.093
 3641POPC   C4B47422  23.184  22.572   7.482
 3642POPC   NC347423   0.608  30.597   5.517
 3642POPC   PO447424   0.632  29.921   5.671
 3642POPC   GL147425   0.381  29.779   5.997
 3642POPC   GL247426   0.158  29.510   5.835
 3642POPC   C1A47427   0.242  30.034   6.357
 3642POPC   D2A47428   0.528  30.153   6.688
 3642POPC   C3A47429   0.385  30.245   7.056
 3642POPC   C4A47430   0.531  29.978   7.317
 3642POPC   C1B47431  44.912  29.697   6.164
 3642POPC   C2B47432   0.007  29.620   6.587
 3642POPC   C3B47433   0.167  29.721   6.978
 3642POPC   C4B47434   0.385  29.484   7.286
 3643POPC   NC347435  28.057  28.650   5.631
 3643POPC   PO447436  28.272  28.042   5.422
 3643POPC   GL147437  28.383  28.296   5.856
 3643POPC   GL247438  28.494  28.584   5.956
 3643POPC   C1A47439  28.498  28.263   6.323
 3643POPC   D2A47440  28.306  28.065   6.652
 3643POPC   C3A47441  28.319  28.324   6.970
 3643POPC   C4A47442  28.185  28.368   7.379
 3643POPC   C1B47443  28.136  28.640   6.241
 3643POPC   C2B47444  28.018  28.602   6.609
 3643POPC   C3B47445  27.888  28.589   6.984
 3643POPC   C4B47446  27.995  28.851   7.282
 3644POPC   NC347447   9.676  26.444   5.482
 3644POPC   PO447448  10.130  25.944   5.384
 3644POPC   GL147449   9.951  26.028   5.781
 3644POPC   GL247450   9.596  26.019   5.770
 3644POPC   C1A47451   9.863  25.820   6.186
 3644POPC   D2A47452  10.002  26.012   6.570
 3644POPC   C3A47453   9.798  26.027   6.931
 3644POPC   C4A47454   9.688  25.814   7.299
 3644POPC   C1B47455   9.457  26.119   6.217
 3644POPC   C2B47456   9.382  25.882   6.624
 3644POPC   C3B47457   9.285  26.013   7.069
 3644POPC   C4B47458   9.314  26.096   7.551
 3645POPC   NC347459  30.819  24.608   5.554
 3645POPC   PO447460  30.322  24.090   5.438
 3645POPC   GL147461  30.473  24.339   5.838
 3645POPC   GL247462  30.860  24.375   5.988
 3645POPC   C1A47463  30.493  24.601   6.237
 3645POPC   D2A47464  30.616  24.671   6.685
 3645POPC   C3A47465  30.494  24.433   7.073
 3645POPC   C4A47466  30.506  24.689   7.432
 3645POPC   C1B47467  30.956  24.422   6.374
 3645POPC   C2B47468  30.816  24.214   6.721
 3645POPC   C3B47469  30.997  24.363   7.095
 3645POPC   C4B47470  30.910  24.399   7.551
 3646POPC   NC347471  38.333  18.547   5.322
 3646POPC   PO447472  38.327  19.190   5.456
 3646POPC   GL147473  38.474  18.908   5.759
 3646POPC   GL247474  38.757  19.147   5.816
 3646POPC   C1A47475  38.571  18.759   6.174
 3646POPC   D2A47476  38.509  18.901   6.592
 3646POPC   C3A47477  38.676  18.765   6.990
 3646POPC   C4A47478  38.448  18.893   7.332
 3646POPC   C1B47479  38.691  19.255   6.234
 3646POPC   C2B47480  38.464  19.422   6.574
 3646POPC   C3B47481  38.553  19.271   6.963
 3646POPC   C4B47482  38.476  19.424   7.359
 3647POPC   NC347483   1.591   1.140   5.463
 3647POPC   PO447484   1.321   0.630   5.246
 3647POPC   GL147485   1.239   0.825   5.706
 3647POPC   GL247486   1.106   1.188   5.743
 3647POPC   C1A47487   1.157   0.899   6.177
 3647POPC   D2A47488   0.997   1.017   6.616
 3647POPC   C3A47489   1.361   1.105   6.876
 3647POPC   C4A47490   1.467   1.282   7.264
 3647POPC   C1B47491   1.048   1.530   6.076
 3647POPC   C2B47492   0.899   1.545   6.524
 3647POPC   C3B47493   1.022   1.465   6.949
 3647POPC   C4B47494   0.975   1.170   7.253
 3648POPC   NC347495  34.344  21.227   5.490
 3648POPC   PO447496  34.925  21.430   5.615
 3648POPC   GL147497  34.618  21.324   5.892
 3648POPC   GL247498  34.396  21.635   5.820
 3648POPC   C1A47499  34.511  21.095   6.263
 3648POPC   D2A47500  34.773  21.063   6.623
 3648POPC   C3A47501  34.689  21.314   6.989
 3648POPC   C4A47502  34.710  21.203   7.420
 3648POPC   C1B47503  34.424  21.590   6.254
 3648POPC   C2B47504  34.240  21.390   6.602
 3648POPC   C3B47505  34.227  21.556   6.995
 3648POPC   C4B47506  34.405  21.629   7.364
 3649POPC   NC347507  15.481  43.348   5.404
 3649POPC   PO447508  14.806  42.977   5.552
 3649POPC   GL147509  15.061  43.271   5.833
 3649POPC   GL247510  15.228  42.966   5.948
 3649POPC   C1A47511  15.230  43.314   6.308
 3649POPC   D2A47512  15.126  43.254   6.741
 3649POPC   C3A47513  15.326  43.071   7.048
 3649POPC   C4A47514  15.062  43.200   7.415
 3649POPC   C1B47515  14.815  43.030   6.229
 3649POPC   C2B47516  14.679  42.911   6.651
 3649POPC   C3B47517  14.874  42.871   7.056
 3649POPC   C4B47518  14.866  42.757   7.512
 3650POPC   NC347519   1.640   5.412   5.648
 3650POPC   PO447520   1.918   4.893   5.274
 3650POPC   GL147521   1.944   4.975   5.707
 3650POPC   GL247522   1.594   4.886   5.766
 3650POPC   C1A47523   2.099   5.091   6.134
 3650POPC   D2A47524   2.323   5.124   6.526
 3650POPC   C3A47525   2.137   5.103   6.937
 3650POPC   C4A47526   2.308   5.109   7.324
 3650POPC   C1B47527   1.736   4.712   6.166
 3650POPC   C2B47528   1.853   4.868   6.574
 3650POPC   C3B47529   1.688   4.859   6.989
 3650POPC   C4B47530   1.529   5.262   7.072
 3651POPC   NC347531  23.492   4.959   5.526
 3651POPC   PO447532  23.785   5.569   5.761
 3651POPC   GL147533  23.732   5.169   5.927
 3651POPC   GL247534  23.897   4.824   5.811
 3651POPC   C1A47535  23.784   5.186   6.364
 3651POPC   D2A47536  23.647   5.281   6.724
 3651POPC   C3A47537  23.893   5.235   7.048
 3651POPC   C4A47538  23.554   4.981   7.231
 3651POPC   C1B47539  23.622   4.754   6.192
 3651POPC   C2B47540  23.726   4.758   6.665
 3651POPC   C3B47541  23.973   4.730   7.081
 3651POPC   C4B47542  24.083   4.645   7.538
 3652POPC   NC347543   0.086  14.098   5.712
 3652POPC   PO447544  44.875  13.731   5.147
 3652POPC   GL147545  44.828  13.694   5.634
 3652POPC   GL247546  44.587  13.972   5.783
 3652POPC   C1A47547  44.718  13.557   6.063
 3652POPC   D2A47548  44.580  13.527   6.496
 3652POPC   C3A47549  44.403  13.754   6.846
 3652POPC   C4A47550  44.184  13.576   7.229
 3652POPC   C1B47551  44.684  14.057   6.242
 3652POPC   C2B47552  44.852  13.941   6.654
 3652POPC   C3B47553  44.863  13.797   7.114
 3652POPC   C4B47554  44.831  13.881   7.586
 3653POPC   NC347555   9.374  23.502   5.634
 3653POPC   PO447556  10.003  23.318   5.481
 3653POPC   GL147557   9.816  23.551   5.847
 3653POPC   GL247558   9.670  23.908   5.814
 3653POPC   C1A47559   9.835  23.451   6.274
 3653POPC   D2A47560   9.864  23.695   6.643
 3653POPC   C3A47561  10.007  23.515   7.005
 3653POPC   C4A47562   9.850  23.735   7.297
 3653POPC   C1B47563   9.447  23.785   6.237
 3653POPC   C2B47564   9.425  23.424   6.574
 3653POPC   C3B47565   9.476  23.533   7.001
 3653POPC   C4B47566   9.408  23.962   7.168
 3654POPC   NC347567  23.226  23.063   5.473
 3654POPC   PO447568  22.689  22.757   5.183
 3654POPC   GL147569  22.788  22.780   5.684
 3654POPC   GL247570  22.882  23.091   5.838
 3654POPC   C1A47571  22.902  22.682   6.170
 3654POPC   D2A47572  23.140  22.583   6.570
 3654POPC   C3A47573  22.952  22.736   6.971
 3654POPC   C4A47574  23.047  23.039   7.295
 3654POPC   C1B47575  22.769  23.265   6.205
 3654POPC   C2B47576  22.868  23.073   6.577
 3654POPC   C3B47577  22.718  23.232   6.946
 3654POPC   C4B47578  22.707  23.424   7.341
 3655POPC   NC347579  30.321   5.024   5.396
 3655POPC   PO447580  29.610   5.007   5.519
 3655POPC   GL147581  29.738   5.047   5.928
 3655POPC   GL247582  30.071   4.948   5.846
 3655POPC   C1A47583  29.728   5.223   6.347
 3655POPC   D2A47584  29.944   5.279   6.743
 3655POPC   C3A47585  29.612   5.242   7.046
 3655POPC   C4A47586  29.523   5.164   7.506
 3655POPC   C1B47587  30.203   5.088   6.242
 3655POPC   C2B47588  30.238   4.845   6.642
 3655POPC   C3B47589  30.146   4.761   7.056
 3655POPC   C4B47590  29.987   5.041   7.345
 3656POPC   NC347591  34.665  41.963   5.486
 3656POPC   PO447592  34.477  42.622   5.644
 3656POPC   GL147593  34.559  42.261   5.893
 3656POPC   GL247594  34.342  41.977   5.885
 3656POPC   C1A47595  34.638  42.355   6.306
 3656POPC   D2A47596  34.432  42.610   6.618
 3656POPC   C3A47597  34.585  42.448   7.004
 3656POPC   C4A47598  34.405  42.456   7.364
 3656POPC   C1B47599  34.425  41.907   6.283
 3656POPC   C2B47600  34.383  42.097   6.692
 3656POPC   C3B47601  34.320  41.998   7.140
 3656POPC   C4B47602  34.525  42.003   7.563
 3657POPC   NC347603   6.802  33.333   5.074
 3657POPC   PO447604   6.830  33.927   5.427
 3657POPC   GL147605   6.802  33.966   5.869
 3657POPC   GL247606   6.938  33.678   6.071
 3657POPC   C1A47607   6.462  33.849   6.150
 3657POPC   D2A47608   6.320  33.927   6.561
 3657POPC   C3A47609   6.411  33.676   6.944
 3657POPC   C4A47610   6.346  33.983   7.215
 3657POPC   C1B47611   6.821  33.789   6.510
 3657POPC   C2B47612   6.756  34.053   6.858
 3657POPC   C3B47613   6.861  33.838   7.198
 3657POPC   C4B47614   6.713  33.440   7.315
 3658POPC   NC347615  26.053  10.872   5.397
 3658POPC   PO447616  25.943  10.299   5.437
 3658POPC   GL147617  26.238  10.413   5.780
 3658POPC   GL247618  26.417  10.729   5.748
 3658POPC   C1A47619  26.157  10.469   6.249
 3658POPC   D2A47620  26.048  10.576   6.681
 3658POPC   C3A47621  25.917  10.289   7.033
 3658POPC   C4A47622  25.665  10.540   7.375
 3658POPC   C1B47623  26.387  10.928   6.145
 3658POPC   C2B47624  26.498  10.789   6.543
 3658POPC   C3B47625  26.470  10.642   6.960
 3658POPC   C4B47626  26.113  10.727   7.211
 3659POPC   NC347627  24.718  28.903   5.303
 3659POPC   PO447628  24.703  29.569   5.327
 3659POPC   GL147629  24.631  29.265   5.692
 3659POPC   GL247630  24.272  29.326   5.796
 3659POPC   C1A47631  24.643  29.182   6.168
 3659POPC   D2A47632  24.436  29.243   6.566
 3659POPC   C3A47633  24.585  29.266   6.942
 3659POPC   C4A47634  24.876  29.202   7.236
 3659POPC   C1B47635  24.089  29.198   6.203
 3659POPC   C2B47636  24.014  28.985   6.660
 3659POPC   C3B47637  24.186  28.980   7.079
 3659POPC   C4B47638  24.270  29.338   7.356
 3660POPC   NC347639  24.978  31.636   5.123
 3660POPC   PO447640  25.490  31.238   5.243
 3660POPC   GL147641  25.194  31.294   5.581
 3660POPC   GL247642  25.014  31.611   5.646
 3660POPC   C1A47643  25.204  31.346   6.052
 3660POPC   D2A47644  25.107  31.479   6.488
 3660POPC   C3A47645  25.394  31.463   6.847
 3660POPC   C4A47646  25.310  31.338   7.264
 3660POPC   C1B47647  24.964  31.812   6.065
 3660POPC   C2B47648  24.863  31.909   6.505
 3660POPC   C3B47649  24.991  31.752   6.963
 3660POPC   C4B47650  25.170  31.829   7.406
 3661POPC   NC347651   1.823  14.407   5.317
 3661POPC   PO447652   2.361  14.180   5.200
 3661POPC   GL147653   2.203  14.478   5.661
 3661POPC   GL247654   1.897  14.418   5.842
 3661POPC   C1A47655   2.180  14.763   6.083
 3661POPC   D2A47656   1.962  14.581   6.492
 3661POPC   C3A47657   2.138  14.716   6.888
 3661POPC   C4A47658   1.934  14.776   7.270
 3661POPC   C1B47659   2.197  14.273   6.193
 3661POPC   C2B47660   2.312  14.186   6.597
 3661POPC   C3B47661   2.449  14.176   7.014
 3661POPC   C4B47662   2.300  14.100   7.439
 3662POPC   NC347663  28.246   5.467   5.433
 3662POPC   PO447664  28.302   4.833   5.510
 3662POPC   GL147665  28.319   5.128   5.843
 3662POPC   GL247666  27.982   5.019   5.919
 3662POPC   C1A47667  28.545   5.301   6.234
 3662POPC   D2A47668  28.399   5.307   6.676
 3662POPC   C3A47669  28.570   5.016   6.962
 3662POPC   C4A47670  28.534   5.074   7.390
 3662POPC   C1B47671  28.208   4.917   6.317
 3662POPC   C2B47672  28.190   4.743   6.744
 3662POPC   C3B47673  28.079   4.928   7.135
 3662POPC   C4B47674  28.030   5.387   7.103
 3663POPC   NC347675  36.298  15.350   5.291
 3663POPC   PO447676  35.693  15.034   5.341
 3663POPC   GL147677  36.006  15.170   5.691
 3663POPC   GL247678  36.296  15.421   5.789
 3663POPC   C1A47679  36.134  15.105   6.133
 3663POPC   D2A47680  36.000  15.288   6.496
 3663POPC   C3A47681  36.209  15.104   6.834
 3663POPC   C4A47682  36.049  14.862   7.159
 3663POPC   C1B47683  36.509  15.454   6.215
 3663POPC   C2B47684  36.688  15.411   6.635
 3663POPC   C3B47685  36.558  15.397   7.087
 3663POPC   C4B47686  36.486  15.312   7.565
 3664POPC   NC347687  19.112  13.812   5.184
 3664POPC   PO447688  18.951  14.512   5.335
 3664POPC   GL147689  19.135  14.413   5.724
 3664POPC   GL247690  18.808  14.514   5.843
 3664POPC   C1A47691  19.313  14.186   6.103
 3664POPC   D2A47692  19.300  13.923   6.484
 3664POPC   C3A47693  19.073  14.056   6.863
 3664POPC   C4A47694  19.264  13.972   7.239
 3664POPC   C1B47695  19.049  14.633   6.189
 3664POPC   C2B47696  19.089  14.475   6.578
 3664POPC   C3B47697  19.005  14.580   7.001
 3664POPC   C4B47698  18.812  14.478   7.397
 3665POPC   NC347699  35.450  34.153   5.401
 3665POPC   PO447700  35.172  33.505   5.301
 3665POPC   GL147701  35.363  33.711   5.674
 3665POPC   GL247702  35.095  33.660   5.898
 3665POPC   C1A47703  35.556  33.792   6.102
 3665POPC   D2A47704  35.481  33.973   6.527
 3665POPC   C3A47705  35.547  33.792   6.944
 3665POPC   C4A47706  35.840  33.888   7.286
 3665POPC   C1B47707  35.114  33.677   6.364
 3665POPC   C2B47708  35.116  33.545   6.796
 3665POPC   C3B47709  35.131  33.649   7.233
 3665POPC   C4B47710  34.979  33.609   7.648
 3666POPC   NC347711  33.111  37.534   5.351
 3666POPC   PO447712  32.680  38.070   5.196
 3666POPC   GL147713  32.952  37.853   5.684
 3666POPC   GL247714  32.783  37.531   5.822
 3666POPC   C1A47715  33.108  37.926   6.156
 3666POPC   D2A47716  33.024  37.687   6.571
 3666POPC   C3A47717  33.195  37.730   7.007
 3666POPC   C4A47718  33.174  38.122   7.276
 3666POPC   C1B47719  32.699  37.371   6.270
 3666POPC   C2B47720  32.580  37.461   6.737
 3666POPC   C3B47721  32.643  37.462   7.184
 3666POPC   C4B47722  32.830  37.203   7.501
 3667POPC   NC347723  11.329  25.903   5.322
 3667POPC   PO447724  10.977  26.465   5.488
 3667POPC   GL147725  11.201  26.182   5.818
 3667POPC   GL247726  11.182  25.789   5.830
 3667POPC   C1A47727  11.331  26.225   6.282
 3667POPC   D2A47728  11.649  26.349   6.598
 3667POPC   C3A47729  11.547  26.195   6.990
 3667POPC   C4A47730  11.258  26.009   7.254
 3667POPC   C1B47731  11.198  25.747   6.289
 3667POPC   C2B47732  11.206  25.909   6.717
 3667POPC   C3B47733  11.034  25.645   7.014
 3667POPC   C4B47734  11.302  25.446   7.272
 3668POPC   NC347735   0.561  19.549   5.393
 3668POPC   PO447736   1.059  19.972   5.500
 3668POPC   GL147737   0.860  19.696   5.778
 3668POPC   GL247738   0.562  19.936   5.725
 3668POPC   C1A47739   0.513  19.571   6.089
 3668POPC   D2A47740   0.384  19.476   6.535
 3668POPC   C3A47741   0.313  19.814   6.796
 3668POPC   C4A47742   0.420  19.838   7.218
 3668POPC   C1B47743   0.736  20.042   6.118
 3668POPC   C2B47744   0.764  19.827   6.480
 3668POPC   C3B47745   0.809  19.860   6.906
 3668POPC   C4B47746   0.865  20.040   7.336
 3669POPC   NC347747  38.242  36.280   5.325
 3669POPC   PO447748  38.827  36.357   5.448
 3669POPC   GL147749  38.545  36.151   5.741
 3669POPC   GL247750  38.259  36.341   5.821
 3669POPC   C1A47751  38.564  36.077   6.196
 3669POPC   D2A47752  38.781  35.979   6.569
 3669POPC   C3A47753  38.825  36.223   6.933
 3669POPC   C4A47754  38.615  35.970   7.258
 3669POPC   C1B47755  38.175  36.404   6.249
 3669POPC   C2B47756  38.372  36.373   6.653
 3669POPC   C3B47757  38.389  36.432   7.108
 3669POPC   C4B47758  38.314  36.617   7.526
 3670POPC   NC347759  42.869  31.278   5.352
 3670POPC   PO447760  43.282  31.798   5.331
 3670POPC   GL147761  43.208  31.554   5.712
 3670POPC   GL247762  42.876  31.645   5.781
 3670POPC   C1A47763  43.301  31.650   6.165
 3670POPC   D2A47764  43.234  31.450   6.567
 3670POPC   C3A47765  43.186  31.614   6.967
 3670POPC   C4A47766  43.190  31.327   7.315
 3670POPC   C1B47767  42.785  31.527   6.214
 3670POPC   C2B47768  42.717  31.373   6.650
 3670POPC   C3B47769  42.742  31.405   7.104
 3670POPC   C4B47770  42.753  31.346   7.554
 3671POPC   NC347771  31.812   3.327   5.188
 3671POPC   PO447772  31.726   3.889   5.642
 3671POPC   GL147773  31.762   3.584   5.902
 3671POPC   GL247774  31.405   3.515   5.918
 3671POPC   C1A47775  31.742   3.518   6.329
 3671POPC   D2A47776  31.431   3.343   6.565
 3671POPC   C3A47777  31.577   3.245   6.916
 3671POPC   C4A47778  31.494   3.317   7.316
 3671POPC   C1B47779  31.198   3.728   6.253
 3671POPC   C2B47780  31.429   3.847   6.609
 3671POPC   C3B47781  31.364   3.710   6.989
 3671POPC   C4B47782  31.036   3.754   7.235
 3672POPC   NC347783  23.477   7.367   5.318
 3672POPC   PO447784  24.082   7.310   5.409
 3672POPC   GL147785  23.859   7.341   5.822
 3672POPC   GL247786  24.005   7.091   6.005
 3672POPC   C1A47787  23.729   7.521   6.273
 3672POPC   D2A47788  23.962   7.682   6.680
 3672POPC   C3A47789  23.700   7.802   7.041
 3672POPC   C4A47790  23.376   7.830   7.413
 3672POPC   C1B47791  23.676   6.971   6.263
 3672POPC   C2B47792  23.601   7.049   6.687
 3672POPC   C3B47793  23.754   7.302   7.025
 3672POPC   C4B47794  23.623   7.365   7.454
 3673POPC   NC347795  27.226   4.596   5.412
 3673POPC   PO447796  26.639   4.132   5.436
 3673POPC   GL147797  26.712   4.407   5.826
 3673POPC   GL247798  27.078   4.474   5.890
 3673POPC   C1A47799  26.714   4.398   6.316
 3673POPC   D2A47800  26.513   4.516   6.750
 3673POPC   C3A47801  26.588   4.207   7.091
 3673POPC   C4A47802  26.821   4.107   7.480
 3673POPC   C1B47803  27.133   4.067   6.111
 3673POPC   C2B47804  27.225   3.982   6.558
 3673POPC   C3B47805  27.048   4.294   6.871
 3673POPC   C4B47806  27.217   4.359   7.309
 3674POPC   NC347807   3.174  27.543   5.432
 3674POPC   PO447808   2.635  27.886   5.187
 3674POPC   GL147809   2.737  27.807   5.659
 3674POPC   GL247810   3.067  27.954   5.758
 3674POPC   C1A47811   2.599  27.642   6.099
 3674POPC   D2A47812   2.704  27.614   6.556
 3674POPC   C3A47813   2.497  27.353   6.891
 3674POPC   C4A47814   2.595  27.375   7.331
 3674POPC   C1B47815   3.094  27.691   6.150
 3674POPC   C2B47816   3.213  27.488   6.562
 3674POPC   C3B47817   3.037  27.424   6.983
 3674POPC   C4B47818   3.039  27.608   7.400
 3675POPC   NC347819  37.170  12.220   5.536
 3675POPC   PO447820  36.528  12.125   5.393
 3675POPC   GL147821  36.732  12.189   5.803
 3675POPC   GL247822  36.884  11.867   5.821
 3675POPC   C1A47823  36.859  12.260   6.245
 3675POPC   D2A47824  36.608  12.248   6.650
 3675POPC   C3A47825  36.773  12.163   7.067
 3675POPC   C4A47826  36.486  12.062   7.433
 3675POPC   C1B47827  37.069  11.776   6.229
 3675POPC   C2B47828  37.093  11.982   6.628
 3675POPC   C3B47829  37.140  11.799   7.012
 3675POPC   C4B47830  37.104  11.966   7.450
 3676POPC   NC347831  27.544  18.791   5.333
 3676POPC   PO447832  27.541  19.404   5.246
 3676POPC   GL147833  27.600  19.168   5.693
 3676POPC   GL247834  27.315  18.960   5.779
 3676POPC   C1A47835  27.757  18.996   6.149
 3676POPC   D2A47836  27.677  19.089   6.590
 3676POPC   C3A47837  27.959  18.954   6.976
 3676POPC   C4A47838  27.922  19.142   7.384
 3676POPC   C1B47839  27.226  18.998   6.222
 3676POPC   C2B47840  27.194  18.936   6.678
 3676POPC   C3B47841  27.461  18.959   7.042
 3676POPC   C4B47842  27.417  19.021   7.460
 3677POPC   NC347843  10.581  31.664   5.517
 3677POPC   PO447844  10.245  31.126   5.313
 3677POPC   GL147845  10.391  31.267   5.777
 3677POPC   GL247846  10.273  31.608   5.913
 3677POPC   C1A47847  10.713  31.452   6.117
 3677POPC   D2A47848  10.772  31.408   6.530
 3677POPC   C3A47849  10.548  31.644   6.815
 3677POPC   C4A47850  10.703  31.678   7.224
 3677POPC   C1B47851  10.252  31.408   6.307
 3677POPC   C2B47852  10.297  31.170   6.646
 3677POPC   C3B47853  10.093  31.177   7.025
 3677POPC   C4B47854  10.006  31.532   7.262
 3678POPC   NC347855  25.918  11.684   5.415
 3678POPC   PO447856  26.399  11.188   5.487
 3678POPC   GL147857  26.202  11.439   5.772
 3678POPC   GL247858  26.012  11.145   5.860
 3678POPC   C1A47859  26.244  11.457   6.208
 3678POPC   D2A47860  26.187  11.200   6.554
 3678POPC   C3A47861  26.113  11.392   6.913
 3678POPC   C4A47862  26.224  11.217   7.310
 3678POPC   C1B47863  25.878  10.934   6.256
 3678POPC   C2B47864  25.728  11.018   6.702
 3678POPC   C3B47865  25.771  11.094   7.147
 3678POPC   C4B47866  25.749  11.444   7.452
 3679POPC   NC347867  36.357  27.977   5.432
 3679POPC   PO447868  36.067  27.367   5.189
 3679POPC   GL147869  36.023  27.363   5.655
 3679POPC   GL247870  35.867  27.693   5.761
 3679POPC   C1A47871  35.996  27.378   6.131
 3679POPC   D2A47872  36.181  27.593   6.506
 3679POPC   C3A47873  36.050  27.470   6.931
 3679POPC   C4A47874  36.321  27.418   7.289
 3679POPC   C1B47875  35.938  27.895   6.175
 3679POPC   C2B47876  35.754  27.856   6.628
 3679POPC   C3B47877  35.897  27.918   7.109
 3679POPC   C4B47878  36.122  27.806   7.544
 3680POPC   NC347879   1.158  10.153   5.564
 3680POPC   PO447880   1.403   9.766   5.007
 3680POPC   GL147881   1.223   9.659   5.526
 3680POPC   GL247882   0.927   9.665   5.780
 3680POPC   C1A47883   1.338   9.735   6.035
 3680POPC   D2A47884   1.222   9.589   6.468
 3680POPC   C3A47885   1.267   9.769   6.890
 3680POPC   C4A47886   1.485   9.994   7.227
 3680POPC   C1B47887   0.861   9.893   6.207
 3680POPC   C2B47888   0.779   9.904   6.653
 3680POPC   C3B47889   0.777   9.650   7.023
 3680POPC   C4B47890   1.058   9.559   7.357
 3681POPC   NC347891  43.353   0.843   5.285
 3681POPC   PO447892  42.940   1.323   5.278
 3681POPC   GL147893  43.196   1.270   5.687
 3681POPC   GL247894  43.340   0.934   5.807
 3681POPC   C1A47895  43.314   1.335   6.141
 3681POPC   D2A47896  43.206   1.164   6.540
 3681POPC   C3A47897  43.323   1.430   6.867
 3681POPC   C4A47898  43.237   1.432   7.288
 3681POPC   C1B47899  43.433   0.784   6.249
 3681POPC   C2B47900  43.316   0.673   6.697
 3681POPC   C3B47901  43.303   0.940   7.074
 3681POPC   C4B47902  43.658   1.185   7.196
 3682POPC   NC347903  32.039  12.312   5.249
 3682POPC   PO447904  32.512  11.902   5.398
 3682POPC   GL147905  32.215  11.948   5.782
 3682POPC   GL247906  31.963  12.230   5.861
 3682POPC   C1A47907  32.306  12.068   6.235
 3682POPC   D2A47908  32.070  12.174   6.618
 3682POPC   C3A47909  32.315  12.164   6.982
 3682POPC   C4A47910  32.375  12.278   7.406
 3682POPC   C1B47911  31.845  11.878   6.165
 3682POPC   C2B47912  31.762  11.743   6.579
 3682POPC   C3B47913  31.972  11.746   6.984
 3682POPC   C4B47914  31.927  12.068   7.299
 3683POPC   NC347915   0.677  24.282   5.535
 3683POPC   PO447916   0.125  23.994   5.555
 3683POPC   GL147917   0.235  24.325   5.864
 3683POPC   GL247918   0.459  24.648   5.849
 3683POPC   C1A47919   0.409  24.354   6.288
 3683POPC   D2A47920   0.432  24.587   6.699
 3683POPC   C3A47921   0.266  24.353   7.037
 3683POPC   C4A47922   0.288  24.004   7.335
 3683POPC   C1B47923   0.426  24.874   6.264
 3683POPC   C2B47924   0.651  25.038   6.657
 3683POPC   C3B47925   0.686  24.828   7.107
 3683POPC   C4B47926   0.674  24.403   7.327
 3684POPC   NC347927  41.713   4.581   5.157
 3684POPC   PO447928  41.288   4.225   5.467
 3684POPC   GL147929  41.655   4.369   5.733
 3684POPC   GL247930  41.802   4.068   5.894
 3684POPC   C1A47931  41.719   4.441   6.197
 3684POPC   D2A47932  41.786   4.158   6.558
 3684POPC   C3A47933  41.694   4.412   6.943
 3684POPC   C4A47934  41.473   4.642   7.255
 3684POPC   C1B47935  41.443   3.981   6.122
 3684POPC   C2B47936  41.348   3.867   6.522
 3684POPC   C3B47937  41.502   3.940   6.932
 3684POPC   C4B47938  41.405   4.129   7.297
 3685POPC   NC347939  26.769  15.015   5.160
 3685POPC   PO447940  27.070  15.605   5.408
 3685POPC   GL147941  26.865  15.366   5.791
 3685POPC   GL247942  26.709  15.013   5.868
 3685POPC   C1A47943  26.686  15.380   6.232
 3685POPC   D2A47944  26.530  15.186   6.655
 3685POPC   C3A47945  26.666  15.393   7.045
 3685POPC   C4A47946  26.523  15.770   7.213
 3685POPC   C1B47947  26.685  14.863   6.291
 3685POPC   C2B47948  26.852  14.799   6.717
 3685POPC   C3B47949  26.762  14.804   7.163
 3685POPC   C4B47950  26.717  15.086   7.521
 3686POPC   NC347951  44.445  21.687   5.043
 3686POPC   PO447952  44.230  21.240   5.523
 3686POPC   GL147953  44.543  21.292   5.881
 3686POPC   GL247954  44.748  21.588   5.889
 3686POPC   C1A47955  44.727  21.333   6.336
 3686POPC   D2A47956  44.498  21.117   6.647
 3686POPC   C3A47957  44.345  21.167   7.026
 3686POPC   C4A47958  44.717  21.257   7.287
 3686POPC   C1B47959  44.377  21.664   6.226
 3686POPC   C2B47960  44.267  21.623   6.664
 3686POPC   C3B47961  44.481  21.652   7.051
 3686POPC   C4B47962  44.503  21.651   7.504
 3687POPC   NC347963  23.850  42.107   5.609
 3687POPC   PO447964  23.777  41.579   5.262
 3687POPC   GL147965  23.925  41.538   5.745
 3687POPC   GL247966  24.114  41.215   5.864
 3687POPC   C1A47967  23.782  41.711   6.199
 3687POPC   D2A47968  23.494  41.776   6.567
 3687POPC   C3A47969  23.659  41.894   6.962
 3687POPC   C4A47970  23.732  41.651   7.356
 3687POPC   C1B47971  23.791  41.178   6.225
 3687POPC   C2B47972  23.663  41.289   6.668
 3687POPC   C3B47973  23.414  41.452   7.004
 3687POPC   C4B47974  23.214  41.628   7.366
 3688POPC   NC347975   6.357  34.023   5.341
 3688POPC   PO447976   5.630  33.773   5.431
 3688POPC   GL147977   5.822  33.605   5.804
 3688POPC   GL247978   6.158  33.739   5.730
 3688POPC   C1A47979   6.077  33.519   6.176
 3688POPC   D2A47980   6.146  33.451   6.580
 3688POPC   C3A47981   5.913  33.791   6.823
 3688POPC   C4A47982   5.901  33.748   7.227
 3688POPC   C1B47983   5.909  34.036   6.028
 3688POPC   C2B47984   5.776  34.192   6.445
 3688POPC   C3B47985   5.678  34.326   6.887
 3688POPC   C4B47986   5.910  34.267   7.274
 3689POPC   NC347987  11.258   5.064   5.219
 3689POPC   PO447988  11.240   4.345   5.359
 3689POPC   GL147989  11.489   4.304   5.762
 3689POPC   GL247990  11.204   4.382   5.957
 3689POPC   C1A47991  11.592   4.254   6.250
 3689POPC   D2A47992  11.537   4.419   6.726
 3689POPC   C3A47993  11.760   4.210   7.100
 3689POPC   C4A47994  11.801   4.245   7.600
 3689POPC   C1B47995  11.314   4.684   6.291
 3689POPC   C2B47996  11.153   4.835   6.672
 3689POPC   C3B47997  11.156   4.695   7.075
 3689POPC   C4B47998  11.292   4.349   7.277
 3690POPC   NC347999  17.230  36.996   5.168
 3690POPC   PO448000  17.808  36.642   5.469
 3690POPC   GL148001  17.777  36.992   5.767
 3690POPC   GL248002  17.433  37.141   5.817
 3690POPC   C1A48003  17.734  36.960   6.225
 3690POPC   D2A48004  17.932  37.135   6.601
 3690POPC   C3A48005  17.726  37.126   6.973
 3690POPC   C4A48006  17.526  36.843   7.240
 3690POPC   C1B48007  17.237  37.107   6.259
 3690POPC   C2B48008  17.261  37.071   6.749
 3690POPC   C3B48009  17.162  37.200   7.219
 3690POPC   C4B48010  17.203  37.307   7.696
 3691POPC   NC348011  22.830  17.325   5.371
 3691POPC   PO448012  23.108  17.909   5.314
 3691POPC   GL148013  22.952  17.723   5.713
 3691POPC   GL248014  23.240  17.717   5.869
 3691POPC   C1A48015  22.799  17.546   6.139
 3691POPC   D2A48016  22.945  17.427   6.562
 3691POPC   C3A48017  22.779  17.536   6.928
 3691POPC   C4A48018  22.596  17.595   7.288
 3691POPC   C1B48019  23.313  17.564   6.242
 3691POPC   C2B48020  23.416  17.646   6.628
 3691POPC   C3B48021  23.314  17.484   7.000
 3691POPC   C4B48022  23.132  17.641   7.307
 3692POPC   NC348023  18.018  22.706   5.123
 3692POPC   PO448024  18.285  22.103   5.341
 3692POPC   GL148025  18.178  22.120   5.796
 3692POPC   GL248026  18.526  22.124   5.918
 3692POPC   C1A48027  17.953  22.189   6.195
 3692POPC   D2A48028  18.161  22.017   6.540
 3692POPC   C3A48029  18.261  22.277   6.889
 3692POPC   C4A48030  18.202  22.155   7.313
 3692POPC   C1B48031  18.568  21.806   6.251
 3692POPC   C2B48032  18.557  21.705   6.704
 3692POPC   C3B48033  18.623  21.964   7.082
 3692POPC   C4B48034  18.625  22.005   7.568
 3693POPC   NC348035  43.421  37.798   5.462
 3693POPC   PO448036  42.780  37.877   5.288
 3693POPC   GL148037  42.782  37.679   5.756
 3693POPC   GL248038  43.095  37.855   5.865
 3693POPC   C1A48039  42.869  37.565   6.224
 3693POPC   D2A48040  42.882  37.788   6.653
 3693POPC   C3A48041  42.831  37.498   6.984
 3693POPC   C4A48042  42.854  37.192   7.311
 3693POPC   C1B48043  43.192  37.998   6.296
 3693POPC   C2B48044  43.404  37.790   6.654
 3693POPC   C3B48045  43.255  37.777   7.038
 3693POPC   C4B48046  43.266  38.097   7.311
 3694POPC   NC348047   3.188  44.105   5.439
 3694POPC   PO448048   2.576  44.176   5.493
 3694POPC   GL148049   2.828  43.938   5.784
 3694POPC   GL248050   2.695  44.147   6.001
 3694POPC   C1A48051   3.077  43.745   6.129
 3694POPC   D2A48052   2.959  43.494   6.509
 3694POPC   C3A48053   3.014  43.641   6.961
 3694POPC   C4A48054   2.940  43.548   7.422
 3694POPC   C1B48055   2.647  43.896   6.323
 3694POPC   C2B48056   2.605  43.816   6.724
 3694POPC   C3B48057   2.611  44.026   7.098
 3694POPC   C4B48058   2.509  44.321   7.430
 3695POPC   NC348059  20.752  34.104   5.423
 3695POPC   PO448060  20.522  33.479   5.548
 3695POPC   GL148061  20.760  33.642   5.903
 3695POPC   GL248062  20.853  34.002   5.909
 3695POPC   C1A48063  20.589  33.761   6.315
 3695POPC   D2A48064  20.366  33.560   6.672
 3695POPC   C3A48065  20.570  33.633   7.075
 3695POPC   C4A48066  20.897  33.745   7.438
 3695POPC   C1B48067  21.037  34.163   6.289
 3695POPC   C2B48068  20.922  33.993   6.696
 3695POPC   C3B48069  20.781  34.089   7.099
 3695POPC   C4B48070  20.798  34.235   7.556
 3696POPC   NC348071  16.815   3.302   5.398
 3696POPC   PO448072  16.215   3.704   5.293
 3696POPC   GL148073  16.580   3.752   5.675
 3696POPC   GL248074  16.644   3.469   5.856
 3696POPC   C1A48075  16.821   3.841   6.135
 3696POPC   D2A48076  17.118   3.671   6.451
 3696POPC   C3A48077  16.929   3.619   6.867
 3696POPC   C4A48078  16.810   3.495   7.282
 3696POPC   C1B48079  16.869   3.294   6.225
 3696POPC   C2B48080  17.101   3.196   6.646
 3696POPC   C3B48081  17.055   3.098   7.092
 3696POPC   C4B48082  16.672   2.981   7.261
 3697POPC   NC348083  42.929  11.485   5.355
 3697POPC   PO448084  43.063  10.913   5.727
 3697POPC   GL148085  43.126  11.371   5.822
 3697POPC   GL248086  42.802  11.562   5.841
 3697POPC   C1A48087  43.362  11.491   6.197
 3697POPC   D2A48088  43.312  11.148   6.507
 3697POPC   C3A48089  43.304  11.197   6.956
 3697POPC   C4A48090  43.098  11.057   7.341
 3697POPC   C1B48091  42.864  11.401   6.277
 3697POPC   C2B48092  43.016  11.587   6.682
 3697POPC   C3B48093  42.937  11.502   7.135
 3697POPC   C4B48094  42.967  11.492   7.582
 3698POPC   NC348095   4.049  23.068   5.593
 3698POPC   PO448096   4.585  22.591   5.541
 3698POPC   GL148097   4.339  22.753   5.869
 3698POPC   GL248098   4.437  23.124   5.938
 3698POPC   C1A48099   4.108  22.899   6.234
 3698POPC   D2A48100   4.194  23.017   6.635
 3698POPC   C3A48101   4.217  22.791   7.040
 3698POPC   C4A48102   4.010  23.105   7.272
 3698POPC   C1B48103   4.635  22.818   6.278
 3698POPC   C2B48104   4.631  22.759   6.718
 3698POPC   C3B48105   4.586  23.129   6.947
 3698POPC   C4B48106   4.518  23.228   7.354
 3699POPC   NC348107  35.039  11.726   5.693
 3699POPC   PO448108  35.539  12.024   5.287
 3699POPC   GL148109  35.367  12.098   5.755
 3699POPC   GL248110  35.491  11.743   5.922
 3699POPC   C1A48111  35.287  12.095   6.233
 3699POPC   D2A48112  35.122  12.339   6.596
 3699POPC   C3A48113  35.113  12.121   6.985
 3699POPC   C4A48114  35.218  12.232   7.400
 3699POPC   C1B48115  35.693  11.792   6.352
 3699POPC   C2B48116  35.597  12.082   6.691
 3699POPC   C3B48117  35.577  12.003   7.130
 3699POPC   C4B48118  35.512  11.794   7.541
 3700POPC   NC348119  35.328  21.055   5.540
 3700POPC   PO448120  35.468  21.619   5.261
 3700POPC   GL148121  35.407  21.521   5.769
 3700POPC   GL248122  35.531  21.219   5.982
 3700POPC   C1A48123  35.209  21.653   6.194
 3700POPC   D2A48124  34.906  21.567   6.564
 3700POPC   C3A48125  35.094  21.639   7.001
 3700POPC   C4A48126  35.560  21.595   7.092
 3700POPC   C1B48127  35.194  21.154   6.305
 3700POPC   C2B48128  35.250  21.212   6.755
 3700POPC   C3B48129  35.320  21.162   7.188
 3700POPC   C4B48130  35.751  21.178   7.384
 3701POPC   NC348131  40.465   9.622   5.425
 3701POPC   PO448132  41.028   9.851   5.228
 3701POPC   GL148133  40.953   9.693   5.693
 3701POPC   GL248134  40.778   9.374   5.862
 3701POPC   C1A48135  40.939   9.755   6.171
 3701POPC   D2A48136  40.681   9.715   6.550
 3701POPC   C3A48137  40.874   9.774   6.957
 3701POPC   C4A48138  40.893   9.963   7.361
 3701POPC   C1B48139  40.417   9.325   6.161
 3701POPC   C2B48140  40.300   9.367   6.597
 3701POPC   C3B48141  40.491   9.438   6.964
 3701POPC   C4B48142  40.356   9.570   7.339
 3702POPC   NC348143  27.827  36.170   5.224
 3702POPC   PO448144  27.179  36.250   5.222
 3702POPC   GL148145  27.445  36.077   5.618
 3702POPC   GL248146  27.812  36.128   5.742
 3702POPC   C1A48147  27.431  35.986   6.087
 3702POPC   D2A48148  27.396  36.264   6.445
 3702POPC   C3A48149  27.500  36.099   6.867
 3702POPC   C4A48150  27.429  36.165   7.266
 3702POPC   C1B48151  27.886  36.213   6.195
 3702POPC   C2B48152  27.845  36.385   6.634
 3702POPC   C3B48153  27.948  36.369   7.066
 3702POPC   C4B48154  27.888  36.342   7.524
 3703POPC   NC348155   2.162  36.535   5.651
 3703POPC   PO448156   2.661  36.733   5.242
 3703POPC   GL148157   2.836  36.798   5.659
 3703POPC   GL248158   2.829  37.150   5.761
 3703POPC   C1A48159   2.659  36.758   6.081
 3703POPC   D2A48160   2.781  36.875   6.493
 3703POPC   C3A48161   2.790  36.699   6.904
 3703POPC   C4A48162   3.106  36.735   7.227
 3703POPC   C1B48163   2.998  37.390   6.101
 3703POPC   C2B48164   3.018  37.326   6.547
 3703POPC   C3B48165   2.707  37.233   6.869
 3703POPC   C4B48166   2.686  37.052   7.264
 3704POPC   NC348167  44.218  18.015   5.254
 3704POPC   PO448168  44.877  18.286   5.165
 3704POPC   GL148169  44.591  18.275   5.551
 3704POPC   GL248170  44.417  18.589   5.631
 3704POPC   C1A48171  44.512  18.046   5.956
 3704POPC   D2A48172  44.455  18.072   6.411
 3704POPC   C3A48173  44.743  18.121   6.771
 3704POPC   C4A48174  44.709  18.179   7.248
 3704POPC   C1B48175  44.661  18.535   6.031
 3704POPC   C2B48176  44.693  18.555   6.493
 3704POPC   C3B48177  44.549  18.584   6.931
 3704POPC   C4B48178  44.760  18.678   7.318
 3705POPC   NC348179  24.842  18.739   5.465
 3705POPC   PO448180  25.417  18.862   5.158
 3705POPC   GL148181  25.293  19.035   5.623
 3705POPC   GL248182  25.513  19.291   5.763
 3705POPC   C1A48183  25.085  19.237   6.038
 3705POPC   D2A48184  25.037  19.272   6.528
 3705POPC   C3A48185  25.237  18.976   6.844
 3705POPC   C4A48186  25.308  19.037   7.306
 3705POPC   C1B48187  25.630  19.016   6.135
 3705POPC   C2B48188  25.758  19.033   6.595
 3705POPC   C3B48189  25.615  19.298   6.936
 3705POPC   C4B48190  25.680  19.418   7.341
 3706POPC   NC348191   7.850  24.669   5.505
 3706POPC   PO448192   8.298  24.217   5.327
 3706POPC   GL148193   8.375  24.324   5.766
 3706POPC   GL248194   8.119  24.481   5.903
 3706POPC   C1A48195   8.357  24.069   6.180
 3706POPC   D2A48196   8.204  23.904   6.592
 3706POPC   C3A48197   8.314  24.145   6.946
 3706POPC   C4A48198   8.190  24.489   7.214
 3706POPC   C1B48199   8.092  24.591   6.333
 3706POPC   C2B48200   7.933  24.508   6.752
 3706POPC   C3B48201   7.816  24.791   7.080
 3706POPC   C4B48202   7.789  24.728   7.562
 3707POPC   NC348203   8.665  41.967   5.400
 3707POPC   PO448204   9.212  41.541   5.453
 3707POPC   GL148205   8.987  41.567   5.819
 3707POPC   GL248206   8.849  41.871   5.877
 3707POPC   C1A48207   8.964  41.570   6.266
 3707POPC   D2A48208   8.818  41.419   6.661
 3707POPC   C3A48209   9.162  41.366   6.892
 3707POPC   C4A48210   9.261  41.584   7.259
 3707POPC   C1B48211   8.562  41.892   6.239
 3707POPC   C2B48212   8.395  41.753   6.641
 3707POPC   C3B48213   8.472  41.857   7.095
 3707POPC   C4B48214   8.838  41.994   7.310
 3708POPC   NC348215  35.960   4.828   5.492
 3708POPC   PO448216  36.507   5.246   5.482
 3708POPC   GL148217  36.170   5.219   5.785
 3708POPC   GL248218  36.150   4.930   5.959
 3708POPC   C1A48219  36.069   5.382   6.184
 3708POPC   D2A48220  36.292   5.268   6.538
 3708POPC   C3A48221  36.144   5.189   6.966
 3708POPC   C4A48222  35.891   5.484   7.203
 3708POPC   C1B48223  35.847   4.919   6.313
 3708POPC   C2B48224  35.702   4.912   6.735
 3708POPC   C3B48225  35.798   4.869   7.171
 3708POPC   C4B48226  35.840   4.729   7.651
 3709POPC   NC348227  26.292  14.800   5.606
 3709POPC   PO448228  25.838  14.242   5.453
 3709POPC   GL148229  26.028  14.357   5.839
 3709POPC   GL248230  25.934  14.716   5.959
 3709POPC   C1A48231  25.858  14.272   6.244
 3709POPC   D2A48232  25.823  14.507   6.618
 3709POPC   C3A48233  25.814  14.257   6.972
 3709POPC   C4A48234  26.071  14.168   7.268
 3709POPC   C1B48235  26.250  14.590   6.268
 3709POPC   C2B48236  26.338  14.675   6.684
 3709POPC   C3B48237  26.169  14.624   7.079
 3709POPC   C4B48238  26.363  14.675   7.495
 3710POPC   NC348239  33.423  26.192   5.404
 3710POPC   PO448240  32.771  26.087   5.179
 3710POPC   GL148241  32.971  26.009   5.636
 3710POPC   GL248242  33.267  25.742   5.637
 3710POPC   C1A48243  32.833  26.125   6.106
 3710POPC   D2A48244  32.605  26.241   6.534
 3710POPC   C3A48245  32.714  26.302   7.011
 3710POPC   C4A48246  32.561  26.345   7.468
 3710POPC   C1B48247  33.237  25.812   6.098
 3710POPC   C2B48248  33.038  25.904   6.535
 3710POPC   C3B48249  33.081  25.915   6.993
 3710POPC   C4B48250  33.361  25.701   7.255
 3711POPC   NC348251  12.697  11.517   5.590
 3711POPC   PO448252  13.135  11.068   5.526
 3711POPC   GL148253  12.996  11.255   5.884
 3711POPC   GL248254  13.189  11.565   5.775
 3711POPC   C1A48255  12.910  11.300   6.315
 3711POPC   D2A48256  12.968  11.253   6.748
 3711POPC   C3A48257  12.760  11.126   7.094
 3711POPC   C4A48258  12.663  11.348   7.459
 3711POPC   C1B48259  13.179  11.750   6.190
 3711POPC   C2B48260  13.318  11.588   6.582
 3711POPC   C3B48261  13.117  11.652   7.013
 3711POPC   C4B48262  13.234  11.603   7.436
 3712POPC   NC348263  24.051  40.288   5.510
 3712POPC   PO448264  24.431  39.776   5.492
 3712POPC   GL148265  24.699  39.950   5.801
 3712POPC   GL248266  24.595  40.292   5.734
 3712POPC   C1A48267  24.658  39.790   6.229
 3712POPC   D2A48268  24.360  39.727   6.558
 3712POPC   C3A48269  24.536  39.769   6.955
 3712POPC   C4A48270  24.393  39.946   7.305
 3712POPC   C1B48271  24.317  40.228   6.114
 3712POPC   C2B48272  24.257  40.395   6.527
 3712POPC   C3B48273  24.349  40.296   6.934
 3712POPC   C4B48274  24.427  40.446   7.349
 3713POPC   NC348275  18.695  37.783   5.445
 3713POPC   PO448276  18.111  37.378   5.279
 3713POPC   GL148277  18.216  37.607   5.682
 3713POPC   GL248278  18.159  37.342   5.905
 3713POPC   C1A48279  18.330  37.847   6.071
 3713POPC   D2A48280  18.663  37.857   6.405
 3713POPC   C3A48281  18.573  37.884   6.833
 3713POPC   C4A48282  18.464  37.871   7.254
 3713POPC   C1B48283  18.477  37.375   6.250
 3713POPC   C2B48284  18.447  37.223   6.663
 3713POPC   C3B48285  18.411  37.406   7.059
 3713POPC   C4B48286  18.075  37.527   7.318
 3714POPC   NC348287   5.395  31.576   5.415
 3714POPC   PO448288   4.776  31.325   5.478
 3714POPC   GL148289   5.072  31.395   5.783
 3714POPC   GL248290   5.189  31.062   5.826
 3714POPC   C1A48291   5.020  31.632   6.181
 3714POPC   D2A48292   4.928  31.781   6.643
 3714POPC   C3A48293   4.801  31.438   6.959
 3714POPC   C4A48294   4.993  31.299   7.388
 3714POPC   C1B48295   4.871  31.140   6.173
 3714POPC   C2B48296   5.082  31.293   6.561
 3714POPC   C3B48297   5.301  31.328   6.965
 3714POPC   C4B48298   5.348  30.969   7.212
 3715POPC   NC348299  39.109  17.992   5.318
 3715POPC   PO448300  39.465  18.533   5.565
 3715POPC   GL148301  39.403  18.118   5.780
 3715POPC   GL248302  39.063  18.174   5.826
 3715POPC   C1A48303  39.314  17.977   6.233
 3715POPC   D2A48304  39.264  18.229   6.630
 3715POPC   C3A48305  39.473  18.109   7.009
 3715POPC   C4A48306  39.402  18.056   7.412
 3715POPC   C1B48307  38.876  18.266   6.224
 3715POPC   C2B48308  38.754  18.414   6.631
 3715POPC   C3B48309  38.938  18.296   7.052
 3715POPC   C4B48310  38.979  18.307   7.510
 3716POPC   NC348311  21.386  17.172   5.161
 3716POPC   PO448312  21.571  17.714   5.554
 3716POPC   GL148313  21.347  17.482   5.834
 3716POPC   GL248314  21.234  17.164   5.666
 3716POPC   C1A48315  21.447  17.421   6.261
 3716POPC   D2A48316  21.306  17.505   6.655
 3716POPC   C3A48317  21.509  17.195   6.900
 3716POPC   C4A48318  21.669  17.400   7.208
 3716POPC   C1B48319  21.046  17.103   6.071
 3716POPC   C2B48320  21.125  17.036   6.513
 3716POPC   C3B48321  20.998  17.186   6.930
 3716POPC   C4B48322  21.231  17.177   7.355
 3717POPC   NC348323  21.375  28.990   5.507
 3717POPC   PO448324  21.074  29.512   5.552
 3717POPC   GL148325  21.393  29.389   5.834
 3717POPC   GL248326  21.651  29.608   5.765
 3717POPC   C1A48327  21.458  29.145   6.214
 3717POPC   D2A48328  21.336  28.897   6.573
 3717POPC   C3A48329  21.313  29.060   6.963
 3717POPC   C4A48330  21.333  28.920   7.364
 3717POPC   C1B48331  21.823  29.537   6.199
 3717POPC   C2B48332  21.784  29.627   6.645
 3717POPC   C3B48333  21.672  29.415   7.051
 3717POPC   C4B48334  21.523  29.381   7.496
 3718POPC   NC348335  43.124   3.482   5.393
 3718POPC   PO448336  42.522   3.819   5.414
 3718POPC   GL148337  42.805   3.703   5.796
 3718POPC   GL248338  43.198   3.682   5.878
 3718POPC   C1A48339  42.833   3.535   6.250
 3718POPC   D2A48340  43.078   3.694   6.616
 3718POPC   C3A48341  43.091   3.462   7.000
 3718POPC   C4A48342  42.770   3.514   7.298
 3718POPC   C1B48343  43.440   3.879   6.260
 3718POPC   C2B48344  43.470   4.019   6.714
 3718POPC   C3B48345  43.494   3.762   7.122
 3718POPC   C4B48346  43.212   3.649   7.502
 3719POPC   NC348347   4.779  15.342   5.522
 3719POPC   PO448348   5.431  15.216   5.316
 3719POPC   GL148349   5.191  15.101   5.763
 3719POPC   GL248350   4.975  15.338   6.002
 3719POPC   C1A48351   5.378  15.094   6.191
 3719POPC   D2A48352   5.293  15.304   6.606
 3719POPC   C3A48353   5.343  15.064   6.983
 3719POPC   C4A48354   5.045  14.902   7.286
 3719POPC   C1B48355   4.968  15.665   6.364
 3719POPC   C2B48356   4.909  15.694   6.809
 3719POPC   C3B48357   4.896  15.336   7.097
 3719POPC   C4B48358   4.754  15.303   7.555
 3720POPC   NC348359  41.563  14.589   5.647
 3720POPC   PO448360  41.763  13.958   5.554
 3720POPC   GL148361  41.379  14.047   5.789
 3720POPC   GL248362  41.217  14.346   5.907
 3720POPC   C1A48363  41.520  14.139   6.219
 3720POPC   D2A48364  41.673  14.372   6.547
 3720POPC   C3A48365  41.463  14.219   6.867
 3720POPC   C4A48366  41.513  14.117   7.235
 3720POPC   C1B48367  41.307  14.633   6.273
 3720POPC   C2B48368  41.195  14.633   6.711
 3720POPC   C3B48369  41.191  14.598   7.165
 3720POPC   C4B48370  41.428  14.540   7.549
 3721POPC   NC348371   7.230  23.239   5.286
 3721POPC   PO448372   7.579  23.829   5.343
 3721POPC   GL148373   7.650  23.631   5.714
 3721POPC   GL248374   7.300  23.513   5.725
 3721POPC   C1A48375   7.569  23.610   6.146
 3721POPC   D2A48376   7.475  23.421   6.498
 3721POPC   C3A48377   7.637  23.511   6.888
 3721POPC   C4A48378   7.364  23.440   7.231
 3721POPC   C1B48379   7.077  23.757   6.031
 3721POPC   C2B48380   7.155  23.831   6.454
 3721POPC   C3B48381   7.245  23.831   6.881
 3721POPC   C4B48382   7.259  23.991   7.296
 3722POPC   NC348383  31.657  24.413   5.052
 3722POPC   PO448384  31.250  24.443   5.652
 3722POPC   GL148385  31.418  24.327   6.014
 3722POPC   GL248386  31.725  24.456   5.897
 3722POPC   C1A48387  31.454  24.593   6.392
 3722POPC   D2A48388  31.183  24.707   6.748
 3722POPC   C3A48389  31.445  24.666   7.111
 3722POPC   C4A48390  31.386  24.659   7.552
 3722POPC   C1B48391  31.855  24.278   6.284
 3722POPC   C2B48392  31.816  24.115   6.691
 3722POPC   C3B48393  31.906  24.335   7.069
 3722POPC   C4B48394  31.684  24.266   7.439
 3723POPC   NC348395  23.281  29.494   5.579
 3723POPC   PO448396  22.669  29.159   5.596
 3723POPC   GL148397  22.838  28.946   5.953
 3723POPC   GL248398  23.163  29.111   5.921
 3723POPC   C1A48399  22.835  29.071   6.392
 3723POPC   D2A48400  22.788  29.481   6.618
 3723POPC   C3A48401  22.708  29.460   7.068
 3723POPC   C4A48402  22.928  29.450   7.502
 3723POPC   C1B48403  23.295  28.821   6.227
 3723POPC   C2B48404  23.147  28.750   6.626
 3723POPC   C3B48405  23.027  29.068   6.891
 3723POPC   C4B48406  23.241  29.146   7.270
 3724POPC   NC348407  27.594  17.395   5.356
 3724POPC   PO448408  27.601  18.042   5.519
 3724POPC   GL148409  27.611  17.758   5.865
 3724POPC   GL248410  27.576  17.379   5.868
 3724POPC   C1A48411  27.650  17.715   6.305
 3724POPC   D2A48412  27.396  17.452   6.574
 3724POPC   C3A48413  27.460  17.624   6.941
 3724POPC   C4A48414  27.502  17.706   7.365
 3724POPC   C1B48415  27.736  17.219   6.252
 3724POPC   C2B48416  27.881  17.379   6.690
 3724POPC   C3B48417  27.841  17.366   7.148
 3724POPC   C4B48418  27.994  17.067   7.446
 3725POPC   NC348419   9.616  31.903   5.628
 3725POPC   PO448420   9.846  32.453   5.291
 3725POPC   GL148421  10.011  32.378   5.735
 3725POPC   GL248422   9.995  32.054   5.936
 3725POPC   C1A48423   9.829  32.472   6.167
 3725POPC   D2A48424   9.675  32.229   6.497
 3725POPC   C3A48425   9.822  32.385   6.866
 3725POPC   C4A48426   9.818  32.659   7.187
 3725POPC   C1B48427   9.911  31.796   6.307
 3725POPC   C2B48428  10.041  31.763   6.768
 3725POPC   C3B48429   9.953  32.016   7.172
 3725POPC   C4B48430   9.932  31.920   7.606
 3726POPC   NC348431  37.950  20.505   5.318
 3726POPC   PO448432  37.310  20.440   5.432
 3726POPC   GL148433  37.595  20.524   5.747
 3726POPC   GL248434  37.739  20.844   5.656
 3726POPC   C1A48435  37.592  20.443   6.206
 3726POPC   D2A48436  37.436  20.654   6.599
 3726POPC   C3A48437  37.440  20.482   6.992
 3726POPC   C4A48438  37.533  20.701   7.387
 3726POPC   C1B48439  37.851  20.868   6.103
 3726POPC   C2B48440  37.952  20.641   6.534
 3726POPC   C3B48441  37.915  20.659   6.999
 3726POPC   C4B48442  38.063  20.901   7.363
 3727POPC   NC348443   8.866  28.564   5.132
 3727POPC   PO448444   8.322  28.260   5.401
 3727POPC   GL148445   8.194  28.309   5.793
 3727POPC   GL248446   8.116  27.972   5.843
 3727POPC   C1A48447   8.324  28.400   6.209
 3727POPC   D2A48448   8.313  28.155   6.612
 3727POPC   C3A48449   8.357  28.414   6.980
 3727POPC   C4A48450   8.427  28.840   7.129
 3727POPC   C1B48451   7.869  28.176   6.187
 3727POPC   C2B48452   7.808  28.075   6.615
 3727POPC   C3B48453   7.878  28.231   7.018
 3727POPC   C4B48454   8.156  27.974   7.247
 3728POPC   NC348455  36.008  10.907   5.571
 3728POPC   PO448456  36.394  10.386   5.493
 3728POPC   GL148457  36.237  10.339   5.913
 3728POPC   GL248458  35.875  10.250   5.932
 3728POPC   C1A48459  36.405  10.392   6.340
 3728POPC   D2A48460  36.557  10.681   6.658
 3728POPC   C3A48461  36.337  10.764   7.049
 3728POPC   C4A48462  36.160  10.664   7.459
 3728POPC   C1B48463  35.936  10.560   6.282
 3728POPC   C2B48464  36.053  10.428   6.725
 3728POPC   C3B48465  35.843  10.486   7.113
 3728POPC   C4B48466  35.536  10.844   7.185
 3729POPC   NC348467  28.146  34.563   5.393
 3729POPC   PO448468  28.779  34.407   5.463
 3729POPC   GL148469  28.479  34.635   5.799
 3729POPC   GL248470  28.147  34.446   5.888
 3729POPC   C1A48471  28.263  34.847   6.197
 3729POPC   D2A48472  28.215  34.965   6.681
 3729POPC   C3A48473  28.364  34.654   7.003
 3729POPC   C4A48474  28.515  34.431   7.397
 3729POPC   C1B48475  28.041  34.237   6.294
 3729POPC   C2B48476  28.114  34.294   6.750
 3729POPC   C3B48477  28.032  34.301   7.220
 3729POPC   C4B48478  28.169  34.085   7.626
 3730POPC   NC348479  21.179  11.262   5.463
 3730POPC   PO448480  21.798  11.205   5.532
 3730POPC   GL148481  21.449  11.292   5.900
 3730POPC   GL248482  21.164  11.054   5.927
 3730POPC   C1A48483  21.307  11.461   6.338
 3730POPC   D2A48484  21.513  11.586   6.735
 3730POPC   C3A48485  21.303  11.501   7.147
 3730POPC   C4A48486  21.413  11.336   7.588
 3730POPC   C1B48487  21.226  10.953   6.370
 3730POPC   C2B48488  21.369  11.084   6.784
 3730POPC   C3B48489  21.227  10.997   7.207
 3730POPC   C4B48490  21.464  10.807   7.555
 3731POPC   NC348491  24.203  42.727   5.513
 3731POPC   PO448492  23.575  42.421   5.383
 3731POPC   GL148493  23.744  42.580   5.795
 3731POPC   GL248494  24.075  42.454   5.902
 3731POPC   C1A48495  23.754  42.540   6.263
 3731POPC   D2A48496  23.714  42.298   6.633
 3731POPC   C3A48497  23.589  42.465   7.003
 3731POPC   C4A48498  23.857  42.622   7.267
 3731POPC   C1B48499  24.118  42.146   6.221
 3731POPC   C2B48500  24.082  41.962   6.617
 3731POPC   C3B48501  24.090  42.159   7.051
 3731POPC   C4B48502  23.801  42.148   7.411
 3732POPC   NC348503  12.595  34.572   5.382
 3732POPC   PO448504  13.247  34.755   5.408
 3732POPC   GL148505  12.963  34.668   5.760
 3732POPC   GL248506  12.723  34.933   5.751
 3732POPC   C1A48507  12.731  34.615   6.177
 3732POPC   D2A48508  12.910  34.606   6.603
 3732POPC   C3A48509  12.598  34.506   6.911
 3732POPC   C4A48510  12.624  34.297   7.292
 3732POPC   C1B48511  13.035  35.016   6.139
 3732POPC   C2B48512  13.105  35.140   6.575
 3732POPC   C3B48513  13.186  34.892   6.930
 3732POPC   C4B48514  12.968  34.683   7.238
 3733POPC   NC348515   9.418  28.187   5.488
 3733POPC   PO448516  10.077  28.383   5.510
 3733POPC   GL148517   9.872  28.429   5.889
 3733POPC   GL248518   9.586  28.235   5.953
 3733POPC   C1A48519   9.875  28.371   6.337
 3733POPC   D2A48520   9.773  28.572   6.695
 3733POPC   C3A48521   9.965  28.322   7.016
 3733POPC   C4A48522  10.006  28.161   7.461
 3733POPC   C1B48523   9.390  28.597   6.133
 3733POPC   C2B48524   9.210  28.617   6.541
 3733POPC   C3B48525   9.359  28.522   6.967
 3733POPC   C4B48526   9.537  28.274   7.306
 3734POPC   NC348527  24.937  29.910   5.104
 3734POPC   PO448528  24.516  30.096   5.602
 3734POPC   GL148529  24.543  29.757   5.883
 3734POPC   GL248530  24.853  29.712   5.796
 3734POPC   C1A48531  24.474  29.711   6.330
 3734POPC   D2A48532  24.399  30.085   6.601
 3734POPC   C3A48533  24.295  29.976   7.022
 3734POPC   C4A48534  24.549  30.147   7.298
 3734POPC   C1B48535  25.045  29.489   6.121
 3734POPC   C2B48536  24.956  29.500   6.550
 3734POPC   C3B48537  24.706  29.732   6.824
 3734POPC   C4B48538  24.659  29.659   7.271
 3735POPC   NC348539  20.859  15.132   5.470
 3735POPC   PO448540  20.213  15.456   5.461
 3735POPC   GL148541  20.516  15.330   5.802
 3735POPC   GL248542  20.526  14.948   5.844
 3735POPC   C1A48543  20.657  15.294   6.260
 3735POPC   D2A48544  20.767  15.144   6.681
 3735POPC   C3A48545  20.497  15.145   7.032
 3735POPC   C4A48546  20.402  15.057   7.477
 3735POPC   C1B48547  20.856  14.828   6.172
 3735POPC   C2B48548  21.015  14.684   6.579
 3735POPC   C3B48549  20.924  14.773   7.016
 3735POPC   C4B48550  20.867  14.835   7.441
 3736POPC   NC348551  25.480  21.933   5.405
 3736POPC   PO448552  25.145  22.587   5.372
 3736POPC   GL148553  25.350  22.339   5.749
 3736POPC   GL248554  25.134  22.052   5.776
 3736POPC   C1A48555  25.345  22.143   6.226
 3736POPC   D2A48556  25.337  21.955   6.639
 3736POPC   C3A48557  25.453  22.181   7.021
 3736POPC   C4A48558  25.304  22.148   7.463
 3736POPC   C1B48559  24.928  22.365   6.035
 3736POPC   C2B48560  24.944  22.407   6.490
 3736POPC   C3B48561  24.944  22.136   6.878
 3736POPC   C4B48562  24.802  22.127   7.291
 3737POPC   NC348563  24.574  37.646   5.414
 3737POPC   PO448564  23.964  37.905   5.532
 3737POPC   GL148565  24.311  37.823   5.823
 3737POPC   GL248566  24.496  37.491   5.888
 3737POPC   C1A48567  24.325  38.026   6.202
 3737POPC   D2A48568  24.459  37.976   6.604
 3737POPC   C3A48569  24.267  37.893   6.993
 3737POPC   C4A48570  24.484  37.780   7.399
 3737POPC   C1B48571  24.438  37.537   6.320
 3737POPC   C2B48572  24.385  37.452   6.755
 3737POPC   C3B48573  24.542  37.335   7.153
 3737POPC   C4B48574  24.327  37.209   7.541
 3738POPC   NC348575  41.413  15.465   5.474
 3738POPC   PO448576  41.835  14.942   5.712
 3738POPC   GL148577  41.468  15.137   5.864
 3738POPC   GL248578  41.636  15.469   5.917
 3738POPC   C1A48579  41.318  15.179   6.274
 3738POPC   D2A48580  41.551  15.042   6.642
 3738POPC   C3A48581  41.599  15.268   7.032
 3738POPC   C4A48582  41.489  15.003   7.354
 3738POPC   C1B48583  41.832  15.305   6.250
 3738POPC   C2B48584  42.112  15.114   6.532
 3738POPC   C3B48585  42.007  14.964   6.922
 3738POPC   C4B48586  42.056  15.146   7.323
 3739POPC   NC348587  41.157  12.216   5.098
 3739POPC   PO448588  41.522  11.750   5.398
 3739POPC   GL148589  41.645  12.040   5.714
 3739POPC   GL248590  41.353  12.096   5.895
 3739POPC   C1A48591  41.793  12.118   6.144
 3739POPC   D2A48592  41.791  11.987   6.579
 3739POPC   C3A48593  41.740  12.244   6.935
 3739POPC   C4A48594  41.619  12.168   7.366
 3739POPC   C1B48595  41.357  11.921   6.297
 3739POPC   C2B48596  41.310  12.073   6.705
 3739POPC   C3B48597  41.315  11.871   7.071
 3739POPC   C4B48598  41.134  11.971   7.423
 3740POPC   NC348599  14.554  34.676   5.311
 3740POPC   PO448600  14.397  34.052   5.486
 3740POPC   GL148601  14.534  34.415   5.758
 3740POPC   GL248602  14.271  34.706   5.751
 3740POPC   C1A48603  14.594  34.518   6.203
 3740POPC   D2A48604  14.261  34.533   6.526
 3740POPC   C3A48605  14.479  34.636   6.863
 3740POPC   C4A48606  14.520  34.622   7.261
 3740POPC   C1B48607  14.237  34.887   6.166
 3740POPC   C2B48608  14.418  35.109   6.514
 3740POPC   C3B48609  14.542  35.147   6.946
 3740POPC   C4B48610  14.235  35.029   7.263
 3741POPC   NC348611  11.762  28.643   5.591
 3741POPC   PO448612  12.366  28.355   5.387
 3741POPC   GL148613  12.134  28.304   5.764
 3741POPC   GL248614  12.241  28.614   5.889
 3741POPC   C1A48615  12.045  28.245   6.220
 3741POPC   D2A48616  11.989  28.400   6.666
 3741POPC   C3A48617  12.233  28.243   6.971
 3741POPC   C4A48618  12.311  27.971   7.292
 3741POPC   C1B48619  12.097  28.745   6.310
 3741POPC   C2B48620  12.176  28.879   6.750
 3741POPC   C3B48621  12.013  28.720   7.161
 3741POPC   C4B48622  11.889  28.699   7.612
 3742POPC   NC348623   9.784  31.172   5.246
 3742POPC   PO448624  10.036  31.776   5.488
 3742POPC   GL148625   9.864  31.397   5.699
 3742POPC   GL248626   9.499  31.354   5.728
 3742POPC   C1A48627   9.813  31.216   6.113
 3742POPC   D2A48628   9.785  31.360   6.547
 3742POPC   C3A48629   9.546  31.185   6.847
 3742POPC   C4A48630   9.610  31.207   7.257
 3742POPC   C1B48631   9.382  31.512   6.170
 3742POPC   C2B48632   9.426  31.791   6.531
 3742POPC   C3B48633   9.570  31.690   6.927
 3742POPC   C4B48634   9.502  31.776   7.314
 3743POPC   NC348635  33.465  13.589   5.444
 3743POPC   PO448636  32.810  13.730   5.492
 3743POPC   GL148637  32.984  13.769   5.896
 3743POPC   GL248638  33.356  13.931   5.839
 3743POPC   C1A48639  32.906  13.475   6.270
 3743POPC   D2A48640  33.131  13.328   6.657
 3743POPC   C3A48641  32.895  13.537   6.983
 3743POPC   C4A48642  32.814  13.848   7.307
 3743POPC   C1B48643  33.364  13.692   6.225
 3743POPC   C2B48644  33.184  13.832   6.616
 3743POPC   C3B48645  33.380  13.749   7.037
 3743POPC   C4B48646  33.693  13.407   7.121
 3744POPC   NC348647   6.837  19.114   5.490
 3744POPC   PO448648   6.263  19.396   5.227
 3744POPC   GL148649   6.257  19.288   5.711
 3744POPC   GL248650   6.585  19.189   5.922
 3744POPC   C1A48651   6.209  19.394   6.159
 3744POPC   D2A48652   6.485  19.133   6.464
 3744POPC   C3A48653   6.421  19.160   6.909
 3744POPC   C4A48654   6.461  19.025   7.317
 3744POPC   C1B48655   6.869  18.940   6.197
 3744POPC   C2B48656   7.057  18.903   6.632
 3744POPC   C3B48657   7.015  18.776   7.057
 3744POPC   C4B48658   7.123  18.396   7.314
 3745POPC   NC348659  30.153  35.419   5.013
 3745POPC   PO448660  29.961  35.406   5.664
 3745POPC   GL148661  30.214  35.294   5.973
 3745POPC   GL248662  30.286  34.930   5.975
 3745POPC   C1A48663  30.233  35.527   6.326
 3745POPC   D2A48664  29.962  35.392   6.652
 3745POPC   C3A48665  30.080  35.565   7.050
 3745POPC   C4A48666  29.872  35.466   7.444
 3745POPC   C1B48667  30.170  34.921   6.427
 3745POPC   C2B48668  30.067  34.938   6.897
 3745POPC   C3B48669  30.177  35.081   7.325
 3745POPC   C4B48670  30.251  34.942   7.766
 3746POPC   NC348671   0.195  17.979   5.043
 3746POPC   PO448672   0.571  18.372   5.456
 3746POPC   GL148673   0.645  18.283   5.870
 3746POPC   GL248674   0.280  18.225   5.901
 3746POPC   C1A48675   0.635  18.170   6.307
 3746POPC   D2A48676   0.354  17.887   6.499
 3746POPC   C3A48677   0.233  17.993   6.923
 3746POPC   C4A48678   0.059  17.826   7.278
 3746POPC   C1B48679  44.986  18.173   6.236
 3746POPC   C2B48680   0.165  18.376   6.567
 3746POPC   C3B48681   0.055  18.493   6.943
 3746POPC   C4B48682   0.195  18.406   7.315
 3747POPC   NC348683  33.248   5.178   5.025
 3747POPC   PO448684  32.899   5.443   5.512
 3747POPC   GL148685  32.861   5.314   5.942
 3747POPC   GL248686  32.594   5.099   5.878
 3747POPC   C1A48687  33.113   5.225   6.336
 3747POPC   D2A48688  33.353   5.102   6.716
 3747POPC   C3A48689  33.173   5.400   7.016
 3747POPC   C4A48690  32.725   5.353   7.098
 3747POPC   C1B48691  32.622   4.980   6.317
 3747POPC   C2B48692  32.841   4.840   6.709
 3747POPC   C3B48693  32.730   4.636   7.132
 3747POPC   C4B48694  32.830   4.730   7.583
 3748POPC   NC348695  11.934  41.271   5.511
 3748POPC   PO448696  12.156  41.930   5.437
 3748POPC   GL148697  12.129  41.671   5.810
 3748POPC   GL248698  12.365  41.420   5.726
 3748POPC   C1A48699  11.943  41.422   6.162
 3748POPC   D2A48700  11.752  41.430   6.564
 3748POPC   C3A48701  12.026  41.527   6.901
 3748POPC   C4A48702  11.960  41.678   7.308
 3748POPC   C1B48703  12.440  41.353   6.150
 3748POPC   C2B48704  12.460  41.392   6.581
 3748POPC   C3B48705  12.390  41.149   6.948
 3748POPC   C4B48706  12.414  41.399   7.294
 3749POPC   NC348707  28.000  25.494   5.530
 3749POPC   PO448708  28.600  25.416   5.391
 3749POPC   GL148709  28.464  25.094   5.702
 3749POPC   GL248710  28.134  25.075   5.842
 3749POPC   C1A48711  28.481  25.178   6.178
 3749POPC   D2A48712  28.686  25.462   6.477
 3749POPC   C3A48713  28.589  25.416   6.927
 3749POPC   C4A48714  28.511  25.355   7.379
 3749POPC   C1B48715  27.970  25.259   6.252
 3749POPC   C2B48716  28.193  25.275   6.628
 3749POPC   C3B48717  28.147  25.151   7.039
 3749POPC   C4B48718  28.165  24.908   7.401
 3750POPC   NC348719  18.579  19.496   5.525
 3750POPC   PO448720  18.681  20.149   5.444
 3750POPC   GL148721  18.426  19.964   5.824
 3750POPC   GL248722  18.541  19.622   6.001
 3750POPC   C1A48723  18.210  19.884   6.237
 3750POPC   D2A48724  18.472  19.749   6.584
 3750POPC   C3A48725  18.226  19.659   6.959
 3750POPC   C4A48726  18.132  19.934   7.308
 3750POPC   C1B48727  18.661  19.352   6.328
 3750POPC   C2B48728  18.645  19.311   6.790
 3750POPC   C3B48729  18.672  19.518   7.201
 3750POPC   C4B48730  18.474  19.690   7.601
 3751POPC   NC348731  12.128  29.554   5.620
 3751POPC   PO448732  11.878  30.156   5.483
 3751POPC   GL148733  11.902  29.940   5.860
 3751POPC   GL248734  12.252  30.032   5.929
 3751POPC   C1A48735  12.023  29.744   6.275
 3751POPC   D2A48736  11.904  29.978   6.630
 3751POPC   C3A48737  12.083  29.969   7.041
 3751POPC   C4A48738  11.925  30.080   7.460
 3751POPC   C1B48739  12.289  30.212   6.381
 3751POPC   C2B48740  12.302  30.380   6.842
 3751POPC   C3B48741  12.373  30.302   7.331
 3751POPC   C4B48742  12.325  30.181   7.816
 3752POPC   NC348743  16.292  30.399   5.487
 3752POPC   PO448744  15.795  29.905   5.440
 3752POPC   GL148745  15.731  29.787   5.862
 3752POPC   GL248746  15.651  30.120   5.971
 3752POPC   C1A48747  15.683  29.769   6.328
 3752POPC   D2A48748  15.878  30.115   6.551
 3752POPC   C3A48749  16.036  30.017   6.933
 3752POPC   C4A48750  15.896  29.796   7.292
 3752POPC   C1B48751  15.437  30.306   6.326
 3752POPC   C2B48752  15.526  30.456   6.752
 3752POPC   C3B48753  15.626  30.239   7.141
 3752POPC   C4B48754  15.609  30.289   7.579
 3753POPC   NC348755  14.657   2.160   5.353
 3753POPC   PO448756  13.986   2.435   5.373
 3753POPC   GL148757  14.267   2.143   5.703
 3753POPC   GL248758  14.569   2.287   5.827
 3753POPC   C1A48759  14.256   1.891   6.130
 3753POPC   D2A48760  14.047   1.732   6.550
 3753POPC   C3A48761  14.304   1.731   6.965
 3753POPC   C4A48762  14.223   1.840   7.442
 3753POPC   C1B48763  14.790   2.463   6.162
 3753POPC   C2B48764  14.725   2.279   6.544
 3753POPC   C3B48765  14.733   2.186   6.948
 3753POPC   C4B48766  14.683   1.905   7.266
 3754POPC   NC348767   5.964  25.221   5.353
 3754POPC   PO448768   6.272  25.738   5.154
 3754POPC   GL148769   6.052  25.711   5.604
 3754POPC   GL248770   6.199  25.419   5.767
 3754POPC   C1A48771   5.876  25.666   6.075
 3754POPC   D2A48772   5.708  25.344   6.362
 3754POPC   C3A48773   5.650  25.425   6.822
 3754POPC   C4A48774   5.645  25.255   7.255
 3754POPC   C1B48775   6.201  25.283   6.195
 3754POPC   C2B48776   6.117  25.496   6.610
 3754POPC   C3B48777   6.238  25.505   7.031
 3754POPC   C4B48778   6.126  25.256   7.391
 3755POPC   NC348779  20.829   3.930   5.545
 3755POPC   PO448780  20.467   3.278   5.539
 3755POPC   GL148781  20.743   3.470   5.831
 3755POPC   GL248782  20.590   3.757   5.957
 3755POPC   C1A48783  20.744   3.354   6.288
 3755POPC   D2A48784  20.817   3.225   6.726
 3755POPC   C3A48785  20.567   3.519   6.942
 3755POPC   C4A48786  20.321   3.512   7.289
 3755POPC   C1B48787  20.992   3.799   6.175
 3755POPC   C2B48788  20.974   3.712   6.611
 3755POPC   C3B48789  20.693   3.995   6.824
 3755POPC   C4B48790  20.599   3.990   7.266
 3756POPC   NC348791  39.554  37.958   5.381
 3756POPC   PO448792  40.207  37.702   5.444
 3756POPC   GL148793  40.092  37.657   5.865
 3756POPC   GL248794  40.359  37.443   5.899
 3756POPC   C1A48795  39.955  37.481   6.281
 3756POPC   D2A48796  39.793  37.476   6.715
 3756POPC   C3A48797  39.899  37.749   7.061
 3756POPC   C4A48798  39.836  37.517   7.487
 3756POPC   C1B48799  40.404  37.714   6.286
 3756POPC   C2B48800  40.296  37.621   6.716
 3756POPC   C3B48801  40.273  37.418   7.141
 3756POPC   C4B48802  40.269  37.778   7.406
 3757POPC   NC348803  29.668  17.025   5.375
 3757POPC   PO448804  29.171  17.515   5.403
 3757POPC   GL148805  29.015  17.355   5.836
 3757POPC   GL248806  28.904  16.985   5.756
 3757POPC   C1A48807  29.032  17.414   6.322
 3757POPC   D2A48808  29.273  17.622   6.697
 3757POPC   C3A48809  29.272  17.552   7.154
 3757POPC   C4A48810  29.540  17.564   7.552
 3757POPC   C1B48811  28.812  16.893   6.185
 3757POPC   C2B48812  29.023  16.971   6.581
 3757POPC   C3B48813  28.878  17.145   6.986
 3757POPC   C4B48814  29.056  17.098   7.403
 3758POPC   NC348815  24.093   0.617   5.522
 3758POPC   PO448816  24.761   0.317   5.488
 3758POPC   GL148817  24.478   0.463   5.832
 3758POPC   GL248818  24.146   0.287   5.914
 3758POPC   C1A48819  24.394   0.754   6.172
 3758POPC   D2A48820  24.228   0.881   6.573
 3758POPC   C3A48821  24.478   0.790   6.938
 3758POPC   C4A48822  24.395   0.678   7.350
 3758POPC   C1B48823  24.372   0.229   6.299
 3758POPC   C2B48824  24.439   0.313   6.738
 3758POPC   C3B48825  24.638   0.162   7.108
 3758POPC   C4B48826  24.514   0.224   7.537
 3759POPC   NC348827  14.262  26.929   5.432
 3759POPC   PO448828  14.817  26.601   5.591
 3759POPC   GL148829  14.500  26.759   5.883
 3759POPC   GL248830  14.170  26.588   5.819
 3759POPC   C1A48831  14.550  26.938   6.322
 3759POPC   D2A48832  14.661  26.801   6.751
 3759POPC   C3A48833  14.480  26.923   7.158
 3759POPC   C4A48834  14.611  26.763   7.601
 3759POPC   C1B48835  14.080  26.771   6.232
 3759POPC   C2B48836  14.144  26.836   6.676
 3759POPC   C3B48837  14.065  26.590   6.998
 3759POPC   C4B48838  14.192  26.584   7.396
 3760POPC   NC348839  22.672  16.736   5.706
 3760POPC   PO448840  23.328  16.694   5.446
 3760POPC   GL148841  23.241  16.861   5.877
 3760POPC   GL248842  23.100  17.194   5.929
 3760POPC   C1A48843  23.166  16.728   6.328
 3760POPC   D2A48844  22.890  16.810   6.717
 3760POPC   C3A48845  22.921  16.575   7.107
 3760POPC   C4A48846  23.116  16.671   7.496
 3760POPC   C1B48847  22.765  17.056   6.267
 3760POPC   C2B48848  22.507  17.156   6.667
 3760POPC   C3B48849  22.550  17.103   7.127
 3760POPC   C4B48850  22.616  16.792   7.483
 3761POPC   NC348851  20.936  26.005   5.592
 3761POPC   PO448852  20.494  25.745   5.122
 3761POPC   GL148853  20.472  25.821   5.678
 3761POPC   GL248854  20.697  26.089   6.000
 3761POPC   C1A48855  20.442  25.710   6.141
 3761POPC   D2A48856  20.400  25.728   6.602
 3761POPC   C3A48857  20.744  25.933   6.830
 3761POPC   C4A48858  20.886  25.913   7.265
 3761POPC   C1B48859  20.555  26.228   6.391
 3761POPC   C2B48860  20.679  26.483   6.733
 3761POPC   C3B48861  20.674  26.366   7.119
 3761POPC   C4B48862  20.387  26.040   7.206
 3762POPC   NC348863  23.263  18.180   5.657
 3762POPC   PO448864  23.924  18.170   5.433
 3762POPC   GL148865  23.750  18.222   5.832
 3762POPC   GL248866  23.727  17.892   5.977
 3762POPC   C1A48867  23.845  18.317   6.260
 3762POPC   D2A48868  23.839  17.994   6.581
 3762POPC   C3A48869  23.878  18.184   6.985
 3762POPC   C4A48870  23.638  18.461   7.234
 3762POPC   C1B48871  23.407  18.063   6.279
 3762POPC   C2B48872  23.300  18.136   6.694
 3762POPC   C3B48873  23.415  18.018   7.118
 3762POPC   C4B48874  23.398  18.007   7.579
 3763POPC   NC348875  43.637  29.159   5.310
 3763POPC   PO448876  44.274  29.021   5.247
 3763POPC   GL148877  44.052  29.020   5.692
 3763POPC   GL248878  43.825  29.332   5.767
 3763POPC   C1A48879  43.940  29.023   6.177
 3763POPC   D2A48880  44.149  29.155   6.605
 3763POPC   C3A48881  43.988  28.996   7.046
 3763POPC   C4A48882  43.558  28.861   7.261
 3763POPC   C1B48883  43.539  29.329   6.145
 3763POPC   C2B48884  43.606  29.126   6.579
 3763POPC   C3B48885  43.577  29.301   7.011
 3763POPC   C4B48886  43.408  29.435   7.409
 3764POPC   NC348887   4.120  15.208   5.373
 3764POPC   PO448888   4.731  14.868   5.472
 3764POPC   GL148889   4.540  14.997   5.830
 3764POPC   GL248890   4.158  15.037   5.862
 3764POPC   C1A48891   4.451  14.828   6.236
 3764POPC   D2A48892   4.339  14.935   6.616
 3764POPC   C3A48893   4.671  14.887   6.895
 3764POPC   C4A48894   4.542  14.917   7.296
 3764POPC   C1B48895   4.395  15.333   6.168
 3764POPC   C2B48896   4.601  15.358   6.574
 3764POPC   C3B48897   4.405  15.322   6.974
 3764POPC   C4B48898   4.185  15.267   7.342
 3765POPC   NC348899  27.181  24.651   5.433
 3765POPC   PO448900  27.625  24.240   5.152
 3765POPC   GL148901  27.556  24.432   5.656
 3765POPC   GL248902  27.806  24.672   5.774
 3765POPC   C1A48903  27.559  24.427   6.156
 3765POPC   D2A48904  27.417  24.518   6.603
 3765POPC   C3A48905  27.571  24.346   7.008
 3765POPC   C4A48906  27.456  24.440   7.417
 3765POPC   C1B48907  27.976  24.742   6.211
 3765POPC   C2B48908  27.849  24.875   6.638
 3765POPC   C3B48909  27.995  24.644   6.995
 3765POPC   C4B48910  27.968  24.448   7.385
 3766POPC   NC348911  35.169  35.612   5.533
 3766POPC   PO448912  35.211  34.897   5.505
 3766POPC   GL148913  35.310  35.203   5.806
 3766POPC   GL248914  35.664  35.234   5.805
 3766POPC   C1A48915  35.343  35.484   6.175
 3766POPC   D2A48916  35.233  35.318   6.561
 3766POPC   C3A48917  35.403  35.495   6.887
 3766POPC   C4A48918  35.168  35.632   7.169
 3766POPC   C1B48919  35.562  35.015   6.214
 3766POPC   C2B48920  35.673  35.098   6.642
 3766POPC   C3B48921  35.482  35.017   7.021
 3766POPC   C4B48922  35.569  35.282   7.334
 3767POPC   NC348923  41.470   1.002   5.549
 3767POPC   PO448924  41.218   1.623   5.720
 3767POPC   GL148925  41.439   1.281   5.961
 3767POPC   GL248926  41.816   1.289   5.967
 3767POPC   C1A48927  41.405   1.078   6.358
 3767POPC   D2A48928  41.187   1.270   6.708
 3767POPC   C3A48929  41.336   1.184   7.097
 3767POPC   C4A48930  41.485   1.290   7.479
 3767POPC   C1B48931  41.905   1.028   6.337
 3767POPC   C2B48932  41.693   0.966   6.763
 3767POPC   C3B48933  41.852   1.157   7.140
 3767POPC   C4B48934  41.923   1.063   7.577
 3768POPC   NC348935  18.613   8.870   5.445
 3768POPC   PO448936  18.069   9.326   5.463
 3768POPC   GL148937  18.333   9.150   5.777
 3768POPC   GL248938  18.675   9.309   5.736
 3768POPC   C1A48939  18.327   8.817   6.117
 3768POPC   D2A48940  18.100   8.823   6.504
 3768POPC   C3A48941  18.302   8.764   6.900
 3768POPC   C4A48942  18.097   9.008   7.177
 3768POPC   C1B48943  18.615   9.241   6.177
 3768POPC   C2B48944  18.573   9.074   6.569
 3768POPC   C3B48945  18.493   9.265   6.958
 3768POPC   C4B48946  18.760   9.196   7.298
 3769POPC   NC348947  32.655  38.535   5.128
 3769POPC   PO448948  32.786  38.303   5.680
 3769POPC   GL148949  32.869  38.521   6.006
 3769POPC   GL248950  33.110  38.730   5.900
 3769POPC   C1A48951  32.897  38.369   6.398
 3769POPC   D2A48952  33.105  38.212   6.733
 3769POPC   C3A48953  32.864  38.464   6.964
 3769POPC   C4A48954  32.716  38.402   7.332
 3769POPC   C1B48955  33.139  38.854   6.291
 3769POPC   C2B48956  33.212  38.735   6.680
 3769POPC   C3B48957  33.378  38.575   7.056
 3769POPC   C4B48958  33.129  38.666   7.380
 3770POPC   NC348959  23.450  14.517   5.510
 3770POPC   PO448960  24.041  14.273   5.269
 3770POPC   GL148961  23.869  14.467   5.756
 3770POPC   GL248962  23.737  14.216   5.973
 3770POPC   C1A48963  23.752  14.660   6.183
 3770POPC   D2A48964  23.597  14.384   6.507
 3770POPC   C3A48965  23.739  14.472   6.925
 3770POPC   C4A48966  23.554  14.738   7.229
 3770POPC   C1B48967  24.065  14.252   6.325
 3770POPC   C2B48968  23.989  14.026   6.718
 3770POPC   C3B48969  23.839  14.017   7.148
 3770POPC   C4B48970  24.019  14.203   7.542
 3771POPC   NC348971   2.451  21.925   5.511
 3771POPC   PO448972   1.776  22.036   5.563
 3771POPC   GL148973   1.949  22.307   5.878
 3771POPC   GL248974   2.330  22.312   5.822
 3771POPC   C1A48975   1.806  22.299   6.309
 3771POPC   D2A48976   1.740  21.966   6.635
 3771POPC   C3A48977   1.726  22.147   7.055
 3771POPC   C4A48978   1.704  22.620   7.143
 3771POPC   C1B48979   2.255  22.025   6.189
 3771POPC   C2B48980   2.219  22.180   6.607
 3771POPC   C3B48981   2.202  22.339   7.031
 3771POPC   C4B48982   2.236  22.015   7.335
 3772POPC   NC348983  24.401   0.017   5.546
 3772POPC   PO448984  24.612  44.445   5.246
 3772POPC   GL148985  24.566  44.518   5.705
 3772POPC   GL248986  24.663  44.216   5.880
 3772POPC   C1A48987  24.544  44.731   6.125
 3772POPC   D2A48988  24.685  44.784   6.561
 3772POPC   C3A48989  24.353  44.819   6.857
 3772POPC   C4A48990  24.315  44.810   7.310
 3772POPC   C1B48991  24.343  44.268   6.239
 3772POPC   C2B48992  24.248  44.338   6.693
 3772POPC   C3B48993  24.491  44.372   7.104
 3772POPC   C4B48994  24.682  44.402   7.520
 3773POPC   NC348995  36.459  35.100   5.050
 3773POPC   PO448996  36.576  35.554   5.554
 3773POPC   GL148997  36.523  35.321   5.895
 3773POPC   GL248998  36.188  35.254   5.766
 3773POPC   C1A48999  36.404  35.410   6.308
 3773POPC   D2A49000  35.971  35.502   6.405
 3773POPC   C3A49001  35.918  35.539   6.834
 3773POPC   C4A49002  35.904  35.634   7.242
 3773POPC   C1B49003  36.067  35.061   6.143
 3773POPC   C2B49004  36.164  35.054   6.603
 3773POPC   C3B49005  36.023  35.079   7.043
 3773POPC   C4B49006  36.206  34.786   7.326
 3774POPC   NC349007  11.172  29.267   5.566
 3774POPC   PO449008  11.445  28.728   5.277
 3774POPC   GL149009  11.440  28.935   5.814
 3774POPC   GL249010  11.183  28.872   6.094
 3774POPC   C1A49011  11.503  29.319   6.139
 3774POPC   D2A49012  11.441  29.538   6.567
 3774POPC   C3A49013  11.488  29.347   6.993
 3774POPC   C4A49014  11.481  29.304   7.448
 3774POPC   C1B49015  11.073  29.210   6.410
 3774POPC   C2B49016  10.969  29.369   6.836
 3774POPC   C3B49017  10.986  29.108   7.220
 3774POPC   C4B49018  11.074  28.987   7.654
 3775POPC   NC349019  29.061  25.420   5.420
 3775POPC   PO449020  29.407  24.836   5.502
 3775POPC   GL149021  29.033  25.053   5.803
 3775POPC   GL249022  28.843  25.399   5.873
 3775POPC   C1A49023  28.983  25.100   6.264
 3775POPC   D2A49024  29.227  24.970   6.608
 3775POPC   C3A49025  29.030  25.149   6.922
 3775POPC   C4A49026  28.995  25.244   7.320
 3775POPC   C1B49027  29.232  25.494   6.099
 3775POPC   C2B49028  29.203  25.503   6.560
 3775POPC   C3B49029  29.058  25.657   6.974
 3775POPC   C4B49030  29.304  25.710   7.377
 3776POPC   NC349031   8.107  42.206   5.287
 3776POPC   PO449032   8.682  42.375   5.166
 3776POPC   GL149033   8.501  42.388   5.652
 3776POPC   GL249034   8.340  42.056   5.785
 3776POPC   C1A49035   8.342  42.454   6.124
 3776POPC   D2A49036   8.351  42.258   6.580
 3776POPC   C3A49037   8.373  42.425   7.038
 3776POPC   C4A49038   8.039  42.440   7.357
 3776POPC   C1B49039   8.062  41.975   6.168
 3776POPC   C2B49040   7.884  41.914   6.591
 3776POPC   C3B49041   7.998  42.047   7.010
 3776POPC   C4B49042   8.060  41.931   7.445
 3777POPC   NC349043   8.400  15.029   5.415
 3777POPC   PO449044   7.786  14.929   5.604
 3777POPC   GL149045   7.935  14.966   5.976
 3777POPC   GL249046   8.231  15.159   5.894
 3777POPC   C1A49047   8.073  14.978   6.393
 3777POPC   D2A49048   8.432  14.805   6.598
 3777POPC   C3A49049   8.505  14.953   7.021
 3777POPC   C4A49050   8.211  14.816   7.362
 3777POPC   C1B49051   8.576  15.061   6.181
 3777POPC   C2B49052   8.552  15.307   6.580
 3777POPC   C3B49053   8.241  15.391   6.923
 3777POPC   C4B49054   8.338  15.312   7.382
 3778POPC   NC349055  36.527  37.678   5.419
 3778POPC   PO449056  37.068  37.357   5.321
 3778POPC   GL149057  36.748  37.359   5.756
 3778POPC   GL249058  36.732  37.747   5.871
 3778POPC   C1A49059  36.697  37.442   6.261
 3778POPC   D2A49060  37.100  37.671   6.464
 3778POPC   C3A49061  37.261  37.511   6.848
 3778POPC   C4A49062  37.144  37.470   7.263
 3778POPC   C1B49063  36.764  37.987   6.251
 3778POPC   C2B49064  36.747  37.989   6.694
 3778POPC   C3B49065  36.754  37.799   7.120
 3778POPC   C4B49066  36.762  37.914   7.587
 3779POPC   NC349067  15.132  40.917   5.314
 3779POPC   PO449068  15.414  40.384   5.546
 3779POPC   GL149069  15.236  40.600   5.876
 3779POPC   GL249070  15.298  40.965   5.844
 3779POPC   C1A49071  15.289  40.612   6.323
 3779POPC   D2A49072  15.333  40.352   6.693
 3779POPC   C3A49073  15.203  40.546   7.052
 3779POPC   C4A49074  14.844  40.747   7.094
 3779POPC   C1B49075  15.225  41.139   6.274
 3779POPC   C2B49076  15.297  41.292   6.710
 3779POPC   C3B49077  15.216  41.084   7.121
 3779POPC   C4B49078  15.376  41.041   7.566
 3780POPC   NC349079  28.937  36.983   5.412
 3780POPC   PO449080  29.566  37.253   5.449
 3780POPC   GL149081  29.311  37.139   5.818
 3780POPC   GL249082  29.129  36.774   5.842
 3780POPC   C1A49083  29.439  36.958   6.219
 3780POPC   D2A49084  29.245  37.034   6.609
 3780POPC   C3A49085  29.409  36.948   7.004
 3780POPC   C4A49086  29.361  36.656   7.295
 3780POPC   C1B49087  28.943  37.064   6.153
 3780POPC   C2B49088  28.874  37.347   6.503
 3780POPC   C3B49089  28.948  37.270   6.965
 3780POPC   C4B49090  28.923  36.846   7.173
 3781POPC   NC349091  33.811  34.869   5.337
 3781POPC   PO449092  33.613  35.402   5.513
 3781POPC   GL149093  33.684  35.290   5.913
 3781POPC   GL249094  33.785  34.941   5.891
 3781POPC   C1A49095  33.678  35.533   6.276
 3781POPC   D2A49096  33.659  35.391   6.697
 3781POPC   C3A49097  33.568  35.029   6.934
 3781POPC   C4A49098  33.642  35.160   7.389
 3781POPC   C1B49099  34.036  35.108   6.244
 3781POPC   C2B49100  34.213  35.151   6.661
 3781POPC   C3B49101  34.021  35.222   7.050
 3781POPC   C4B49102  33.783  35.592   7.152
 3782POPC   NC349103  13.588  11.514   5.303
 3782POPC   PO449104  13.499  10.897   5.085
 3782POPC   GL149105  13.622  11.097   5.626
 3782POPC   GL249106  13.728  11.406   5.779
 3782POPC   C1A49107  13.415  11.252   6.127
 3782POPC   D2A49108  13.404  11.033   6.526
 3782POPC   C3A49109  13.428  11.223   6.926
 3782POPC   C4A49110  13.221  11.106   7.290
 3782POPC   C1B49111  13.894  11.184   6.138
 3782POPC   C2B49112  13.856  11.356   6.558
 3782POPC   C3B49113  13.921  11.291   6.978
 3782POPC   C4B49114  13.668  11.359   7.347
 3783POPC   NC349115  36.905   7.814   5.459
 3783POPC   PO449116  36.687   7.216   5.478
 3783POPC   GL149117  36.935   7.415   5.799
 3783POPC   GL249118  37.280   7.579   5.717
 3783POPC   C1A49119  36.812   7.509   6.236
 3783POPC   D2A49120  36.696   7.206   6.581
 3783POPC   C3A49121  36.746   7.289   7.030
 3783POPC   C4A49122  36.911   7.626   7.192
 3783POPC   C1B49123  37.331   7.407   6.145
 3783POPC   C2B49124  37.182   7.495   6.581
 3783POPC   C3B49125  37.296   7.341   6.967
 3783POPC   C4B49126  37.309   7.067   7.284
 3784POPC   NC349127  26.891  14.064   5.121
 3784POPC   PO449128  26.721  14.674   5.468
 3784POPC   GL149129  26.921  14.443   5.773
 3784POPC   GL249130  26.780  14.112   5.830
 3784POPC   C1A49131  26.971  14.458   6.186
 3784POPC   D2A49132  26.697  14.364   6.489
 3784POPC   C3A49133  26.982  14.288   6.809
 3784POPC   C4A49134  27.022  14.344   7.229
 3784POPC   C1B49135  26.873  13.926   6.258
 3784POPC   C2B49136  26.673  13.892   6.668
 3784POPC   C3B49137  26.532  14.250   6.998
 3784POPC   C4B49138  26.568  14.206   7.423
 3785POPC   NC349139  33.611  32.500   5.461
 3785POPC   PO449140  34.236  32.290   5.278
 3785POPC   GL149141  34.015  32.366   5.754
 3785POPC   GL249142  33.669  32.230   5.884
 3785POPC   C1A49143  34.016  32.325   6.240
 3785POPC   D2A49144  33.717  32.272   6.590
 3785POPC   C3A49145  33.904  32.277   6.990
 3785POPC   C4A49146  34.247  32.503   7.243
 3785POPC   C1B49147  33.395  32.046   6.228
 3785POPC   C2B49148  33.395  31.846   6.659
 3785POPC   C3B49149  33.421  32.037   7.044
 3785POPC   C4B49150  33.357  32.361   7.343
 3786POPC   NC349151  24.127  26.448   5.545
 3786POPC   PO449152  24.670  26.030   5.286
 3786POPC   GL149153  24.506  25.895   5.743
 3786POPC   GL249154  24.172  26.017   5.836
 3786POPC   C1A49155  24.483  25.849   6.224
 3786POPC   D2A49156  24.492  26.131   6.592
 3786POPC   C3A49157  24.383  25.905   6.953
 3786POPC   C4A49158  24.494  25.904   7.342
 3786POPC   C1B49159  24.220  26.302   6.180
 3786POPC   C2B49160  24.095  26.479   6.548
 3786POPC   C3B49161  24.171  26.417   6.940
 3786POPC   C4B49162  24.184  26.299   7.356
 3787POPC   NC349163  21.827  41.188   5.643
 3787POPC   PO449164  22.293  41.574   5.412
 3787POPC   GL149165  22.305  41.343   5.787
 3787POPC   GL249166  22.541  41.134   5.737
 3787POPC   C1A49167  22.212  41.418   6.234
 3787POPC   D2A49168  22.090  41.280   6.660
 3787POPC   C3A49169  21.994  41.664   6.869
 3787POPC   C4A49170  21.729  41.887   7.144
 3787POPC   C1B49171  22.552  41.052   6.167
 3787POPC   C2B49172  22.608  41.265   6.540
 3787POPC   C3B49173  22.510  41.077   6.937
 3787POPC   C4B49174  22.289  41.372   7.153
 3788POPC   NC349175   6.252   7.605   5.338
 3788POPC   PO449176   6.702   7.157   5.470
 3788POPC   GL149177   6.456   7.454   5.802
 3788POPC   GL249178   6.232   7.775   5.800
 3788POPC   C1A49179   6.579   7.523   6.263
 3788POPC   D2A49180   6.678   7.293   6.670
 3788POPC   C3A49181   6.813   7.483   7.056
 3788POPC   C4A49182   6.902   7.414   7.490
 3788POPC   C1B49183   6.128   7.732   6.187
 3788POPC   C2B49184   6.258   7.882   6.570
 3788POPC   C3B49185   6.331   7.661   6.943
 3788POPC   C4B49186   6.465   7.740   7.364
 3789POPC   NC349187   9.593  40.282   5.179
 3789POPC   PO449188   9.990  39.881   5.581
 3789POPC   GL149189   9.750  40.065   5.848
 3789POPC   GL249190   9.434  39.884   5.853
 3789POPC   C1A49191   9.916  40.015   6.261
 3789POPC   D2A49192   9.795  40.011   6.690
 3789POPC   C3A49193  10.040  40.183   7.035
 3789POPC   C4A49194   9.782  40.247   7.368
 3789POPC   C1B49195   9.428  40.166   6.231
 3789POPC   C2B49196   9.271  40.085   6.642
 3789POPC   C3B49197   9.426  40.026   7.071
 3789POPC   C4B49198   9.802  39.751   7.168
 3790POPC   NC349199  26.410  42.840   5.512
 3790POPC   PO449200  25.727  43.023   5.529
 3790POPC   GL149201  25.770  43.055   5.934
 3790POPC   GL249202  26.025  42.778   5.919
 3790POPC   C1A49203  25.887  43.345   6.292
 3790POPC   D2A49204  26.126  43.343   6.689
 3790POPC   C3A49205  25.948  43.288   7.103
 3790POPC   C4A49206  25.969  43.150   7.544
 3790POPC   C1B49207  25.876  42.832   6.368
 3790POPC   C2B49208  25.780  42.938   6.786
 3790POPC   C3B49209  25.995  42.780   7.139
 3790POPC   C4B49210  26.285  42.745   7.489
 3791POPC   NC349211  42.131   3.674   5.244
 3791POPC   PO449212  41.774   3.207   5.491
 3791POPC   GL149213  42.134   3.339   5.752
 3791POPC   GL249214  42.170   3.711   5.773
 3791POPC   C1A49215  42.263   3.357   6.188
 3791POPC   D2A49216  42.263   3.609   6.549
 3791POPC   C3A49217  42.527   3.527   6.850
 3791POPC   C4A49218  42.300   3.326   7.170
 3791POPC   C1B49219  42.426   3.831   6.122
 3791POPC   C2B49220  42.531   4.040   6.501
 3791POPC   C3B49221  42.610   4.026   6.934
 3791POPC   C4B49222  42.375   3.837   7.246
 3792POPC   NC349223  36.610  22.340   5.114
 3792POPC   PO449224  36.201  21.861   5.172
 3792POPC   GL149225  36.044  21.879   5.642
 3792POPC   GL249226  35.674  21.929   5.645
 3792POPC   C1A49227  36.180  22.036   6.117
 3792POPC   D2A49228  36.417  22.072   6.563
 3792POPC   C3A49229  36.386  22.239   7.027
 3792POPC   C4A49230  36.621  22.236   7.458
 3792POPC   C1B49231  35.687  21.851   6.099
 3792POPC   C2B49232  35.798  22.141   6.440
 3792POPC   C3B49233  35.760  22.326   6.827
 3792POPC   C4B49234  35.904  22.104   7.148
 3793POPC   NC349235  28.645   1.821   5.458
 3793POPC   PO449236  28.208   2.239   5.578
 3793POPC   GL149237  28.143   2.086   5.934
 3793POPC   GL249238  28.479   1.933   5.924
 3793POPC   C1A49239  28.306   2.163   6.330
 3793POPC   D2A49240  28.533   2.014   6.622
 3793POPC   C3A49241  28.446   2.216   6.975
 3793POPC   C4A49242  28.372   1.986   7.326
 3793POPC   C1B49243  28.642   1.663   6.224
 3793POPC   C2B49244  28.653   1.497   6.633
 3793POPC   C3B49245  28.747   1.730   7.011
 3793POPC   C4B49246  28.715   1.452   7.314
 3794POPC   NC349247  33.759  26.998   5.491
 3794POPC   PO449248  33.712  26.458   5.154
 3794POPC   GL149249  33.985  26.549   5.642
 3794POPC   GL249250  33.810  26.348   5.885
 3794POPC   C1A49251  33.844  26.809   6.110
 3794POPC   D2A49252  33.763  27.127   6.432
 3794POPC   C3A49253  33.559  27.082   6.855
 3794POPC   C4A49254  33.649  27.254   7.271
 3794POPC   C1B49255  33.711  26.361   6.326
 3794POPC   C2B49256  33.844  26.655   6.639
 3794POPC   C3B49257  33.865  26.687   7.069
 3794POPC   C4B49258  34.253  26.551   7.271
 3795POPC   NC349259   7.040  26.517   5.419
 3795POPC   PO449260   7.746  26.739   5.480
 3795POPC   GL149261   7.395  26.699   5.758
 3795POPC   GL249262   7.331  27.082   5.749
 3795POPC   C1A49263   7.377  26.504   6.192
 3795POPC   D2A49264   7.515  26.756   6.553
 3795POPC   C3A49265   7.442  26.677   6.986
 3795POPC   C4A49266   7.676  26.845   7.320
 3795POPC   C1B49267   7.184  26.974   6.135
 3795POPC   C2B49268   7.026  26.918   6.513
 3795POPC   C3B49269   7.112  27.061   6.910
 3795POPC   C4B49270   7.167  26.948   7.335
 3796POPC   NC349271  37.697  33.000   5.555
 3796POPC   PO449272  37.452  33.605   5.555
 3796POPC   GL149273  37.660  33.411   5.916
 3796POPC   GL249274  37.981  33.311   5.878
 3796POPC   C1A49275  37.705  33.041   6.215
 3796POPC   D2A49276  37.708  32.870   6.628
 3796POPC   C3A49277  37.307  32.890   6.880
 3796POPC   C4A49278  37.229  32.696   7.300
 3796POPC   C1B49279  38.112  33.590   6.225
 3796POPC   C2B49280  38.188  33.531   6.657
 3796POPC   C3B49281  38.057  33.159   6.870
 3796POPC   C4B49282  37.750  32.950   7.150
 3797POPC   NC349283  38.148  27.803   5.585
 3797POPC   PO449284  38.725  27.414   5.387
 3797POPC   GL149285  38.478  27.444   5.751
 3797POPC   GL249286  38.745  27.323   5.915
 3797POPC   C1A49287  38.357  27.556   6.202
 3797POPC   D2A49288  38.485  27.572   6.664
 3797POPC   C3A49289  38.399  27.246   6.921
 3797POPC   C4A49290  38.233  27.373   7.330
 3797POPC   C1B49291  38.806  27.764   6.091
 3797POPC   C2B49292  38.566  28.002   6.430
 3797POPC   C3B49293  38.459  28.053   6.928
 3797POPC   C4B49294  38.518  27.801   7.354
 3798POPC   NC349295  12.120  33.697   5.369
 3798POPC   PO449296  11.533  34.053   5.566
 3798POPC   GL149297  11.850  33.839   5.803
 3798POPC   GL249298  12.195  33.926   5.815
 3798POPC   C1A49299  11.836  33.724   6.223
 3798POPC   D2A49300  11.687  33.864   6.634
 3798POPC   C3A49301  11.901  33.829   7.042
 3798POPC   C4A49302  11.978  33.956   7.470
 3798POPC   C1B49303  12.349  33.708   6.176
 3798POPC   C2B49304  12.189  33.610   6.606
 3798POPC   C3B49305  12.224  33.418   7.022
 3798POPC   C4B49306  12.235  33.531   7.468
 3799POPC   NC349307  19.533   1.059   5.203
 3799POPC   PO449308  20.229   0.833   5.322
 3799POPC   GL149309  20.104   1.012   5.751
 3799POPC   GL249310  19.835   1.223   5.728
 3799POPC   C1A49311  19.910   1.042   6.184
 3799POPC   D2A49312  19.992   0.967   6.581
 3799POPC   C3A49313  20.074   1.308   6.822
 3799POPC   C4A49314  20.108   1.339   7.241
 3799POPC   C1B49315  19.644   1.460   6.102
 3799POPC   C2B49316  19.619   1.352   6.589
 3799POPC   C3B49317  19.645   1.498   7.057
 3799POPC   C4B49318  19.358   1.589   7.411
 3800POPC   NC349319  34.698  28.873   5.477
 3800POPC   PO449320  34.598  29.549   5.332
 3800POPC   GL149321  34.406  29.404   5.801
 3800POPC   GL249322  34.370  29.042   5.847
 3800POPC   C1A49323  34.437  29.463   6.261
 3800POPC   D2A49324  34.349  29.233   6.682
 3800POPC   C3A49325  34.538  29.289   7.077
 3800POPC   C4A49326  34.242  29.473   7.300
 3800POPC   C1B49327  34.447  28.929   6.287
 3800POPC   C2B49328  34.206  28.744   6.649
 3800POPC   C3B49329  34.340  28.782   7.088
 3800POPC   C4B49330  34.770  28.813   7.168
 3801POPC   NC349331  27.061  22.919   5.314
 3801POPC   PO449332  26.955  23.550   5.425
 3801POPC   GL149333  26.921  23.283   5.811
 3801POPC   GL249334  26.909  22.907   5.807
 3801POPC   C1A49335  26.784  23.184   6.232
 3801POPC   D2A49336  26.843  23.286   6.642
 3801POPC   C3A49337  26.708  23.080   6.995
 3801POPC   C4A49338  26.883  23.209   7.353
 3801POPC   C1B49339  26.670  22.681   6.144
 3801POPC   C2B49340  26.768  22.739   6.583
 3801POPC   C3B49341  26.935  22.592   6.966
 3801POPC   C4B49342  26.822  22.696   7.374
 3802POPC   NC349343  17.679  17.100   5.244
 3802POPC   PO449344  17.882  17.764   5.006
 3802POPC   GL149345  17.779  17.573   5.460
 3802POPC   GL249346  17.858  17.831   5.707
 3802POPC   C1A49347  17.640  17.423   5.938
 3802POPC   D2A49348  17.387  17.289   6.344
 3802POPC   C3A49349  17.480  17.307   6.818
 3802POPC   C4A49350  17.352  17.498   7.225
 3802POPC   C1B49351  17.744  17.878   6.161
 3802POPC   C2B49352  17.823  17.552   6.483
 3802POPC   C3B49353  17.956  17.501   6.923
 3802POPC   C4B49354  17.837  17.852   7.194
 3803POPC   NC349355  25.293   4.467   5.223
 3803POPC   PO449356  25.246   5.178   5.332
 3803POPC   GL149357  25.313   5.201   5.767
 3803POPC   GL249358  25.269   4.843   5.812
 3803POPC   C1A49359  25.158   5.351   6.148
 3803POPC   D2A49360  24.987   5.152   6.522
 3803POPC   C3A49361  25.164   5.202   6.937
 3803POPC   C4A49362  24.958   4.979   7.251
 3803POPC   C1B49363  25.397   4.905   6.243
 3803POPC   C2B49364  25.580   4.875   6.633
 3803POPC   C3B49365  25.387   4.751   7.031
 3803POPC   C4B49366  25.399   4.861   7.466
 3804POPC   NC349367  25.488  32.604   5.645
 3804POPC   PO449368  25.213  31.981   5.351
 3804POPC   GL149369  25.121  32.213   5.754
 3804POPC   GL249370  24.865  32.457   5.666
 3804POPC   C1A49371  25.180  32.245   6.263
 3804POPC   D2A49372  25.346  31.956   6.642
 3804POPC   C3A49373  25.486  32.100   7.074
 3804POPC   C4A49374  25.579  32.531   7.214
 3804POPC   C1B49375  24.702  32.262   6.065
 3804POPC   C2B49376  24.697  32.386   6.484
 3804POPC   C3B49377  24.998  32.335   6.782
 3804POPC   C4B49378  25.005  32.242   7.166
 3805POPC   NC349379  43.299   9.246   5.407
 3805POPC   PO449380  42.998   8.603   5.463
 3805POPC   GL149381  43.182   8.811   5.772
 3805POPC   GL249382  42.872   8.810   5.921
 3805POPC   C1A49383  43.295   9.017   6.154
 3805POPC   D2A49384  43.519   9.000   6.541
 3805POPC   C3A49385  43.381   9.114   6.935
 3805POPC   C4A49386  43.431   8.847   7.294
 3805POPC   C1B49387  42.766   8.880   6.323
 3805POPC   C2B49388  42.946   9.108   6.647
 3805POPC   C3B49389  42.930   8.955   7.085
 3805POPC   C4B49390  42.748   8.747   7.428
 3806POPC   NC349391  43.800  25.329   5.292
 3806POPC   PO449392  44.090  24.804   5.453
 3806POPC   GL149393  44.036  25.066   5.846
 3806POPC   GL249394  44.128  25.411   5.791
 3806POPC   C1A49395  44.117  25.177   6.293
 3806POPC   D2A49396  44.039  25.196   6.732
 3806POPC   C3A49397  44.227  25.019   7.081
 3806POPC   C4A49398  43.896  25.006   7.267
 3806POPC   C1B49399  43.893  25.635   6.124
 3806POPC   C2B49400  43.774  25.599   6.553
 3806POPC   C3B49401  43.708  25.503   6.987
 3806POPC   C4B49402  44.041  25.485   7.278
 3807POPC   NC349403  14.748   7.877   5.432
 3807POPC   PO449404  15.337   8.144   5.192
 3807POPC   GL149405  15.158   8.243   5.636
 3807POPC   GL249406  15.096   7.927   5.848
 3807POPC   C1A49407  15.069   8.399   6.088
 3807POPC   D2A49408  14.993   8.248   6.548
 3807POPC   C3A49409  15.135   8.446   6.944
 3807POPC   C4A49410  15.246   8.259   7.344
 3807POPC   C1B49411  15.188   7.641   6.220
 3807POPC   C2B49412  15.102   7.577   6.674
 3807POPC   C3B49413  15.177   7.809   7.052
 3807POPC   C4B49414  14.837   8.070   7.069
 3808POPC   NC349415  10.565  23.174   5.492
 3808POPC   PO449416  10.645  22.552   5.450
 3808POPC   GL149417  10.580  22.752   5.872
 3808POPC   GL249418  10.419  23.063   5.964
 3808POPC   C1A49419  10.443  22.687   6.308
 3808POPC   D2A49420  10.415  22.956   6.675
 3808POPC   C3A49421  10.564  22.793   7.045
 3808POPC   C4A49422  10.386  22.557   7.365
 3808POPC   C1B49423  10.746  23.092   6.296
 3808POPC   C2B49424  10.857  23.226   6.728
 3808POPC   C3B49425  10.846  23.213   7.190
 3808POPC   C4B49426  11.108  23.156   7.565
 3809POPC   NC349427   5.885   1.368   5.368
 3809POPC   PO449428   5.810   0.824   5.608
 3809POPC   GL149429   5.956   1.124   5.871
 3809POPC   GL249430   5.808   1.448   5.878
 3809POPC   C1A49431   6.096   1.236   6.269
 3809POPC   D2A49432   6.157   1.041   6.661
 3809POPC   C3A49433   5.842   0.880   6.896
 3809POPC   C4A49434   5.795   1.035   7.283
 3809POPC   C1B49435   5.639   1.565   6.264
 3809POPC   C2B49436   5.709   1.632   6.673
 3809POPC   C3B49437   5.638   1.513   7.103
 3809POPC   C4B49438   5.305   1.600   7.351
 3810POPC   NC349439  41.751  29.629   5.335
 3810POPC   PO449440  41.235  29.992   5.382
 3810POPC   GL149441  41.399  30.030   5.823
 3810POPC   GL249442  41.653  29.803   5.854
 3810POPC   C1A49443  41.406  30.039   6.269
 3810POPC   D2A49444  41.376  30.098   6.710
 3810POPC   C3A49445  41.310  30.095   7.141
 3810POPC   C4A49446  41.720  30.151   7.261
 3810POPC   C1B49447  41.378  29.545   6.166
 3810POPC   C2B49448  41.366  29.591   6.622
 3810POPC   C3B49449  41.602  29.689   7.013
 3810POPC   C4B49450  41.482  29.725   7.466
 3811POPC   NC349451  36.292  21.406   5.282
 3811POPC   PO449452  36.010  20.779   5.220
 3811POPC   GL149453  36.123  21.053   5.632
 3811POPC   GL249454  35.903  21.362   5.647
 3811POPC   C1A49455  36.120  21.044   6.133
 3811POPC   D2A49456  36.287  21.124   6.541
 3811POPC   C3A49457  36.072  21.261   6.886
 3811POPC   C4A49458  36.286  21.184   7.255
 3811POPC   C1B49459  36.115  21.534   6.036
 3811POPC   C2B49460  36.071  21.665   6.484
 3811POPC   C3B49461  36.217  21.753   6.907
 3811POPC   C4B49462  36.033  21.610   7.265
 3812POPC   NC349463  33.624  10.647   5.560
 3812POPC   PO449464  34.089  10.348   5.064
 3812POPC   GL149465  34.086  10.351   5.591
 3812POPC   GL249466  33.776  10.209   5.771
 3812POPC   C1A49467  34.141  10.429   6.104
 3812POPC   D2A49468  34.004  10.418   6.583
 3812POPC   C3A49469  34.027  10.557   7.056
 3812POPC   C4A49470  33.796  10.759   7.410
 3812POPC   C1B49471  33.615  10.458   6.173
 3812POPC   C2B49472  33.540  10.660   6.560
 3812POPC   C3B49473  33.525  10.583   6.982
 3812POPC   C4B49474  33.545  10.312   7.358
 3813POPC   NC349475  22.791  37.092   5.520
 3813POPC   PO449476  22.911  36.442   5.625
 3813POPC   GL149477  22.728  36.754   5.882
 3813POPC   GL249478  23.011  36.712   6.097
 3813POPC   C1A49479  22.635  37.023   6.238
 3813POPC   D2A49480  22.819  36.857   6.629
 3813POPC   C3A49481  22.652  37.000   6.979
 3813POPC   C4A49482  22.514  37.100   7.349
 3813POPC   C1B49483  23.168  37.062   6.346
 3813POPC   C2B49484  23.403  37.099   6.648
 3813POPC   C3B49485  23.172  36.982   7.009
 3813POPC   C4B49486  22.971  37.296   7.228
 3814POPC   NC349487  40.540  25.514   5.348
 3814POPC   PO449488  41.037  25.132   5.613
 3814POPC   GL149489  40.839  25.366   5.892
 3814POPC   GL249490  40.495  25.286   5.838
 3814POPC   C1A49491  41.052  25.368   6.268
 3814POPC   D2A49492  41.001  25.108   6.586
 3814POPC   C3A49493  40.969  25.349   6.902
 3814POPC   C4A49494  40.719  25.303   7.251
 3814POPC   C1B49495  40.533  25.178   6.314
 3814POPC   C2B49496  40.555  24.815   6.639
 3814POPC   C3B49497  40.514  24.834   7.110
 3814POPC   C4B49498  40.447  24.800   7.604
 3815POPC   NC349499  43.619  39.461   5.492
 3815POPC   PO449500  43.291  38.972   5.139
 3815POPC   GL149501  43.151  39.222   5.614
 3815POPC   GL249502  42.809  39.181   5.792
 3815POPC   C1A49503  43.234  39.291   6.104
 3815POPC   D2A49504  43.377  39.212   6.575
 3815POPC   C3A49505  43.268  39.377   7.034
 3815POPC   C4A49506  43.364  39.092   7.398
 3815POPC   C1B49507  42.793  39.098   6.268
 3815POPC   C2B49508  42.872  39.259   6.649
 3815POPC   C3B49509  42.654  39.112   6.981
 3815POPC   C4B49510  42.846  39.230   7.303
 3816POPC   NC349511  38.817  22.010   5.605
 3816POPC   PO449512  39.541  22.209   5.649
 3816POPC   GL149513  39.173  22.287   5.846
 3816POPC   GL249514  39.194  21.945   5.927
 3816POPC   C1A49515  38.976  22.232   6.270
 3816POPC   D2A49516  39.166  22.347   6.640
 3816POPC   C3A49517  38.986  22.295   7.035
 3816POPC   C4A49518  39.338  22.219   7.301
 3816POPC   C1B49519  39.430  21.923   6.288
 3816POPC   C2B49520  39.257  21.850   6.686
 3816POPC   C3B49521  39.141  21.799   7.077
 3816POPC   C4B49522  39.335  21.717   7.467
 3817POPC   NC349523   6.684   6.710   5.446
 3817POPC   PO449524   6.179   6.308   5.401
 3817POPC   GL149525   6.291   6.579   5.760
 3817POPC   GL249526   6.290   6.956   5.682
 3817POPC   C1A49527   6.622   6.655   6.106
 3817POPC   D2A49528   6.893   6.779   6.486
 3817POPC   C3A49529   6.980   6.472   6.837
 3817POPC   C4A49530   6.954   6.270   7.249
 3817POPC   C1B49531   6.339   7.072   6.110
 3817POPC   C2B49532   6.397   6.895   6.516
 3817POPC   C3B49533   6.590   6.806   6.900
 3817POPC   C4B49534   6.642   6.699   7.324
 3818POPC   NC349535  36.735  18.541   5.313
 3818POPC   PO449536  36.767  17.911   5.365
 3818POPC   GL149537  36.936  18.094   5.770
 3818POPC   GL249538  36.938  18.473   5.796
 3818POPC   C1A49539  36.902  18.256   6.235
 3818POPC   D2A49540  36.772  18.503   6.598
 3818POPC   C3A49541  36.894  18.176   6.853
 3818POPC   C4A49542  37.102  18.165   7.214
 3818POPC   C1B49543  37.288  18.567   6.121
 3818POPC   C2B49544  37.292  18.412   6.572
 3818POPC   C3B49545  37.134  18.689   6.934
 3818POPC   C4B49546  37.139  18.761   7.414
 3819POPC   NC349547   7.703  14.071   5.433
 3819POPC   PO449548   7.267  13.594   5.182
 3819POPC   GL149549   7.409  13.579   5.633
 3819POPC   GL249550   7.725  13.704   5.776
 3819POPC   C1A49551   7.384  13.395   6.033
 3819POPC   D2A49552   7.260  13.489   6.449
 3819POPC   C3A49553   7.446  13.661   6.824
 3819POPC   C4A49554   7.288  13.440   7.192
 3819POPC   C1B49555   7.574  13.826   6.203
 3819POPC   C2B49556   7.486  14.132   6.493
 3819POPC   C3B49557   7.433  14.215   6.917
 3819POPC   C4B49558   7.375  13.941   7.267
 3820POPC   NC349559  36.536  34.916   5.573
 3820POPC   PO449560  36.896  34.381   5.481
 3820POPC   GL149561  36.978  34.396   5.855
 3820POPC   GL249562  36.660  34.548   5.926
 3820POPC   C1A49563  37.099  34.508   6.249
 3820POPC   D2A49564  36.969  34.637   6.637
 3820POPC   C3A49565  37.205  34.460   6.959
 3820POPC   C4A49566  37.135  34.706   7.282
 3820POPC   C1B49567  36.646  34.193   6.198
 3820POPC   C2B49568  36.879  34.135   6.568
 3820POPC   C3B49569  36.743  34.190   6.979
 3820POPC   C4B49570  36.716  34.155   7.399
 3821POPC   NC349571   1.457  13.343   5.694
 3821POPC   PO449572   1.214  12.874   5.268
 3821POPC   GL149573   1.180  12.782   5.790
 3821POPC   GL249574   0.785  12.776   5.768
 3821POPC   C1A49575   1.305  12.927   6.255
 3821POPC   D2A49576   1.403  12.806   6.703
 3821POPC   C3A49577   1.473  12.995   7.101
 3821POPC   C4A49578   1.258  12.932   7.487
 3821POPC   C1B49579   0.803  12.758   6.195
 3821POPC   C2B49580   0.910  12.900   6.585
 3821POPC   C3B49581   0.952  12.911   7.005
 3821POPC   C4B49582   0.746  12.688   7.262
 3822POPC   NC349583   3.584  18.868   5.458
 3822POPC   PO449584   3.684  19.453   5.781
 3822POPC   GL149585   3.753  19.121   6.099
 3822POPC   GL249586   3.588  18.818   5.990
 3822POPC   C1A49587   3.561  18.993   6.513
 3822POPC   D2A49588   3.311  19.173   6.867
 3822POPC   C3A49589   3.697  19.304   7.101
 3822POPC   C4A49590   3.967  19.005   7.323
 3822POPC   C1B49591   3.208  18.698   6.268
 3822POPC   C2B49592   3.308  18.565   6.713
 3822POPC   C3B49593   3.557  18.782   7.075
 3822POPC   C4B49594   3.384  19.064   7.415
 3823POPC   NC349595   5.632  39.423   5.477
 3823POPC   PO449596   6.035  38.896   5.570
 3823POPC   GL149597   5.926  39.101   5.912
 3823POPC   GL249598   5.581  39.028   5.844
 3823POPC   C1A49599   6.069  39.254   6.335
 3823POPC   D2A49600   5.976  39.474   6.740
 3823POPC   C3A49601   6.141  39.293   7.153
 3823POPC   C4A49602   6.076  39.379   7.602
 3823POPC   C1B49603   5.568  39.135   6.275
 3823POPC   C2B49604   5.498  39.281   6.670
 3823POPC   C3B49605   5.628  39.327   7.103
 3823POPC   C4B49606   5.664  39.096   7.447
 3824POPC   NC349607  41.681   0.025   5.539
 3824POPC   PO449608  41.440   0.557   5.363
 3824POPC   GL149609  41.629   0.516   5.802
 3824POPC   GL249610  41.786   0.234   5.975
 3824POPC   C1A49611  41.587   0.618   6.248
 3824POPC   D2A49612  41.369   0.528   6.623
 3824POPC   C3A49613  41.536   0.496   7.033
 3824POPC   C4A49614  41.550   0.786   7.360
 3824POPC   C1B49615  41.755   0.154   6.417
 3824POPC   C2B49616  41.820   0.049   6.856
 3824POPC   C3B49617  41.542  44.972   7.213
 3824POPC   C4B49618  41.318   0.034   7.607
 3825POPC   NC349619  35.561  41.983   5.443
 3825POPC   PO449620  35.150  42.516   5.339
 3825POPC   GL149621  35.016  42.439   5.748
 3825POPC   GL249622  35.170  42.117   5.763
 3825POPC   C1A49623  35.152  42.368   6.197
 3825POPC   D2A49624  35.416  42.586   6.500
 3825POPC   C3A49625  35.306  42.444   6.914
 3825POPC   C4A49626  35.549  42.433   7.303
 3825POPC   C1B49627  35.441  41.948   6.120
 3825POPC   C2B49628  35.485  42.093   6.542
 3825POPC   C3B49629  35.651  42.062   6.948
 3825POPC   C4B49630  35.321  41.978   7.203
 3826POPC   NC349631   5.378  15.951   5.393
 3826POPC   PO449632   4.807  15.752   5.738
 3826POPC   GL149633   5.187  15.839   5.859
 3826POPC   GL249634   5.390  15.570   5.751
 3826POPC   C1A49635   5.255  16.100   6.204
 3826POPC   D2A49636   5.000  16.163   6.570
 3826POPC   C3A49637   5.186  16.119   6.971
 3826POPC   C4A49638   4.974  16.171   7.334
 3826POPC   C1B49639   5.463  15.627   6.229
 3826POPC   C2B49640   5.428  15.803   6.648
 3826POPC   C3B49641   5.347  15.583   7.064
 3826POPC   C4B49642   5.108  15.658   7.447
 3827POPC   NC349643  34.801  34.736   5.379
 3827POPC   PO449644  34.182  34.785   5.600
 3827POPC   GL149645  34.519  34.740   5.859
 3827POPC   GL249646  34.746  34.456   5.818
 3827POPC   C1A49647  34.506  34.874   6.272
 3827POPC   D2A49648  34.769  34.752   6.550
 3827POPC   C3A49649  34.574  34.853   6.889
 3827POPC   C4A49650  34.497  34.820   7.269
 3827POPC   C1B49651  34.585  34.373   6.232
 3827POPC   C2B49652  34.360  34.435   6.616
 3827POPC   C3B49653  34.492  34.343   7.028
 3827POPC   C4B49654  34.818  34.416   7.321
 3828POPC   NC349655  10.432  20.045   5.565
 3828POPC   PO449656  10.000  19.513   5.603
 3828POPC   GL149657  10.398  19.616   5.859
 3828POPC   GL249658  10.753  19.798   5.865
 3828POPC   C1A49659  10.460  19.858   6.261
 3828POPC   D2A49660  10.497  20.181   6.561
 3828POPC   C3A49661  10.514  19.935   6.920
 3828POPC   C4A49662  10.532  19.750   7.312
 3828POPC   C1B49663  10.918  20.091   6.241
 3828POPC   C2B49664  10.968  20.216   6.717
 3828POPC   C3B49665  10.933  20.085   7.176
 3828POPC   C4B49666  10.684  20.142   7.607
 3829POPC   NC349667  38.168  26.277   5.487
 3829POPC   PO449668  38.808  26.583   5.485
 3829POPC   GL149669  38.587  26.285   5.819
 3829POPC   GL249670  38.658  25.935   5.943
 3829POPC   C1A49671  38.201  26.138   6.106
 3829POPC   D2A49672  37.998  25.966   6.425
 3829POPC   C3A49673  38.099  25.989   6.870
 3829POPC   C4A49674  38.323  26.132   7.214
 3829POPC   C1B49675  38.576  25.986   6.409
 3829POPC   C2B49676  38.662  26.148   6.822
 3829POPC   C3B49677  38.788  25.911   7.210
 3829POPC   C4B49678  38.684  26.061   7.668
 3830POPC   NC349679  26.641  11.622   5.533
 3830POPC   PO449680  27.149  11.166   5.428
 3830POPC   GL149681  26.941  10.993   5.813
 3830POPC   GL249682  26.690  11.265   5.917
 3830POPC   C1A49683  26.893  10.923   6.253
 3830POPC   D2A49684  26.684  11.272   6.476
 3830POPC   C3A49685  26.588  11.145   6.907
 3830POPC   C4A49686  26.882  10.922   7.143
 3830POPC   C1B49687  26.854  11.646   6.146
 3830POPC   C2B49688  27.047  11.715   6.533
 3830POPC   C3B49689  26.884  11.559   6.906
 3830POPC   C4B49690  26.523  11.606   7.134
 3831POPC   NC349691   8.781  18.201   5.284
 3831POPC   PO449692   9.136  18.687   5.497
 3831POPC   GL149693   8.995  18.347   5.739
 3831POPC   GL249694   8.775  18.573   5.908
 3831POPC   C1A49695   8.940  18.144   6.150
 3831POPC   D2A49696   8.869  18.297   6.567
 3831POPC   C3A49697   9.066  18.056   6.881
 3831POPC   C4A49698   9.019  17.897   7.276
 3831POPC   C1B49699   9.145  18.647   6.201
 3831POPC   C2B49700   9.283  18.583   6.638
 3831POPC   C3B49701   9.029  18.557   7.001
 3831POPC   C4B49702   9.177  18.699   7.372
 3832POPC   NC349703   3.211  13.475   5.618
 3832POPC   PO449704   3.453  14.038   5.623
 3832POPC   GL149705   3.604  13.743   5.904
 3832POPC   GL249706   3.296  13.692   6.068
 3832POPC   C1A49707   3.715  13.578   6.333
 3832POPC   D2A49708   3.566  13.853   6.682
 3832POPC   C3A49709   3.728  13.863   7.115
 3832POPC   C4A49710   3.640  14.005   7.551
 3832POPC   C1B49711   2.985  13.516   6.306
 3832POPC   C2B49712   3.233  13.446   6.637
 3832POPC   C3B49713   3.317  13.552   7.039
 3832POPC   C4B49714   3.683  13.331   7.134
 3833POPC   NC349715  35.531  40.442   5.561
 3833POPC   PO449716  35.132  40.894   5.347
 3833POPC   GL149717  35.209  40.848   5.797
 3833POPC   GL249718  35.152  40.568   5.894
 3833POPC   C1A49719  35.407  40.800   6.264
 3833POPC   D2A49720  35.379  41.104   6.600
 3833POPC   C3A49721  35.235  40.981   6.977
 3833POPC   C4A49722  35.540  40.721   7.126
 3833POPC   C1B49723  34.982  40.515   6.284
 3833POPC   C2B49724  35.176  40.543   6.687
 3833POPC   C3B49725  35.025  40.534   7.103
 3833POPC   C4B49726  35.282  40.500   7.485
 3834POPC   NC349727   8.850  17.337   5.380
 3834POPC   PO449728   9.161  17.949   5.352
 3834POPC   GL149729   8.944  17.812   5.748
 3834POPC   GL249730   8.602  17.709   5.647
 3834POPC   C1A49731   9.115  17.644   6.196
 3834POPC   D2A49732   9.353  17.451   6.595
 3834POPC   C3A49733   9.159  17.362   7.052
 3834POPC   C4A49734   9.064  17.454   7.531
 3834POPC   C1B49735   8.579  17.734   6.120
 3834POPC   C2B49736   8.763  17.793   6.546
 3834POPC   C3B49737   8.698  17.597   6.962
 3834POPC   C4B49738   8.604  17.622   7.407
 3835POPC   NC349739  36.825  16.172   5.510
 3835POPC   PO449740  37.275  15.713   5.564
 3835POPC   GL149741  37.036  15.861   5.891
 3835POPC   GL249742  36.723  15.718   5.781
 3835POPC   C1A49743  37.126  15.982   6.327
 3835POPC   D2A49744  37.131  15.672   6.630
 3835POPC   C3A49745  37.030  15.809   7.012
 3835POPC   C4A49746  37.036  16.218   7.185
 3835POPC   C1B49747  36.626  15.967   6.181
 3835POPC   C2B49748  36.667  15.920   6.632
 3835POPC   C3B49749  36.509  15.936   7.061
 3835POPC   C4B49750  36.696  15.748   7.407
 3836POPC   NC349751   0.027  12.435   5.456
 3836POPC   PO449752  44.868  11.689   5.399
 3836POPC   GL149753  44.600  11.912   5.728
 3836POPC   GL249754  44.644  12.281   5.777
 3836POPC   C1A49755  44.623  11.934   6.182
 3836POPC   D2A49756  44.907  11.932   6.561
 3836POPC   C3A49757  44.770  11.818   6.981
 3836POPC   C4A49758  44.573  12.006   7.320
 3836POPC   C1B49759  44.969  12.331   6.157
 3836POPC   C2B49760   0.090  12.423   6.620
 3836POPC   C3B49761  44.845  12.329   7.031
 3836POPC   C4B49762   0.046  12.134   7.434
 3837POPC   NC349763  35.245   9.632   5.220
 3837POPC   PO449764  35.644   9.853   5.695
 3837POPC   GL149765  35.332   9.670   5.925
 3837POPC   GL249766  35.111   9.476   5.728
 3837POPC   C1A49767  35.340   9.672   6.367
 3837POPC   D2A49768  35.268   9.974   6.690
 3837POPC   C3A49769  35.598  10.000   6.967
 3837POPC   C4A49770  35.487   9.722   7.250
 3837POPC   C1B49771  35.012   9.317   6.127
 3837POPC   C2B49772  34.894   9.488   6.503
 3837POPC   C3B49773  35.123   9.533   6.877
 3837POPC   C4B49774  35.058   9.458   7.291
 3838POPC   NC349775   2.237  34.293   5.397
 3838POPC   PO449776   2.200  33.583   5.395
 3838POPC   GL149777   2.029  33.706   5.803
 3838POPC   GL249778   2.014  34.081   5.822
 3838POPC   C1A49779   1.979  33.557   6.238
 3838POPC   D2A49780   1.968  33.397   6.663
 3838POPC   C3A49781   1.920  33.696   7.021
 3838POPC   C4A49782   1.682  33.621   7.404
 3838POPC   C1B49783   2.242  33.982   6.187
 3838POPC   C2B49784   2.468  34.046   6.548
 3838POPC   C3B49785   2.364  33.980   6.970
 3838POPC   C4B49786   2.201  34.095   7.328
 3839POPC   NC349787  15.898  40.288   5.233
 3839POPC   PO449788  15.960  41.015   5.179
 3839POPC   GL149789  15.854  40.738   5.635
 3839POPC   GL249790  15.898  40.973   5.913
 3839POPC   C1A49791  15.896  40.519   6.129
 3839POPC   D2A49792  15.843  40.463   6.618
 3839POPC   C3A49793  16.068  40.685   6.976
 3839POPC   C4A49794  16.075  40.559   7.436
 3839POPC   C1B49795  15.695  40.935   6.346
 3839POPC   C2B49796  15.519  40.832   6.761
 3839POPC   C3B49797  15.633  40.784   7.210
 3839POPC   C4B49798  15.903  41.060   7.489
 3840POPC   NC349799  44.401  20.797   5.496
 3840POPC   PO449800   0.022  20.652   5.375
 3840POPC   GL149801  44.822  20.497   5.724
 3840POPC   GL249802  44.770  20.822   5.834
 3840POPC   C1A49803  44.877  20.438   6.166
 3840POPC   D2A49804   0.018  20.273   6.565
 3840POPC   C3A49805  44.725  20.341   6.898
 3840POPC   C4A49806  44.840  20.413   7.316
 3840POPC   C1B49807  44.592  20.858   6.214
 3840POPC   C2B49808  44.836  20.746   6.579
 3840POPC   C3B49809  44.810  20.846   6.999
 3840POPC   C4B49810  44.500  20.798   7.323
 3841POPC   NC349811  43.614  28.416   5.392
 3841POPC   PO449812  44.210  28.440   5.531
 3841POPC   GL149813  43.920  28.486   5.819
 3841POPC   GL249814  43.810  28.162   5.805
 3841POPC   C1A49815  43.808  28.477   6.239
 3841POPC   D2A49816  43.943  28.697   6.579
 3841POPC   C3A49817  43.781  28.537   6.924
 3841POPC   C4A49818  43.856  28.430   7.340
 3841POPC   C1B49819  43.889  27.947   6.210
 3841POPC   C2B49820  44.072  27.872   6.607
 3841POPC   C3B49821  43.887  28.018   6.978
 3841POPC   C4B49822  43.765  27.953   7.397
 3842POPC   NC349823   2.332  44.597   5.408
 3842POPC   PO449824   2.901  44.812   5.051
 3842POPC   GL149825   2.813  44.732   5.595
 3842POPC   GL249826   2.500  44.884   5.787
 3842POPC   C1A49827   2.798  44.615   6.097
 3842POPC   D2A49828   2.777  44.357   6.484
 3842POPC   C3A49829   2.758  44.499   6.905
 3842POPC   C4A49830   2.962  44.554   7.269
 3842POPC   C1B49831   2.437  44.963   6.216
 3842POPC   C2B49832   2.478  44.776   6.585
 3842POPC   C3B49833   2.495  44.969   6.967
 3842POPC   C4B49834   2.633  44.922   7.355
 3843POPC   NC349835  22.860   3.180   5.489
 3843POPC   PO449836  22.985   2.474   5.516
 3843POPC   GL149837  22.800   2.732   5.843
 3843POPC   GL249838  23.102   2.902   5.853
 3843POPC   C1A49839  22.856   2.845   6.305
 3843POPC   D2A49840  22.855   2.610   6.696
 3843POPC   C3A49841  22.778   2.605   7.151
 3843POPC   C4A49842  22.527   2.940   7.324
 3843POPC   C1B49843  23.261   2.571   6.161
 3843POPC   C2B49844  23.316   2.432   6.585
 3843POPC   C3B49845  23.258   2.564   7.003
 3843POPC   C4B49846  23.222   2.721   7.444
 3844POPC   NC349847  23.779  27.887   5.239
 3844POPC   PO449848  23.639  27.249   5.330
 3844POPC   GL149849  23.652  27.387   5.739
 3844POPC   GL249850  23.984  27.439   5.892
 3844POPC   C1A49851  23.502  27.513   6.133
 3844POPC   D2A49852  23.669  27.753   6.451
 3844POPC   C3A49853  23.560  27.554   6.800
 3844POPC   C4A49854  23.693  27.707   7.154
 3844POPC   C1B49855  24.025  27.377   6.358
 3844POPC   C2B49856  24.044  27.355   6.826
 3844POPC   C3B49857  23.921  27.246   7.256
 3844POPC   C4B49858  24.115  27.240   7.661
 3845POPC   NC349859  16.590  26.531   5.550
 3845POPC   PO449860  17.096  26.937   5.402
 3845POPC   GL149861  16.912  26.796   5.809
 3845POPC   GL249862  16.591  26.972   5.869
 3845POPC   C1A49863  16.948  26.809   6.263
 3845POPC   D2A49864  16.978  27.061   6.665
 3845POPC   C3A49865  16.893  26.819   7.061
 3845POPC   C4A49866  16.896  26.636   7.491
 3845POPC   C1B49867  16.424  26.825   6.273
 3845POPC   C2B49868  16.553  26.634   6.677
 3845POPC   C3B49869  16.365  26.768   7.083
 3845POPC   C4B49870  16.346  27.140   7.382
 3846POPC   NC349871  23.212  31.197   5.387
 3846POPC   PO449872  22.820  31.718   5.475
 3846POPC   GL149873  22.955  31.647   5.885
 3846POPC   GL249874  22.978  31.289   5.908
 3846POPC   C1A49875  23.041  31.842   6.287
 3846POPC   D2A49876  22.822  31.808   6.686
 3846POPC   C3A49877  23.097  31.678   7.023
 3846POPC   C4A49878  22.973  31.629   7.481
 3846POPC   C1B49879  22.790  31.400   6.325
 3846POPC   C2B49880  22.588  31.289   6.719
 3846POPC   C3B49881  22.705  31.383   7.117
 3846POPC   C4B49882  23.126  31.192   7.273
 3847POPC   NC349883  21.428  15.661   5.439
 3847POPC   PO449884  21.557  15.071   5.201
 3847POPC   GL149885  21.361  15.181   5.632
 3847POPC   GL249886  21.543  15.429   5.857
 3847POPC   C1A49887  21.338  15.023   6.075
 3847POPC   D2A49888  21.218  15.173   6.463
 3847POPC   C3A49889  21.364  14.978   6.835
 3847POPC   C4A49890  21.274  15.087   7.241
 3847POPC   C1B49891  21.549  15.546   6.283
 3847POPC   C2B49892  21.525  15.489   6.724
 3847POPC   C3B49893  21.539  15.542   7.170
 3847POPC   C4B49894  21.691  15.332   7.533
 3848POPC   NC349895  43.625  18.001   5.532
 3848POPC   PO449896  43.975  18.442   5.298
 3848POPC   GL149897  44.028  18.264   5.715
 3848POPC   GL249898  43.720  18.363   5.877
 3848POPC   C1A49899  44.162  18.394   6.134
 3848POPC   D2A49900  44.191  18.488   6.574
 3848POPC   C3A49901  44.229  18.154   6.875
 3848POPC   C4A49902  44.216  18.318   7.264
 3848POPC   C1B49903  43.763  18.044   6.205
 3848POPC   C2B49904  43.750  18.242   6.609
 3848POPC   C3B49905  43.746  18.288   7.041
 3848POPC   C4B49906  43.564  17.935   7.262
 3849POPC   NC349907  23.862  10.987   5.254
 3849POPC   PO449908  23.655  11.490   5.250
 3849POPC   GL149909  23.604  11.368   5.698
 3849POPC   GL249910  23.912  11.254   5.875
 3849POPC   C1A49911  23.535  11.456   6.159
 3849POPC   D2A49912  23.514  11.541   6.607
 3849POPC   C3A49913  23.353  11.230   6.913
 3849POPC   C4A49914  23.548  10.996   7.248
 3849POPC   C1B49915  23.922  11.186   6.364
 3849POPC   C2B49916  23.845  11.158   6.811
 3849POPC   C3B49917  24.063  11.128   7.186
 3849POPC   C4B49918  23.973  10.995   7.616
 3850POPC   NC349919   6.164  40.513   5.586
 3850POPC   PO449920   5.850  39.875   5.492
 3850POPC   GL149921   6.113  39.953   5.811
 3850POPC   GL249922   5.901  40.188   5.962
 3850POPC   C1A49923   6.067  39.773   6.222
 3850POPC   D2A49924   5.843  39.960   6.553
 3850POPC   C3A49925   6.040  39.935   6.954
 3850POPC   C4A49926   5.881  39.729   7.302
 3850POPC   C1B49927   5.719  40.410   6.345
 3850POPC   C2B49928   5.474  40.309   6.731
 3850POPC   C3B49929   5.608  40.185   7.144
 3850POPC   C4B49930   6.008  40.237   7.366
 3851POPC   NC349931  38.965   3.027   5.377
 3851POPC   PO449932  39.228   2.488   5.261
 3851POPC   GL149933  39.193   2.690   5.717
 3851POPC   GL249934  38.923   2.881   5.873
 3851POPC   C1A49935  39.399   2.887   6.085
 3851POPC   D2A49936  39.448   2.843   6.540
 3851POPC   C3A49937  39.391   3.030   6.968
 3851POPC   C4A49938  39.411   2.871   7.406
 3851POPC   C1B49939  38.964   2.778   6.322
 3851POPC   C2B49940  38.992   2.761   6.753
 3851POPC   C3B49941  38.921   2.891   7.123
 3851POPC   C4B49942  38.949   2.626   7.416
 3852POPC   NC349943   9.279  19.068   5.258
 3852POPC   PO449944   8.634  18.958   5.163
 3852POPC   GL149945   8.759  19.040   5.645
 3852POPC   GL249946   9.094  19.157   5.741
 3852POPC   C1A49947   8.761  19.027   6.130
 3852POPC   D2A49948   8.699  19.219   6.532
 3852POPC   C3A49949   8.654  19.074   6.955
 3852POPC   C4A49950   8.779  18.989   7.409
 3852POPC   C1B49951   9.251  19.264   6.153
 3852POPC   C2B49952   9.210  19.082   6.551
 3852POPC   C3B49953   9.159  19.048   6.983
 3852POPC   C4B49954   9.372  19.175   7.331
 3853POPC   NC349955  13.585  34.454   5.302
 3853POPC   PO449956  13.984  34.955   5.368
 3853POPC   GL149957  13.715  34.765   5.735
 3853POPC   GL249958  13.471  34.476   5.800
 3853POPC   C1A49959  13.738  34.757   6.206
 3853POPC   D2A49960  13.920  34.967   6.594
 3853POPC   C3A49961  13.892  34.733   6.987
 3853POPC   C4A49962  13.547  34.743   7.295
 3853POPC   C1B49963  13.265  34.537   6.203
 3853POPC   C2B49964  13.434  34.544   6.626
 3853POPC   C3B49965  13.260  34.349   6.993
 3853POPC   C4B49966  13.263  34.335   7.443
 3854POPC   NC349967   6.818   3.054   5.524
 3854POPC   PO449968   6.241   2.596   5.495
 3854POPC   GL149969   6.513   2.700   5.845
 3854POPC   GL249970   6.766   2.412   5.929
 3854POPC   C1A49971   6.481   2.681   6.288
 3854POPC   D2A49972   6.732   2.437   6.539
 3854POPC   C3A49973   6.615   2.566   6.929
 3854POPC   C4A49974   6.567   2.629   7.379
 3854POPC   C1B49975   6.961   2.753   6.168
 3854POPC   C2B49976   7.093   2.989   6.525
 3854POPC   C3B49977   7.199   2.899   6.935
 3854POPC   C4B49978   7.099   3.078   7.354
 3855POPC   NC349979  42.043  41.463   5.155
 3855POPC   PO449980  42.344  41.953   5.425
 3855POPC   GL149981  42.235  41.641   5.765
 3855POPC   GL249982  42.520  41.570   5.995
 3855POPC   C1A49983  42.068  41.707   6.201
 3855POPC   D2A49984  42.300  41.530   6.541
 3855POPC   C3A49985  42.143  41.572   6.951
 3855POPC   C4A49986  42.346  41.600   7.364
 3855POPC   C1B49987  42.611  41.201   6.269
 3855POPC   C2B49988  42.544  41.055   6.674
 3855POPC   C3B49989  42.607  41.356   6.972
 3855POPC   C4B49990  42.718  41.248   7.363
 3856POPC   NC349991  40.521  14.023   5.491
 3856POPC   PO449992  39.841  13.804   5.589
 3856POPC   GL149993  40.223  13.777   5.849
 3856POPC   GL249994  40.349  14.103   5.957
 3856POPC   C1A49995  40.307  13.601   6.257
 3856POPC   D2A49996  39.902  13.550   6.525
 3856POPC   C3A49997  39.934  13.446   6.957
 3856POPC   C4A49998  40.244  13.449   7.290
 3856POPC   C1B49999  40.034  14.028   6.267
 3856POPC   C2B50000  40.216  13.974   6.653
 3856POPC   C3B50001  40.143  13.913   7.069
 3856POPC   C4B50002  39.779  13.795   7.301
 3857POPC   NC350003  13.468  20.106   5.387
 3857POPC   PO450004  14.068  19.858   5.484
 3857POPC   GL150005  13.843  20.029   5.808
 3857POPC   GL250006  13.576  19.815   5.803
 3857POPC   C1A50007  13.628  20.117   6.203
 3857POPC   D2A50008  13.751  20.091   6.611
 3857POPC   C3A50009  13.566  20.058   6.997
 3857POPC   C4A50010  13.279  19.961   7.303
 3857POPC   C1B50011  13.630  19.612   6.209
 3857POPC   C2B50012  13.906  19.616   6.561
 3857POPC   C3B50013  13.901  19.483   6.987
 3857POPC   C4B50014  13.646  19.616   7.345
 3858POPC   NC350015  40.443   0.890   5.510
 3858POPC   PO450016  41.064   1.088   5.155
 3858POPC   GL150017  40.995   1.135   5.689
 3858POPC   GL250018  40.672   1.231   5.819
 3858POPC   C1A50019  40.977   1.278   6.203
 3858POPC   D2A50020  40.672   1.288   6.546
 3858POPC   C3A50021  40.598   1.442   6.986
 3858POPC   C4A50022  40.868   1.269   7.277
 3858POPC   C1B50023  40.599   0.928   6.168
 3858POPC   C2B50024  40.493   0.774   6.610
 3858POPC   C3B50025  40.530   0.937   7.007
 3858POPC   C4B50026  40.703   0.811   7.398
 3859POPC   NC350027  12.739  40.984   5.673
 3859POPC   PO450028  13.064  40.539   5.313
 3859POPC   GL150029  13.144  40.587   5.766
 3859POPC   GL250030  13.260  40.926   5.851
 3859POPC   C1A50031  12.912  40.459   6.171
 3859POPC   D2A50032  12.848  40.286   6.608
 3859POPC   C3A50033  12.662  40.606   6.878
 3859POPC   C4A50034  12.756  40.663   7.290
 3859POPC   C1B50035  13.368  40.703   6.237
 3859POPC   C2B50036  13.110  40.726   6.595
 3859POPC   C3B50037  13.124  40.938   6.973
 3859POPC   C4B50038  12.866  41.159   7.231
 3860POPC   NC350039   5.636  23.006   5.572
 3860POPC   PO450040   6.208  22.833   5.486
 3860POPC   GL150041   6.082  23.139   5.832
 3860POPC   GL250042   5.779  23.406   5.819
 3860POPC   C1A50043   6.061  23.009   6.264
 3860POPC   D2A50044   6.085  22.678   6.579
 3860POPC   C3A50045   5.974  22.906   6.914
 3860POPC   C4A50046   6.038  22.752   7.293
 3860POPC   C1B50047   5.764  23.450   6.250
 3860POPC   C2B50048   5.670  23.201   6.594
 3860POPC   C3B50049   5.481  23.101   6.959
 3860POPC   C4B50050   5.678  23.087   7.298
 3861POPC   NC350051  11.790  11.203   5.642
 3861POPC   PO450052  12.270  11.642   5.666
 3861POPC   GL150053  12.228  11.405   6.030
 3861POPC   GL250054  12.169  11.057   5.951
 3861POPC   C1A50055  11.849  11.372   6.270
 3861POPC   D2A50056  11.629  11.260   6.611
 3861POPC   C3A50057  11.883  11.377   6.918
 3861POPC   C4A50058  12.108  11.465   7.284
 3861POPC   C1B50059  12.507  10.990   6.210
 3861POPC   C2B50060  12.503  11.101   6.618
 3861POPC   C3B50061  12.276  11.053   6.966
 3861POPC   C4B50062  12.408  10.787   7.249
 3862POPC   NC350063   6.365  17.279   5.497
 3862POPC   PO450064   6.948  17.611   5.556
 3862POPC   GL150065   6.633  17.515   5.886
 3862POPC   GL250066   6.322  17.708   5.941
 3862POPC   C1A50067   6.654  17.612   6.340
 3862POPC   D2A50068   7.002  17.644   6.646
 3862POPC   C3A50069   6.906  17.458   7.029
 3862POPC   C4A50070   6.753  17.274   7.361
 3862POPC   C1B50071   6.209  17.366   6.234
 3862POPC   C2B50072   6.251  17.209   6.668
 3862POPC   C3B50073   6.319  17.366   7.099
 3862POPC   C4B50074   6.323  17.321   7.598
 3863POPC   NC350075   8.246  16.009   5.537
 3863POPC   PO450076   8.654  15.418   5.443
 3863POPC   GL150077   8.434  15.655   5.843
 3863POPC   GL250078   8.511  15.550   6.134
 3863POPC   C1A50079   8.264  15.995   6.230
 3863POPC   D2A50080   8.197  16.349   6.566
 3863POPC   C3A50081   8.145  16.185   6.987
 3863POPC   C4A50082   8.315  15.811   7.208
 3863POPC   C1B50083   8.123  15.521   6.355
 3863POPC   C2B50084   7.940  15.858   6.615
 3863POPC   C3B50085   7.835  15.790   7.028
 3863POPC   C4B50086   7.891  15.553   7.397
 3864POPC   NC350087  40.118  34.219   5.401
 3864POPC   PO450088  39.875  33.543   5.388
 3864POPC   GL150089  40.005  33.743   5.763
 3864POPC   GL250090  40.350  33.709   5.780
 3864POPC   C1A50091  40.078  33.789   6.241
 3864POPC   D2A50092  40.222  33.979   6.648
 3864POPC   C3A50093  39.994  33.988   7.064
 3864POPC   C4A50094  40.303  34.020   7.388
 3864POPC   C1B50095  40.473  33.441   6.160
 3864POPC   C2B50096  40.327  33.444   6.604
 3864POPC   C3B50097  40.218  33.532   7.050
 3864POPC   C4B50098  40.194  33.451   7.500
 3865POPC   NC350099  37.508   3.080   5.059
 3865POPC   PO450100  37.585   2.616   5.551
 3865POPC   GL150101  37.571   2.725   5.994
 3865POPC   GL250102  37.578   3.077   6.027
 3865POPC   C1A50103  37.688   2.782   6.433
 3865POPC   D2A50104  37.450   2.833   6.802
 3865POPC   C3A50105  37.565   2.472   7.028
 3865POPC   C4A50106  37.989   2.432   7.143
 3865POPC   C1B50107  37.990   3.192   6.252
 3865POPC   C2B50108  38.051   3.142   6.716
 3865POPC   C3B50109  37.962   3.014   7.147
 3865POPC   C4B50110  37.994   3.054   7.621
 3866POPC   NC350111  44.954  19.356   5.308
 3866POPC   PO450112  44.418  19.104   5.512
 3866POPC   GL150113  44.798  19.133   5.794
 3866POPC   GL250114   0.031  19.476   5.798
 3866POPC   C1A50115  44.660  19.006   6.231
 3866POPC   D2A50116  44.383  18.973   6.586
 3866POPC   C3A50117  44.591  19.099   6.952
 3866POPC   C4A50118  44.730  19.180   7.345
 3866POPC   C1B50119   0.073  19.294   6.190
 3866POPC   C2B50120  44.838  19.366   6.559
 3866POPC   C3B50121   0.007  19.425   6.960
 3866POPC   C4B50122   0.098  19.508   7.380
 3867POPC   NC350123  28.158  12.747   5.345
 3867POPC   PO450124  28.537  13.296   5.536
 3867POPC   GL150125  28.443  12.912   5.776
 3867POPC   GL250126  28.109  12.791   5.854
 3867POPC   C1A50127  28.515  12.859   6.220
 3867POPC   D2A50128  28.462  13.101   6.608
 3867POPC   C3A50129  28.435  12.893   7.022
 3867POPC   C4A50130  28.290  12.455   7.197
 3867POPC   C1B50131  28.000  12.965   6.262
 3867POPC   C2B50132  27.844  12.853   6.668
 3867POPC   C3B50133  27.932  12.832   7.099
 3867POPC   C4B50134  28.141  13.117   7.395
 3868POPC   NC350135  11.834  42.245   5.316
 3868POPC   PO450136  11.169  42.073   5.357
 3868POPC   GL150137  11.146  42.226   5.817
 3868POPC   GL250138  10.836  42.390   5.880
 3868POPC   C1A50139  11.387  42.258   6.247
 3868POPC   D2A50140  11.682  42.394   6.618
 3868POPC   C3A50141  11.534  42.274   7.072
 3868POPC   C4A50142  11.518  42.368   7.557
 3868POPC   C1B50143  10.950  42.572   6.233
 3868POPC   C2B50144  11.005  42.341   6.602
 3868POPC   C3B50145  10.980  42.478   7.009
 3868POPC   C4B50146  11.080  42.202   7.326
 3869POPC   NC350147  21.423  42.454   5.295
 3869POPC   PO450148  20.919  42.111   5.430
 3869POPC   GL150149  21.038  42.423   5.789
 3869POPC   GL250150  21.381  42.551   5.784
 3869POPC   C1A50151  21.169  42.391   6.235
 3869POPC   D2A50152  21.430  42.311   6.609
 3869POPC   C3A50153  21.284  42.449   7.020
 3869POPC   C4A50154  21.390  42.174   7.375
 3869POPC   C1B50155  21.533  42.738   6.148
 3869POPC   C2B50156  21.393  42.816   6.569
 3869POPC   C3B50157  21.729  42.664   6.865
 3869POPC   C4B50158  21.682  42.602   7.316
 3870POPC   NC350159   8.803  21.703   5.544
 3870POPC   PO450160   9.222  21.175   5.503
 3870POPC   GL150161   9.071  21.284   5.891
 3870POPC   GL250162   9.165  21.642   5.932
 3870POPC   C1A50163   8.812  21.452   6.234
 3870POPC   D2A50164   8.953  21.623   6.592
 3870POPC   C3A50165   8.806  21.567   6.982
 3870POPC   C4A50166   8.718  21.261   7.258
 3870POPC   C1B50167   9.364  21.428   6.304
 3870POPC   C2B50168   9.476  21.318   6.737
 3870POPC   C3B50169   9.319  21.627   6.980
 3870POPC   C4B50170   9.120  21.841   7.309
 3871POPC   NC350171  26.502  29.247   5.549
 3871POPC   PO450172  26.135  28.748   5.204
 3871POPC   GL150173  25.986  28.699   5.671
 3871POPC   GL250174  26.257  28.851   5.854
 3871POPC   C1A50175  25.860  28.734   6.163
 3871POPC   D2A50176  25.877  28.985   6.601
 3871POPC   C3A50177  26.122  29.032   6.994
 3871POPC   C4A50178  26.047  29.370   7.258
 3871POPC   C1B50179  26.185  29.143   6.213
 3871POPC   C2B50180  26.355  29.275   6.615
 3871POPC   C3B50181  26.506  29.419   7.046
 3871POPC   C4B50182  26.498  29.408   7.510
 3872POPC   NC350183  30.973   5.378   5.557
 3872POPC   PO450184  30.755   4.807   5.385
 3872POPC   GL150185  30.622   4.940   5.863
 3872POPC   GL250186  30.802   5.200   5.978
 3872POPC   C1A50187  30.668   4.967   6.385
 3872POPC   D2A50188  30.452   5.326   6.633
 3872POPC   C3A50189  30.378   5.230   7.047
 3872POPC   C4A50190  30.672   5.013   7.280
 3872POPC   C1B50191  30.879   5.421   6.333
 3872POPC   C2B50192  30.946   5.264   6.754
 3872POPC   C3B50193  31.039   5.343   7.179
 3872POPC   C4B50194  30.903   5.314   7.634
 3873POPC   NC350195  38.243   3.204   5.493
 3873POPC   PO450196  38.554   2.658   5.307
 3873POPC   GL150197  38.460   2.698   5.768
 3873POPC   GL250198  38.427   3.049   5.921
 3873POPC   C1A50199  38.445   2.651   6.241
 3873POPC   D2A50200  38.238   2.496   6.634
 3873POPC   C3A50201  38.465   2.585   7.011
 3873POPC   C4A50202  38.321   2.695   7.431
 3873POPC   C1B50203  38.631   3.150   6.263
 3873POPC   C2B50204  38.543   2.960   6.665
 3873POPC   C3B50205  38.459   3.091   7.090
 3873POPC   C4B50206  38.642   3.083   7.513
 3874POPC   NC350207  20.770  23.326   5.503
 3874POPC   PO450208  20.506  23.986   5.437
 3874POPC   GL150209  20.413  23.763   5.853
 3874POPC   GL250210  20.336  23.402   5.771
 3874POPC   C1A50211  20.597  23.826   6.289
 3874POPC   D2A50212  20.620  24.031   6.705
 3874POPC   C3A50213  20.471  23.763   7.021
 3874POPC   C4A50214  20.849  23.613   7.119
 3874POPC   C1B50215  20.498  23.278   6.182
 3874POPC   C2B50216  20.442  23.401   6.619
 3874POPC   C3B50217  20.512  23.225   7.029
 3874POPC   C4B50218  20.282  23.200   7.403
 3875POPC   NC350219  17.401  32.965   5.293
 3875POPC   PO450220  17.931  33.187   5.154
 3875POPC   GL150221  17.755  33.193   5.646
 3875POPC   GL250222  17.491  33.027   5.851
 3875POPC   C1A50223  17.745  33.380   6.123
 3875POPC   D2A50224  17.638  33.553   6.571
 3875POPC   C3A50225  17.562  33.370   6.991
 3875POPC   C4A50226  17.817  33.228   7.361
 3875POPC   C1B50227  17.379  33.108   6.307
 3875POPC   C2B50228  17.655  33.021   6.634
 3875POPC   C3B50229  17.548  32.873   7.036
 3875POPC   C4B50230  17.213  32.964   7.257
 3876POPC   NC350231  36.666  44.909   5.290
 3876POPC   PO450232  36.962  44.393   5.363
 3876POPC   GL150233  36.691  44.529   5.750
 3876POPC   GL250234  36.678  44.884   5.800
 3876POPC   C1A50235  36.563  44.615   6.224
 3876POPC   D2A50236  36.742  44.514   6.653
 3876POPC   C3A50237  36.550  44.622   7.048
 3876POPC   C4A50238  36.677  44.854   7.404
 3876POPC   C1B50239  36.727   0.106   6.192
 3876POPC   C2B50240  36.635   0.015   6.647
 3876POPC   C3B50241  36.946  44.948   6.970
 3876POPC   C4B50242  37.151   0.077   7.375
 3877POPC   NC350243  17.570   9.423   5.403
 3877POPC   PO450244  17.300   8.837   5.219
 3877POPC   GL150245  17.494   8.991   5.689
 3877POPC   GL250246  17.616   9.337   5.885
 3877POPC   C1A50247  17.685   8.903   6.133
 3877POPC   D2A50248  17.672   9.142   6.535
 3877POPC   C3A50249  17.725   8.851   6.885
 3877POPC   C4A50250  17.515   8.746   7.299
 3877POPC   C1B50251  17.242   9.237   6.118
 3877POPC   C2B50252  17.148   9.283   6.547
 3877POPC   C3B50253  17.334   9.178   6.954
 3877POPC   C4B50254  17.287   9.336   7.361
 3878POPC   NC350255  44.406   7.967   5.393
 3878POPC   PO450256  44.992   8.238   5.514
 3878POPC   GL150257  44.657   8.123   5.797
 3878POPC   GL250258  44.355   8.368   5.802
 3878POPC   C1A50259  44.630   8.076   6.206
 3878POPC   D2A50260  44.722   8.388   6.432
 3878POPC   C3A50261  44.696   8.280   6.835
 3878POPC   C4A50262  44.822   8.306   7.233
 3878POPC   C1B50263  44.135   8.210   6.204
 3878POPC   C2B50264  44.270   7.936   6.585
 3878POPC   C3B50265  44.245   8.073   7.025
 3878POPC   C4B50266  44.317   8.512   7.109
 3879POPC   NC350267  14.908  27.076   5.509
 3879POPC   PO450268  15.502  26.638   5.502
 3879POPC   GL150269  15.337  26.919   5.821
 3879POPC   GL250270  15.548  27.177   5.923
 3879POPC   C1A50271  15.360  26.857   6.286
 3879POPC   D2A50272  15.590  26.830   6.658
 3879POPC   C3A50273  15.338  26.756   7.017
 3879POPC   C4A50274  14.937  26.654   7.218
 3879POPC   C1B50275  15.120  27.279   6.155
 3879POPC   C2B50276  14.907  27.234   6.582
 3879POPC   C3B50277  14.946  27.131   7.039
 3879POPC   C4B50278  14.838  27.194   7.481
 3880POPC   NC350279  41.246  20.410   5.703
 3880POPC   PO450280  41.513  20.870   5.247
 3880POPC   GL150281  41.511  20.899   5.739
 3880POPC   GL250282  41.830  20.853   5.927
 3880POPC   C1A50283  41.410  20.843   6.207
 3880POPC   D2A50284  41.545  20.537   6.538
 3880POPC   C3A50285  41.427  20.603   6.972
 3880POPC   C4A50286  41.487  20.702   7.395
 3880POPC   C1B50287  41.998  20.776   6.347
 3880POPC   C2B50288  42.051  21.001   6.726
 3880POPC   C3B50289  41.946  20.923   7.142
 3880POPC   C4B50290  41.934  20.495   7.224
 3881POPC   NC350291  41.724  37.834   5.390
 3881POPC   PO450292  41.194  37.361   5.483
 3881POPC   GL150293  41.518  37.538   5.762
 3881POPC   GL250294  41.287  37.452   6.000
 3881POPC   C1A50295  41.620  37.788   6.164
 3881POPC   D2A50296  41.381  37.740   6.580
 3881POPC   C3A50297  41.492  37.896   6.989
 3881POPC   C4A50298  41.735  37.760   7.355
 3881POPC   C1B50299  41.329  37.233   6.367
 3881POPC   C2B50300  41.459  37.124   6.774
 3881POPC   C3B50301  41.439  37.322   7.178
 3881POPC   C4B50302  41.153  37.664   7.291
 3882POPC   NC350303  17.625  28.042   5.663
 3882POPC   PO450304  17.512  28.504   5.282
 3882POPC   GL150305  17.518  28.521   5.757
 3882POPC   GL250306  17.206  28.273   5.839
 3882POPC   C1A50307  17.552  28.447   6.195
 3882POPC   D2A50308  17.804  28.215   6.502
 3882POPC   C3A50309  17.744  28.511   6.817
 3882POPC   C4A50310  17.501  28.642   7.154
 3882POPC   C1B50311  17.218  28.065   6.244
 3882POPC   C2B50312  17.317  28.275   6.632
 3882POPC   C3B50313  17.466  28.135   7.017
 3882POPC   C4B50314  17.249  28.208   7.392
 3883POPC   NC350315  33.433  20.997   5.524
 3883POPC   PO450316  33.943  21.466   5.428
 3883POPC   GL150317  33.950  21.348   5.822
 3883POPC   GL250318  33.603  21.350   5.863
 3883POPC   C1A50319  34.003  21.139   6.199
 3883POPC   D2A50320  33.815  21.052   6.597
 3883POPC   C3A50321  33.735  21.405   6.882
 3883POPC   C4A50322  33.849  21.489   7.308
 3883POPC   C1B50323  33.564  21.391   6.305
 3883POPC   C2B50324  33.366  21.624   6.588
 3883POPC   C3B50325  33.188  21.474   6.941
 3883POPC   C4B50326  33.342  21.377   7.335
 3884POPC   NC350327  30.025   0.715   5.458
 3884POPC   PO450328  29.640   1.300   5.399
 3884POPC   GL150329  30.080   1.219   5.657
 3884POPC   GL250330  30.139   0.939   5.911
 3884POPC   C1A50331  30.141   1.424   6.082
 3884POPC   D2A50332  29.861   1.365   6.435
 3884POPC   C3A50333  29.939   1.181   6.828
 3884POPC   C4A50334  29.776   1.213   7.229
 3884POPC   C1B50335  29.989   0.761   6.325
 3884POPC   C2B50336  30.012   0.678   6.773
 3884POPC   C3B50337  30.112   0.834   7.179
 3884POPC   C4B50338  29.927   0.883   7.627
 3885POPC   NC350339  36.616  44.078   5.443
 3885POPC   PO450340  35.914  43.936   5.480
 3885POPC   GL150341  36.071  43.871   5.904
 3885POPC   GL250342  36.400  44.079   5.925
 3885POPC   C1A50343  35.860  43.901   6.330
 3885POPC   D2A50344  36.051  43.722   6.714
 3885POPC   C3A50345  35.998  43.815   7.143
 3885POPC   C4A50346  35.816  43.988   7.509
 3885POPC   C1B50347  36.396  43.877   6.351
 3885POPC   C2B50348  36.438  44.090   6.779
 3885POPC   C3B50349  36.483  43.908   7.194
 3885POPC   C4B50350  36.552  43.456   7.304
 3886POPC   NC350351   7.128  17.342   5.183
 3886POPC   PO450352   7.525  16.812   5.446
 3886POPC   GL150353   7.422  16.710   5.861
 3886POPC   GL250354   7.058  16.682   5.832
 3886POPC   C1A50355   7.396  16.890   6.262
 3886POPC   D2A50356   7.316  17.190   6.576
 3886POPC   C3A50357   7.245  17.019   6.999
 3886POPC   C4A50358   7.464  16.733   7.279
 3886POPC   C1B50359   7.102  16.482   6.242
 3886POPC   C2B50360   7.253  16.590   6.662
 3886POPC   C3B50361   7.044  16.474   7.021
 3886POPC   C4B50362   7.097  16.250   7.390
 3887POPC   NC350363  27.959   4.519   5.565
 3887POPC   PO450364  27.408   4.143   5.408
 3887POPC   GL150365  27.555   4.109   5.794
 3887POPC   GL250366  27.883   4.006   5.752
 3887POPC   C1A50367  27.598   4.349   6.143
 3887POPC   D2A50368  27.397   4.471   6.501
 3887POPC   C3A50369  27.692   4.634   6.776
 3887POPC   C4A50370  27.659   4.629   7.225
 3887POPC   C1B50371  27.943   3.954   6.194
 3887POPC   C2B50372  27.758   4.077   6.589
 3887POPC   C3B50373  27.539   4.191   6.943
 3887POPC   C4B50374  27.659   4.108   7.346
 3888POPC   NC350375  32.947  40.144   5.274
 3888POPC   PO450376  32.653  39.546   5.542
 3888POPC   GL150377  32.897  39.898   5.725
 3888POPC   GL250378  32.843  40.266   5.773
 3888POPC   C1A50379  33.093  39.917   6.122
 3888POPC   D2A50380  32.906  39.752   6.503
 3888POPC   C3A50381  33.050  39.936   6.872
 3888POPC   C4A50382  33.332  39.856   7.174
 3888POPC   C1B50383  32.696  40.215   6.219
 3888POPC   C2B50384  32.603  40.161   6.677
 3888POPC   C3B50385  32.568  39.857   7.033
 3888POPC   C4B50386  32.761  39.845   7.438
 3889POPC   NC350387  15.235  16.413   5.005
 3889POPC   PO450388  14.995  16.053   5.546
 3889POPC   GL150389  15.120  15.877   5.922
 3889POPC   GL250390  15.458  15.820   5.900
 3889POPC   C1A50391  15.064  16.014   6.314
 3889POPC   D2A50392  15.224  16.409   6.472
 3889POPC   C3A50393  15.220  16.414   6.915
 3889POPC   C4A50394  15.092  16.146   7.261
 3889POPC   C1B50395  15.585  16.021   6.259
 3889POPC   C2B50396  15.430  15.961   6.666
 3889POPC   C3B50397  15.215  15.731   6.962
 3889POPC   C4B50398  15.377  15.673   7.383
 3890POPC   NC350399  36.213   7.290   5.423
 3890POPC   PO450400  36.471   8.001   5.423
 3890POPC   GL150401  36.422   7.660   5.794
 3890POPC   GL250402  36.041   7.582   5.827
 3890POPC   C1A50403  36.304   7.411   6.238
 3890POPC   D2A50404  36.051   7.287   6.651
 3890POPC   C3A50405  36.242   7.321   7.105
 3890POPC   C4A50406  36.479   7.538   7.479
 3890POPC   C1B50407  35.795   7.489   6.216
 3890POPC   C2B50408  35.660   7.649   6.612
 3890POPC   C3B50409  35.848   7.669   7.022
 3890POPC   C4B50410  35.789   7.387   7.342
 3891POPC   NC350411  20.477   7.603   5.298
 3891POPC   PO450412  20.796   7.009   5.249
 3891POPC   GL150413  20.745   7.223   5.715
 3891POPC   GL250414  20.486   7.499   5.791
 3891POPC   C1A50415  20.791   7.357   6.188
 3891POPC   D2A50416  20.954   7.299   6.631
 3891POPC   C3A50417  20.720   7.361   7.003
 3891POPC   C4A50418  20.793   7.453   7.435
 3891POPC   C1B50419  20.330   7.198   6.075
 3891POPC   C2B50420  20.380   7.261   6.516
 3891POPC   C3B50421  20.263   7.084   6.902
 3891POPC   C4B50422  20.277   7.314   7.252
 3892POPC   NC350423   0.008  43.212   5.377
 3892POPC   PO450424   0.551  42.847   5.328
 3892POPC   GL150425   0.481  43.015   5.765
 3892POPC   GL250426   0.242  43.301   5.816
 3892POPC   C1A50427   0.574  43.008   6.224
 3892POPC   D2A50428   0.497  42.703   6.549
 3892POPC   C3A50429   0.589  42.829   6.954
 3892POPC   C4A50430   0.467  42.910   7.365
 3892POPC   C1B50431   0.275  43.429   6.232
 3892POPC   C2B50432   0.551  43.390   6.616
 3892POPC   C3B50433   0.422  43.316   7.048
 3892POPC   C4B50434   0.117  43.281   7.389
 3893POPC   NC350435  41.519  30.342   5.448
 3893POPC   PO450436  41.847  30.892   5.315
 3893POPC   GL150437  41.847  30.614   5.703
 3893POPC   GL250438  41.497  30.712   5.842
 3893POPC   C1A50439  41.782  30.410   6.124
 3893POPC   D2A50440  41.465  30.529   6.448
 3893POPC   C3A50441  41.511  30.549   6.926
 3893POPC   C4A50442  41.475  30.596   7.387
 3893POPC   C1B50443  41.396  30.985   6.220
 3893POPC   C2B50444  41.269  30.964   6.678
 3893POPC   C3B50445  41.504  31.061   7.077
 3893POPC   C4B50446  41.463  31.090   7.546
 3894POPC   NC350447  16.068  10.983   5.338
 3894POPC   PO450448  15.718  11.556   5.424
 3894POPC   GL150449  15.917  11.433   5.812
 3894POPC   GL250450  15.965  11.063   5.846
 3894POPC   C1A50451  15.839  11.360   6.251
 3894POPC   D2A50452  15.801  11.114   6.618
 3894POPC   C3A50453  15.843  11.418   6.901
 3894POPC   C4A50454  15.670  11.572   7.254
 3894POPC   C1B50455  16.087  10.874   6.248
 3894POPC   C2B50456  16.205  10.775   6.677
 3894POPC   C3B50457  16.086  10.994   7.068
 3894POPC   C4B50458  15.645  11.024   7.155
 3895POPC   NC350459   7.172  21.529   5.342
 3895POPC   PO450460   7.510  20.962   5.509
 3895POPC   GL150461   7.274  21.196   5.850
 3895POPC   GL250462   7.325  21.554   5.845
 3895POPC   C1A50463   7.265  21.154   6.321
 3895POPC   D2A50464   7.525  20.993   6.668
 3895POPC   C3A50465   7.391  21.121   7.083
 3895POPC   C4A50466   7.590  21.334   7.448
 3895POPC   C1B50467   7.502  21.613   6.268
 3895POPC   C2B50468   7.419  21.498   6.708
 3895POPC   C3B50469   7.509  21.672   7.090
 3895POPC   C4B50470   7.414  21.855   7.494
 3896POPC   NC350471  10.623  36.866   5.326
 3896POPC   PO450472  10.134  37.360   5.315
 3896POPC   GL150473  10.346  37.139   5.702
 3896POPC   GL250474  10.711  37.103   5.779
 3896POPC   C1A50475  10.390  36.961   6.154
 3896POPC   D2A50476  10.157  36.887   6.546
 3896POPC   C3A50477  10.315  36.862   6.971
 3896POPC   C4A50478  10.368  36.453   7.114
 3896POPC   C1B50479  10.896  36.871   6.166
 3896POPC   C2B50480  10.795  36.634   6.536
 3896POPC   C3B50481  10.869  36.593   6.982
 3896POPC   C4B50482  10.759  36.910   7.260
 3897POPC   NC350483  19.590  35.613   5.371
 3897POPC   PO450484  20.031  36.154   5.487
 3897POPC   GL150485  19.891  36.110   5.900
 3897POPC   GL250486  19.869  35.772   5.784
 3897POPC   C1A50487  19.767  36.397   6.248
 3897POPC   D2A50488  19.614  36.566   6.636
 3897POPC   C3A50489  19.766  36.292   6.939
 3897POPC   C4A50490  19.716  36.208   7.354
 3897POPC   C1B50491  19.684  35.702   6.186
 3897POPC   C2B50492  19.808  35.909   6.602
 3897POPC   C3B50493  19.715  35.787   7.070
 3897POPC   C4B50494  19.780  35.790   7.600
 3898POPC   NC350495  38.713  35.135   5.518
 3898POPC   PO450496  38.166  35.625   5.363
 3898POPC   GL150497  38.323  35.411   5.747
 3898POPC   GL250498  38.216  35.047   5.738
 3898POPC   C1A50499  38.416  35.496   6.188
 3898POPC   D2A50500  38.278  35.458   6.608
 3898POPC   C3A50501  38.533  35.590   6.917
 3898POPC   C4A50502  38.664  35.443   7.298
 3898POPC   C1B50503  38.441  34.955   6.109
 3898POPC   C2B50504  38.576  35.053   6.500
 3898POPC   C3B50505  38.447  35.069   6.923
 3898POPC   C4B50506  38.377  34.889   7.297
 3899POPC   NC350507  41.445   9.804   5.435
 3899POPC   PO450508  42.095   9.978   5.314
 3899POPC   GL150509  41.896   9.716   5.680
 3899POPC   GL250510  41.780  10.018   5.875
 3899POPC   C1A50511  41.700   9.486   6.074
 3899POPC   D2A50512  41.730   9.312   6.543
 3899POPC   C3A50513  41.610   9.565   6.940
 3899POPC   C4A50514  41.261   9.584   7.273
 3899POPC   C1B50515  41.443   9.936   6.190
 3899POPC   C2B50516  41.260   9.828   6.603
 3899POPC   C3B50517  41.315  10.030   7.004
 3899POPC   C4B50518  41.637  10.007   7.282
 3900POPC   NC350519  20.870  12.186   5.414
 3900POPC   PO450520  20.223  11.841   5.458
 3900POPC   GL150521  20.549  11.882   5.765
 3900POPC   GL250522  20.544  12.233   5.802
 3900POPC   C1A50523  20.585  11.973   6.224
 3900POPC   D2A50524  20.348  12.034   6.601
 3900POPC   C3A50525  20.637  11.982   6.906
 3900POPC   C4A50526  20.762  11.692   7.227
 3900POPC   C1B50527  20.901  12.353   6.065
 3900POPC   C2B50528  20.889  12.342   6.513
 3900POPC   C3B50529  20.611  12.498   6.816
 3900POPC   C4B50530  20.627  12.360   7.241
 3901POPC   NC350531  41.398   5.464   5.504
 3901POPC   PO450532  41.873   5.019   5.306
 3901POPC   GL150533  41.576   4.909   5.704
 3901POPC   GL250534  41.188   4.949   5.753
 3901POPC   C1A50535  41.477   4.882   6.176
 3901POPC   D2A50536  41.639   4.783   6.589
 3901POPC   C3A50537  41.560   5.056   6.910
 3901POPC   C4A50538  41.775   5.134   7.271
 3901POPC   C1B50539  41.170   5.279   6.112
 3901POPC   C2B50540  41.351   5.377   6.521
 3901POPC   C3B50541  41.143   5.401   6.913
 3901POPC   C4B50542  41.299   5.304   7.305
 3902POPC   NC350543  20.769   9.474   5.532
 3902POPC   PO450544  20.712   8.754   5.510
 3902POPC   GL150545  20.550   9.060   5.765
 3902POPC   GL250546  20.313   8.880   5.912
 3902POPC   C1A50547  20.456   9.277   6.174
 3902POPC   D2A50548  20.345   9.121   6.580
 3902POPC   C3A50549  20.639   8.892   6.810
 3902POPC   C4A50550  20.720   8.992   7.222
 3902POPC   C1B50551  20.093   8.761   6.243
 3902POPC   C2B50552  20.185   8.614   6.668
 3902POPC   C3B50553  20.280   8.674   7.114
 3902POPC   C4B50554  20.109   8.493   7.528
 3903POPC   NC350555  11.129   2.204   5.367
 3903POPC   PO450556  11.790   2.023   5.525
 3903POPC   GL150557  11.604   1.788   5.843
 3903POPC   GL250558  11.251   1.820   5.748
 3903POPC   C1A50559  11.503   1.955   6.240
 3903POPC   D2A50560  11.463   2.189   6.632
 3903POPC   C3A50561  11.625   1.967   6.970
 3903POPC   C4A50562  11.593   1.894   7.404
 3903POPC   C1B50563  11.006   1.957   6.113
 3903POPC   C2B50564  11.055   1.886   6.537
 3903POPC   C3B50565  11.042   2.054   6.935
 3903POPC   C4B50566  11.104   1.875   7.310
 3904POPC   NC350567  31.955  35.984   5.405
 3904POPC   PO450568  31.366  36.156   5.294
 3904POPC   GL150569  31.529  36.067   5.695
 3904POPC   GL250570  31.788  36.307   5.788
 3904POPC   C1A50571  31.385  35.983   6.118
 3904POPC   D2A50572  31.567  36.059   6.515
 3904POPC   C3A50573  31.417  36.049   6.900
 3904POPC   C4A50574  31.671  35.947   7.230
 3904POPC   C1B50575  31.663  36.420   6.171
 3904POPC   C2B50576  31.812  36.532   6.545
 3904POPC   C3B50577  31.892  36.279   6.873
 3904POPC   C4B50578  31.701  36.466   7.213
 3905POPC   NC350579  34.083  41.151   5.448
 3905POPC   PO450580  33.958  40.459   5.386
 3905POPC   GL150581  33.781  40.662   5.779
 3905POPC   GL250582  33.858  41.005   5.871
 3905POPC   C1A50583  33.585  40.753   6.206
 3905POPC   D2A50584  33.750  40.578   6.611
 3905POPC   C3A50585  33.663  40.791   7.005
 3905POPC   C4A50586  33.281  40.750   7.219
 3905POPC   C1B50587  34.098  41.045   6.284
 3905POPC   C2B50588  34.280  41.119   6.737
 3905POPC   C3B50589  34.175  40.863   7.136
 3905POPC   C4B50590  34.018  40.424   7.194
 3906POPC   NC350591  29.033  35.990   5.346
 3906POPC   PO450592  29.524  36.370   5.442
 3906POPC   GL150593  29.388  36.116   5.775
 3906POPC   GL250594  29.051  36.216   5.870
 3906POPC   C1A50595  29.363  36.018   6.223
 3906POPC   D2A50596  29.166  36.058   6.630
 3906POPC   C3A50597  29.399  35.987   7.014
 3906POPC   C4A50598  29.111  35.863   7.303
 3906POPC   C1B50599  29.146  36.494   6.279
 3906POPC   C2B50600  29.168  36.553   6.750
 3906POPC   C3B50601  29.011  36.333   7.118
 3906POPC   C4B50602  28.731  36.450   7.470
 3907POPC   NC350603  44.018  18.886   5.463
 3907POPC   PO450604  43.463  18.741   5.616
 3907POPC   GL150605  43.748  18.885   5.895
 3907POPC   GL250606  43.764  19.246   5.850
 3907POPC   C1A50607  43.936  18.841   6.290
 3907POPC   D2A50608  43.785  18.793   6.709
 3907POPC   C3A50609  44.056  18.970   6.990
 3907POPC   C4A50610  44.294  18.850   7.310
 3907POPC   C1B50611  43.523  19.157   6.254
 3907POPC   C2B50612  43.441  19.243   6.665
 3907POPC   C3B50613  43.520  19.101   7.061
 3907POPC   C4B50614  43.805  19.293   7.307
 3908POPC   NC350615  10.149  10.426   5.273
 3908POPC   PO450616   9.600  10.812   5.387
 3908POPC   GL150617   9.949  10.704   5.683
 3908POPC   GL250618   9.943  10.347   5.735
 3908POPC   C1A50619  10.004  10.767   6.134
 3908POPC   D2A50620   9.695  10.803   6.492
 3908POPC   C3A50621   9.774  10.724   6.943
 3908POPC   C4A50622   9.493  10.564   7.282
 3908POPC   C1B50623   9.804  10.241   6.137
 3908POPC   C2B50624   9.605  10.285   6.535
 3908POPC   C3B50625   9.638  10.219   6.955
 3908POPC   C4B50626   9.968  10.309   7.260
 3909POPC   NC350627  12.995   4.534   5.498
 3909POPC   PO450628  12.632   5.077   5.256
 3909POPC   GL150629  12.779   4.990   5.682
 3909POPC   GL250630  12.604   4.748   5.793
 3909POPC   C1A50631  12.890   5.130   6.098
 3909POPC   D2A50632  12.757   5.109   6.548
 3909POPC   C3A50633  12.991   5.374   6.819
 3909POPC   C4A50634  13.110   5.184   7.209
 3909POPC   C1B50635  12.346   4.660   6.144
 3909POPC   C2B50636  12.310   4.505   6.556
 3909POPC   C3B50637  12.491   4.729   6.866
 3909POPC   C4B50638  12.385   4.772   7.264
 3910POPC   NC350639   3.923  39.439   5.444
 3910POPC   PO450640   3.307  39.209   5.487
 3910POPC   GL150641   3.413  39.501   5.855
 3910POPC   GL250642   3.760  39.639   5.883
 3910POPC   C1A50643   3.517  39.466   6.316
 3910POPC   D2A50644   3.540  39.115   6.602
 3910POPC   C3A50645   3.454  39.230   7.024
 3910POPC   C4A50646   3.452  38.928   7.331
 3910POPC   C1B50647   4.010  39.573   6.271
 3910POPC   C2B50648   3.922  39.452   6.711
 3910POPC   C3B50649   3.771  39.668   7.075
 3910POPC   C4B50650   3.816  39.671   7.524
 3911POPC   NC350651  32.914  44.331   5.478
 3911POPC   PO450652  32.891   0.014   5.472
 3911POPC   GL150653  32.992  44.705   5.823
 3911POPC   GL250654  33.266  44.449   5.813
 3911POPC   C1A50655  32.886  44.511   6.228
 3911POPC   D2A50656  32.772  44.716   6.614
 3911POPC   C3A50657  32.925  44.651   7.031
 3911POPC   C4A50658  32.802  44.749   7.458
 3911POPC   C1B50659  33.341  44.237   6.178
 3911POPC   C2B50660  33.349  44.330   6.613
 3911POPC   C3B50661  33.234  44.223   7.028
 3911POPC   C4B50662  33.215  44.424   7.422
 3912POPC   NC350663   3.360   6.200   5.427
 3912POPC   PO450664   3.716   5.656   5.247
 3912POPC   GL150665   3.553   5.803   5.692
 3912POPC   GL250666   3.721   6.069   5.820
 3912POPC   C1A50667   3.348   5.861   6.134
 3912POPC   D2A50668   3.294   5.676   6.568
 3912POPC   C3A50669   3.405   5.938   6.924
 3912POPC   C4A50670   3.219   6.102   7.268
 3912POPC   C1B50671   3.863   6.291   6.210
 3912POPC   C2B50672   3.849   6.215   6.655
 3912POPC   C3B50673   3.974   6.285   7.090
 3912POPC   C4B50674   3.858   6.130   7.509
 3913POPC   NC350675   5.841  29.507   5.491
 3913POPC   PO450676   6.081  28.890   5.610
 3913POPC   GL150677   5.912  29.143   5.886
 3913POPC   GL250678   5.603  28.990   5.825
 3913POPC   C1A50679   5.792  29.297   6.285
 3913POPC   D2A50680   5.527  29.263   6.671
 3913POPC   C3A50681   5.825  29.283   6.970
 3913POPC   C4A50682   6.041  29.588   7.178
 3913POPC   C1B50683   5.469  28.724   6.160
 3913POPC   C2B50684   5.668  28.755   6.567
 3913POPC   C3B50685   5.616  28.789   7.000
 3913POPC   C4B50686   5.792  28.940   7.367
 3914POPC   NC350687  39.479   6.433   5.474
 3914POPC   PO450688  38.801   6.420   5.589
 3914POPC   GL150689  39.106   6.523   5.897
 3914POPC   GL250690  39.206   6.865   5.831
 3914POPC   C1A50691  39.310   6.507   6.319
 3914POPC   D2A50692  39.172   6.581   6.750
 3914POPC   C3A50693  39.405   6.713   7.141
 3914POPC   C4A50694  39.287   6.393   7.456
 3914POPC   C1B50695  38.939   6.974   6.197
 3914POPC   C2B50696  38.735   6.965   6.590
 3914POPC   C3B50697  38.930   6.966   6.975
 3914POPC   C4B50698  38.954   6.760   7.353
 3915POPC   NC350699  15.705   8.192   5.449
 3915POPC   PO450700  16.176   7.822   5.630
 3915POPC   GL150701  15.950   8.110   5.950
 3915POPC   GL250702  15.585   8.135   5.925
 3915POPC   C1A50703  15.887   8.257   6.406
 3915POPC   D2A50704  15.986   8.504   6.796
 3915POPC   C3A50705  16.285   8.302   7.006
 3915POPC   C4A50706  16.290   7.858   7.052
 3915POPC   C1B50707  15.410   8.097   6.289
 3915POPC   C2B50708  15.457   7.952   6.651
 3915POPC   C3B50709  15.589   8.181   6.968
 3915POPC   C4B50710  15.872   8.215   7.286
 3916POPC   NC350711   8.735  40.564   5.607
 3916POPC   PO450712   8.282  40.996   5.568
 3916POPC   GL150713   8.311  40.683   5.863
 3916POPC   GL250714   8.556  40.892   6.006
 3916POPC   C1A50715   8.431  40.452   6.237
 3916POPC   D2A50716   8.217  40.480   6.621
 3916POPC   C3A50717   8.368  40.712   6.959
 3916POPC   C4A50718   8.250  40.593   7.340
 3916POPC   C1B50719   8.161  40.914   6.298
 3916POPC   C2B50720   7.937  40.930   6.726
 3916POPC   C3B50721   7.993  41.050   7.184
 3916POPC   C4B50722   8.193  41.032   7.630
 3917POPC   NC350723  36.183  43.541   5.482
 3917POPC   PO450724  36.395  42.859   5.336
 3917POPC   GL150725  36.364  42.944   5.766
 3917POPC   GL250726  36.055  43.156   5.808
 3917POPC   C1A50727  36.349  43.005   6.218
 3917POPC   D2A50728  36.278  43.293   6.548
 3917POPC   C3A50729  36.398  43.125   6.946
 3917POPC   C4A50730  36.257  42.841   7.264
 3917POPC   C1B50731  35.916  43.406   6.179
 3917POPC   C2B50732  35.756  43.313   6.619
 3917POPC   C3B50733  35.809  43.087   7.006
 3917POPC   C4B50734  36.035  43.318   7.295
 3918POPC   NC350735  11.746   0.082   5.307
 3918POPC   PO450736  12.297   0.498   5.561
 3918POPC   GL150737  12.278   0.627   5.955
 3918POPC   GL250738  12.587   0.763   5.962
 3918POPC   C1A50739  12.034   0.493   6.325
 3918POPC   D2A50740  11.708   0.530   6.633
 3918POPC   C3A50741  11.862   0.321   7.008
 3918POPC   C4A50742  12.026   0.131   7.430
 3918POPC   C1B50743  12.542   0.648   6.413
 3918POPC   C2B50744  12.337   0.389   6.753
 3918POPC   C3B50745  12.285   0.569   7.166
 3918POPC   C4B50746  12.591   0.731   7.454
 3919POPC   NC350747  14.881   9.472   5.564
 3919POPC   PO450748  15.130  10.138   5.563
 3919POPC   GL150749  15.123   9.811   5.869
 3919POPC   GL250750  15.412   9.583   5.816
 3919POPC   C1A50751  14.845   9.696   6.237
 3919POPC   D2A50752  14.757   9.896   6.636
 3919POPC   C3A50753  15.127   9.979   6.873
 3919POPC   C4A50754  15.272   9.895   7.279
 3919POPC   C1B50755  15.257   9.417   6.203
 3919POPC   C2B50756  15.191   9.548   6.630
 3919POPC   C3B50757  15.084   9.465   7.071
 3919POPC   C4B50758  15.228   9.477   7.547
 3920POPC   NC350759  18.839   4.500   5.519
 3920POPC   PO450760  19.530   4.584   5.708
 3920POPC   GL150761  19.193   4.389   5.884
 3920POPC   GL250762  19.256   4.049   5.791
 3920POPC   C1A50763  18.917   4.469   6.230
 3920POPC   D2A50764  18.906   4.293   6.644
 3920POPC   C3A50765  18.927   4.575   7.002
 3920POPC   C4A50766  18.946   4.516   7.450
 3920POPC   C1B50767  19.443   3.967   6.194
 3920POPC   C2B50768  19.357   4.019   6.649
 3920POPC   C3B50769  19.323   4.236   7.054
 3920POPC   C4B50770  19.338   3.997   7.436
 3921POPC   NC350771  10.589   3.041   5.462
 3921POPC   PO450772  10.701   2.432   5.429
 3921POPC   GL150773  10.572   2.622   5.806
 3921POPC   GL250774  10.206   2.599   5.823
 3921POPC   C1A50775  10.555   2.765   6.245
 3921POPC   D2A50776  10.416   2.560   6.625
 3921POPC   C3A50777  10.582   2.788   6.948
 3921POPC   C4A50778  10.786   2.788   7.342
 3921POPC   C1B50779  10.083   2.923   6.160
 3921POPC   C2B50780  10.198   3.030   6.599
 3921POPC   C3B50781  10.074   2.826   6.992
 3921POPC   C4B50782  10.234   2.600   7.366
 3922POPC   NC350783  40.312  33.247   5.527
 3922POPC   PO450784  39.964  32.673   5.457
 3922POPC   GL150785  40.028  32.938   5.833
 3922POPC   GL250786  39.875  33.265   5.813
 3922POPC   C1A50787  40.097  33.102   6.243
 3922POPC   D2A50788  39.975  32.915   6.601
 3922POPC   C3A50789  40.171  33.040   6.947
 3922POPC   C4A50790  40.004  33.006   7.333
 3922POPC   C1B50791  39.661  33.486   6.136
 3922POPC   C2B50792  39.805  33.422   6.538
 3922POPC   C3B50793  39.730  33.348   6.943
 3922POPC   C4B50794  39.740  33.552   7.312
 3923POPC   NC350795   1.383  34.740   5.663
 3923POPC   PO450796   1.085  34.340   5.187
 3923POPC   GL150797   1.049  34.361   5.708
 3923POPC   GL250798   1.382  34.286   5.899
 3923POPC   C1A50799   0.986  34.349   6.204
 3923POPC   D2A50800   0.928  34.658   6.575
 3923POPC   C3A50801   0.962  34.570   7.030
 3923POPC   C4A50802   0.890  34.794   7.386
 3923POPC   C1B50803   1.461  34.565   6.299
 3923POPC   C2B50804   1.465  34.916   6.641
 3923POPC   C3B50805   1.375  34.860   7.085
 3923POPC   C4B50806   1.368  34.485   7.333
 3924POPC   NC350807  41.998  25.466   5.339
 3924POPC   PO450808  42.473  24.970   5.179
 3924POPC   GL150809  42.369  25.184   5.645
 3924POPC   GL250810  42.166  25.510   5.818
 3924POPC   C1A50811  42.537  25.320   6.094
 3924POPC   D2A50812  42.306  25.296   6.500
 3924POPC   C3A50813  42.522  25.323   6.909
 3924POPC   C4A50814  42.415  25.197   7.363
 3924POPC   C1B50815  42.078  25.715   6.236
 3924POPC   C2B50816  41.951  25.650   6.692
 3924POPC   C3B50817  42.124  25.551   7.125
 3924POPC   C4B50818  42.034  25.481   7.606
 3925POPC   NC350819  37.511  26.632   5.410
 3925POPC   PO450820  37.946  27.265   5.429
 3925POPC   GL150821  37.867  26.990   5.762
 3925POPC   GL250822  37.536  26.974   5.776
 3925POPC   C1A50823  37.882  26.893   6.230
 3925POPC   D2A50824  37.858  26.773   6.682
 3925POPC   C3A50825  37.992  26.990   7.040
 3925POPC   C4A50826  38.015  26.963   7.514
 3925POPC   C1B50827  37.419  27.053   6.160
 3925POPC   C2B50828  37.539  27.201   6.542
 3925POPC   C3B50829  37.474  27.063   6.926
 3925POPC   C4B50830  37.581  26.852   7.280
 3926POPC   NC350831  10.870  34.380   5.687
 3926POPC   PO450832  11.368  34.507   5.202
 3926POPC   GL150833  11.362  34.555   5.677
 3926POPC   GL250834  11.311  34.291   5.944
 3926POPC   C1A50835  11.237  34.781   6.089
 3926POPC   D2A50836  11.372  34.820   6.534
 3926POPC   C3A50837  11.168  34.755   6.911
 3926POPC   C4A50838  11.232  34.661   7.369
 3926POPC   C1B50839  11.612  34.449   6.245
 3926POPC   C2B50840  11.606  34.372   6.683
 3926POPC   C3B50841  11.647  34.495   7.101
 3926POPC   C4B50842  11.709  34.414   7.532
 3927POPC   NC350843   7.184  18.009   5.487
 3927POPC   PO450844   7.749  18.335   5.492
 3927POPC   GL150845   7.539  18.516   5.893
 3927POPC   GL250846   7.204  18.412   5.804
 3927POPC   C1A50847   7.210  18.544   6.281
 3927POPC   D2A50848   7.081  18.387   6.703
 3927POPC   C3A50849   7.445  18.511   6.920
 3927POPC   C4A50850   7.625  18.322   7.285
 3927POPC   C1B50851   7.400  18.100   6.114
 3927POPC   C2B50852   7.546  18.199   6.519
 3927POPC   C3B50853   7.442  18.014   6.923
 3927POPC   C4B50854   7.033  17.949   7.093
 3928POPC   NC350855  37.451  11.266   5.440
 3928POPC   PO450856  38.059  11.584   5.375
 3928POPC   GL150857  37.894  11.277   5.740
 3928POPC   GL250858  37.579  11.148   5.921
 3928POPC   C1A50859  38.058  11.254   6.182
 3928POPC   D2A50860  38.159  11.167   6.612
 3928POPC   C3A50861  37.783  11.101   6.823
 3928POPC   C4A50862  37.703  11.138   7.239
 3928POPC   C1B50863  37.607  11.526   6.127
 3928POPC   C2B50864  37.497  11.656   6.525
 3928POPC   C3B50865  37.598  11.565   6.959
 3928POPC   C4B50866  37.369  11.510   7.394
 3929POPC   NC350867   7.959  32.565   5.311
 3929POPC   PO450868   8.397  32.183   5.634
 3929POPC   GL150869   8.232  32.471   5.908
 3929POPC   GL250870   7.884  32.422   5.848
 3929POPC   C1A50871   8.138  32.370   6.340
 3929POPC   D2A50872   8.458  32.164   6.570
 3929POPC   C3A50873   8.435  32.287   6.956
 3929POPC   C4A50874   8.343  32.260   7.341
 3929POPC   C1B50875   7.728  32.109   6.198
 3929POPC   C2B50876   7.776  32.074   6.664
 3929POPC   C3B50877   7.919  32.299   7.027
 3929POPC   C4B50878   7.704  32.533   7.331
 3930POPC   NC350879  41.634   3.914   5.453
 3930POPC   PO450880  41.282   3.451   5.256
 3930POPC   GL150881  41.334   3.529   5.726
 3930POPC   GL250882  41.676   3.570   5.825
 3930POPC   C1A50883  41.365   3.482   6.195
 3930POPC   D2A50884  41.409   3.215   6.521
 3930POPC   C3A50885  41.358   3.443   6.889
 3930POPC   C4A50886  41.346   3.599   7.288
 3930POPC   C1B50887  41.862   3.688   6.217
 3930POPC   C2B50888  41.763   3.607   6.621
 3930POPC   C3B50889  41.958   3.712   6.988
 3930POPC   C4B50890  41.925   4.058   7.295
 3931POPC   NC350891  20.182   0.329   5.327
 3931POPC   PO450892  19.567   0.586   5.283
 3931POPC   GL150893  19.838   0.574   5.668
 3931POPC   GL250894  19.899   0.221   5.735
 3931POPC   C1A50895  20.049   0.560   6.126
 3931POPC   D2A50896  20.268   0.509   6.517
 3931POPC   C3A50897  20.030   0.583   6.904
 3931POPC   C4A50898  20.151   0.405   7.272
 3931POPC   C1B50899  19.609   0.316   6.060
 3931POPC   C2B50900  19.751   0.313   6.500
 3931POPC   C3B50901  19.625   0.234   6.914
 3931POPC   C4B50902  19.662   0.271   7.350
 3932POPC   NC350903  34.799  27.157   5.319
 3932POPC   PO450904  34.560  26.477   5.349
 3932POPC   GL150905  34.502  26.709   5.732
 3932POPC   GL250906  34.798  26.910   5.805
 3932POPC   C1A50907  34.312  26.661   6.148
 3932POPC   D2A50908  34.256  26.966   6.505
 3932POPC   C3A50909  34.359  26.935   6.957
 3932POPC   C4A50910  34.674  27.118   7.228
 3932POPC   C1B50911  34.745  26.924   6.259
 3932POPC   C2B50912  34.787  26.835   6.719
 3932POPC   C3B50913  34.764  26.596   7.166
 3932POPC   C4B50914  34.973  26.571   7.641
 3933POPC   NC350915  39.656  12.615   5.483
 3933POPC   PO450916  39.097  12.170   5.520
 3933POPC   GL150917  39.180  12.053   5.903
 3933POPC   GL250918  39.517  12.101   5.910
 3933POPC   C1A50919  39.171  12.204   6.305
 3933POPC   D2A50920  39.170  12.083   6.685
 3933POPC   C3A50921  39.451  11.880   6.908
 3933POPC   C4A50922  39.347  12.002   7.303
 3933POPC   C1B50923  39.673  12.324   6.252
 3933POPC   C2B50924  39.587  12.368   6.688
 3933POPC   C3B50925  39.634  12.375   7.122
 3933POPC   C4B50926  39.524  12.481   7.541
 3934POPC   NC350927  12.934  35.856   5.477
 3934POPC   PO450928  12.663  36.520   5.487
 3934POPC   GL150929  12.862  36.228   5.803
 3934POPC   GL250930  12.551  36.046   5.954
 3934POPC   C1A50931  12.965  36.053   6.210
 3934POPC   D2A50932  12.695  36.134   6.543
 3934POPC   C3A50933  12.827  35.969   6.922
 3934POPC   C4A50934  12.977  35.950   7.341
 3934POPC   C1B50935  12.579  35.683   6.302
 3934POPC   C2B50936  12.535  35.525   6.767
 3934POPC   C3B50937  12.463  35.740   7.204
 3934POPC   C4B50938  12.598  35.922   7.664
 3935POPC   NC350939  18.982   5.564   5.674
 3935POPC   PO450940  18.885   4.978   5.379
 3935POPC   GL150941  19.080   4.903   5.794
 3935POPC   GL250942  19.297   5.200   5.857
 3935POPC   C1A50943  19.115   4.973   6.268
 3935POPC   D2A50944  19.045   5.295   6.596
 3935POPC   C3A50945  18.873   5.119   6.970
 3935POPC   C4A50946  18.808   5.313   7.360
 3935POPC   C1B50947  19.436   5.433   6.219
 3935POPC   C2B50948  19.562   5.365   6.650
 3935POPC   C3B50949  19.359   5.288   7.055
 3935POPC   C4B50950  19.243   4.897   7.282
 3936POPC   NC350951  31.743  13.872   5.149
 3936POPC   PO450952  31.536  14.528   5.387
 3936POPC   GL150953  31.487  14.472   5.835
 3936POPC   GL250954  31.806  14.390   5.836
 3936POPC   C1A50955  31.452  14.555   6.313
 3936POPC   D2A50956  31.125  14.426   6.628
 3936POPC   C3A50957  31.191  14.635   7.013
 3936POPC   C4A50958  31.444  14.720   7.403
 3936POPC   C1B50959  31.886  14.280   6.238
 3936POPC   C2B50960  31.918  14.492   6.620
 3936POPC   C3B50961  31.713  14.542   6.986
 3936POPC   C4B50962  31.793  14.337   7.371
 3937POPC   NC350963   6.735  15.451   5.434
 3937POPC   PO450964   6.463  16.126   5.450
 3937POPC   GL150965   6.521  15.913   5.830
 3937POPC   GL250966   6.840  15.761   5.839
 3937POPC   C1A50967   6.686  16.091   6.226
 3937POPC   D2A50968   6.904  16.183   6.604
 3937POPC   C3A50969   6.620  16.111   6.911
 3937POPC   C4A50970   6.613  16.051   7.313
 3937POPC   C1B50971   6.699  15.552   6.225
 3937POPC   C2B50972   6.633  15.382   6.644
 3937POPC   C3B50973   6.701  15.598   7.008
 3937POPC   C4B50974   6.582  15.569   7.417
 3938POPC   NC350975  31.413  31.288   5.431
 3938POPC   PO450976  31.764  31.845   5.489
 3938POPC   GL150977  31.647  31.522   5.807
 3938POPC   GL250978  31.317  31.591   5.884
 3938POPC   C1A50979  31.718  31.265   6.193
 3938POPC   D2A50980  31.575  31.269   6.606
 3938POPC   C3A50981  31.753  31.436   6.926
 3938POPC   C4A50982  31.723  31.280   7.326
 3938POPC   C1B50983  31.443  31.685   6.313
 3938POPC   C2B50984  31.323  31.709   6.743
 3938POPC   C3B50985  31.445  31.742   7.158
 3938POPC   C4B50986  31.294  31.493   7.503
 3939POPC   NC350987  15.399   3.822   5.366
 3939POPC   PO450988  15.215   3.275   5.577
 3939POPC   GL150989  15.260   3.645   5.828
 3939POPC   GL250990  14.933   3.726   5.949
 3939POPC   C1A50991  15.352   3.795   6.252
 3939POPC   D2A50992  15.462   3.502   6.611
 3939POPC   C3A50993  15.580   3.724   6.985
 3939POPC   C4A50994  15.284   3.881   7.211
 3939POPC   C1B50995  14.929   3.531   6.376
 3939POPC   C2B50996  14.799   3.666   6.804
 3939POPC   C3B50997  14.930   3.514   7.193
 3939POPC   C4B50998  15.320   3.363   7.250
 3940POPC   NC350999  22.186  42.772   5.561
 3940POPC   PO451000  22.132  43.429   5.356
 3940POPC   GL151001  22.250  43.415   5.782
 3940POPC   GL251002  22.436  43.124   5.857
 3940POPC   C1A51003  21.974  43.276   6.133
 3940POPC   D2A51004  21.856  43.031   6.499
 3940POPC   C3A51005  21.918  43.138   6.937
 3940POPC   C4A51006  22.139  42.821   7.181
 3940POPC   C1B51007  22.364  42.992   6.292
 3940POPC   C2B51008  22.355  43.159   6.673
 3940POPC   C3B51009  22.417  43.247   7.080
 3940POPC   C4B51010  22.496  42.977   7.500
 3941POPC   NC351011  10.354  12.706   5.432
 3941POPC   PO451012  10.548  13.330   5.492
 3941POPC   GL151013  10.552  12.983   5.820
 3941POPC   GL251014  10.858  12.816   5.903
 3941POPC   C1A51015  10.473  12.808   6.234
 3941POPC   D2A51016  10.173  12.884   6.545
 3941POPC   C3A51017  10.354  12.987   6.897
 3941POPC   C4A51018  10.383  12.806   7.290
 3941POPC   C1B51019  11.011  12.942   6.274
 3941POPC   C2B51020  10.807  13.035   6.666
 3941POPC   C3B51021  10.840  12.885   7.044
 3941POPC   C4B51022  10.875  12.737   7.408
 3942POPC   NC351023   5.759   6.176   5.528
 3942POPC   PO451024   5.900   5.551   5.465
 3942POPC   GL151025   5.986   5.743   5.868
 3942POPC   GL251026   6.110   6.075   5.855
 3942POPC   C1A51027   5.834   5.614   6.274
 3942POPC   D2A51028   5.674   5.809   6.658
 3942POPC   C3A51029   5.758   5.685   7.073
 3942POPC   C4A51030   6.157   5.772   7.322
 3942POPC   C1B51031   5.962   6.115   6.259
 3942POPC   C2B51032   6.156   6.019   6.639
 3942POPC   C3B51033   5.996   6.150   7.019
 3942POPC   C4B51034   5.596   6.204   7.189
 3943POPC   NC351035   8.689  10.052   5.177
 3943POPC   PO451036   8.319   9.616   5.493
 3943POPC   GL151037   8.163   9.666   5.928
 3943POPC   GL251038   8.074   9.325   5.968
 3943POPC   C1A51039   8.221   9.900   6.365
 3943POPC   D2A51040   8.026   9.861   6.801
 3943POPC   C3A51041   8.276   9.874   7.167
 3943POPC   C4A51042   8.445   9.738   7.572
 3943POPC   C1B51043   7.917   9.488   6.361
 3943POPC   C2B51044   8.108   9.347   6.714
 3943POPC   C3B51045   8.259   9.361   7.103
 3943POPC   C4B51046   7.996   9.524   7.405
 3944POPC   NC351047  32.196  33.873   5.165
 3944POPC   PO451048  32.563  33.605   5.696
 3944POPC   GL151049  32.299  33.837   5.917
 3944POPC   GL251050  32.170  34.023   5.669
 3944POPC   C1A51051  32.218  33.890   6.337
 3944POPC   D2A51052  32.142  33.592   6.622
 3944POPC   C3A51053  32.143  33.817   6.992
 3944POPC   C4A51054  32.191  33.864   7.425
 3944POPC   C1B51055  31.912  34.190   6.056
 3944POPC   C2B51056  31.782  34.113   6.526
 3944POPC   C3B51057  31.769  34.193   7.003
 3944POPC   C4B51058  31.705  34.022   7.414
 3945POPC   NC351059   6.447  22.451   5.386
 3945POPC   PO451060   6.951  21.989   5.437
 3945POPC   GL151061   6.792  22.278   5.828
 3945POPC   GL251062   6.450  22.429   5.895
 3945POPC   C1A51063   6.679  22.247   6.317
 3945POPC   D2A51064   6.569  22.451   6.747
 3945POPC   C3A51065   6.661  22.176   7.129
 3945POPC   C4A51066   6.677  22.290   7.589
 3945POPC   C1B51067   6.154  22.263   6.228
 3945POPC   C2B51068   6.203  22.115   6.651
 3945POPC   C3B51069   6.152  22.281   7.077
 3945POPC   C4B51070   6.274  22.011   7.445
 3946POPC   NC351071   0.663  27.170   5.266
 3946POPC   PO451072   0.665  27.813   5.490
 3946POPC   GL151073   0.547  27.676   5.874
 3946POPC   GL251074   0.395  27.401   5.745
 3946POPC   C1A51075   0.148  27.720   6.127
 3946POPC   D2A51076   0.075  27.916   6.543
 3946POPC   C3A51077   0.182  27.715   6.915
 3946POPC   C4A51078   0.515  27.801   7.168
 3946POPC   C1B51079   0.401  27.272   6.196
 3946POPC   C2B51080   0.493  27.380   6.629
 3946POPC   C3B51081   0.479  27.305   7.062
 3946POPC   C4B51082   0.614  27.377   7.487
 3947POPC   NC351083  44.356  23.392   5.439
 3947POPC   PO451084  44.980  23.289   5.678
 3947POPC   GL151085  44.741  23.494   5.928
 3947POPC   GL251086  44.566  23.751   5.814
 3947POPC   C1A51087  44.633  23.542   6.335
 3947POPC   D2A51088  44.355  23.564   6.688
 3947POPC   C3A51089  44.621  23.543   7.043
 3947POPC   C4A51090  44.642  23.489   7.551
 3947POPC   C1B51091  44.692  24.038   6.143
 3947POPC   C2B51092  44.647  24.010   6.573
 3947POPC   C3B51093  44.762  24.134   6.967
 3947POPC   C4B51094  44.751  23.933   7.334
 3948POPC   NC351095  25.802  37.478   5.406
 3948POPC   PO451096  25.694  38.096   5.567
 3948POPC   GL151097  25.992  37.867   5.793
 3948POPC   GL251098  25.833  37.586   5.924
 3948POPC   C1A51099  26.044  37.969   6.215
 3948POPC   D2A51100  26.011  37.672   6.535
 3948POPC   C3A51101  25.798  37.838   6.881
 3948POPC   C4A51102  25.953  37.796   7.276
 3948POPC   C1B51103  25.624  37.386   6.278
 3948POPC   C2B51104  25.607  37.381   6.732
 3948POPC   C3B51105  25.680  37.387   7.160
 3948POPC   C4B51106  25.571  37.402   7.591
 3949POPC   NC351107  13.033  20.881   5.306
 3949POPC   PO451108  12.488  20.404   5.380
 3949POPC   GL151109  12.730  20.420   5.767
 3949POPC   GL251110  13.046  20.258   5.654
 3949POPC   C1A51111  12.737  20.629   6.208
 3949POPC   D2A51112  12.706  20.459   6.644
 3949POPC   C3A51113  12.847  20.701   7.023
 3949POPC   C4A51114  13.157  21.029   7.163
 3949POPC   C1B51115  13.152  20.313   6.096
 3949POPC   C2B51116  13.251  20.278   6.560
 3949POPC   C3B51117  13.005  20.190   6.941
 3949POPC   C4B51118  12.825  20.303   7.366
 3950POPC   NC351119  25.681   6.701   5.008
 3950POPC   PO451120  25.181   6.785   5.453
 3950POPC   GL151121  25.248   6.583   5.875
 3950POPC   GL251122  25.513   6.386   5.928
 3950POPC   C1A51123  25.358   6.762   6.297
 3950POPC   D2A51124  25.411   6.745   6.766
 3950POPC   C3A51125  25.514   7.025   7.087
 3950POPC   C4A51126  25.249   6.787   7.296
 3950POPC   C1B51127  25.427   6.267   6.320
 3950POPC   C2B51128  25.562   6.255   6.756
 3950POPC   C3B51129  25.249   6.307   7.090
 3950POPC   C4B51130  25.300   6.342   7.561
 3951POPC   NC351131   4.154  18.047   5.491
 3951POPC   PO451132   4.855  18.135   5.368
 3951POPC   GL151133   4.601  18.274   5.727
 3951POPC   GL251134   4.325  18.545   5.739
 3951POPC   C1A51135   4.566  18.422   6.155
 3951POPC   D2A51136   4.392  18.476   6.531
 3951POPC   C3A51137   4.483  18.140   6.797
 3951POPC   C4A51138   4.617  18.073   7.189
 3951POPC   C1B51139   4.011  18.497   6.109
 3951POPC   C2B51140   3.876  18.567   6.563
 3951POPC   C3B51141   4.037  18.341   6.951
 3951POPC   C4B51142   4.135  18.069   7.336
 3952POPC   NC351143   8.498   6.206   5.383
 3952POPC   PO451144   8.678   5.707   5.612
 3952POPC   GL151145   8.947   5.748   5.995
 3952POPC   GL251146   9.091   6.091   6.084
 3952POPC   C1A51147   8.950   5.740   6.448
 3952POPC   D2A51148   8.698   5.724   6.814
 3952POPC   C3A51149   8.934   5.572   7.168
 3952POPC   C4A51150   9.018   5.775   7.565
 3952POPC   C1B51151   9.275   6.187   6.499
 3952POPC   C2B51152   9.147   5.986   6.872
 3952POPC   C3B51153   8.832   6.070   7.189
 3952POPC   C4B51154   8.592   6.284   7.556
 3953POPC   NC351155  11.453  24.745   5.457
 3953POPC   PO451156  11.297  24.225   5.321
 3953POPC   GL151157  11.237  24.404   5.756
 3953POPC   GL251158  10.970  24.636   5.779
 3953POPC   C1A51159  11.407  24.683   6.122
 3953POPC   D2A51160  11.431  24.915   6.519
 3953POPC   C3A51161  11.446  24.679   6.893
 3953POPC   C4A51162  11.096  24.602   7.127
 3953POPC   C1B51163  10.967  24.409   6.169
 3953POPC   C2B51164  11.179  24.444   6.536
 3953POPC   C3B51165  11.197  24.165   6.877
 3953POPC   C4B51166  11.152  24.121   7.323
 3954POPC   NC351167  10.149  42.640   5.387
 3954POPC   PO451168   9.969  42.023   5.664
 3954POPC   GL151169   9.830  42.376   5.832
 3954POPC   GL251170   9.483  42.424   5.676
 3954POPC   C1A51171   9.806  42.345   6.284
 3954POPC   D2A51172   9.568  42.264   6.661
 3954POPC   C3A51173   9.814  42.369   7.050
 3954POPC   C4A51174   9.701  42.344   7.484
 3954POPC   C1B51175   9.480  42.673   6.068
 3954POPC   C2B51176   9.568  42.762   6.513
 3954POPC   C3B51177   9.404  42.667   6.924
 3954POPC   C4B51178   9.282  42.625   7.334
 3955POPC   NC351179  23.604   1.030   5.210
 3955POPC   PO451180  23.336   1.421   5.683
 3955POPC   GL151181  23.627   1.103   5.840
 3955POPC   GL251182  23.897   1.271   5.965
 3955POPC   C1A51183  23.602   1.047   6.296
 3955POPC   D2A51184  23.837   1.222   6.659
 3955POPC   C3A51185  23.614   1.088   7.021
 3955POPC   C4A51186  23.493   0.692   7.216
 3955POPC   C1B51187  23.668   1.552   6.268
 3955POPC   C2B51188  23.804   1.740   6.671
 3955POPC   C3B51189  23.870   1.593   7.073
 3955POPC   C4B51190  23.689   1.403   7.409
 3956POPC   NC351191  29.328   2.450   5.419
 3956POPC   PO451192  29.101   1.825   5.397
 3956POPC   GL151193  28.992   2.120   5.733
 3956POPC   GL251194  29.301   2.262   5.877
 3956POPC   C1A51195  28.902   2.121   6.174
 3956POPC   D2A51196  29.002   1.858   6.552
 3956POPC   C3A51197  29.239   1.819   6.926
 3956POPC   C4A51198  29.185   1.946   7.329
 3956POPC   C1B51199  29.468   2.129   6.235
 3956POPC   C2B51200  29.387   2.206   6.641
 3956POPC   C3B51201  29.467   2.286   7.054
 3956POPC   C4B51202  29.330   2.458   7.428
 3957POPC   NC351203  19.013  18.023   5.492
 3957POPC   PO451204  19.381  18.556   5.531
 3957POPC   GL151205  19.209  18.318   5.875
 3957POPC   GL251206  18.862  18.328   5.958
 3957POPC   C1A51207  19.241  18.101   6.273
 3957POPC   D2A51208  19.131  18.005   6.708
 3957POPC   C3A51209  19.327  18.295   7.031
 3957POPC   C4A51210  19.444  18.225   7.510
 3957POPC   C1B51211  18.705  18.352   6.400
 3957POPC   C2B51212  18.771  18.317   6.865
 3957POPC   C3B51213  18.796  17.979   7.148
 3957POPC   C4B51214  18.564  18.078   7.494
 3958POPC   NC351215   5.538  22.026   5.399
 3958POPC   PO451216   6.110  21.838   5.495
 3958POPC   GL151217   5.868  22.097   5.818
 3958POPC   GL251218   5.942  22.487   5.813
 3958POPC   C1A51219   5.635  22.087   6.236
 3958POPC   D2A51220   5.719  22.245   6.664
 3958POPC   C3A51221   5.633  22.077   7.084
 3958POPC   C4A51222   5.805  22.258   7.458
 3958POPC   C1B51223   5.713  22.609   6.227
 3958POPC   C2B51224   5.520  22.702   6.646
 3958POPC   C3B51225   5.589  22.607   7.096
 3958POPC   C4B51226   5.559  22.666   7.574
 3959POPC   NC351227   1.869   1.855   5.433
 3959POPC   PO451228   1.845   2.509   5.573
 3959POPC   GL151229   2.001   2.134   5.869
 3959POPC   GL251230   1.872   1.747   5.926
 3959POPC   C1A51231   1.961   2.021   6.335
 3959POPC   D2A51232   1.666   1.986   6.669
 3959POPC   C3A51233   1.877   2.029   7.062
 3959POPC   C4A51234   2.306   2.117   7.162
 3959POPC   C1B51235   1.491   1.762   6.211
 3959POPC   C2B51236   1.415   1.543   6.602
 3959POPC   C3B51237   1.752   1.525   6.917
 3959POPC   C4B51238   1.828   1.604   7.358
 3960POPC   NC351239   2.138  10.253   5.575
 3960POPC   PO451240   1.631  10.678   5.349
 3960POPC   GL151241   1.916  10.644   5.791
 3960POPC   GL251242   1.947  10.337   6.041
 3960POPC   C1A51243   2.090  10.815   6.175
 3960POPC   D2A51244   1.923  10.716   6.577
 3960POPC   C3A51245   2.184  10.786   6.917
 3960POPC   C4A51246   1.940  10.579   7.206
 3960POPC   C1B51247   1.687  10.193   6.392
 3960POPC   C2B51248   1.684  10.291   6.838
 3960POPC   C3B51249   1.975  10.090   7.144
 3960POPC   C4B51250   2.296  10.188   7.458
 3961POPC   NC351251  20.618  22.481   5.508
 3961POPC   PO451252  20.077  22.055   5.185
 3961POPC   GL151253  20.366  21.880   5.719
 3961POPC   GL251254  20.692  22.026   5.753
 3961POPC   C1A51255  20.444  22.081   6.187
 3961POPC   D2A51256  20.596  21.952   6.615
 3961POPC   C3A51257  20.558  22.202   7.018
 3961POPC   C4A51258  20.404  22.352   7.438
 3961POPC   C1B51259  20.930  21.939   6.150
 3961POPC   C2B51260  21.121  22.004   6.547
 3961POPC   C3B51261  21.000  21.835   6.927
 3961POPC   C4B51262  20.917  21.976   7.319
 3962POPC   NC351263   0.333  11.793   5.364
 3962POPC   PO451264   0.532  12.435   5.370
 3962POPC   GL151265   0.424  12.231   5.764
 3962POPC   GL251266   0.110  12.015   5.775
 3962POPC   C1A51267   0.484  12.283   6.211
 3962POPC   D2A51268   0.629  12.462   6.595
 3962POPC   C3A51269   0.687  12.256   6.995
 3962POPC   C4A51270   0.639  11.925   7.285
 3962POPC   C1B51271   0.244  11.819   6.178
 3962POPC   C2B51272   0.437  11.953   6.592
 3962POPC   C3B51273   0.245  11.989   6.976
 3962POPC   C4B51274   0.183  11.647   7.294
 3963POPC   NC351275  24.273  24.697   5.526
 3963POPC   PO451276  24.711  24.351   5.161
 3963POPC   GL151277  24.576  24.320   5.692
 3963POPC   GL251278  24.193  24.262   5.818
 3963POPC   C1A51279  24.626  24.535   6.153
 3963POPC   D2A51280  24.833  24.828   6.505
 3963POPC   C3A51281  24.673  24.825   6.972
 3963POPC   C4A51282  24.625  24.598   7.379
 3963POPC   C1B51283  24.370  24.089   6.199
 3963POPC   C2B51284  24.343  24.287   6.592
 3963POPC   C3B51285  24.356  24.334   7.024
 3963POPC   C4B51286  24.407  24.150   7.430
 3964POPC   NC351287  32.654   0.380   5.277
 3964POPC   PO451288  33.182   0.602   5.457
 3964POPC   GL151289  32.939   0.431   5.793
 3964POPC   GL251290  33.174   0.174   5.928
 3964POPC   C1A51291  32.948   0.537   6.239
 3964POPC   D2A51292  33.245   0.373   6.522
 3964POPC   C3A51293  33.281   0.603   6.894
 3964POPC   C4A51294  33.060   0.562   7.293
 3964POPC   C1B51295  32.838   0.043   6.202
 3964POPC   C2B51296  32.674   0.212   6.593
 3964POPC   C3B51297  32.972   0.177   6.929
 3964POPC   C4B51298  33.168   0.059   7.293
 3965POPC   NC351299  33.629   3.575   5.475
 3965POPC   PO451300  34.259   3.606   5.204
 3965POPC   GL151301  34.075   3.598   5.709
 3965POPC   GL251302  33.873   3.267   5.845
 3965POPC   C1A51303  33.777   3.654   6.146
 3965POPC   D2A51304  33.667   3.750   6.611
 3965POPC   C3A51305  33.854   3.523   6.968
 3965POPC   C4A51306  34.085   3.719   7.285
 3965POPC   C1B51307  33.468   3.227   6.159
 3965POPC   C2B51308  33.382   3.209   6.665
 3965POPC   C3B51309  33.380   3.428   7.107
 3965POPC   C4B51310  33.298   3.454   7.555
 3966POPC   NC351311  26.072  41.384   5.099
 3966POPC   PO451312  26.715  41.603   5.241
 3966POPC   GL151313  26.738  41.654   5.706
 3966POPC   GL251314  27.099  41.560   5.747
 3966POPC   C1A51315  26.608  41.636   6.172
 3966POPC   D2A51316  26.716  41.469   6.597
 3966POPC   C3A51317  26.577  41.628   6.946
 3966POPC   C4A51318  26.717  41.626   7.330
 3966POPC   C1B51319  27.048  41.875   6.077
 3966POPC   C2B51320  27.000  41.893   6.526
 3966POPC   C3B51321  27.115  41.755   6.953
 3966POPC   C4B51322  27.108  41.932   7.371
 3967POPC   NC351323  35.799  18.812   5.087
 3967POPC   PO451324  36.007  18.204   5.412
 3967POPC   GL151325  36.126  18.319   5.809
 3967POPC   GL251326  36.466  18.283   5.872
 3967POPC   C1A51327  35.930  18.411   6.184
 3967POPC   D2A51328  35.937  18.201   6.573
 3967POPC   C3A51329  35.972  18.413   6.962
 3967POPC   C4A51330  35.805  18.261   7.321
 3967POPC   C1B51331  36.399  18.289   6.312
 3967POPC   C2B51332  36.396  18.161   6.724
 3967POPC   C3B51333  36.447  18.252   7.102
 3967POPC   C4B51334  36.731  18.515   7.206
 3968POPC   NC351335  40.322  11.285   5.538
 3968POPC   PO451336  39.677  11.356   5.548
 3968POPC   GL151337  39.901  11.252   5.902
 3968POPC   GL251338  39.608  11.080   6.007
 3968POPC   C1A51339  40.192  11.420   6.238
 3968POPC   D2A51340  40.046  11.593   6.649
 3968POPC   C3A51341  40.075  11.295   6.987
 3968POPC   C4A51342  40.197  11.299   7.407
 3968POPC   C1B51343  39.693  11.319   6.379
 3968POPC   C2B51344  39.575  11.379   6.814
 3968POPC   C3B51345  39.589  11.106   7.177
 3968POPC   C4B51346  39.553  11.228   7.595
 3969POPC   NC351347   0.293  10.273   5.572
 3969POPC   PO451348   0.933  10.553   5.408
 3969POPC   GL151349   0.657  10.622   5.820
 3969POPC   GL251350   0.509  10.344   6.015
 3969POPC   C1A51351   0.507  10.779   6.251
 3969POPC   D2A51352   0.420  10.533   6.670
 3969POPC   C3A51353   0.548  10.767   7.049
 3969POPC   C4A51354   0.901  10.637   7.304
 3969POPC   C1B51355   0.355  10.090   6.360
 3969POPC   C2B51356  44.943  10.142   6.570
 3969POPC   C3B51357  44.942  10.275   6.985
 3969POPC   C4B51358   0.359  10.318   7.172
 3970POPC   NC351359  37.933  40.822   5.067
 3970POPC   PO451360  37.726  40.418   5.598
 3970POPC   GL151361  37.485  40.667   5.811
 3970POPC   GL251362  37.551  40.986   5.862
 3970POPC   C1A51363  37.595  40.619   6.238
 3970POPC   D2A51364  37.693  40.801   6.622
 3970POPC   C3A51365  37.800  40.590   6.985
 3970POPC   C4A51366  37.617  40.828   7.266
 3970POPC   C1B51367  37.880  41.041   6.182
 3970POPC   C2B51368  37.887  41.264   6.562
 3970POPC   C3B51369  37.957  41.094   6.966
 3970POPC   C4B51370  38.122  40.909   7.352
 3971POPC   NC351371  32.596   6.596   5.567
 3971POPC   PO451372  32.337   7.207   5.344
 3971POPC   GL151373  32.178   6.924   5.701
 3971POPC   GL251374  32.128   6.541   5.797
 3971POPC   C1A51375  32.067   6.911   6.155
 3971POPC   D2A51376  32.154   7.148   6.541
 3971POPC   C3A51377  32.414   6.933   6.842
 3971POPC   C4A51378  32.246   6.801   7.240
 3971POPC   C1B51379  32.294   6.420   6.226
 3971POPC   C2B51380  32.398   6.414   6.679
 3971POPC   C3B51381  32.226   6.307   7.104
 3971POPC   C4B51382  32.254   6.386   7.567
 3972POPC   NC351383  33.152  27.117   5.291
 3972POPC   PO451384  33.503  26.621   5.601
 3972POPC   GL151385  33.266  26.977   5.792
 3972POPC   GL251386  32.897  26.978   5.700
 3972POPC   C1A51387  33.277  27.058   6.249
 3972POPC   D2A51388  33.330  26.706   6.577
 3972POPC   C3A51389  33.134  26.701   7.010
 3972POPC   C4A51390  33.371  26.659   7.384
 3972POPC   C1B51391  32.753  27.096   6.107
 3972POPC   C2B51392  32.860  26.925   6.528
 3972POPC   C3B51393  32.839  27.121   6.915
 3972POPC   C4B51394  32.619  27.039   7.279
 3973POPC   NC351395  21.148  17.938   5.554
 3973POPC   PO451396  21.386  18.640   5.470
 3973POPC   GL151397  21.403  18.376   5.835
 3973POPC   GL251398  21.693  18.152   5.808
 3973POPC   C1A51399  21.598  18.436   6.255
 3973POPC   D2A51400  21.426  18.613   6.607
 3973POPC   C3A51401  21.510  18.394   6.988
 3973POPC   C4A51402  21.449  18.219   7.422
 3973POPC   C1B51403  21.487  17.944   6.179
 3973POPC   C2B51404  21.368  18.053   6.608
 3973POPC   C3B51405  21.454  17.877   7.023
 3973POPC   C4B51406  21.778  17.861   7.354
 3974POPC   NC351407  18.169   9.762   5.531
 3974POPC   PO451408  18.745  10.021   5.272
 3974POPC   GL151409  18.492  10.015   5.791
 3974POPC   GL251410  18.094  10.064   5.913
 3974POPC   C1A51411  18.454   9.727   6.136
 3974POPC   D2A51412  18.625   9.624   6.532
 3974POPC   C3A51413  18.407   9.786   6.878
 3974POPC   C4A51414  18.607   9.701   7.253
 3974POPC   C1B51415  17.953   9.643   6.148
 3974POPC   C2B51416  18.132   9.405   6.526
 3974POPC   C3B51417  17.993   9.467   6.961
 3974POPC   C4B51418  18.085   9.773   7.290
 3975POPC   NC351419  21.977  19.508   5.285
 3975POPC   PO451420  22.160  18.869   5.397
 3975POPC   GL151421  22.268  19.124   5.790
 3975POPC   GL251422  22.031  19.019   5.946
 3975POPC   C1A51423  22.327  19.224   6.272
 3975POPC   D2A51424  22.054  19.076   6.624
 3975POPC   C3A51425  22.251  19.082   7.035
 3975POPC   C4A51426  22.404  18.847   7.395
 3975POPC   C1B51427  22.127  18.710   6.260
 3975POPC   C2B51428  21.928  18.576   6.653
 3975POPC   C3B51429  21.820  18.815   7.042
 3975POPC   C4B51430  21.917  18.865   7.522
 3976POPC   NC351431  10.270  23.938   5.549
 3976POPC   PO451432  10.842  23.531   5.394
 3976POPC   GL151433  10.627  23.626   5.792
 3976POPC   GL251434  10.307  23.539   5.844
 3976POPC   C1A51435  10.592  23.578   6.245
 3976POPC   D2A51436  10.319  23.442   6.546
 3976POPC   C3A51437  10.513  23.552   6.918
 3976POPC   C4A51438  10.444  23.518   7.313
 3976POPC   C1B51439  10.153  23.829   6.216
 3976POPC   C2B51440  10.318  23.955   6.653
 3976POPC   C3B51441  10.243  23.966   7.095
 3976POPC   C4B51442  10.029  24.213   7.377
 3977POPC   NC351443  34.956  26.456   5.613
 3977POPC   PO451444  34.529  25.908   5.324
 3977POPC   GL151445  34.662  25.909   5.745
 3977POPC   GL251446  34.618  26.230   5.900
 3977POPC   C1A51447  34.621  25.772   6.166
 3977POPC   D2A51448  34.607  25.933   6.561
 3977POPC   C3A51449  34.344  25.758   6.880
 3977POPC   C4A51450  34.519  25.643   7.274
 3977POPC   C1B51451  34.687  26.402   6.335
 3977POPC   C2B51452  34.866  26.326   6.746
 3977POPC   C3B51453  34.786  26.041   7.081
 3977POPC   C4B51454  34.702  26.185   7.469
 3978POPC   NC351455  10.071  41.764   5.296
 3978POPC   PO451456  10.663  41.358   5.324
 3978POPC   GL151457  10.586  41.243   5.774
 3978POPC   GL251458  10.226  41.241   5.717
 3978POPC   C1A51459  10.628  41.236   6.265
 3978POPC   D2A51460  10.631  41.605   6.538
 3978POPC   C3A51461  10.387  41.653   6.910
 3978POPC   C4A51462  10.638  41.634   7.294
 3978POPC   C1B51463  10.220  41.501   6.082
 3978POPC   C2B51464  10.129  41.380   6.503
 3978POPC   C3B51465  10.078  41.192   6.901
 3978POPC   C4B51466  10.181  41.393   7.294
 3979POPC   NC351467  44.349   4.196   5.496
 3979POPC   PO451468  44.912   4.469   5.473
 3979POPC   GL151469  44.801   4.380   5.894
 3979POPC   GL251470  44.914   4.023   5.940
 3979POPC   C1A51471  44.661   4.522   6.317
 3979POPC   D2A51472  44.873   4.572   6.725
 3979POPC   C3A51473  44.733   4.301   7.056
 3979POPC   C4A51474  44.290   4.403   7.152
 3979POPC   C1B51475  44.545   4.025   6.237
 3979POPC   C2B51476  44.421   4.135   6.680
 3979POPC   C3B51477  44.380   3.896   7.094
 3979POPC   C4B51478  44.644   3.775   7.455
 3980POPC   NC351479  15.240  15.650   5.483
 3980POPC   PO451480  15.324  15.011   5.392
 3980POPC   GL151481  15.163  14.996   5.822
 3980POPC   GL251482  15.058  15.357   5.863
 3980POPC   C1A51483  14.965  15.042   6.243
 3980POPC   D2A51484  14.908  15.285   6.631
 3980POPC   C3A51485  15.054  15.056   6.988
 3980POPC   C4A51486  15.085  14.941   7.420
 3980POPC   C1B51487  15.244  15.478   6.279
 3980POPC   C2B51488  15.436  15.133   6.557
 3980POPC   C3B51489  15.515  14.873   6.953
 3980POPC   C4B51490  15.507  15.185   7.264
 3981POPC   NC351491  11.676  39.959   5.588
 3981POPC   PO451492  12.284  39.997   5.254
 3981POPC   GL151493  12.171  39.816   5.678
 3981POPC   GL251494  12.171  40.119   5.856
 3981POPC   C1A51495  12.120  39.746   6.178
 3981POPC   D2A51496  12.273  39.738   6.613
 3981POPC   C3A51497  12.144  39.824   7.047
 3981POPC   C4A51498  12.129  39.951   7.513
 3981POPC   C1B51499  11.967  40.218   6.284
 3981POPC   C2B51500  11.834  40.083   6.716
 3981POPC   C3B51501  11.838  40.220   7.178
 3981POPC   C4B51502  12.044  40.453   7.551
 3982POPC   NC351503   5.928  31.088   5.375
 3982POPC   PO451504   5.811  31.766   5.457
 3982POPC   GL151505   5.982  31.470   5.767
 3982POPC   GL251506   5.652  31.339   5.849
 3982POPC   C1A51507   6.224  31.514   6.187
 3982POPC   D2A51508   6.370  31.776   6.561
 3982POPC   C3A51509   6.264  31.607   6.998
 3982POPC   C4A51510   5.965  31.707   7.347
 3982POPC   C1B51511   5.794  31.172   6.276
 3982POPC   C2B51512   5.730  31.109   6.753
 3982POPC   C3B51513   5.768  31.248   7.219
 3982POPC   C4B51514   5.469  31.478   7.494
 3983POPC   NC351515  27.176   1.652   5.502
 3983POPC   PO451516  26.961   1.015   5.326
 3983POPC   GL151517  26.818   1.261   5.687
 3983POPC   GL251518  26.560   1.062   5.852
 3983POPC   C1A51519  26.897   1.334   6.149
 3983POPC   D2A51520  26.958   1.178   6.607
 3983POPC   C3A51521  26.707   1.416   6.932
 3983POPC   C4A51522  26.777   1.598   7.346
 3983POPC   C1B51523  26.601   0.946   6.295
 3983POPC   C2B51524  26.523   0.925   6.747
 3983POPC   C3B51525  26.831   0.940   7.102
 3983POPC   C4B51526  27.269   0.813   7.147
 3984POPC   NC351527  14.179  32.978   5.491
 3984POPC   PO451528  14.734  33.179   5.133
 3984POPC   GL151529  14.646  32.893   5.648
 3984POPC   GL251530  14.356  33.086   5.944
 3984POPC   C1A51531  14.618  32.709   6.096
 3984POPC   D2A51532  14.229  32.726   6.413
 3984POPC   C3A51533  14.270  32.681   6.881
 3984POPC   C4A51534  14.662  32.793   7.110
 3984POPC   C1B51535  14.106  33.200   6.282
 3984POPC   C2B51536  14.245  33.160   6.711
 3984POPC   C3B51537  14.333  33.192   7.157
 3984POPC   C4B51538  14.590  33.092   7.537
 3985POPC   NC351539  40.825  40.508   5.560
 3985POPC   PO451540  40.729  39.896   5.321
 3985POPC   GL151541  40.636  39.802   5.785
 3985POPC   GL251542  40.755  40.091   5.835
 3985POPC   C1A51543  40.795  39.630   6.169
 3985POPC   D2A51544  40.756  39.861   6.538
 3985POPC   C3A51545  40.919  39.752   6.914
 3985POPC   C4A51546  40.694  39.919   7.251
 3985POPC   C1B51547  41.056  40.061   6.145
 3985POPC   C2B51548  41.075  40.249   6.545
 3985POPC   C3B51549  40.910  40.265   6.939
 3985POPC   C4B51550  40.964  40.559   7.246
 3986POPC   NC351551   6.627   9.185   5.681
 3986POPC   PO451552   6.926   8.714   5.368
 3986POPC   GL151553   6.710   8.663   5.800
 3986POPC   GL251554   6.401   8.793   5.950
 3986POPC   C1A51555   6.774   8.715   6.276
 3986POPC   D2A51556   6.604   8.847   6.700
 3986POPC   C3A51557   6.846   8.777   7.110
 3986POPC   C4A51558   6.721   8.734   7.557
 3986POPC   C1B51559   6.374   9.136   6.289
 3986POPC   C2B51560   6.583   9.376   6.636
 3986POPC   C3B51561   6.585   9.240   7.051
 3986POPC   C4B51562   6.349   8.886   7.196
 3987POPC   NC351563  20.870  16.742   5.485
 3987POPC   PO451564  21.579  16.751   5.285
 3987POPC   GL151565  21.367  16.642   5.661
 3987POPC   GL251566  21.663  16.471   5.782
 3987POPC   C1A51567  21.204  16.605   6.110
 3987POPC   D2A51568  21.257  16.428   6.554
 3987POPC   C3A51569  21.183  16.695   6.924
 3987POPC   C4A51570  21.222  16.648   7.366
 3987POPC   C1B51571  21.730  16.621   6.198
 3987POPC   C2B51572  21.613  16.798   6.591
 3987POPC   C3B51573  21.692  16.670   7.024
 3987POPC   C4B51574  21.677  16.919   7.375
 3988POPC   NC351575  38.385  27.092   5.354
 3988POPC   PO451576  37.957  26.654   5.332
 3988POPC   GL151577  38.299  26.736   5.681
 3988POPC   GL251578  38.222  26.604   5.954
 3988POPC   C1A51579  38.326  27.063   6.065
 3988POPC   D2A51580  38.321  26.909   6.512
 3988POPC   C3A51581  38.683  26.765   6.725
 3988POPC   C4A51582  38.736  26.880   7.151
 3988POPC   C1B51583  38.496  26.489   6.291
 3988POPC   C2B51584  38.247  26.406   6.629
 3988POPC   C3B51585  38.307  26.600   7.008
 3988POPC   C4B51586  38.321  26.584   7.433
 3989POPC   NC351587   7.397  22.481   5.550
 3989POPC   PO451588   7.473  21.865   5.183
 3989POPC   GL151589   7.553  21.993   5.662
 3989POPC   GL251590   7.260  22.068   5.833
 3989POPC   C1A51591   7.634  22.110   6.168
 3989POPC   D2A51592   7.574  21.984   6.650
 3989POPC   C3A51593   7.602  22.184   7.094
 3989POPC   C4A51594   7.768  22.562   7.291
 3989POPC   C1B51595   7.037  21.865   6.176
 3989POPC   C2B51596   6.983  21.796   6.636
 3989POPC   C3B51597   7.116  21.975   7.036
 3989POPC   C4B51598   7.145  22.291   7.354
 3990POPC   NC351599  24.936  41.670   5.384
 3990POPC   PO451600  25.316  41.092   5.407
 3990POPC   GL151601  25.120  41.319   5.721
 3990POPC   GL251602  25.250  41.687   5.794
 3990POPC   C1A51603  25.121  41.277   6.141
 3990POPC   D2A51604  25.179  41.561   6.471
 3990POPC   C3A51605  25.031  41.552   6.877
 3990POPC   C4A51606  25.176  41.428   7.275
 3990POPC   C1B51607  25.189  41.959   6.163
 3990POPC   C2B51608  25.435  41.989   6.605
 3990POPC   C3B51609  25.350  41.923   7.075
 3990POPC   C4B51610  25.485  41.766   7.525
 3991POPC   NC351611  40.191  24.724   5.448
 3991POPC   PO451612  39.823  24.132   5.441
 3991POPC   GL151613  39.934  24.408   5.771
 3991POPC   GL251614  40.226  24.318   5.875
 3991POPC   C1A51615  39.876  24.712   6.100
 3991POPC   D2A51616  40.070  24.931   6.460
 3991POPC   C3A51617  40.035  24.775   6.882
 3991POPC   C4A51618  40.060  24.931   7.311
 3991POPC   C1B51619  40.231  24.444   6.334
 3991POPC   C2B51620  39.919  24.349   6.579
 3991POPC   C3B51621  39.855  24.187   6.957
 3991POPC   C4B51622  40.005  24.417   7.265
 3992POPC   NC351623  10.203  38.021   5.576
 3992POPC   PO451624  10.892  38.012   5.305
 3992POPC   GL151625  10.798  37.810   5.774
 3992POPC   GL251626  10.532  37.593   5.847
 3992POPC   C1A51627  10.622  37.900   6.240
 3992POPC   D2A51628  10.332  37.817   6.576
 3992POPC   C3A51629  10.348  37.950   6.997
 3992POPC   C4A51630  10.509  37.754   7.371
 3992POPC   C1B51631  10.727  37.368   6.201
 3992POPC   C2B51632  10.599  37.181   6.605
 3992POPC   C3B51633  10.511  37.337   7.030
 3992POPC   C4B51634  10.453  37.256   7.470
 3993POPC   NC351635  23.146   1.881   5.468
 3993POPC   PO451636  22.450   1.833   5.471
 3993POPC   GL151637  22.572   1.970   5.864
 3993POPC   GL251638  22.896   2.108   5.853
 3993POPC   C1A51639  22.707   1.807   6.250
 3993POPC   D2A51640  22.883   1.681   6.665
 3993POPC   C3A51641  22.693   1.749   7.066
 3993POPC   C4A51642  22.807   1.507   7.416
 3993POPC   C1B51643  22.753   2.333   6.211
 3993POPC   C2B51644  22.670   2.158   6.611
 3993POPC   C3B51645  22.974   2.144   6.901
 3993POPC   C4B51646  23.100   2.173   7.290
 3994POPC   NC351647  19.931  13.230   5.393
 3994POPC   PO451648  19.828  12.635   5.263
 3994POPC   GL151649  19.756  12.868   5.703
 3994POPC   GL251650  19.508  12.649   5.841
 3994POPC   C1A51651  19.802  13.058   6.133
 3994POPC   D2A51652  19.808  12.855   6.562
 3994POPC   C3A51653  19.938  12.967   6.973
 3994POPC   C4A51654  19.786  13.140   7.355
 3994POPC   C1B51655  19.728  12.537   6.182
 3994POPC   C2B51656  19.580  12.390   6.564
 3994POPC   C3B51657  19.693  12.491   6.961
 3994POPC   C4B51658  19.777  12.632   7.356
 3995POPC   NC351659  35.750  12.406   5.511
 3995POPC   PO451660  35.261  12.964   5.483
 3995POPC   GL151661  35.363  12.667   5.815
 3995POPC   GL251662  35.693  12.800   5.878
 3995POPC   C1A51663  35.448  12.586   6.273
 3995POPC   D2A51664  35.562  12.599   6.712
 3995POPC   C3A51665  35.224  12.610   7.033
 3995POPC   C4A51666  34.842  12.668   7.323
 3995POPC   C1B51667  35.488  13.095   6.180
 3995POPC   C2B51668  35.355  13.089   6.631
 3995POPC   C3B51669  35.558  12.993   7.044
 3995POPC   C4B51670  35.772  12.613   7.178
 3996POPC   NC351671  33.269  24.024   5.564
 3996POPC   PO451672  32.773  23.842   5.230
 3996POPC   GL151673  32.874  23.742   5.737
 3996POPC   GL251674  32.825  24.073   5.886
 3996POPC   C1A51675  32.933  23.775   6.275
 3996POPC   D2A51676  32.735  23.918   6.713
 3996POPC   C3A51677  32.983  23.879   7.127
 3996POPC   C4A51678  33.165  23.643   7.499
 3996POPC   C1B51679  33.200  24.191   6.181
 3996POPC   C2B51680  33.226  24.071   6.607
 3996POPC   C3B51681  33.387  24.186   7.003
 3996POPC   C4B51682  33.370  24.096   7.455
 3997POPC   NC351683   3.897   9.205   5.324
 3997POPC   PO451684   3.466   8.665   5.514
 3997POPC   GL151685   3.739   8.916   5.791
 3997POPC   GL251686   3.839   9.272   5.852
 3997POPC   C1A51687   3.665   8.945   6.235
 3997POPC   D2A51688   3.318   9.037   6.497
 3997POPC   C3A51689   3.439   9.057   6.918
 3997POPC   C4A51690   3.348   8.771   7.193
 3997POPC   C1B51691   3.573   9.456   6.201
 3997POPC   C2B51692   3.569   9.471   6.639
 3997POPC   C3B51693   3.862   9.381   6.980
 3997POPC   C4B51694   3.757   9.260   7.382
 3998POPC   NC351695  23.059  31.978   5.145
 3998POPC   PO451696  23.493  32.433   5.492
 3998POPC   GL151697  23.758  32.231   5.821
 3998POPC   GL251698  23.787  31.861   5.809
 3998POPC   C1A51699  24.007  32.145   6.207
 3998POPC   D2A51700  23.866  32.058   6.655
 3998POPC   C3A51701  23.838  32.399   6.972
 3998POPC   C4A51702  23.855  32.635   7.376
 3998POPC   C1B51703  23.549  31.922   6.220
 3998POPC   C2B51704  23.355  32.040   6.647
 3998POPC   C3B51705  23.523  31.963   7.076
 3998POPC   C4B51706  23.428  31.845   7.561
 3999POPC   NC351707  38.059  17.865   5.097
 3999POPC   PO451708  38.429  17.544   5.571
 3999POPC   GL151709  38.395  17.561   5.993
 3999POPC   GL251710  38.472  17.897   6.052
 3999POPC   C1A51711  38.519  17.293   6.333
 3999POPC   D2A51712  38.792  17.357   6.677
 3999POPC   C3A51713  38.592  17.600   6.952
 3999POPC   C4A51714  38.407  17.728   7.302
 3999POPC   C1B51715  38.377  17.771   6.484
 3999POPC   C2B51716  38.082  17.763   6.834
 3999POPC   C3B51717  38.034  18.044   7.183
 3999POPC   C4B51718  38.158  18.130   7.623
 4000POPC   NC351719  22.459   3.888   5.633
 4000POPC   PO451720  23.142   3.563   5.538
 4000POPC   GL151721  22.847   3.636   5.882
 4000POPC   GL251722  22.755   3.304   5.969
 4000POPC   C1A51723  22.594   3.789   6.257
 4000POPC   D2A51724  22.521   3.671   6.714
 4000POPC   C3A51725  22.917   3.567   6.881
 4000POPC   C4A51726  23.146   3.716   7.219
 4000POPC   C1B51727  22.830   3.353   6.392
 4000POPC   C2B51728  22.702   3.106   6.727
 4000POPC   C3B51729  22.932   3.083   7.080
 4000POPC   C4B51730  22.807   3.385   7.367
 4001POPC   NC351731  33.214  27.774   5.324
 4001POPC   PO451732  32.543  27.703   5.357
 4001POPC   GL151733  32.671  27.480   5.726
 4001POPC   GL251734  33.040  27.473   5.765
 4001POPC   C1A51735  32.734  27.632   6.135
 4001POPC   D2A51736  32.868  27.455   6.491
 4001POPC   C3A51737  32.602  27.577   6.806
 4001POPC   C4A51738  32.732  27.533   7.217
 4001POPC   C1B51739  33.264  27.647   6.147
 4001POPC   C2B51740  33.189  27.857   6.554
 4001POPC   C3B51741  33.159  27.606   6.919
 4001POPC   C4B51742  33.232  27.648   7.343
 4002POPC   NC351743  35.868  30.019   5.149
 4002POPC   PO451744  35.243  29.944   5.303
 4002POPC   GL151745  35.369  29.866   5.695
 4002POPC   GL251746  35.569  30.151   5.747
 4002POPC   C1A51747  35.276  29.873   6.142
 4002POPC   D2A51748  34.965  29.668   6.423
 4002POPC   C3A51749  35.032  29.740   6.851
 4002POPC   C4A51750  35.402  29.739   7.055
 4002POPC   C1B51751  35.616  30.264   6.169
 4002POPC   C2B51752  35.562  30.072   6.601
 4002POPC   C3B51753  35.439  30.248   7.005
 4002POPC   C4B51754  35.748  30.397   7.294
 4003POPC   NC351755  13.257  28.878   5.097
 4003POPC   PO451756  13.650  29.318   5.447
 4003POPC   GL151757  13.640  29.137   5.856
 4003POPC   GL251758  13.915  28.917   5.814
 4003POPC   C1A51759  13.520  28.981   6.270
 4003POPC   D2A51760  13.647  28.846   6.690
 4003POPC   C3A51761  13.419  29.053   7.029
 4003POPC   C4A51762  13.277  29.235   7.419
 4003POPC   C1B51763  14.042  29.049   6.224
 4003POPC   C2B51764  14.125  29.039   6.641
 4003POPC   C3B51765  13.891  29.262   6.918
 4003POPC   C4B51766  13.798  29.288   7.328
 4004POPC   NC351767  12.546  28.818   5.386
 4004POPC   PO451768  11.899  29.154   5.610
 4004POPC   GL151769  12.055  29.109   5.959
 4004POPC   GL251770  12.369  29.109   5.810
 4004POPC   C1A51771  11.969  29.234   6.374
 4004POPC   D2A51772  11.935  29.469   6.737
 4004POPC   C3A51773  11.998  29.240   7.099
 4004POPC   C4A51774  11.889  29.589   7.304
 4004POPC   C1B51775  12.456  29.363   6.174
 4004POPC   C2B51776  12.417  29.363   6.606
 4004POPC   C3B51777  12.407  29.552   6.991
 4004POPC   C4B51778  12.374  29.421   7.401
 4005POPC   NC351779  23.919  34.371   5.309
 4005POPC   PO451780  23.428  34.817   5.536
 4005POPC   GL151781  23.670  34.474   5.765
 4005POPC   GL251782  23.819  34.112   5.741
 4005POPC   C1A51783  23.569  34.445   6.193
 4005POPC   D2A51784  23.635  34.719   6.552
 4005POPC   C3A51785  23.616  34.572   6.979
 4005POPC   C4A51786  23.405  34.834   7.280
 4005POPC   C1B51787  23.929  34.101   6.167
 4005POPC   C2B51788  23.712  34.123   6.561
 4005POPC   C3B51789  23.872  34.043   6.941
 4005POPC   C4B51790  23.891  34.239   7.292
 4006POPC   NC351791  10.837  13.696   5.476
 4006POPC   PO451792  11.295  13.263   5.704
 4006POPC   GL151793  10.883  13.373   5.898
 4006POPC   GL251794  10.556  13.623   5.904
 4006POPC   C1A51795  10.675  13.317   6.276
 4006POPC   D2A51796  10.589  13.563   6.617
 4006POPC   C3A51797  10.640  13.424   7.033
 4006POPC   C4A51798  10.396  13.763   7.252
 4006POPC   C1B51799  10.211  13.305   6.087
 4006POPC   C2B51800  10.086  13.388   6.494
 4006POPC   C3B51801  10.158  13.456   6.894
 4006POPC   C4B51802  10.188  13.271   7.279
 4007POPC   NC351803  28.316  18.190   5.124
 4007POPC   PO451804  28.360  18.833   5.188
 4007POPC   GL151805  28.444  18.572   5.654
 4007POPC   GL251806  28.208  18.555   5.968
 4007POPC   C1A51807  28.594  18.283   6.076
 4007POPC   D2A51808  28.442  18.202   6.533
 4007POPC   C3A51809  28.680  18.264   6.948
 4007POPC   C4A51810  28.803  18.086   7.350
 4007POPC   C1B51811  28.021  18.465   6.391
 4007POPC   C2B51812  27.846  18.080   6.634
 4007POPC   C3B51813  27.943  17.879   7.047
 4007POPC   C4B51814  28.274  18.069   7.332
 4008POPC   NC351815  15.435  30.171   5.507
 4008POPC   PO451816  15.171  29.608   5.566
 4008POPC   GL151817  15.211  29.848   5.920
 4008POPC   GL251818  15.120  30.201   5.894
 4008POPC   C1A51819  15.178  29.852   6.367
 4008POPC   D2A51820  15.409  29.963   6.740
 4008POPC   C3A51821  15.401  29.769   7.127
 4008POPC   C4A51822  15.165  29.551   7.422
 4008POPC   C1B51823  14.879  30.246   6.242
 4008POPC   C2B51824  15.029  30.329   6.649
 4008POPC   C3B51825  15.130  30.343   7.066
 4008POPC   C4B51826  14.769  30.325   7.308
 4009POPC   NC351827   7.428  30.165   5.366
 4009POPC   PO451828   7.011  30.124   5.881
 4009POPC   GL151829   7.385  29.934   5.811
 4009POPC   GL251830   7.417  29.582   5.819
 4009POPC   C1A51831   7.661  29.985   6.101
 4009POPC   D2A51832   7.573  29.903   6.517
 4009POPC   C3A51833   7.292  30.074   6.840
 4009POPC   C4A51834   7.565  30.033   7.186
 4009POPC   C1B51835   7.230  29.594   6.253
 4009POPC   C2B51836   7.377  29.474   6.675
 4009POPC   C3B51837   7.351  29.576   7.081
 4009POPC   C4B51838   6.954  29.542   7.250
 4010POPC   NC351839  10.151  27.155   5.530
 4010POPC   PO451840   9.474  26.858   5.544
 4010POPC   GL151841   9.836  26.809   5.801
 4010POPC   GL251842   9.768  26.494   5.963
 4010POPC   C1A51843  10.017  26.895   6.183
 4010POPC   D2A51844   9.727  26.979   6.505
 4010POPC   C3A51845   9.909  27.002   6.874
 4010POPC   C4A51846   9.572  27.024   7.161
 4010POPC   C1B51847  10.040  26.359   6.209
 4010POPC   C2B51848   9.959  26.542   6.592
 4010POPC   C3B51849   9.720  26.544   6.971
 4010POPC   C4B51850   9.727  26.319   7.345
 4011POPC   NC351851  39.875  36.307   5.537
 4011POPC   PO451852  40.025  35.603   5.645
 4011POPC   GL151853  40.158  35.965   5.819
 4011POPC   GL251854  39.808  36.046   5.956
 4011POPC   C1A51855  40.229  36.228   6.171
 4011POPC   D2A51856  40.084  36.235   6.581
 4011POPC   C3A51857  40.293  36.405   6.909
 4011POPC   C4A51858  40.352  36.207   7.295
 4011POPC   C1B51859  39.657  36.032   6.358
 4011POPC   C2B51860  39.801  35.821   6.699
 4011POPC   C3B51861  39.929  35.995   7.063
 4011POPC   C4B51862  39.620  36.060   7.390
 4012POPC   NC351863   3.043  24.310   5.417
 4012POPC   PO451864   2.399  24.658   5.545
 4012POPC   GL151865   2.761  24.538   5.841
 4012POPC   GL251866   3.102  24.701   5.764
 4012POPC   C1A51867   2.738  24.596   6.320
 4012POPC   D2A51868   2.414  24.639   6.687
 4012POPC   C3A51869   2.630  24.586   7.080
 4012POPC   C4A51870   2.945  24.316   7.279
 4012POPC   C1B51871   3.212  24.831   6.196
 4012POPC   C2B51872   3.235  24.576   6.601
 4012POPC   C3B51873   3.196  24.684   7.060
 4012POPC   C4B51874   2.921  24.812   7.443
 4013POPC   NC351875   4.968  24.401   4.983
 4013POPC   PO451876   4.919  24.799   5.494
 4013POPC   GL151877   4.992  24.426   5.792
 4013POPC   GL251878   5.199  24.638   5.989
 4013POPC   C1A51879   4.992  24.252   6.213
 4013POPC   D2A51880   5.011  24.577   6.520
 4013POPC   C3A51881   5.253  24.388   6.827
 4013POPC   C4A51882   5.143  24.337   7.267
 4013POPC   C1B51883   5.413  24.928   6.270
 4013POPC   C2B51884   5.391  25.001   6.716
 4013POPC   C3B51885   5.371  24.789   7.116
 4013POPC   C4B51886   4.939  24.800   7.332
 4014POPC   NC351887  14.477  30.455   5.535
 4014POPC   PO451888  14.100  30.956   5.311
 4014POPC   GL151889  14.404  30.979   5.686
 4014POPC   GL251890  14.188  30.794   5.901
 4014POPC   C1A51891  14.614  30.882   6.124
 4014POPC   D2A51892  14.500  30.981   6.554
 4014POPC   C3A51893  14.649  30.687   6.857
 4014POPC   C4A51894  14.419  30.670   7.226
 4014POPC   C1B51895  14.047  30.686   6.333
 4014POPC   C2B51896  14.143  30.624   6.788
 4014POPC   C3B51897  13.962  30.480   7.211
 4014POPC   C4B51898  14.146  30.599   7.651
 4015POPC   NC351899  17.116  21.518   5.335
 4015POPC   PO451900  16.429  21.465   5.417
 4015POPC   GL151901  16.763  21.552   5.717
 4015POPC   GL251902  16.911  21.207   5.788
 4015POPC   C1A51903  16.983  21.589   6.134
 4015POPC   D2A51904  16.943  21.355   6.513
 4015POPC   C3A51905  16.801  21.568   6.886
 4015POPC   C4A51906  16.955  21.680   7.268
 4015POPC   C1B51907  16.550  21.304   6.105
 4015POPC   C2B51908  16.431  21.463   6.511
 4015POPC   C3B51909  16.338  21.346   6.946
 4015POPC   C4B51910  16.598  21.188   7.281
 4016POPC   NC351911  31.960   2.033   5.542
 4016POPC   PO451912  31.295   2.033   5.389
 4016POPC   GL151913  31.450   2.175   5.778
 4016POPC   GL251914  31.141   2.289   5.915
 4016POPC   C1A51915  31.691   2.009   6.128
 4016POPC   D2A51916  31.901   2.031   6.508
 4016POPC   C3A51917  31.702   1.952   6.897
 4016POPC   C4A51918  31.756   2.170   7.294
 4016POPC   C1B51919  31.186   1.886   6.140
 4016POPC   C2B51920  31.456   1.717   6.480
 4016POPC   C3B51921  31.206   1.799   6.835
 4016POPC   C4B51922  31.232   2.042   7.168
 4017POPC   NC351923  19.237  24.225   5.416
 4017POPC   PO451924  19.059  24.906   5.347
 4017POPC   GL151925  18.968  24.589   5.726
 4017POPC   GL251926  18.942  24.205   5.835
 4017POPC   C1A51927  19.076  24.551   6.191
 4017POPC   D2A51928  18.904  24.545   6.608
 4017POPC   C3A51929  19.171  24.673   6.934
 4017POPC   C4A51930  19.033  24.613   7.332
 4017POPC   C1B51931  19.281  24.086   6.164
 4017POPC   C2B51932  19.309  24.196   6.639
 4017POPC   C3B51933  19.079  24.171   7.067
 4017POPC   C4B51934  19.250  24.204   7.532
 4018POPC   NC351935  31.536  24.081   5.520
 4018POPC   PO451936  31.732  23.365   5.624
 4018POPC   GL151937  31.631  23.676   5.906
 4018POPC   GL251938  31.318  23.812   5.870
 4018POPC   C1A51939  31.623  23.811   6.314
 4018POPC   D2A51940  31.531  23.646   6.698
 4018POPC   C3A51941  31.585  23.700   7.141
 4018POPC   C4A51942  31.336  23.411   7.434
 4018POPC   C1B51943  31.132  23.961   6.225
 4018POPC   C2B51944  31.298  24.109   6.599
 4018POPC   C3B51945  31.143  23.892   6.943
 4018POPC   C4B51946  31.221  23.996   7.351
 4019POPC   NC351947  28.988  11.635   5.427
 4019POPC   PO451948  29.411  11.040   5.318
 4019POPC   GL151949  29.199  11.174   5.686
 4019POPC   GL251950  29.325  11.506   5.786
 4019POPC   C1A51951  29.218  11.120   6.155
 4019POPC   D2A51952  29.075  10.914   6.555
 4019POPC   C3A51953  28.966  11.113   6.941
 4019POPC   C4A51954  28.979  10.954   7.366
 4019POPC   C1B51955  28.953  11.561   6.095
 4019POPC   C2B51956  29.045  11.465   6.533
 4019POPC   C3B51957  29.348  11.439   6.852
 4019POPC   C4B51958  29.240  11.396   7.275
 4020POPC   NC351959  22.585  24.564   5.406
 4020POPC   PO451960  22.064  24.101   5.544
 4020POPC   GL151961  21.976  24.498   5.779
 4020POPC   GL251962  22.273  24.692   5.791
 4020POPC   C1A51963  21.930  24.601   6.221
 4020POPC   D2A51964  22.013  24.290   6.537
 4020POPC   C3A51965  21.980  24.458   6.926
 4020POPC   C4A51966  22.345  24.459   7.182
 4020POPC   C1B51967  22.484  24.597   6.181
 4020POPC   C2B51968  22.406  24.648   6.630
 4020POPC   C3B51969  22.408  24.921   6.991
 4020POPC   C4B51970  22.637  24.817   7.386
 4021POPC   NC351971  33.060  20.050   5.475
 4021POPC   PO451972  33.554  19.669   5.363
 4021POPC   GL151973  33.329  19.739   5.772
 4021POPC   GL251974  33.486  20.026   5.925
 4021POPC   C1A51975  33.145  19.824   6.224
 4021POPC   D2A51976  33.330  19.739   6.641
 4021POPC   C3A51977  33.016  19.701   6.976
 4021POPC   C4A51978  32.794  19.659   7.396
 4021POPC   C1B51979  33.317  20.326   6.206
 4021POPC   C2B51980  33.147  20.225   6.595
 4021POPC   C3B51981  33.352  20.115   6.983
 4021POPC   C4B51982  33.232  19.913   7.378
 4022POPC   NC351983  14.526  16.312   5.578
 4022POPC   PO451984  14.053  15.881   5.409
 4022POPC   GL151985  14.254  15.847   5.806
 4022POPC   GL251986  14.207  16.189   5.969
 4022POPC   C1A51987  14.168  15.746   6.242
 4022POPC   D2A51988  14.365  15.902   6.624
 4022POPC   C3A51989  14.228  15.841   7.040
 4022POPC   C4A51990  14.435  15.607   7.414
 4022POPC   C1B51991  14.571  16.269   6.268
 4022POPC   C2B51992  14.770  16.233   6.685
 4022POPC   C3B51993  14.733  15.907   6.990
 4022POPC   C4B51994  14.575  16.080   7.336
 4023POPC   NC351995  23.809  41.081   5.431
 4023POPC   PO451996  23.563  40.423   5.385
 4023POPC   GL151997  23.700  40.617   5.781
 4023POPC   GL251998  23.448  40.888   5.804
 4023POPC   C1A51999  23.993  40.700   6.183
 4023POPC   D2A52000  23.857  40.811   6.622
 4023POPC   C3A52001  23.946  40.632   7.029
 4023POPC   C4A52002  23.612  40.509   7.300
 4023POPC   C1B52003  23.482  40.704   6.236
 4023POPC   C2B52004  23.331  40.862   6.620
 4023POPC   C3B52005  23.444  40.929   7.044
 4023POPC   C4B52006  23.831  41.134   7.146
 4024POPC   NC352007   6.367  16.512   5.199
 4024POPC   PO452008   6.781  17.053   5.382
 4024POPC   GL152009   6.534  16.786   5.672
 4024POPC   GL252010   6.320  16.974   5.898
 4024POPC   C1A52011   6.613  16.592   6.094
 4024POPC   D2A52012   6.722  16.665   6.535
 4024POPC   C3A52013   6.413  16.588   6.848
 4024POPC   C4A52014   6.576  16.530   7.252
 4024POPC   C1B52015   6.664  17.098   6.182
 4024POPC   C2B52016   6.788  17.169   6.611
 4024POPC   C3B52017   6.742  16.942   6.996
 4024POPC   C4B52018   6.961  16.811   7.402
 4025POPC   NC352019  27.183  18.279   5.405
 4025POPC   PO452020  26.606  17.951   5.558
 4025POPC   GL152021  26.805  18.153   5.933
 4025POPC   GL252022  26.960  18.499   5.926
 4025POPC   C1A52023  26.829  18.113   6.400
 4025POPC   D2A52024  26.558  18.266   6.760
 4025POPC   C3A52025  26.746  18.172   7.125
 4025POPC   C4A52026  27.022  17.851   7.039
 4025POPC   C1B52027  27.008  18.569   6.373
 4025POPC   C2B52028  27.100  18.415   6.781
 4025POPC   C3B52029  27.158  18.573   7.206
 4025POPC   C4B52030  26.969  18.782   7.587
 4026POPC   NC352031  43.156  26.729   5.329
 4026POPC   PO452032  43.250  27.292   5.420
 4026POPC   GL152033  43.095  26.999   5.773
 4026POPC   GL252034  42.784  26.770   5.741
 4026POPC   C1A52035  43.107  26.859   6.230
 4026POPC   D2A52036  43.329  26.945   6.621
 4026POPC   C3A52037  43.206  26.786   7.037
 4026POPC   C4A52038  42.849  26.567   7.207
 4026POPC   C1B52039  42.672  27.081   6.077
 4026POPC   C2B52040  42.650  27.161   6.503
 4026POPC   C3B52041  42.916  27.191   6.837
 4026POPC   C4B52042  42.958  27.515   7.084
 4027POPC   NC352043  32.004  22.984   5.527
 4027POPC   PO452044  32.479  23.301   5.247
 4027POPC   GL152045  32.476  23.228   5.731
 4027POPC   GL252046  32.147  23.314   5.888
 4027POPC   C1A52047  32.470  23.050   6.200
 4027POPC   D2A52048  32.425  22.760   6.571
 4027POPC   C3A52049  32.494  22.971   6.983
 4027POPC   C4A52050  32.344  22.808   7.346
 4027POPC   C1B52051  32.018  23.415   6.288
 4027POPC   C2B52052  32.172  23.197   6.631
 4027POPC   C3B52053  31.994  22.873   6.890
 4027POPC   C4B52054  31.984  23.139   7.218
 4028POPC   NC352055  18.773   7.036   5.445
 4028POPC   PO452056  18.404   7.646   5.459
 4028POPC   GL152057  18.437   7.444   5.833
 4028POPC   GL252058  18.109   7.424   5.954
 4028POPC   C1A52059  18.513   7.125   6.157
 4028POPC   D2A52060  18.390   6.939   6.555
 4028POPC   C3A52061  18.512   7.126   6.945
 4028POPC   C4A52062  18.213   7.287   7.250
 4028POPC   C1B52063  18.312   7.760   6.239
 4028POPC   C2B52064  18.185   7.856   6.669
 4028POPC   C3B52065  18.214   7.782   7.134
 4028POPC   C4B52066  18.265   7.663   7.615
 4029POPC   NC352067  39.748  15.449   5.451
 4029POPC   PO452068  40.382  15.246   5.375
 4029POPC   GL152069  40.154  15.107   5.781
 4029POPC   GL252070  39.788  15.178   5.867
 4029POPC   C1A52071  40.043  14.990   6.248
 4029POPC   D2A52072  39.917  15.324   6.540
 4029POPC   C3A52073  40.042  15.211   6.941
 4029POPC   C4A52074  40.023  14.831   7.153
 4029POPC   C1B52075  39.614  15.499   6.153
 4029POPC   C2B52076  39.486  15.599   6.616
 4029POPC   C3B52077  39.575  15.399   7.038
 4029POPC   C4B52078  39.807  15.240   7.429
 4030POPC   NC352079  39.893   3.239   5.446
 4030POPC   PO452080  39.595   3.718   5.584
 4030POPC   GL152081  39.936   3.625   5.849
 4030POPC   GL252082  40.237   3.499   5.740
 4030POPC   C1A52083  40.085   3.478   6.270
 4030POPC   D2A52084  40.061   3.661   6.695
 4030POPC   C3A52085  40.214   3.364   7.015
 4030POPC   C4A52086  40.129   3.370   7.458
 4030POPC   C1B52087  40.407   3.808   6.070
 4030POPC   C2B52088  40.545   3.686   6.494
 4030POPC   C3B52089  40.519   3.778   6.941
 4030POPC   C4B52090  40.202   3.847   7.213
 4031POPC   NC352091  18.673  14.918   5.422
 4031POPC   PO452092  19.252  15.397   5.401
 4031POPC   GL152093  19.111  15.263   5.782
 4031POPC   GL252094  19.105  14.923   5.742
 4031POPC   C1A52095  19.197  15.164   6.208
 4031POPC   D2A52096  19.056  15.410   6.544
 4031POPC   C3A52097  19.229  15.259   6.917
 4031POPC   C4A52098  19.160  15.414   7.292
 4031POPC   C1B52099  18.731  15.010   6.051
 4031POPC   C2B52100  18.664  15.081   6.493
 4031POPC   C3B52101  18.727  15.201   6.928
 4031POPC   C4B52102  18.884  14.997   7.260
 4032POPC   NC352103  37.721   6.225   5.282
 4032POPC   PO452104  37.342   5.744   5.486
 4032POPC   GL152105  37.580   5.961   5.787
 4032POPC   GL252106  37.621   5.622   5.931
 4032POPC   C1A52107  37.620   6.144   6.207
 4032POPC   D2A52108  37.403   6.175   6.599
 4032POPC   C3A52109  37.586   6.154   6.999
 4032POPC   C4A52110  37.536   5.799   7.217
 4032POPC   C1B52111  37.909   5.702   6.242
 4032POPC   C2B52112  37.798   5.821   6.650
 4032POPC   C3B52113  38.007   5.803   7.025
 4032POPC   C4B52114  38.112   5.537   7.379
 4033POPC   NC352115  32.271  19.944   5.367
 4033POPC   PO452116  32.776  19.687   5.538
 4033POPC   GL152117  32.531  20.028   5.790
 4033POPC   GL252118  32.133  20.107   5.828
 4033POPC   C1A52119  32.436  19.934   6.218
 4033POPC   D2A52120  32.711  19.938   6.591
 4033POPC   C3A52121  32.499  19.801   6.963
 4033POPC   C4A52122  32.424  20.029   7.324
 4033POPC   C1B52123  31.915  20.012   6.225
 4033POPC   C2B52124  32.102  19.968   6.615
 4033POPC   C3B52125  32.034  20.069   7.002
 4033POPC   C4B52126  31.924  20.132   7.371
 4034POPC   NC352127  22.503  32.790   5.160
 4034POPC   PO452128  22.074  32.381   5.539
 4034POPC   GL152129  22.052  32.029   5.817
 4034POPC   GL252130  21.692  31.958   5.930
 4034POPC   C1A52131  22.221  32.087   6.211
 4034POPC   D2A52132  22.422  32.159   6.597
 4034POPC   C3A52133  22.247  32.160   7.016
 4034POPC   C4A52134  22.342  32.424   7.355
 4034POPC   C1B52135  21.778  32.329   6.172
 4034POPC   C2B52136  22.051  32.535   6.473
 4034POPC   C3B52137  22.039  32.604   6.901
 4034POPC   C4B52138  21.795  32.398   7.205
 4035POPC   NC352139  35.532  13.855   5.390
 4035POPC   PO452140  35.025  13.786   5.737
 4035POPC   GL152141  35.356  13.700   5.932
 4035POPC   GL252142  35.576  13.456   5.761
 4035POPC   C1A52143  35.254  13.539   6.332
 4035POPC   D2A52144  35.159  13.550   6.753
 4035POPC   C3A52145  35.023  13.784   7.095
 4035POPC   C4A52146  35.435  13.868   7.266
 4035POPC   C1B52147  35.753  13.541   6.187
 4035POPC   C2B52148  35.699  13.486   6.611
 4035POPC   C3B52149  35.792  13.618   7.001
 4035POPC   C4B52150  35.820  13.407   7.393
 4036POPC   NC352151   4.906  44.804   5.640
 4036POPC   PO452152   4.248  44.692   5.396
 4036POPC   GL152153   4.129  44.550   5.812
 4036POPC   GL252154   4.449  44.688   5.922
 4036POPC   C1A52155   4.189  44.382   6.249
 4036POPC   D2A52156   4.196  44.616   6.650
 4036POPC   C3A52157   4.435  44.427   6.975
 4036POPC   C4A52158   4.251  44.253   7.342
 4036POPC   C1B52159   4.440  44.965   6.302
 4036POPC   C2B52160   4.760   0.052   6.647
 4036POPC   C3B52161   4.721  44.857   7.057
 4036POPC   C4B52162   4.526  44.662   7.431
 4037POPC   NC352163  17.271  25.882   5.574
 4037POPC   PO452164  17.737  26.327   5.336
 4037POPC   GL152165  17.689  26.197   5.785
 4037POPC   GL252166  17.341  26.218   5.951
 4037POPC   C1A52167  17.780  26.120   6.224
 4037POPC   D2A52168  17.517  26.143   6.587
 4037POPC   C3A52169  17.610  26.223   7.031
 4037POPC   C4A52170  17.210  26.405   7.160
 4037POPC   C1B52171  17.392  25.788   6.205
 4037POPC   C2B52172  17.398  25.632   6.621
 4037POPC   C3B52173  17.420  25.732   7.064
 4037POPC   C4B52174  17.409  25.519   7.466
 4038POPC   NC352175  36.836   3.929   5.565
 4038POPC   PO452176  36.960   3.265   5.466
 4038POPC   GL152177  36.889   3.482   5.838
 4038POPC   GL252178  37.256   3.515   5.837
 4038POPC   C1A52179  36.936   3.779   6.208
 4038POPC   D2A52180  36.752   3.924   6.613
 4038POPC   C3A52181  36.962   3.838   7.022
 4038POPC   C4A52182  36.912   3.619   7.461
 4038POPC   C1B52183  37.155   3.295   6.231
 4038POPC   C2B52184  37.007   3.445   6.620
 4038POPC   C3B52185  36.899   3.336   7.012
 4038POPC   C4B52186  37.137   3.192   7.366
 4039POPC   NC352187  41.725  24.738   5.337
 4039POPC   PO452188  41.342  24.259   5.562
 4039POPC   GL152189  41.561  24.399   5.876
 4039POPC   GL252190  41.559  24.728   5.827
 4039POPC   C1A52191  41.483  24.384   6.309
 4039POPC   D2A52192  41.491  24.373   6.749
 4039POPC   C3A52193  41.803  24.168   6.979
 4039POPC   C4A52194  41.960  24.312   7.347
 4039POPC   C1B52195  41.822  24.754   6.206
 4039POPC   C2B52196  41.939  24.904   6.642
 4039POPC   C3B52197  41.748  24.714   7.053
 4039POPC   C4B52198  41.386  24.476   7.228
 4040POPC   NC352199   0.487   7.024   5.384
 4040POPC   PO452200   0.529   6.341   5.322
 4040POPC   GL152201   0.439   6.590   5.746
 4040POPC   GL252202   0.565   6.366   6.015
 4040POPC   C1A52203   0.238   6.702   6.196
 4040POPC   D2A52204   0.350   6.593   6.648
 4040POPC   C3A52205   0.040   6.666   6.983
 4040POPC   C4A52206   0.095   6.884   7.359
 4040POPC   C1B52207   0.743   6.764   6.148
 4040POPC   C2B52208   0.882   6.926   6.531
 4040POPC   C3B52209   0.819   6.744   6.913
 4040POPC   C4B52210   0.504   6.649   7.187
 4041POPC   NC352211  20.988   1.738   5.608
 4041POPC   PO452212  21.455   1.970   5.160
 4041POPC   GL152213  21.510   2.022   5.647
 4041POPC   GL252214  21.205   2.200   5.784
 4041POPC   C1A52215  21.421   1.914   6.130
 4041POPC   D2A52216  21.298   1.911   6.577
 4041POPC   C3A52217  21.601   1.815   6.904
 4041POPC   C4A52218  21.400   1.724   7.268
 4041POPC   C1B52219  21.140   2.395   6.197
 4041POPC   C2B52220  20.997   2.325   6.634
 4041POPC   C3B52221  21.296   2.325   6.980
 4041POPC   C4B52222  21.378   2.553   7.340
 4042POPC   NC352223  15.025  12.453   5.234
 4042POPC   PO452224  15.103  13.060   5.385
 4042POPC   GL152225  15.106  12.935   5.801
 4042POPC   GL252226  14.836  12.718   5.685
 4042POPC   C1A52227  15.314  12.931   6.231
 4042POPC   D2A52228  15.187  13.135   6.619
 4042POPC   C3A52229  15.295  12.848   6.899
 4042POPC   C4A52230  15.494  12.898   7.242
 4042POPC   C1B52231  14.868  12.640   6.135
 4042POPC   C2B52232  14.869  12.718   6.560
 4042POPC   C3B52233  14.792  12.918   6.928
 4042POPC   C4B52234  14.965  12.827   7.303
 4043POPC   NC352235  41.186  20.563   5.162
 4043POPC   PO452236  41.055  21.070   5.564
 4043POPC   GL152237  40.965  20.797   5.910
 4043POPC   GL252238  40.734  20.501   5.809
 4043POPC   C1A52239  40.981  20.545   6.302
 4043POPC   D2A52240  41.098  20.296   6.660
 4043POPC   C3A52241  40.933  20.449   7.035
 4043POPC   C4A52242  40.979  20.722   7.383
 4043POPC   C1B52243  40.502  20.725   6.158
 4043POPC   C2B52244  40.292  20.603   6.574
 4043POPC   C3B52245  40.418  20.360   6.961
 4043POPC   C4B52246  40.535  20.475   7.383
 4044POPC   NC352247  21.833  18.656   5.675
 4044POPC   PO452248  22.239  18.126   5.478
 4044POPC   GL152249  22.218  18.332   5.822
 4044POPC   GL252250  22.416  18.622   5.807
 4044POPC   C1A52251  22.045  18.215   6.183
 4044POPC   D2A52252  21.881  18.058   6.522
 4044POPC   C3A52253  21.952  18.114   6.941
 4044POPC   C4A52254  21.921  18.381   7.296
 4044POPC   C1B52255  22.537  18.391   6.214
 4044POPC   C2B52256  22.353  18.293   6.588
 4044POPC   C3B52257  22.319  18.490   6.977
 4044POPC   C4B52258  22.633  18.417   7.237
 4045POPC   NC352259  40.603  17.637   5.459
 4045POPC   PO452260  41.271  17.497   5.344
 4045POPC   GL152261  40.978  17.373   5.700
 4045POPC   GL252262  40.924  17.716   5.845
 4045POPC   C1A52263  40.694  17.328   6.085
 4045POPC   D2A52264  40.600  17.177   6.500
 4045POPC   C3A52265  40.816  17.272   6.893
 4045POPC   C4A52266  40.605  17.235   7.271
 4045POPC   C1B52267  41.024  17.683   6.277
 4045POPC   C2B52268  40.707  17.693   6.590
 4045POPC   C3B52269  40.497  17.673   6.986
 4045POPC   C4B52270  40.782  17.737   7.239
 4046POPC   NC352271   0.846   5.304   5.380
 4046POPC   PO452272   0.304   4.881   5.266
 4046POPC   GL152273   0.271   5.138   5.694
 4046POPC   GL252274   0.609   5.078   5.793
 4046POPC   C1A52275   0.319   5.219   6.189
 4046POPC   D2A52276   0.204   4.958   6.584
 4046POPC   C3A52277   0.201   4.812   7.067
 4046POPC   C4A52278   0.381   4.964   7.493
 4046POPC   C1B52279   0.808   5.057   6.218
 4046POPC   C2B52280   0.707   5.090   6.661
 4046POPC   C3B52281   0.530   5.230   7.065
 4046POPC   C4B52282   0.788   5.280   7.449
 4047POPC   NC352283   0.308  13.696   5.314
 4047POPC   PO452284   0.929  13.571   5.239
 4047POPC   GL152285   0.677  13.621   5.686
 4047POPC   GL252286   0.324  13.654   5.822
 4047POPC   C1A52287   0.700  13.801   6.144
 4047POPC   D2A52288   0.944  13.669   6.517
 4047POPC   C3A52289   0.786  13.723   6.980
 4047POPC   C4A52290   0.409  13.726   7.264
 4047POPC   C1B52291   0.186  13.713   6.270
 4047POPC   C2B52292   0.281  13.666   6.722
 4047POPC   C3B52293   0.120  13.361   7.006
 4047POPC   C4B52294   0.062  13.415   7.460
 4048POPC   NC352295  14.773  27.824   5.313
 4048POPC   PO452296  14.395  27.362   5.523
 4048POPC   GL152297  14.171  27.540   5.887
 4048POPC   GL252298  14.427  27.767   5.901
 4048POPC   C1A52299  14.179  27.617   6.351
 4048POPC   D2A52300  14.344  27.305   6.661
 4048POPC   C3A52301  14.060  27.308   7.030
 4048POPC   C4A52302  14.109  27.701   7.289
 4048POPC   C1B52303  14.615  27.446   6.183
 4048POPC   C2B52304  14.665  27.713   6.522
 4048POPC   C3B52305  14.460  27.761   6.894
 4048POPC   C4B52306  14.549  27.437   7.135
 4049POPC   NC352307  20.286  11.374   5.450
 4049POPC   PO452308  20.835  10.939   5.480
 4049POPC   GL152309  20.719  11.333   5.747
 4049POPC   GL252310  20.969  11.549   5.909
 4049POPC   C1A52311  20.427  11.496   6.102
 4049POPC   D2A52312  20.552  11.580   6.542
 4049POPC   C3A52313  20.312  11.576   6.889
 4049POPC   C4A52314  20.247  11.391   7.243
 4049POPC   C1B52315  20.849  11.274   6.263
 4049POPC   C2B52316  20.942  11.320   6.714
 4049POPC   C3B52317  20.767  11.219   7.104
 4049POPC   C4B52318  20.901  11.296   7.543
 4050POPC   NC352319  39.200  19.912   5.441
 4050POPC   PO452320  39.854  20.004   5.417
 4050POPC   GL152321  39.590  19.735   5.781
 4050POPC   GL252322  39.188  19.676   5.871
 4050POPC   C1A52323  39.500  19.765   6.254
 4050POPC   D2A52324  39.239  19.932   6.587
 4050POPC   C3A52325  39.377  19.698   6.919
 4050POPC   C4A52326  39.365  19.754   7.355
 4050POPC   C1B52327  38.945  19.690   6.229
 4050POPC   C2B52328  38.963  19.472   6.646
 4050POPC   C3B52329  38.923  19.603   7.075
 4050POPC   C4B52330  39.013  20.058   7.068
 4051POPC   NC352331  38.012  40.786   5.597
 4051POPC   PO452332  38.699  40.778   5.341
 4051POPC   GL152333  38.500  40.789   5.766
 4051POPC   GL252334  38.634  41.077   5.844
 4051POPC   C1A52335  38.272  40.630   6.173
 4051POPC   D2A52336  38.441  40.468   6.562
 4051POPC   C3A52337  38.321  40.600   6.959
 4051POPC   C4A52338  38.665  40.641   7.196
 4051POPC   C1B52339  38.377  41.133   6.196
 4051POPC   C2B52340  38.308  40.971   6.594
 4051POPC   C3B52341  38.471  41.075   7.000
 4051POPC   C4B52342  38.598  41.098   7.441
 4052POPC   NC352343  13.592  17.130   5.532
 4052POPC   PO452344  13.398  16.545   5.370
 4052POPC   GL152345  13.414  16.704   5.799
 4052POPC   GL252346  13.761  16.789   5.855
 4052POPC   C1A52347  13.365  16.705   6.260
 4052POPC   D2A52348  13.146  16.466   6.568
 4052POPC   C3A52349  13.405  16.452   6.883
 4052POPC   C4A52350  13.496  16.702   7.232
 4052POPC   C1B52351  13.824  16.968   6.247
 4052POPC   C2B52352  13.799  16.684   6.581
 4052POPC   C3B52353  13.943  16.686   6.974
 4052POPC   C4B52354  13.967  16.904   7.318
 4053POPC   NC352355  27.970  42.036   5.379
 4053POPC   PO452356  28.646  42.214   5.363
 4053POPC   GL152357  28.437  42.108   5.753
 4053POPC   GL252358  28.196  42.377   5.725
 4053POPC   C1A52359  28.415  42.287   6.184
 4053POPC   D2A52360  28.429  42.469   6.585
 4053POPC   C3A52361  28.334  42.186   6.887
 4053POPC   C4A52362  28.543  42.081   7.247
 4053POPC   C1B52363  28.105  42.700   6.054
 4053POPC   C2B52364  28.022  42.807   6.502
 4053POPC   C3B52365  28.050  42.627   6.918
 4053POPC   C4B52366  28.436  42.598   7.173
 4054POPC   NC352367  23.587  37.489   5.429
 4054POPC   PO452368  23.195  37.058   5.744
 4054POPC   GL152369  23.504  37.350   5.937
 4054POPC   GL252370  23.483  37.725   5.874
 4054POPC   C1A52371  23.910  37.529   6.124
 4054POPC   D2A52372  24.006  37.750   6.508
 4054POPC   C3A52373  23.877  37.574   6.870
 4054POPC   C4A52374  24.050  37.487   7.234
 4054POPC   C1B52375  23.581  37.955   6.261
 4054POPC   C2B52376  23.542  37.932   6.717
 4054POPC   C3B52377  23.595  37.918   7.184
 4054POPC   C4B52378  23.502  38.030   7.624
 4055POPC   NC352379  34.404  15.850   5.350
 4055POPC   PO452380  34.787  16.450   5.253
 4055POPC   GL152381  34.806  16.281   5.760
 4055POPC   GL252382  34.949  15.943   5.664
 4055POPC   C1A52383  34.632  16.157   6.274
 4055POPC   D2A52384  34.771  16.161   6.769
 4055POPC   C3A52385  34.487  16.127   7.184
 4055POPC   C4A52386  34.257  16.161   7.606
 4055POPC   C1B52387  34.903  15.775   6.081
 4055POPC   C2B52388  35.082  15.803   6.512
 4055POPC   C3B52389  34.964  15.649   6.926
 4055POPC   C4B52390  34.865  15.626   7.373
 4056POPC   NC352391  16.488  41.986   5.403
 4056POPC   PO452392  17.061  42.233   5.226
 4056POPC   GL152393  16.877  42.126   5.727
 4056POPC   GL252394  16.535  42.008   5.885
 4056POPC   C1A52395  16.845  42.321   6.153
 4056POPC   D2A52396  17.090  42.154   6.500
 4056POPC   C3A52397  17.021  42.255   6.906
 4056POPC   C4A52398  16.802  42.250   7.284
 4056POPC   C1B52399  16.422  42.067   6.274
 4056POPC   C2B52400  16.474  42.338   6.560
 4056POPC   C3B52401  16.473  42.129   6.926
 4056POPC   C4B52402  16.401  41.889   7.274
 4057POPC   NC352403   4.975  22.754   5.383
 4057POPC   PO452404   5.271  23.319   5.551
 4057POPC   GL152405   5.218  23.012   5.848
 4057POPC   GL252406   4.895  22.943   5.858
 4057POPC   C1A52407   5.341  22.994   6.259
 4057POPC   D2A52408   5.083  23.015   6.617
 4057POPC   C3A52409   5.085  22.771   6.970
 4057POPC   C4A52410   5.181  22.889   7.350
 4057POPC   C1B52411   4.893  23.285   6.207
 4057POPC   C2B52412   4.907  23.483   6.658
 4057POPC   C3B52413   5.028  23.316   7.067
 4057POPC   C4B52414   4.981  23.328   7.490
 4058POPC   NC352415  12.067  18.662   5.165
 4058POPC   PO452416  11.977  18.023   5.445
 4058POPC   GL152417  12.001  18.223   5.850
 4058POPC   GL252418  12.020  17.871   5.932
 4058POPC   C1A52419  11.934  18.452   6.254
 4058POPC   D2A52420  12.112  18.244   6.630
 4058POPC   C3A52421  11.926  18.348   7.012
 4058POPC   C4A52422  11.693  18.498   7.389
 4058POPC   C1B52423  11.845  17.937   6.293
 4058POPC   C2B52424  11.680  17.950   6.691
 4058POPC   C3B52425  11.997  17.832   6.987
 4058POPC   C4B52426  12.267  18.008   7.272
 4059POPC   NC352427   4.669  14.374   5.437
 4059POPC   PO452428   4.048  14.280   5.111
 4059POPC   GL152429   4.172  14.447   5.617
 4059POPC   GL252430   4.492  14.487   5.867
 4059POPC   C1A52431   4.063  14.464   6.113
 4059POPC   D2A52432   3.855  14.264   6.496
 4059POPC   C3A52433   4.086  14.195   6.884
 4059POPC   C4A52434   4.327  14.463   7.174
 4059POPC   C1B52435   4.576  14.326   6.264
 4059POPC   C2B52436   4.536  14.411   6.698
 4059POPC   C3B52437   4.676  14.096   7.003
 4059POPC   C4B52438   4.660  13.934   7.407
 4060POPC   NC352439   2.106  31.601   5.374
 4060POPC   PO452440   1.481  31.586   5.321
 4060POPC   GL152441   1.754  31.631   5.771
 4060POPC   GL252442   2.143  31.753   5.850
 4060POPC   C1A52443   1.907  31.504   6.218
 4060POPC   D2A52444   1.710  31.475   6.627
 4060POPC   C3A52445   1.836  31.626   7.032
 4060POPC   C4A52446   1.833  31.448   7.451
 4060POPC   C1B52447   2.006  32.001   6.214
 4060POPC   C2B52448   2.037  31.906   6.645
 4060POPC   C3B52449   2.211  32.042   7.039
 4060POPC   C4B52450   1.934  31.991   7.379
 4061POPC   NC352451  34.693  33.584   5.311
 4061POPC   PO452452  34.028  33.813   5.423
 4061POPC   GL152453  34.366  33.707   5.729
 4061POPC   GL252454  34.665  33.948   5.689
 4061POPC   C1A52455  34.417  33.490   6.138
 4061POPC   D2A52456  34.700  33.425   6.494
 4061POPC   C3A52457  34.616  33.539   6.927
 4061POPC   C4A52458  34.405  33.422   7.297
 4061POPC   C1B52459  34.708  33.897   6.129
 4061POPC   C2B52460  34.680  33.961   6.564
 4061POPC   C3B52461  34.891  34.013   6.950
 4061POPC   C4B52462  34.665  33.889   7.319
 4062POPC   NC352463   2.657  43.256   5.512
 4062POPC   PO452464   3.270  43.329   5.651
 4062POPC   GL152465   2.938  43.112   5.897
 4062POPC   GL252466   2.706  43.418   5.988
 4062POPC   C1A52467   2.784  43.021   6.301
 4062POPC   D2A52468   3.039  43.005   6.641
 4062POPC   C3A52469   2.880  42.906   7.014
 4062POPC   C4A52470   2.542  42.953   7.289
 4062POPC   C1B52471   2.460  43.430   6.358
 4062POPC   C2B52472   2.545  43.243   6.742
 4062POPC   C3B52473   2.537  43.447   7.115
 4062POPC   C4B52474   2.182  43.574   7.318
 4063POPC   NC352475  42.628  30.588   5.514
 4063POPC   PO452476  43.187  30.913   5.356
 4063POPC   GL152477  42.993  30.833   5.761
 4063POPC   GL252478  42.805  31.111   5.864
 4063POPC   C1A52479  42.999  30.492   6.101
 4063POPC   D2A52480  43.299  30.407   6.447
 4063POPC   C3A52481  43.094  30.540   6.817
 4063POPC   C4A52482  43.239  30.559   7.223
 4063POPC   C1B52483  43.182  31.135   6.150
 4063POPC   C2B52484  43.449  30.975   6.525
 4063POPC   C3B52485  43.337  30.990   6.963
 4063POPC   C4B52486  42.890  30.924   7.119
 4064POPC   NC352487   3.983  19.767   5.637
 4064POPC   PO452488   3.390  20.069   5.385
 4064POPC   GL152489   3.548  20.003   5.801
 4064POPC   GL252490   3.380  19.781   6.025
 4064POPC   C1A52491   3.740  20.105   6.210
 4064POPC   D2A52492   3.778  20.202   6.652
 4064POPC   C3A52493   3.742  19.812   6.926
 4064POPC   C4A52494   3.688  19.759   7.368
 4064POPC   C1B52495   3.504  19.717   6.458
 4064POPC   C2B52496   3.249  19.685   6.821
 4064POPC   C3B52497   3.254  19.545   7.225
 4064POPC   C4B52498   3.296  19.516   7.684
 4065POPC   NC352499  32.903  32.611   5.343
 4065POPC   PO452500  33.265  32.152   5.474
 4065POPC   GL152501  33.199  32.458   5.775
 4065POPC   GL252502  32.867  32.341   5.779
 4065POPC   C1A52503  33.114  32.512   6.219
 4065POPC   D2A52504  33.187  32.332   6.645
 4065POPC   C3A52505  33.016  32.588   6.998
 4065POPC   C4A52506  32.896  32.694   7.441
 4065POPC   C1B52507  32.814  32.114   6.141
 4065POPC   C2B52508  32.934  31.883   6.460
 4065POPC   C3B52509  32.891  31.875   6.891
 4065POPC   C4B52510  32.918  32.131   7.264
 4066POPC   NC352511  14.807  36.173   5.119
 4066POPC   PO452512  15.390  36.240   5.623
 4066POPC   GL152513  15.308  36.105   6.015
 4066POPC   GL252514  15.571  35.867   6.044
 4066POPC   C1A52515  15.338  36.216   6.457
 4066POPC   D2A52516  15.220  36.066   6.874
 4066POPC   C3A52517  15.232  36.341   7.229
 4066POPC   C4A52518  15.018  36.360   7.642
 4066POPC   C1B52519  15.416  35.710   6.436
 4066POPC   C2B52520  15.609  35.653   6.826
 4066POPC   C3B52521  15.547  35.833   7.216
 4066POPC   C4B52522  15.470  35.659   7.610
 4067POPC   NC352523   8.390  44.322   5.462
 4067POPC   PO452524   8.178  43.813   5.129
 4067POPC   GL152525   8.150  43.854   5.632
 4067POPC   GL252526   7.881  43.621   5.774
 4067POPC   C1A52527   8.146  43.950   6.105
 4067POPC   D2A52528   8.061  44.191   6.502
 4067POPC   C3A52529   8.300  44.126   6.870
 4067POPC   C4A52530   8.390  43.844   7.252
 4067POPC   C1B52531   7.738  43.680   6.221
 4067POPC   C2B52532   7.690  43.811   6.652
 4067POPC   C3B52533   7.905  43.870   7.045
 4067POPC   C4B52534   7.961  43.632   7.434
 4068POPC   NC352535  10.140  32.105   5.191
 4068POPC   PO452536  10.550  32.452   5.495
 4068POPC   GL152537  10.485  32.093   5.805
 4068POPC   GL252538  10.758  31.911   5.911
 4068POPC   C1A52539  10.419  31.927   6.271
 4068POPC   D2A52540  10.200  32.179   6.535
 4068POPC   C3A52541  10.361  32.232   6.946
 4068POPC   C4A52542  10.323  32.613   7.163
 4068POPC   C1B52543  10.775  32.289   6.192
 4068POPC   C2B52544  10.648  32.500   6.585
 4068POPC   C3B52545  10.828  32.478   7.024
 4068POPC   C4B52546  10.920  32.142   7.340
 4069POPC   NC352547   9.095  15.748   5.421
 4069POPC   PO452548   8.651  16.118   5.760
 4069POPC   GL152549   8.879  15.898   6.013
 4069POPC   GL252550   9.168  15.902   5.897
 4069POPC   C1A52551   8.803  15.837   6.432
 4069POPC   D2A52552   8.455  15.827   6.687
 4069POPC   C3A52553   8.643  16.106   6.941
 4069POPC   C4A52554   8.846  16.033   7.281
 4069POPC   C1B52555   9.325  15.805   6.318
 4069POPC   C2B52556   9.230  15.928   6.745
 4069POPC   C3B52557   9.213  15.713   7.129
 4069POPC   C4B52558   9.357  16.012   7.395
 4070POPC   NC352559   5.108  13.360   5.166
 4070POPC   PO452560   5.174  12.746   5.504
 4070POPC   GL152561   5.054  12.855   5.910
 4070POPC   GL252562   5.181  13.185   5.956
 4070POPC   C1A52563   5.188  12.819   6.340
 4070POPC   D2A52564   5.067  12.700   6.741
 4070POPC   C3A52565   5.306  12.739   7.118
 4070POPC   C4A52566   5.309  12.322   7.167
 4070POPC   C1B52567   4.838  13.214   6.241
 4070POPC   C2B52568   4.911  13.187   6.673
 4070POPC   C3B52569   4.882  13.024   7.084
 4070POPC   C4B52570   4.964  13.191   7.450
 4071POPC   NC352571   3.575  28.459   5.421
 4071POPC   PO452572   3.552  27.820   5.517
 4071POPC   GL152573   3.564  28.148   5.892
 4071POPC   GL252574   3.722  28.510   5.893
 4071POPC   C1A52575   3.582  28.359   6.340
 4071POPC   D2A52576   3.387  28.649   6.626
 4071POPC   C3A52577   3.420  28.379   6.958
 4071POPC   C4A52578   3.361  28.284   7.388
 4071POPC   C1B52579   3.591  28.874   6.167
 4071POPC   C2B52580   3.841  28.874   6.528
 4071POPC   C3B52581   3.913  28.534   6.811
 4071POPC   C4B52582   3.833  28.496   7.256
 4072POPC   NC352583  16.851  17.790   5.467
 4072POPC   PO452584  17.232  17.212   5.390
 4072POPC   GL152585  16.991  17.198   5.796
 4072POPC   GL252586  16.717  16.959   5.854
 4072POPC   C1A52587  16.909  17.421   6.197
 4072POPC   D2A52588  16.858  17.764   6.490
 4072POPC   C3A52589  16.881  17.871   6.925
 4072POPC   C4A52590  16.915  17.719   7.325
 4072POPC   C1B52591  16.476  17.151   6.189
 4072POPC   C2B52592  16.541  17.344   6.586
 4072POPC   C3B52593  16.873  17.354   6.883
 4072POPC   C4B52594  16.601  17.342   7.216
 4073POPC   NC352595  18.074  34.071   5.396
 4073POPC   PO452596  18.288  34.769   5.487
 4073POPC   GL152597  18.320  34.463   5.814
 4073POPC   GL252598  18.001  34.316   5.824
 4073POPC   C1A52599  18.460  34.563   6.235
 4073POPC   D2A52600  18.451  34.346   6.618
 4073POPC   C3A52601  18.327  34.574   6.946
 4073POPC   C4A52602  18.331  34.834   7.325
 4073POPC   C1B52603  18.071  34.232   6.236
 4073POPC   C2B52604  17.881  34.307   6.621
 4073POPC   C3B52605  17.940  34.182   7.032
 4073POPC   C4B52606  18.030  34.401   7.381
 4074POPC   NC352607  33.085  22.361   5.312
 4074POPC   PO452608  32.979  21.671   5.296
 4074POPC   GL152609  32.974  21.988   5.625
 4074POPC   GL252610  32.681  21.901   5.780
 4074POPC   C1A52611  33.132  22.296   5.980
 4074POPC   D2A52612  33.278  22.384   6.409
 4074POPC   C3A52613  32.946  22.459   6.751
 4074POPC   C4A52614  32.972  22.355   7.227
 4074POPC   C1B52615  32.951  21.841   6.143
 4074POPC   C2B52616  33.004  21.987   6.534
 4074POPC   C3B52617  33.224  22.044   6.881
 4074POPC   C4B52618  33.185  21.865   7.259
 4075POPC   NC352619  25.441  21.247   5.578
 4075POPC   PO452620  25.004  21.675   5.462
 4075POPC   GL152621  25.100  21.480   5.869
 4075POPC   GL252622  25.455  21.655   5.912
 4075POPC   C1A52623  25.187  21.081   6.183
 4075POPC   D2A52624  25.025  20.957   6.616
 4075POPC   C3A52625  25.255  21.004   7.018
 4075POPC   C4A52626  25.448  21.326   7.230
 4075POPC   C1B52627  25.282  21.562   6.329
 4075POPC   C2B52628  25.266  21.463   6.771
 4075POPC   C3B52629  25.179  21.742   7.141
 4075POPC   C4B52630  25.309  21.649   7.601
 4076POPC   NC352631  24.648   1.456   5.456
 4076POPC   PO452632  24.010   1.141   5.436
 4076POPC   GL152633  24.346   1.073   5.772
 4076POPC   GL252634  24.709   0.942   5.714
 4076POPC   C1A52635  24.337   1.279   6.198
 4076POPC   D2A52636  24.272   1.516   6.592
 4076POPC   C3A52637  24.291   1.271   6.958
 4076POPC   C4A52638  24.511   1.222   7.362
 4076POPC   C1B52639  24.816   1.126   6.123
 4076POPC   C2B52640  24.674   1.169   6.561
 4076POPC   C3B52641  24.820   1.172   6.962
 4076POPC   C4B52642  24.854   0.857   7.294
 4077POPC   NC352643   1.400  26.424   5.349
 4077POPC   PO452644   1.124  27.053   5.289
 4077POPC   GL152645   1.218  26.960   5.687
 4077POPC   GL252646   1.092  26.630   5.707
 4077POPC   C1A52647   1.304  26.956   6.124
 4077POPC   D2A52648   1.225  26.806   6.534
 4077POPC   C3A52649   1.401  27.040   6.886
 4077POPC   C4A52650   1.247  26.849   7.227
 4077POPC   C1B52651   1.252  26.421   6.094
 4077POPC   C2B52652   1.489  26.365   6.493
 4077POPC   C3B52653   1.502  26.536   6.889
 4077POPC   C4B52654   1.415  26.360   7.294
 4078POPC   NC352655  35.326   5.600   5.550
 4078POPC   PO452656  35.235   6.241   5.564
 4078POPC   GL152657  35.061   6.073   5.933
 4078POPC   GL252658  34.740   6.163   5.988
 4078POPC   C1A52659  35.250   5.969   6.333
 4078POPC   D2A52660  35.452   5.681   6.626
 4078POPC   C3A52661  35.550   5.832   7.031
 4078POPC   C4A52662  35.456   5.617   7.427
 4078POPC   C1B52663  34.805   6.214   6.406
 4078POPC   C2B52664  35.094   6.335   6.672
 4078POPC   C3B52665  35.157   6.261   7.050
 4078POPC   C4B52666  35.282   6.081   7.388
 4079POPC   NC352667  38.904  37.432   5.738
 4079POPC   PO452668  39.092  38.007   5.378
 4079POPC   GL152669  39.245  37.819   5.803
 4079POPC   GL252670  39.572  37.598   5.774
 4079POPC   C1A52671  39.129  37.714   6.278
 4079POPC   D2A52672  38.959  37.876   6.700
 4079POPC   C3A52673  39.002  37.610   7.119
 4079POPC   C4A52674  39.415  37.376   7.199
 4079POPC   C1B52675  39.653  37.879   6.104
 4079POPC   C2B52676  39.520  37.912   6.531
 4079POPC   C3B52677  39.418  37.798   6.908
 4079POPC   C4B52678  39.489  37.861   7.335
 4080POPC   NC352679  10.222  39.625   5.256
 4080POPC   PO452680  10.651  39.054   5.330
 4080POPC   GL152681  10.633  39.244   5.732
 4080POPC   GL252682  10.371  39.508   5.735
 4080POPC   C1A52683  10.817  39.181   6.165
 4080POPC   D2A52684  10.834  39.247   6.645
 4080POPC   C3A52685  10.726  38.927   7.000
 4080POPC   C4A52686  10.653  38.984   7.484
 4080POPC   C1B52687  10.232  39.148   5.999
 4080POPC   C2B52688  10.373  39.140   6.413
 4080POPC   C3B52689  10.354  39.254   6.833
 4080POPC   C4B52690  10.236  39.156   7.239
 4081POPC   NC352691  34.818  29.938   5.477
 4081POPC   PO452692  34.869  29.254   5.703
 4081POPC   GL152693  34.824  29.698   5.924
 4081POPC   GL252694  34.511  29.899   5.877
 4081POPC   C1A52695  34.829  30.117   6.207
 4081POPC   D2A52696  35.067  30.240   6.591
 4081POPC   C3A52697  34.787  30.181   6.939
 4081POPC   C4A52698  34.618  29.826   7.184
 4081POPC   C1B52699  34.302  29.980   6.272
 4081POPC   C2B52700  34.383  29.940   6.716
 4081POPC   C3B52701  34.166  30.057   7.091
 4081POPC   C4B52702  34.208  30.343   7.436
 4082POPC   NC352703  12.635  14.892   5.599
 4082POPC   PO452704  12.786  15.550   5.576
 4082POPC   GL152705  12.766  15.278   5.904
 4082POPC   GL252706  13.107  15.159   5.995
 4082POPC   C1A52707  12.704  15.081   6.279
 4082POPC   D2A52708  12.973  15.182   6.564
 4082POPC   C3A52709  12.845  15.180   6.958
 4082POPC   C4A52710  12.940  15.328   7.341
 4082POPC   C1B52711  13.408  15.025   6.308
 4082POPC   C2B52712  13.378  14.947   6.749
 4082POPC   C3B52713  13.305  15.025   7.147
 4082POPC   C4B52714  13.267  15.004   7.574
 4083POPC   NC352715  18.734  28.450   5.420
 4083POPC   PO452716  19.356  28.261   5.505
 4083POPC   GL152717  19.165  28.174   5.877
 4083POPC   GL252718  18.833  28.057   5.752
 4083POPC   C1A52719  19.119  28.429   6.242
 4083POPC   D2A52720  18.951  28.358   6.668
 4083POPC   C3A52721  19.115  28.430   7.087
 4083POPC   C4A52722  19.308  28.283   7.474
 4083POPC   C1B52723  18.800  28.031   6.204
 4083POPC   C2B52724  18.707  27.905   6.630
 4083POPC   C3B52725  18.671  28.102   7.027
 4083POPC   C4B52726  18.724  28.324   7.439
 4084POPC   NC352727  21.617   2.421   5.237
 4084POPC   PO452728  21.429   3.071   5.358
 4084POPC   GL152729  21.501   2.928   5.764
 4084POPC   GL252730  21.550   2.574   5.745
 4084POPC   C1A52731  21.435   2.869   6.193
 4084POPC   D2A52732  21.378   2.660   6.599
 4084POPC   C3A52733  21.145   2.836   6.982
 4084POPC   C4A52734  21.248   3.037   7.442
 4084POPC   C1B52735  21.666   2.381   6.165
 4084POPC   C2B52736  21.682   2.249   6.629
 4084POPC   C3B52737  21.790   2.249   7.121
 4084POPC   C4B52738  21.809   2.409   7.589
 4085POPC   NC352739  14.114  33.661   5.520
 4085POPC   PO452740  13.479  34.005   5.316
 4085POPC   GL152741  13.563  33.906   5.749
 4085POPC   GL252742  13.472  33.552   5.810
 4085POPC   C1A52743  13.657  34.118   6.166
 4085POPC   D2A52744  13.939  34.009   6.532
 4085POPC   C3A52745  13.726  33.920   6.931
 4085POPC   C4A52746  13.720  34.268   7.207
 4085POPC   C1B52747  13.786  33.608   6.156
 4085POPC   C2B52748  13.807  33.489   6.577
 4085POPC   C3B52749  13.878  33.375   6.965
 4085POPC   C4B52750  13.628  33.413   7.291
 4086POPC   NC352751  13.381  32.896   5.584
 4086POPC   PO452752  13.857  33.286   5.602
 4086POPC   GL152753  13.781  33.014   5.898
 4086POPC   GL252754  13.983  32.720   5.952
 4086POPC   C1A52755  13.591  33.085   6.273
 4086POPC   D2A52756  13.765  32.918   6.627
 4086POPC   C3A52757  13.533  32.997   6.982
 4086POPC   C4A52758  13.856  32.925   7.250
 4086POPC   C1B52759  13.591  32.579   6.191
 4086POPC   C2B52760  13.368  32.564   6.590
 4086POPC   C3B52761  13.447  32.496   7.021
 4086POPC   C4B52762  13.428  32.719   7.419
 4087POPC   NC352763  14.845  12.186   5.634
 4087POPC   PO452764  15.454  12.275   5.227
 4087POPC   GL152765  15.377  11.935   5.656
 4087POPC   GL252766  15.086  11.793   5.854
 4087POPC   C1A52767  15.508  11.829   6.115
 4087POPC   D2A52768  15.418  12.054   6.512
 4087POPC   C3A52769  15.267  11.884   6.897
 4087POPC   C4A52770  15.313  12.064   7.305
 4087POPC   C1B52771  14.993  12.073   6.233
 4087POPC   C2B52772  14.897  12.198   6.662
 4087POPC   C3B52773  15.047  12.411   7.042
 4087POPC   C4B52774  15.025  12.401   7.549
 4088POPC   NC352775   0.973  41.591   5.425
 4088POPC   PO452776   1.625  41.547   5.388
 4088POPC   GL152777   1.398  41.466   5.777
 4088POPC   GL252778   1.317  41.782   5.855
 4088POPC   C1A52779   1.293  41.346   6.210
 4088POPC   D2A52780   1.411  41.570   6.595
 4088POPC   C3A52781   1.288  41.620   7.028
 4088POPC   C4A52782   1.563  41.572   7.329
 4088POPC   C1B52783   1.212  41.946   6.284
 4088POPC   C2B52784   1.021  41.915   6.728
 4088POPC   C3B52785   1.159  42.109   7.157
 4088POPC   C4B52786   1.470  42.047   7.538
 4089POPC   NC352787  24.881  33.831   5.108
 4089POPC   PO452788  24.301  34.019   5.469
 4089POPC   GL152789  24.302  33.934   5.875
 4089POPC   GL252790  24.604  34.150   5.982
 4089POPC   C1A52791  24.430  33.669   6.175
 4089POPC   D2A52792  24.612  33.737   6.547
 4089POPC   C3A52793  24.700  33.444   6.843
 4089POPC   C4A52794  24.617  33.601   7.219
 4089POPC   C1B52795  24.390  34.175   6.371
 4089POPC   C2B52796  24.377  34.107   6.808
 4089POPC   C3B52797  24.365  34.051   7.242
 4089POPC   C4B52798  24.226  34.050   7.680
 4090POPC   NC352799  14.579  17.061   5.393
 4090POPC   PO452800  14.138  16.569   5.565
 4090POPC   GL152801  14.250  16.961   5.806
 4090POPC   GL252802  14.522  16.781   5.887
 4090POPC   C1A52803  14.346  17.124   6.256
 4090POPC   D2A52804  14.167  17.103   6.710
 4090POPC   C3A52805  14.428  16.875   7.043
 4090POPC   C4A52806  14.604  16.901   7.492
 4090POPC   C1B52807  14.212  16.636   6.214
 4090POPC   C2B52808  14.333  16.584   6.623
 4090POPC   C3B52809  14.329  16.343   6.977
 4090POPC   C4B52810  14.276  16.501   7.404
 4091POPC   NC352811   9.384  32.839   5.355
 4091POPC   PO452812   9.976  33.176   5.383
 4091POPC   GL152813   9.849  32.889   5.766
 4091POPC   GL252814   9.560  32.662   5.781
 4091POPC   C1A52815   9.944  32.991   6.203
 4091POPC   D2A52816   9.718  33.222   6.499
 4091POPC   C3A52817   9.698  33.069   6.900
 4091POPC   C4A52818   9.550  33.165   7.286
 4091POPC   C1B52819   9.453  32.865   6.175
 4091POPC   C2B52820   9.556  32.719   6.575
 4091POPC   C3B52821   9.352  32.660   6.997
 4091POPC   C4B52822   9.372  32.728   7.460
 4092POPC   NC352823  33.739  28.600   5.532
 4092POPC   PO452824  34.190  28.102   5.295
 4092POPC   GL152825  33.821  28.103   5.573
 4092POPC   GL252826  33.948  28.241   5.885
 4092POPC   C1A52827  33.482  28.079   5.944
 4092POPC   D2A52828  33.443  28.272   6.360
 4092POPC   C3A52829  33.649  28.111   6.730
 4092POPC   C4A52830  33.629  28.174   7.194
 4092POPC   C1B52831  34.041  28.629   6.124
 4092POPC   C2B52832  33.712  28.750   6.414
 4092POPC   C3B52833  33.735  28.621   6.831
 4092POPC   C4B52834  34.075  28.343   6.990
 4093POPC   NC352835  21.982   1.673   5.526
 4093POPC   PO452836  21.994   2.339   5.503
 4093POPC   GL152837  22.068   2.070   5.867
 4093POPC   GL252838  21.887   1.759   6.004
 4093POPC   C1A52839  22.263   2.107   6.286
 4093POPC   D2A52840  22.179   2.254   6.725
 4093POPC   C3A52841  22.442   2.224   7.081
 4093POPC   C4A52842  22.209   2.174   7.442
 4093POPC   C1B52843  22.248   1.584   6.215
 4093POPC   C2B52844  22.361   1.718   6.646
 4093POPC   C3B52845  22.145   1.799   7.055
 4093POPC   C4B52846  22.327   1.686   7.458
 4094POPC   NC352847  28.104  13.333   5.677
 4094POPC   PO452848  28.418  13.833   5.274
 4094POPC   GL152849  28.270  13.796   5.763
 4094POPC   GL252850  28.497  13.559   5.953
 4094POPC   C1A52851  28.182  13.773   6.255
 4094POPC   D2A52852  28.148  13.524   6.647
 4094POPC   C3A52853  28.183  13.728   7.054
 4094POPC   C4A52854  28.291  13.690   7.474
 4094POPC   C1B52855  28.652  13.599   6.366
 4094POPC   C2B52856  28.641  13.768   6.759
 4094POPC   C3B52857  28.722  13.617   7.171
 4094POPC   C4B52858  28.762  13.685   7.620
 4095POPC   NC352859  29.725  13.205   5.510
 4095POPC   PO452860  30.066  12.573   5.549
 4095POPC   GL152861  29.761  12.778   5.863
 4095POPC   GL252862  29.776  13.133   6.006
 4095POPC   C1A52863  29.853  12.752   6.319
 4095POPC   D2A52864  30.117  12.870   6.677
 4095POPC   C3A52865  29.891  13.072   7.014
 4095POPC   C4A52866  29.811  12.780   7.298
 4095POPC   C1B52867  30.203  13.103   6.206
 4095POPC   C2B52868  30.494  13.218   6.564
 4095POPC   C3B52869  30.408  13.181   7.009
 4095POPC   C4B52870  30.259  12.995   7.382
 4096POPC   NC352871  24.061  31.400   5.444
 4096POPC   PO452872  23.403  31.637   5.341
 4096POPC   GL152873  23.442  31.481   5.770
 4096POPC   GL252874  23.723  31.245   5.832
 4096POPC   C1A52875  23.371  31.423   6.221
 4096POPC   D2A52876  23.579  31.569   6.599
 4096POPC   C3A52877  23.562  31.443   7.027
 4096POPC   C4A52878  23.808  31.625   7.334
 4096POPC   C1B52879  23.827  31.144   6.279
 4096POPC   C2B52880  23.815  31.093   6.734
 4096POPC   C3B52881  24.051  31.229   7.095
 4096POPC   C4B52882  24.004  31.227   7.534
 4097POPC   NC352883  27.431  27.919   5.404
 4097POPC   PO452884  27.723  27.285   5.398
 4097POPC   GL152885  27.781  27.636   5.694
 4097POPC   GL252886  27.473  27.759   5.879
 4097POPC   C1A52887  27.922  27.684   6.123
 4097POPC   D2A52888  27.687  27.699   6.511
 4097POPC   C3A52889  27.795  27.465   6.875
 4097POPC   C4A52890  27.807  27.576   7.281
 4097POPC   C1B52891  27.247  27.841   6.262
 4097POPC   C2B52892  27.274  28.004   6.675
 4097POPC   C3B52893  27.426  27.908   7.071
 4097POPC   C4B52894  27.340  27.965   7.488
 4098POPC   NC352895  40.771   5.711   5.313
 4098POPC   PO452896  40.772   6.369   5.458
 4098POPC   GL152897  40.726   6.062   5.817
 4098POPC   GL252898  40.722   5.690   5.825
 4098POPC   C1A52899  40.705   5.930   6.269
 4098POPC   D2A52900  40.559   6.135   6.621
 4098POPC   C3A52901  40.952   6.171   6.800
 4098POPC   C4A52902  41.122   5.895   7.137
 4098POPC   C1B52903  40.347   5.596   6.110
 4098POPC   C2B52904  40.364   5.503   6.581
 4098POPC   C3B52905  40.687   5.688   6.882
 4098POPC   C4B52906  40.606   6.046   7.179
 4099POPC   NC352907  16.115  34.830   5.380
 4099POPC   PO452908  15.525  34.783   5.614
 4099POPC   GL152909  15.797  34.547   5.854
 4099POPC   GL252910  16.178  34.599   5.830
 4099POPC   C1A52911  15.572  34.468   6.235
 4099POPC   D2A52912  15.389  34.664   6.613
 4099POPC   C3A52913  15.770  34.749   6.816
 4099POPC   C4A52914  16.006  34.552   7.131
 4099POPC   C1B52915  16.104  34.629   6.273
 4099POPC   C2B52916  16.131  34.421   6.630
 4099POPC   C3B52917  16.346  34.136   6.887
 4099POPC   C4B52918  16.212  34.099   7.295
 4100POPC   NC352919  25.229  17.038   5.335
 4100POPC   PO452920  25.500  17.654   5.469
 4100POPC   GL152921  25.294  17.340   5.759
 4100POPC   GL252922  24.938  17.161   5.738
 4100POPC   C1A52923  25.277  17.311   6.180
 4100POPC   D2A52924  25.156  17.540   6.534
 4100POPC   C3A52925  25.331  17.501   6.925
 4100POPC   C4A52926  25.109  17.703   7.228
 4100POPC   C1B52927  24.899  16.966   6.151
 4100POPC   C2B52928  25.101  17.016   6.550
 4100POPC   C3B52929  24.958  17.087   6.941
 4100POPC   C4B52930  25.147  17.193   7.333
 4101POPC   NC352931   1.991  18.426   5.486
 4101POPC   PO452932   2.648  18.156   5.580
 4101POPC   GL152933   2.304  18.218   5.837
 4101POPC   GL252934   2.264  18.592   5.875
 4101POPC   C1A52935   2.102  18.156   6.229
 4101POPC   D2A52936   2.289  18.238   6.622
 4101POPC   C3A52937   2.132  18.007   6.970
 4101POPC   C4A52938   1.750  18.152   7.155
 4101POPC   C1B52939   2.120  18.689   6.323
 4101POPC   C2B52940   2.265  18.745   6.759
 4101POPC   C3B52941   2.257  18.475   7.103
 4101POPC   C4B52942   2.031  18.548   7.442
 4102POPC   NC352943  18.453  27.438   5.450
 4102POPC   PO452944  17.903  27.751   5.459
 4102POPC   GL152945  18.053  27.652   5.857
 4102POPC   GL252946  18.103  27.306   5.794
 4102POPC   C1A52947  18.337  27.757   6.204
 4102POPC   D2A52948  18.214  27.883   6.590
 4102POPC   C3A52949  18.322  27.680   6.949
 4102POPC   C4A52950  18.057  27.553   7.270
 4102POPC   C1B52951  18.377  27.264   6.150
 4102POPC   C2B52952  18.469  27.355   6.583
 4102POPC   C3B52953  18.389  27.174   7.003
 4102POPC   C4B52954  18.541  27.320   7.339
 4103POPC   NC352955  32.395   7.793   5.379
 4103POPC   PO452956  32.082   8.323   5.218
 4103POPC   GL152957  32.291   8.250   5.676
 4103POPC   GL252958  31.997   8.100   5.826
 4103POPC   C1A52959  32.463   8.185   6.171
 4103POPC   D2A52960  32.381   8.003   6.599
 4103POPC   C3A52961  32.510   8.228   6.991
 4103POPC   C4A52962  32.393   8.144   7.423
 4103POPC   C1B52963  31.965   8.138   6.250
 4103POPC   C2B52964  32.001   8.319   6.665
 4103POPC   C3B52965  32.005   8.081   7.025
 4103POPC   C4B52966  31.770   8.268   7.313
 4104POPC   NC352967   2.610  28.342   5.214
 4104POPC   PO452968   3.163  28.722   5.328
 4104POPC   GL152969   2.867  28.462   5.671
 4104POPC   GL252970   2.518  28.267   5.741
 4104POPC   C1A52971   2.727  28.514   6.137
 4104POPC   D2A52972   2.891  28.499   6.579
 4104POPC   C3A52973   2.662  28.532   6.978
 4104POPC   C4A52974   2.877  28.240   7.232
 4104POPC   C1B52975   2.419  28.101   6.203
 4104POPC   C2B52976   2.555  28.096   6.682
 4104POPC   C3B52977   2.681  27.807   7.056
 4104POPC   C4B52978   2.626  27.853   7.548
 4105POPC   NC352979  32.572  30.099   5.295
 4105POPC   PO452980  32.189  29.557   5.580
 4105POPC   GL152981  32.279  29.950   5.812
 4105POPC   GL252982  32.583  30.174   5.815
 4105POPC   C1A52983  32.123  29.934   6.233
 4105POPC   D2A52984  32.402  29.683   6.494
 4105POPC   C3A52985  32.266  29.686   6.880
 4105POPC   C4A52986  32.259  29.619   7.302
 4105POPC   C1B52987  32.602  30.100   6.273
 4105POPC   C2B52988  32.500  30.150   6.716
 4105POPC   C3B52989  32.489  30.089   7.157
 4105POPC   C4B52990  32.493  30.077   7.602
 4106POPC   NC352991   5.439   8.189   5.480
 4106POPC   PO452992   4.863   8.438   5.474
 4106POPC   GL152993   5.136   8.325   5.866
 4106POPC   GL252994   5.349   8.017   5.926
 4106POPC   C1A52995   5.084   8.242   6.298
 4106POPC   D2A52996   5.205   8.359   6.695
 4106POPC   C3A52997   5.041   8.174   7.060
 4106POPC   C4A52998   5.101   8.236   7.494
 4106POPC   C1B52999   5.138   7.753   6.186
 4106POPC   C2B53000   5.047   7.802   6.574
 4106POPC   C3B53001   5.360   7.851   6.832
 4106POPC   C4B53002   5.475   7.976   7.226
 4107POPC   NC353003   3.135   4.644   5.492
 4107POPC   PO453004   2.627   4.280   5.437
 4107POPC   GL153005   2.735   4.484   5.821
 4107POPC   GL253006   3.085   4.377   5.921
 4107POPC   C1A53007   2.652   4.330   6.245
 4107POPC   D2A53008   2.511   4.125   6.619
 4107POPC   C3A53009   2.757   4.265   6.982
 4107POPC   C4A53010   2.979   4.658   7.045
 4107POPC   C1B53011   3.062   3.998   6.165
 4107POPC   C2B53012   2.946   3.872   6.590
 4107POPC   C3B53013   3.073   3.849   7.021
 4107POPC   C4B53014   3.118   3.970   7.450
 4108POPC   NC353015  29.864  16.133   5.238
 4108POPC   PO453016  29.779  15.613   5.551
 4108POPC   GL153017  29.901  15.822   5.905
 4108POPC   GL253018  30.258  15.880   5.892
 4108POPC   C1A53019  29.743  15.849   6.322
 4108POPC   D2A53020  29.672  16.126   6.653
 4108POPC   C3A53021  29.924  16.054   6.977
 4108POPC   C4A53022  30.163  16.250   7.285
 4108POPC   C1B53023  30.217  15.646   6.278
 4108POPC   C2B53024  30.172  15.696   6.713
 4108POPC   C3B53025  30.292  15.766   7.173
 4108POPC   C4B53026  30.339  15.897   7.638
 4109POPC   NC353027  26.371  33.257   5.565
 4109POPC   PO453028  25.790  32.903   5.478
 4109POPC   GL153029  26.024  32.996   5.857
 4109POPC   GL253030  26.044  33.357   5.971
 4109POPC   C1A53031  26.088  32.977   6.317
 4109POPC   D2A53032  26.003  33.211   6.709
 4109POPC   C3A53033  25.929  32.903   7.019
 4109POPC   C4A53034  26.006  32.847   7.443
 4109POPC   C1B53035  26.352  33.407   6.351
 4109POPC   C2B53036  26.506  33.212   6.779
 4109POPC   C3B53037  26.293  33.219   7.218
 4109POPC   C4B53038  26.352  33.432   7.654
 4110POPC   NC353039  15.266  21.793   5.558
 4110POPC   PO453040  15.145  21.142   5.467
 4110POPC   GL153041  15.170  21.356   5.838
 4110POPC   GL253042  14.823  21.331   5.909
 4110POPC   C1A53043  15.442  21.487   6.175
 4110POPC   D2A53044  15.600  21.313   6.558
 4110POPC   C3A53045  15.341  21.439   6.879
 4110POPC   C4A53046  15.148  21.200   7.141
 4110POPC   C1B53047  14.946  21.456   6.351
 4110POPC   C2B53048  14.783  21.350   6.779
 4110POPC   C3B53049  14.567  21.554   7.108
 4110POPC   C4B53050  14.397  21.562   7.526
 4111POPC   NC353051  19.072  34.013   5.416
 4111POPC   PO453052  18.857  33.515   5.294
 4111POPC   GL153053  19.030  33.595   5.763
 4111POPC   GL253054  19.278  33.832   5.860
 4111POPC   C1A53055  18.967  33.747   6.232
 4111POPC   D2A53056  19.147  33.721   6.651
 4111POPC   C3A53057  18.919  33.680   7.037
 4111POPC   C4A53058  19.079  33.678   7.477
 4111POPC   C1B53059  19.491  33.790   6.269
 4111POPC   C2B53060  19.549  34.021   6.694
 4111POPC   C3B53061  19.293  34.005   7.111
 4111POPC   C4B53062  19.468  33.988   7.569
 4112POPC   NC353063  40.713  40.762   4.976
 4112POPC   PO453064  41.151  40.826   5.568
 4112POPC   GL153065  40.922  40.883   5.949
 4112POPC   GL253066  40.602  40.796   5.914
 4112POPC   C1A53067  40.760  40.905   6.392
 4112POPC   D2A53068  40.971  40.802   6.745
 4112POPC   C3A53069  40.811  41.044   7.103
 4112POPC   C4A53070  40.659  40.869   7.486
 4112POPC   C1B53071  40.718  40.450   6.192
 4112POPC   C2B53072  40.577  40.365   6.569
 4112POPC   C3B53073  40.543  40.613   6.943
 4112POPC   C4B53074  40.413  40.408   7.289
 4113POPC   NC353075  39.613   1.148   5.522
 4113POPC   PO453076  40.232   1.311   5.583
 4113POPC   GL153077  40.139   1.063   5.927
 4113POPC   GL253078  39.784   1.112   6.013
 4113POPC   C1A53079  40.134   1.027   6.373
 4113POPC   D2A53080  40.206   1.255   6.718
 4113POPC   C3A53081  40.066   1.191   7.106
 4113POPC   C4A53082  40.316   1.155   7.443
 4113POPC   C1B53083  39.946   1.490   6.275
 4113POPC   C2B53084  39.902   1.654   6.705
 4113POPC   C3B53085  39.680   1.525   7.074
 4113POPC   C4B53086  39.769   1.432   7.550
 4114POPC   NC353087  30.467  24.449   5.171
 4114POPC   PO453088  29.782  24.455   5.203
 4114POPC   GL153089  29.858  24.439   5.670
 4114POPC   GL253090  29.543  24.226   5.750
 4114POPC   C1A53091  30.023  24.432   6.120
 4114POPC   D2A53092  30.206  24.365   6.583
 4114POPC   C3A53093  30.063  24.643   6.922
 4114POPC   C4A53094  30.001  24.606   7.372
 4114POPC   C1B53095  29.537  24.290   6.205
 4114POPC   C2B53096  29.700  24.585   6.546
 4114POPC   C3B53097  29.557  24.549   6.994
 4114POPC   C4B53098  29.401  24.181   7.221
 4115POPC   NC353099   5.103   7.062   5.441
 4115POPC   PO453100   5.232   7.778   5.472
 4115POPC   GL153101   5.205   7.475   5.748
 4115POPC   GL253102   4.878   7.516   5.837
 4115POPC   C1A53103   5.393   7.236   6.049
 4115POPC   D2A53104   5.409   7.313   6.489
 4115POPC   C3A53105   5.073   7.347   6.793
 4115POPC   C4A53106   5.193   7.533   7.203
 4115POPC   C1B53107   4.841   7.366   6.285
 4115POPC   C2B53108   4.669   7.052   6.583
 4115POPC   C3B53109   4.744   6.966   7.027
 4115POPC   C4B53110   4.755   7.299   7.315
 4116POPC   NC353111  36.599   2.503   5.256
 4116POPC   PO453112  36.929   1.879   5.389
 4116POPC   GL153113  36.852   1.820   5.815
 4116POPC   GL253114  36.838   2.127   5.976
 4116POPC   C1A53115  36.918   1.673   6.232
 4116POPC   D2A53116  37.139   1.845   6.595
 4116POPC   C3A53117  36.982   1.718   6.960
 4116POPC   C4A53118  37.045   1.651   7.353
 4116POPC   C1B53119  37.089   2.251   6.295
 4116POPC   C2B53120  37.032   2.342   6.749
 4116POPC   C3B53121  36.965   2.210   7.191
 4116POPC   C4B53122  36.853   2.292   7.603
 4117POPC   NC353123  12.206   3.445   5.084
 4117POPC   PO453124  11.992   3.948   5.493
 4117POPC   GL153125  12.112   3.668   5.792
 4117POPC   GL253126  12.350   3.468   5.602
 4117POPC   C1A53127  12.016   3.555   6.238
 4117POPC   D2A53128  11.949   3.175   6.517
 4117POPC   C3A53129  11.923   3.304   6.958
 4117POPC   C4A53130  11.790   3.719   6.998
 4117POPC   C1B53131  12.511   3.480   6.054
 4117POPC   C2B53132  12.478   3.696   6.476
 4117POPC   C3B53133  12.518   3.579   6.923
 4117POPC   C4B53134  12.322   3.351   7.301
 4118POPC   NC353135  35.231   4.883   5.468
 4118POPC   PO453136  35.727   5.332   5.522
 4118POPC   GL153137  35.636   5.065   5.867
 4118POPC   GL253138  35.684   4.704   5.893
 4118POPC   C1A53139  35.367   5.094   6.243
 4118POPC   D2A53140  35.183   5.235   6.631
 4118POPC   C3A53141  35.447   5.296   6.992
 4118POPC   C4A53142  35.145   5.205   7.273
 4118POPC   C1B53143  35.427   4.581   6.196
 4118POPC   C2B53144  35.241   4.634   6.587
 4118POPC   C3B53145  35.256   4.812   6.975
 4118POPC   C4B53146  35.377   4.702   7.384
 4119POPC   NC353147   5.010   1.798   5.587
 4119POPC   PO453148   5.128   1.102   5.439
 4119POPC   GL153149   5.417   1.146   5.770
 4119POPC   GL253150   5.277   1.458   5.916
 4119POPC   C1A53151   5.500   1.071   6.206
 4119POPC   D2A53152   5.198   1.058   6.559
 4119POPC   C3A53153   5.371   1.083   6.964
 4119POPC   C4A53154   5.302   1.107   7.394
 4119POPC   C1B53155   4.908   1.344   6.201
 4119POPC   C2B53156   4.773   1.419   6.646
 4119POPC   C3B53157   4.964   1.389   7.033
 4119POPC   C4B53158   4.853   1.365   7.448
 4120POPC   NC353159  16.501  12.711   5.466
 4120POPC   PO453160  17.064  13.075   5.401
 4120POPC   GL153161  16.927  13.091   5.805
 4120POPC   GL253162  16.543  13.133   5.800
 4120POPC   C1A53163  16.887  12.930   6.203
 4120POPC   D2A53164  16.673  12.847   6.594
 4120POPC   C3A53165  16.945  12.807   6.928
 4120POPC   C4A53166  16.977  12.683   7.342
 4120POPC   C1B53167  16.369  13.071   6.214
 4120POPC   C2B53168  16.155  13.294   6.560
 4120POPC   C3B53169  16.282  13.265   6.967
 4120POPC   C4B53170  16.524  12.939   7.213
 4121POPC   NC353171  29.495   9.470   5.663
 4121POPC   PO453172  30.050   9.815   5.455
 4121POPC   GL153173  30.019   9.935   5.873
 4121POPC   GL253174  29.669   9.899   5.881
 4121POPC   C1A53175  30.329   9.967   6.218
 4121POPC   D2A53176  30.349  10.140   6.628
 4121POPC   C3A53177  30.152   9.809   6.852
 4121POPC   C4A53178  29.808   9.791   7.144
 4121POPC   C1B53179  29.800   9.648   6.250
 4121POPC   C2B53180  29.745   9.571   6.674
 4121POPC   C3B53181  29.557   9.365   7.028
 4121POPC   C4B53182  29.613   9.390   7.494
 4122POPC   NC353183  28.010  23.049   5.603
 4122POPC   PO453184  27.485  22.748   5.257
 4122POPC   GL153185  27.442  22.884   5.704
 4122POPC   GL253186  27.331  22.574   5.860
 4122POPC   C1A53187  27.640  22.900   6.137
 4122POPC   D2A53188  27.702  22.659   6.527
 4122POPC   C3A53189  27.908  22.901   6.852
 4122POPC   C4A53190  27.944  22.900   7.293
 4122POPC   C1B53191  27.159  22.805   6.232
 4122POPC   C2B53192  27.278  22.978   6.618
 4122POPC   C3B53193  27.433  22.798   6.998
 4122POPC   C4B53194  27.284  22.903   7.362
 4123POPC   NC353195  27.412  44.510   5.325
 4123POPC   PO453196  28.018  44.814   5.554
 4123POPC   GL153197  27.677  44.629   5.782
 4123POPC   GL253198  27.461  44.906   5.720
 4123POPC   C1A53199  27.436  44.501   6.174
 4123POPC   D2A53200  27.575  44.594   6.609
 4123POPC   C3A53201  27.457  44.417   7.015
 4123POPC   C4A53202  27.666  44.481   7.391
 4123POPC   C1B53203  27.307  44.996   6.166
 4123POPC   C2B53204  27.119  44.849   6.584
 4123POPC   C3B53205  27.269  44.906   7.022
 4123POPC   C4B53206  27.468  44.956   7.418
 4124POPC   NC353207  34.761  27.860   5.565
 4124POPC   PO453208  34.345  27.437   5.341
 4124POPC   GL153209  34.518  27.359   5.749
 4124POPC   GL253210  34.867  27.418   5.798
 4124POPC   C1A53211  34.564  27.435   6.195
 4124POPC   D2A53212  34.630  27.722   6.524
 4124POPC   C3A53213  34.585  27.479   6.890
 4124POPC   C4A53214  34.652  27.643   7.319
 4124POPC   C1B53215  35.015  27.716   6.144
 4124POPC   C2B53216  35.171  27.810   6.562
 4124POPC   C3B53217  35.008  27.829   6.994
 4124POPC   C4B53218  35.114  27.884   7.462
 4125POPC   NC353219   1.430  16.066   5.614
 4125POPC   PO453220   1.954  15.792   5.301
 4125POPC   GL153221   1.967  15.675   5.795
 4125POPC   GL253222   2.317  15.610   5.961
 4125POPC   C1A53223   1.801  15.762   6.248
 4125POPC   D2A53224   1.838  15.982   6.666
 4125POPC   C3A53225   1.815  15.686   7.018
 4125POPC   C4A53226   1.811  15.739   7.472
 4125POPC   C1B53227   2.212  16.047   6.127
 4125POPC   C2B53228   2.235  16.295   6.533
 4125POPC   C3B53229   2.375  16.179   6.949
 4125POPC   C4B53230   2.277  15.845   7.273
 4126POPC   NC353231  25.765   6.062   5.631
 4126POPC   PO453232  26.066   5.502   5.420
 4126POPC   GL153233  26.141   5.665   5.804
 4126POPC   GL253234  26.262   5.992   5.783
 4126POPC   C1A53235  25.979   5.749   6.212
 4126POPC   D2A53236  26.127   5.787   6.623
 4126POPC   C3A53237  25.896   5.894   7.006
 4126POPC   C4A53238  25.918   5.628   7.389
 4126POPC   C1B53239  26.397   6.052   6.238
 4126POPC   C2B53240  26.589   5.990   6.672
 4126POPC   C3B53241  26.394   5.782   7.072
 4126POPC   C4B53242  26.270   5.976   7.493
 4127POPC   NC353243  25.777  29.910   5.367
 4127POPC   PO453244  26.348  29.697   5.437
 4127POPC   GL153245  26.143  29.894   5.784
 4127POPC   GL253246  25.919  30.211   5.747
 4127POPC   C1A53247  26.075  29.674   6.172
 4127POPC   D2A53248  25.907  29.494   6.518
 4127POPC   C3A53249  26.102  29.655   6.849
 4127POPC   C4A53250  26.014  29.887   7.174
 4127POPC   C1B53251  25.888  30.144   6.197
 4127POPC   C2B53252  26.161  30.068   6.571
 4127POPC   C3B53253  26.269  30.276   6.970
 4127POPC   C4B53254  25.882  30.398   7.199
 4128POPC   NC353255   3.021  21.899   5.088
 4128POPC   PO453256   2.722  22.347   5.467
 4128POPC   GL153257   2.890  22.290   5.841
 4128POPC   GL253258   3.088  21.989   5.791
 4128POPC   C1A53259   2.692  22.294   6.231
 4128POPC   D2A53260   2.653  22.462   6.617
 4128POPC   C3A53261   2.649  22.129   6.906
 4128POPC   C4A53262   2.707  22.303   7.280
 4128POPC   C1B53263   3.181  22.113   6.234
 4128POPC   C2B53264   3.112  22.140   6.688
 4128POPC   C3B53265   3.158  22.085   7.119
 4128POPC   C4B53266   3.102  22.059   7.573
 4129POPC   NC353267   6.728  11.631   5.399
 4129POPC   PO453268   6.524  12.268   5.366
 4129POPC   GL153269   6.522  12.123   5.790
 4129POPC   GL253270   6.773  11.861   5.850
 4129POPC   C1A53271   6.583  12.249   6.212
 4129POPC   D2A53272   6.439  12.505   6.562
 4129POPC   C3A53273   6.483  12.249   6.924
 4129POPC   C4A53274   6.461  12.116   7.340
 4129POPC   C1B53275   6.752  11.716   6.267
 4129POPC   C2B53276   6.816  11.938   6.656
 4129POPC   C3B53277   6.827  11.836   7.086
 4129POPC   C4B53278   6.947  11.964   7.508
 4130POPC   NC353279  19.196  10.143   5.386
 4130POPC   PO453280  19.574   9.609   5.239
 4130POPC   GL153281  19.066   9.631   5.605
 4130POPC   GL253282  18.984  10.004   5.822
 4130POPC   C1A53283  18.967   9.619   6.118
 4130POPC   D2A53284  19.133   9.814   6.548
 4130POPC   C3A53285  19.039   9.849   7.026
 4130POPC   C4A53286  19.257   9.769   7.456
 4130POPC   C1B53287  18.784  10.104   6.257
 4130POPC   C2B53288  18.735  10.163   6.731
 4130POPC   C3B53289  18.655  10.206   7.194
 4130POPC   C4B53290  18.832  10.017   7.604
 4131POPC   NC353291  15.639  22.332   5.502
 4131POPC   PO453292  16.327  22.453   5.527
 4131POPC   GL153293  16.102  22.233   5.847
 4131POPC   GL253294  16.117  21.871   5.867
 4131POPC   C1A53295  16.232  22.206   6.287
 4131POPC   D2A53296  16.328  22.441   6.642
 4131POPC   C3A53297  16.207  22.371   7.051
 4131POPC   C4A53298  16.157  22.182   7.461
 4131POPC   C1B53299  15.792  21.978   6.204
 4131POPC   C2B53300  15.876  22.141   6.658
 4131POPC   C3B53301  15.879  21.958   7.084
 4131POPC   C4B53302  15.564  21.957   7.421
 4132POPC   NC353303   1.518  20.703   5.337
 4132POPC   PO453304   2.180  20.786   5.399
 4132POPC   GL153305   2.032  20.570   5.774
 4132POPC   GL253306   1.819  20.785   5.878
 4132POPC   C1A53307   1.980  20.525   6.261
 4132POPC   D2A53308   1.849  20.728   6.651
 4132POPC   C3A53309   1.964  20.506   7.035
 4132POPC   C4A53310   1.771  20.474   7.462
 4132POPC   C1B53311   1.963  21.074   6.202
 4132POPC   C2B53312   2.197  21.135   6.575
 4132POPC   C3B53313   2.030  21.127   6.970
 4132POPC   C4B53314   2.059  20.901   7.334
 4133POPC   NC353315  29.997  36.397   5.285
 4133POPC   PO453316  29.920  35.736   5.249
 4133POPC   GL153317  29.887  36.036   5.662
 4133POPC   GL253318  29.938  36.419   5.782
 4133POPC   C1A53319  29.891  35.999   6.143
 4133POPC   D2A53320  30.012  35.906   6.598
 4133POPC   C3A53321  30.029  36.110   7.009
 4133POPC   C4A53322  30.098  35.997   7.458
 4133POPC   C1B53323  29.643  36.458   6.132
 4133POPC   C2B53324  29.626  36.295   6.552
 4133POPC   C3B53325  29.638  36.440   6.947
 4133POPC   C4B53326  29.694  36.291   7.364
 4134POPC   NC353327   9.767  22.911   5.403
 4134POPC   PO453328   9.176  23.105   5.716
 4134POPC   GL153329   9.579  22.885   5.892
 4134POPC   GL253330   9.964  22.756   5.863
 4134POPC   C1A53331   9.593  22.715   6.291
 4134POPC   D2A53332   9.411  22.877   6.652
 4134POPC   C3A53333   9.629  22.842   6.991
 4134POPC   C4A53334   9.636  23.135   7.293
 4134POPC   C1B53335  10.026  22.989   6.262
 4134POPC   C2B53336   9.917  23.133   6.688
 4134POPC   C3B53337  10.107  23.019   7.118
 4134POPC   C4B53338   9.990  22.819   7.544
 4135POPC   NC353339  39.431  33.435   5.492
 4135POPC   PO453340  39.057  32.887   5.453
 4135POPC   GL153341  39.236  33.043   5.809
 4135POPC   GL253342  39.527  32.931   5.700
 4135POPC   C1A53343  39.183  33.262   6.216
 4135POPC   D2A53344  39.264  33.476   6.635
 4135POPC   C3A53345  38.989  33.294   6.959
 4135POPC   C4A53346  38.987  32.969   7.246
 4135POPC   C1B53347  39.618  32.947   6.150
 4135POPC   C2B53348  39.478  33.002   6.575
 4135POPC   C3B53349  39.613  32.861   6.989
 4135POPC   C4B53350  39.490  33.091   7.371
 4136POPC   NC353351  14.873  29.967   5.502
 4136POPC   PO453352  14.200  29.826   5.529
 4136POPC   GL153353  14.301  30.031   5.908
 4136POPC   GL253354  14.033  30.287   5.878
 4136POPC   C1A53355  14.449  30.010   6.374
 4136POPC   D2A53356  14.743  29.742   6.623
 4136POPC   C3A53357  14.877  29.902   7.029
 4136POPC   C4A53358  14.719  29.814   7.445
 4136POPC   C1B53359  13.941  30.053   6.273
 4136POPC   C2B53360  14.033  30.128   6.703
 4136POPC   C3B53361  14.353  30.149   7.023
 4136POPC   C4B53362  14.320  30.147   7.471
 4137POPC   NC353363  37.419  38.805   5.725
 4137POPC   PO453364  37.596  38.206   5.318
 4137POPC   GL153365  37.639  38.335   5.734
 4137POPC   GL253366  37.976  38.442   5.823
 4137POPC   C1A53367  37.669  38.284   6.188
 4137POPC   D2A53368  37.919  38.236   6.523
 4137POPC   C3A53369  37.655  38.308   6.907
 4137POPC   C4A53370  37.737  38.417   7.307
 4137POPC   C1B53371  37.971  38.696   6.241
 4137POPC   C2B53372  37.652  38.711   6.581
 4137POPC   C3B53373  37.650  38.832   7.016
 4137POPC   C4B53374  38.008  38.857   7.320
 4138POPC   NC353375  31.108   4.408   5.355
 4138POPC   PO453376  30.803   3.956   5.738
 4138POPC   GL153377  30.571   4.165   6.001
 4138POPC   GL253378  30.736   4.455   5.789
 4138POPC   C1A53379  30.717   4.049   6.399
 4138POPC   D2A53380  31.049   4.188   6.662
 4138POPC   C3A53381  30.780   4.126   6.972
 4138POPC   C4A53382  30.331   4.222   6.999
 4138POPC   C1B53383  30.860   4.514   6.224
 4138POPC   C2B53384  30.618   4.498   6.587
 4138POPC   C3B53385  30.634   4.651   6.937
 4138POPC   C4B53386  30.829   4.521   7.279
 4139POPC   NC353387  43.936  35.951   5.335
 4139POPC   PO453388  44.278  36.474   5.495
 4139POPC   GL153389  43.992  36.210   5.792
 4139POPC   GL253390  43.633  36.011   5.764
 4139POPC   C1A53391  44.129  35.943   6.153
 4139POPC   D2A53392  44.163  35.709   6.558
 4139POPC   C3A53393  44.084  35.947   6.921
 4139POPC   C4A53394  43.958  36.018   7.334
 4139POPC   C1B53395  43.641  36.230   6.170
 4139POPC   C2B53396  43.740  36.227   6.611
 4139POPC   C3B53397  43.722  36.376   7.034
 4139POPC   C4B53398  43.484  36.171   7.345
 4140POPC   NC353399  30.307  41.745   5.464
 4140POPC   PO453400  30.930  41.431   5.513
 4140POPC   GL153401  30.721  41.694   5.808
 4140POPC   GL253402  30.461  41.478   5.903
 4140POPC   C1A53403  30.738  41.747   6.255
 4140POPC   D2A53404  30.864  41.501   6.622
 4140POPC   C3A53405  30.596  41.697   6.934
 4140POPC   C4A53406  30.570  41.841   7.359
 4140POPC   C1B53407  30.744  41.245   6.151
 4140POPC   C2B53408  30.675  41.026   6.534
 4140POPC   C3B53409  30.819  41.089   6.966
 4140POPC   C4B53410  30.719  41.357   7.293
 4141POPC   NC353411  16.204  41.404   4.926
 4141POPC   PO453412  16.025  41.995   5.276
 4141POPC   GL153413  16.091  41.785   5.692
 4141POPC   GL253414  15.960  41.440   5.693
 4141POPC   C1A53415  16.074  41.710   6.156
 4141POPC   D2A53416  15.982  41.915   6.590
 4141POPC   C3A53417  16.059  41.665   6.962
 4141POPC   C4A53418  16.250  41.371   7.264
 4141POPC   C1B53419  15.667  41.404   6.085
 4141POPC   C2B53420  15.818  41.395   6.535
 4141POPC   C3B53421  15.790  41.225   6.958
 4141POPC   C4B53422  15.564  41.396   7.273
 4142POPC   NC353423  28.938  42.557   5.455
 4142POPC   PO453424  29.203  41.950   5.521
 4142POPC   GL153425  29.281  42.072   5.937
 4142POPC   GL253426  29.035  42.342   5.957
 4142POPC   C1A53427  29.238  42.026   6.387
 4142POPC   D2A53428  29.006  42.369   6.544
 4142POPC   C3A53429  28.838  42.374   6.946
 4142POPC   C4A53430  28.933  42.448   7.385
 4142POPC   C1B53431  29.423  42.478   6.191
 4142POPC   C2B53432  29.546  42.404   6.621
 4142POPC   C3B53433  29.346  42.460   7.038
 4142POPC   C4B53434  29.417  42.680   7.435
 4143POPC   NC353435  32.505  21.698   5.353
 4143POPC   PO453436  32.369  20.996   5.215
 4143POPC   GL153437  32.301  21.168   5.681
 4143POPC   GL253438  32.225  21.526   5.765
 4143POPC   C1A53439  32.148  21.181   6.134
 4143POPC   D2A53440  32.363  21.346   6.547
 4143POPC   C3A53441  32.177  21.279   6.938
 4143POPC   C4A53442  32.424  21.118   7.220
 4143POPC   C1B53443  32.156  21.675   6.227
 4143POPC   C2B53444  32.059  21.761   6.703
 4143POPC   C3B53445  32.246  21.780   7.126
 4143POPC   C4B53446  32.232  21.938   7.554
 4144POPC   NC353447   4.188  33.182   5.519
 4144POPC   PO453448   4.368  32.465   5.532
 4144POPC   GL153449   4.301  32.743   5.946
 4144POPC   GL253450   4.119  33.087   6.020
 4144POPC   C1A53451   4.567  33.013   6.282
 4144POPC   D2A53452   4.610  33.312   6.675
 4144POPC   C3A53453   4.507  33.118   7.069
 4144POPC   C4A53454   4.592  32.686   7.060
 4144POPC   C1B53455   4.092  32.842   6.412
 4144POPC   C2B53456   4.125  32.815   6.868
 4144POPC   C3B53457   4.016  33.019   7.276
 4144POPC   C4B53458   4.009  32.974   7.752
 4145POPC   NC353459   1.703  25.701   5.308
 4145POPC   PO453460   1.128  26.067   5.457
 4145POPC   GL153461   1.271  25.840   5.850
 4145POPC   GL253462   1.577  25.618   5.813
 4145POPC   C1A53463   1.191  25.938   6.300
 4145POPC   D2A53464   0.970  26.283   6.514
 4145POPC   C3A53465   1.105  26.208   6.911
 4145POPC   C4A53466   0.991  26.039   7.295
 4145POPC   C1B53467   1.478  25.513   6.259
 4145POPC   C2B53468   1.425  25.556   6.727
 4145POPC   C3B53469   1.648  25.572   7.131
 4145POPC   C4B53470   1.471  25.853   7.446
 4146POPC   NC353471  35.866   3.140   5.017
 4146POPC   PO453472  36.358   3.598   5.262
 4146POPC   GL153473  36.380   3.662   5.698
 4146POPC   GL253474  36.031   3.698   5.794
 4146POPC   C1A53475  36.427   3.594   6.146
 4146POPC   D2A53476  36.396   3.440   6.570
 4146POPC   C3A53477  36.436   3.699   6.942
 4146POPC   C4A53478  36.455   3.432   7.275
 4146POPC   C1B53479  35.790   3.734   6.156
 4146POPC   C2B53480  35.933   3.656   6.562
 4146POPC   C3B53481  35.953   3.535   6.989
 4146POPC   C4B53482  35.639   3.776   7.249
 4147POPC   NC353483  26.605  17.494   5.469
 4147POPC   PO453484  27.183  17.175   5.303
 4147POPC   GL153485  27.084  17.464   5.724
 4147POPC   GL253486  26.751  17.615   5.922
 4147POPC   C1A53487  27.175  17.657   6.152
 4147POPC   D2A53488  26.918  17.635   6.528
 4147POPC   C3A53489  26.964  17.337   6.865
 4147POPC   C4A53490  27.117  17.403   7.268
 4147POPC   C1B53491  26.676  17.241   6.150
 4147POPC   C2B53492  26.523  17.297   6.550
 4147POPC   C3B53493  26.525  17.635   6.855
 4147POPC   C4B53494  26.626  17.543   7.244
 4148POPC   NC353495  41.090   1.556   5.285
 4148POPC   PO453496  40.661   2.054   5.455
 4148POPC   GL153497  40.564   1.994   5.866
 4148POPC   GL253498  40.540   2.333   5.881
 4148POPC   C1A53499  40.696   1.753   6.234
 4148POPC   D2A53500  41.079   1.730   6.496
 4148POPC   C3A53501  41.037   1.702   6.947
 4148POPC   C4A53502  41.007   2.034   7.229
 4148POPC   C1B53503  40.814   2.285   6.233
 4148POPC   C2B53504  40.987   2.344   6.648
 4148POPC   C3B53505  40.765   2.453   7.024
 4148POPC   C4B53506  40.509   2.234   7.290
 4149POPC   NC353507  42.319  27.223   5.563
 4149POPC   PO453508  42.261  26.567   5.548
 4149POPC   GL153509  42.287  26.717   5.915
 4149POPC   GL253510  41.995  26.952   5.857
 4149POPC   C1A53511  42.539  26.640   6.296
 4149POPC   D2A53512  42.765  26.701   6.705
 4149POPC   C3A53513  42.540  26.949   7.041
 4149POPC   C4A53514  42.390  26.883   7.449
 4149POPC   C1B53515  42.183  27.074   6.248
 4149POPC   C2B53516  42.236  26.857   6.646
 4149POPC   C3B53517  42.115  26.679   7.063
 4149POPC   C4B53518  41.868  26.933   7.338
 4150POPC   NC353519   7.072  28.433   5.339
 4150POPC   PO453520   6.472  28.563   5.299
 4150POPC   GL153521   6.548  28.522   5.740
 4150POPC   GL253522   6.821  28.317   5.791
 4150POPC   C1A53523   6.474  28.456   6.169
 4150POPC   D2A53524   6.622  28.508   6.600
 4150POPC   C3A53525   6.415  28.300   6.945
 4150POPC   C4A53526   6.576  28.416   7.328
 4150POPC   C1B53527   6.978  28.397   6.212
 4150POPC   C2B53528   7.062  28.240   6.623
 4150POPC   C3B53529   6.930  28.167   7.037
 4150POPC   C4B53530   7.010  28.196   7.478
 4151POPC   NC353531  23.929   4.325   5.491
 4151POPC   PO453532  23.289   4.495   5.561
 4151POPC   GL153533  23.597   4.330   5.911
 4151POPC   GL253534  23.988   4.343   5.977
 4151POPC   C1A53535  23.682   4.295   6.375
 4151POPC   D2A53536  23.379   4.304   6.673
 4151POPC   C3A53537  23.359   4.580   6.970
 4151POPC   C4A53538  23.576   4.477   7.315
 4151POPC   C1B53539  24.117   4.646   6.268
 4151POPC   C2B53540  24.165   4.504   6.644
 4151POPC   C3B53541  23.890   4.278   6.852
 4151POPC   C4B53542  24.023   4.242   7.242
 4152POPC   NC353543  26.296  21.687   5.302
 4152POPC   PO453544  25.806  21.289   5.317
 4152POPC   GL153545  25.973  21.314   5.758
 4152POPC   GL253546  26.122  21.667   5.796
 4152POPC   C1A53547  25.908  21.185   6.213
 4152POPC   D2A53548  26.118  21.265   6.637
 4152POPC   C3A53549  26.028  20.978   6.988
 4152POPC   C4A53550  26.115  21.018   7.428
 4152POPC   C1B53551  26.161  21.638   6.240
 4152POPC   C2B53552  25.775  21.651   6.508
 4152POPC   C3B53553  25.717  21.727   6.934
 4152POPC   C4B53554  25.938  21.426   7.177
 4153POPC   NC353555  35.263  14.910   5.227
 4153POPC   PO453556  35.481  14.292   5.242
 4153POPC   GL153557  35.392  14.309   5.671
 4153POPC   GL253558  35.438  14.640   5.739
 4153POPC   C1A53559  35.341  14.191   6.110
 4153POPC   D2A53560  35.512  13.974   6.451
 4153POPC   C3A53561  35.301  14.107   6.806
 4153POPC   C4A53562  35.113  14.277   7.158
 4153POPC   C1B53563  35.253  14.691   6.158
 4153POPC   C2B53564  35.327  14.603   6.586
 4153POPC   C3B53565  35.350  14.708   7.028
 4153POPC   C4B53566  34.923  14.777   7.145
 4154POPC   NC353567   0.095  16.592   5.589
 4154POPC   PO453568   0.721  16.806   5.539
 4154POPC   GL153569   0.439  16.762   5.928
 4154POPC   GL253570   0.104  16.905   5.984
 4154POPC   C1A53571   0.329  16.490   6.276
 4154POPC   D2A53572   0.480  16.437   6.719
 4154POPC   C3A53573   0.241  16.537   7.101
 4154POPC   C4A53574   0.228  16.442   7.541
 4154POPC   C1B53575   0.197  16.958   6.416
 4154POPC   C2B53576   0.535  17.155   6.613
 4154POPC   C3B53577   0.634  17.040   7.014
 4154POPC   C4B53578   0.384  16.952   7.387
 4155POPC   NC353579   6.994   8.273   5.273
 4155POPC   PO453580   6.333   8.079   5.347
 4155POPC   GL153581   6.550   8.174   5.725
 4155POPC   GL253582   6.729   7.901   5.860
 4155POPC   C1A53583   6.402   8.191   6.166
 4155POPC   D2A53584   6.580   8.328   6.581
 4155POPC   C3A53585   6.412   8.176   6.995
 4155POPC   C4A53586   6.365   8.404   7.389
 4155POPC   C1B53587   6.837   7.966   6.304
 4155POPC   C2B53588   6.760   7.873   6.743
 4155POPC   C3B53589   6.886   7.974   7.192
 4155POPC   C4B53590   7.160   7.923   7.576
 4156POPC   NC353591   4.525   8.425   5.150
 4156POPC   PO453592   4.328   9.015   5.366
 4156POPC   GL153593   4.320   9.031   5.829
 4156POPC   GL253594   4.176   8.699   5.957
 4156POPC   C1A53595   4.494   8.949   6.274
 4156POPC   D2A53596   4.308   8.838   6.687
 4156POPC   C3A53597   4.384   9.145   7.032
 4156POPC   C4A53598   4.656   9.056   7.407
 4156POPC   C1B53599   3.985   8.560   6.365
 4156POPC   C2B53600   3.723   8.666   6.726
 4156POPC   C3B53601   3.964   8.812   7.086
 4156POPC   C4B53602   4.425   8.650   7.177
 4157POPC   NC353603  19.359  23.224   5.513
 4157POPC   PO453604  18.936  23.825   5.444
 4157POPC   GL153605  19.059  23.674   5.786
 4157POPC   GL253606  19.399  23.748   5.696
 4157POPC   C1A53607  18.901  23.741   6.194
 4157POPC   D2A53608  18.862  23.999   6.556
 4157POPC   C3A53609  18.944  23.707   6.877
 4157POPC   C4A53610  18.799  23.568   7.261
 4157POPC   C1B53611  19.424  23.572   6.120
 4157POPC   C2B53612  19.313  23.688   6.524
 4157POPC   C3B53613  19.454  23.622   6.919
 4157POPC   C4B53614  19.264  23.737   7.303
 4158POPC   NC353615  16.965  28.112   5.393
 4158POPC   PO453616  17.088  28.741   5.675
 4158POPC   GL153617  16.721  28.500   5.858
 4158POPC   GL253618  16.380  28.715   5.863
 4158POPC   C1A53619  16.743  28.262   6.233
 4158POPC   D2A53620  16.854  28.077   6.638
 4158POPC   C3A53621  16.895  28.293   7.017
 4158POPC   C4A53622  16.480  28.353   7.156
 4158POPC   C1B53623  16.563  28.747   6.287
 4158POPC   C2B53624  16.637  28.562   6.664
 4158POPC   C3B53625  16.669  28.802   7.030
 4158POPC   C4B53626  16.552  28.967   7.402
 4159POPC   NC353627  11.038  43.757   5.396
 4159POPC   PO453628  11.743  43.700   5.425
 4159POPC   GL153629  11.541  43.807   5.840
 4159POPC   GL253630  11.255  44.025   5.815
 4159POPC   C1A53631  11.429  43.794   6.297
 4159POPC   D2A53632  11.653  43.708   6.696
 4159POPC   C3A53633  11.537  43.800   7.107
 4159POPC   C4A53634  11.151  43.908   7.202
 4159POPC   C1B53635  11.164  44.265   6.193
 4159POPC   C2B53636  11.245  44.160   6.624
 4159POPC   C3B53637  11.077  44.350   6.964
 4159POPC   C4B53638  10.897  44.381   7.365
 4160POPC   NC353639  25.955  17.632   5.508
 4160POPC   PO453640  26.340  17.115   5.529
 4160POPC   GL153641  26.216  17.391   5.875
 4160POPC   GL253642  25.832  17.343   5.897
 4160POPC   C1A53643  26.110  17.586   6.272
 4160POPC   D2A53644  26.065  17.471   6.687
 4160POPC   C3A53645  25.860  17.342   7.026
 4160POPC   C4A53646  26.090  17.501   7.370
 4160POPC   C1B53647  25.627  17.669   6.130
 4160POPC   C2B53648  25.652  17.728   6.550
 4160POPC   C3B53649  25.741  17.837   6.952
 4160POPC   C4B53650  25.618  17.706   7.348
 4161POPC   NC353651  43.122  13.946   5.413
 4161POPC   PO453652  43.291  13.392   5.465
 4161POPC   GL153653  43.082  13.637   5.835
 4161POPC   GL253654  42.767  13.880   5.769
 4161POPC   C1A53655  43.357  13.781   6.213
 4161POPC   D2A53656  43.455  14.008   6.621
 4161POPC   C3A53657  43.336  13.790   6.978
 4161POPC   C4A53658  43.392  13.496   7.287
 4161POPC   C1B53659  42.916  14.016   6.167
 4161POPC   C2B53660  42.958  13.911   6.589
 4161POPC   C3B53661  42.875  13.987   7.010
 4161POPC   C4B53662  42.926  13.683   7.334
 4162POPC   NC353663  30.365  29.997   5.405
 4162POPC   PO453664  29.821  29.777   5.312
 4162POPC   GL153665  30.019  29.729   5.723
 4162POPC   GL253666  29.922  30.055   5.849
 4162POPC   C1A53667  30.156  29.715   6.186
 4162POPC   D2A53668  29.971  29.821   6.614
 4162POPC   C3A53669  30.190  29.946   7.005
 4162POPC   C4A53670  30.206  30.161   7.419
 4162POPC   C1B53671  29.662  30.063   6.255
 4162POPC   C2B53672  29.474  30.180   6.701
 4162POPC   C3B53673  29.258  30.208   7.113
 4162POPC   C4B53674  29.219  29.936   7.469
 4163POPC   NC353675  39.481   8.404   5.364
 4163POPC   PO453676  38.860   8.121   5.353
 4163POPC   GL153677  39.130   8.281   5.738
 4163POPC   GL253678  39.035   8.001   6.026
 4163POPC   C1A53679  39.464   8.278   6.057
 4163POPC   D2A53680  39.267   8.275   6.444
 4163POPC   C3A53681  39.496   8.443   6.773
 4163POPC   C4A53682  39.325   8.278   7.145
 4163POPC   C1B53683  39.334   7.788   6.295
 4163POPC   C2B53684  39.451   7.880   6.728
 4163POPC   C3B53685  39.314   7.764   7.121
 4163POPC   C4B53686  38.935   7.920   7.309
 4164POPC   NC353687  10.238  41.044   5.242
 4164POPC   PO453688  10.695  40.558   5.372
 4164POPC   GL153689  10.601  40.724   5.748
 4164POPC   GL253690  10.862  40.499   5.863
 4164POPC   C1A53691  10.308  40.877   6.072
 4164POPC   D2A53692  10.320  40.894   6.535
 4164POPC   C3A53693  10.575  41.159   6.836
 4164POPC   C4A53694  10.479  40.977   7.241
 4164POPC   C1B53695  10.737  40.670   6.264
 4164POPC   C2B53696  10.933  40.884   6.596
 4164POPC   C3B53697  10.900  40.767   7.027
 4164POPC   C4B53698  10.656  40.484   7.284
 4165POPC   NC353699  20.707  42.541   5.419
 4165POPC   PO453700  20.032  42.457   5.322
 4165POPC   GL153701  20.300  42.374   5.695
 4165POPC   GL253702  20.248  42.703   5.776
 4165POPC   C1A53703  20.468  42.281   6.131
 4165POPC   D2A53704  20.405  42.050   6.552
 4165POPC   C3A53705  20.593  42.088   7.003
 4165POPC   C4A53706  20.883  42.300   7.313
 4165POPC   C1B53707  20.413  42.788   6.190
 4165POPC   C2B53708  20.283  42.628   6.584
 4165POPC   C3B53709  20.452  42.667   6.986
 4165POPC   C4B53710  20.381  42.454   7.341
 4166POPC   NC353711  36.790  43.100   5.402
 4166POPC   PO453712  36.854  43.737   5.201
 4166POPC   GL153713  37.050  43.448   5.639
 4166POPC   GL253714  37.173  43.068   5.758
 4166POPC   C1A53715  36.805  43.214   6.063
 4166POPC   D2A53716  36.778  43.147   6.549
 4166POPC   C3A53717  36.869  42.881   6.946
 4166POPC   C4A53718  36.748  42.985   7.399
 4166POPC   C1B53719  37.145  42.869   6.202
 4166POPC   C2B53720  37.275  43.014   6.629
 4166POPC   C3B53721  37.204  43.282   7.019
 4166POPC   C4B53722  37.050  43.416   7.428
 4167POPC   NC353723  17.939   7.588   5.464
 4167POPC   PO453724  17.613   7.024   5.429
 4167POPC   GL153725  17.598   7.328   5.787
 4167POPC   GL253726  17.531   7.704   5.749
 4167POPC   C1A53727  17.660   7.332   6.227
 4167POPC   D2A53728  18.058   7.342   6.454
 4167POPC   C3A53729  17.948   7.430   6.840
 4167POPC   C4A53730  17.675   7.349   7.165
 4167POPC   C1B53731  17.333   7.810   6.142
 4167POPC   C2B53732  17.202   7.529   6.446
 4167POPC   C3B53733  17.318   7.549   6.860
 4167POPC   C4B53734  17.311   7.763   7.263
 4168POPC   NC353735  40.466  31.746   5.474
 4168POPC   PO453736  40.928  31.286   5.436
 4168POPC   GL153737  40.791  31.392   5.796
 4168POPC   GL253738  40.910  31.722   5.823
 4168POPC   C1A53739  40.972  31.311   6.172
 4168POPC   D2A53740  41.034  31.517   6.544
 4168POPC   C3A53741  40.944  31.287   6.911
 4168POPC   C4A53742  41.108  31.374   7.297
 4168POPC   C1B53743  40.624  31.712   6.174
 4168POPC   C2B53744  40.698  31.894   6.574
 4168POPC   C3B53745  40.850  31.782   6.968
 4168POPC   C4B53746  40.659  31.640   7.326
 4169POPC   NC353747  40.501   2.533   4.985
 4169POPC   PO453748  40.966   2.975   5.216
 4169POPC   GL153749  40.747   2.804   5.638
 4169POPC   GL253750  40.989   2.592   5.829
 4169POPC   C1A53751  40.602   2.829   6.095
 4169POPC   D2A53752  40.461   3.105   6.456
 4169POPC   C3A53753  40.596   2.979   6.886
 4169POPC   C4A53754  40.884   2.898   7.236
 4169POPC   C1B53755  41.089   2.733   6.275
 4169POPC   C2B53756  41.088   2.852   6.721
 4169POPC   C3B53757  41.255   2.580   7.041
 4169POPC   C4B53758  41.142   2.485   7.436
 4170POPC   NC353759  32.333  23.737   5.204
 4170POPC   PO453760  31.704  23.918   5.109
 4170POPC   GL153761  31.988  23.831   5.576
 4170POPC   GL253762  32.360  23.750   5.699
 4170POPC   C1A53763  32.071  23.874   6.077
 4170POPC   D2A53764  32.255  23.802   6.527
 4170POPC   C3A53765  32.197  23.889   6.996
 4170POPC   C4A53766  32.031  23.724   7.404
 4170POPC   C1B53767  32.505  23.571   6.120
 4170POPC   C2B53768  32.621  23.435   6.558
 4170POPC   C3B53769  32.578  23.508   7.029
 4170POPC   C4B53770  32.538  23.742   7.447
 4171POPC   NC353771  27.001  16.771   5.402
 4171POPC   PO453772  26.487  16.405   5.264
 4171POPC   GL153773  26.577  16.653   5.702
 4171POPC   GL253774  26.456  16.331   5.830
 4171POPC   C1A53775  26.862  16.728   6.103
 4171POPC   D2A53776  26.930  16.443   6.490
 4171POPC   C3A53777  26.957  16.621   6.936
 4171POPC   C4A53778  26.919  16.946   7.272
 4171POPC   C1B53779  26.398  16.558   6.197
 4171POPC   C2B53780  26.530  16.776   6.540
 4171POPC   C3B53781  26.420  16.666   6.933
 4171POPC   C4B53782  26.521  16.643   7.331
 4172POPC   NC353783   1.853  42.994   5.595
 4172POPC   PO453784   2.538  42.804   5.499
 4172POPC   GL153785   2.417  42.939   5.925
 4172POPC   GL253786   2.205  43.236   5.943
 4172POPC   C1A53787   2.260  42.961   6.375
 4172POPC   D2A53788   1.952  43.073   6.696
 4172POPC   C3A53789   2.081  43.091   7.130
 4172POPC   C4A53790   2.012  43.177   7.571
 4172POPC   C1B53791   1.950  43.406   6.301
 4172POPC   C2B53792   1.641  43.503   6.621
 4172POPC   C3B53793   1.746  43.476   7.064
 4172POPC   C4B53794   1.684  43.568   7.528
 4173POPC   NC353795  21.716  23.812   5.431
 4173POPC   PO453796  21.243  23.360   5.435
 4173POPC   GL153797  21.278  23.672   5.739
 4173POPC   GL253798  20.934  23.800   5.786
 4173POPC   C1A53799  21.391  23.783   6.154
 4173POPC   D2A53800  21.498  23.626   6.563
 4173POPC   C3A53801  21.394  23.728   6.980
 4173POPC   C4A53802  21.692  23.622   7.349
 4173POPC   C1B53803  20.967  23.500   6.139
 4173POPC   C2B53804  20.969  23.451   6.582
 4173POPC   C3B53805  21.173  23.260   6.926
 4173POPC   C4B53806  21.240  23.422   7.358
 4174POPC   NC353807  10.672   1.356   5.377
 4174POPC   PO453808  10.532   0.810   5.620
 4174POPC   GL153809  10.739   1.055   5.920
 4174POPC   GL253810  10.538   1.359   5.962
 4174POPC   C1A53811  10.868   1.095   6.365
 4174POPC   D2A53812  10.549   1.077   6.717
 4174POPC   C3A53813  10.690   1.112   7.138
 4174POPC   C4A53814  10.875   1.439   7.432
 4174POPC   C1B53815  10.073   1.542   6.099
 4174POPC   C2B53816   9.930   1.626   6.524
 4174POPC   C3B53817  10.221   1.615   6.881
 4174POPC   C4B53818  10.244   1.342   7.237
 4175POPC   NC353819  24.392  12.293   5.291
 4175POPC   PO453820  24.831  11.961   5.603
 4175POPC   GL153821  24.693  12.247   5.891
 4175POPC   GL253822  24.321  12.323   5.786
 4175POPC   C1A53823  24.633  12.011   6.309
 4175POPC   D2A53824  24.516  11.798   6.685
 4175POPC   C3A53825  24.659  11.999   7.044
 4175POPC   C4A53826  24.683  12.278   7.387
 4175POPC   C1B53827  24.296  12.368   6.205
 4175POPC   C2B53828  24.240  12.243   6.620
 4175POPC   C3B53829  24.268  12.318   7.045
 4175POPC   C4B53830  24.261  11.996   7.378
 4176POPC   NC353831  19.328  41.442   5.395
 4176POPC   PO453832  18.816  41.824   5.325
 4176POPC   GL153833  19.095  41.757   5.743
 4176POPC   GL253834  19.190  41.379   5.870
 4176POPC   C1A53835  19.281  41.743   6.194
 4176POPC   D2A53836  19.122  41.452   6.534
 4176POPC   C3A53837  19.341  41.525   6.905
 4176POPC   C4A53838  19.241  41.786   7.220
 4176POPC   C1B53839  19.013  41.083   6.161
 4176POPC   C2B53840  19.002  40.950   6.581
 4176POPC   C3B53841  19.044  41.133   7.010
 4176POPC   C4B53842  19.280  41.213   7.387
 4177POPC   NC353843  27.960   1.123   5.357
 4177POPC   PO453844  28.628   1.350   5.393
 4177POPC   GL153845  28.394   1.433   5.798
 4177POPC   GL253846  28.028   1.442   5.809
 4177POPC   C1A53847  28.370   1.231   6.212
 4177POPC   D2A53848  28.252   0.969   6.568
 4177POPC   C3A53849  28.443   1.084   6.957
 4177POPC   C4A53850  28.368   1.099   7.400
 4177POPC   C1B53851  28.105   1.649   6.216
 4177POPC   C2B53852  28.151   1.470   6.627
 4177POPC   C3B53853  28.272   1.552   7.036
 4177POPC   C4B53854  28.156   1.553   7.467
 4178POPC   NC353855  30.452   9.471   5.374
 4178POPC   PO453856  30.729  10.080   5.358
 4178POPC   GL153857  30.772   9.772   5.669
 4178POPC   GL253858  30.459   9.719   5.799
 4178POPC   C1A53859  30.838   9.729   6.127
 4178POPC   D2A53860  30.663   9.732   6.552
 4178POPC   C3A53861  30.964   9.607   6.901
 4178POPC   C4A53862  30.997   9.813   7.319
 4178POPC   C1B53863  30.411   9.461   6.162
 4178POPC   C2B53864  30.278   9.389   6.586
 4178POPC   C3B53865  30.475   9.472   6.993
 4178POPC   C4B53866  30.348   9.698   7.362
 4179POPC   NC353867  23.057  35.100   5.366
 4179POPC   PO453868  22.568  35.537   5.271
 4179POPC   GL153869  22.810  35.392   5.710
 4179POPC   GL253870  23.100  35.191   5.856
 4179POPC   C1A53871  22.925  35.573   6.149
 4179POPC   D2A53872  23.120  35.812   6.502
 4179POPC   C3A53873  22.916  35.677   6.901
 4179POPC   C4A53874  22.858  35.572   7.341
 4179POPC   C1B53875  22.899  35.058   6.238
 4179POPC   C2B53876  22.881  35.183   6.681
 4179POPC   C3B53877  22.997  35.112   7.122
 4179POPC   C4B53878  23.107  35.150   7.566
 4180POPC   NC353879   4.112  36.367   5.304
 4180POPC   PO453880   4.513  35.845   5.440
 4180POPC   GL153881   4.394  36.209   5.697
 4180POPC   GL253882   4.010  36.200   5.787
 4180POPC   C1A53883   4.365  36.346   6.123
 4180POPC   D2A53884   4.444  36.099   6.474
 4180POPC   C3A53885   4.344  36.249   6.894
 4180POPC   C4A53886   4.394  35.903   7.172
 4180POPC   C1B53887   3.984  35.973   6.200
 4180POPC   C2B53888   4.028  35.854   6.655
 4180POPC   C3B53889   3.907  36.008   7.042
 4180POPC   C4B53890   3.978  36.378   7.240
 4181POPC   NC353891   1.346   4.463   5.536
 4181POPC   PO453892   1.313   3.822   5.291
 4181POPC   GL153893   1.230   4.032   5.757
 4181POPC   GL253894   0.970   4.332   5.857
 4181POPC   C1A53895   1.314   4.208   6.203
 4181POPC   D2A53896   1.144   4.191   6.630
 4181POPC   C3A53897   1.379   4.224   6.989
 4181POPC   C4A53898   1.712   4.340   7.236
 4181POPC   C1B53899   0.795   4.127   6.240
 4181POPC   C2B53900   0.652   4.075   6.656
 4181POPC   C3B53901   0.821   4.187   7.056
 4181POPC   C4B53902   1.059   4.472   7.305
 4182POPC   NC353903   0.771  28.162   5.192
 4182POPC   PO453904   1.157  28.591   5.581
 4182POPC   GL153905   1.260  28.433   5.932
 4182POPC   GL253906   1.427  28.123   5.870
 4182POPC   C1A53907   1.107  28.515   6.331
 4182POPC   D2A53908   0.837  28.356   6.618
 4182POPC   C3A53909   1.055  28.437   6.982
 4182POPC   C4A53910   1.084  28.557   7.407
 4182POPC   C1B53911   1.260  28.012   6.258
 4182POPC   C2B53912   1.233  28.036   6.692
 4182POPC   C3B53913   1.408  28.114   7.103
 4182POPC   C4B53914   1.257  28.072   7.500
 4183POPC   NC353915  16.470   6.745   5.323
 4183POPC   PO453916  17.166   6.624   5.399
 4183POPC   GL153917  16.994   6.687   5.899
 4183POPC   GL253918  16.673   6.847   5.892
 4183POPC   C1A53919  16.739   6.545   6.285
 4183POPC   D2A53920  16.496   6.515   6.681
 4183POPC   C3A53921  16.691   6.472   7.099
 4183POPC   C4A53922  17.081   6.660   7.340
 4183POPC   C1B53923  16.951   7.006   6.304
 4183POPC   C2B53924  16.953   6.796   6.750
 4183POPC   C3B53925  16.714   6.975   7.148
 4183POPC   C4B53926  16.332   7.053   7.401
 4184POPC   NC353927  27.851  35.385   5.485
 4184POPC   PO453928  27.243  35.125   5.332
 4184POPC   GL153929  27.385  35.374   5.732
 4184POPC   GL253930  27.702  35.221   5.935
 4184POPC   C1A53931  27.321  35.463   6.185
 4184POPC   D2A53932  27.469  35.098   6.416
 4184POPC   C3A53933  27.487  35.087   6.873
 4184POPC   C4A53934  27.429  35.341   7.243
 4184POPC   C1B53935  27.833  35.645   6.105
 4184POPC   C2B53936  27.759  35.833   6.519
 4184POPC   C3B53937  27.760  35.557   6.912
 4184POPC   C4B53938  27.933  35.169   7.130
 4185POPC   NC353939  18.006  39.215   5.466
 4185POPC   PO453940  18.629  39.053   5.418
 4185POPC   GL153941  18.478  39.225   5.845
 4185POPC   GL253942  18.115  39.330   5.938
 4185POPC   C1A53943  18.625  39.180   6.286
 4185POPC   D2A53944  18.606  39.137   6.766
 4185POPC   C3A53945  18.673  39.399   7.116
 4185POPC   C4A53946  18.603  39.228   7.547
 4185POPC   C1B53947  18.155  39.331   6.385
 4185POPC   C2B53948  18.162  39.361   6.811
 4185POPC   C3B53949  18.185  39.260   7.230
 4185POPC   C4B53950  17.877  39.176   7.543
 4186POPC   NC353951  37.029   9.963   5.318
 4186POPC   PO453952  37.714   9.919   5.281
 4186POPC   GL153953  37.629   9.862   5.777
 4186POPC   GL253954  37.863   9.656   6.000
 4186POPC   C1A53955  37.570  10.025   6.222
 4186POPC   D2A53956  37.763   9.954   6.661
 4186POPC   C3A53957  37.562   9.885   7.084
 4186POPC   C4A53958  37.540   9.522   7.347
 4186POPC   C1B53959  38.194   9.734   6.312
 4186POPC   C2B53960  38.251   9.804   6.749
 4186POPC   C3B53961  37.972   9.559   7.031
 4186POPC   C4B53962  38.016   9.390   7.443
 4187POPC   NC353963  29.314  18.042   5.401
 4187POPC   PO453964  28.739  18.382   5.158
 4187POPC   GL153965  28.914  18.306   5.630
 4187POPC   GL253966  28.922  17.947   5.772
 4187POPC   C1A53967  29.079  18.405   6.083
 4187POPC   D2A53968  28.869  18.483   6.509
 4187POPC   C3A53969  29.100  18.601   6.884
 4187POPC   C4A53970  29.117  18.478   7.319
 4187POPC   C1B53971  29.132  17.910   6.191
 4187POPC   C2B53972  29.243  18.141   6.576
 4187POPC   C3B53973  29.162  18.065   6.996
 4187POPC   C4B53974  29.414  18.038   7.366
 4188POPC   NC353975  36.342  17.904   5.555
 4188POPC   PO453976  36.343  17.263   5.362
 4188POPC   GL153977  36.185  17.481   5.768
 4188POPC   GL253978  35.899  17.768   5.775
 4188POPC   C1A53979  36.349  17.419   6.190
 4188POPC   D2A53980  36.182  17.206   6.528
 4188POPC   C3A53981  36.302  17.241   6.941
 4188POPC   C4A53982  36.176  17.466   7.286
 4188POPC   C1B53983  36.121  17.880   6.176
 4188POPC   C2B53984  36.121  17.714   6.602
 4188POPC   C3B53985  36.042  17.894   7.009
 4188POPC   C4B53986  36.218  17.953   7.427
 4189POPC   NC353987  44.760  35.468   5.038
 4189POPC   PO453988  44.689  35.019   5.483
 4189POPC   GL153989  44.581  35.344   5.778
 4189POPC   GL253990  44.377  35.062   5.918
 4189POPC   C1A53991  44.400  35.452   6.195
 4189POPC   D2A53992  44.460  35.151   6.548
 4189POPC   C3A53993  44.295  35.335   6.904
 4189POPC   C4A53994  44.409  35.385   7.307
 4189POPC   C1B53995  44.805  35.123   6.168
 4189POPC   C2B53996  44.982  35.181   6.582
 4189POPC   C3B53997  44.789  35.180   6.989
 4189POPC   C4B53998  44.938  35.205   7.411
 4190POPC   NC353999  26.455   9.276   5.479
 4190POPC   PO454000  25.987   8.829   5.339
 4190POPC   GL154001  26.152   8.931   5.761
 4190POPC   GL254002  25.970   9.227   5.821
 4190POPC   C1A54003  26.241   8.848   6.223
 4190POPC   D2A54004  26.007   8.631   6.559
 4190POPC   C3A54005  26.119   8.766   6.988
 4190POPC   C4A54006  25.928   8.862   7.384
 4190POPC   C1B54007  26.178   9.345   6.181
 4190POPC   C2B54008  26.254   9.217   6.610
 4190POPC   C3B54009  25.964   9.254   6.948
 4190POPC   C4B54010  26.183   9.306   7.284
 4191POPC   NC354011   4.719  32.744   5.639
 4191POPC   PO454012   5.172  32.253   5.395
 4191POPC   GL154013   5.170  32.139   5.802
 4191POPC   GL254014   5.105  32.484   5.878
 4191POPC   C1A54015   5.008  32.132   6.226
 4191POPC   D2A54016   5.117  32.324   6.574
 4191POPC   C3A54017   5.302  32.060   6.904
 4191POPC   C4A54018   5.109  31.771   7.215
 4191POPC   C1B54019   5.011  32.735   6.242
 4191POPC   C2B54020   4.947  32.897   6.654
 4191POPC   C3B54021   5.119  32.651   6.944
 4191POPC   C4B54022   5.184  32.401   7.257
 4192POPC   NC354023  44.173  24.370   5.340
 4192POPC   PO454024  43.706  23.991   5.556
 4192POPC   GL154025  43.902  24.364   5.757
 4192POPC   GL254026  44.197  24.149   5.833
 4192POPC   C1A54027  43.875  24.660   6.122
 4192POPC   D2A54028  43.720  24.835   6.512
 4192POPC   C3A54029  43.939  24.672   6.838
 4192POPC   C4A54030  43.869  24.513   7.214
 4192POPC   C1B54031  43.836  24.118   6.172
 4192POPC   C2B54032  43.716  24.325   6.517
 4192POPC   C3B54033  43.750  24.145   6.895
 4192POPC   C4B54034  43.820  24.007   7.278
 4193POPC   NC354035  20.100   5.107   5.179
 4193POPC   PO454036  20.776   5.029   5.368
 4193POPC   GL154037  20.978   5.053   5.801
 4193POPC   GL254038  20.659   5.041   5.950
 4193POPC   C1A54039  21.044   5.250   6.233
 4193POPC   D2A54040  20.739   5.183   6.584
 4193POPC   C3A54041  20.648   5.397   6.982
 4193POPC   C4A54042  20.381   5.242   7.299
 4193POPC   C1B54043  20.392   4.861   6.240
 4193POPC   C2B54044  20.374   4.831   6.665
 4193POPC   C3B54045  20.159   4.821   7.048
 4193POPC   C4B54046  20.265   4.783   7.484
 4194POPC   NC354047   1.147  33.958   5.426
 4194POPC   PO454048   1.264  33.391   5.134
 4194POPC   GL154049   1.358  33.534   5.620
 4194POPC   GL254050   1.548  33.822   5.713
 4194POPC   C1A54051   1.161  33.728   6.052
 4194POPC   D2A54052   1.259  33.953   6.464
 4194POPC   C3A54053   1.085  33.856   6.881
 4194POPC   C4A54054   1.209  33.942   7.321
 4194POPC   C1B54055   1.659  33.938   6.139
 4194POPC   C2B54056   1.803  33.936   6.556
 4194POPC   C3B54057   1.569  34.065   6.916
 4194POPC   C4B54058   1.709  34.115   7.314
 4195POPC   NC354059  30.339  27.479   5.338
 4195POPC   PO454060  30.910  27.793   5.350
 4195POPC   GL154061  30.653  27.735   5.734
 4195POPC   GL254062  30.474  28.045   5.675
 4195POPC   C1A54063  30.687  27.574   6.202
 4195POPC   D2A54064  30.874  27.691   6.634
 4195POPC   C3A54065  30.744  27.522   7.062
 4195POPC   C4A54066  30.626  27.398   7.503
 4195POPC   C1B54067  30.411  27.989   6.113
 4195POPC   C2B54068  30.349  27.802   6.525
 4195POPC   C3B54069  30.321  27.984   6.928
 4195POPC   C4B54070  30.444  27.876   7.329
 4196POPC   NC354071   1.693   9.515   5.453
 4196POPC   PO454072   1.137   9.028   5.500
 4196POPC   GL154073   1.288   8.807   5.844
 4196POPC   GL254074   1.633   8.928   5.888
 4196POPC   C1A54075   1.223   8.716   6.270
 4196POPC   D2A54076   1.284   8.901   6.653
 4196POPC   C3A54077   1.092   8.685   6.923
 4196POPC   C4A54078   1.300   8.631   7.262
 4196POPC   C1B54079   1.493   9.176   6.260
 4196POPC   C2B54080   1.605   9.303   6.688
 4196POPC   C3B54081   1.391   9.302   7.062
 4196POPC   C4B54082   1.361   9.089   7.472
 4197POPC   NC354083  26.585  12.427   5.471
 4197POPC   PO454084  27.049  11.920   5.536
 4197POPC   GL154085  26.709  12.060   5.811
 4197POPC   GL254086  26.869  12.362   5.899
 4197POPC   C1A54087  26.419  11.939   6.144
 4197POPC   D2A54088  26.515  11.759   6.549
 4197POPC   C3A54089  26.735  12.044   6.821
 4197POPC   C4A54090  26.756  12.032   7.249
 4197POPC   C1B54091  26.826  12.179   6.318
 4197POPC   C2B54092  26.824  12.557   6.593
 4197POPC   C3B54093  27.022  12.613   6.979
 4197POPC   C4B54094  27.154  12.334   7.270
 4198POPC   NC354095  34.888  26.172   5.183
 4198POPC   PO454096  35.403  26.311   5.593
 4198POPC   GL154097  35.136  26.094   5.913
 4198POPC   GL254098  35.164  25.739   5.977
 4198POPC   C1A54099  35.107  26.141   6.337
 4198POPC   D2A54100  35.363  26.323   6.661
 4198POPC   C3A54101  35.250  26.248   7.096
 4198POPC   C4A54102  35.227  26.163   7.536
 4198POPC   C1B54103  35.168  25.656   6.426
 4198POPC   C2B54104  35.169  25.815   6.829
 4198POPC   C3B54105  35.429  25.790   7.226
 4198POPC   C4B54106  35.465  25.692   7.684
 4199POPC   NC354107  21.027  37.259   5.450
 4199POPC   PO454108  21.679  37.082   5.242
 4199POPC   GL154109  21.579  37.092   5.727
 4199POPC   GL254110  21.700  36.836   5.933
 4199POPC   C1A54111  21.312  37.120   6.144
 4199POPC   D2A54112  21.402  37.278   6.610
 4199POPC   C3A54113  21.293  37.100   7.058
 4199POPC   C4A54114  21.516  37.137   7.487
 4199POPC   C1B54115  21.613  36.710   6.347
 4199POPC   C2B54116  21.685  36.844   6.748
 4199POPC   C3B54117  21.644  36.752   7.179
 4199POPC   C4B54118  21.381  36.607   7.537
 4200POPC   NC354119  16.941  16.835   5.385
 4200POPC   PO454120  16.323  16.798   5.366
 4200POPC   GL154121  16.476  16.509   5.718
 4200POPC   GL254122  16.870  16.469   5.793
 4200POPC   C1A54123  16.431  16.610   6.177
 4200POPC   D2A54124  16.677  16.832   6.501
 4200POPC   C3A54125  16.644  16.878   6.951
 4200POPC   C4A54126  16.709  16.838   7.414
 4200POPC   C1B54127  16.885  16.407   6.268
 4200POPC   C2B54128  16.815  16.398   6.721
 4200POPC   C3B54129  16.762  16.395   7.161
 4200POPC   C4B54130  17.047  16.427   7.470
 4201POPC   NC354131  20.267   1.324   5.379
 4201POPC   PO454132  20.976   1.222   5.252
 4201POPC   GL154133  20.712   1.268   5.655
 4201POPC   GL254134  20.623   0.976   5.755
 4201POPC   C1A54135  20.683   1.464   6.112
 4201POPC   D2A54136  20.457   1.444   6.497
 4201POPC   C3A54137  20.557   1.418   6.940
 4201POPC   C4A54138  20.603   1.278   7.381
 4201POPC   C1B54139  20.413   1.031   6.164
 4201POPC   C2B54140  20.499   0.953   6.603
 4201POPC   C3B54141  20.367   0.940   7.031
 4201POPC   C4B54142  20.404   0.806   7.457
 4202POPC   NC354143  15.650   2.666   5.347
 4202POPC   PO454144  16.247   2.975   5.403
 4202POPC   GL154145  16.024   2.835   5.774
 4202POPC   GL254146  15.829   3.126   5.803
 4202POPC   C1A54147  16.110   2.817   6.261
 4202POPC   D2A54148  15.947   2.829   6.706
 4202POPC   C3A54149  16.189   3.009   7.063
 4202POPC   C4A54150  16.243   2.795   7.475
 4202POPC   C1B54151  15.634   2.944   6.155
 4202POPC   C2B54152  15.455   2.952   6.543
 4202POPC   C3B54153  15.563   3.068   6.940
 4202POPC   C4B54154  15.763   2.836   7.269
 4203POPC   NC354155  34.812  24.555   5.364
 4203POPC   PO454156  34.335  24.258   5.551
 4203POPC   GL154157  34.515  24.550   5.853
 4203POPC   GL254158  34.797  24.813   5.823
 4203POPC   C1A54159  34.397  24.433   6.303
 4203POPC   D2A54160  34.226  24.547   6.708
 4203POPC   C3A54161  34.301  24.316   7.111
 4203POPC   C4A54162  34.665  24.362   7.403
 4203POPC   C1B54163  34.608  24.878   6.227
 4203POPC   C2B54164  34.620  24.860   6.665
 4203POPC   C3B54165  34.541  24.769   7.100
 4203POPC   C4B54166  34.815  24.891   7.446
 4204POPC   NC354167  37.116  20.171   5.758
 4204POPC   PO454168  36.807  19.693   5.348
 4204POPC   GL154169  36.879  19.677   5.752
 4204POPC   GL254170  36.599  19.871   5.852
 4204POPC   C1A54171  36.964  19.647   6.195
 4204POPC   D2A54172  37.078  19.873   6.569
 4204POPC   C3A54173  37.158  19.626   6.927
 4204POPC   C4A54174  37.185  19.658   7.386
 4204POPC   C1B54175  36.656  20.082   6.253
 4204POPC   C2B54176  36.597  19.990   6.648
 4204POPC   C3B54177  36.805  19.986   7.037
 4204POPC   C4B54178  36.740  20.215   7.397
 4205POPC   NC354179  12.912  25.681   5.268
 4205POPC   PO454180  12.557  25.191   5.339
 4205POPC   GL154181  12.552  25.359   5.778
 4205POPC   GL254182  12.756  25.691   5.794
 4205POPC   C1A54183  12.746  25.282   6.211
 4205POPC   D2A54184  12.914  25.291   6.653
 4205POPC   C3A54185  12.616  25.144   6.980
 4205POPC   C4A54186  12.655  24.809   7.275
 4205POPC   C1B54187  12.574  25.769   6.234
 4205POPC   C2B54188  12.593  25.696   6.718
 4205POPC   C3B54189  12.853  25.576   7.098
 4205POPC   C4B54190  12.820  25.273   7.435
 4206POPC   NC354191  29.598  23.061   5.367
 4206POPC   PO454192  30.229  23.343   5.421
 4206POPC   GL154193  29.966  23.095   5.736
 4206POPC   GL254194  29.628  23.180   5.849
 4206POPC   C1A54195  29.963  22.953   6.173
 4206POPC   D2A54196  30.185  22.845   6.578
 4206POPC   C3A54197  29.871  22.700   6.866
 4206POPC   C4A54198  29.739  22.784   7.279
 4206POPC   C1B54199  29.544  23.269   6.265
 4206POPC   C2B54200  29.816  23.206   6.604
 4206POPC   C3B54201  29.633  23.185   6.984
 4206POPC   C4B54202  29.566  23.261   7.414
 4207POPC   NC354203  22.191  38.422   5.423
 4207POPC   PO454204  21.730  38.902   5.638
 4207POPC   GL154205  22.032  38.587   5.882
 4207POPC   GL254206  22.102  38.223   5.877
 4207POPC   C1A54207  22.050  38.474   6.315
 4207POPC   D2A54208  22.046  38.281   6.697
 4207POPC   C3A54209  22.147  38.541   7.044
 4207POPC   C4A54210  21.984  38.386   7.371
 4207POPC   C1B54211  22.178  37.960   6.243
 4207POPC   C2B54212  22.284  37.836   6.664
 4207POPC   C3B54213  22.481  38.159   6.932
 4207POPC   C4B54214  22.524  38.274   7.333
 4208POPC   NC354215   5.161  21.101   5.446
 4208POPC   PO454216   5.119  21.826   5.363
 4208POPC   GL154217   5.235  21.590   5.712
 4208POPC   GL254218   4.926  21.417   5.781
 4208POPC   C1A54219   5.302  21.604   6.148
 4208POPC   D2A54220   5.082  21.458   6.526
 4208POPC   C3A54221   5.230  21.562   6.946
 4208POPC   C4A54222   4.971  21.797   7.230
 4208POPC   C1B54223   5.064  21.115   6.109
 4208POPC   C2B54224   5.047  20.948   6.535
 4208POPC   C3B54225   4.912  21.119   6.922
 4208POPC   C4B54226   5.195  21.121   7.260
 4209POPC   NC354227  39.122  18.787   5.727
 4209POPC   PO454228  39.288  19.428   5.434
 4209POPC   GL154229  39.421  19.227   5.809
 4209POPC   GL254230  39.636  18.945   5.817
 4209POPC   C1A54231  39.248  19.283   6.217
 4209POPC   D2A54232  39.434  19.236   6.613
 4209POPC   C3A54233  39.195  19.137   6.976
 4209POPC   C4A54234  39.206  19.271   7.388
 4209POPC   C1B54235  39.522  18.855   6.257
 4209POPC   C2B54236  39.615  18.752   6.696
 4209POPC   C3B54237  39.310  18.617   7.004
 4209POPC   C4B54238  39.048  18.785   7.358
 4210POPC   NC354239  19.672  17.359   5.141
 4210POPC   PO454240  20.285  17.201   5.340
 4210POPC   GL154241  20.061  17.422   5.728
 4210POPC   GL254242  19.749  17.369   5.847
 4210POPC   C1A54243  20.069  17.607   6.156
 4210POPC   D2A54244  19.834  17.508   6.524
 4210POPC   C3A54245  19.979  17.492   6.952
 4210POPC   C4A54246  19.908  17.370   7.381
 4210POPC   C1B54247  19.491  17.637   6.116
 4210POPC   C2B54248  19.331  17.553   6.519
 4210POPC   C3B54249  19.528  17.729   6.875
 4210POPC   C4B54250  19.329  17.840   7.214
 4211POPC   NC354251  27.352  40.356   5.038
 4211POPC   PO454252  27.756  40.139   5.517
 4211POPC   GL154253  27.704  40.005   5.913
 4211POPC   GL254254  27.356  39.939   5.897
 4211POPC   C1A54255  27.834  39.853   6.342
 4211POPC   D2A54256  27.941  40.004   6.764
 4211POPC   C3A54257  27.629  39.856   7.071
 4211POPC   C4A54258  27.634  39.858   7.503
 4211POPC   C1B54259  27.421  40.174   6.304
 4211POPC   C2B54260  27.493  40.309   6.738
 4211POPC   C3B54261  27.206  40.242   7.071
 4211POPC   C4B54262  27.124  39.946   7.390
 4212POPC   NC354263  15.838  32.617   5.136
 4212POPC   PO454264  16.029  32.011   5.371
 4212POPC   GL154265  15.820  32.009   5.823
 4212POPC   GL254266  15.834  32.322   5.956
 4212POPC   C1A54267  16.010  32.033   6.310
 4212POPC   D2A54268  16.372  32.220   6.586
 4212POPC   C3A54269  16.302  32.194   7.055
 4212POPC   C4A54270  15.939  32.155   7.359
 4212POPC   C1B54271  15.999  32.531   6.320
 4212POPC   C2B54272  15.925  32.419   6.760
 4212POPC   C3B54273  15.606  32.504   7.073
 4212POPC   C4B54274  15.484  32.736   7.452
 4213POPC   NC354275  12.832  43.339   5.511
 4213POPC   PO454276  12.739  42.669   5.580
 4213POPC   GL154277  12.625  43.005   5.903
 4213POPC   GL254278  12.908  43.209   5.999
 4213POPC   C1A54279  12.593  43.091   6.384
 4213POPC   D2A54280  12.323  43.056   6.757
 4213POPC   C3A54281  12.611  43.009   7.134
 4213POPC   C4A54282  13.082  43.024   7.155
 4213POPC   C1B54283  12.997  43.520   6.324
 4213POPC   C2B54284  13.323  43.586   6.664
 4213POPC   C3B54285  13.249  43.501   7.085
 4213POPC   C4B54286  12.831  43.473   7.228
 4214POPC   NC354287  17.480  27.210   5.467
 4214POPC   PO454288  17.386  27.871   5.302
 4214POPC   GL154289  17.410  27.626   5.804
 4214POPC   GL254290  17.611  27.347   5.920
 4214POPC   C1A54291  17.622  27.710   6.271
 4214POPC   D2A54292  17.762  27.746   6.723
 4214POPC   C3A54293  17.585  27.638   7.090
 4214POPC   C4A54294  17.523  27.801   7.482
 4214POPC   C1B54295  17.869  27.076   6.174
 4214POPC   C2B54296  17.966  27.326   6.492
 4214POPC   C3B54297  17.905  27.247   6.896
 4214POPC   C4B54298  17.720  27.157   7.277
 4215POPC   NC354299  12.468  14.573   5.136
 4215POPC   PO454300  13.106  14.472   5.198
 4215POPC   GL154301  12.827  14.369   5.654
 4215POPC   GL254302  12.901  14.588   5.886
 4215POPC   C1A54303  12.613  14.299   6.147
 4215POPC   D2A54304  12.596  14.087   6.553
 4215POPC   C3A54305  12.678  14.279   6.956
 4215POPC   C4A54306  12.956  14.283   7.284
 4215POPC   C1B54307  13.017  14.688   6.254
 4215POPC   C2B54308  12.776  14.660   6.586
 4215POPC   C3B54309  12.996  14.668   6.927
 4215POPC   C4B54310  12.883  14.793   7.291
 4216POPC   NC354311   2.362  16.037   5.253
 4216POPC   PO454312   2.908  15.671   5.361
 4216POPC   GL154313   2.804  15.789   5.808
 4216POPC   GL254314   3.017  16.112   5.827
 4216POPC   C1A54315   2.678  15.891   6.263
 4216POPC   D2A54316   2.754  16.269   6.541
 4216POPC   C3A54317   2.902  16.191   6.973
 4216POPC   C4A54318   2.753  16.006   7.349
 4216POPC   C1B54319   3.171  15.981   6.233
 4216POPC   C2B54320   3.086  15.862   6.634
 4216POPC   C3B54321   3.057  15.702   7.049
 4216POPC   C4B54322   3.363  15.622   7.344
 4217POPC   NC354323   5.288  29.994   5.435
 4217POPC   PO454324   4.717  30.327   5.474
 4217POPC   GL154325   4.912  30.092   5.806
 4217POPC   GL254326   4.921  29.747   5.728
 4217POPC   C1A54327   5.258  30.016   6.095
 4217POPC   D2A54328   5.324  29.823   6.497
 4217POPC   C3A54329   5.197  30.084   6.854
 4217POPC   C4A54330   5.195  29.963   7.275
 4217POPC   C1B54331   4.996  29.589   6.150
 4217POPC   C2B54332   5.025  29.382   6.560
 4217POPC   C3B54333   5.151  29.558   6.918
 4217POPC   C4B54334   4.965  29.508   7.303
 4218POPC   NC354335  27.687  37.823   5.351
 4218POPC   PO454336  27.890  37.226   5.708
 4218POPC   GL154337  27.737  37.645   5.836
 4218POPC   GL254338  27.366  37.671   5.809
 4218POPC   C1A54339  27.568  37.921   6.192
 4218POPC   D2A54340  27.369  37.787   6.594
 4218POPC   C3A54341  27.666  37.729   6.915
 4218POPC   C4A54342  27.738  37.972   7.238
 4218POPC   C1B54343  27.397  37.414   6.201
 4218POPC   C2B54344  27.295  37.275   6.617
 4218POPC   C3B54345  27.328  37.367   7.064
 4218POPC   C4B54346  27.177  37.434   7.503
 4219POPC   NC354347  35.054   9.968   5.594
 4219POPC   PO454348  34.792  10.618   5.523
 4219POPC   GL154349  34.547  10.501   5.804
 4219POPC   GL254350  34.598  10.165   5.711
 4219POPC   C1A54351  34.564  10.740   6.195
 4219POPC   D2A54352  34.744  10.836   6.599
 4219POPC   C3A54353  34.490  10.736   6.930
 4219POPC   C4A54354  34.419  10.892   7.324
 4219POPC   C1B54355  34.777  10.262   6.161
 4219POPC   C2B54356  34.509  10.355   6.519
 4219POPC   C3B54357  34.371  10.221   6.889
 4219POPC   C4B54358  34.471  10.359   7.303
 4220POPC   NC354359  44.181  41.633   5.388
 4220POPC   PO454360  43.661  41.417   5.306
 4220POPC   GL154361  43.832  41.415   5.763
 4220POPC   GL254362  43.945  41.722   5.880
 4220POPC   C1A54363  43.690  41.385   6.238
 4220POPC   D2A54364  43.865  41.636   6.605
 4220POPC   C3A54365  43.776  41.535   7.053
 4220POPC   C4A54366  43.895  41.670   7.477
 4220POPC   C1B54367  44.179  41.476   6.203
 4220POPC   C2B54368  44.356  41.416   6.596
 4220POPC   C3B54369  44.276  41.685   6.929
 4220POPC   C4B54370  44.280  41.432   7.251
 4221POPC   NC354371   5.648  11.382   5.471
 4221POPC   PO454372   6.250  11.592   5.491
 4221POPC   GL154373   6.046  11.316   5.867
 4221POPC   GL254374   5.719  11.136   5.912
 4221POPC   C1A54375   5.898  11.442   6.268
 4221POPC   D2A54376   5.944  11.605   6.635
 4221POPC   C3A54377   6.025  11.319   6.967
 4221POPC   C4A54378   6.177  11.289   7.376
 4221POPC   C1B54379   5.553  11.028   6.293
 4221POPC   C2B54380   5.586  11.177   6.701
 4221POPC   C3B54381   5.515  11.049   7.135
 4221POPC   C4B54382   5.566  11.038   7.619
 4222POPC   NC354383  39.614  23.457   5.379
 4222POPC   PO454384  38.990  23.579   5.441
 4222POPC   GL154385  39.284  23.509   5.779
 4222POPC   GL254386  39.031  23.287   5.920
 4222POPC   C1A54387  39.451  23.723   6.187
 4222POPC   D2A54388  39.476  23.542   6.645
 4222POPC   C3A54389  39.415  23.723   7.105
 4222POPC   C4A54390  39.290  23.848   7.542
 4222POPC   C1B54391  39.026  23.482   6.367
 4222POPC   C2B54392  38.990  23.601   6.834
 4222POPC   C3B54393  38.866  23.668   7.286
 4222POPC   C4B54394  38.539  23.776   7.617
 4223POPC   NC354395  11.218  14.189   5.534
 4223POPC   PO454396  11.508  14.761   5.225
 4223POPC   GL154397  11.466  14.563   5.747
 4223POPC   GL254398  11.086  14.539   5.862
 4223POPC   C1A54399  11.543  14.346   6.146
 4223POPC   D2A54400  11.309  14.161   6.492
 4223POPC   C3A54401  11.412  14.223   6.938
 4223POPC   C4A54402  11.055  14.385   7.179
 4223POPC   C1B54403  11.145  14.666   6.270
 4223POPC   C2B54404  11.196  14.661   6.694
 4223POPC   C3B54405  11.371  14.760   7.062
 4223POPC   C4B54406  11.052  14.871   7.365
 4224POPC   NC354407  17.878   6.590   5.446
 4224POPC   PO454408  18.492   6.650   5.455
 4224POPC   GL154409  18.279   6.644   5.817
 4224POPC   GL254410  18.123   6.973   5.709
 4224POPC   C1A54411  18.441   6.523   6.229
 4224POPC   D2A54412  18.610   6.352   6.624
 4224POPC   C3A54413  18.403   6.593   6.945
 4224POPC   C4A54414  18.363   6.805   7.330
 4224POPC   C1B54415  17.986   6.930   6.125
 4224POPC   C2B54416  17.891   6.827   6.528
 4224POPC   C3B54417  18.002   6.920   6.926
 4224POPC   C4B54418  17.859   6.884   7.317
 4225POPC   NC354419   5.378  44.013   5.549
 4225POPC   PO454420   4.695  43.929   5.597
 4225POPC   GL154421   4.951  44.124   5.887
 4225POPC   GL254422   5.144  43.827   5.962
 4225POPC   C1A54423   4.963  44.106   6.339
 4225POPC   D2A54424   4.950  43.855   6.695
 4225POPC   C3A54425   5.240  43.930   7.043
 4225POPC   C4A54426   5.265  44.117   7.485
 4225POPC   C1B54427   4.868  43.511   6.171
 4225POPC   C2B54428   4.856  43.360   6.582
 4225POPC   C3B54429   4.815  43.489   7.030
 4225POPC   C4B54430   5.067  43.635   7.409
 4226POPC   NC354431  31.281  12.316   5.550
 4226POPC   PO454432  31.802  11.965   5.433
 4226POPC   GL154433  31.531  11.914   5.781
 4226POPC   GL254434  31.233  11.765   5.701
 4226POPC   C1A54435  31.434  12.160   6.156
 4226POPC   D2A54436  31.593  12.297   6.520
 4226POPC   C3A54437  31.592  12.099   6.894
 4226POPC   C4A54438  31.435  12.179   7.255
 4226POPC   C1B54439  31.157  11.711   6.157
 4226POPC   C2B54440  31.237  11.911   6.561
 4226POPC   C3B54441  31.107  11.886   6.990
 4226POPC   C4B54442  31.200  11.758   7.418
 4227POPC   NC354443  30.038   7.186   5.323
 4227POPC   PO454444  29.611   7.531   5.539
 4227POPC   GL154445  29.837   7.489   5.900
 4227POPC   GL254446  30.064   7.755   5.877
 4227POPC   C1A54447  29.753   7.535   6.353
 4227POPC   D2A54448  29.756   7.645   6.791
 4227POPC   C3A54449  29.725   7.334   7.084
 4227POPC   C4A54450  29.789   7.370   7.512
 4227POPC   C1B54451  30.160   7.826   6.325
 4227POPC   C2B54452  30.204   7.848   6.767
 4227POPC   C3B54453  30.143   7.614   7.170
 4227POPC   C4B54454  30.285   7.388   7.580
 4228POPC   NC354455  25.650  27.726   5.488
 4228POPC   PO454456  26.234  27.281   5.402
 4228POPC   GL154457  26.134  27.426   5.815
 4228POPC   GL254458  25.780  27.448   5.912
 4228POPC   C1A54459  26.220  27.530   6.233
 4228POPC   D2A54460  26.018  27.403   6.589
 4228POPC   C3A54461  26.036  27.674   6.878
 4228POPC   C4A54462  26.202  27.692   7.257
 4228POPC   C1B54463  25.733  27.703   6.274
 4228POPC   C2B54464  25.549  27.627   6.638
 4228POPC   C3B54465  25.564  27.619   7.042
 4228POPC   C4B54466  25.724  27.693   7.461
 4229POPC   NC354467  27.493   0.754   5.267
 4229POPC   PO454468  27.626   1.441   5.423
 4229POPC   GL154469  27.516   1.272   5.818
 4229POPC   GL254470  27.754   1.006   5.904
 4229POPC   C1A54471  27.417   1.368   6.249
 4229POPC   D2A54472  27.657   1.605   6.553
 4229POPC   C3A54473  27.537   1.526   6.978
 4229POPC   C4A54474  27.192   1.331   7.206
 4229POPC   C1B54475  27.875   1.168   6.290
 4229POPC   C2B54476  27.783   1.124   6.742
 4229POPC   C3B54477  27.898   1.204   7.179
 4229POPC   C4B54478  27.890   1.108   7.642
 4230POPC   NC354479  36.909  32.436   5.309
 4230POPC   PO454480  36.771  31.871   5.524
 4230POPC   GL154481  36.944  32.198   5.776
 4230POPC   GL254482  36.735  32.479   5.799
 4230POPC   C1A54483  37.028  32.315   6.199
 4230POPC   D2A54484  36.977  31.987   6.475
 4230POPC   C3A54485  36.976  32.029   6.882
 4230POPC   C4A54486  36.984  32.191   7.299
 4230POPC   C1B54487  36.597  32.610   6.204
 4230POPC   C2B54488  36.716  32.424   6.605
 4230POPC   C3B54489  36.928  32.530   6.935
 4230POPC   C4B54490  36.679  32.626   7.287
 4231POPC   NC354491   4.916  38.016   5.582
 4231POPC   PO454492   4.740  37.434   5.567
 4231POPC   GL154493   5.107  37.577   5.887
 4231POPC   GL254494   5.193  37.960   5.988
 4231POPC   C1A54495   5.240  37.630   6.365
 4231POPC   D2A54496   5.452  37.754   6.764
 4231POPC   C3A54497   5.275  37.577   7.126
 4231POPC   C4A54498   4.854  37.512   7.198
 4231POPC   C1B54499   4.792  37.838   6.209
 4231POPC   C2B54500   4.780  37.730   6.637
 4231POPC   C3B54501   5.019  37.980   6.914
 4231POPC   C4B54502   5.200  38.023   7.302
 4232POPC   NC354503  36.764   4.795   5.492
 4232POPC   PO454504  37.213   4.226   5.540
 4232POPC   GL154505  37.027   4.234   5.943
 4232POPC   GL254506  36.711   4.373   5.818
 4232POPC   C1A54507  37.053   4.273   6.394
 4232POPC   D2A54508  37.071   4.590   6.735
 4232POPC   C3A54509  37.026   4.357   7.108
 4232POPC   C4A54510  37.080   4.106   7.483
 4232POPC   C1B54511  36.703   4.575   6.201
 4232POPC   C2B54512  36.593   4.446   6.630
 4232POPC   C3B54513  36.628   4.695   7.014
 4232POPC   C4B54514  36.708   4.532   7.460
 4233POPC   NC354515  30.052  37.303   5.325
 4233POPC   PO454516  29.942  37.961   5.307
 4233POPC   GL154517  29.993  37.690   5.635
 4233POPC   GL254518  29.689  37.569   5.836
 4233POPC   C1A54519  30.121  37.735   6.057
 4233POPC   D2A54520  30.068  37.659   6.503
 4233POPC   C3A54521  29.848  37.902   6.801
 4233POPC   C4A54522  29.807  37.882   7.231
 4233POPC   C1B54523  29.791  37.346   6.183
 4233POPC   C2B54524  29.678  37.291   6.579
 4233POPC   C3B54525  29.808  37.237   6.978
 4233POPC   C4B54526  29.939  37.334   7.354
 4234POPC   NC354527  11.807   8.668   5.512
 4234POPC   PO454528  12.185   8.159   5.340
 4234POPC   GL154529  12.173   8.052   5.792
 4234POPC   GL254530  12.307   8.329   5.944
 4234POPC   C1A54531  11.990   8.021   6.218
 4234POPC   D2A54532  12.060   8.345   6.539
 4234POPC   C3A54533  12.104   8.291   6.987
 4234POPC   C4A54534  11.863   8.472   7.338
 4234POPC   C1B54535  12.490   7.972   6.199
 4234POPC   C2B54536  12.344   7.915   6.604
 4234POPC   C3B54537  12.447   7.881   7.004
 4234POPC   C4B54538  12.484   8.118   7.381
 4235POPC   NC354539  32.914   9.207   5.368
 4235POPC   PO454540  32.708   8.617   5.481
 4235POPC   GL154541  33.007   8.834   5.797
 4235POPC   GL254542  33.197   9.170   5.772
 4235POPC   C1A54543  32.983   9.075   6.209
 4235POPC   D2A54544  32.829   9.316   6.550
 4235POPC   C3A54545  32.952   9.093   6.929
 4235POPC   C4A54546  32.723   9.059   7.293
 4235POPC   C1B54547  33.469   9.187   6.130
 4235POPC   C2B54548  33.343   9.254   6.556
 4235POPC   C3B54549  33.469   9.258   6.939
 4235POPC   C4B54550  33.309   9.208   7.321
 4236POPC   NC354551  25.953  20.860   5.446
 4236POPC   PO454552  26.282  20.323   5.207
 4236POPC   GL154553  26.129  20.436   5.703
 4236POPC   GL254554  26.153  20.800   5.905
 4236POPC   C1A54555  25.879  20.454   6.140
 4236POPC   D2A54556  25.985  20.718   6.531
 4236POPC   C3A54557  26.024  20.474   6.916
 4236POPC   C4A54558  25.813  20.407   7.309
 4236POPC   C1B54559  26.376  20.576   6.247
 4236POPC   C2B54560  26.526  20.490   6.664
 4236POPC   C3B54561  26.466  20.729   7.040
 4236POPC   C4B54562  26.302  20.536   7.407
 4237POPC   NC354563  24.190  14.749   5.463
 4237POPC   PO454564  24.517  15.370   5.432
 4237POPC   GL154565  24.756  15.196   5.806
 4237POPC   GL254566  24.646  14.825   5.780
 4237POPC   C1A54567  24.783  15.352   6.268
 4237POPC   D2A54568  24.752  15.348   6.738
 4237POPC   C3A54569  24.379  15.395   6.946
 4237POPC   C4A54570  24.227  15.404   7.324
 4237POPC   C1B54571  24.439  14.965   6.169
 4237POPC   C2B54572  24.352  15.028   6.607
 4237POPC   C3B54573  24.541  14.924   7.025
 4237POPC   C4B54574  24.525  14.591   7.316
 4238POPC   NC354575  27.706  21.478   5.229
 4238POPC   PO454576  27.793  20.874   5.500
 4238POPC   GL154577  27.572  21.240   5.726
 4238POPC   GL254578  27.705  21.588   5.713
 4238POPC   C1A54579  27.350  21.325   6.135
 4238POPC   D2A54580  27.531  21.230   6.531
 4238POPC   C3A54581  27.346  21.346   6.899
 4238POPC   C4A54582  27.600  21.217   7.230
 4238POPC   C1B54583  27.724  21.705   6.114
 4238POPC   C2B54584  27.928  21.562   6.474
 4238POPC   C3B54585  27.846  21.560   6.888
 4238POPC   C4B54586  28.005  21.520   7.278
 4239POPC   NC354587  37.305  17.868   5.436
 4239POPC   PO454588  37.972  18.262   5.343
 4239POPC   GL154589  37.749  18.276   5.730
 4239POPC   GL254590  37.417  18.310   5.693
 4239POPC   C1A54591  37.832  18.237   6.187
 4239POPC   D2A54592  37.686  18.011   6.560
 4239POPC   C3A54593  37.736  18.315   6.869
 4239POPC   C4A54594  37.505  18.468   7.183
 4239POPC   C1B54595  37.366  18.041   6.073
 4239POPC   C2B54596  37.157  17.842   6.427
 4239POPC   C3B54597  37.219  17.773   6.865
 4239POPC   C4B54598  37.546  17.915   7.131
 4240POPC   NC354599  32.431   0.946   5.457
 4240POPC   PO454600  32.038   1.507   5.525
 4240POPC   GL154601  32.305   1.298   5.832
 4240POPC   GL254602  32.304   0.920   5.937
 4240POPC   C1A54603  32.584   1.473   6.125
 4240POPC   D2A54604  32.777   1.571   6.518
 4240POPC   C3A54605  32.588   1.344   6.831
 4240POPC   C4A54606  32.361   1.380   7.189
 4240POPC   C1B54607  32.176   1.091   6.317
 4240POPC   C2B54608  32.176   1.051   6.754
 4240POPC   C3B54609  32.277   0.887   7.136
 4240POPC   C4B54610  32.096   0.888   7.551
 4241POPC   NC354611  26.144  16.651   5.452
 4241POPC   PO454612  25.614  16.435   5.750
 4241POPC   GL154613  25.950  16.566   5.934
 4241POPC   GL254614  26.082  16.876   5.901
 4241POPC   C1A54615  25.925  16.601   6.363
 4241POPC   D2A54616  26.021  16.434   6.701
 4241POPC   C3A54617  25.836  16.649   7.014
 4241POPC   C4A54618  26.024  16.864   7.278
 4241POPC   C1B54619  26.144  17.062   6.283
 4241POPC   C2B54620  26.080  16.975   6.706
 4241POPC   C3B54621  26.349  17.163   7.014
 4241POPC   C4B54622  26.427  17.119   7.423
 4242POPC   NC354623  19.620  20.864   5.633
 4242POPC   PO454624  19.057  20.646   5.292
 4242POPC   GL154625  19.039  20.759   5.720
 4242POPC   GL254626  19.287  20.632   5.939
 4242POPC   C1A54627  18.783  20.749   6.095
 4242POPC   D2A54628  18.737  20.852   6.528
 4242POPC   C3A54629  19.028  20.705   6.815
 4242POPC   C4A54630  18.983  20.359   7.104
 4242POPC   C1B54631  19.141  20.458   6.342
 4242POPC   C2B54632  19.259  20.123   6.639
 4242POPC   C3B54633  19.424  20.133   7.074
 4242POPC   C4B54634  19.417  20.474   7.430
 4243POPC   NC354635   7.090  30.546   5.687
 4243POPC   PO454636   7.819  30.394   5.515
 4243POPC   GL154637   7.567  30.436   5.841
 4243POPC   GL254638   7.538  30.786   5.796
 4243POPC   C1A54639   7.428  30.505   6.271
 4243POPC   D2A54640   7.453  30.772   6.645
 4243POPC   C3A54641   7.592  30.518   7.002
 4243POPC   C4A54642   7.267  30.423   7.286
 4243POPC   C1B54643   7.576  31.042   6.155
 4243POPC   C2B54644   7.668  31.228   6.526
 4243POPC   C3B54645   7.477  31.234   6.898
 4243POPC   C4B54646   7.414  30.954   7.189
 4244POPC   NC354647  42.075  16.978   5.441
 4244POPC   PO454648  42.502  16.395   5.358
 4244POPC   GL154649  42.437  16.494   5.750
 4244POPC   GL254650  42.111  16.637   5.834
 4244POPC   C1A54651  42.391  16.391   6.164
 4244POPC   D2A54652  42.551  16.526   6.542
 4244POPC   C3A54653  42.390  16.646   6.919
 4244POPC   C4A54654  42.624  16.720   7.263
 4244POPC   C1B54655  42.095  16.775   6.290
 4244POPC   C2B54656  41.961  16.527   6.668
 4244POPC   C3B54657  41.902  16.673   7.096
 4244POPC   C4B54658  41.912  17.126   7.160
 4245POPC   NC354659   3.873  26.842   5.289
 4245POPC   PO454660   3.219  26.522   5.131
 4245POPC   GL154661   3.441  26.742   5.538
 4245POPC   GL254662   3.269  26.702   5.820
 4245POPC   C1A54663   3.733  26.862   5.961
 4245POPC   D2A54664   3.838  26.657   6.396
 4245POPC   C3A54665   3.785  26.860   6.822
 4245POPC   C4A54666   3.364  26.991   7.018
 4245POPC   C1B54667   3.335  26.658   6.219
 4245POPC   C2B54668   3.365  26.631   6.645
 4245POPC   C3B54669   3.572  26.444   6.996
 4245POPC   C4B54670   3.468  26.555   7.390
 4246POPC   NC354671   0.317  21.857   5.502
 4246POPC   PO454672   0.359  22.474   5.416
 4246POPC   GL154673   0.402  22.245   5.829
 4246POPC   GL254674   0.110  22.006   5.941
 4246POPC   C1A54675   0.568  22.068   6.235
 4246POPC   D2A54676   0.861  22.003   6.589
 4246POPC   C3A54677   0.628  21.857   6.929
 4246POPC   C4A54678   0.488  22.037   7.289
 4246POPC   C1B54679   0.096  22.330   6.232
 4246POPC   C2B54680   0.266  22.342   6.620
 4246POPC   C3B54681   0.117  22.219   7.000
 4246POPC   C4B54682   0.100  22.388   7.383
 4247POPC   NC354683  25.536  13.862   5.358
 4247POPC   PO454684  24.936  13.590   5.615
 4247POPC   GL154685  25.268  13.621   5.869
 4247POPC   GL254686  25.527  13.406   5.676
 4247POPC   C1A54687  25.107  13.677   6.302
 4247POPC   D2A54688  25.021  13.912   6.654
 4247POPC   C3A54689  25.279  13.740   6.978
 4247POPC   C4A54690  25.069  13.483   7.264
 4247POPC   C1B54691  25.603  13.321   6.115
 4247POPC   C2B54692  25.563  13.472   6.545
 4247POPC   C3B54693  25.535  13.281   7.013
 4247POPC   C4B54694  25.555  13.475   7.427
 4248POPC   NC354695   5.594  27.108   5.671
 4248POPC   PO454696   5.890  26.585   5.298
 4248POPC   GL154697   5.736  26.613   5.715
 4248POPC   GL254698   6.017  26.791   5.813
 4248POPC   C1A54699   5.698  26.687   6.200
 4248POPC   D2A54700   5.588  26.956   6.575
 4248POPC   C3A54701   5.661  26.786   6.966
 4248POPC   C4A54702   5.527  26.937   7.311
 4248POPC   C1B54703   6.213  26.883   6.225
 4248POPC   C2B54704   6.110  26.930   6.676
 4248POPC   C3B54705   6.144  26.658   7.031
 4248POPC   C4B54706   6.007  26.768   7.469
 4249POPC   NC354707  21.511  14.606   5.303
 4249POPC   PO454708  21.129  14.049   5.405
 4249POPC   GL154709  21.256  14.299   5.731
 4249POPC   GL254710  21.609  14.176   5.781
 4249POPC   C1A54711  21.238  14.442   6.162
 4249POPC   D2A54712  21.246  14.187   6.556
 4249POPC   C3A54713  21.266  14.382   6.940
 4249POPC   C4A54714  21.308  14.565   7.323
 4249POPC   C1B54715  21.712  14.277   6.235
 4249POPC   C2B54716  21.691  14.526   6.654
 4249POPC   C3B54717  21.758  14.389   7.106
 4249POPC   C4B54718  21.612  14.087   7.409
 4250POPC   NC354719  30.315  10.214   5.472
 4250POPC   PO454720  30.891  10.620   5.500
 4250POPC   GL154721  30.721  10.537   5.885
 4250POPC   GL254722  30.622  10.215   5.884
 4250POPC   C1A54723  30.673  10.781   6.286
 4250POPC   D2A54724  30.426  10.697   6.675
 4250POPC   C3A54725  30.639  10.465   6.935
 4250POPC   C4A54726  30.966  10.340   7.155
 4250POPC   C1B54727  30.785  10.225   6.312
 4250POPC   C2B54728  30.955  10.099   6.717
 4250POPC   C3B54729  30.628   9.970   7.021
 4250POPC   C4B54730  30.258  10.174   7.170
 4251POPC   NC354731  41.966  19.943   5.384
 4251POPC   PO454732  42.610  19.884   5.447
 4251POPC   GL154733  42.328  19.860   5.789
 4251POPC   GL254734  42.147  19.544   5.848
 4251POPC   C1A54735  42.397  19.888   6.237
 4251POPC   D2A54736  42.561  19.794   6.659
 4251POPC   C3A54737  42.284  20.000   6.967
 4251POPC   C4A54738  42.041  20.008   7.336
 4251POPC   C1B54739  42.277  19.384   6.299
 4251POPC   C2B54740  42.283  19.383   6.791
 4251POPC   C3B54741  42.287  19.550   7.214
 4251POPC   C4B54742  42.087  19.548   7.616
 4252POPC   NC354743  24.696  32.859   5.253
 4252POPC   PO454744  24.564  33.526   5.314
 4252POPC   GL154745  24.692  33.285   5.710
 4252POPC   GL254746  24.643  32.908   5.740
 4252POPC   C1A54747  24.457  33.159   6.128
 4252POPC   D2A54748  24.308  33.294   6.527
 4252POPC   C3A54749  24.189  33.031   6.873
 4252POPC   C4A54750  24.233  33.264   7.259
 4252POPC   C1B54751  24.767  32.754   6.134
 4252POPC   C2B54752  24.634  32.892   6.562
 4252POPC   C3B54753  24.679  32.961   7.001
 4252POPC   C4B54754  24.811  32.676   7.322
 4253POPC   NC354755  16.560  44.317   5.188
 4253POPC   PO454756  15.982  44.551   5.374
 4253POPC   GL154757  15.795  44.618   5.792
 4253POPC   GL254758  15.631  44.332   5.787
 4253POPC   C1A54759  15.884  44.721   6.255
 4253POPC   D2A54760  15.587  44.847   6.595
 4253POPC   C3A54761  15.618  44.681   7.029
 4253POPC   C4A54762  15.901  44.406   7.263
 4253POPC   C1B54763  15.819  44.213   6.165
 4253POPC   C2B54764  15.891  44.342   6.584
 4253POPC   C3B54765  15.799  44.077   6.874
 4253POPC   C4B54766  15.757  43.917   7.244
 4254POPC   NC354767  27.577  39.704   5.492
 4254POPC   PO454768  27.952  39.159   5.504
 4254POPC   GL154769  27.611  39.227   5.766
 4254POPC   GL254770  27.747  39.502   5.936
 4254POPC   C1A54771  27.594  39.103   6.218
 4254POPC   D2A54772  27.520  39.234   6.651
 4254POPC   C3A54773  27.516  38.935   7.001
 4254POPC   C4A54774  27.625  39.123   7.389
 4254POPC   C1B54775  27.406  39.579   6.254
 4254POPC   C2B54776  27.345  39.739   6.679
 4254POPC   C3B54777  27.222  39.522   7.093
 4254POPC   C4B54778  27.286  39.482   7.569
 4255POPC   NC354779  28.286  23.985   5.415
 4255POPC   PO454780  28.656  23.436   5.279
 4255POPC   GL154781  28.551  23.691   5.706
 4255POPC   GL254782  28.228  23.738   5.895
 4255POPC   C1A54783  28.657  23.876   6.072
 4255POPC   D2A54784  28.598  23.792   6.496
 4255POPC   C3A54785  28.394  23.671   6.885
 4255POPC   C4A54786  28.510  23.859   7.268
 4255POPC   C1B54787  28.095  23.867   6.305
 4255POPC   C2B54788  28.155  24.102   6.692
 4255POPC   C3B54789  28.034  24.043   7.089
 4255POPC   C4B54790  28.009  23.653   7.281
 4256POPC   NC354791  36.283  20.555   5.521
 4256POPC   PO454792  35.698  20.800   5.689
 4256POPC   GL154793  35.980  20.616   5.926
 4256POPC   GL254794  35.914  20.309   5.822
 4256POPC   C1A54795  36.241  20.422   6.253
 4256POPC   D2A54796  36.417  20.460   6.684
 4256POPC   C3A54797  36.236  20.763   6.949
 4256POPC   C4A54798  36.037  20.754   7.353
 4256POPC   C1B54799  35.734  20.304   6.239
 4256POPC   C2B54800  35.880  20.544   6.616
 4256POPC   C3B54801  35.874  20.390   7.043
 4256POPC   C4B54802  35.765  20.304   7.494
 4257POPC   NC354803   0.851  40.493   5.622
 4257POPC   PO454804   1.148  41.154   5.467
 4257POPC   GL154805   1.060  40.991   5.866
 4257POPC   GL254806   0.827  41.242   5.909
 4257POPC   C1A54807   1.157  40.655   6.222
 4257POPC   D2A54808   0.948  40.492   6.584
 4257POPC   C3A54809   1.217  40.493   6.928
 4257POPC   C4A54810   1.135  40.704   7.290
 4257POPC   C1B54811   0.876  41.056   6.341
 4257POPC   C2B54812   1.205  40.953   6.665
 4257POPC   C3B54813   1.326  41.122   7.082
 4257POPC   C4B54814   1.137  41.310   7.443
 4258POPC   NC354815   4.171   2.736   5.538
 4258POPC   PO454816   4.237   3.390   5.615
 4258POPC   GL154817   4.434   3.058   5.872
 4258POPC   GL254818   4.553   2.664   5.855
 4258POPC   C1A54819   4.343   2.898   6.280
 4258POPC   D2A54820   4.283   2.716   6.699
 4258POPC   C3A54821   4.300   3.028   7.001
 4258POPC   C4A54822   4.327   3.322   7.322
 4258POPC   C1B54823   4.545   2.431   6.252
 4258POPC   C2B54824   4.747   2.484   6.647
 4258POPC   C3B54825   4.559   2.402   7.045
 4258POPC   C4B54826   4.158   2.571   7.202
 4259POPC   NC354827   0.094  37.278   5.503
 4259POPC   PO454828   0.417  37.842   5.319
 4259POPC   GL154829   0.292  37.746   5.758
 4259POPC   GL254830   0.550  37.987   5.872
 4259POPC   C1A54831   0.060  37.561   6.158
 4259POPC   D2A54832  44.946  37.649   6.619
 4259POPC   C3A54833   0.300  37.588   6.932
 4259POPC   C4A54834   0.480  37.388   7.310
 4259POPC   C1B54835   0.652  37.768   6.268
 4259POPC   C2B54836   0.832  37.599   6.668
 4259POPC   C3B54837   0.802  37.747   7.097
 4259POPC   C4B54838   0.472  37.913   7.369
 4260POPC   NC354839  36.933  19.261   5.416
 4260POPC   PO454840  37.174  18.658   5.396
 4260POPC   GL154841  37.150  18.942   5.748
 4260POPC   GL254842  36.759  18.981   5.824
 4260POPC   C1A54843  37.137  19.139   6.137
 4260POPC   D2A54844  36.775  19.082   6.386
 4260POPC   C3A54845  36.862  19.177   6.790
 4260POPC   C4A54846  36.773  18.999   7.161
 4260POPC   C1B54847  36.553  19.364   6.019
 4260POPC   C2B54848  36.501  19.551   6.423
 4260POPC   C3B54849  36.513  19.540   6.878
 4260POPC   C4B54850  36.748  19.486   7.220
 4261POPC   NC354851   9.787  37.654   5.148
 4261POPC   PO454852   9.721  38.054   5.685
 4261POPC   GL154853   9.888  37.713   5.914
 4261POPC   GL254854  10.156  37.859   6.068
 4261POPC   C1A54855   9.781  37.655   6.372
 4261POPC   D2A54856   9.865  37.820   6.797
 4261POPC   C3A54857   9.598  37.760   7.163
 4261POPC   C4A54858   9.613  37.465   7.505
 4261POPC   C1B54859  10.222  37.433   6.273
 4261POPC   C2B54860  10.098  37.362   6.736
 4261POPC   C3B54861  10.058  37.520   7.205
 4261POPC   C4B54862  10.118  37.575   7.678
 4262POPC   NC354863   4.393  33.741   5.107
 4262POPC   PO454864   3.943  33.868   5.610
 4262POPC   GL154865   4.237  33.610   5.860
 4262POPC   GL254866   4.545  33.770   5.822
 4262POPC   C1A54867   4.276  33.491   6.309
 4262POPC   D2A54868   4.248  33.768   6.687
 4262POPC   C3A54869   4.252  33.586   7.062
 4262POPC   C4A54870   4.676  33.595   7.243
 4262POPC   C1B54871   4.382  33.982   6.226
 4262POPC   C2B54872   4.063  34.197   6.498
 4262POPC   C3B54873   4.112  34.244   6.944
 4262POPC   C4B54874   4.396  34.046   7.263
 4263POPC   NC354875  23.431  20.702   5.293
 4263POPC   PO454876  23.930  20.433   4.983
 4263POPC   GL154877  23.869  20.528   5.517
 4263POPC   GL254878  23.788  20.855   5.717
 4263POPC   C1A54879  23.872  20.426   6.018
 4263POPC   D2A54880  23.568  20.492   6.378
 4263POPC   C3A54881  23.490  20.313   6.815
 4263POPC   C4A54882  23.469  20.494   7.241
 4263POPC   C1B54883  23.906  20.906   6.203
 4263POPC   C2B54884  24.046  20.644   6.603
 4263POPC   C3B54885  23.938  20.624   7.074
 4263POPC   C4B54886  23.736  20.934   7.390
 4264POPC   NC354887  17.849  37.758   5.356
 4264POPC   PO454888  17.270  37.448   5.233
 4264POPC   GL154889  17.380  37.653   5.668
 4264POPC   GL254890  17.714  37.659   5.858
 4264POPC   C1A54891  17.250  37.665   6.129
 4264POPC   D2A54892  17.412  37.515   6.534
 4264POPC   C3A54893  17.247  37.644   6.944
 4264POPC   C4A54894  17.547  37.867   7.232
 4264POPC   C1B54895  17.850  38.011   6.174
 4264POPC   C2B54896  18.131  38.000   6.573
 4264POPC   C3B54897  18.020  37.998   7.042
 4264POPC   C4B54898  18.006  37.992   7.519
 4265POPC   NC354899  40.342  38.564   5.490
 4265POPC   PO454900  40.847  38.275   5.692
 4265POPC   GL154901  40.661  38.603   5.919
 4265POPC   GL254902  40.979  38.763   5.943
 4265POPC   C1A54903  40.416  38.610   6.296
 4265POPC   D2A54904  40.466  38.204   6.454
 4265POPC   C3A54905  40.477  38.132   6.877
 4265POPC   C4A54906  40.558  38.476   7.168
 4265POPC   C1B54907  40.938  38.485   6.332
 4265POPC   C2B54908  40.896  38.519   6.775
 4265POPC   C3B54909  40.995  38.719   7.167
 4265POPC   C4B54910  40.948  38.407   7.505
 4266POPC   NC354911  12.730  13.146   5.579
 4266POPC   PO454912  12.787  12.457   5.404
 4266POPC   GL154913  12.690  12.661   5.787
 4266POPC   GL254914  13.040  12.805   5.847
 4266POPC   C1A54915  12.739  12.645   6.233
 4266POPC   D2A54916  13.109  12.638   6.495
 4266POPC   C3A54917  13.000  12.551   6.912
 4266POPC   C4A54918  12.859  12.873   7.208
 4266POPC   C1B54919  12.972  13.105   6.199
 4266POPC   C2B54920  12.726  13.116   6.559
 4266POPC   C3B54921  12.716  13.295   6.960
 4266POPC   C4B54922  13.104  13.358   7.178
 4267POPC   NC354923  15.165  10.557   5.382
 4267POPC   PO454924  15.789  10.559   5.420
 4267POPC   GL154925  15.437  10.497   5.817
 4267POPC   GL254926  15.018  10.523   5.860
 4267POPC   C1A54927  15.302  10.668   6.247
 4267POPC   D2A54928  15.330  10.903   6.629
 4267POPC   C3A54929  15.340  10.652   6.998
 4267POPC   C4A54930  15.200  10.742   7.419
 4267POPC   C1B54931  14.979  10.251   6.256
 4267POPC   C2B54932  14.960  10.435   6.684
 4267POPC   C3B54933  14.950  10.362   7.146
 4267POPC   C4B54934  14.986  10.253   7.583
 4268POPC   NC354935   4.395  25.007   5.534
 4268POPC   PO454936   4.207  24.349   5.444
 4268POPC   GL154937   4.386  24.493   5.864
 4268POPC   GL254938   4.611  24.754   5.915
 4268POPC   C1A54939   4.519  24.420   6.323
 4268POPC   D2A54940   4.424  24.339   6.775
 4268POPC   C3A54941   4.151  24.387   7.140
 4268POPC   C4A54942   4.180  24.108   7.526
 4268POPC   C1B54943   4.294  24.862   6.228
 4268POPC   C2B54944   4.454  24.870   6.634
 4268POPC   C3B54945   4.483  24.779   7.046
 4268POPC   C4B54946   4.209  24.890   7.350
 4269POPC   NC354947  41.985  11.545   5.396
 4269POPC   PO454948  41.453  11.070   5.565
 4269POPC   GL154949  41.505  11.225   5.960
 4269POPC   GL254950  41.530  11.589   5.914
 4269POPC   C1A54951  41.302  11.398   6.336
 4269POPC   D2A54952  41.483  11.581   6.689
 4269POPC   C3A54953  41.525  11.331   7.057
 4269POPC   C4A54954  41.185  11.234   7.326
 4269POPC   C1B54955  41.828  11.574   6.272
 4269POPC   C2B54956  41.998  11.553   6.718
 4269POPC   C3B54957  41.832  11.753   7.102
 4269POPC   C4B54958  42.002  11.730   7.560
 4270POPC   NC354959  13.262  28.127   5.291
 4270POPC   PO454960  12.750  27.596   5.271
 4270POPC   GL154961  12.772  27.531   5.731
 4270POPC   GL254962  13.117  27.437   5.795
 4270POPC   C1A54963  12.711  27.425   6.193
 4270POPC   D2A54964  12.790  27.168   6.584
 4270POPC   C3A54965  12.807  27.406   6.954
 4270POPC   C4A54966  12.465  27.490   7.236
 4270POPC   C1B54967  13.170  27.690   6.170
 4270POPC   C2B54968  13.320  27.885   6.558
 4270POPC   C3B54969  13.199  27.738   6.932
 4270POPC   C4B54970  13.171  27.577   7.311
 4271POPC   NC354971  30.359  34.167   5.321
 4271POPC   PO454972  30.979  33.862   5.292
 4271POPC   GL154973  30.876  33.845   5.731
 4271POPC   GL254974  30.583  33.639   5.781
 4271POPC   C1A54975  30.964  33.712   6.165
 4271POPC   D2A54976  31.092  33.565   6.573
 4271POPC   C3A54977  30.851  33.837   6.819
 4271POPC   C4A54978  30.694  34.033   7.182
 4271POPC   C1B54979  30.501  33.427   6.189
 4271POPC   C2B54980  30.602  33.408   6.627
 4271POPC   C3B54981  30.544  33.538   7.062
 4271POPC   C4B54982  30.950  33.572   7.262
 4272POPC   NC354983  31.391  27.723   5.389
 4272POPC   PO454984  31.787  27.186   5.373
 4272POPC   GL154985  31.686  27.383   5.805
 4272POPC   GL254986  31.574  27.780   5.865
 4272POPC   C1A54987  31.730  27.486   6.256
 4272POPC   D2A54988  31.869  27.598   6.670
 4272POPC   C3A54989  31.678  27.363   7.005
 4272POPC   C4A54990  31.258  27.460   7.167
 4272POPC   C1B54991  31.458  27.985   6.261
 4272POPC   C2B54992  31.222  28.112   6.631
 4272POPC   C3B54993  31.361  28.019   7.033
 4272POPC   C4B54994  31.766  27.877   7.107
 4273POPC   NC354995  34.802  40.463   5.339
 4273POPC   PO454996  34.310  40.770   5.630
 4273POPC   GL154997  34.653  40.723   5.854
 4273POPC   GL254998  34.749  41.050   5.897
 4273POPC   C1A54999  34.544  40.781   6.283
 4273POPC   D2A55000  34.735  40.788   6.649
 4273POPC   C3A55001  34.535  40.573   6.911
 4273POPC   C4A55002  34.577  40.570   7.330
 4273POPC   C1B55003  34.974  41.057   6.280
 4273POPC   C2B55004  34.900  41.255   6.711
 4273POPC   C3B55005  34.676  41.046   7.082
 4273POPC   C4B55006  34.493  41.032   7.518
 4274POPC   NC355007   7.734  19.557   5.498
 4274POPC   PO455008   8.410  19.868   5.360
 4274POPC   GL155009   8.210  19.770   5.805
 4274POPC   GL255010   7.872  19.895   5.879
 4274POPC   C1A55011   8.130  19.748   6.298
 4274POPC   D2A55012   8.305  19.512   6.667
 4274POPC   C3A55013   8.392  19.572   7.111
 4274POPC   C4A55014   8.084  19.538   7.451
 4274POPC   C1B55015   7.640  20.033   6.258
 4274POPC   C2B55016   7.782  20.045   6.683
 4274POPC   C3B55017   8.048  19.954   7.024
 4274POPC   C4B55018   7.947  20.017   7.441
 4275POPC   NC355019  38.872  30.886   5.493
 4275POPC   PO455020  39.327  30.531   5.156
 4275POPC   GL155021  39.244  30.538   5.659
 4275POPC   GL255022  39.185  30.863   5.885
 4275POPC   C1A55023  39.371  30.445   6.121
 4275POPC   D2A55024  39.335  30.273   6.589
 4275POPC   C3A55025  39.358  30.500   7.014
 4275POPC   C4A55026  39.639  30.823   7.178
 4275POPC   C1B55027  39.043  30.805   6.320
 4275POPC   C2B55028  39.295  30.919   6.699
 4275POPC   C3B55029  39.163  30.990   7.102
 4275POPC   C4B55030  38.865  30.651   7.163
 4276POPC   NC355031   9.038  15.056   5.424
 4276POPC   PO455032   9.520  15.535   5.408
 4276POPC   GL155033   9.215  15.396   5.777
 4276POPC   GL255034   9.249  15.024   5.873
 4276POPC   C1A55035   8.995  15.412   6.191
 4276POPC   D2A55036   9.061  15.453   6.652
 4276POPC   C3A55037   8.750  15.530   7.003
 4276POPC   C4A55038   8.847  15.331   7.391
 4276POPC   C1B55039   9.096  14.916   6.237
 4276POPC   C2B55040   8.919  14.946   6.603
 4276POPC   C3B55041   9.012  15.064   6.993
 4276POPC   C4B55042   9.047  14.834   7.366
 4277POPC   NC355043  14.648  41.572   5.496
 4277POPC   PO455044  14.068  41.253   5.528
 4277POPC   GL155045  14.237  41.500   5.888
 4277POPC   GL255046  14.583  41.611   6.002
 4277POPC   C1A55047  14.201  41.491   6.339
 4277POPC   D2A55048  14.411  41.376   6.686
 4277POPC   C3A55049  14.368  41.594   7.046
 4277POPC   C4A55050  14.617  41.627   7.370
 4277POPC   C1B55051  14.713  41.273   6.266
 4277POPC   C2B55052  14.830  41.068   6.659
 4277POPC   C3B55053  14.718  41.227   7.072
 4277POPC   C4B55054  14.404  41.170   7.404
 4278POPC   NC355055  43.224   8.453   5.092
 4278POPC   PO455056  42.676   8.132   5.422
 4278POPC   GL155057  42.877   8.245   5.811
 4278POPC   GL255058  43.004   7.921   5.893
 4278POPC   C1A55059  43.074   8.446   6.206
 4278POPC   D2A55060  43.136   8.645   6.611
 4278POPC   C3A55061  43.275   8.487   6.987
 4278POPC   C4A55062  43.149   8.416   7.408
 4278POPC   C1B55063  43.210   7.964   6.277
 4278POPC   C2B55064  43.341   8.075   6.697
 4278POPC   C3B55065  43.050   8.026   7.073
 4278POPC   C4B55066  43.069   7.780   7.464
 4279POPC   NC355067  34.819  37.509   5.448
 4279POPC   PO455068  34.232  37.496   5.204
 4279POPC   GL155069  34.407  37.696   5.709
 4279POPC   GL255070  34.719  37.799   5.831
 4279POPC   C1A55071  34.415  37.593   6.177
 4279POPC   D2A55072  34.255  37.631   6.596
 4279POPC   C3A55073  34.544  37.454   6.907
 4279POPC   C4A55074  34.322  37.479   7.294
 4279POPC   C1B55075  34.686  38.054   6.177
 4279POPC   C2B55076  34.699  37.834   6.541
 4279POPC   C3B55077  34.614  37.952   6.939
 4279POPC   C4B55078  34.958  38.024   7.147
 4280POPC   NC355079   5.304  40.740   5.130
 4280POPC   PO455080   4.902  40.485   5.613
 4280POPC   GL155081   5.021  40.782   5.878
 4280POPC   GL255082   5.345  40.654   5.837
 4280POPC   C1A55083   4.950  40.829   6.311
 4280POPC   D2A55084   5.220  40.757   6.646
 4280POPC   C3A55085   5.168  40.964   7.023
 4280POPC   C4A55086   5.096  40.934   7.468
 4280POPC   C1B55087   5.217  40.393   6.228
 4280POPC   C2B55088   4.962  40.322   6.622
 4280POPC   C3B55089   5.038  40.439   7.093
 4280POPC   C4B55090   5.368  40.516   7.442
 4281POPC   NC355091  43.103  27.724   5.415
 4281POPC   PO455092  42.521  27.518   5.296
 4281POPC   GL155093  42.813  27.431   5.732
 4281POPC   GL255094  43.209  27.518   5.861
 4281POPC   C1A55095  42.877  27.547   6.225
 4281POPC   D2A55096  43.054  27.950   6.448
 4281POPC   C3A55097  43.066  27.957   6.880
 4281POPC   C4A55098  43.050  27.960   7.357
 4281POPC   C1B55099  43.410  27.646   6.246
 4281POPC   C2B55100  43.269  27.506   6.648
 4281POPC   C3B55101  43.393  27.274   7.017
 4281POPC   C4B55102  43.438  27.599   7.288
 4282POPC   NC355103  39.369  10.984   5.539
 4282POPC   PO455104  38.970  10.439   5.374
 4282POPC   GL155105  39.107  10.593   5.761
 4282POPC   GL255106  38.806  10.730   5.864
 4282POPC   C1A55107  39.360  10.657   6.161
 4282POPC   D2A55108  39.495  10.501   6.571
 4282POPC   C3A55109  39.374  10.670   6.967
 4282POPC   C4A55110  39.438  10.356   7.221
 4282POPC   C1B55111  38.898  10.820   6.295
 4282POPC   C2B55112  38.974  10.601   6.661
 4282POPC   C3B55113  38.865  10.556   7.098
 4282POPC   C4B55114  38.925  10.567   7.561
 4283POPC   NC355115   4.500  40.324   5.456
 4283POPC   PO455116   4.320  39.676   5.524
 4283POPC   GL155117   4.200  39.918   5.897
 4283POPC   GL255118   3.956  40.193   5.763
 4283POPC   C1A55119   4.329  39.972   6.353
 4283POPC   D2A55120   4.445  40.320   6.635
 4283POPC   C3A55121   4.571  40.143   6.999
 4283POPC   C4A55122   4.329  39.781   7.065
 4283POPC   C1B55123   4.085  40.371   6.166
 4283POPC   C2B55124   3.928  40.417   6.568
 4283POPC   C3B55125   4.050  40.228   6.971
 4283POPC   C4B55126   4.153  40.129   7.398
 4284POPC   NC355127  11.225  42.588   5.431
 4284POPC   PO455128  11.157  43.293   5.421
 4284POPC   GL155129  11.067  43.001   5.756
 4284POPC   GL255130  11.427  42.928   5.776
 4284POPC   C1A55131  11.116  43.097   6.223
 4284POPC   D2A55132  11.461  43.250   6.543
 4284POPC   C3A55133  11.332  43.295   6.990
 4284POPC   C4A55134  10.987  43.004   7.130
 4284POPC   C1B55135  11.485  42.748   6.168
 4284POPC   C2B55136  11.307  42.753   6.584
 4284POPC   C3B55137  11.433  42.765   6.996
 4284POPC   C4B55138  11.592  42.985   7.323
 4285POPC   NC355139   2.166  20.154   5.487
 4285POPC   PO455140   1.911  19.489   5.456
 4285POPC   GL155141   2.131  19.677   5.840
 4285POPC   GL255142   2.092  20.050   5.980
 4285POPC   C1A55143   2.012  19.645   6.300
 4285POPC   D2A55144   1.954  19.805   6.723
 4285POPC   C3A55145   1.778  19.552   7.050
 4285POPC   C4A55146   1.980  19.574   7.449
 4285POPC   C1B55147   1.744  20.076   6.306
 4285POPC   C2B55148   1.634  20.221   6.733
 4285POPC   C3B55149   1.753  20.054   7.166
 4285POPC   C4B55150   1.702  19.989   7.623
 4286POPC   NC355151  27.844   9.891   5.418
 4286POPC   PO455152  27.280   9.479   5.554
 4286POPC   GL155153  27.543   9.755   5.827
 4286POPC   GL255154  27.568  10.093   5.815
 4286POPC   C1A55155  27.723   9.690   6.246
 4286POPC   D2A55156  27.900   9.683   6.689
 4286POPC   C3A55157  27.561   9.649   7.050
 4286POPC   C4A55158  27.581   9.846   7.494
 4286POPC   C1B55159  27.363  10.035   6.207
 4286POPC   C2B55160  27.475   9.980   6.628
 4286POPC   C3B55161  27.375  10.247   6.925
 4286POPC   C4B55162  27.360  10.271   7.319
 4287POPC   NC355163  12.080  37.535   5.406
 4287POPC   PO455164  12.067  36.852   5.458
 4287POPC   GL155165  12.058  37.072   5.856
 4287POPC   GL255166  11.707  37.154   5.923
 4287POPC   C1A55167  12.007  37.032   6.349
 4287POPC   D2A55168  11.782  36.775   6.682
 4287POPC   C3A55169  11.952  36.703   7.089
 4287POPC   C4A55170  12.379  36.660   7.176
 4287POPC   C1B55171  11.971  37.491   6.126
 4287POPC   C2B55172  12.029  37.563   6.541
 4287POPC   C3B55173  11.963  37.248   6.863
 4287POPC   C4B55174  11.648  37.108   7.150
 4288POPC   NC355175  18.076  13.442   5.424
 4288POPC   PO455176  18.722  13.704   5.405
 4288POPC   GL155177  18.487  13.665   5.838
 4288POPC   GL255178  18.116  13.672   5.878
 4288POPC   C1A55179  18.376  13.472   6.283
 4288POPC   D2A55180  18.108  13.509   6.691
 4288POPC   C3A55181  18.353  13.600   7.101
 4288POPC   C4A55182  18.268  13.794   7.503
 4288POPC   C1B55183  18.071  13.893   6.254
 4288POPC   C2B55184  17.794  13.983   6.580
 4288POPC   C3B55185  18.024  13.967   6.976
 4288POPC   C4B55186  17.845  14.019   7.365
 4289POPC   NC355187  25.633   9.187   5.303
 4289POPC   PO455188  25.448   8.569   5.491
 4289POPC   GL155189  25.609   8.880   5.721
 4289POPC   GL255190  25.331   9.036   5.850
 4289POPC   C1A55191  25.754   8.866   6.127
 4289POPC   D2A55192  25.772   9.073   6.510
 4289POPC   C3A55193  25.612   8.859   6.837
 4289POPC   C4A55194  25.347   8.875   7.186
 4289POPC   C1B55195  25.291   8.939   6.324
 4289POPC   C2B55196  25.107   9.003   6.756
 4289POPC   C3B55197  24.956   9.208   7.157
 4289POPC   C4B55198  24.593   9.227   7.479
 4290POPC   NC355199  36.990  35.546   5.080
 4290POPC   PO455200  36.858  34.900   5.227
 4290POPC   GL155201  37.016  35.054   5.666
 4290POPC   GL255202  37.024  35.406   5.779
 4290POPC   C1A55203  37.066  35.048   6.130
 4290POPC   D2A55204  37.309  35.290   6.442
 4290POPC   C3A55205  37.248  35.072   6.818
 4290POPC   C4A55206  36.994  35.258   7.098
 4290POPC   C1B55207  36.858  35.642   6.176
 4290POPC   C2B55208  36.812  35.619   6.646
 4290POPC   C3B55209  36.610  35.595   7.077
 4290POPC   C4B55210  36.530  35.212   7.321
 4291POPC   NC355211   6.136  16.332   5.723
 4291POPC   PO455212   5.889  16.943   5.397
 4291POPC   GL155213   5.846  16.770   5.792
 4291POPC   GL255214   5.616  16.482   5.751
 4291POPC   C1A55215   5.960  16.836   6.233
 4291POPC   D2A55216   5.936  16.606   6.608
 4291POPC   C3A55217   5.970  16.864   6.969
 4291POPC   C4A55218   6.267  16.909   7.290
 4291POPC   C1B55219   5.533  16.544   6.193
 4291POPC   C2B55220   5.467  16.387   6.600
 4291POPC   C3B55221   5.637  16.439   6.989
 4291POPC   C4B55222   5.436  16.389   7.342
 4292POPC   NC355223  34.039  39.054   5.612
 4292POPC   PO455224  33.987  39.698   5.645
 4292POPC   GL155225  33.788  39.360   5.949
 4292POPC   GL255226  33.507  39.114   5.875
 4292POPC   C1A55227  33.939  39.332   6.394
 4292POPC   D2A55228  34.253  39.214   6.730
 4292POPC   C3A55229  34.133  39.359   7.127
 4292POPC   C4A55230  33.700  39.492   7.176
 4292POPC   C1B55231  33.634  38.936   6.285
 4292POPC   C2B55232  33.599  39.087   6.726
 4292POPC   C3B55233  33.780  38.966   7.124
 4292POPC   C4B55234  33.629  38.744   7.505
 4293POPC   NC355235  27.927  42.932   5.390
 4293POPC   PO455236  27.414  43.328   5.560
 4293POPC   GL155237  27.644  43.130   5.879
 4293POPC   GL255238  27.656  42.788   5.820
 4293POPC   C1A55239  27.602  43.138   6.336
 4293POPC   D2A55240  27.831  43.261   6.694
 4293POPC   C3A55241  27.643  43.341   7.067
 4293POPC   C4A55242  27.248  43.234   7.113
 4293POPC   C1B55243  27.630  42.620   6.238
 4293POPC   C2B55244  27.559  42.647   6.691
 4293POPC   C3B55245  27.592  42.816   7.108
 4293POPC   C4B55246  27.584  42.617   7.525
 4294POPC   NC355247   2.579  17.785   5.305
 4294POPC   PO455248   1.918  17.978   5.354
 4294POPC   GL155249   2.026  17.739   5.757
 4294POPC   GL255250   2.172  17.379   5.754
 4294POPC   C1A55251   1.797  17.673   6.157
 4294POPC   D2A55252   1.839  17.829   6.573
 4294POPC   C3A55253   1.759  17.648   6.981
 4294POPC   C4A55254   2.060  17.536   7.259
 4294POPC   C1B55255   2.022  17.220   6.196
 4294POPC   C2B55256   2.006  17.286   6.674
 4294POPC   C3B55257   1.825  17.106   7.071
 4294POPC   C4B55258   1.996  17.109   7.526
 4295POPC   NC355259   1.404  27.401   5.428
 4295POPC   PO455260   1.214  28.048   5.366
 4295POPC   GL155261   1.124  27.716   5.725
 4295POPC   GL255262   0.939  27.414   5.628
 4295POPC   C1A55263   1.287  27.490   6.116
 4295POPC   D2A55264   1.553  27.393   6.519
 4295POPC   C3A55265   1.408  27.585   6.931
 4295POPC   C4A55266   1.018  27.805   7.097
 4295POPC   C1B55267   0.844  27.196   5.953
 4295POPC   C2B55268   0.914  27.195   6.378
 4295POPC   C3B55269   0.908  27.145   6.810
 4295POPC   C4B55270   1.027  27.311   7.174
 4296POPC   NC355271  32.537  40.611   5.489
 4296POPC   PO455272  32.192  41.123   5.327
 4296POPC   GL155273  32.095  41.094   5.749
 4296POPC   GL255274  31.750  41.074   5.697
 4296POPC   C1A55275  32.272  41.046   6.184
 4296POPC   D2A55276  32.194  40.789   6.564
 4296POPC   C3A55277  32.427  40.733   6.951
 4296POPC   C4A55278  32.544  40.349   7.169
 4296POPC   C1B55279  31.779  41.245   6.132
 4296POPC   C2B55280  32.015  41.324   6.531
 4296POPC   C3B55281  31.982  41.101   6.905
 4296POPC   C4B55282  32.178  41.043   7.300
 4297POPC   NC355283  10.674  10.123   5.456
 4297POPC   PO455284  10.405  10.807   5.385
 4297POPC   GL155285  10.432  10.508   5.706
 4297POPC   GL255286  10.751  10.571   5.733
 4297POPC   C1A55287  10.330  10.331   6.118
 4297POPC   D2A55288  10.333  10.599   6.499
 4297POPC   C3A55289  10.264  10.531   6.917
 4297POPC   C4A55290  10.499  10.315   7.231
 4297POPC   C1B55291  10.670  10.724   6.133
 4297POPC   C2B55292  10.859  10.745   6.519
 4297POPC   C3B55293  10.768  10.640   6.939
 4297POPC   C4B55294  10.507  10.848   7.270
 4298POPC   NC355295  41.480  14.210   5.281
 4298POPC   PO455296  41.464  13.530   5.301
 4298POPC   GL155297  41.446  13.522   5.823
 4298POPC   GL255298  41.700  13.709   5.998
 4298POPC   C1A55299  41.232  13.690   6.208
 4298POPC   D2A55300  41.489  13.781   6.558
 4298POPC   C3A55301  41.404  13.693   6.948
 4298POPC   C4A55302  41.638  13.618   7.301
 4298POPC   C1B55303  41.791  13.384   6.260
 4298POPC   C2B55304  41.844  13.362   6.683
 4298POPC   C3B55305  42.109  13.321   7.030
 4298POPC   C4B55306  42.059  13.433   7.472
 4299POPC   NC355307   2.119  32.687   5.494
 4299POPC   PO455308   1.930  32.020   5.483
 4299POPC   GL155309   2.103  32.273   5.793
 4299POPC   GL255310   2.449  32.185   5.759
 4299POPC   C1A55311   1.911  32.525   6.134
 4299POPC   D2A55312   1.634  32.526   6.505
 4299POPC   C3A55313   1.806  32.330   6.856
 4299POPC   C4A55314   1.939  32.479   7.253
 4299POPC   C1B55315   2.482  32.242   6.189
 4299POPC   C2B55316   2.228  32.365   6.517
 4299POPC   C3B55317   2.295  32.532   6.887
 4299POPC   C4B55318   2.468  32.466   7.259
 4300POPC   NC355319  34.182   8.174   5.580
 4300POPC   PO455320  33.476   8.097   5.643
 4300POPC   GL155321  33.765   8.141   5.904
 4300POPC   GL255322  33.909   7.811   5.874
 4300POPC   C1A55323  33.642   8.328   6.298
 4300POPC   D2A55324  33.411   8.307   6.699
 4300POPC   C3A55325  33.744   8.434   6.957
 4300POPC   C4A55326  34.119   8.411   7.137
 4300POPC   C1B55327  33.604   7.811   6.248
 4300POPC   C2B55328  33.466   7.802   6.664
 4300POPC   C3B55329  33.600   7.949   7.063
 4300POPC   C4B55330  33.813   8.106   7.438
 4301POPC   NC355331  14.275  20.289   5.560
 4301POPC   PO455332  14.197  20.967   5.519
 4301POPC   GL155333  14.449  20.708   5.877
 4301POPC   GL255334  14.371  20.377   6.052
 4301POPC   C1A55335  14.536  20.754   6.348
 4301POPC   D2A55336  14.244  20.797   6.710
 4301POPC   C3A55337  14.364  20.967   7.122
 4301POPC   C4A55338  14.204  21.069   7.541
 4301POPC   C1B55339  14.088  20.409   6.387
 4301POPC   C2B55340  14.130  20.323   6.854
 4301POPC   C3B55341  14.490  20.442   7.074
 4301POPC   C4B55342  14.730  20.192   7.370
 4302POPC   NC355343  33.898   9.060   5.267
 4302POPC   PO455344  33.295   8.862   5.350
 4302POPC   GL155345  33.594   8.851   5.705
 4302POPC   GL255346  33.498   8.571   5.838
 4302POPC   C1A55347  33.829   8.824   6.138
 4302POPC   D2A55348  33.858   9.132   6.488
 4302POPC   C3A55349  33.883   8.939   6.885
 4302POPC   C4A55350  34.045   9.097   7.250
 4302POPC   C1B55351  33.309   8.687   6.184
 4302POPC   C2B55352  33.490   8.778   6.555
 4302POPC   C3B55353  33.364   8.772   6.964
 4302POPC   C4B55354  33.612   8.799   7.305
 4303POPC   NC355355  22.463   2.344   5.482
 4303POPC   PO455356  22.175   2.940   5.190
 4303POPC   GL155357  22.323   2.957   5.640
 4303POPC   GL255358  22.039   2.758   5.800
 4303POPC   C1A55359  22.401   2.970   6.104
 4303POPC   D2A55360  22.395   2.632   6.435
 4303POPC   C3A55361  22.369   2.729   6.870
 4303POPC   C4A55362  22.108   2.642   7.217
 4303POPC   C1B55363  21.936   2.829   6.256
 4303POPC   C2B55364  21.886   2.724   6.696
 4303POPC   C3B55365  21.663   2.902   7.046
 4303POPC   C4B55366  21.717   2.890   7.486
 4304POPC   NC355367  42.585  34.581   5.665
 4304POPC   PO455368  43.176  34.698   5.334
 4304POPC   GL155369  43.206  34.414   5.730
 4304POPC   GL255370  43.030  34.670   5.883
 4304POPC   C1A55371  43.176  34.357   6.215
 4304POPC   D2A55372  43.101  34.706   6.496
 4304POPC   C3A55373  43.172  34.529   6.871
 4304POPC   C4A55374  43.240  34.677   7.248
 4304POPC   C1B55375  42.762  34.956   6.164
 4304POPC   C2B55376  42.599  34.868   6.570
 4304POPC   C3B55377  42.801  34.894   6.968
 4304POPC   C4B55378  42.788  34.846   7.401
 4305POPC   NC355379  40.680  12.782   5.497
 4305POPC   PO455380  41.062  13.251   5.651
 4305POPC   GL155381  40.952  12.854   5.927
 4305POPC   GL255382  40.610  12.626   5.966
 4305POPC   C1A55383  41.044  12.772   6.353
 4305POPC   D2A55384  40.903  13.027   6.712
 4305POPC   C3A55385  41.102  12.852   7.084
 4305POPC   C4A55386  41.220  12.404   7.137
 4305POPC   C1B55387  40.545  12.879   6.317
 4305POPC   C2B55388  40.508  12.708   6.735
 4305POPC   C3B55389  40.632  12.660   7.175
 4305POPC   C4B55390  40.533  12.726   7.653
 4306POPC   NC355391   6.547  28.981   5.534
 4306POPC   PO455392   6.316  29.611   5.475
 4306POPC   GL155393   6.407  29.348   5.883
 4306POPC   GL255394   6.403  28.977   6.023
 4306POPC   C1A55395   6.626  29.368   6.310
 4306POPC   D2A55396   6.923  29.257   6.651
 4306POPC   C3A55397   6.721  29.132   7.040
 4306POPC   C4A55398   6.260  29.108   7.184
 4306POPC   C1B55399   6.832  28.885   6.232
 4306POPC   C2B55400   7.080  28.756   6.596
 4306POPC   C3B55401   6.944  28.674   7.029
 4306POPC   C4B55402   7.084  28.716   7.459
 4307POPC   NC355403  10.847  24.374   5.346
 4307POPC   PO455404  10.123  24.278   5.228
 4307POPC   GL155405  10.461  24.529   5.609
 4307POPC   GL255406  10.580  24.261   5.793
 4307POPC   C1A55407  10.509  24.645   6.101
 4307POPC   D2A55408  10.278  24.554   6.529
 4307POPC   C3A55409  10.367  24.454   6.982
 4307POPC   C4A55410  10.670  24.444   7.349
 4307POPC   C1B55411  10.545  24.145   6.231
 4307POPC   C2B55412  10.710  24.293   6.631
 4307POPC   C3B55413  10.719  24.076   7.024
 4307POPC   C4B55414  10.697  23.932   7.471
 4308POPC   NC355415  26.526   2.985   5.288
 4308POPC   PO455416  27.131   2.697   5.397
 4308POPC   GL155417  26.966   2.861   5.771
 4308POPC   GL255418  26.620   2.798   5.769
 4308POPC   C1A55419  26.842   3.037   6.175
 4308POPC   D2A55420  26.512   3.035   6.486
 4308POPC   C3A55421  26.666   3.018   6.909
 4308POPC   C4A55422  26.515   2.893   7.302
 4308POPC   C1B55423  26.606   2.576   6.187
 4308POPC   C2B55424  26.700   2.566   6.633
 4308POPC   C3B55425  26.710   2.486   7.069
 4308POPC   C4B55426  26.486   2.406   7.476
 4309POPC   NC355427   6.316  44.599   5.489
 4309POPC   PO455428   6.988  44.323   5.415
 4309POPC   GL155429   6.770  44.530   5.805
 4309POPC   GL255430   6.454  44.350   5.896
 4309POPC   C1A55431   6.783  44.773   6.210
 4309POPC   D2A55432   6.560  44.672   6.586
 4309POPC   C3A55433   6.725  44.701   7.006
 4309POPC   C4A55434   6.476  44.745   7.395
 4309POPC   C1B55435   6.154  44.232   6.203
 4309POPC   C2B55436   6.081  44.431   6.599
 4309POPC   C3B55437   6.329  44.378   6.960
 4309POPC   C4B55438   6.241  44.176   7.288
 4310POPC   NC355439  24.263  19.503   5.521
 4310POPC   PO455440  24.731  20.039   5.337
 4310POPC   GL155441  24.531  19.923   5.757
 4310POPC   GL255442  24.621  19.570   5.908
 4310POPC   C1A55443  24.398  19.898   6.215
 4310POPC   D2A55444  24.430  19.681   6.635
 4310POPC   C3A55445  24.453  19.822   7.055
 4310POPC   C4A55446  24.766  19.776   7.408
 4310POPC   C1B55447  24.235  19.430   6.208
 4310POPC   C2B55448  23.997  19.454   6.660
 4310POPC   C3B55449  24.191  19.389   7.091
 4310POPC   C4B55450  24.548  19.330   7.415
 4311POPC   NC355451  38.337   2.251   5.309
 4311POPC   PO455452  38.678   1.680   5.477
 4311POPC   GL155453  38.598   2.062   5.728
 4311POPC   GL255454  38.826   2.335   5.614
 4311POPC   C1A55455  38.413   2.121   6.172
 4311POPC   D2A55456  38.507   1.904   6.570
 4311POPC   C3A55457  38.368   2.032   6.972
 4311POPC   C4A55458  38.356   1.670   7.259
 4311POPC   C1B55459  38.853   2.351   6.077
 4311POPC   C2B55460  38.747   2.364   6.546
 4311POPC   C3B55461  38.868   2.273   6.986
 4311POPC   C4B55462  38.634   2.249   7.351
 4312POPC   NC355463  35.681  20.456   5.376
 4312POPC   PO455464  35.061  20.688   5.377
 4312POPC   GL155465  35.238  20.458   5.747
 4312POPC   GL255466  35.257  20.746   5.942
 4312POPC   C1A55467  35.204  20.316   6.214
 4312POPC   D2A55468  35.388  20.406   6.628
 4312POPC   C3A55469  35.224  20.709   6.891
 4312POPC   C4A55470  35.023  20.383   7.095
 4312POPC   C1B55471  35.523  20.769   6.295
 4312POPC   C2B55472  35.735  21.043   6.548
 4312POPC   C3B55473  35.720  20.902   6.961
 4312POPC   C4B55474  35.530  20.707   7.306
 4313POPC   NC355475   2.750  18.725   5.372
 4313POPC   PO455476   3.039  18.197   5.152
 4313POPC   GL155477   3.092  18.404   5.647
 4313POPC   GL255478   2.795  18.579   5.842
 4313POPC   C1A55479   3.034  18.226   6.119
 4313POPC   D2A55480   2.695  17.981   6.356
 4313POPC   C3A55481   2.692  18.001   6.809
 4313POPC   C4A55482   2.594  18.089   7.235
 4313POPC   C1B55483   2.588  18.468   6.224
 4313POPC   C2B55484   2.793  18.449   6.571
 4313POPC   C3B55485   2.781  18.473   6.972
 4313POPC   C4B55486   3.062  18.695   7.177
 4314POPC   NC355487  42.658  10.817   5.528
 4314POPC   PO455488  42.471  11.458   5.280
 4314POPC   GL155489  42.364  11.320   5.724
 4314POPC   GL255490  42.600  11.099   5.929
 4314POPC   C1A55491  42.345  11.464   6.176
 4314POPC   D2A55492  42.500  11.609   6.583
 4314POPC   C3A55493  42.456  11.404   6.959
 4314POPC   C4A55494  42.112  11.351   7.214
 4314POPC   C1B55495  42.480  10.958   6.343
 4314POPC   C2B55496  42.138  11.055   6.652
 4314POPC   C3B55497  41.914  10.914   7.031
 4314POPC   C4B55498  42.188  10.839   7.349
 4315POPC   NC355499  14.061  29.401   5.648
 4315POPC   PO455500  14.536  28.889   5.624
 4315POPC   GL155501  14.438  29.175   5.925
 4315POPC   GL255502  14.526  29.536   5.846
 4315POPC   C1A55503  14.539  29.191   6.357
 4315POPC   D2A55504  14.602  29.214   6.788
 4315POPC   C3A55505  14.324  29.067   7.138
 4315POPC   C4A55506  14.513  28.993   7.583
 4315POPC   C1B55507  14.238  29.579   6.225
 4315POPC   C2B55508  14.254  29.572   6.662
 4315POPC   C3B55509  14.439  29.614   7.060
 4315POPC   C4B55510  14.371  29.449   7.454
 4316POPC   NC355511   9.289  25.071   5.578
 4316POPC   PO455512   8.896  25.595   5.510
 4316POPC   GL155513   8.954  25.367   5.844
 4316POPC   GL255514   8.797  25.062   5.733
 4316POPC   C1A55515   9.215  25.385   6.200
 4316POPC   D2A55516   9.028  25.294   6.572
 4316POPC   C3A55517   9.180  25.488   6.952
 4316POPC   C4A55518   9.113  25.645   7.378
 4316POPC   C1B55519   8.916  24.947   6.156
 4316POPC   C2B55520   8.807  24.811   6.558
 4316POPC   C3B55521   8.953  24.944   6.927
 4316POPC   C4B55522   9.044  25.119   7.293
 4317POPC   NC355523   2.376  16.985   5.419
 4317POPC   PO455524   2.642  16.411   5.191
 4317POPC   GL155525   2.714  16.596   5.676
 4317POPC   GL255526   2.781  16.967   5.754
 4317POPC   C1A55527   2.693  16.671   6.171
 4317POPC   D2A55528   2.858  16.788   6.599
 4317POPC   C3A55529   2.673  16.637   6.992
 4317POPC   C4A55530   2.820  16.496   7.384
 4317POPC   C1B55531   2.545  17.193   6.076
 4317POPC   C2B55532   2.483  17.200   6.499
 4317POPC   C3B55533   2.631  17.149   6.928
 4317POPC   C4B55534   2.465  17.222   7.348
 4318POPC   NC355535   3.898  17.314   5.394
 4318POPC   PO455536   3.397  17.717   5.259
 4318POPC   GL155537   3.363  17.489   5.684
 4318POPC   GL255538   3.702  17.522   5.830
 4318POPC   C1A55539   3.359  17.300   6.137
 4318POPC   D2A55540   3.474  17.435   6.569
 4318POPC   C3A55541   3.404  17.248   6.990
 4318POPC   C4A55542   3.407  17.623   7.269
 4318POPC   C1B55543   3.897  17.232   6.142
 4318POPC   C2B55544   3.864  17.108   6.591
 4318POPC   C3B55545   3.979  17.198   7.029
 4318POPC   C4B55546   3.771  17.321   7.432
 4319POPC   NC355547  17.188  16.061   5.434
 4319POPC   PO455548  17.676  15.556   5.464
 4319POPC   GL155549  17.412  15.729   5.779
 4319POPC   GL255550  17.639  15.996   5.877
 4319POPC   C1A55551  17.393  15.719   6.234
 4319POPC   D2A55552  17.573  15.948   6.608
 4319POPC   C3A55553  17.341  15.782   6.944
 4319POPC   C4A55554  17.213  15.914   7.354
 4319POPC   C1B55555  17.891  16.181   6.247
 4319POPC   C2B55556  17.823  16.499   6.578
 4319POPC   C3B55557  17.831  16.409   6.998
 4319POPC   C4B55558  17.787  15.964   7.139
 4320POPC   NC355559  21.616   0.979   5.508
 4320POPC   PO455560  21.596   0.320   5.496
 4320POPC   GL155561  21.423   0.592   5.828
 4320POPC   GL255562  21.079   0.720   5.842
 4320POPC   C1A55563  21.479   0.560   6.266
 4320POPC   D2A55564  21.354   0.638   6.676
 4320POPC   C3A55565  21.580   0.496   7.025
 4320POPC   C4A55566  21.577   0.135   7.229
 4320POPC   C1B55567  21.058   0.309   6.102
 4320POPC   C2B55568  21.147   0.164   6.543
 4320POPC   C3B55569  21.107   0.259   6.997
 4320POPC   C4B55570  21.069   0.047   7.408
 4321POPC   NC355571  26.422  40.702   5.737
 4321POPC   PO455572  25.946  41.075   5.433
 4321POPC   GL155573  25.952  40.915   5.883
 4321POPC   GL255574  25.876  40.548   5.942
 4321POPC   C1A55575  26.064  40.981   6.345
 4321POPC   D2A55576  25.826  41.073   6.734
 4321POPC   C3A55577  25.966  40.881   7.102
 4321POPC   C4A55578  26.389  40.857   7.278
 4321POPC   C1B55579  26.188  40.474   6.307
 4321POPC   C2B55580  26.296  40.629   6.736
 4321POPC   C3B55581  26.200  40.412   7.126
 4321POPC   C4B55582  25.885  40.490   7.485
 4322POPC   NC355583   4.839  22.174   5.584
 4322POPC   PO455584   4.325  21.826   5.269
 4322POPC   GL155585   4.350  22.017   5.720
 4322POPC   GL255586   4.040  22.138   5.903
 4322POPC   C1A55587   4.502  21.985   6.168
 4322POPC   D2A55588   4.385  22.071   6.600
 4322POPC   C3A55589   4.479  21.799   6.952
 4322POPC   C4A55590   4.396  21.870   7.378
 4322POPC   C1B55591   4.169  22.399   6.233
 4322POPC   C2B55592   4.018  22.491   6.655
 4322POPC   C3B55593   4.141  22.229   7.024
 4322POPC   C4B55594   4.302  22.361   7.421
 4323POPC   NC355595  40.328  12.248   5.408
 4323POPC   PO455596  39.734  12.162   5.425
 4323POPC   GL155597  39.990  11.978   5.764
 4323POPC   GL255598  40.157  12.274   5.898
 4323POPC   C1A55599  39.905  11.863   6.213
 4323POPC   D2A55600  40.019  12.118   6.604
 4323POPC   C3A55601  39.941  11.968   7.042
 4323POPC   C4A55602  39.757  11.600   7.263
 4323POPC   C1B55603  40.117  12.597   6.197
 4323POPC   C2B55604  40.003  12.653   6.598
 4323POPC   C3B55605  40.126  12.475   6.996
 4323POPC   C4B55606  40.080  12.401   7.419
 4324POPC   NC355607   5.689  17.997   5.415
 4324POPC   PO455608   5.794  18.591   5.393
 4324POPC   GL155609   5.698  18.389   5.808
 4324POPC   GL255610   5.950  18.132   5.858
 4324POPC   C1A55611   5.807  18.471   6.269
 4324POPC   D2A55612   5.758  18.260   6.674
 4324POPC   C3A55613   5.777  18.381   7.109
 4324POPC   C4A55614   5.614  18.047   7.313
 4324POPC   C1B55615   6.259  18.166   6.198
 4324POPC   C2B55616   6.263  18.316   6.582
 4324POPC   C3B55617   6.215  18.172   6.958
 4324POPC   C4B55618   6.181  18.165   7.373
 4325POPC   NC355619  10.322  16.707   5.313
 4325POPC   PO455620  10.878  17.005   5.293
 4325POPC   GL155621  10.647  16.898   5.699
 4325POPC   GL255622  10.584  16.521   5.728
 4325POPC   C1A55623  10.677  16.921   6.177
 4325POPC   D2A55624  10.406  16.823   6.549
 4325POPC   C3A55625  10.384  17.030   6.948
 4325POPC   C4A55626  10.223  16.854   7.344
 4325POPC   C1B55627  10.751  16.412   6.150
 4325POPC   C2B55628  10.893  16.603   6.550
 4325POPC   C3B55629  10.758  16.666   6.977
 4325POPC   C4B55630  10.589  16.493   7.357
 4326POPC   NC355631  21.484   6.505   5.428
 4326POPC   PO455632  21.654   7.152   5.593
 4326POPC   GL155633  21.477   6.850   5.888
 4326POPC   GL255634  21.449   6.472   5.924
 4326POPC   C1A55635  21.640   6.730   6.308
 4326POPC   D2A55636  21.710   6.661   6.732
 4326POPC   C3A55637  21.326   6.680   6.972
 4326POPC   C4A55638  21.581   6.714   7.306
 4326POPC   C1B55639  21.585   6.176   6.213
 4326POPC   C2B55640  21.746   6.172   6.617
 4326POPC   C3B55641  21.611   6.259   7.031
 4326POPC   C4B55642  21.366   6.246   7.375
 4327POPC   NC355643  12.959  29.753   5.356
 4327POPC   PO455644  12.619  30.243   5.537
 4327POPC   GL155645  12.745  29.928   5.807
 4327POPC   GL255646  13.093  29.950   5.825
 4327POPC   C1A55647  12.658  29.853   6.239
 4327POPC   D2A55648  12.776  30.110   6.614
 4327POPC   C3A55649  12.669  29.996   7.046
 4327POPC   C4A55650  12.589  29.864   7.483
 4327POPC   C1B55651  13.224  29.601   6.127
 4327POPC   C2B55652  13.378  29.383   6.565
 4327POPC   C3B55653  13.421  29.572   7.006
 4327POPC   C4B55654  13.150  29.890   7.228
 4328POPC   NC355655  35.549  28.583   5.071
 4328POPC   PO455656  35.887  28.059   5.387
 4328POPC   GL155657  35.941  28.346   5.788
 4328POPC   GL255658  36.266  28.567   5.881
 4328POPC   C1A55659  35.958  28.401   6.254
 4328POPC   D2A55660  36.138  28.190   6.617
 4328POPC   C3A55661  35.940  28.405   6.960
 4328POPC   C4A55662  35.627  28.679   7.118
 4328POPC   C1B55663  36.453  28.602   6.333
 4328POPC   C2B55664  36.425  28.565   6.807
 4328POPC   C3B55665  36.388  28.189   7.139
 4328POPC   C4B55666  36.454  28.242   7.635
 4329POPC   NC355667  43.112  38.722   5.512
 4329POPC   PO455668  43.515  38.192   5.723
 4329POPC   GL155669  43.118  38.387   5.927
 4329POPC   GL255670  42.983  38.740   5.977
 4329POPC   C1A55671  42.863  38.407   6.314
 4329POPC   D2A55672  42.849  38.327   6.733
 4329POPC   C3A55673  43.255  38.321   6.850
 4329POPC   C4A55674  43.448  38.562   7.179
 4329POPC   C1B55675  43.303  38.787   6.242
 4329POPC   C2B55676  43.101  38.776   6.604
 4329POPC   C3B55677  43.117  38.894   6.981
 4329POPC   C4B55678  42.967  38.721   7.346
 4330POPC   NC355679  42.733  42.179   5.261
 4330POPC   PO455680  43.156  42.053   5.831
 4330POPC   GL155681  43.144  42.440   5.937
 4330POPC   GL255682  42.825  42.459   5.759
 4330POPC   C1A55683  43.373  42.574   6.305
 4330POPC   D2A55684  43.706  42.475   6.635
 4330POPC   C3A55685  43.580  42.413   7.101
 4330POPC   C4A55686  43.218  42.294   7.384
 4330POPC   C1B55687  42.724  42.461   6.230
 4330POPC   C2B55688  42.812  42.250   6.667
 4330POPC   C3B55689  42.819  42.497   7.083
 4330POPC   C4B55690  42.589  42.477   7.499
 4331POPC   NC355691  44.353  39.879   5.329
 4331POPC   PO455692  44.855  40.279   5.190
 4331POPC   GL155693  44.779  40.022   5.651
 4331POPC   GL255694  44.554  39.769   5.791
 4331POPC   C1A55695  44.844  40.075   6.146
 4331POPC   D2A55696   0.092  40.114   6.555
 4331POPC   C3A55697  44.839  40.155   6.954
 4331POPC   C4A55698  44.594  40.406   7.260
 4331POPC   C1B55699  44.685  39.601   6.203
 4331POPC   C2B55700  44.720  39.772   6.609
 4331POPC   C3B55701  44.604  39.679   7.011
 4331POPC   C4B55702  44.337  39.816   7.338
 4332POPC   NC355703  17.203  12.026   5.663
 4332POPC   PO455704  16.564  12.209   5.423
 4332POPC   GL155705  16.732  12.179   5.834
 4332POPC   GL255706  16.760  11.818   5.867
 4332POPC   C1A55707  16.868  12.406   6.225
 4332POPC   D2A55708  16.959  12.337   6.658
 4332POPC   C3A55709  16.730  12.037   6.854
 4332POPC   C4A55710  16.773  12.050   7.291
 4332POPC   C1B55711  16.904  11.878   6.289
 4332POPC   C2B55712  17.112  11.721   6.642
 4332POPC   C3B55713  16.943  11.629   7.067
 4332POPC   C4B55714  17.137  11.757   7.463
 4333POPC   NC355715  33.437   9.918   5.470
 4333POPC   PO455716  34.052   9.514   5.311
 4333POPC   GL155717  34.025   9.689   5.772
 4333POPC   GL255718  34.217   9.944   5.954
 4333POPC   C1A55719  34.041   9.558   6.244
 4333POPC   D2A55720  34.132   9.746   6.680
 4333POPC   C3A55721  33.877   9.548   7.010
 4333POPC   C4A55722  33.468   9.714   7.163
 4333POPC   C1B55723  33.839  10.014   6.240
 4333POPC   C2B55724  33.596  10.135   6.602
 4333POPC   C3B55725  33.789  10.091   6.982
 4333POPC   C4B55726  34.129   9.930   7.213
 4334POPC   NC355727  39.674  20.432   5.387
 4334POPC   PO455728  40.287  20.592   5.137
 4334POPC   GL155729  40.174  20.553   5.637
 4334POPC   GL255730  39.924  20.818   5.742
 4334POPC   C1A55731  40.032  20.508   6.126
 4334POPC   D2A55732  39.741  20.516   6.529
 4334POPC   C3A55733  39.916  20.511   6.971
 4334POPC   C4A55734  40.133  20.778   7.271
 4334POPC   C1B55735  39.736  20.932   6.171
 4334POPC   C2B55736  39.720  21.023   6.626
 4334POPC   C3B55737  39.604  20.911   7.029
 4334POPC   C4B55738  39.698  21.018   7.417
 4335POPC   NC355739  42.884  25.007   5.401
 4335POPC   PO455740  43.372  25.399   5.091
 4335POPC   GL155741  43.307  25.323   5.587
 4335POPC   GL255742  43.604  25.414   5.765
 4335POPC   C1A55743  43.116  25.232   6.060
 4335POPC   D2A55744  42.871  25.219   6.495
 4335POPC   C3A55745  43.009  25.181   6.957
 4335POPC   C4A55746  42.925  25.224   7.426
 4335POPC   C1B55747  43.616  25.204   6.170
 4335POPC   C2B55748  43.401  25.225   6.573
 4335POPC   C3B55749  43.498  25.030   6.959
 4335POPC   C4B55750  43.436  25.223   7.360
 4336POPC   NC355751  34.523  16.831   5.199
 4336POPC   PO455752  33.902  16.868   5.460
 4336POPC   GL155753  34.322  16.695   5.679
 4336POPC   GL255754  34.693  16.823   5.687
 4336POPC   C1A55755  34.441  16.612   6.133
 4336POPC   D2A55756  34.472  16.899   6.522
 4336POPC   C3A55757  34.373  16.750   6.951
 4336POPC   C4A55758  34.451  17.001   7.310
 4336POPC   C1B55759  34.820  16.946   6.106
 4336POPC   C2B55760  34.923  16.685   6.442
 4336POPC   C3B55761  34.902  16.786   6.878
 4336POPC   C4B55762  34.770  16.537   7.211
 4337POPC   NC355763  29.319  15.494   5.603
 4337POPC   PO455764  28.856  16.013   5.362
 4337POPC   GL155765  29.055  15.935   5.760
 4337POPC   GL255766  29.424  16.003   5.732
 4337POPC   C1A55767  28.947  15.798   6.199
 4337POPC   D2A55768  28.741  15.799   6.637
 4337POPC   C3A55769  29.073  15.630   6.923
 4337POPC   C4A55770  29.524  15.719   7.012
 4337POPC   C1B55771  29.331  16.137   6.174
 4337POPC   C2B55772  29.175  16.064   6.601
 4337POPC   C3B55773  29.202  16.121   7.041
 4337POPC   C4B55774  29.572  16.219   7.291
 4338POPC   NC355775  39.128   3.768   5.473
 4338POPC   PO455776  39.438   3.104   5.444
 4338POPC   GL155777  39.185   3.340   5.810
 4338POPC   GL255778  39.311   3.698   5.980
 4338POPC   C1A55779  39.095   3.389   6.295
 4338POPC   D2A55780  39.396   3.697   6.525
 4338POPC   C3A55781  39.257   4.056   6.781
 4338POPC   C4A55782  39.131   3.815   7.135
 4338POPC   C1B55783  39.595   3.368   6.159
 4338POPC   C2B55784  39.729   3.267   6.587
 4338POPC   C3B55785  39.681   3.459   6.994
 4338POPC   C4B55786  39.630   3.337   7.409
 4339POPC   NC355787  44.023   7.168   5.720
 4339POPC   PO455788  44.177   6.558   5.392
 4339POPC   GL155789  43.883   6.638   5.739
 4339POPC   GL255790  43.591   6.437   5.713
 4339POPC   C1A55791  43.744   6.755   6.149
 4339POPC   D2A55792  43.692   6.814   6.567
 4339POPC   C3A55793  44.018   6.699   6.827
 4339POPC   C4A55794  44.038   6.773   7.230
 4339POPC   C1B55795  43.615   6.260   6.153
 4339POPC   C2B55796  43.754   6.285   6.617
 4339POPC   C3B55797  43.666   6.419   7.084
 4339POPC   C4B55798  43.513   6.372   7.558
 4340POPC   NC355799  15.536  34.352   5.438
 4340POPC   PO455800  15.008  34.698   5.212
 4340POPC   GL155801  15.039  34.581   5.703
 4340POPC   GL255802  15.256  34.300   5.854
 4340POPC   C1A55803  15.087  34.724   6.176
 4340POPC   D2A55804  14.877  34.852   6.603
 4340POPC   C3A55805  15.036  34.721   7.034
 4340POPC   C4A55806  15.463  34.582   7.192
 4340POPC   C1B55807  15.089  34.211   6.266
 4340POPC   C2B55808  14.957  34.339   6.683
 4340POPC   C3B55809  14.829  34.251   7.138
 4340POPC   C4B55810  14.882  34.494   7.583
 4341POPC   NC355811  20.035  41.990   5.449
 4341POPC   PO455812  19.779  41.273   5.385
 4341POPC   GL155813  19.878  41.543   5.688
 4341POPC   GL255814  19.603  41.722   5.776
 4341POPC   C1A55815  19.841  41.435   6.131
 4341POPC   D2A55816  19.633  41.374   6.511
 4341POPC   C3A55817  19.904  41.387   6.862
 4341POPC   C4A55818  20.073  41.174   7.214
 4341POPC   C1B55819  19.790  41.953   6.134
 4341POPC   C2B55820  19.888  41.849   6.569
 4341POPC   C3B55821  19.735  41.858   7.002
 4341POPC   C4B55822  19.676  41.518   7.299
 4342POPC   NC355823  22.662  37.847   5.554
 4342POPC   PO455824  23.102  37.431   5.351
 4342POPC   GL155825  22.999  37.525   5.807
 4342POPC   GL255826  22.662  37.437   5.906
 4342POPC   C1A55827  23.121  37.564   6.267
 4342POPC   D2A55828  23.008  37.409   6.713
 4342POPC   C3A55829  23.166  37.716   7.034
 4342POPC   C4A55830  23.166  37.671   7.506
 4342POPC   C1B55831  22.652  37.767   6.254
 4342POPC   C2B55832  22.801  37.866   6.683
 4342POPC   C3B55833  22.675  37.733   7.136
 4342POPC   C4B55834  22.666  37.817   7.583
 4343POPC   NC355835  11.563   3.821   5.366
 4343POPC   PO455836  11.055   3.367   5.455
 4343POPC   GL155837  11.287   3.584   5.744
 4343POPC   GL255838  11.156   3.915   5.743
 4343POPC   C1A55839  11.387   3.500   6.165
 4343POPC   D2A55840  11.103   3.485   6.504
 4343POPC   C3A55841  11.362   3.440   6.843
 4343POPC   C4A55842  11.229   3.521   7.209
 4343POPC   C1B55843  11.156   3.950   6.204
 4343POPC   C2B55844  11.409   3.903   6.572
 4343POPC   C3B55845  11.322   3.955   6.971
 4343POPC   C4B55846  11.505   3.890   7.386
 4344POPC   NC355847   3.810  24.250   5.177
 4344POPC   PO455848   3.363  24.685   5.280
 4344POPC   GL155849   3.536  24.429   5.650
 4344POPC   GL255850   3.868  24.560   5.793
 4344POPC   C1A55851   3.495  24.411   6.119
 4344POPC   D2A55852   3.615  24.215   6.514
 4344POPC   C3A55853   3.615  24.376   6.926
 4344POPC   C4A55854   3.738  24.115   7.249
 4344POPC   C1B55855   4.007  24.429   6.230
 4344POPC   C2B55856   3.999  24.619   6.621
 4344POPC   C3B55857   3.875  24.824   6.975
 4344POPC   C4B55858   3.754  24.659   7.371
 4345POPC   NC355859  38.134   7.705   5.616
 4345POPC   PO455860  37.628   7.376   5.381
 4345POPC   GL155861  37.833   7.324   5.790
 4345POPC   GL255862  37.747   7.638   5.930
 4345POPC   C1A55863  37.923   7.279   6.231
 4345POPC   D2A55864  37.666   7.313   6.566
 4345POPC   C3A55865  37.780   7.104   6.947
 4345POPC   C4A55866  37.744   7.355   7.293
 4345POPC   C1B55867  38.037   7.795   6.253
 4345POPC   C2B55868  38.083   7.620   6.664
 4345POPC   C3B55869  38.023   7.725   7.092
 4345POPC   C4B55870  37.979   7.733   7.578
 4346POPC   NC355871   4.999  11.657   5.405
 4346POPC   PO455872   4.920  10.995   5.539
 4346POPC   GL155873   4.926  11.326   5.827
 4346POPC   GL255874   5.258  11.408   5.783
 4346POPC   C1A55875   5.075  11.302   6.255
 4346POPC   D2A55876   5.024  11.095   6.637
 4346POPC   C3A55877   5.164  11.350   6.917
 4346POPC   C4A55878   5.164  11.397   7.298
 4346POPC   C1B55879   5.452  11.608   6.110
 4346POPC   C2B55880   5.410  11.639   6.546
 4346POPC   C3B55881   5.579  11.652   6.968
 4346POPC   C4B55882   5.677  11.488   7.330
 4347POPC   NC355883  24.210   2.399   5.426
 4347POPC   PO455884  24.740   1.917   5.537
 4347POPC   GL155885  24.593   1.672   5.916
 4347POPC   GL255886  24.250   1.581   5.761
 4347POPC   C1A55887  24.666   1.797   6.362
 4347POPC   D2A55888  24.667   2.219   6.612
 4347POPC   C3A55889  24.809   2.160   7.020
 4347POPC   C4A55890  24.662   2.111   7.439
 4347POPC   C1B55891  24.121   1.752   6.146
 4347POPC   C2B55892  24.202   2.024   6.477
 4347POPC   C3B55893  24.191   2.020   6.923
 4347POPC   C4B55894  24.357   1.721   7.216
 4348POPC   NC355895  21.196   7.101   5.484
 4348POPC   PO455896  21.159   7.862   5.431
 4348POPC   GL155897  21.067   7.643   5.837
 4348POPC   GL255898  21.273   7.358   5.905
 4348POPC   C1A55899  21.183   7.653   6.308
 4348POPC   D2A55900  21.404   7.584   6.703
 4348POPC   C3A55901  21.186   7.596   7.106
 4348POPC   C4A55902  21.285   7.515   7.564
 4348POPC   C1B55903  21.239   7.098   6.256
 4348POPC   C2B55904  21.449   7.081   6.646
 4348POPC   C3B55905  21.509   7.169   7.060
 4348POPC   C4B55906  21.125   7.112   7.248
 4349POPC   NC355907  41.304  33.147   5.455
 4349POPC   PO455908  41.619  32.597   5.203
 4349POPC   GL155909  41.536  32.718   5.674
 4349POPC   GL255910  41.210  32.816   5.840
 4349POPC   C1A55911  41.629  32.697   6.140
 4349POPC   D2A55912  41.788  32.860   6.547
 4349POPC   C3A55913  41.578  32.810   6.959
 4349POPC   C4A55914  41.671  33.202   7.090
 4349POPC   C1B55915  41.358  33.136   6.202
 4349POPC   C2B55916  41.348  33.167   6.668
 4349POPC   C3B55917  41.130  33.046   7.060
 4349POPC   C4B55918  41.011  33.329   7.368
 4350POPC   NC355919  20.693  30.889   5.157
 4350POPC   PO455920  20.239  30.625   5.595
 4350POPC   GL155921  20.703  30.614   5.776
 4350POPC   GL255922  20.991  30.347   5.768
 4350POPC   C1A55923  20.841  30.702   6.208
 4350POPC   D2A55924  20.781  30.502   6.633
 4350POPC   C3A55925  20.740  30.722   7.047
 4350POPC   C4A55926  20.729  30.943   7.456
 4350POPC   C1B55927  21.002  30.209   6.227
 4350POPC   C2B55928  21.138  30.119   6.655
 4350POPC   C3B55929  21.010  30.278   7.037
 4350POPC   C4B55930  20.842  30.381   7.435
 4351POPC   NC355931  28.987  34.796   5.592
 4351POPC   PO455932  29.570  34.492   5.552
 4351POPC   GL155933  29.334  34.526   5.924
 4351POPC   GL255934  29.056  34.297   5.865
 4351POPC   C1A55935  29.371  34.791   6.325
 4351POPC   D2A55936  29.519  34.996   6.731
 4351POPC   C3A55937  29.160  35.077   7.005
 4351POPC   C4A55938  28.843  34.772   7.154
 4351POPC   C1B55939  28.985  34.444   6.300
 4351POPC   C2B55940  29.093  34.504   6.752
 4351POPC   C3B55941  28.978  34.272   7.150
 4351POPC   C4B55942  29.130  34.032   7.491
 4352POPC   NC355943  15.168  22.872   5.483
 4352POPC   PO455944  15.186  22.242   5.564
 4352POPC   GL155945  15.092  22.563   5.900
 4352POPC   GL255946  15.409  22.759   5.939
 4352POPC   C1A55947  14.975  22.922   6.228
 4352POPC   D2A55948  14.742  23.143   6.622
 4352POPC   C3A55949  14.862  23.047   7.090
 4352POPC   C4A55950  15.104  22.978   7.498
 4352POPC   C1B55951  15.563  22.996   6.316
 4352POPC   C2B55952  15.493  23.102   6.776
 4352POPC   C3B55953  15.575  23.062   7.219
 4352POPC   C4B55954  15.690  22.902   7.627
 4353POPC   NC355955   3.668  14.369   5.401
 4353POPC   PO455956   3.016  14.594   5.249
 4353POPC   GL155957   3.096  14.476   5.665
 4353POPC   GL255958   3.273  14.779   5.732
 4353POPC   C1A55959   3.146  14.406   6.130
 4353POPC   D2A55960   3.347  14.426   6.559
 4353POPC   C3A55961   3.329  14.208   6.969
 4353POPC   C4A55962   3.679  14.369   7.177
 4353POPC   C1B55963   3.639  14.762   6.020
 4353POPC   C2B55964   3.864  14.853   6.417
 4353POPC   C3B55965   3.972  14.676   6.825
 4353POPC   C4B55966   3.942  14.797   7.242
 4354POPC   NC355967  26.272   1.838   5.252
 4354POPC   PO455968  26.317   2.475   5.397
 4354POPC   GL155969  26.047   2.137   5.640
 4354POPC   GL255970  26.321   2.003   5.820
 4354POPC   C1A55971  25.861   1.919   6.060
 4354POPC   D2A55972  25.588   1.830   6.458
 4354POPC   C3A55973  25.759   1.926   6.851
 4354POPC   C4A55974  25.835   1.879   7.282
 4354POPC   C1B55975  26.284   2.166   6.252
 4354POPC   C2B55976  26.201   2.157   6.695
 4354POPC   C3B55977  26.201   2.182   7.120
 4354POPC   C4B55978  26.335   1.839   7.360
 4355POPC   NC355979  17.508  42.338   5.205
 4355POPC   PO455980  17.258  41.817   5.634
 4355POPC   GL155981  17.525  42.202   5.774
 4355POPC   GL255982  17.343  42.451   5.762
 4355POPC   C1A55983  17.741  42.265   6.164
 4355POPC   D2A55984  17.611  41.939   6.454
 4355POPC   C3A55985  17.472  42.042   6.841
 4355POPC   C4A55986  17.675  42.268   7.135
 4355POPC   C1B55987  17.295  42.531   6.211
 4355POPC   C2B55988  17.450  42.530   6.638
 4355POPC   C3B55989  17.305  42.662   7.036
 4355POPC   C4B55990  17.232  42.480   7.422
 4356POPC   NC355991   2.543  14.599   5.327
 4356POPC   PO455992   2.455  14.042   5.693
 4356POPC   GL155993   2.637  14.372   5.940
 4356POPC   GL255994   2.662  14.694   5.851
 4356POPC   C1A55995   2.638  14.533   6.373
 4356POPC   D2A55996   2.863  14.368   6.742
 4356POPC   C3A55997   2.875  14.355   7.190
 4356POPC   C4A55998   2.757  14.242   7.590
 4356POPC   C1B55999   2.951  14.884   6.151
 4356POPC   C2B56000   3.024  14.847   6.618
 4356POPC   C3B56001   2.742  14.844   7.022
 4356POPC   C4B56002   2.439  14.617   7.323
 4357POPC   NC356003  34.056   1.780   5.181
 4357POPC   PO456004  33.745   2.284   5.599
 4357POPC   GL156005  33.970   2.099   5.912
 4357POPC   GL256006  34.033   1.785   5.724
 4357POPC   C1A56007  33.880   2.053   6.361
 4357POPC   D2A56008  33.740   1.732   6.660
 4357POPC   C3A56009  33.674   1.918   7.068
 4357POPC   C4A56010  33.899   2.298   7.194
 4357POPC   C1B56011  34.138   1.653   6.128
 4357POPC   C2B56012  34.298   1.813   6.516
 4357POPC   C3B56013  34.139   2.000   6.850
 4357POPC   C4B56014  34.167   1.893   7.271
 4358POPC   NC356015  20.641  36.490   5.215
 4358POPC   PO456016  20.856  35.888   5.332
 4358POPC   GL156017  20.761  36.154   5.725
 4358POPC   GL256018  20.406  36.035   5.838
 4358POPC   C1A56019  20.612  36.353   6.150
 4358POPC   D2A56020  20.242  36.201   6.387
 4358POPC   C3A56021  20.273  36.333   6.827
 4358POPC   C4A56022  20.584  36.311   7.153
 4358POPC   C1B56023  20.679  35.834   6.133
 4358POPC   C2B56024  20.736  35.997   6.526
 4358POPC   C3B56025  20.763  35.872   6.920
 4358POPC   C4B56026  20.608  35.809   7.288
 4359POPC   NC356027   3.575  33.305   5.328
 4359POPC   PO456028   3.891  32.850   5.631
 4359POPC   GL156029   3.613  32.983   5.886
 4359POPC   GL256030   3.323  33.054   5.728
 4359POPC   C1A56031   3.662  33.136   6.270
 4359POPC   D2A56032   3.673  33.001   6.674
 4359POPC   C3A56033   3.627  33.242   7.015
 4359POPC   C4A56034   3.480  33.133   7.386
 4359POPC   C1B56035   3.183  32.903   6.147
 4359POPC   C2B56036   3.158  32.846   6.601
 4359POPC   C3B56037   3.358  32.770   7.010
 4359POPC   C4B56038   3.167  32.733   7.408
 4360POPC   NC356039   2.988   7.703   5.325
 4360POPC   PO456040   2.380   7.560   5.522
 4360POPC   GL156041   2.839   7.503   5.778
 4360POPC   GL256042   3.064   7.186   5.757
 4360POPC   C1A56043   3.091   7.480   6.206
 4360POPC   D2A56044   2.826   7.427   6.598
 4360POPC   C3A56045   2.872   7.559   7.035
 4360POPC   C4A56046   2.529   7.503   7.346
 4360POPC   C1B56047   2.777   7.083   6.136
 4360POPC   C2B56048   2.656   6.915   6.548
 4360POPC   C3B56049   2.773   6.962   6.971
 4360POPC   C4B56050   2.944   7.151   7.338
 4361POPC   NC356051  21.370  25.667   5.310
 4361POPC   PO456052  21.229  26.295   5.385
 4361POPC   GL156053  21.427  26.134   5.734
 4361POPC   GL256054  21.495  25.780   5.775
 4361POPC   C1A56055  21.343  26.086   6.175
 4361POPC   D2A56056  21.504  26.218   6.583
 4361POPC   C3A56057  21.218  26.193   6.935
 4361POPC   C4A56058  21.519  26.164   7.265
 4361POPC   C1B56059  21.512  25.588   6.162
 4361POPC   C2B56060  21.345  25.726   6.551
 4361POPC   C3B56061  21.540  25.780   6.932
 4361POPC   C4B56062  21.599  25.664   7.361
 4362POPC   NC356063  43.193  32.199   5.134
 4362POPC   PO456064  42.712  32.604   5.400
 4362POPC   GL156065  43.039  32.397   5.763
 4362POPC   GL256066  43.181  32.069   5.748
 4362POPC   C1A56067  43.397  32.277   6.149
 4362POPC   D2A56068  43.443  32.009   6.538
 4362POPC   C3A56069  43.280  32.113   6.958
 4362POPC   C4A56070  43.367  31.998   7.392
 4362POPC   C1B56071  42.957  32.019   6.150
 4362POPC   C2B56072  42.941  31.888   6.569
 4362POPC   C3B56073  42.746  31.912   6.950
 4362POPC   C4B56074  42.893  31.829   7.347
 4363POPC   NC356075  16.784   4.746   5.482
 4363POPC   PO456076  16.434   5.321   5.552
 4363POPC   GL156077  16.654   5.049   5.889
 4363POPC   GL256078  16.482   4.761   6.068
 4363POPC   C1A56079  16.999   4.899   6.204
 4363POPC   D2A56080  16.943   4.830   6.674
 4363POPC   C3A56081  16.983   5.103   7.081
 4363POPC   C4A56082  17.162   4.937   7.495
 4363POPC   C1B56083  16.564   5.079   6.399
 4363POPC   C2B56084  16.511   5.065   6.835
 4363POPC   C3B56085  16.469   4.931   7.229
 4363POPC   C4B56086  16.400   5.106   7.656
 4364POPC   NC356087  27.701  20.505   5.207
 4364POPC   PO456088  28.421  20.573   5.501
 4364POPC   GL156089  28.196  20.587   5.870
 4364POPC   GL256090  28.343  20.867   6.068
 4364POPC   C1A56091  28.172  20.387   6.255
 4364POPC   D2A56092  28.257  20.592   6.613
 4364POPC   C3A56093  28.203  20.361   6.952
 4364POPC   C4A56094  28.333  20.521   7.325
 4364POPC   C1B56095  27.993  20.995   6.344
 4364POPC   C2B56096  27.935  21.063   6.818
 4364POPC   C3B56097  27.886  20.782   7.199
 4364POPC   C4B56098  27.982  20.676   7.653
 4365POPC   NC356099   4.535  10.189   5.278
 4365POPC   PO456100   4.077  10.661   5.534
 4365POPC   GL156101   4.339  10.428   5.766
 4365POPC   GL256102   4.028  10.303   5.941
 4365POPC   C1A56103   4.478  10.335   6.183
 4365POPC   D2A56104   4.195  10.369   6.546
 4365POPC   C3A56105   4.407  10.352   6.944
 4365POPC   C4A56106   4.644  10.714   7.193
 4365POPC   C1B56107   3.857  10.662   6.183
 4365POPC   C2B56108   3.989  10.877   6.560
 4365POPC   C3B56109   3.932  10.653   6.931
 4365POPC   C4B56110   4.142  10.564   7.305
 4366POPC   NC356111   6.393  18.120   5.572
 4366POPC   PO456112   6.786  18.597   5.524
 4366POPC   GL156113   6.702  18.365   5.928
 4366POPC   GL256114   6.823  18.012   5.891
 4366POPC   C1A56115   6.686  18.491   6.365
 4366POPC   D2A56116   6.597  18.688   6.755
 4366POPC   C3A56117   6.635  18.417   7.115
 4366POPC   C4A56118   6.679  18.213   7.505
 4366POPC   C1B56119   6.929  18.048   6.334
 4366POPC   C2B56120   6.659  18.021   6.735
 4366POPC   C3B56121   6.544  17.831   7.177
 4366POPC   C4B56122   6.823  17.736   7.553
 4367POPC   NC356123   3.889  10.196   5.456
 4367POPC   PO456124   3.241  10.295   5.401
 4367POPC   GL156125   3.377  10.484   5.775
 4367POPC   GL256126   3.242  10.822   5.753
 4367POPC   C1A56127   3.416  10.351   6.201
 4367POPC   D2A56128   3.695  10.279   6.540
 4367POPC   C3A56129   3.505  10.350   6.907
 4367POPC   C4A56130   3.639  10.427   7.304
 4367POPC   C1B56131   3.351  10.858   6.173
 4367POPC   C2B56132   3.504  10.752   6.578
 4367POPC   C3B56133   3.444  10.844   7.014
 4367POPC   C4B56134   3.400  10.876   7.446
 4368POPC   NC356135  31.807  30.412   5.154
 4368POPC   PO456136  31.790  31.034   5.468
 4368POPC   GL156137  31.434  30.811   5.680
 4368POPC   GL256138  31.374  31.076   5.880
 4368POPC   C1A56139  31.318  30.645   6.121
 4368POPC   D2A56140  31.485  30.783   6.518
 4368POPC   C3A56141  31.329  30.664   6.921
 4368POPC   C4A56142  31.556  30.551   7.299
 4368POPC   C1B56143  31.204  31.163   6.258
 4368POPC   C2B56144  31.074  31.241   6.689
 4368POPC   C3B56145  31.278  31.188   7.073
 4368POPC   C4B56146  31.306  30.958   7.469
 4369POPC   NC356147  14.212  39.946   5.346
 4369POPC   PO456148  14.519  40.381   5.718
 4369POPC   GL156149  14.507  39.918   5.869
 4369POPC   GL256150  14.203  39.694   5.787
 4369POPC   C1A56151  14.619  39.863   6.337
 4369POPC   D2A56152  14.656  40.153   6.717
 4369POPC   C3A56153  14.300  40.300   6.972
 4369POPC   C4A56154  14.250  40.253   7.396
 4369POPC   C1B56155  14.243  39.544   6.206
 4369POPC   C2B56156  14.220  39.683   6.632
 4369POPC   C3B56157  14.168  39.783   7.009
 4369POPC   C4B56158  14.551  39.862   7.161
 4370POPC   NC356159  30.818   7.114   5.721
 4370POPC   PO456160  30.543   7.396   5.201
 4370POPC   GL156161  30.508   7.548   5.648
 4370POPC   GL256162  30.325   7.286   5.828
 4370POPC   C1A56163  30.591   7.610   6.109
 4370POPC   D2A56164  30.752   7.728   6.516
 4370POPC   C3A56165  30.620   7.623   6.935
 4370POPC   C4A56166  30.688   7.441   7.285
 4370POPC   C1B56167  30.489   7.124   6.265
 4370POPC   C2B56168  30.667   7.210   6.647
 4370POPC   C3B56169  30.764   7.031   7.032
 4370POPC   C4B56170  30.609   7.005   7.518
 4371POPC   NC356171  43.785  40.328   5.463
 4371POPC   PO456172  43.948  39.697   5.195
 4371POPC   GL156173  44.010  39.749   5.687
 4371POPC   GL256174  44.110  40.069   5.765
 4371POPC   C1A56175  43.839  39.849   6.155
 4371POPC   D2A56176  43.720  39.642   6.567
 4371POPC   C3A56177  43.614  39.911   6.923
 4371POPC   C4A56178  43.479  39.916   7.372
 4371POPC   C1B56179  44.333  40.078   6.117
 4371POPC   C2B56180  44.257  39.950   6.508
 4371POPC   C3B56181  44.297  40.109   6.919
 4371POPC   C4B56182  43.977  40.185   7.231
 4372POPC   NC356183  15.949  28.764   5.411
 4372POPC   PO456184  16.522  28.373   5.324
 4372POPC   GL156185  16.153  28.330   5.617
 4372POPC   GL256186  15.985  28.026   5.699
 4372POPC   C1A56187  16.015  28.395   6.055
 4372POPC   D2A56188  15.924  28.367   6.497
 4372POPC   C3A56189  15.897  28.476   6.946
 4372POPC   C4A56190  15.697  28.264   7.297
 4372POPC   C1B56191  16.340  28.000   6.014
 4372POPC   C2B56192  16.340  28.072   6.489
 4372POPC   C3B56193  16.082  28.005   6.857
 4372POPC   C4B56194  16.139  28.008   7.299
 4373POPC   NC356195   1.562  30.519   5.384
 4373POPC   PO456196   0.989  30.791   5.329
 4373POPC   GL156197   1.191  30.709   5.772
 4373POPC   GL256198   0.848  30.694   5.957
 4373POPC   C1A56199   1.431  30.559   6.201
 4373POPC   D2A56200   1.276  30.544   6.672
 4373POPC   C3A56201   1.494  30.689   7.079
 4373POPC   C4A56202   1.477  30.652   7.553
 4373POPC   C1B56203   1.043  30.866   6.293
 4373POPC   C2B56204   1.042  31.053   6.676
 4373POPC   C3B56205   0.835  30.980   7.027
 4373POPC   C4B56206   1.064  30.798   7.329
 4374POPC   NC356207   3.940  27.806   5.753
 4374POPC   PO456208   3.684  27.266   5.364
 4374POPC   GL156209   3.442  27.239   5.736
 4374POPC   GL256210   3.541  27.533   5.943
 4374POPC   C1A56211   3.245  27.164   6.130
 4374POPC   D2A56212   3.542  27.084   6.444
 4374POPC   C3A56213   3.675  27.359   6.781
 4374POPC   C4A56214   3.524  27.490   7.182
 4374POPC   C1B56215   3.544  27.830   6.316
 4374POPC   C2B56216   3.202  28.014   6.598
 4374POPC   C3B56217   3.237  27.910   7.031
 4374POPC   C4B56218   3.677  27.979   7.152
 4375POPC   NC356219   7.291   4.001   5.424
 4375POPC   PO456220   7.240   4.682   5.426
 4375POPC   GL156221   7.500   4.357   5.732
 4375POPC   GL256222   7.339   4.058   5.910
 4375POPC   C1A56223   7.693   4.256   6.174
 4375POPC   D2A56224   7.415   4.148   6.526
 4375POPC   C3A56225   7.680   4.255   6.901
 4375POPC   C4A56226   7.685   4.405   7.323
 4375POPC   C1B56227   7.206   4.460   6.145
 4375POPC   C2B56228   6.972   4.406   6.513
 4375POPC   C3B56229   7.001   4.395   6.926
 4375POPC   C4B56230   7.252   4.166   7.243
 4376POPC   NC356231  43.889  44.067   5.357
 4376POPC   PO456232  43.423  43.686   5.231
 4376POPC   GL156233  43.637  43.711   5.714
 4376POPC   GL256234  43.722  44.067   5.840
 4376POPC   C1A56235  43.805  43.748   6.212
 4376POPC   D2A56236  43.768  44.053   6.581
 4376POPC   C3A56237  43.823  43.851   7.032
 4376POPC   C4A56238  43.657  43.515   7.349
 4376POPC   C1B56239  44.113  44.169   6.111
 4376POPC   C2B56240  44.289  44.250   6.527
 4376POPC   C3B56241  44.070  44.326   6.937
 4376POPC   C4B56242  44.231  44.222   7.344
 4377POPC   NC356243   2.161  44.010   5.485
 4377POPC   PO456244   1.892  43.455   5.607
 4377POPC   GL156245   1.995  43.751   5.901
 4377POPC   GL256246   1.779  44.029   5.818
 4377POPC   C1A56247   2.149  43.874   6.312
 4377POPC   D2A56248   2.119  43.680   6.742
 4377POPC   C3A56249   2.102  44.005   7.072
 4377POPC   C4A56250   2.084  44.020   7.528
 4377POPC   C1B56251   1.637  43.874   6.232
 4377POPC   C2B56252   1.772  44.049   6.602
 4377POPC   C3B56253   1.616  43.947   6.943
 4377POPC   C4B56254   1.635  44.010   7.308
 4378POPC   NC356255  32.929  23.405   5.269
 4378POPC   PO456256  33.197  22.815   5.346
 4378POPC   GL156257  33.077  22.896   5.783
 4378POPC   GL256258  33.080  23.255   5.753
 4378POPC   C1A56259  32.943  22.758   6.235
 4378POPC   D2A56260  32.864  22.995   6.632
 4378POPC   C3A56261  33.000  22.864   7.056
 4378POPC   C4A56262  32.837  22.810   7.467
 4378POPC   C1B56263  32.984  23.271   6.198
 4378POPC   C2B56264  33.146  23.429   6.614
 4378POPC   C3B56265  33.094  23.365   7.066
 4378POPC   C4B56266  33.246  23.125   7.449
 4379POPC   NC356267  39.491  17.079   5.461
 4379POPC   PO456268  38.961  16.700   5.509
 4379POPC   GL156269  39.307  16.708   5.833
 4379POPC   GL256270  39.402  17.030   5.975
 4379POPC   C1A56271  39.297  16.459   6.211
 4379POPC   D2A56272  39.065  16.514   6.603
 4379POPC   C3A56273  39.305  16.546   6.974
 4379POPC   C4A56274  39.428  16.964   7.148
 4379POPC   C1B56275  39.115  16.965   6.306
 4379POPC   C2B56276  39.140  17.002   6.736
 4379POPC   C3B56277  38.893  16.804   7.043
 4379POPC   C4B56278  38.794  16.938   7.392
 4380POPC   NC356279  38.840  30.024   5.642
 4380POPC   PO456280  38.299  29.603   5.392
 4380POPC   GL156281  38.312  29.739   5.803
 4380POPC   GL256282  38.178  30.073   5.812
 4380POPC   C1A56283  38.530  29.792   6.204
 4380POPC   D2A56284  38.540  29.981   6.643
 4380POPC   C3A56285  38.580  29.678   6.982
 4380POPC   C4A56286  38.491  29.491   7.415
 4380POPC   C1B56287  38.242  30.222   6.241
 4380POPC   C2B56288  38.169  30.418   6.683
 4380POPC   C3B56289  38.419  30.329   7.048
 4380POPC   C4B56290  38.323  29.975   7.283
 4381POPC   NC356291   3.732  31.755   5.440
 4381POPC   PO456292   3.406  31.153   5.396
 4381POPC   GL156293   3.426  31.463   5.750
 4381POPC   GL256294   3.795  31.431   5.869
 4381POPC   C1A56295   3.447  31.704   6.144
 4381POPC   D2A56296   3.679  31.707   6.546
 4381POPC   C3A56297   3.415  31.674   6.891
 4381POPC   C4A56298   3.205  31.606   7.258
 4381POPC   C1B56299   3.653  31.239   6.284
 4381POPC   C2B56300   3.374  30.997   6.592
 4381POPC   C3B56301   3.353  31.174   6.998
 4381POPC   C4B56302   3.788  31.345   6.973
 4382POPC   NC356303   2.294  40.357   5.364
 4382POPC   PO456304   1.817  39.815   5.336
 4382POPC   GL156305   1.983  40.035   5.684
 4382POPC   GL256306   1.658  39.939   5.818
 4382POPC   C1A56307   2.134  40.074   6.113
 4382POPC   D2A56308   2.241  39.892   6.544
 4382POPC   C3A56309   2.277  40.086   6.912
 4382POPC   C4A56310   2.091  40.205   7.274
 4382POPC   C1B56311   1.619  40.159   6.159
 4382POPC   C2B56312   1.757  40.032   6.508
 4382POPC   C3B56313   1.753  40.204   6.898
 4382POPC   C4B56314   1.518  40.242   7.257
 4383POPC   NC356315  23.560  43.492   5.537
 4383POPC   PO456316  23.657  44.171   5.357
 4383POPC   GL156317  23.730  44.194   5.842
 4383POPC   GL256318  23.728  43.845   5.861
 4383POPC   C1A56319  23.852  44.091   6.283
 4383POPC   D2A56320  24.143  43.852   6.533
 4383POPC   C3A56321  23.997  43.933   6.941
 4383POPC   C4A56322  23.569  43.847   7.103
 4383POPC   C1B56323  23.766  43.540   6.195
 4383POPC   C2B56324  23.896  43.367   6.585
 4383POPC   C3B56325  23.997  43.428   6.988
 4383POPC   C4B56326  23.777  43.467   7.375
 4384POPC   NC356327  35.786   2.408   5.150
 4384POPC   PO456328  35.531   3.043   5.352
 4384POPC   GL156329  35.641   2.825   5.754
 4384POPC   GL256330  35.671   2.506   5.680
 4384POPC   C1A56331  35.575   2.940   6.227
 4384POPC   D2A56332  35.211   3.074   6.526
 4384POPC   C3A56333  35.195   2.907   6.970
 4384POPC   C4A56334  35.232   2.885   7.427
 4384POPC   C1B56335  35.420   2.463   6.089
 4384POPC   C2B56336  35.290   2.421   6.513
 4384POPC   C3B56337  35.488   2.442   6.904
 4384POPC   C4B56338  35.295   2.425   7.275
 4385POPC   NC356339  37.987  40.034   5.437
 4385POPC   PO456340  37.373  39.789   5.411
 4385POPC   GL156341  37.619  39.919   5.796
 4385POPC   GL256342  37.446  40.183   5.959
 4385POPC   C1A56343  37.897  40.106   6.156
 4385POPC   D2A56344  37.951  40.365   6.529
 4385POPC   C3A56345  38.081  40.162   6.920
 4385POPC   C4A56346  37.828  39.929   7.225
 4385POPC   C1B56347  37.433  40.163   6.396
 4385POPC   C2B56348  37.616  40.036   6.757
 4385POPC   C3B56349  37.297  39.898   7.008
 4385POPC   C4B56350  37.045  39.845   7.348
 4386POPC   NC356351  36.184  12.258   5.125
 4386POPC   PO456352  35.854  12.019   5.732
 4386POPC   GL156353  36.214  12.163   5.788
 4386POPC   GL256354  36.357  11.817   5.808
 4386POPC   C1A56355  36.351  12.245   6.183
 4386POPC   D2A56356  36.156  12.051   6.509
 4386POPC   C3A56357  36.052  12.299   6.853
 4386POPC   C4A56358  36.025  12.182   7.264
 4386POPC   C1B56359  36.550  11.799   6.235
 4386POPC   C2B56360  36.628  11.728   6.673
 4386POPC   C3B56361  36.421  11.720   7.066
 4386POPC   C4B56362  36.358  11.560   7.510
 4387POPC   NC356363   1.099  32.949   5.278
 4387POPC   PO456364   1.660  32.811   5.546
 4387POPC   GL156365   1.324  33.042   5.755
 4387POPC   GL256366   0.952  33.237   5.670
 4387POPC   C1A56367   1.392  32.870   6.182
 4387POPC   D2A56368   1.175  32.821   6.557
 4387POPC   C3A56369   1.402  32.804   6.916
 4387POPC   C4A56370   1.162  32.917   7.267
 4387POPC   C1B56371   1.037  33.229   6.111
 4387POPC   C2B56372   1.060  33.447   6.496
 4387POPC   C3B56373   1.150  33.362   6.920
 4387POPC   C4B56374   1.198  33.433   7.340
 4388POPC   NC356375  12.627   6.973   5.576
 4388POPC   PO456376  12.646   7.656   5.436
 4388POPC   GL156377  12.917   7.573   5.829
 4388POPC   GL256378  12.959   7.227   5.879
 4388POPC   C1A56379  13.120   7.467   6.270
 4388POPC   D2A56380  13.284   7.547   6.661
 4388POPC   C3A56381  12.946   7.520   6.928
 4388POPC   C4A56382  12.818   7.722   7.301
 4388POPC   C1B56383  12.875   6.942   6.218
 4388POPC   C2B56384  12.634   6.924   6.593
 4388POPC   C3B56385  12.877   6.994   6.947
 4388POPC   C4B56386  12.922   7.221   7.321
 4389POPC   NC356387  20.648  29.377   5.429
 4389POPC   PO456388  20.063  28.917   5.362
 4389POPC   GL156389  20.415  29.019   5.732
 4389POPC   GL256390  20.775  29.195   5.876
 4389POPC   C1A56391  20.393  29.071   6.200
 4389POPC   D2A56392  20.268  28.885   6.612
 4389POPC   C3A56393  20.433  29.092   6.999
 4389POPC   C4A56394  20.796  28.965   7.242
 4389POPC   C1B56395  20.946  28.971   6.233
 4389POPC   C2B56396  20.825  28.938   6.667
 4389POPC   C3B56397  20.884  29.329   6.905
 4389POPC   C4B56398  21.066  29.389   7.312
 4390POPC   NC356399   1.091  17.991   5.488
 4390POPC   PO456400   1.535  18.568   5.492
 4390POPC   GL156401   1.326  18.372   5.840
 4390POPC   GL256402   1.047  18.623   5.883
 4390POPC   C1A56403   1.510  18.129   6.220
 4390POPC   D2A56404   1.661  18.298   6.628
 4390POPC   C3A56405   1.335  18.419   6.938
 4390POPC   C4A56406   1.278  18.218   7.340
 4390POPC   C1B56407   1.114  18.452   6.316
 4390POPC   C2B56408   1.108  18.077   6.588
 4390POPC   C3B56409   0.914  18.077   7.004
 4390POPC   C4B56410   0.868  18.493   7.262
 4391POPC   NC356411  19.035  20.199   5.169
 4391POPC   PO456412  19.114  19.590   5.470
 4391POPC   GL156413  18.939  19.870   5.800
 4391POPC   GL256414  18.958  20.243   5.860
 4391POPC   C1A56415  18.970  19.873   6.242
 4391POPC   D2A56416  19.050  19.595   6.554
 4391POPC   C3A56417  19.029  19.774   6.929
 4391POPC   C4A56418  19.255  19.685   7.257
 4391POPC   C1B56419  18.648  20.263   6.219
 4391POPC   C2B56420  18.742  20.234   6.654
 4391POPC   C3B56421  18.591  20.018   7.019
 4391POPC   C4B56422  18.842  19.962   7.400
 4392POPC   NC356423  17.359  33.689   5.335
 4392POPC   PO456424  17.949  33.643   5.541
 4392POPC   GL156425  17.705  33.888   5.788
 4392POPC   GL256426  17.315  33.870   5.834
 4392POPC   C1A56427  17.670  33.918   6.217
 4392POPC   D2A56428  17.417  34.064   6.531
 4392POPC   C3A56429  17.519  33.901   6.933
 4392POPC   C4A56430  17.606  33.745   7.325
 4392POPC   C1B56431  17.253  33.614   6.240
 4392POPC   C2B56432  17.121  33.669   6.706
 4392POPC   C3B56433  17.139  33.604   7.187
 4392POPC   C4B56434  17.360  33.344   7.535
 4393POPC   NC356435   0.245  20.262   5.463
 4393POPC   PO456436   0.779  20.709   5.528
 4393POPC   GL156437   0.561  20.468   5.819
 4393POPC   GL256438   0.288  20.690   5.835
 4393POPC   C1A56439   0.383  20.371   6.229
 4393POPC   D2A56440   0.535  20.255   6.639
 4393POPC   C3A56441   0.291  20.316   7.017
 4393POPC   C4A56442   0.420  20.284   7.448
 4393POPC   C1B56443   0.562  20.837   6.179
 4393POPC   C2B56444   0.418  20.749   6.582
 4393POPC   C3B56445   0.512  20.813   7.006
 4393POPC   C4B56446   0.210  20.762   7.316
 4394POPC   NC356447   8.907  33.935   5.234
 4394POPC   PO456448   9.140  33.338   5.060
 4394POPC   GL156449   9.159  33.496   5.562
 4394POPC   GL256450   9.352  33.833   5.640
 4394POPC   C1A56451   9.059  33.649   6.036
 4394POPC   D2A56452   8.942  33.867   6.463
 4394POPC   C3A56453   8.948  33.617   6.850
 4394POPC   C4A56454   8.784  33.580   7.287
 4394POPC   C1B56455   9.515  33.951   6.066
 4394POPC   C2B56456   9.608  34.065   6.505
 4394POPC   C3B56457   9.338  34.018   6.871
 4394POPC   C4B56458   8.989  34.083   7.155
 4395POPC   NC356459  27.405   8.965   5.475
 4395POPC   PO456460  27.661   9.525   5.210
 4395POPC   GL156461  27.771   9.326   5.758
 4395POPC   GL256462  27.688   9.005   5.881
 4395POPC   C1A56463  27.938   9.246   6.243
 4395POPC   D2A56464  27.645   9.228   6.620
 4395POPC   C3A56465  27.593   9.078   7.067
 4395POPC   C4A56466  27.319   9.043   7.473
 4395POPC   C1B56467  27.742   8.757   6.220
 4395POPC   C2B56468  27.527   8.669   6.578
 4395POPC   C3B56469  27.678   8.578   6.939
 4395POPC   C4B56470  27.503   8.610   7.286
 4396POPC   NC356471   0.811  32.370   5.478
 4396POPC   PO456472   0.182  32.250   5.558
 4396POPC   GL156473   0.374  32.272   5.951
 4396POPC   GL256474   0.690  32.147   5.941
 4396POPC   C1A56475   0.437  32.578   6.284
 4396POPC   D2A56476   0.565  32.608   6.689
 4396POPC   C3A56477   0.529  32.296   6.958
 4396POPC   C4A56478   0.432  32.202   7.340
 4396POPC   C1B56479   0.688  32.146   6.413
 4396POPC   C2B56480   0.886  31.954   6.795
 4396POPC   C3B56481   0.908  31.943   7.258
 4396POPC   C4B56482   0.773  32.063   7.691
 4397POPC   NC356483  23.115  28.565   5.250
 4397POPC   PO456484  22.542  28.250   5.446
 4397POPC   GL156485  22.846  28.391   5.792
 4397POPC   GL256486  23.170  28.585   5.763
 4397POPC   C1A56487  22.922  28.482   6.240
 4397POPC   D2A56488  22.652  28.494   6.619
 4397POPC   C3A56489  22.809  28.602   7.025
 4397POPC   C4A56490  22.752  28.984   7.296
 4397POPC   C1B56491  23.386  28.312   6.060
 4397POPC   C2B56492  23.374  28.172   6.486
 4397POPC   C3B56493  23.267  28.323   6.875
 4397POPC   C4B56494  23.300  28.670   7.118
 4398POPC   NC356495  37.813  16.361   5.663
 4398POPC   PO456496  37.442  15.973   5.137
 4398POPC   GL156497  37.508  16.029   5.801
 4398POPC   GL256498  37.422  16.229   5.983
 4398POPC   C1A56499  37.649  15.875   6.280
 4398POPC   D2A56500  37.596  15.874   6.714
 4398POPC   C3A56501  37.866  15.904   7.053
 4398POPC   C4A56502  37.561  16.071   7.289
 4398POPC   C1B56503  37.743  16.378   6.333
 4398POPC   C2B56504  37.822  16.384   6.785
 4398POPC   C3B56505  37.926  16.421   7.195
 4398POPC   C4B56506  37.803  16.421   7.599
 4399POPC   NC356507  37.282   2.962   5.627
 4399POPC   PO456508  36.934   2.375   5.545
 4399POPC   GL156509  37.072   2.598   5.912
 4399POPC   GL256510  36.887   2.921   5.951
 4399POPC   C1A56511  37.163   2.763   6.357
 4399POPC   D2A56512  36.912   2.861   6.752
 4399POPC   C3A56513  37.093   2.688   7.140
 4399POPC   C4A56514  37.329   2.442   7.511
 4399POPC   C1B56515  36.675   2.583   6.239
 4399POPC   C2B56516  36.499   2.482   6.653
 4399POPC   C3B56517  36.576   2.556   7.086
 4399POPC   C4B56518  36.670   2.963   7.249
 4400POPC   NC356519   3.831  35.030   5.361
 4400POPC   PO456520   3.411  34.451   5.363
 4400POPC   GL156521   3.445  34.824   5.651
 4400POPC   GL256522   3.774  34.916   5.852
 4400POPC   C1A56523   3.329  34.797   6.073
 4400POPC   D2A56524   3.362  34.568   6.450
 4400POPC   C3A56525   3.364  34.654   6.876
 4400POPC   C4A56526   3.526  34.298   7.092
 4400POPC   C1B56527   3.850  34.653   6.227
 4400POPC   C2B56528   3.851  34.634   6.684
 4400POPC   C3B56529   3.860  34.689   7.125
 4400POPC   C4B56530   3.983  34.819   7.542
 4401POPC   NC356531  36.196  38.493   5.223
 4401POPC   PO456532  35.582  38.336   5.264
 4401POPC   GL156533  35.964  38.377   5.671
 4401POPC   GL256534  36.226  38.060   5.680
 4401POPC   C1A56535  35.989  38.587   6.151
 4401POPC   D2A56536  36.142  38.714   6.609
 4401POPC   C3A56537  36.009  38.541   7.019
 4401POPC   C4A56538  35.759  38.250   7.254
 4401POPC   C1B56539  36.336  38.217   6.104
 4401POPC   C2B56540  36.286  38.201   6.594
 4401POPC   C3B56541  36.457  38.250   7.041
 4401POPC   C4B56542  36.459  38.361   7.477
 4402POPC   NC356543  34.266  13.902   5.397
 4402POPC   PO456544  33.818  13.360   5.258
 4402POPC   GL156545  33.814  13.419   5.795
 4402POPC   GL256546  34.149  13.353   5.920
 4402POPC   C1A56547  33.884  13.722   6.194
 4402POPC   D2A56548  33.718  13.742   6.628
 4402POPC   C3A56549  33.906  13.901   7.033
 4402POPC   C4A56550  33.733  13.798   7.458
 4402POPC   C1B56551  34.153  13.323   6.377
 4402POPC   C2B56552  34.228  13.639   6.699
 4402POPC   C3B56553  34.206  13.479   7.118
 4402POPC   C4B56554  34.086  13.376   7.522
 4403POPC   NC356555   1.640  37.867   5.444
 4403POPC   PO456556   2.318  37.740   5.447
 4403POPC   GL156557   2.064  37.762   5.833
 4403POPC   GL256558   1.844  37.461   5.793
 4403POPC   C1A56559   1.973  37.887   6.295
 4403POPC   D2A56560   1.728  38.042   6.673
 4403POPC   C3A56561   1.946  37.950   7.061
 4403POPC   C4A56562   1.867  37.542   7.176
 4403POPC   C1B56563   2.034  37.387   6.203
 4403POPC   C2B56564   1.909  37.382   6.637
 4403POPC   C3B56565   2.170  37.205   6.958
 4403POPC   C4B56566   2.353  37.429   7.274
 4404POPC   NC356567  17.576  11.361   5.522
 4404POPC   PO456568  17.060  11.623   5.504
 4404POPC   GL156569  17.234  11.575   5.951
 4404POPC   GL256570  17.590  11.527   5.987
 4404POPC   C1A56571  17.321  11.270   6.340
 4404POPC   D2A56572  17.579  10.979   6.641
 4404POPC   C3A56573  17.578  11.109   7.088
 4404POPC   C4A56574  17.279  11.266   7.408
 4404POPC   C1B56575  17.570  11.709   6.351
 4404POPC   C2B56576  17.578  11.503   6.717
 4404POPC   C3B56577  17.437  11.594   7.054
 4404POPC   C4B56578  17.643  11.596   7.398
 4405POPC   NC356579   8.481  10.902   5.420
 4405POPC   PO456580   8.194  10.264   5.548
 4405POPC   GL156581   8.353  10.573   5.796
 4405POPC   GL256582   8.168  10.901   5.823
 4405POPC   C1A56583   8.343  10.545   6.233
 4405POPC   D2A56584   8.094  10.368   6.552
 4405POPC   C3A56585   8.275  10.341   6.929
 4405POPC   C4A56586   7.947  10.280   7.153
 4405POPC   C1B56587   8.057  10.964   6.251
 4405POPC   C2B56588   8.251  10.862   6.659
 4405POPC   C3B56589   8.183  10.802   7.099
 4405POPC   C4B56590   8.508  10.762   7.345
 4406POPC   NC356591  16.482  21.985   5.513
 4406POPC   PO456592  17.191  21.955   5.453
 4406POPC   GL156593  16.939  22.022   5.837
 4406POPC   GL256594  16.624  22.236   5.923
 4406POPC   C1A56595  17.015  22.095   6.266
 4406POPC   D2A56596  17.094  22.340   6.620
 4406POPC   C3A56597  16.954  22.121   6.975
 4406POPC   C4A56598  16.660  22.189   7.276
 4406POPC   C1B56599  16.554  21.846   6.155
 4406POPC   C2B56600  16.624  21.941   6.574
 4406POPC   C3B56601  16.378  21.902   6.918
 4406POPC   C4B56602  16.436  21.733   7.305
 4407POPC   NC356603   4.494   0.244   4.995
 4407POPC   PO456604   4.216   0.690   5.451
 4407POPC   GL156605   4.262   0.463   5.837
 4407POPC   GL256606   4.152   0.100   5.755
 4407POPC   C1A56607   4.238   0.613   6.282
 4407POPC   D2A56608   4.415   0.408   6.628
 4407POPC   C3A56609   4.441   0.572   7.021
 4407POPC   C4A56610   4.079   0.698   7.229
 4407POPC   C1B56611   3.959   0.195   6.154
 4407POPC   C2B56612   3.995   0.101   6.582
 4407POPC   C3B56613   3.988   0.240   7.001
 4407POPC   C4B56614   4.322   0.129   7.278
 4408POPC   NC356615  38.501  11.433   5.411
 4408POPC   PO456616  38.179  10.786   5.463
 4408POPC   GL156617  38.384  11.110   5.796
 4408POPC   GL256618  38.323  11.530   5.858
 4408POPC   C1A56619  38.664  11.249   6.129
 4408POPC   D2A56620  38.674  11.363   6.566
 4408POPC   C3A56621  38.586  11.207   6.973
 4408POPC   C4A56622  38.664  11.376   7.359
 4408POPC   C1B56623  38.377  11.675   6.274
 4408POPC   C2B56624  38.249  11.678   6.691
 4408POPC   C3B56625  38.115  11.445   7.049
 4408POPC   C4B56626  37.885  11.568   7.400
 4409POPC   NC356627   4.495  32.011   5.411
 4409POPC   PO456628   3.960  31.926   5.799
 4409POPC   GL156629   4.275  32.180   5.955
 4409POPC   GL256630   4.651  32.200   5.858
 4409POPC   C1A56631   4.133  32.322   6.361
 4409POPC   D2A56632   3.985  32.091   6.729
 4409POPC   C3A56633   4.241  32.236   7.062
 4409POPC   C4A56634   4.200  32.549   7.328
 4409POPC   C1B56635   4.606  32.443   6.220
 4409POPC   C2B56636   4.623  32.471   6.619
 4409POPC   C3B56637   4.788  32.215   6.968
 4409POPC   C4B56638   4.682  32.011   7.338
 4410POPC   NC356639   6.733  14.952   5.145
 4410POPC   PO456640   6.370  15.288   5.652
 4410POPC   GL156641   6.636  15.157   5.897
 4410POPC   GL256642   6.783  14.888   5.686
 4410POPC   C1A56643   6.427  15.083   6.294
 4410POPC   D2A56644   6.215  15.051   6.703
 4410POPC   C3A56645   6.327  15.262   7.074
 4410POPC   C4A56646   6.541  15.084   7.461
 4410POPC   C1B56647   6.990  14.882   6.100
 4410POPC   C2B56648   7.032  15.173   6.421
 4410POPC   C3B56649   7.039  15.187   6.874
 4410POPC   C4B56650   7.005  15.242   7.312
 4411POPC   NC356651  10.207  27.931   5.472
 4411POPC   PO456652  10.630  27.345   5.457
 4411POPC   GL156653  10.417  27.558   5.769
 4411POPC   GL256654  10.698  27.784   5.727
 4411POPC   C1A56655  10.356  27.620   6.219
 4411POPC   D2A56656  10.236  27.468   6.668
 4411POPC   C3A56657  10.270  27.773   7.035
 4411POPC   C4A56658  10.211  27.713   7.486
 4411POPC   C1B56659  10.862  27.478   6.040
 4411POPC   C2B56660  10.789  27.476   6.472
 4411POPC   C3B56661  10.687  27.307   6.853
 4411POPC   C4B56662  10.663  27.492   7.264
 4412POPC   NC356663  36.430  34.231   5.511
 4412POPC   PO456664  36.094  34.854   5.427
 4412POPC   GL156665  36.159  34.636   5.839
 4412POPC   GL256666  36.172  34.277   5.940
 4412POPC   C1A56667  36.145  34.593   6.324
 4412POPC   D2A56668  35.754  34.590   6.571
 4412POPC   C3A56669  35.788  34.616   7.019
 4412POPC   C4A56670  35.758  34.373   7.377
 4412POPC   C1B56671  35.914  34.130   6.298
 4412POPC   C2B56672  35.907  34.127   6.767
 4412POPC   C3B56673  36.200  34.304   7.038
 4412POPC   C4B56674  36.255  34.300   7.448
 4413POPC   NC356675  17.824  16.772   5.733
 4413POPC   PO456676  17.283  16.520   5.391
 4413POPC   GL156677  17.297  16.774   5.751
 4413POPC   GL256678  17.426  16.477   5.886
 4413POPC   C1A56679  17.138  16.847   6.180
 4413POPC   D2A56680  17.148  16.925   6.644
 4413POPC   C3A56681  17.440  16.774   6.942
 4413POPC   C4A56682  17.321  16.862   7.335
 4413POPC   C1B56683  17.374  16.253   6.228
 4413POPC   C2B56684  17.310  16.412   6.603
 4413POPC   C3B56685  17.263  16.289   7.007
 4413POPC   C4B56686  17.517  16.315   7.379
 4414POPC   NC356687  30.092  20.902   5.483
 4414POPC   PO456688  30.003  21.660   5.530
 4414POPC   GL156689  30.096  21.460   5.935
 4414POPC   GL256690  30.281  21.161   5.934
 4414POPC   C1A56691  30.047  21.434   6.369
 4414POPC   D2A56692  29.663  21.395   6.607
 4414POPC   C3A56693  29.775  21.301   7.018
 4414POPC   C4A56694  29.900  21.699   7.250
 4414POPC   C1B56695  30.294  20.945   6.294
 4414POPC   C2B56696  30.046  20.908   6.656
 4414POPC   C3B56697  30.189  20.906   7.048
 4414POPC   C4B56698  30.246  21.286   7.213
 4415POPC   NC356699   4.275  34.173   5.624
 4415POPC   PO456700   4.304  34.870   5.529
 4415POPC   GL156701   4.438  34.604   5.841
 4415POPC   GL256702   4.700  34.388   5.863
 4415POPC   C1A56703   4.360  34.523   6.256
 4415POPC   D2A56704   4.289  34.873   6.501
 4415POPC   C3A56705   4.331  34.728   6.889
 4415POPC   C4A56706   4.336  34.586   7.278
 4415POPC   C1B56707   4.804  34.250   6.284
 4415POPC   C2B56708   4.569  34.248   6.691
 4415POPC   C3B56709   4.747  34.386   7.084
 4415POPC   C4B56710   4.671  34.341   7.581
 4416POPC   NC356711  13.466   2.526   5.495
 4416POPC   PO456712  13.638   3.186   5.334
 4416POPC   GL156713  13.687   2.938   5.726
 4416POPC   GL256714  13.338   2.991   5.827
 4416POPC   C1A56715  13.742   2.683   6.113
 4416POPC   D2A56716  13.903   2.625   6.560
 4416POPC   C3A56717  13.664   2.510   6.976
 4416POPC   C4A56718  13.448   2.498   7.398
 4416POPC   C1B56719  13.296   2.867   6.277
 4416POPC   C2B56720  13.242   2.789   6.737
 4416POPC   C3B56721  13.384   2.934   7.130
 4416POPC   C4B56722  13.750   3.125   7.318
 4417POPC   NC356723   4.071  38.473   5.304
 4417POPC   PO456724   4.744  38.413   5.365
 4417POPC   GL156725   4.495  38.400   5.781
 4417POPC   GL256726   4.244  38.697   5.795
 4417POPC   C1A56727   4.364  38.150   6.197
 4417POPC   D2A56728   4.317  37.973   6.644
 4417POPC   C3A56729   4.133  38.224   7.009
 4417POPC   C4A56730   4.388  38.418   7.327
 4417POPC   C1B56731   4.261  38.657   6.240
 4417POPC   C2B56732   4.316  38.517   6.648
 4417POPC   C3B56733   4.369  38.807   7.004
 4417POPC   C4B56734   4.261  38.894   7.435
 4418POPC   NC356735  23.566  17.981   5.207
 4418POPC   PO456736  23.985  17.448   5.445
 4418POPC   GL156737  23.988  17.453   5.892
 4418POPC   GL256738  23.633  17.368   5.894
 4418POPC   C1A56739  23.839  17.508   6.338
 4418POPC   D2A56740  23.785  17.306   6.742
 4418POPC   C3A56741  23.787  17.670   6.983
 4418POPC   C4A56742  23.821  17.806   7.374
 4418POPC   C1B56743  23.533  17.105   6.246
 4418POPC   C2B56744  23.317  17.100   6.649
 4418POPC   C3B56745  23.452  16.998   7.067
 4418POPC   C4B56746  23.782  17.249   7.264
 4419POPC   NC356747  22.511  29.615   5.524
 4419POPC   PO456748  23.115  29.801   5.244
 4419POPC   GL156749  22.920  29.889   5.666
 4419POPC   GL256750  22.948  30.249   5.726
 4419POPC   C1A56751  22.876  29.907   6.146
 4419POPC   D2A56752  23.065  30.216   6.449
 4419POPC   C3A56753  23.124  30.183   6.892
 4419POPC   C4A56754  23.037  29.832   7.170
 4419POPC   C1B56755  22.710  30.403   6.098
 4419POPC   C2B56756  22.489  30.261   6.447
 4419POPC   C3B56757  22.629  30.030   6.822
 4419POPC   C4B56758  22.720  30.230   7.210
 4420POPC   NC356759  17.609  13.968   5.159
 4420POPC   PO456760  17.600  13.398   5.297
 4420POPC   GL156761  17.622  13.585   5.732
 4420POPC   GL256762  17.308  13.697   5.881
 4420POPC   C1A56763  17.645  13.589   6.231
 4420POPC   D2A56764  17.360  13.652   6.611
 4420POPC   C3A56765  17.553  13.775   6.996
 4420POPC   C4A56766  17.848  13.527   7.230
 4420POPC   C1B56767  17.081  13.470   6.213
 4420POPC   C2B56768  17.092  13.206   6.577
 4420POPC   C3B56769  17.226  13.240   6.977
 4420POPC   C4B56770  17.042  13.182   7.376
 4421POPC   NC356771   3.288  25.768   5.652
 4421POPC   PO456772   2.858  26.221   5.394
 4421POPC   GL156773   2.850  26.066   5.811
 4421POPC   GL256774   3.127  26.190   5.966
 4421POPC   C1A56775   2.665  25.993   6.238
 4421POPC   D2A56776   2.580  26.196   6.679
 4421POPC   C3A56777   2.729  26.040   7.068
 4421POPC   C4A56778   2.846  25.802   7.454
 4421POPC   C1B56779   3.023  26.305   6.411
 4421POPC   C2B56780   3.162  26.188   6.831
 4421POPC   C3B56781   3.175  26.155   7.302
 4421POPC   C4B56782   3.191  26.341   7.755
 4422POPC   NC356783  29.426  37.793   5.477
 4422POPC   PO456784  28.860  37.415   5.547
 4422POPC   GL156785  29.073  37.586   5.872
 4422POPC   GL256786  29.206  37.921   5.933
 4422POPC   C1A56787  29.295  37.472   6.217
 4422POPC   D2A56788  29.496  37.745   6.472
 4422POPC   C3A56789  29.420  37.590   6.903
 4422POPC   C4A56790  29.458  37.533   7.350
 4422POPC   C1B56791  28.916  37.827   6.303
 4422POPC   C2B56792  28.940  37.761   6.776
 4422POPC   C3B56793  29.003  37.709   7.205
 4422POPC   C4B56794  28.937  37.799   7.620
 4423POPC   NC356795   2.635   6.335   5.534
 4423POPC   PO456796   3.205   6.614   5.562
 4423POPC   GL156797   2.891   6.614   5.902
 4423POPC   GL256798   2.541   6.737   5.850
 4423POPC   C1A56799   2.946   6.535   6.337
 4423POPC   D2A56800   3.114   6.213   6.594
 4423POPC   C3A56801   2.954   6.389   6.944
 4423POPC   C4A56802   3.063   6.645   7.272
 4423POPC   C1B56803   2.425   6.543   6.258
 4423POPC   C2B56804   2.485   6.461   6.720
 4423POPC   C3B56805   2.514   6.535   7.183
 4423POPC   C4B56806   2.424   6.395   7.622
 4424POPC   NC356807  14.207  36.896   5.461
 4424POPC   PO456808  14.590  36.399   5.473
 4424POPC   GL156809  14.599  36.587   5.873
 4424POPC   GL256810  14.259  36.741   5.945
 4424POPC   C1A56811  14.602  36.660   6.326
 4424POPC   D2A56812  14.589  37.010   6.642
 4424POPC   C3A56813  14.448  36.841   7.018
 4424POPC   C4A56814  14.655  36.581   7.310
 4424POPC   C1B56815  14.318  37.097   6.214
 4424POPC   C2B56816  14.090  37.167   6.568
 4424POPC   C3B56817  14.164  37.296   6.961
 4424POPC   C4B56818  14.196  37.134   7.341
 4425POPC   NC356819  17.333  26.510   5.458
 4425POPC   PO456820  17.850  26.929   5.529
 4425POPC   GL156821  17.659  26.700   5.834
 4425POPC   GL256822  17.395  26.886   5.872
 4425POPC   C1A56823  17.546  26.601   6.268
 4425POPC   D2A56824  17.701  26.848   6.611
 4425POPC   C3A56825  17.409  26.853   6.936
 4425POPC   C4A56826  17.332  26.860   7.365
 4425POPC   C1B56827  17.377  27.092   6.294
 4425POPC   C2B56828  17.439  27.306   6.691
 4425POPC   C3B56829  17.217  27.304   7.115
 4425POPC   C4B56830  17.341  27.319   7.587
 4426POPC   NC356831  38.130  17.903   5.652
 4426POPC   PO456832  38.690  18.164   5.464
 4426POPC   GL156833  38.565  18.369   5.831
 4426POPC   GL256834  38.248  18.375   5.788
 4426POPC   C1A56835  38.364  18.316   6.275
 4426POPC   D2A56836  38.192  18.227   6.656
 4426POPC   C3A56837  38.480  18.110   6.953
 4426POPC   C4A56838  38.501  18.359   7.326
 4426POPC   C1B56839  38.058  18.676   6.014
 4426POPC   C2B56840  38.060  18.677   6.455
 4426POPC   C3B56841  38.133  18.702   6.913
 4426POPC   C4B56842  38.000  18.533   7.290
 4427POPC   NC356843  41.178  25.575   5.563
 4427POPC   PO456844  41.636  25.178   5.224
 4427POPC   GL156845  41.763  25.186   5.713
 4427POPC   GL256846  41.445  25.240   5.887
 4427POPC   C1A56847  41.842  25.260   6.201
 4427POPC   D2A56848  41.541  25.343   6.557
 4427POPC   C3A56849  41.576  25.240   7.019
 4427POPC   C4A56850  41.234  25.424   7.336
 4427POPC   C1B56851  41.362  24.955   6.237
 4427POPC   C2B56852  41.436  24.863   6.664
 4427POPC   C3B56853  41.196  24.908   7.027
 4427POPC   C4B56854  41.364  24.948   7.417
 4428POPC   NC356855  41.077  23.933   5.388
 4428POPC   PO456856  40.563  23.582   5.441
 4428POPC   GL156857  40.504  23.685   5.844
 4428POPC   GL256858  40.343  23.391   5.899
 4428POPC   C1A56859  40.719  23.852   6.197
 4428POPC   D2A56860  40.802  23.683   6.597
 4428POPC   C3A56861  40.793  23.994   6.945
 4428POPC   C4A56862  40.846  23.734   7.239
 4428POPC   C1B56863  40.371  23.478   6.310
 4428POPC   C2B56864  40.200  23.367   6.656
 4428POPC   C3B56865  40.288  23.166   7.003
 4428POPC   C4B56866  40.417  23.374   7.378
 4429POPC   NC356867   2.938  38.966   5.528
 4429POPC   PO456868   2.642  39.576   5.562
 4429POPC   GL156869   2.898  39.372   5.851
 4429POPC   GL256870   2.698  39.511   6.082
 4429POPC   C1A56871   3.071  39.208   6.251
 4429POPC   D2A56872   3.109  39.371   6.663
 4429POPC   C3A56873   2.846  39.344   7.025
 4429POPC   C4A56874   2.940  39.001   7.293
 4429POPC   C1B56875   2.565  39.160   6.283
 4429POPC   C2B56876   2.738  39.005   6.642
 4429POPC   C3B56877   2.527  38.916   7.009
 4429POPC   C4B56878   2.420  39.179   7.355
 4430POPC   NC356879  28.891   6.942   5.340
 4430POPC   PO456880  28.569   6.309   5.508
 4430POPC   GL156881  28.323   6.520   5.809
 4430POPC   GL256882  28.519   6.817   5.714
 4430POPC   C1A56883  28.182   6.499   6.272
 4430POPC   D2A56884  28.196   6.175   6.628
 4430POPC   C3A56885  28.149   6.371   7.034
 4430POPC   C4A56886  28.336   6.752   7.246
 4430POPC   C1B56887  28.651   6.703   6.146
 4430POPC   C2B56888  28.579   6.730   6.593
 4430POPC   C3B56889  28.673   6.502   6.954
 4430POPC   C4B56890  28.565   6.213   7.248
 4431POPC   NC356891  23.297  27.050   5.555
 4431POPC   PO456892  22.797  26.496   5.557
 4431POPC   GL156893  23.015  26.736   5.811
 4431POPC   GL256894  22.856  27.044   5.856
 4431POPC   C1A56895  23.230  26.747   6.192
 4431POPC   D2A56896  23.052  26.492   6.510
 4431POPC   C3A56897  23.137  26.663   6.871
 4431POPC   C4A56898  22.875  26.698   7.209
 4431POPC   C1B56899  23.028  27.250   6.217
 4431POPC   C2B56900  23.187  27.179   6.624
 4431POPC   C3B56901  22.944  27.130   6.986
 4431POPC   C4B56902  22.662  27.154   7.328
 4432POPC   NC356903  24.977  12.354   5.399
 4432POPC   PO456904  25.547  11.935   5.571
 4432POPC   GL156905  25.246  12.112   5.867
 4432POPC   GL256906  25.268  12.449   5.872
 4432POPC   C1A56907  25.055  12.279   6.291
 4432POPC   D2A56908  24.829  12.340   6.694
 4432POPC   C3A56909  25.117  12.249   7.070
 4432POPC   C4A56910  25.129  12.075   7.494
 4432POPC   C1B56911  25.560  12.321   6.246
 4432POPC   C2B56912  25.444  12.187   6.653
 4432POPC   C3B56913  25.556  11.905   6.976
 4432POPC   C4B56914  25.616  11.974   7.393
 4433POPC   NC356915  23.495  29.599   5.055
 4433POPC   PO456916  23.874  30.119   5.427
 4433POPC   GL156917  23.734  30.141   5.834
 4433POPC   GL256918  23.415  29.969   5.807
 4433POPC   C1A56919  23.711  30.136   6.284
 4433POPC   D2A56920  23.910  29.959   6.648
 4433POPC   C3A56921  23.817  30.154   7.025
 4433POPC   C4A56922  23.501  30.023   7.237
 4433POPC   C1B56923  23.376  29.747   6.215
 4433POPC   C2B56924  23.411  29.814   6.658
 4433POPC   C3B56925  23.456  29.558   7.014
 4433POPC   C4B56926  23.449  29.559   7.476
 4434POPC   NC356927   0.324  14.686   5.460
 4434POPC   PO456928   0.536  14.104   5.576
 4434POPC   GL156929   0.542  14.339   5.918
 4434POPC   GL256930   0.241  14.538   5.936
 4434POPC   C1A56931   0.619  14.429   6.337
 4434POPC   D2A56932   0.374  14.422   6.702
 4434POPC   C3A56933   0.511  14.166   7.036
 4434POPC   C4A56934   0.752  14.119   7.432
 4434POPC   C1B56935   0.148  14.695   6.331
 4434POPC   C2B56936   0.164  14.904   6.756
 4434POPC   C3B56937   0.260  14.651   7.139
 4434POPC   C4B56938   0.313  14.373   7.473
 4435POPC   NC356939  21.110  44.227   5.456
 4435POPC   PO456940  20.419  44.110   5.338
 4435POPC   GL156941  20.552  43.981   5.736
 4435POPC   GL256942  20.775  44.204   5.812
 4435POPC   C1A56943  20.684  43.787   6.116
 4435POPC   D2A56944  20.525  43.871   6.511
 4435POPC   C3A56945  20.795  43.822   6.868
 4435POPC   C4A56946  20.815  43.662   7.287
 4435POPC   C1B56947  20.559  44.287   6.169
 4435POPC   C2B56948  20.687  44.358   6.585
 4435POPC   C3B56949  20.429  44.188   6.902
 4435POPC   C4B56950  20.590  44.124   7.279
 4436POPC   NC356951   1.937  12.666   5.260
 4436POPC   PO456952   1.878  13.332   5.443
 4436POPC   GL156953   2.069  13.082   5.787
 4436POPC   GL256954   2.029  12.697   5.798
 4436POPC   C1A56955   2.174  13.013   6.217
 4436POPC   D2A56956   1.891  12.950   6.587
 4436POPC   C3A56957   1.971  12.964   7.034
 4436POPC   C4A56958   1.885  13.159   7.456
 4436POPC   C1B56959   2.061  12.511   6.242
 4436POPC   C2B56960   1.745  12.444   6.576
 4436POPC   C3B56961   1.746  12.490   7.023
 4436POPC   C4B56962   2.113  12.530   7.307
 4437POPC   NC356963   3.523  34.010   5.466
 4437POPC   PO456964   3.993  33.496   5.218
 4437POPC   GL156965   3.785  33.426   5.747
 4437POPC   GL256966   3.434  33.566   5.748
 4437POPC   C1A56967   3.758  33.620   6.182
 4437POPC   D2A56968   3.828  33.492   6.617
 4437POPC   C3A56969   3.747  33.776   6.973
 4437POPC   C4A56970   3.872  34.022   7.331
 4437POPC   C1B56971   3.261  33.417   6.127
 4437POPC   C2B56972   3.302  33.348   6.571
 4437POPC   C3B56973   3.239  33.560   6.952
 4437POPC   C4B56974   3.383  33.638   7.353
 4438POPC   NC356975  42.369  21.544   5.641
 4438POPC   PO456976  42.370  22.174   5.357
 4438POPC   GL156977  42.471  22.253   5.772
 4438POPC   GL256978  42.582  21.938   5.876
 4438POPC   C1A56979  42.202  22.186   6.160
 4438POPC   D2A56980  42.085  22.024   6.587
 4438POPC   C3A56981  42.127  22.217   7.039
 4438POPC   C4A56982  42.135  22.110   7.539
 4438POPC   C1B56983  42.447  21.749   6.281
 4438POPC   C2B56984  42.584  21.895   6.685
 4438POPC   C3B56985  42.570  21.963   7.136
 4438POPC   C4B56986  42.651  21.689   7.485
 4439POPC   NC356987  11.326   9.992   5.435
 4439POPC   PO456988  11.641   9.444   5.188
 4439POPC   GL156989  11.420   9.556   5.662
 4439POPC   GL256990  11.598   9.808   5.826
 4439POPC   C1A56991  11.146   9.818   6.038
 4439POPC   D2A56992  11.179   9.939   6.466
 4439POPC   C3A56993  11.189   9.726   6.858
 4439POPC   C4A56994  11.154   9.862   7.288
 4439POPC   C1B56995  11.673   9.837   6.277
 4439POPC   C2B56996  11.663   9.925   6.734
 4439POPC   C3B56997  11.615   9.710   7.147
 4439POPC   C4B56998  11.537   9.687   7.632
 4440POPC   NC356999  21.818   5.562   5.555
 4440POPC   PO457000  22.353   5.038   5.511
 4440POPC   GL157001  22.049   5.198   5.844
 4440POPC   GL257002  21.896   4.957   6.026
 4440POPC   C1A57003  22.068   5.357   6.310
 4440POPC   D2A57004  22.267   5.193   6.691
 4440POPC   C3A57005  22.171   5.406   7.097
 4440POPC   C4A57006  22.386   5.286   7.512
 4440POPC   C1B57007  22.358   4.962   6.193
 4440POPC   C2B57008  22.468   4.739   6.576
 4440POPC   C3B57009  22.335   4.713   6.975
 4440POPC   C4B57010  22.059   4.941   7.241
 4441POPC   NC357011  39.650  34.787   5.558
 4441POPC   PO457012  40.353  34.622   5.531
 4441POPC   GL157013  40.020  34.540   5.813
 4441POPC   GL257014  40.052  34.213   5.910
 4441POPC   C1A57015  39.794  34.539   6.211
 4441POPC   D2A57016  39.979  34.677   6.609
 4441POPC   C3A57017  39.812  34.650   7.029
 4441POPC   C4A57018  39.671  34.325   7.345
 4441POPC   C1B57019  40.327  34.323   6.238
 4441POPC   C2B57020  40.485  34.523   6.612
 4441POPC   C3B57021  40.279  34.412   6.994
 4441POPC   C4B57022  40.154  34.496   7.421
 4442POPC   NC357023  30.394  22.909   5.473
 4442POPC   PO457024  30.922  23.291   5.413
 4442POPC   GL157025  30.968  23.149   5.822
 4442POPC   GL257026  31.271  23.298   5.928
 4442POPC   C1A57027  30.886  22.939   6.214
 4442POPC   D2A57028  31.022  22.869   6.646
 4442POPC   C3A57029  30.661  22.785   6.965
 4442POPC   C4A57030  30.254  22.848   7.153
 4442POPC   C1B57031  31.168  23.437   6.333
 4442POPC   C2B57032  31.098  23.375   6.774
 4442POPC   C3B57033  30.927  23.489   7.162
 4442POPC   C4B57034  30.856  23.210   7.509
 4443POPC   NC357035  22.413  23.139   5.183
 4443POPC   PO457036  21.915  22.765   5.517
 4443POPC   GL157037  22.063  23.026   5.805
 4443POPC   GL257038  22.380  23.111   5.707
 4443POPC   C1A57039  21.907  22.963   6.205
 4443POPC   D2A57040  21.823  22.671   6.536
 4443POPC   C3A57041  21.933  22.868   6.888
 4443POPC   C4A57042  21.985  22.704   7.259
 4443POPC   C1B57043  22.432  22.879   6.109
 4443POPC   C2B57044  22.342  22.950   6.541
 4443POPC   C3B57045  22.439  22.799   6.956
 4443POPC   C4B57046  22.357  23.049   7.287
 4444POPC   NC357047  38.619  40.079   5.234
 4444POPC   PO457048  38.119  40.458   5.271
 4444POPC   GL157049  38.298  40.317   5.727
 4444POPC   GL257050  38.289  39.950   5.825
 4444POPC   C1A57051  38.579  40.209   6.132
 4444POPC   D2A57052  38.564  39.957   6.551
 4444POPC   C3A57053  38.622  40.164   6.947
 4444POPC   C4A57054  38.888  40.210   7.317
 4444POPC   C1B57055  38.237  39.744   6.233
 4444POPC   C2B57056  38.129  39.690   6.710
 4444POPC   C3B57057  38.320  39.784   7.162
 4444POPC   C4B57058  38.148  39.814   7.603
 4445POPC   NC357059  17.643   3.251   5.431
 4445POPC   PO457060  17.074   3.671   5.578
 4445POPC   GL157061  17.388   3.507   5.841
 4445POPC   GL257062  17.748   3.617   5.802
 4445POPC   C1A57063  17.406   3.268   6.234
 4445POPC   D2A57064  17.627   3.187   6.629
 4445POPC   C3A57065  17.497   3.330   7.031
 4445POPC   C4A57066  17.293   3.684   7.211
 4445POPC   C1B57067  17.611   3.731   6.248
 4445POPC   C2B57068  17.623   3.717   6.702
 4445POPC   C3B57069  17.675   3.985   7.084
 4445POPC   C4B57070  17.515   4.079   7.519
 4446POPC   NC357071  16.306  25.496   5.007
 4446POPC   PO457072  16.905  25.386   5.376
 4446POPC   GL157073  16.681  25.252   5.793
 4446POPC   GL257074  16.512  25.527   5.989
 4446POPC   C1A57075  16.636  25.087   6.195
 4446POPC   D2A57076  16.855  25.148   6.567
 4446POPC   C3A57077  16.858  24.861   6.874
 4446POPC   C4A57078  16.679  25.186   7.105
 4446POPC   C1B57079  16.371  25.781   6.289
 4446POPC   C2B57080  16.413  25.566   6.680
 4446POPC   C3B57081  16.459  25.668   7.099
 4446POPC   C4B57082  16.471  25.645   7.552
 4447POPC   NC357083  36.428  36.684   5.382
 4447POPC   PO457084  35.732  36.869   5.422
 4447POPC   GL157085  35.792  36.699   5.825
 4447POPC   GL257086  36.156  36.707   5.840
 4447POPC   C1A57087  35.858  36.832   6.267
 4447POPC   D2A57088  36.127  36.684   6.599
 4447POPC   C3A57089  36.187  36.910   6.985
 4447POPC   C4A57090  36.210  36.900   7.425
 4447POPC   C1B57091  36.317  37.056   6.101
 4447POPC   C2B57092  36.478  37.067   6.534
 4447POPC   C3B57093  36.653  37.165   6.930
 4447POPC   C4B57094  36.376  37.370   7.190
 4448POPC   NC357095  41.769  34.921   5.478
 4448POPC   PO457096  41.324  34.422   5.397
 4448POPC   GL157097  41.264  34.522   5.822
 4448POPC   GL257098  41.623  34.588   5.848
 4448POPC   C1A57099  41.351  34.603   6.268
 4448POPC   D2A57100  41.681  34.595   6.530
 4448POPC   C3A57101  41.690  34.429   6.930
 4448POPC   C4A57102  41.391  34.647   7.189
 4448POPC   C1B57103  41.831  34.880   6.135
 4448POPC   C2B57104  41.863  35.092   6.536
 4448POPC   C3B57105  41.740  34.975   6.909
 4448POPC   C4B57106  41.901  34.773   7.232
 4449POPC   NC357107  37.141  20.906   5.451
 4449POPC   PO457108  36.711  20.362   5.666
 4449POPC   GL157109  36.869  20.702   5.856
 4449POPC   GL257110  36.529  20.841   5.879
 4449POPC   C1A57111  37.081  20.674   6.243
 4449POPC   D2A57112  36.941  20.379   6.591
 4449POPC   C3A57113  36.940  20.514   7.006
 4449POPC   C4A57114  37.191  20.924   7.062
 4449POPC   C1B57115  36.596  20.783   6.315
 4449POPC   C2B57116  36.807  20.943   6.680
 4449POPC   C3B57117  36.694  20.930   7.119
 4449POPC   C4B57118  36.526  20.682   7.426
 4450POPC   NC357119   4.305  19.511   5.235
 4450POPC   PO457120   4.636  19.963   5.285
 4450POPC   GL157121   4.438  20.031   5.709
 4450POPC   GL257122   4.420  19.719   5.855
 4450POPC   C1A57123   4.236  20.056   6.162
 4450POPC   D2A57124   4.095  19.809   6.513
 4450POPC   C3A57125   4.203  20.004   6.879
 4450POPC   C4A57126   4.340  20.077   7.259
 4450POPC   C1B57127   4.643  19.608   6.197
 4450POPC   C2B57128   4.538  19.503   6.609
 4450POPC   C3B57129   4.592  19.677   6.984
 4450POPC   C4B57130   4.641  19.582   7.412
 4451POPC   NC357131  22.416  30.611   5.541
 4451POPC   PO457132  21.942  30.450   5.141
 4451POPC   GL157133  21.944  30.460   5.681
 4451POPC   GL257134  22.208  30.380   5.922
 4451POPC   C1A57135  21.804  30.541   6.156
 4451POPC   D2A57136  21.984  30.486   6.577
 4451POPC   C3A57137  21.959  30.752   6.933
 4451POPC   C4A57138  21.747  30.637   7.283
 4451POPC   C1B57139  22.283  30.694   6.209
 4451POPC   C2B57140  22.379  30.797   6.619
 4451POPC   C3B57141  22.425  30.524   6.920
 4451POPC   C4B57142  22.298  30.698   7.316
 4452POPC   NC357143  13.014   9.777   5.111
 4452POPC   PO457144  13.608   9.693   5.420
 4452POPC   GL157145  13.751   9.595   5.827
 4452POPC   GL257146  13.990   9.348   5.842
 4452POPC   C1A57147  13.700   9.777   6.245
 4452POPC   D2A57148  13.638  10.057   6.605
 4452POPC   C3A57149  13.614   9.888   7.032
 4452POPC   C4A57150  13.281   9.699   7.247
 4452POPC   C1B57151  13.935   9.306   6.309
 4452POPC   C2B57152  13.869   9.551   6.683
 4452POPC   C3B57153  14.051   9.633   7.071
 4452POPC   C4B57154  14.010   9.580   7.548
 4453POPC   NC357155  44.495  29.429   5.269
 4453POPC   PO457156  44.984  29.076   5.474
 4453POPC   GL157157  44.593  29.110   5.706
 4453POPC   GL257158  44.654  29.433   5.776
 4453POPC   C1A57159  44.428  28.973   6.124
 4453POPC   D2A57160  44.473  28.724   6.514
 4453POPC   C3A57161  44.493  28.887   6.916
 4453POPC   C4A57162  44.432  29.312   7.031
 4453POPC   C1B57163  44.862  29.208   6.150
 4453POPC   C2B57164  44.688  29.227   6.569
 4453POPC   C3B57165  44.928  29.227   6.970
 4453POPC   C4B57166  44.893  29.352   7.395
 4454POPC   NC357167  22.642  19.267   5.492
 4454POPC   PO457168  23.342  19.359   5.514
 4454POPC   GL157169  23.059  19.332   5.825
 4454POPC   GL257170  22.949  19.000   5.820
 4454POPC   C1A57171  23.016  19.268   6.276
 4454POPC   D2A57172  23.060  18.929   6.608
 4454POPC   C3A57173  23.089  19.177   7.005
 4454POPC   C4A57174  22.687  19.292   7.255
 4454POPC   C1B57175  22.692  18.872   6.168
 4454POPC   C2B57176  22.513  18.812   6.578
 4454POPC   C3B57177  22.698  18.845   6.966
 4454POPC   C4B57178  22.912  18.846   7.340
 4455POPC   NC357179  29.260  28.724   5.317
 4455POPC   PO457180  29.278  29.231   5.663
 4455POPC   GL157181  29.225  28.871   5.871
 4455POPC   GL257182  28.868  28.921   5.853
 4455POPC   C1A57183  29.366  28.893   6.287
 4455POPC   D2A57184  29.300  29.218   6.602
 4455POPC   C3A57185  29.337  29.084   6.987
 4455POPC   C4A57186  29.271  29.212   7.384
 4455POPC   C1B57187  28.929  29.161   6.265
 4455POPC   C2B57188  28.768  29.177   6.724
 4455POPC   C3B57189  28.844  29.354   7.136
 4455POPC   C4B57190  28.907  29.543   7.563
 4456POPC   NC357191  14.027   2.937   5.335
 4456POPC   PO457192  14.615   3.030   5.499
 4456POPC   GL157193  14.484   2.792   5.868
 4456POPC   GL257194  14.161   2.676   5.782
 4456POPC   C1A57195  14.441   2.779   6.353
 4456POPC   D2A57196  14.733   2.740   6.722
 4456POPC   C3A57197  14.585   2.784   7.114
 4456POPC   C4A57198  14.212   2.941   7.247
 4456POPC   C1B57199  14.180   2.403   6.129
 4456POPC   C2B57200  14.231   2.227   6.521
 4456POPC   C3B57201  14.284   2.453   6.880
 4456POPC   C4B57202  14.331   2.314   7.287
 4457POPC   NC357203   3.790  44.903   5.407
 4457POPC   PO457204   3.560  44.311   5.611
 4457POPC   GL157205   3.410  44.695   5.785
 4457POPC   GL257206   3.700  44.843   5.903
 4457POPC   C1A57207   3.277  44.733   6.227
 4457POPC   D2A57208   3.222  44.534   6.632
 4457POPC   C3A57209   3.407  44.674   7.002
 4457POPC   C4A57210   3.637  44.945   7.257
 4457POPC   C1B57211   3.785  44.692   6.303
 4457POPC   C2B57212   3.713  44.339   6.588
 4457POPC   C3B57213   3.830  44.362   7.022
 4457POPC   C4B57214   4.067  44.706   7.183
 4458POPC   NC357215  41.470  27.285   5.378
 4458POPC   PO457216  41.793  27.939   5.271
 4458POPC   GL157217  41.734  27.863   5.746
 4458POPC   GL257218  41.454  27.626   5.771
 4458POPC   C1A57219  41.810  27.615   6.165
 4458POPC   D2A57220  41.611  27.677   6.552
 4458POPC   C3A57221  41.830  27.600   6.890
 4458POPC   C4A57222  41.761  27.572   7.291
 4458POPC   C1B57223  41.280  27.671   6.158
 4458POPC   C2B57224  41.091  27.589   6.559
 4458POPC   C3B57225  41.301  27.600   6.954
 4458POPC   C4B57226  41.249  27.475   7.350
 4459POPC   NC357227  26.725  36.307   5.375
 4459POPC   PO457228  26.466  35.669   5.340
 4459POPC   GL157229  26.649  35.879   5.754
 4459POPC   GL257230  26.600  36.236   5.879
 4459POPC   C1A57231  26.939  35.839   6.161
 4459POPC   D2A57232  27.168  35.816   6.581
 4459POPC   C3A57233  26.964  35.989   6.992
 4459POPC   C4A57234  26.664  35.922   7.340
 4459POPC   C1B57235  26.991  36.340   6.106
 4459POPC   C2B57236  26.878  36.261   6.539
 4459POPC   C3B57237  26.777  36.505   6.904
 4459POPC   C4B57238  27.070  36.508   7.231
 4460POPC   NC357239  27.785  41.296   5.605
 4460POPC   PO457240  27.526  41.892   5.460
 4460POPC   GL157241  27.841  41.764   5.790
 4460POPC   GL257242  27.536  41.814   5.968
 4460POPC   C1A57243  27.880  41.554   6.213
 4460POPC   D2A57244  27.603  41.762   6.493
 4460POPC   C3A57245  27.630  41.601   6.863
 4460POPC   C4A57246  27.665  41.665   7.258
 4460POPC   C1B57247  27.372  41.438   6.167
 4460POPC   C2B57248  27.237  41.390   6.574
 4460POPC   C3B57249  27.253  41.242   6.979
 4460POPC   C4B57250  27.223  41.425   7.355
 4461POPC   NC357251  22.577  12.338   5.197
 4461POPC   PO457252  22.198  12.039   5.726
 4461POPC   GL157253  21.906  12.101   6.044
 4461POPC   GL257254  22.000  12.423   6.120
 4461POPC   C1A57255  21.878  11.975   6.459
 4461POPC   D2A57256  22.238  12.015   6.725
 4461POPC   C3A57257  22.086  12.340   6.911
 4461POPC   C4A57258  22.041  12.077   7.270
 4461POPC   C1B57259  22.410  12.302   6.342
 4461POPC   C2B57260  22.572  12.505   6.729
 4461POPC   C3B57261  22.505  12.376   7.181
 4461POPC   C4B57262  22.321  12.355   7.599
 4462POPC   NC357263  15.275  13.839   5.373
 4462POPC   PO457264  14.649  13.628   5.396
 4462POPC   GL157265  14.932  13.465   5.722
 4462POPC   GL257266  15.163  13.747   5.856
 4462POPC   C1A57267  15.083  13.367   6.160
 4462POPC   D2A57268  15.173  13.668   6.481
 4462POPC   C3A57269  15.311  13.567   6.917
 4462POPC   C4A57270  15.121  13.274   7.178
 4462POPC   C1B57271  15.360  14.043   6.130
 4462POPC   C2B57272  15.206  14.190   6.521
 4462POPC   C3B57273  15.048  14.000   6.856
 4462POPC   C4B57274  15.059  13.952   7.256
 4463POPC   NC357275  26.476   1.084   5.310
 4463POPC   PO457276  25.945   1.526   5.173
 4463POPC   GL157277  26.062   1.313   5.591
 4463POPC   GL257278  26.340   1.493   5.675
 4463POPC   C1A57279  26.052   1.052   6.011
 4463POPC   D2A57280  26.108   1.143   6.463
 4463POPC   C3A57281  25.958   1.103   6.890
 4463POPC   C4A57282  26.305   1.081   7.180
 4463POPC   C1B57283  26.221   1.535   6.096
 4463POPC   C2B57284  26.089   1.675   6.515
 4463POPC   C3B57285  26.133   1.576   6.974
 4463POPC   C4B57286  25.944   1.376   7.369
 4464POPC   NC357287  32.581  43.142   5.505
 4464POPC   PO457288  32.119  42.666   5.236
 4464POPC   GL157289  32.212  42.851   5.694
 4464POPC   GL257290  32.176  43.225   5.810
 4464POPC   C1A57291  32.406  42.910   6.138
 4464POPC   D2A57292  32.117  43.056   6.458
 4464POPC   C3A57293  32.246  42.988   6.873
 4464POPC   C4A57294  32.293  43.151   7.261
 4464POPC   C1B57295  32.332  43.450   6.203
 4464POPC   C2B57296  32.406  43.439   6.679
 4464POPC   C3B57297  32.387  43.607   7.102
 4464POPC   C4B57298  32.372  43.582   7.606
 4465POPC   NC357299  31.984  10.696   5.458
 4465POPC   PO457300  32.483  10.401   5.202
 4465POPC   GL157301  32.428  10.694   5.704
 4465POPC   GL257302  32.097  10.661   5.940
 4465POPC   C1A57303  32.511  10.770   6.191
 4465POPC   D2A57304  32.313  10.878   6.616
 4465POPC   C3A57305  32.435  10.745   7.043
 4465POPC   C4A57306  32.403  10.760   7.496
 4465POPC   C1B57307  32.128  10.461   6.344
 4465POPC   C2B57308  31.903  10.552   6.708
 4465POPC   C3B57309  31.964  10.542   7.108
 4465POPC   C4B57310  32.252  10.302   7.318
 4466POPC   NC357311  23.364  24.495   5.476
 4466POPC   PO457312  22.832  24.089   5.434
 4466POPC   GL157313  22.866  24.388   5.798
 4466POPC   GL257314  23.143  24.600   5.911
 4466POPC   C1A57315  22.880  24.254   6.214
 4466POPC   D2A57316  22.686  24.119   6.597
 4466POPC   C3A57317  22.950  24.130   6.957
 4466POPC   C4A57318  22.878  24.362   7.333
 4466POPC   C1B57319  22.996  24.764   6.250
 4466POPC   C2B57320  23.031  24.546   6.613
 4466POPC   C3B57321  22.859  24.682   6.940
 4466POPC   C4B57322  23.109  24.895   7.214
 4467POPC   NC357323  37.303  28.295   5.375
 4467POPC   PO457324  37.830  28.098   5.803
 4467POPC   GL157325  37.671  28.480   5.997
 4467POPC   GL257326  37.340  28.305   5.932
 4467POPC   C1A57327  37.973  28.822   6.205
 4467POPC   D2A57328  38.073  28.859   6.662
 4467POPC   C3A57329  37.736  28.645   6.893
 4467POPC   C4A57330  37.388  28.472   7.173
 4467POPC   C1B57331  37.292  28.128   6.392
 4467POPC   C2B57332  37.595  28.157   6.755
 4467POPC   C3B57333  37.831  28.209   7.159
 4467POPC   C4B57334  37.589  28.146   7.524
 4468POPC   NC357335   8.916  42.676   5.465
 4468POPC   PO457336   8.990  43.340   5.471
 4468POPC   GL157337   8.922  43.068   5.829
 4468POPC   GL257338   8.767  43.335   5.964
 4468POPC   C1A57339   8.911  42.995   6.294
 4468POPC   D2A57340   9.145  43.026   6.661
 4468POPC   C3A57341   8.957  42.905   7.041
 4468POPC   C4A57342   8.790  43.022   7.428
 4468POPC   C1B57343   9.142  43.445   6.239
 4468POPC   C2B57344   9.040  43.518   6.671
 4468POPC   C3B57345   8.865  43.410   7.092
 4468POPC   C4B57346   8.832  43.547   7.541
 4469POPC   NC357347  20.828  28.010   5.461
 4469POPC   PO457348  20.527  27.338   5.431
 4469POPC   GL157349  20.662  27.558   5.759
 4469POPC   GL257350  21.011  27.493   5.713
 4469POPC   C1A57351  20.487  27.466   6.185
 4469POPC   D2A57352  20.207  27.477   6.546
 4469POPC   C3A57353  20.356  27.393   6.960
 4469POPC   C4A57354  20.459  27.632   7.273
 4469POPC   C1B57355  20.962  27.720   6.130
 4469POPC   C2B57356  20.715  27.813   6.507
 4469POPC   C3B57357  20.818  27.761   6.928
 4469POPC   C4B57358  20.772  28.034   7.243
 4470POPC   NC357359  20.338  38.274   5.132
 4470POPC   PO457360  20.912  38.449   5.449
 4470POPC   GL157361  20.819  38.578   5.844
 4470POPC   GL257362  20.462  38.524   5.824
 4470POPC   C1A57363  20.673  38.638   6.277
 4470POPC   D2A57364  20.787  38.702   6.677
 4470POPC   C3A57365  20.606  38.580   7.068
 4470POPC   C4A57366  20.797  38.361   7.405
 4470POPC   C1B57367  20.238  38.328   6.200
 4470POPC   C2B57368  20.081  38.213   6.636
 4470POPC   C3B57369  20.142  37.985   7.036
 4470POPC   C4B57370  20.401  38.013   7.422
 4471POPC   NC357371   6.235  11.117   5.452
 4471POPC   PO457372   6.842  11.152   5.211
 4471POPC   GL157373   6.896  11.245   5.711
 4471POPC   GL257374   6.574  11.374   5.833
 4471POPC   C1A57375   6.898  11.184   6.218
 4471POPC   D2A57376   6.727  11.003   6.656
 4471POPC   C3A57377   6.900  11.009   7.112
 4471POPC   C4A57378   6.988  11.393   7.345
 4471POPC   C1B57379   6.399  11.301   6.240
 4471POPC   C2B57380   6.450  11.441   6.645
 4471POPC   C3B57381   6.563  11.386   7.065
 4471POPC   C4B57382   6.563  11.625   7.471
 4472POPC   NC357383  44.077   3.589   5.676
 4472POPC   PO457384  43.522   3.260   5.545
 4472POPC   GL157385  43.699   3.394   5.969
 4472POPC   GL257386  43.973   3.126   5.953
 4472POPC   C1A57387  43.947   3.688   6.300
 4472POPC   D2A57388  44.301   3.647   6.561
 4472POPC   C3A57389  44.116   3.409   6.872
 4472POPC   C4A57390  43.983   3.587   7.255
 4472POPC   C1B57391  43.899   3.192   6.404
 4472POPC   C2B57392  43.651   3.509   6.658
 4472POPC   C3B57393  43.621   3.279   6.990
 4472POPC   C4B57394  43.543   3.299   7.361
 4473POPC   NC357395  15.599  31.816   5.373
 4473POPC   PO457396  14.936  31.502   5.258
 4473POPC   GL157397  15.057  31.585   5.726
 4473POPC   GL257398  15.422  31.609   5.839
 4473POPC   C1A57399  15.048  31.740   6.180
 4473POPC   D2A57400  15.236  31.807   6.600
 4473POPC   C3A57401  15.150  31.660   7.021
 4473POPC   C4A57402  14.835  31.535   7.369
 4473POPC   C1B57403  15.475  31.479   6.303
 4473POPC   C2B57404  15.324  31.297   6.714
 4473POPC   C3B57405  15.284  31.197   7.189
 4473POPC   C4B57406  15.602  31.182   7.527
 4474POPC   NC357407   1.883   6.220   5.436
 4474POPC   PO457408   2.062   5.572   5.538
 4474POPC   GL157409   2.059   5.910   5.819
 4474POPC   GL257410   1.725   6.017   5.914
 4474POPC   C1A57411   2.247   6.068   6.184
 4474POPC   D2A57412   2.098   6.131   6.591
 4474POPC   C3A57413   2.298   6.031   6.974
 4474POPC   C4A57414   2.100   6.039   7.372
 4474POPC   C1B57415   1.835   5.684   6.249
 4474POPC   C2B57416   1.818   5.398   6.626
 4474POPC   C3B57417   1.932   5.577   7.047
 4474POPC   C4B57418   1.686   5.606   7.415
 4475POPC   NC357419  30.529  44.930   5.563
 4475POPC   PO457420  30.940  44.378   5.334
 4475POPC   GL157421  30.822  44.536   5.751
 4475POPC   GL257422  30.994  44.864   5.785
 4475POPC   C1A57423  30.596  44.428   6.147
 4475POPC   D2A57424  30.572  44.214   6.557
 4475POPC   C3A57425  30.377  44.471   6.877
 4475POPC   C4A57426  30.442  44.773   7.222
 4475POPC   C1B57427  31.115  44.665   6.176
 4475POPC   C2B57428  30.972  44.507   6.579
 4475POPC   C3B57429  30.908  44.459   7.028
 4475POPC   C4B57430  31.085  44.825   7.246
 4476POPC   NC357431  37.761   0.799   5.461
 4476POPC   PO457432  37.511   0.229   5.379
 4476POPC   GL157433  37.591   0.156   5.784
 4476POPC   GL257434  37.684   0.496   5.869
 4476POPC   C1A57435  37.701   0.124   6.204
 4476POPC   D2A57436  37.804   0.008   6.594
 4476POPC   C3A57437  37.758   0.350   6.879
 4476POPC   C4A57438  37.936   0.492   7.276
 4476POPC   C1B57439  37.855   0.684   6.287
 4476POPC   C2B57440  37.874   0.827   6.738
 4476POPC   C3B57441  38.161   0.930   7.071
 4476POPC   C4B57442  38.117   0.864   7.530
 4477POPC   NC357443  20.267  41.181   5.383
 4477POPC   PO457444  20.437  41.766   5.554
 4477POPC   GL157445  20.563  41.421   5.830
 4477POPC   GL257446  20.286  41.321   5.891
 4477POPC   C1A57447  20.671  41.352   6.285
 4477POPC   D2A57448  20.782  41.659   6.617
 4477POPC   C3A57449  20.942  41.448   6.941
 4477POPC   C4A57450  20.752  41.380   7.325
 4477POPC   C1B57451  20.283  41.686   6.185
 4477POPC   C2B57452  20.293  41.541   6.586
 4477POPC   C3B57453  20.398  41.588   6.999
 4477POPC   C4B57454  20.362  41.777   7.388
 4478POPC   NC357455  32.596  35.796   5.611
 4478POPC   PO457456  32.928  36.277   5.370
 4478POPC   GL157457  33.121  36.257   5.757
 4478POPC   GL257458  32.979  35.966   5.917
 4478POPC   C1A57459  33.044  36.392   6.185
 4478POPC   D2A57460  32.915  36.051   6.476
 4478POPC   C3A57461  32.948  36.086   6.907
 4478POPC   C4A57462  33.208  36.344   7.166
 4478POPC   C1B57463  33.090  35.647   6.236
 4478POPC   C2B57464  33.260  35.701   6.646
 4478POPC   C3B57465  33.462  35.941   6.962
 4478POPC   C4B57466  33.555  35.974   7.397
 4479POPC   NC357467  36.005  13.299   5.141
 4479POPC   PO457468  36.198  12.739   5.218
 4479POPC   GL157469  36.129  12.848   5.620
 4479POPC   GL257470  36.022  13.192   5.674
 4479POPC   C1A57471  36.253  12.693   6.001
 4479POPC   D2A57472  36.505  12.698   6.392
 4479POPC   C3A57473  36.357  12.749   6.825
 4479POPC   C4A57474  36.406  12.513   7.210
 4479POPC   C1B57475  36.018  13.111   6.137
 4479POPC   C2B57476  35.877  13.001   6.563
 4479POPC   C3B57477  36.029  13.157   6.969
 4479POPC   C4B57478  36.191  12.960   7.313
 4480POPC   NC357479  31.668   0.386   5.440
 4480POPC   PO457480  30.922   0.230   5.417
 4480POPC   GL157481  31.250   0.315   5.818
 4480POPC   GL257482  31.359   0.655   5.864
 4480POPC   C1A57483  31.456   0.369   6.294
 4480POPC   D2A57484  31.706   0.199   6.687
 4480POPC   C3A57485  31.690   0.292   7.107
 4480POPC   C4A57486  31.660   0.159   7.535
 4480POPC   C1B57487  31.357   0.907   6.281
 4480POPC   C2B57488  31.378   0.924   6.749
 4480POPC   C3B57489  31.352   1.027   7.217
 4480POPC   C4B57490  31.196   0.923   7.640
 4481POPC   NC357491  16.329  43.366   5.428
 4481POPC   PO457492  15.755  42.956   5.291
 4481POPC   GL157493  15.891  43.039   5.728
 4481POPC   GL257494  16.181  42.837   5.663
 4481POPC   C1A57495  15.781  43.219   6.174
 4481POPC   D2A57496  15.614  43.115   6.622
 4481POPC   C3A57497  15.834  43.215   7.051
 4481POPC   C4A57498  16.291  43.238   7.173
 4481POPC   C1B57499  16.185  42.765   6.113
 4481POPC   C2B57500  16.116  42.975   6.512
 4481POPC   C3B57501  16.122  42.816   6.913
 4481POPC   C4B57502  15.680  42.713   6.942
 4482POPC   NC357503  41.336  28.683   5.478
 4482POPC   PO457504  41.801  29.169   5.339
 4482POPC   GL157505  41.666  28.964   5.728
 4482POPC   GL257506  41.667  29.286   5.834
 4482POPC   C1A57507  41.416  28.952   6.137
 4482POPC   D2A57508  41.638  29.129   6.490
 4482POPC   C3A57509  41.487  29.189   6.907
 4482POPC   C4A57510  41.496  28.965   7.256
 4482POPC   C1B57511  41.877  29.460   6.175
 4482POPC   C2B57512  41.923  29.540   6.614
 4482POPC   C3B57513  41.994  29.316   6.971
 4482POPC   C4B57514  41.883  29.420   7.384
 4483POPC   NC357515  35.538  19.607   5.435
 4483POPC   PO457516  34.907  19.864   5.494
 4483POPC   GL157517  35.153  19.936   5.865
 4483POPC   GL257518  35.531  19.962   5.842
 4483POPC   C1A57519  35.152  19.742   6.270
 4483POPC   D2A57520  35.194  19.489   6.646
 4483POPC   C3A57521  35.128  19.700   7.038
 4483POPC   C4A57522  35.014  19.939   7.417
 4483POPC   C1B57523  35.664  19.795   6.259
 4483POPC   C2B57524  35.491  19.907   6.661
 4483POPC   C3B57525  35.455  20.095   7.069
 4483POPC   C4B57526  35.806  19.870   7.187
 4484POPC   NC357527  17.840  19.977   5.609
 4484POPC   PO457528  17.244  19.887   5.227
 4484POPC   GL157529  17.287  19.599   5.679
 4484POPC   GL257530  17.628  19.585   5.880
 4484POPC   C1A57531  17.210  19.563   6.179
 4484POPC   D2A57532  17.391  19.539   6.648
 4484POPC   C3A57533  17.156  19.684   7.035
 4484POPC   C4A57534  17.171  20.043   7.321
 4484POPC   C1B57535  17.686  19.833   6.299
 4484POPC   C2B57536  17.802  19.927   6.742
 4484POPC   C3B57537  17.641  19.874   7.151
 4484POPC   C4B57538  17.640  20.098   7.535
 4485POPC   NC357539   2.042   9.738   5.001
 4485POPC   PO457540   2.011   9.802   5.646
 4485POPC   GL157541   2.099   9.600   5.952
 4485POPC   GL257542   1.754   9.467   5.951
 4485POPC   C1A57543   2.254   9.797   6.278
 4485POPC   D2A57544   2.153  10.067   6.564
 4485POPC   C3A57545   2.261   9.797   6.855
 4485POPC   C4A57546   2.317   9.709   7.257
 4485POPC   C1B57547   1.751   9.671   6.340
 4485POPC   C2B57548   1.762   9.788   6.753
 4485POPC   C3B57549   1.816   9.595   7.136
 4485POPC   C4B57550   1.548   9.561   7.485
 4486POPC   NC357551  19.793  36.572   5.566
 4486POPC   PO457552  19.832  37.258   5.311
 4486POPC   GL157553  19.718  37.068   5.713
 4486POPC   GL257554  20.076  36.980   5.750
 4486POPC   C1A57555  19.770  36.976   6.166
 4486POPC   D2A57556  19.924  37.207   6.526
 4486POPC   C3A57557  19.709  37.037   6.864
 4486POPC   C4A57558  19.780  37.095   7.270
 4486POPC   C1B57559  20.191  36.656   6.064
 4486POPC   C2B57560  20.120  36.712   6.487
 4486POPC   C3B57561  20.188  36.861   6.877
 4486POPC   C4B57562  20.044  36.638   7.220
 4487POPC   NC357563  33.790  20.679   5.208
 4487POPC   PO457564  33.412  20.338   5.552
 4487POPC   GL157565  33.746  20.488   5.796
 4487POPC   GL257566  33.814  20.849   5.813
 4487POPC   C1A57567  33.880  20.558   6.229
 4487POPC   D2A57568  33.976  20.571   6.656
 4487POPC   C3A57569  33.653  20.565   6.985
 4487POPC   C4A57570  33.903  20.556   7.320
 4487POPC   C1B57571  33.510  20.890   6.158
 4487POPC   C2B57572  33.438  20.697   6.548
 4487POPC   C3B57573  33.424  20.999   6.930
 4487POPC   C4B57574  33.684  21.007   7.293
 4488POPC   NC357575  12.715  41.773   5.331
 4488POPC   PO457576  13.132  41.269   5.497
 4488POPC   GL157577  12.879  41.442   5.854
 4488POPC   GL257578  12.717  41.747   5.839
 4488POPC   C1A57579  12.879  41.561   6.291
 4488POPC   D2A57580  13.012  41.296   6.610
 4488POPC   C3A57581  12.996  41.574   6.914
 4488POPC   C4A57582  12.867  41.663   7.302
 4488POPC   C1B57583  12.447  41.880   6.158
 4488POPC   C2B57584  12.582  41.901   6.572
 4488POPC   C3B57585  12.482  41.755   6.944
 4488POPC   C4B57586  12.392  41.920   7.318
 4489POPC   NC357587  10.364  29.120   5.697
 4489POPC   PO457588  10.944  28.862   5.647
 4489POPC   GL157589  10.750  29.234   5.997
 4489POPC   GL257590  10.338  29.157   6.183
 4489POPC   C1A57591  10.632  29.479   6.422
 4489POPC   D2A57592  10.316  29.345   6.727
 4489POPC   C3A57593  10.476  29.284   7.161
 4489POPC   C4A57594  10.686  29.339   7.578
 4489POPC   C1B57595  10.627  28.962   6.396
 4489POPC   C2B57596  10.669  28.959   6.795
 4489POPC   C3B57597  10.610  28.715   7.101
 4489POPC   C4B57598  10.593  28.855   7.506
 4490POPC   NC357599  35.932  42.749   5.284
 4490POPC   PO457600  35.985  42.141   5.595
 4490POPC   GL157601  36.282  42.412   5.775
 4490POPC   GL257602  36.555  42.204   5.755
 4490POPC   C1A57603  36.234  42.474   6.232
 4490POPC   D2A57604  35.935  42.343   6.573
 4490POPC   C3A57605  35.927  42.540   6.980
 4490POPC   C4A57606  36.074  42.384   7.391
 4490POPC   C1B57607  36.372  41.974   6.106
 4490POPC   C2B57608  36.391  42.064   6.543
 4490POPC   C3B57609  36.227  42.114   6.973
 4490POPC   C4B57610  36.418  42.026   7.379
 4491POPC   NC357611  15.246  11.550   5.393
 4491POPC   PO457612  14.914  10.945   5.381
 4491POPC   GL157613  15.014  11.246   5.729
 4491POPC   GL257614  15.254  10.988   5.813
 4491POPC   C1A57615  15.244  11.376   6.146
 4491POPC   D2A57616  15.429  11.502   6.549
 4491POPC   C3A57617  15.286  11.345   6.945
 4491POPC   C4A57618  15.170  11.590   7.315
 4491POPC   C1B57619  14.911  10.977   6.136
 4491POPC   C2B57620  14.878  11.151   6.534
 4491POPC   C3B57621  14.890  10.948   6.928
 4491POPC   C4B57622  14.937  11.153   7.301
 4492POPC   NC357623   0.222  32.703   5.690
 4492POPC   PO457624   0.021  33.312   5.473
 4492POPC   GL157625  44.779  33.187   5.836
 4492POPC   GL257626  44.580  32.873   5.773
 4492POPC   C1A57627  44.755  33.074   6.266
 4492POPC   D2A57628  44.920  32.778   6.584
 4492POPC   C3A57629  44.813  33.020   6.957
 4492POPC   C4A57630  44.451  33.179   7.175
 4492POPC   C1B57631  44.488  32.662   6.180
 4492POPC   C2B57632  44.421  32.828   6.608
 4492POPC   C3B57633  44.413  32.682   7.027
 4492POPC   C4B57634  44.193  32.766   7.399
 4493POPC   NC357635   1.573   2.865   5.430
 4493POPC   PO457636   0.967   2.885   5.250
 4493POPC   GL157637   1.107   2.873   5.717
 4493POPC   GL257638   1.200   2.510   5.776
 4493POPC   C1A57639   1.314   2.848   6.173
 4493POPC   D2A57640   1.633   2.852   6.530
 4493POPC   C3A57641   1.516   2.808   6.956
 4493POPC   C4A57642   1.280   2.701   7.324
 4493POPC   C1B57643   0.859   2.594   6.083
 4493POPC   C2B57644   0.890   2.692   6.514
 4493POPC   C3B57645   0.893   2.411   6.818
 4493POPC   C4B57646   0.895   2.417   7.211
 4494POPC   NC357647  12.897  37.847   5.342
 4494POPC   PO457648  12.429  37.441   5.687
 4494POPC   GL157649  12.819  37.611   5.825
 4494POPC   GL257650  13.172  37.482   5.825
 4494POPC   C1A57651  12.838  37.644   6.259
 4494POPC   D2A57652  12.912  37.871   6.623
 4494POPC   C3A57653  12.811  37.609   6.955
 4494POPC   C4A57654  12.592  37.536   7.356
 4494POPC   C1B57655  13.329  37.701   6.239
 4494POPC   C2B57656  13.430  37.872   6.658
 4494POPC   C3B57657  13.288  38.083   7.070
 4494POPC   C4B57658  13.077  38.141   7.543
 4495POPC   NC357659   2.979  34.547   5.193
 4495POPC   PO457660   2.345  34.689   5.180
 4495POPC   GL157661   2.621  34.654   5.623
 4495POPC   GL257662   2.966  34.522   5.693
 4495POPC   C1A57663   2.804  34.811   6.094
 4495POPC   D2A57664   2.963  34.889   6.566
 4495POPC   C3A57665   2.813  34.732   6.983
 4495POPC   C4A57666   2.721  34.793   7.451
 4495POPC   C1B57667   3.058  34.347   6.085
 4495POPC   C2B57668   2.974  34.218   6.516
 4495POPC   C3B57669   3.010  34.250   6.951
 4495POPC   C4B57670   2.674  34.296   7.240
 4496POPC   NC357671  26.229   5.904   5.259
 4496POPC   PO457672  26.859   5.684   5.491
 4496POPC   GL157673  26.659   5.667   5.864
 4496POPC   GL257674  26.772   5.983   5.904
 4496POPC   C1A57675  26.744   5.665   6.289
 4496POPC   D2A57676  27.063   5.802   6.568
 4496POPC   C3A57677  26.903   5.698   6.952
 4496POPC   C4A57678  27.071   5.887   7.251
 4496POPC   C1B57679  26.900   6.197   6.248
 4496POPC   C2B57680  26.874   6.436   6.594
 4496POPC   C3B57681  26.987   6.289   6.944
 4496POPC   C4B57682  26.658   6.190   7.170
 4497POPC   NC357683   3.894  32.374   5.670
 4497POPC   PO457684   3.322  32.005   5.489
 4497POPC   GL157685   3.460  32.152   5.891
 4497POPC   GL257686   3.403  32.505   5.886
 4497POPC   C1A57687   3.443  32.177   6.358
 4497POPC   D2A57688   3.262  32.338   6.752
 4497POPC   C3A57689   3.459  32.114   7.121
 4497POPC   C4A57690   3.843  31.830   7.137
 4497POPC   C1B57691   3.629  32.634   6.257
 4497POPC   C2B57692   3.733  32.512   6.652
 4497POPC   C3B57693   3.776  32.499   7.073
 4497POPC   C4B57694   3.680  32.680   7.481
 4498POPC   NC357695  14.569  13.178   5.454
 4498POPC   PO457696  14.486  12.444   5.413
 4498POPC   GL157697  14.407  12.449   5.854
 4498POPC   GL257698  14.359  12.818   5.859
 4498POPC   C1A57699  14.424  12.487   6.319
 4498POPC   D2A57700  14.348  12.763   6.667
 4498POPC   C3A57701  14.397  12.591   7.094
 4498POPC   C4A57702  14.111  12.554   7.445
 4498POPC   C1B57703  14.643  13.107   6.090
 4498POPC   C2B57704  14.685  13.219   6.505
 4498POPC   C3B57705  14.393  13.232   6.856
 4498POPC   C4B57706  14.503  13.128   7.298
 4499POPC   NC357707  42.246  27.847   5.135
 4499POPC   PO457708  41.893  27.412   5.551
 4499POPC   GL157709  42.198  27.643   5.834
 4499POPC   GL257710  42.500  27.823   5.803
 4499POPC   C1A57711  42.332  27.572   6.265
 4499POPC   D2A57712  42.216  27.389   6.648
 4499POPC   C3A57713  42.312  27.467   7.049
 4499POPC   C4A57714  42.566  27.366   7.358
 4499POPC   C1B57715  42.613  27.979   6.212
 4499POPC   C2B57716  42.643  27.739   6.661
 4499POPC   C3B57717  42.613  27.883   7.111
 4499POPC   C4B57718  42.562  27.802   7.580
 4500POPC   NC357719  43.337  41.151   5.112
 4500POPC   PO457720  42.984  40.744   5.500
 4500POPC   GL157721  42.816  40.788   5.914
 4500POPC   GL257722  42.915  41.102   5.884
 4500POPC   C1A57723  42.825  40.740   6.356
 4500POPC   D2A57724  43.173  40.756   6.649
 4500POPC   C3A57725  43.075  40.663   7.054
 4500POPC   C4A57726  43.284  40.378   7.251
 4500POPC   C1B57727  43.179  41.104   6.241
 4500POPC   C2B57728  43.021  41.247   6.624
 4500POPC   C3B57729  43.089  41.187   7.024
 4500POPC   C4B57730  43.318  41.057   7.332
 4501POPC   NC357731  44.368  19.809   5.342
 4501POPC   PO457732   0.124  19.788   5.391
 4501POPC   GL157733  44.860  19.970   5.717
 4501POPC   GL257734   0.113  20.062   5.929
 4501POPC   C1A57735  44.592  19.999   6.123
 4501POPC   D2A57736  44.320  19.823   6.479
 4501POPC   C3A57737  44.371  19.943   6.923
 4501POPC   C4A57738  44.544  19.603   7.143
 4501POPC   C1B57739   0.056  19.816   6.309
 4501POPC   C2B57740  44.813  19.841   6.709
 4501POPC   C3B57741  44.923  19.934   7.136
 4501POPC   C4B57742   0.030  19.992   7.566
 4502POPC   NC357743  18.955  37.096   5.415
 4502POPC   PO457744  19.344  36.634   5.674
 4502POPC   GL157745  19.110  36.781   5.985
 4502POPC   GL257746  18.968  37.093   5.932
 4502POPC   C1A57747  19.272  37.007   6.339
 4502POPC   D2A57748  19.208  36.891   6.746
 4502POPC   C3A57749  19.266  37.005   7.141
 4502POPC   C4A57750  19.524  36.658   7.197
 4502POPC   C1B57751  18.756  36.928   6.338
 4502POPC   C2B57752  18.719  36.804   6.790
 4502POPC   C3B57753  18.751  37.045   7.160
 4502POPC   C4B57754  18.941  37.037   7.575
 4503POPC   NC357755  26.736  37.426   5.427
 4503POPC   PO457756  27.306  37.559   5.315
 4503POPC   GL157757  26.956  37.878   5.564
 4503POPC   GL257758  26.559  37.834   5.694
 4503POPC   C1A57759  26.939  37.930   6.037
 4503POPC   D2A57760  26.933  37.593   6.366
 4503POPC   C3A57761  26.921  37.609   6.824
 4503POPC   C4A57762  27.151  37.839   7.132
 4503POPC   C1B57763  26.467  37.697   6.126
 4503POPC   C2B57764  26.510  37.832   6.579
 4503POPC   C3B57765  26.436  37.699   7.021
 4503POPC   C4B57766  26.397  37.813   7.480
 4504POPC   NC357767  10.041  17.610   5.446
 4504POPC   PO457768   9.926  16.952   5.356
 4504POPC   GL157769   9.933  17.205   5.776
 4504POPC   GL257770   9.984  17.610   5.935
 4504POPC   C1A57771   9.721  17.267   6.177
 4504POPC   D2A57772   9.969  17.495   6.470
 4504POPC   C3A57773   9.803  17.502   6.850
 4504POPC   C4A57774   9.944  17.233   7.139
 4504POPC   C1B57775   9.667  17.821   6.226
 4504POPC   C2B57776   9.540  17.948   6.656
 4504POPC   C3B57777   9.473  17.797   7.092
 4504POPC   C4B57778   9.420  17.849   7.588
 4505POPC   NC357779  36.401  32.755   5.539
 4505POPC   PO457780  35.964  33.213   5.270
 4505POPC   GL157781  36.016  33.058   5.706
 4505POPC   GL257782  36.311  33.275   5.757
 4505POPC   C1A57783  36.015  32.917   6.157
 4505POPC   D2A57784  35.771  32.818   6.536
 4505POPC   C3A57785  35.963  32.921   6.930
 4505POPC   C4A57786  35.831  32.968   7.340
 4505POPC   C1B57787  36.386  33.296   6.183
 4505POPC   C2B57788  36.268  33.205   6.587
 4505POPC   C3B57789  36.430  33.304   6.994
 4505POPC   C4B57790  36.343  33.011   7.299
 4506POPC   NC357791  37.600  18.806   5.506
 4506POPC   PO457792  37.328  19.476   5.512
 4506POPC   GL157793  37.588  19.244   5.861
 4506POPC   GL257794  37.967  19.206   5.835
 4506POPC   C1A57795  37.664  18.973   6.254
 4506POPC   D2A57796  37.632  18.778   6.690
 4506POPC   C3A57797  37.597  18.959   7.084
 4506POPC   C4A57798  37.229  19.185   7.158
 4506POPC   C1B57799  38.183  19.124   6.226
 4506POPC   C2B57800  38.044  19.141   6.655
 4506POPC   C3B57801  38.068  19.217   7.084
 4506POPC   C4B57802  37.973  19.029   7.428
 4507POPC   NC357803  15.368   7.286   5.192
 4507POPC   PO457804  14.825   7.394   5.576
 4507POPC   GL157805  15.014   7.249   5.910
 4507POPC   GL257806  15.313   7.194   5.717
 4507POPC   C1A57807  15.002   7.169   6.350
 4507POPC   D2A57808  15.156   7.048   6.756
 4507POPC   C3A57809  15.040   7.320   7.112
 4507POPC   C4A57810  14.988   7.361   7.561
 4507POPC   C1B57811  15.462   7.195   6.131
 4507POPC   C2B57812  15.536   7.367   6.545
 4507POPC   C3B57813  15.547   7.334   6.991
 4507POPC   C4B57814  15.445   7.089   7.371
 4508POPC   NC357815  26.663  33.906   5.466
 4508POPC   PO457816  26.811  33.314   5.647
 4508POPC   GL157817  26.828  33.676   5.916
 4508POPC   GL257818  26.471  33.671   5.912
 4508POPC   C1A57819  27.064  33.941   6.245
 4508POPC   D2A57820  27.111  34.210   6.629
 4508POPC   C3A57821  27.078  33.971   7.034
 4508POPC   C4A57822  26.922  33.897   7.469
 4508POPC   C1B57823  26.523  34.028   6.177
 4508POPC   C2B57824  26.651  34.006   6.592
 4508POPC   C3B57825  26.662  33.694   6.891
 4508POPC   C4B57826  26.692  33.514   7.254
 4509POPC   NC357827   3.074  29.040   4.980
 4509POPC   PO457828   3.566  29.286   5.362
 4509POPC   GL157829   3.582  29.437   5.806
 4509POPC   GL257830   3.251  29.561   5.887
 4509POPC   C1A57831   3.797  29.380   6.227
 4509POPC   D2A57832   3.745  29.610   6.640
 4509POPC   C3A57833   3.825  29.365   7.026
 4509POPC   C4A57834   3.793  29.017   7.341
 4509POPC   C1B57835   3.295  29.381   6.277
 4509POPC   C2B57836   3.431  29.183   6.649
 4509POPC   C3B57837   3.316  29.213   7.083
 4509POPC   C4B57838   3.305  29.078   7.510
 4510POPC   NC357839  39.001  13.234   5.049
 4510POPC   PO457840  39.588  13.151   5.443
 4510POPC   GL157841  39.334  12.956   5.773
 4510POPC   GL257842  39.276  12.572   5.799
 4510POPC   C1A57843  39.232  13.151   6.175
 4510POPC   D2A57844  39.259  13.345   6.566
 4510POPC   C3A57845  39.144  13.055   6.890
 4510POPC   C4A57846  39.240  12.885   7.280
 4510POPC   C1B57847  39.072  12.672   6.144
 4510POPC   C2B57848  39.230  12.696   6.537
 4510POPC   C3B57849  39.154  12.523   6.947
 4510POPC   C4B57850  38.788  12.653   7.191
 4511POPC   NC357851  23.164  42.575   5.492
 4511POPC   PO457852  22.570  42.530   5.514
 4511POPC   GL157853  22.880  42.419   5.874
 4511POPC   GL257854  23.239  42.245   5.859
 4511POPC   C1A57855  22.916  42.418   6.305
 4511POPC   D2A57856  22.687  42.295   6.635
 4511POPC   C3A57857  22.836  42.330   7.036
 4511POPC   C4A57858  22.543  42.439   7.321
 4511POPC   C1B57859  23.365  42.191   6.283
 4511POPC   C2B57860  23.227  42.191   6.742
 4511POPC   C3B57861  23.282  42.112   7.216
 4511POPC   C4B57862  23.399  41.987   7.674
 4512POPC   NC357863   2.223   4.532   5.429
 4512POPC   PO457864   1.721   4.206   5.690
 4512POPC   GL157865   2.000   4.296   5.995
 4512POPC   GL257866   2.211   4.593   5.943
 4512POPC   C1A57867   1.805   4.220   6.384
 4512POPC   D2A57868   1.824   4.389   6.752
 4512POPC   C3A57869   2.176   4.308   6.964
 4512POPC   C4A57870   2.287   4.150   7.346
 4512POPC   C1B57871   2.207   4.553   6.395
 4512POPC   C2B57872   2.495   4.633   6.713
 4512POPC   C3B57873   2.476   4.660   7.159
 4512POPC   C4B57874   2.054   4.682   7.305
 4513POPC   NC357875  43.623  21.936   5.359
 4513POPC   PO457876  44.211  22.210   5.581
 4513POPC   GL157877  44.039  21.971   5.911
 4513POPC   GL257878  43.740  21.882   5.862
 4513POPC   C1A57879  44.069  22.109   6.288
 4513POPC   D2A57880  44.018  22.453   6.519
 4513POPC   C3A57881  44.248  22.338   6.842
 4513POPC   C4A57882  44.204  22.359   7.271
 4513POPC   C1B57883  43.533  22.152   6.185
 4513POPC   C2B57884  43.519  22.395   6.578
 4513POPC   C3B57885  43.742  22.353   6.970
 4513POPC   C4B57886  43.740  22.586   7.356
 4514POPC   NC357887   4.676   5.081   5.508
 4514POPC   PO457888   3.984   5.191   5.438
 4514POPC   GL157889   4.246   5.046   5.760
 4514POPC   GL257890   4.415   5.374   5.849
 4514POPC   C1A57891   4.374   4.861   6.144
 4514POPC   D2A57892   4.103   4.892   6.517
 4514POPC   C3A57893   4.335   4.874   6.898
 4514POPC   C4A57894   4.178   4.853   7.305
 4514POPC   C1B57895   4.171   5.331   6.242
 4514POPC   C2B57896   4.174   5.376   6.673
 4514POPC   C3B57897   4.133   5.337   7.094
 4514POPC   C4B57898   4.456   5.502   7.321
 4515POPC   NC357899  30.822  42.656   5.663
 4515POPC   PO457900  30.445  42.191   5.541
 4515POPC   GL157901  30.676  42.212   5.940
 4515POPC   GL257902  31.007  42.128   5.803
 4515POPC   C1A57903  30.745  42.499   6.312
 4515POPC   D2A57904  30.560  42.605   6.689
 4515POPC   C3A57905  30.731  42.358   6.975
 4515POPC   C4A57906  30.649  42.330   7.371
 4515POPC   C1B57907  31.146  42.038   6.219
 4515POPC   C2B57908  30.962  42.003   6.664
 4515POPC   C3B57909  31.011  41.937   7.139
 4515POPC   C4B57910  31.048  42.066   7.596
 4516POPC   NC357911   8.072  12.492   5.393
 4516POPC   PO457912   8.521  12.978   5.546
 4516POPC   GL157913   8.192  12.799   5.799
 4516POPC   GL257914   8.385  12.507   5.851
 4516POPC   C1A57915   7.938  12.820   6.201
 4516POPC   D2A57916   7.833  12.812   6.657
 4516POPC   C3A57917   8.153  13.052   6.868
 4516POPC   C4A57918   8.173  13.266   7.280
 4516POPC   C1B57919   8.450  12.687   6.228
 4516POPC   C2B57920   8.299  12.557   6.592
 4516POPC   C3B57921   8.433  12.547   7.008
 4516POPC   C4B57922   8.116  12.737   7.258
 4517POPC   NC357923  25.131  29.418   5.441
 4517POPC   PO457924  25.151  28.776   5.380
 4517POPC   GL157925  25.109  29.035   5.789
 4517POPC   GL257926  25.408  29.275   5.837
 4517POPC   C1A57927  25.140  29.002   6.248
 4517POPC   D2A57928  24.908  28.986   6.626
 4517POPC   C3A57929  25.178  28.884   6.965
 4517POPC   C4A57930  25.386  29.131   7.298
 4517POPC   C1B57931  25.607  29.192   6.214
 4517POPC   C2B57932  25.424  29.254   6.620
 4517POPC   C3B57933  25.623  29.459   6.950
 4517POPC   C4B57934  25.601  29.595   7.344
 4518POPC   NC357935  44.753   1.302   5.227
 4518POPC   PO457936  44.381   0.931   5.677
 4518POPC   GL157937  44.583   1.231   5.912
 4518POPC   GL257938  44.916   1.144   5.811
 4518POPC   C1A57939  44.429   1.260   6.340
 4518POPC   D2A57940  44.607   0.984   6.685
 4518POPC   C3A57941  44.592   1.194   7.079
 4518POPC   C4A57942  44.270   1.448   7.261
 4518POPC   C1B57943  44.929   1.245   6.292
 4518POPC   C2B57944  44.917   1.409   6.711
 4518POPC   C3B57945   0.093   1.417   7.131
 4518POPC   C4B57946  44.991   1.059   7.427
 4519POPC   NC357947  22.386  40.332   5.523
 4519POPC   PO457948  22.228  39.651   5.543
 4519POPC   GL157949  22.036  39.960   5.792
 4519POPC   GL257950  22.294  40.152   5.988
 4519POPC   C1A57951  21.915  39.909   6.227
 4519POPC   D2A57952  22.195  39.944   6.583
 4519POPC   C3A57953  22.094  39.743   6.978
 4519POPC   C4A57954  22.227  39.686   7.414
 4519POPC   C1B57955  22.077  40.415   6.249
 4519POPC   C2B57956  21.970  40.418   6.652
 4519POPC   C3B57957  22.091  40.256   7.018
 4519POPC   C4B57958  21.842  40.444   7.283
 4520POPC   NC357959  18.019  15.208   5.520
 4520POPC   PO457960  18.349  14.607   5.558
 4520POPC   GL157961  18.207  14.849   5.931
 4520POPC   GL257962  18.261  15.216   5.961
 4520POPC   C1A57963  17.923  14.914   6.299
 4520POPC   D2A57964  17.849  15.010   6.731
 4520POPC   C3A57965  18.222  15.176   6.939
 4520POPC   C4A57966  18.423  15.219   7.377
 4520POPC   C1B57967  18.246  15.347   6.387
 4520POPC   C2B57968  18.525  15.582   6.654
 4520POPC   C3B57969  18.415  15.647   7.075
 4520POPC   C4B57970  18.052  15.568   7.382
 4521POPC   NC357971  42.855  33.006   5.593
 4521POPC   PO457972  43.315  33.442   5.554
 4521POPC   GL157973  43.238  33.172   5.898
 4521POPC   GL257974  43.316  32.837   5.774
 4521POPC   C1A57975  43.299  33.093   6.327
 4521POPC   D2A57976  43.038  32.940   6.607
 4521POPC   C3A57977  43.094  33.059   6.998
 4521POPC   C4A57978  43.221  33.192   7.376
 4521POPC   C1B57979  43.095  32.677   6.162
 4521POPC   C2B57980  43.032  32.405   6.535
 4521POPC   C3B57981  43.035  32.554   6.942
 4521POPC   C4B57982  43.217  32.496   7.326
 4522POPC   NC357983  18.749  26.658   5.450
 4522POPC   PO457984  19.460  26.598   5.457
 4522POPC   GL157985  19.186  26.511   5.821
 4522POPC   GL257986  18.934  26.788   5.909
 4522POPC   C1A57987  19.294  26.686   6.235
 4522POPC   D2A57988  19.351  26.991   6.538
 4522POPC   C3A57989  19.240  26.810   6.896
 4522POPC   C4A57990  19.392  27.013   7.261
 4522POPC   C1B57991  18.904  27.040   6.297
 4522POPC   C2B57992  18.771  26.977   6.745
 4522POPC   C3B57993  18.858  26.947   7.202
 4522POPC   C4B57994  18.847  26.704   7.617
 4523POPC   NC357995  26.255  10.106   5.131
 4523POPC   PO457996  25.946   9.543   5.431
 4523POPC   GL157997  26.115   9.726   5.760
 4523POPC   GL257998  26.375   9.925   5.624
 4523POPC   C1A57999  25.911   9.782   6.148
 4523POPC   D2A58000  25.870   9.570   6.531
 4523POPC   C3A58001  25.738   9.791   6.853
 4523POPC   C4A58002  25.789   9.661   7.237
 4523POPC   C1B58003  26.363  10.016   6.105
 4523POPC   C2B58004  26.138  10.015   6.554
 4523POPC   C3B58005  26.224   9.702   6.907
 4523POPC   C4B58006  26.269   9.802   7.324
 4524POPC   NC358007   3.164  23.537   5.414
 4524POPC   PO458008   2.704  23.982   5.486
 4524POPC   GL158009   2.968  23.796   5.836
 4524POPC   GL258010   3.121  24.128   5.903
 4524POPC   C1A58011   2.869  23.594   6.282
 4524POPC   D2A58012   2.965  23.539   6.743
 4524POPC   C3A58013   2.738  23.738   7.060
 4524POPC   C4A58014   2.888  23.834   7.454
 4524POPC   C1B58015   2.704  24.094   6.149
 4524POPC   C2B58016   2.547  23.918   6.540
 4524POPC   C3B58017   2.434  24.133   6.907
 4524POPC   C4B58018   2.498  24.120   7.342
 4525POPC   NC358019   0.961  42.735   5.511
 4525POPC   PO458020   1.131  43.353   5.528
 4525POPC   GL158021   1.336  43.123   5.837
 4525POPC   GL258022   1.576  43.330   5.988
 4525POPC   C1A58023   1.146  43.007   6.235
 4525POPC   D2A58024   0.938  42.974   6.638
 4525POPC   C3A58025   1.042  43.059   7.113
 4525POPC   C4A58026   0.919  42.952   7.571
 4525POPC   C1B58027   1.668  42.961   6.249
 4525POPC   C2B58028   1.459  42.882   6.632
 4525POPC   C3B58029   1.618  42.870   7.036
 4525POPC   C4B58030   1.506  43.135   7.339
 4526POPC   NC358031  19.777  42.819   5.456
 4526POPC   PO458032  19.581  42.114   5.466
 4526POPC   GL158033  19.791  42.345   5.768
 4526POPC   GL258034  19.597  42.581   5.886
 4526POPC   C1A58035  19.985  42.453   6.171
 4526POPC   D2A58036  19.816  42.351   6.565
 4526POPC   C3A58037  20.093  42.252   6.914
 4526POPC   C4A58038  20.009  42.128   7.338
 4526POPC   C1B58039  19.545  42.763   6.291
 4526POPC   C2B58040  19.716  42.815   6.720
 4526POPC   C3B58041  19.866  42.653   7.153
 4526POPC   C4B58042  19.758  42.502   7.586
 4527POPC   NC358043  33.852  31.244   5.453
 4527POPC   PO458044  34.064  31.852   5.768
 4527POPC   GL158045  33.963  31.430   5.914
 4527POPC   GL258046  33.595  31.325   5.887
 4527POPC   C1A58047  33.912  31.419   6.321
 4527POPC   D2A58048  33.890  31.782   6.601
 4527POPC   C3A58049  33.915  31.683   7.046
 4527POPC   C4A58050  34.116  31.307   7.225
 4527POPC   C1B58051  33.412  31.501   6.259
 4527POPC   C2B58052  33.550  31.273   6.641
 4527POPC   C3B58053  33.681  31.094   7.012
 4527POPC   C4B58054  33.630  31.362   7.352
 4528POPC   NC358055  16.474   9.643   5.329
 4528POPC   PO458056  17.128   9.608   5.507
 4528POPC   GL158057  16.772   9.736   5.780
 4528POPC   GL258058  16.397   9.664   5.828
 4528POPC   C1A58059  16.793   9.741   6.211
 4528POPC   D2A58060  16.658   9.518   6.593
 4528POPC   C3A58061  16.935   9.531   6.941
 4528POPC   C4A58062  17.114   9.908   7.133
 4528POPC   C1B58063  16.327   9.926   6.171
 4528POPC   C2B58064  16.546  10.011   6.561
 4528POPC   C3B58065  16.584   9.918   6.972
 4528POPC   C4B58066  16.412   9.770   7.312
 4529POPC   NC358067  29.763  44.894   5.315
 4529POPC   PO458068  30.209  44.500   5.572
 4529POPC   GL158069  29.862  44.725   5.808
 4529POPC   GL258070  30.010  44.530   6.048
 4529POPC   C1A58071  29.606  44.761   6.226
 4529POPC   D2A58072  29.591  44.900   6.672
 4529POPC   C3A58073  29.924  44.824   7.022
 4529POPC   C4A58074  29.978  44.952   7.479
 4529POPC   C1B58075  29.989  44.566   6.503
 4529POPC   C2B58076  29.769  44.374   6.845
 4529POPC   C3B58077  30.017  44.287   7.191
 4529POPC   C4B58078  30.179  44.492   7.561
 4530POPC   NC358079  12.633  32.846   5.482
 4530POPC   PO458080  13.109  33.274   5.552
 4530POPC   GL158081  12.959  33.020   5.867
 4530POPC   GL258082  12.637  33.093   5.909
 4530POPC   C1A58083  13.004  32.837   6.267
 4530POPC   D2A58084  12.820  32.628   6.611
 4530POPC   C3A58085  13.046  32.794   6.939
 4530POPC   C4A58086  12.901  32.795   7.334
 4530POPC   C1B58087  12.548  33.235   6.264
 4530POPC   C2B58088  12.759  33.149   6.618
 4530POPC   C3B58089  12.594  33.006   6.968
 4530POPC   C4B58090  12.495  33.122   7.342
 4531POPC   NC358091  11.814   4.331   5.287
 4531POPC   PO458092  12.494   4.346   5.279
 4531POPC   GL158093  12.284   4.350   5.725
 4531POPC   GL258094  11.966   4.492   5.746
 4531POPC   C1A58095  12.118   4.188   6.152
 4531POPC   D2A58096  11.944   4.095   6.588
 4531POPC   C3A58097  12.233   4.083   6.925
 4531POPC   C4A58098  12.218   4.304   7.328
 4531POPC   C1B58099  11.817   4.689   6.115
 4531POPC   C2B58100  11.878   4.818   6.548
 4531POPC   C3B58101  11.969   4.643   6.961
 4531POPC   C4B58102  11.690   4.655   7.314
 4532POPC   NC358103  18.554  42.086   5.047
 4532POPC   PO458104  17.964  42.199   5.326
 4532POPC   GL158105  18.085  42.240   5.773
 4532POPC   GL258106  18.395  42.413   5.770
 4532POPC   C1A58107  18.343  42.145   6.200
 4532POPC   D2A58108  18.606  42.284   6.573
 4532POPC   C3A58109  18.369  42.113   6.911
 4532POPC   C4A58110  18.113  41.963   7.268
 4532POPC   C1B58111  18.201  42.635   6.102
 4532POPC   C2B58112  18.133  42.515   6.505
 4532POPC   C3B58113  18.285  42.683   6.866
 4532POPC   C4B58114  18.156  42.485   7.241
 4533POPC   NC358115  12.522  35.358   5.281
 4533POPC   PO458116  13.124  35.442   5.348
 4533POPC   GL158117  13.076  35.364   5.784
 4533POPC   GL258118  12.770  35.409   5.924
 4533POPC   C1A58119  13.123  35.552   6.242
 4533POPC   D2A58120  13.199  35.726   6.654
 4533POPC   C3A58121  12.999  35.477   7.018
 4533POPC   C4A58122  13.090  35.156   7.355
 4533POPC   C1B58123  12.532  35.128   6.191
 4533POPC   C2B58124  12.539  34.945   6.590
 4533POPC   C3B58125  12.680  35.049   7.005
 4533POPC   C4B58126  12.592  35.298   7.375
 4534POPC   NC358127  33.420   0.194   5.481
 4534POPC   PO458128  33.858   0.712   5.490
 4534POPC   GL158129  33.965   0.530   5.874
 4534POPC   GL258130  33.851   0.257   5.798
 4534POPC   C1A58131  34.033   0.447   6.302
 4534POPC   D2A58132  33.727   0.657   6.485
 4534POPC   C3A58133  33.796   0.634   6.885
 4534POPC   C4A58134  34.000   0.540   7.270
 4534POPC   C1B58135  33.611   0.217   6.187
 4534POPC   C2B58136  33.718   0.178   6.633
 4534POPC   C3B58137  33.596   0.204   7.059
 4534POPC   C4B58138  33.535   0.421   7.474
 4535POPC   NC358139  26.284  13.899   5.173
 4535POPC   PO458140  25.818  13.487   5.239
 4535POPC   GL158141  26.028  13.582   5.663
 4535POPC   GL258142  26.295  13.855   5.751
 4535POPC   C1A58143  25.922  13.738   6.104
 4535POPC   D2A58144  26.051  13.675   6.531
 4535POPC   C3A58145  25.809  13.708   6.927
 4535POPC   C4A58146  26.010  13.386   7.173
 4535POPC   C1B58147  26.348  14.070   6.183
 4535POPC   C2B58148  26.210  14.141   6.627
 4535POPC   C3B58149  26.289  13.810   6.990
 4535POPC   C4B58150  26.295  13.760   7.453
 4536POPC   NC358151   4.335  37.205   5.508
 4536POPC   PO458152   4.527  36.570   5.309
 4536POPC   GL158153   4.402  36.745   5.758
 4536POPC   GL258154   4.566  37.084   5.921
 4536POPC   C1A58155   4.238  36.839   6.188
 4536POPC   D2A58156   4.379  37.078   6.548
 4536POPC   C3A58157   4.251  36.855   6.950
 4536POPC   C4A58158   4.442  36.609   7.287
 4536POPC   C1B58159   4.818  37.301   6.218
 4536POPC   C2B58160   4.941  37.239   6.614
 4536POPC   C3B58161   4.716  37.084   6.939
 4536POPC   C4B58162   4.492  37.145   7.301
 4537POPC   NC358163  44.899  40.704   5.402
 4537POPC   PO458164  44.276  40.415   5.441
 4537POPC   GL158165  44.593  40.469   5.796
 4537POPC   GL258166  44.963  40.462   5.847
 4537POPC   C1A58167  44.580  40.543   6.247
 4537POPC   D2A58168  44.286  40.730   6.546
 4537POPC   C3A58169  44.188  40.618   6.984
 4537POPC   C4A58170  44.405  40.915   7.260
 4537POPC   C1B58171   0.023  40.830   6.113
 4537POPC   C2B58172   0.082  40.847   6.559
 4537POPC   C3B58173  44.980  40.668   6.964
 4537POPC   C4B58174  44.909  40.805   7.378
 4538POPC   NC358175  25.422   3.488   5.380
 4538POPC   PO458176  24.999   3.912   5.552
 4538POPC   GL158177  25.261   3.667   5.837
 4538POPC   GL258178  25.251   3.293   5.834
 4538POPC   C1A58179  25.361   3.700   6.271
 4538POPC   D2A58180  25.301   3.880   6.669
 4538POPC   C3A58181  25.255   3.689   7.052
 4538POPC   C4A58182  25.543   3.705   7.397
 4538POPC   C1B58183  25.207   3.205   6.283
 4538POPC   C2B58184  25.423   3.338   6.680
 4538POPC   C3B58185  25.558   3.287   7.124
 4538POPC   C4B58186  25.305   3.270   7.533
 4539POPC   NC358187  27.829  43.593   5.530
 4539POPC   PO458188  27.693  44.192   5.498
 4539POPC   GL158189  27.426  43.952   5.819
 4539POPC   GL258190  27.559  43.633   5.964
 4539POPC   C1A58191  27.328  43.970   6.275
 4539POPC   D2A58192  27.576  44.066   6.645
 4539POPC   C3A58193  27.605  43.886   7.038
 4539POPC   C4A58194  27.425  44.032   7.391
 4539POPC   C1B58195  27.774  43.668   6.363
 4539POPC   C2B58196  28.017  43.758   6.751
 4539POPC   C3B58197  28.025  43.642   7.193
 4539POPC   C4B58198  27.708  43.631   7.539
 4540POPC   NC358199  38.177   6.070   5.676
 4540POPC   PO458200  38.636   5.612   5.394
 4540POPC   GL158201  38.667   5.841   5.805
 4540POPC   GL258202  38.362   5.716   5.974
 4540POPC   C1A58203  38.558   6.078   6.231
 4540POPC   D2A58204  38.294   5.977   6.605
 4540POPC   C3A58205  38.298   6.211   7.017
 4540POPC   C4A58206  38.405   5.950   7.341
 4540POPC   C1B58207  38.668   5.548   6.246
 4540POPC   C2B58208  38.525   5.293   6.566
 4540POPC   C3B58209  38.403   5.484   6.928
 4540POPC   C4B58210  38.680   5.540   7.259
 4541POPC   NC358211  27.285  26.117   5.336
 4541POPC   PO458212  27.858  25.728   5.148
 4541POPC   GL158213  27.656  25.820   5.659
 4541POPC   GL258214  27.338  25.855   5.783
 4541POPC   C1A58215  27.664  26.008   6.132
 4541POPC   D2A58216  27.585  26.304   6.504
 4541POPC   C3A58217  27.738  26.095   6.886
 4541POPC   C4A58218  27.917  26.199   7.278
 4541POPC   C1B58219  27.165  25.833   6.232
 4541POPC   C2B58220  27.354  25.845   6.636
 4541POPC   C3B58221  27.394  25.775   7.095
 4541POPC   C4B58222  27.665  25.762   7.469
 4542POPC   NC358223  20.206  14.731   5.464
 4542POPC   PO458224  20.807  14.651   5.473
 4542POPC   GL158225  20.706  14.438   5.866
 4542POPC   GL258226  20.358  14.443   5.898
 4542POPC   C1A58227  20.767  14.310   6.298
 4542POPC   D2A58228  20.746  14.022   6.645
 4542POPC   C3A58229  20.754  14.275   6.995
 4542POPC   C4A58230  20.832  14.330   7.431
 4542POPC   C1B58231  20.363  14.683   6.282
 4542POPC   C2B58232  20.507  14.699   6.716
 4542POPC   C3B58233  20.439  14.650   7.160
 4542POPC   C4B58234  20.288  14.284   7.296
 4543POPC   NC358235  27.473  10.819   5.411
 4543POPC   PO458236  27.933  10.347   5.551
 4543POPC   GL158237  27.618  10.600   5.825
 4543POPC   GL258238  27.778  10.503   6.077
 4543POPC   C1A58239  27.400  10.791   6.201
 4543POPC   D2A58240  27.535  10.593   6.592
 4543POPC   C3A58241  27.375  10.762   6.988
 4543POPC   C4A58242  27.547  10.757   7.390
 4543POPC   C1B58243  27.836  10.177   6.325
 4543POPC   C2B58244  27.936  10.226   6.730
 4543POPC   C3B58245  27.845  10.064   7.096
 4543POPC   C4B58246  27.849  10.276   7.457
 4544POPC   NC358247  23.158  26.238   5.663
 4544POPC   PO458248  22.651  25.828   5.422
 4544POPC   GL158249  22.746  25.991   5.813
 4544POPC   GL258250  22.997  25.745   5.834
 4544POPC   C1A58251  22.835  26.092   6.247
 4544POPC   D2A58252  22.692  25.962   6.660
 4544POPC   C3A58253  22.895  26.215   6.985
 4544POPC   C4A58254  23.164  26.329   7.338
 4544POPC   C1B58255  22.824  25.570   6.205
 4544POPC   C2B58256  23.003  25.542   6.608
 4544POPC   C3B58257  22.993  25.696   6.996
 4544POPC   C4B58258  23.062  25.850   7.370
 4545POPC   NC358259  24.723  34.648   5.590
 4545POPC   PO458260  24.137  34.822   5.279
 4545POPC   GL158261  24.250  34.780   5.763
 4545POPC   GL258262  24.212  34.439   5.804
 4545POPC   C1A58263  24.536  34.636   6.184
 4545POPC   D2A58264  24.755  34.528   6.560
 4545POPC   C3A58265  24.586  34.542   6.954
 4545POPC   C4A58266  24.751  34.385   7.335
 4545POPC   C1B58267  24.044  34.600   6.210
 4545POPC   C2B58268  24.076  34.490   6.657
 4545POPC   C3B58269  24.118  34.653   7.069
 4545POPC   C4B58270  24.287  34.516   7.463
 4546POPC   NC358271   8.118  27.001   5.422
 4546POPC   PO458272   8.420  26.390   5.449
 4546POPC   GL158273   8.272  26.624   5.770
 4546POPC   GL258274   8.469  26.955   5.786
 4546POPC   C1A58275   8.136  26.468   6.180
 4546POPC   D2A58276   7.904  26.410   6.561
 4546POPC   C3A58277   7.946  26.669   6.912
 4546POPC   C4A58278   8.174  26.699   7.274
 4546POPC   C1B58279   8.195  27.010   6.126
 4546POPC   C2B58280   8.215  26.891   6.548
 4546POPC   C3B58281   8.272  27.104   6.949
 4546POPC   C4B58282   8.477  27.079   7.390
 4547POPC   NC358283   3.646  40.372   5.329
 4547POPC   PO458284   3.554  39.726   5.384
 4547POPC   GL158285   3.450  40.015   5.719
 4547POPC   GL258286   3.219  40.269   5.614
 4547POPC   C1A58287   3.623  40.042   6.158
 4547POPC   D2A58288   3.757  39.919   6.563
 4547POPC   C3A58289   3.561  40.118   6.896
 4547POPC   C4A58290   3.653  40.142   7.301
 4547POPC   C1B58291   3.174  40.281   6.061
 4547POPC   C2B58292   3.303  40.337   6.478
 4547POPC   C3B58293   3.116  40.368   6.872
 4547POPC   C4B58294   3.145  40.151   7.250
 4548POPC   NC358295  40.756  37.585   5.415
 4548POPC   PO458296  41.301  38.032   5.301
 4548POPC   GL158297  41.091  37.832   5.716
 4548POPC   GL258298  40.709  37.817   5.856
 4548POPC   C1A58299  41.085  37.882   6.185
 4548POPC   D2A58300  40.849  37.880   6.570
 4548POPC   C3A58301  40.991  38.048   6.972
 4548POPC   C4A58302  40.712  38.008   7.316
 4548POPC   C1B58303  40.806  37.468   6.130
 4548POPC   C2B58304  40.736  37.377   6.573
 4548POPC   C3B58305  40.730  37.586   7.004
 4548POPC   C4B58306  40.708  37.527   7.497
 4549POPC   NC358307  35.566  38.069   5.670
 4549POPC   PO458308  36.081  37.518   5.549
 4549POPC   GL158309  36.234  37.579   5.930
 4549POPC   GL258310  35.890  37.688   6.022
 4549POPC   C1A58311  36.308  37.753   6.324
 4549POPC   D2A58312  36.418  37.588   6.704
 4549POPC   C3A58313  36.179  37.808   7.001
 4549POPC   C4A58314  36.321  37.848   7.396
 4549POPC   C1B58315  35.965  37.365   6.366
 4549POPC   C2B58316  35.957  37.351   6.827
 4549POPC   C3B58317  35.833  37.242   7.254
 4549POPC   C4B58318  35.811  37.080   7.710
 4550POPC   NC358319  41.040   8.374   5.356
 4550POPC   PO458320  40.722   7.865   5.270
 4550POPC   GL158321  40.847   8.066   5.724
 4550POPC   GL258322  40.665   7.857   5.940
 4550POPC   C1A58323  40.974   8.170   6.201
 4550POPC   D2A58324  40.987   8.027   6.625
 4550POPC   C3A58325  40.865   8.238   6.999
 4550POPC   C4A58326  40.865   8.202   7.440
 4550POPC   C1B58327  40.499   7.971   6.327
 4550POPC   C2B58328  40.413   8.092   6.705
 4550POPC   C3B58329  40.460   7.933   7.068
 4550POPC   C4B58330  40.372   8.255   7.282
 4551POPC   NC358331  30.108  15.005   5.381
 4551POPC   PO458332  29.458  15.222   5.259
 4551POPC   GL158333  29.688  15.140   5.705
 4551POPC   GL258334  29.948  14.921   5.851
 4551POPC   C1A58335  29.804  15.339   6.140
 4551POPC   D2A58336  29.944  15.212   6.577
 4551POPC   C3A58337  29.899  15.372   6.988
 4551POPC   C4A58338  29.874  15.147   7.332
 4551POPC   C1B58339  29.921  14.812   6.241
 4551POPC   C2B58340  30.133  14.687   6.598
 4551POPC   C3B58341  30.145  14.893   6.975
 4551POPC   C4B58342  30.367  14.994   7.352
 4552POPC   NC358343  12.065   9.483   4.993
 4552POPC   PO458344  12.220   9.096   5.526
 4552POPC   GL158345  12.167   9.188   5.913
 4552POPC   GL258346  11.849   9.345   5.861
 4552POPC   C1A58347  12.322   8.975   6.296
 4552POPC   D2A58348  12.299   8.760   6.695
 4552POPC   C3A58349  12.014   8.807   6.998
 4552POPC   C4A58350  12.099   8.935   7.395
 4552POPC   C1B58351  11.814   9.094   6.252
 4552POPC   C2B58352  11.997   9.170   6.653
 4552POPC   C3B58353  11.949   9.312   7.073
 4552POPC   C4B58354  11.682   9.215   7.436
 4553POPC   NC358355  13.141  10.675   5.283
 4553POPC   PO458356  12.727  10.155   5.519
 4553POPC   GL158357  12.830  10.519   5.720
 4553POPC   GL258358  12.513  10.647   5.832
 4553POPC   C1A58359  12.983  10.620   6.129
 4553POPC   D2A58360  12.904  10.801   6.517
 4553POPC   C3A58361  13.119  10.781   6.898
 4553POPC   C4A58362  12.912  10.656   7.263
 4553POPC   C1B58363  12.570  10.273   6.132
 4553POPC   C2B58364  12.847  10.204   6.467
 4553POPC   C3B58365  12.778  10.375   6.871
 4553POPC   C4B58366  12.457  10.291   7.218
 4554POPC   NC358367   3.791   0.857   5.413
 4554POPC   PO458368   3.492   0.256   5.291
 4554POPC   GL158369   3.588   0.312   5.719
 4554POPC   GL258370   3.386   0.602   5.700
 4554POPC   C1A58371   3.439   0.216   6.162
 4554POPC   D2A58372   3.488   0.024   6.595
 4554POPC   C3A58373   3.377   0.320   6.901
 4554POPC   C4A58374   3.564   0.463   7.261
 4554POPC   C1B58375   3.626   0.693   6.080
 4554POPC   C2B58376   3.735   0.535   6.487
 4554POPC   C3B58377   3.720   0.731   6.868
 4554POPC   C4B58378   3.659   0.967   7.251
 4555POPC   NC358379  18.869  15.638   5.489
 4555POPC   PO458380  18.838  16.309   5.410
 4555POPC   GL158381  18.989  16.051   5.767
 4555POPC   GL258382  19.334  15.932   5.772
 4555POPC   C1A58383  18.928  15.770   6.138
 4555POPC   D2A58384  18.948  15.926   6.548
 4555POPC   C3A58385  18.944  15.726   6.942
 4555POPC   C4A58386  19.159  15.927   7.278
 4555POPC   C1B58387  19.304  16.147   6.199
 4555POPC   C2B58388  19.459  16.044   6.615
 4555POPC   C3B58389  19.534  16.182   7.039
 4555POPC   C4B58390  19.630  15.987   7.454
 4556POPC   NC358391  13.179  42.406   5.414
 4556POPC   PO458392  13.868  42.714   5.432
 4556POPC   GL158393  13.647  42.419   5.750
 4556POPC   GL258394  13.331  42.295   5.908
 4556POPC   C1A58395  13.816  42.223   6.096
 4556POPC   D2A58396  14.083  42.340   6.434
 4556POPC   C3A58397  13.787  42.311   6.758
 4556POPC   C4A58398  13.772  42.155   7.174
 4556POPC   C1B58399  13.403  41.962   6.263
 4556POPC   C2B58400  13.387  41.942   6.721
 4556POPC   C3B58401  13.328  42.307   6.987
 4556POPC   C4B58402  13.267  42.311   7.397
 4557POPC   NC358403   8.766  12.558   5.494
 4557POPC   PO458404   9.214  12.969   5.273
 4557POPC   GL158405   9.172  12.760   5.741
 4557POPC   GL258406   8.874  12.876   5.906
 4557POPC   C1A58407   9.306  12.740   6.207
 4557POPC   D2A58408   9.020  12.938   6.527
 4557POPC   C3A58409   9.141  13.051   6.958
 4557POPC   C4A58410   9.085  13.016   7.404
 4557POPC   C1B58411   8.897  12.472   6.115
 4557POPC   C2B58412   8.987  12.430   6.530
 4557POPC   C3B58413   9.123  12.505   6.953
 4557POPC   C4B58414   8.862  12.555   7.304
 4558POPC   NC358415  36.055   3.308   5.492
 4558POPC   PO458416  36.172   2.777   5.081
 4558POPC   GL158417  36.173   2.632   5.560
 4558POPC   GL258418  36.514   2.618   5.737
 4558POPC   C1A58419  36.050   2.549   6.029
 4558POPC   D2A58420  35.812   2.508   6.439
 4558POPC   C3A58421  35.963   2.665   6.843
 4558POPC   C4A58422  35.686   2.851   7.173
 4558POPC   C1B58423  36.371   2.953   5.986
 4558POPC   C2B58424  36.266   2.878   6.412
 4558POPC   C3B58425  36.390   2.983   6.817
 4558POPC   C4B58426  36.159   3.024   7.175
 4559POPC   NC358427  16.569  29.548   5.378
 4559POPC   PO458428  16.659  30.161   5.566
 4559POPC   GL158429  16.579  29.791   5.908
 4559POPC   GL258430  16.257  29.618   5.875
 4559POPC   C1A58431  16.717  29.673   6.381
 4559POPC   D2A58432  16.717  29.930   6.793
 4559POPC   C3A58433  16.908  29.825   7.210
 4559POPC   C4A58434  17.017  30.032   7.618
 4559POPC   C1B58435  16.207  29.709   6.367
 4559POPC   C2B58436  16.338  29.621   6.814
 4559POPC   C3B58437  16.404  29.859   7.258
 4559POPC   C4B58438  16.501  29.961   7.718
 4560POPC   NC358439   3.515  35.600   5.068
 4560POPC   PO458440   3.664  35.379   5.637
 4560POPC   GL158441   3.487  35.362   5.983
 4560POPC   GL258442   3.584  35.691   6.037
 4560POPC   C1A58443   3.251  35.221   6.312
 4560POPC   D2A58444   3.372  35.188   6.734
 4560POPC   C3A58445   3.187  35.069   7.113
 4560POPC   C4A58446   3.502  34.892   7.415
 4560POPC   C1B58447   3.657  35.570   6.450
 4560POPC   C2B58448   3.628  35.598   6.892
 4560POPC   C3B58449   3.627  35.316   7.196
 4560POPC   C4B58450   3.842  35.297   7.582
 4561POPC   NC358451  34.402  30.832   5.309
 4561POPC   PO458452  34.862  30.416   5.526
 4561POPC   GL158453  34.542  30.637   5.773
 4561POPC   GL258454  34.584  30.990   5.761
 4561POPC   C1A58455  34.353  30.573   6.182
 4561POPC   D2A58456  34.579  30.456   6.561
 4561POPC   C3A58457  34.426  30.548   6.980
 4561POPC   C4A58458  34.679  30.501   7.346
 4561POPC   C1B58459  34.338  31.095   6.116
 4561POPC   C2B58460  34.390  30.952   6.548
 4561POPC   C3B58461  34.690  30.995   6.891
 4561POPC   C4B58462  34.526  31.007   7.293
 4562POPC   NC358463  34.452  14.872   5.555
 4562POPC   PO458464  34.834  15.485   5.414
 4562POPC   GL158465  34.689  15.345   5.846
 4562POPC   GL258466  34.323  15.248   5.876
 4562POPC   C1A58467  34.706  15.272   6.320
 4562POPC   D2A58468  34.677  15.002   6.713
 4562POPC   C3A58469  34.626  15.193   7.128
 4562POPC   C4A58470  34.643  15.203   7.576
 4562POPC   C1B58471  34.353  15.617   6.166
 4562POPC   C2B58472  34.531  15.704   6.589
 4562POPC   C3B58473  34.451  15.657   7.042
 4562POPC   C4B58474  34.389  15.653   7.522
 4563POPC   NC358475  44.209  12.512   5.572
 4563POPC   PO458476  43.822  13.065   5.517
 4563POPC   GL158477  43.914  12.825   5.852
 4563POPC   GL258478  43.713  12.527   5.765
 4563POPC   C1A58479  43.949  12.899   6.283
 4563POPC   D2A58480  43.678  13.043   6.597
 4563POPC   C3A58481  43.971  12.947   6.907
 4563POPC   C4A58482  44.029  12.621   7.204
 4563POPC   C1B58483  43.504  12.669   6.157
 4563POPC   C2B58484  43.569  12.536   6.589
 4563POPC   C3B58485  43.532  12.673   7.015
 4563POPC   C4B58486  43.594  12.731   7.470
 4564POPC   NC358487  20.058  23.850   5.482
 4564POPC   PO458488  19.844  23.243   5.535
 4564POPC   GL158489  19.862  23.529   5.876
 4564POPC   GL258490  19.828  23.873   5.932
 4564POPC   C1A58491  20.113  23.596   6.244
 4564POPC   D2A58492  20.168  23.836   6.612
 4564POPC   C3A58493  19.952  23.749   6.982
 4564POPC   C4A58494  20.109  23.675   7.398
 4564POPC   C1B58495  19.734  23.917   6.367
 4564POPC   C2B58496  19.803  24.174   6.731
 4564POPC   C3B58497  19.578  24.090   7.109
 4564POPC   C4B58498  19.685  23.918   7.547
 4565POPC   NC358499  22.676   1.375   5.352
 4565POPC   PO458500  22.012   1.136   5.320
 4565POPC   GL158501  22.033   1.171   5.755
 4565POPC   GL258502  22.336   1.362   5.760
 4565POPC   C1A58503  21.903   1.179   6.209
 4565POPC   D2A58504  21.942   1.412   6.603
 4565POPC   C3A58505  22.140   1.281   6.972
 4565POPC   C4A58506  21.968   1.366   7.358
 4565POPC   C1B58507  22.367   1.011   6.089
 4565POPC   C2B58508  22.262   0.954   6.557
 4565POPC   C3B58509  22.336   0.804   7.026
 4565POPC   C4B58510  22.290   0.739   7.525
 4566POPC   NC358511  28.727  28.094   5.542
 4566POPC   PO458512  29.406  28.273   5.407
 4566POPC   GL158513  29.200  28.112   5.781
 4566POPC   GL258514  28.975  28.410   5.856
 4566POPC   C1A58515  29.039  28.051   6.207
 4566POPC   D2A58516  29.060  28.261   6.598
 4566POPC   C3A58517  28.826  28.174   6.953
 4566POPC   C4A58518  29.049  28.213   7.347
 4566POPC   C1B58519  28.897  28.624   6.265
 4566POPC   C2B58520  29.054  28.766   6.659
 4566POPC   C3B58521  28.961  28.734   7.057
 4566POPC   C4B58522  28.658  28.534   7.275
 4567POPC   NC358523  26.891  20.932   5.426
 4567POPC   PO458524  26.762  21.582   5.285
 4567POPC   GL158525  26.627  21.522   5.719
 4567POPC   GL258526  26.567  21.183   5.795
 4567POPC   C1A58527  26.816  21.452   6.144
 4567POPC   D2A58528  26.957  21.509   6.567
 4567POPC   C3A58529  26.704  21.729   6.894
 4567POPC   C4A58530  26.979  21.569   7.202
 4567POPC   C1B58531  26.422  21.113   6.202
 4567POPC   C2B58532  26.568  20.990   6.584
 4567POPC   C3B58533  26.694  21.213   6.930
 4567POPC   C4B58534  26.473  21.377   7.234
 4568POPC   NC358535  22.856  26.855   5.287
 4568POPC   PO458536  22.178  26.707   5.361
 4568POPC   GL158537  22.152  26.841   5.810
 4568POPC   GL258538  22.454  26.732   5.838
 4568POPC   C1A58539  22.172  26.731   6.284
 4568POPC   D2A58540  22.037  26.608   6.731
 4568POPC   C3A58541  21.984  26.902   7.088
 4568POPC   C4A58542  21.938  26.806   7.561
 4568POPC   C1B58543  22.696  26.707   6.195
 4568POPC   C2B58544  22.735  26.908   6.566
 4568POPC   C3B58545  22.490  26.838   6.921
 4568POPC   C4B58546  22.380  26.688   7.316
 4569POPC   NC358547  17.983  19.048   5.269
 4569POPC   PO458548  18.123  19.595   5.605
 4569POPC   GL158549  18.133  19.287   5.875
 4569POPC   GL258550  18.435  19.091   5.937
 4569POPC   C1A58551  18.148  19.336   6.314
 4569POPC   D2A58552  18.134  19.024   6.621
 4569POPC   C3A58553  18.196  19.135   7.050
 4569POPC   C4A58554  18.194  18.970   7.485
 4569POPC   C1B58555  18.550  18.849   6.333
 4569POPC   C2B58556  18.562  18.784   6.799
 4569POPC   C3B58557  18.660  18.994   7.194
 4569POPC   C4B58558  18.617  19.206   7.596
 4570POPC   NC358559  16.599   7.833   5.434
 4570POPC   PO458560  16.909   8.350   5.265
 4570POPC   GL158561  16.778   8.232   5.694
 4570POPC   GL258562  17.040   7.963   5.716
 4570POPC   C1A58563  16.515   8.205   6.106
 4570POPC   D2A58564  16.406   8.106   6.553
 4570POPC   C3A58565  16.748   8.328   6.821
 4570POPC   C4A58566  16.716   8.507   7.249
 4570POPC   C1B58567  17.074   8.246   6.099
 4570POPC   C2B58568  17.284   8.236   6.494
 4570POPC   C3B58569  17.192   8.058   6.880
 4570POPC   C4B58570  17.186   8.298   7.275
 4571POPC   NC358571  20.072   2.097   5.425
 4571POPC   PO458572  19.821   1.456   5.287
 4571POPC   GL158573  19.797   1.745   5.653
 4571POPC   GL258574  20.104   1.676   5.711
 4571POPC   C1A58575  19.810   1.959   6.076
 4571POPC   D2A58576  19.984   2.196   6.446
 4571POPC   C3A58577  19.851   2.197   6.878
 4571POPC   C4A58578  19.930   2.434   7.256
 4571POPC   C1B58579  20.158   1.491   6.071
 4571POPC   C2B58580  20.001   1.651   6.444
 4571POPC   C3B58581  20.217   1.808   6.781
 4571POPC   C4B58582  20.043   1.832   7.172
 4572POPC   NC358583   6.794  41.788   5.290
 4572POPC   PO458584   6.504  41.233   5.117
 4572POPC   GL158585   6.590  41.376   5.583
 4572POPC   GL258586   6.505  41.692   5.750
 4572POPC   C1A58587   6.626  41.297   6.064
 4572POPC   D2A58588   6.993  41.184   6.343
 4572POPC   C3A58589   6.897  41.356   6.760
 4572POPC   C4A58590   6.616  41.380   7.144
 4572POPC   C1B58591   6.531  41.835   6.237
 4572POPC   C2B58592   6.443  41.753   6.752
 4572POPC   C3B58593   6.407  41.854   7.252
 4572POPC   C4B58594   6.479  41.942   7.741
 4573POPC   NC358595  33.692  25.356   4.928
 4573POPC   PO458596  33.905  25.160   5.550
 4573POPC   GL158597  33.893  25.434   5.902
 4573POPC   GL258598  34.167  25.646   5.957
 4573POPC   C1A58599  33.647  25.414   6.287
 4573POPC   D2A58600  33.459  25.066   6.498
 4573POPC   C3A58601  33.618  25.082   6.879
 4573POPC   C4A58602  33.592  25.094   7.305
 4573POPC   C1B58603  34.101  25.702   6.412
 4573POPC   C2B58604  33.899  25.505   6.765
 4573POPC   C3B58605  33.981  25.479   7.211
 4573POPC   C4B58606  34.161  25.564   7.636
 4574POPC   NC358607   5.014  38.719   5.127
 4574POPC   PO458608   5.298  38.262   5.525
 4574POPC   GL158609   5.034  38.492   5.799
 4574POPC   GL258610   5.154  38.794   5.704
 4574POPC   C1A58611   4.792  38.505   6.189
 4574POPC   D2A58612   4.738  38.246   6.549
 4574POPC   C3A58613   4.740  38.430   6.945
 4574POPC   C4A58614   5.130  38.477   7.106
 4574POPC   C1B58615   5.129  38.912   6.152
 4574POPC   C2B58616   5.202  38.841   6.606
 4574POPC   C3B58617   5.363  38.913   7.038
 4574POPC   C4B58618   5.266  38.768   7.483
 4575POPC   NC358619  40.293  20.138   5.309
 4575POPC   PO458620  40.285  19.443   5.357
 4575POPC   GL158621  40.162  19.698   5.730
 4575POPC   GL258622  40.282  20.035   5.806
 4575POPC   C1A58623  40.182  19.624   6.197
 4575POPC   D2A58624  40.358  19.567   6.605
 4575POPC   C3A58625  40.191  19.891   6.911
 4575POPC   C4A58626  39.870  19.787   7.218
 4575POPC   C1B58627  39.911  20.026   6.060
 4575POPC   C2B58628  39.933  20.034   6.484
 4575POPC   C3B58629  39.686  20.080   6.834
 4575POPC   C4B58630  39.569  20.192   7.251
 4576POPC   NC358631  44.562  33.371   5.384
 4576POPC   PO458632  44.683  34.011   5.580
 4576POPC   GL158633  44.761  33.711   5.830
 4576POPC   GL258634  44.906  33.954   6.047
 4576POPC   C1A58635  44.576  33.551   6.229
 4576POPC   D2A58636  44.529  33.351   6.659
 4576POPC   C3A58637  44.488  33.649   7.016
 4576POPC   C4A58638  44.491  33.607   7.492
 4576POPC   C1B58639   0.093  33.548   6.177
 4576POPC   C2B58640   0.037  33.490   6.609
 4576POPC   C3B58641  44.913  33.869   6.840
 4576POPC   C4B58642  44.790  33.964   7.262
 4577POPC   NC358643  10.816  11.053   5.470
 4577POPC   PO458644  10.250  11.570   5.435
 4577POPC   GL158645  10.422  11.401   5.808
 4577POPC   GL258646  10.418  11.039   5.836
 4577POPC   C1A58647  10.255  11.308   6.231
 4577POPC   D2A58648  10.421  11.097   6.599
 4577POPC   C3A58649  10.504  11.393   6.918
 4577POPC   C4A58650  10.528  11.360   7.347
 4577POPC   C1B58651  10.745  11.213   6.172
 4577POPC   C2B58652  10.901  11.250   6.606
 4577POPC   C3B58653  10.901  11.115   7.017
 4577POPC   C4B58654  11.033  10.866   7.329
 4578POPC   NC358655  39.590  40.008   5.464
 4578POPC   PO458656  38.996  39.865   5.370
 4578POPC   GL158657  39.098  39.877   5.790
 4578POPC   GL258658  38.781  39.775   5.910
 4578POPC   C1A58659  39.152  40.198   6.121
 4578POPC   D2A58660  38.928  40.340   6.486
 4578POPC   C3A58661  39.088  40.378   6.870
 4578POPC   C4A58662  39.335  40.089   7.137
 4578POPC   C1B58663  38.993  39.755   6.320
 4578POPC   C2B58664  39.031  39.883   6.755
 4578POPC   C3B58665  38.852  39.726   7.132
 4578POPC   C4B58666  38.987  39.481   7.485
 4579POPC   NC358667  11.878  32.147   5.497
 4579POPC   PO458668  12.374  32.489   5.630
 4579POPC   GL158669  12.080  32.391   5.914
 4579POPC   GL258670  11.839  32.611   5.738
 4579POPC   C1A58671  12.074  31.995   6.144
 4579POPC   D2A58672  12.083  31.820   6.545
 4579POPC   C3A58673  12.177  32.119   6.835
 4579POPC   C4A58674  12.067  32.261   7.243
 4579POPC   C1B58675  11.742  32.707   6.149
 4579POPC   C2B58676  11.689  32.468   6.501
 4579POPC   C3B58677  11.828  32.518   6.883
 4579POPC   C4B58678  11.743  32.633   7.313
 4580POPC   NC358679  32.769  15.198   5.026
 4580POPC   PO458680  32.523  14.686   5.427
 4580POPC   GL158681  32.360  14.839   5.837
 4580POPC   GL258682  32.052  15.003   5.861
 4580POPC   C1A58683  32.405  15.057   6.260
 4580POPC   D2A58684  32.313  14.845   6.628
 4580POPC   C3A58685  32.420  14.976   7.002
 4580POPC   C4A58686  32.419  15.340   7.267
 4580POPC   C1B58687  31.921  14.844   6.266
 4580POPC   C2B58688  31.835  14.984   6.725
 4580POPC   C3B58689  31.907  15.192   7.115
 4580POPC   C4B58690  31.636  15.460   7.410
 4581POPC   NC358691  39.860  27.025   5.631
 4581POPC   PO458692  40.129  27.579   5.383
 4581POPC   GL158693  40.085  27.503   5.799
 4581POPC   GL258694  39.754  27.535   5.806
 4581POPC   C1A58695  40.142  27.408   6.229
 4581POPC   D2A58696  40.041  27.282   6.627
 4581POPC   C3A58697  40.309  27.477   6.901
 4581POPC   C4A58698  40.301  27.623   7.310
 4581POPC   C1B58699  39.643  27.429   6.219
 4581POPC   C2B58700  39.693  27.676   6.630
 4581POPC   C3B58701  39.836  27.639   7.065
 4581POPC   C4B58702  39.707  27.398   7.441
 4582POPC   NC358703   3.708  10.959   5.535
 4582POPC   PO458704   3.137  11.247   5.497
 4582POPC   GL158705   3.203  11.429   5.879
 4582POPC   GL258706   3.511  11.293   5.877
 4582POPC   C1A58707   3.216  11.320   6.315
 4582POPC   D2A58708   3.149  11.097   6.674
 4582POPC   C3A58709   3.264  11.320   7.063
 4582POPC   C4A58710   3.577  11.371   7.393
 4582POPC   C1B58711   3.725  11.208   6.238
 4582POPC   C2B58712   3.641  11.260   6.665
 4582POPC   C3B58713   3.852  11.152   7.027
 4582POPC   C4B58714   3.904  10.988   7.443
 4583POPC   NC358715  41.731  23.136   5.481
 4583POPC   PO458716  41.794  22.520   5.241
 4583POPC   GL158717  41.615  22.663   5.697
 4583POPC   GL258718  41.424  22.971   5.828
 4583POPC   C1A58719  41.687  22.746   6.185
 4583POPC   D2A58720  41.712  23.030   6.566
 4583POPC   C3A58721  41.828  22.817   6.986
 4583POPC   C4A58722  41.568  22.893   7.392
 4583POPC   C1B58723  41.289  23.162   6.180
 4583POPC   C2B58724  41.215  23.282   6.593
 4583POPC   C3B58725  41.343  23.016   6.927
 4583POPC   C4B58726  41.129  22.796   7.202
 4584POPC   NC358727  23.751   1.527   5.554
 4584POPC   PO458728  23.778   2.187   5.487
 4584POPC   GL158729  23.723   1.943   5.857
 4584POPC   GL258730  23.378   1.869   5.917
 4584POPC   C1A58731  23.697   2.055   6.279
 4584POPC   D2A58732  23.794   2.280   6.624
 4584POPC   C3A58733  23.603   2.155   6.990
 4584POPC   C4A58734  23.857   2.051   7.331
 4584POPC   C1B58735  23.180   2.040   6.268
 4584POPC   C2B58736  23.335   1.911   6.621
 4584POPC   C3B58737  23.318   1.733   7.006
 4584POPC   C4B58738  23.424   1.813   7.392
 4585POPC   NC358739  17.821  24.720   5.413
 4585POPC   PO458740  18.476  24.674   5.460
 4585POPC   GL158741  18.456  24.584   5.848
 4585POPC   GL258742  18.087  24.573   5.847
 4585POPC   C1A58743  18.506  24.522   6.264
 4585POPC   D2A58744  18.148  24.409   6.512
 4585POPC   C3A58745  18.224  24.304   6.927
 4585POPC   C4A58746  18.541  24.470   7.239
 4585POPC   C1B58747  17.909  24.759   6.183
 4585POPC   C2B58748  17.785  24.775   6.614
 4585POPC   C3B58749  17.943  24.713   7.034
 4585POPC   C4B58750  18.034  24.420   7.391
 4586POPC   NC358751   9.078  11.812   5.373
 4586POPC   PO458752   8.508  12.162   5.517
 4586POPC   GL158753   8.803  12.053   5.841
 4586POPC   GL258754   8.637  11.785   6.071
 4586POPC   C1A58755   9.058  11.991   6.261
 4586POPC   D2A58756   9.266  12.043   6.679
 4586POPC   C3A58757   9.234  11.843   7.055
 4586POPC   C4A58758   9.166  12.153   7.349
 4586POPC   C1B58759   8.507  12.162   6.238
 4586POPC   C2B58760   8.591  12.142   6.631
 4586POPC   C3B58761   8.782  12.101   6.989
 4586POPC   C4B58762   8.647  12.082   7.384
 4587POPC   NC358763  13.699  44.932   5.458
 4587POPC   PO458764  13.556  44.252   5.469
 4587POPC   GL158765  13.489  44.389   5.875
 4587POPC   GL258766  13.312  44.699   5.798
 4587POPC   C1A58767  13.557  44.383   6.308
 4587POPC   D2A58768  13.684  44.589   6.695
 4587POPC   C3A58769  13.660  44.449   7.111
 4587POPC   C4A58770  13.842  44.508   7.491
 4587POPC   C1B58771  13.445  44.850   6.199
 4587POPC   C2B58772  13.367   0.046   6.601
 4587POPC   C3B58773  13.359  44.865   7.002
 4587POPC   C4B58774  13.441  44.812   7.418
 4588POPC   NC358775  33.811  14.522   5.540
 4588POPC   PO458776  33.822  13.855   5.557
 4588POPC   GL158777  33.847  14.165   5.905
 4588POPC   GL258778  33.562  14.417   5.969
 4588POPC   C1A58779  34.039  14.231   6.313
 4588POPC   D2A58780  34.215  14.228   6.733
 4588POPC   C3A58781  33.892  14.484   6.945
 4588POPC   C4A58782  33.653  14.285   7.272
 4588POPC   C1B58783  33.508  14.160   6.326
 4588POPC   C2B58784  33.527  14.194   6.758
 4588POPC   C3B58785  33.392  14.568   6.944
 4588POPC   C4B58786  33.381  14.732   7.301
 4589POPC   NC358787  10.339  35.076   5.455
 4589POPC   PO458788   9.975  35.667   5.446
 4589POPC   GL158789  10.266  35.496   5.788
 4589POPC   GL258790  10.607  35.298   5.835
 4589POPC   C1A58791  10.266  35.308   6.229
 4589POPC   D2A58792  10.474  35.311   6.641
 4589POPC   C3A58793  10.223  35.302   7.030
 4589POPC   C4A58794  10.401  35.307   7.459
 4589POPC   C1B58795  10.726  35.054   6.253
 4589POPC   C2B58796  10.700  34.847   6.696
 4589POPC   C3B58797  10.710  35.101   7.081
 4589POPC   C4B58798  10.869  35.047   7.496
 4590POPC   NC358799  34.367  32.661   5.517
 4590POPC   PO458800  34.288  33.310   5.317
 4590POPC   GL158801  34.451  33.165   5.720
 4590POPC   GL258802  34.215  33.064   5.973
 4590POPC   C1A58803  34.698  33.035   6.106
 4590POPC   D2A58804  34.574  32.934   6.533
 4590POPC   C3A58805  34.892  33.047   6.859
 4590POPC   C4A58806  34.880  33.200   7.283
 4590POPC   C1B58807  34.064  32.832   6.319
 4590POPC   C2B58808  34.163  32.664   6.728
 4590POPC   C3B58809  34.409  32.938   7.023
 4590POPC   C4B58810  34.464  32.937   7.465
 4591POPC   NC358811  13.497   8.372   5.465
 4591POPC   PO458812  13.640   7.731   5.518
 4591POPC   GL158813  13.801   7.957   5.892
 4591POPC   GL258814  13.535   8.192   5.928
 4591POPC   C1A58815  13.758   8.100   6.359
 4591POPC   D2A58816  13.783   8.354   6.735
 4591POPC   C3A58817  13.888   8.122   7.104
 4591POPC   C4A58818  13.926   8.070   7.547
 4591POPC   C1B58819  13.280   8.407   6.209
 4591POPC   C2B58820  13.052   8.411   6.568
 4591POPC   C3B58821  13.306   8.453   6.924
 4591POPC   C4B58822  13.397   8.180   7.255
 4592POPC   NC358823  19.546   9.443   5.669
 4592POPC   PO458824  19.027   9.065   5.349
 4592POPC   GL158825  19.032   8.896   5.755
 4592POPC   GL258826  19.150   9.183   5.919
 4592POPC   C1A58827  18.859   8.778   6.155
 4592POPC   D2A58828  18.967   8.566   6.540
 4592POPC   C3A58829  18.947   8.835   6.932
 4592POPC   C4A58830  18.781   8.685   7.338
 4592POPC   C1B58831  19.079   9.196   6.381
 4592POPC   C2B58832  18.989   9.353   6.785
 4592POPC   C3B58833  19.216   9.364   7.147
 4592POPC   C4B58834  19.248   9.252   7.575
 4593POPC   NC358835  30.580  26.507   5.533
 4593POPC   PO458836  30.169  27.065   5.439
 4593POPC   GL158837  30.361  26.929   5.876
 4593POPC   GL258838  30.738  26.796   5.945
 4593POPC   C1A58839  30.409  26.890   6.352
 4593POPC   D2A58840  30.632  26.776   6.724
 4593POPC   C3A58841  30.558  27.019   7.084
 4593POPC   C4A58842  30.929  27.030   7.321
 4593POPC   C1B58843  31.112  26.626   6.232
 4593POPC   C2B58844  31.080  26.422   6.647
 4593POPC   C3B58845  30.942  26.525   7.073
 4593POPC   C4B58846  30.817  26.537   7.507
 4594POPC   NC358847  43.652  16.233   5.159
 4594POPC   PO458848  43.735  16.853   5.548
 4594POPC   GL158849  43.617  16.822   5.930
 4594POPC   GL258850  43.498  17.138   5.993
 4594POPC   C1A58851  43.746  16.607   6.308
 4594POPC   D2A58852  43.884  16.783   6.689
 4594POPC   C3A58853  43.858  16.582   7.096
 4594POPC   C4A58854  43.898  16.454   7.552
 4594POPC   C1B58855  43.908  17.119   6.228
 4594POPC   C2B58856  44.160  17.222   6.589
 4594POPC   C3B58857  44.049  17.103   7.051
 4594POPC   C4B58858  43.897  16.956   7.479
 4595POPC   NC358859   4.553  43.461   5.571
 4595POPC   PO458860   4.130  42.903   5.368
 4595POPC   GL158861   4.384  42.981   5.714
 4595POPC   GL258862   4.179  43.234   5.823
 4595POPC   C1A58863   4.560  42.865   6.120
 4595POPC   D2A58864   4.767  42.835   6.507
 4595POPC   C3A58865   4.549  42.715   6.871
 4595POPC   C4A58866   4.524  42.964   7.224
 4595POPC   C1B58867   4.363  43.334   6.237
 4595POPC   C2B58868   4.389  43.170   6.662
 4595POPC   C3B58869   4.273  43.370   7.059
 4595POPC   C4B58870   4.009  43.057   7.263
 4596POPC   NC358871  29.880  24.890   5.360
 4596POPC   PO458872  29.980  25.593   5.188
 4596POPC   GL158873  29.967  25.601   5.677
 4596POPC   GL258874  29.604  25.638   5.767
 4596POPC   C1A58875  30.160  25.613   6.118
 4596POPC   D2A58876  30.294  25.660   6.578
 4596POPC   C3A58877  30.050  25.359   6.872
 4596POPC   C4A58878  30.172  25.067   7.227
 4596POPC   C1B58879  29.644  25.808   6.172
 4596POPC   C2B58880  29.740  25.683   6.595
 4596POPC   C3B58881  29.535  25.458   6.949
 4596POPC   C4B58882  29.481  25.057   7.155
 4597POPC   NC358883  32.703  10.170   5.534
 4597POPC   PO458884  33.071   9.636   5.465
 4597POPC   GL158885  32.923   9.627   5.846
 4597POPC   GL258886  33.003   9.982   5.901
 4597POPC   C1A58887  33.158   9.596   6.222
 4597POPC   D2A58888  33.265   9.760   6.623
 4597POPC   C3A58889  33.032   9.605   6.928
 4597POPC   C4A58890  32.906   9.519   7.302
 4597POPC   C1B58891  33.191  10.144   6.263
 4597POPC   C2B58892  33.119  10.357   6.636
 4597POPC   C3B58893  33.229  10.151   6.979
 4597POPC   C4B58894  33.046   9.989   7.303
 4598POPC   NC358895   5.652   7.731   5.188
 4598POPC   PO458896   5.968   7.204   5.340
 4598POPC   GL158897   5.911   7.359   5.770
 4598POPC   GL258898   5.709   7.673   5.721
 4598POPC   C1A58899   5.889   7.250   6.227
 4598POPC   D2A58900   6.178   7.356   6.543
 4598POPC   C3A58901   6.225   7.156   6.918
 4598POPC   C4A58902   6.437   7.224   7.281
 4598POPC   C1B58903   5.629   7.674   6.166
 4598POPC   C2B58904   5.774   7.652   6.574
 4598POPC   C3B58905   5.650   7.451   6.944
 4598POPC   C4B58906   5.843   7.222   7.226
 4599POPC   NC358907   7.371   1.694   5.489
 4599POPC   PO458908   7.416   1.054   5.502
 4599POPC   GL158909   7.234   1.258   5.841
 4599POPC   GL258910   7.445   1.503   5.961
 4599POPC   C1A58911   7.350   1.113   6.264
 4599POPC   D2A58912   7.564   0.917   6.589
 4599POPC   C3A58913   7.378   1.045   6.984
 4599POPC   C4A58914   7.429   1.126   7.430
 4599POPC   C1B58915   7.091   1.569   6.259
 4599POPC   C2B58916   7.131   1.409   6.691
 4599POPC   C3B58917   7.400   1.564   7.051
 4599POPC   C4B58918   7.395   1.644   7.516
 4600POPC   NC358919  40.932  10.280   5.367
 4600POPC   PO458920  40.535  10.844   5.500
 4600POPC   GL158921  40.720  10.583   5.795
 4600POPC   GL258922  40.755  10.869   5.987
 4600POPC   C1A58923  40.806  10.276   6.145
 4600POPC   D2A58924  40.679  10.217   6.605
 4600POPC   C3A58925  40.856  10.328   7.017
 4600POPC   C4A58926  40.735  10.432   7.470
 4600POPC   C1B58927  40.812  10.730   6.403
 4600POPC   C2B58928  40.682  10.773   6.823
 4600POPC   C3B58929  40.910  10.821   7.210
 4600POPC   C4B58930  41.075  10.848   7.654
 4601POPC   NC358931  30.560  12.654   5.521
 4601POPC   PO458932  31.241  12.727   5.756
 4601POPC   GL158933  30.830  12.680   5.958
 4601POPC   GL258934  30.614  12.969   5.913
 4601POPC   C1A58935  30.652  12.777   6.369
 4601POPC   D2A58936  30.917  12.882   6.692
 4601POPC   C3A58937  30.796  12.736   7.068
 4601POPC   C4A58938  30.509  12.563   7.345
 4601POPC   C1B58939  30.951  13.153   6.205
 4601POPC   C2B58940  31.066  13.370   6.589
 4601POPC   C3B58941  30.907  13.299   7.009
 4601POPC   C4B58942  30.756  13.110   7.398
 4602POPC   NC358943  12.606  42.899   5.200
 4602POPC   PO458944  12.737  42.219   5.307
 4602POPC   GL158945  12.840  42.215   5.766
 4602POPC   GL258946  12.569  42.352   5.991
 4602POPC   C1A58947  12.921  42.076   6.203
 4602POPC   D2A58948  12.957  42.261   6.623
 4602POPC   C3A58949  12.887  42.065   7.017
 4602POPC   C4A58950  12.802  42.138   7.478
 4602POPC   C1B58951  12.690  42.590   6.308
 4602POPC   C2B58952  12.662  42.673   6.740
 4602POPC   C3B58953  12.871  42.555   7.123
 4602POPC   C4B58954  12.793  42.632   7.544
 4603POPC   NC358955  14.428   4.057   5.408
 4603POPC   PO458956  14.201   4.682   5.235
 4603POPC   GL158957  14.381   4.617   5.684
 4603POPC   GL258958  14.746   4.594   5.776
 4603POPC   C1A58959  14.417   4.389   6.118
 4603POPC   D2A58960  14.621   4.358   6.536
 4603POPC   C3A58961  14.482   4.083   6.846
 4603POPC   C4A58962  14.361   4.244   7.212
 4603POPC   C1B58963  14.752   4.761   6.215
 4603POPC   C2B58964  14.712   4.861   6.646
 4603POPC   C3B58965  14.661   4.626   7.031
 4603POPC   C4B58966  14.686   4.570   7.493
 4604POPC   NC358967  11.644  15.173   5.493
 4604POPC   PO458968  12.203  14.773   5.456
 4604POPC   GL158969  12.235  15.096   5.841
 4604POPC   GL258970  12.041  15.391   5.808
 4604POPC   C1A58971  12.273  15.319   6.262
 4604POPC   D2A58972  12.444  15.327   6.677
 4604POPC   C3A58973  12.356  15.033   7.048
 4604POPC   C4A58974  12.451  15.301   7.415
 4604POPC   C1B58975  11.780  15.293   6.184
 4604POPC   C2B58976  11.908  15.408   6.633
 4604POPC   C3B58977  12.104  15.469   7.057
 4604POPC   C4B58978  11.964  15.276   7.479
 4605POPC   NC358979  19.749  28.525   5.436
 4605POPC   PO458980  20.340  28.141   5.371
 4605POPC   GL158981  20.045  28.233   5.762
 4605POPC   GL258982  20.166  28.571   5.771
 4605POPC   C1A58983  19.674  28.235   6.109
 4605POPC   D2A58984  19.486  28.319   6.558
 4605POPC   C3A58985  19.586  28.150   6.956
 4605POPC   C4A58986  19.791  28.319   7.333
 4605POPC   C1B58987  20.103  28.540   6.207
 4605POPC   C2B58988  19.993  28.276   6.532
 4605POPC   C3B58989  20.059  28.405   6.916
 4605POPC   C4B58990  20.303  28.196   7.207
 4606POPC   NC358991   2.825  10.506   5.412
 4606POPC   PO458992   2.349   9.989   5.245
 4606POPC   GL158993   2.578  10.048   5.698
 4606POPC   GL258994   2.924  10.155   5.785
 4606POPC   C1A58995   2.493  10.249   6.129
 4606POPC   D2A58996   2.417  10.503   6.506
 4606POPC   C3A58997   2.416  10.307   6.933
 4606POPC   C4A58998   2.584  10.551   7.246
 4606POPC   C1B58999   2.930  10.538   6.060
 4606POPC   C2B59000   3.020  10.589   6.476
 4606POPC   C3B59001   2.917  10.414   6.847
 4606POPC   C4B59002   3.103  10.501   7.199
 4607POPC   NC359003   5.648  27.656   5.117
 4607POPC   PO459004   5.958  27.162   5.392
 4607POPC   GL159005   5.887  27.529   5.710
 4607POPC   GL259006   6.065  27.302   5.916
 4607POPC   C1A59007   5.713  27.741   6.149
 4607POPC   D2A59008   5.360  27.828   6.506
 4607POPC   C3A59009   5.494  27.887   6.992
 4607POPC   C4A59010   5.469  27.951   7.499
 4607POPC   C1B59011   5.886  27.281   6.316
 4607POPC   C2B59012   5.754  27.542   6.654
 4607POPC   C3B59013   5.914  27.607   7.058
 4607POPC   C4B59014   5.951  27.179   7.175
 4608POPC   NC359015  10.292  34.274   5.388
 4608POPC   PO459016  10.731  34.781   5.512
 4608POPC   GL159017  10.542  34.754   5.876
 4608POPC   GL259018  10.374  34.454   5.879
 4608POPC   C1A59019  10.637  34.536   6.291
 4608POPC   D2A59020  10.426  34.365   6.624
 4608POPC   C3A59021  10.676  34.325   6.951
 4608POPC   C4A59022  10.769  34.616   7.200
 4608POPC   C1B59023  10.173  34.758   6.216
 4608POPC   C2B59024  10.188  34.873   6.651
 4608POPC   C3B59025  10.301  34.785   7.067
 4608POPC   C4B59026  10.402  34.771   7.514
 4609POPC   NC359027  35.050  42.982   5.463
 4609POPC   PO459028  35.734  43.236   5.394
 4609POPC   GL159029  35.516  43.163   5.789
 4609POPC   GL259030  35.421  42.803   5.768
 4609POPC   C1A59031  35.421  43.239   6.244
 4609POPC   D2A59032  35.308  43.055   6.664
 4609POPC   C3A59033  35.314  43.272   7.051
 4609POPC   C4A59034  35.518  43.106   7.462
 4609POPC   C1B59035  35.107  42.864   6.109
 4609POPC   C2B59036  34.923  42.722   6.493
 4609POPC   C3B59037  34.893  42.831   6.885
 4609POPC   C4B59038  35.161  42.821   7.222
 4610POPC   NC359039   2.649  33.529   5.393
 4610POPC   PO459040   2.699  34.211   5.329
 4610POPC   GL159041   2.795  34.004   5.681
 4610POPC   GL259042   2.482  33.896   5.710
 4610POPC   C1A59043   2.756  33.942   6.128
 4610POPC   D2A59044   2.930  33.693   6.435
 4610POPC   C3A59045   2.804  33.782   6.839
 4610POPC   C4A59046   2.918  33.842   7.261
 4610POPC   C1B59047   2.462  33.539   6.027
 4610POPC   C2B59048   2.436  33.534   6.471
 4610POPC   C3B59049   2.396  33.477   6.907
 4610POPC   C4B59050   2.556  33.493   7.304
 4611POPC   NC359051  14.145  17.953   5.414
 4611POPC   PO459052  14.719  17.529   5.397
 4611POPC   GL159053  14.606  17.376   5.806
 4611POPC   GL259054  14.277  17.512   5.856
 4611POPC   C1A59055  14.645  17.572   6.214
 4611POPC   D2A59056  14.421  17.562   6.588
 4611POPC   C3A59057  14.670  17.430   6.926
 4611POPC   C4A59058  14.646  17.687   7.273
 4611POPC   C1B59059  14.020  17.515   6.236
 4611POPC   C2B59060  13.911  17.614   6.674
 4611POPC   C3B59061  14.168  17.692   7.036
 4611POPC   C4B59062  14.307  17.304   7.268
 4612POPC   NC359063  20.216   8.731   5.454
 4612POPC   PO459064  20.303   9.430   5.525
 4612POPC   GL159065  20.030   9.323   5.838
 4612POPC   GL259066  19.825   9.012   5.821
 4612POPC   C1A59067  19.945   9.260   6.261
 4612POPC   D2A59068  19.855   9.022   6.603
 4612POPC   C3A59069  20.002   9.138   6.992
 4612POPC   C4A59070  19.932   8.930   7.360
 4612POPC   C1B59071  19.528   8.968   6.194
 4612POPC   C2B59072  19.381   8.872   6.625
 4612POPC   C3B59073  19.636   8.754   6.972
 4612POPC   C4B59074  19.421   8.912   7.262
 4613POPC   NC359075   1.074  24.932   5.420
 4613POPC   PO459076   1.683  25.236   5.412
 4613POPC   GL159077   1.407  25.131   5.757
 4613POPC   GL259078   1.119  25.367   5.695
 4613POPC   C1A59079   1.269  24.924   6.144
 4613POPC   D2A59080   1.218  25.118   6.545
 4613POPC   C3A59081   1.138  25.054   6.986
 4613POPC   C4A59082   1.454  25.104   7.305
 4613POPC   C1B59083   1.006  25.400   6.125
 4613POPC   C2B59084   0.902  25.520   6.549
 4613POPC   C3B59085   0.949  25.711   6.908
 4613POPC   C4B59086   1.139  25.528   7.236
 4614POPC   NC359087  14.256   8.711   5.422
 4614POPC   PO459088  14.428   9.425   5.502
 4614POPC   GL159089  14.405   9.071   5.747
 4614POPC   GL259090  14.681   8.834   5.762
 4614POPC   C1A59091  14.200   8.902   6.103
 4614POPC   D2A59092  14.357   9.021   6.489
 4614POPC   C3A59093  14.140   9.113   6.835
 4614POPC   C4A59094  14.173   8.766   7.123
 4614POPC   C1B59095  14.723   9.142   6.146
 4614POPC   C2B59096  14.814   9.208   6.614
 4614POPC   C3B59097  14.656   9.028   7.028
 4614POPC   C4B59098  14.582   8.870   7.490
 4615POPC   NC359099  29.970  40.889   5.238
 4615POPC   PO459100  30.120  40.454   5.711
 4615POPC   GL159101  29.894  40.745   5.889
 4615POPC   GL259102  29.606  40.565   5.886
 4615POPC   C1A59103  29.780  40.921   6.291
 4615POPC   D2A59104  29.791  41.154   6.691
 4615POPC   C3A59105  29.967  40.960   7.058
 4615POPC   C4A59106  29.963  41.032   7.497
 4615POPC   C1B59107  29.614  40.441   6.339
 4615POPC   C2B59108  29.719  40.623   6.730
 4615POPC   C3B59109  29.652  40.581   7.161
 4615POPC   C4B59110  29.636  40.635   7.645
 4616POPC   NC359111  26.683  25.347   5.549
 4616POPC   PO459112  27.298  25.050   5.639
 4616POPC   GL159113  27.000  25.139   5.904
 4616POPC   GL259114  27.032  25.469   5.903
 4616POPC   C1A59115  26.621  25.061   6.173
 4616POPC   D2A59116  26.481  25.302   6.557
 4616POPC   C3A59117  26.672  25.166   6.946
 4616POPC   C4A59118  26.774  25.335   7.371
 4616POPC   C1B59119  26.958  25.393   6.362
 4616POPC   C2B59120  27.045  25.476   6.801
 4616POPC   C3B59121  27.226  25.294   7.166
 4616POPC   C4B59122  27.182  25.560   7.567
 4617POPC   NC359123   0.873   3.526   5.701
 4617POPC   PO459124   0.426   3.661   5.187
 4617POPC   GL159125   0.365   3.785   5.778
 4617POPC   GL259126   0.175   3.546   6.001
 4617POPC   C1A59127   0.314   3.951   6.259
 4617POPC   D2A59128   0.275   3.731   6.687
 4617POPC   C3A59129   0.544   3.744   7.060
 4617POPC   C4A59130   0.411   3.534   7.467
 4617POPC   C1B59131   0.569   3.527   6.298
 4617POPC   C2B59132   0.674   3.324   6.696
 4617POPC   C3B59133   0.596   3.246   7.099
 4617POPC   C4B59134   0.894   3.375   7.424
 4618POPC   NC359135   6.327  14.544   5.533
 4618POPC   PO459136   6.924  14.550   5.266
 4618POPC   GL159137   6.762  14.261   5.613
 4618POPC   GL259138   6.916  14.422   5.858
 4618POPC   C1A59139   6.583  14.103   6.059
 4618POPC   D2A59140   6.693  14.251   6.480
 4618POPC   C3A59141   6.517  14.123   6.847
 4618POPC   C4A59142   6.466  14.347   7.235
 4618POPC   C1B59143   6.583  14.611   6.145
 4618POPC   C2B59144   6.713  14.778   6.571
 4618POPC   C3B59145   6.661  14.833   7.008
 4618POPC   C4B59146   6.948  14.740   7.336
 4619POPC   NC359147  26.445  26.931   5.182
 4619POPC   PO459148  27.024  26.672   5.334
 4619POPC   GL159149  26.759  26.722   5.708
 4619POPC   GL259150  26.537  26.976   5.698
 4619POPC   C1A59151  26.752  26.564   6.126
 4619POPC   D2A59152  26.774  26.728   6.537
 4619POPC   C3A59153  26.720  26.531   6.928
 4619POPC   C4A59154  26.619  26.748   7.313
 4619POPC   C1B59155  26.442  27.092   6.097
 4619POPC   C2B59156  26.477  27.146   6.518
 4619POPC   C3B59157  26.396  26.945   6.890
 4619POPC   C4B59158  26.349  27.193   7.246
 4620POPC   NC359159  20.511   6.604   5.339
 4620POPC   PO459160  21.093   6.659   5.613
 4620POPC   GL159161  20.739   6.565   5.820
 4620POPC   GL259162  20.384   6.394   5.798
 4620POPC   C1A59163  20.709   6.843   6.154
 4620POPC   D2A59164  20.566   6.791   6.547
 4620POPC   C3A59165  20.819   6.873   6.899
 4620POPC   C4A59166  20.644   6.943   7.307
 4620POPC   C1B59167  20.507   6.371   6.230
 4620POPC   C2B59168  20.699   6.288   6.634
 4620POPC   C3B59169  20.881   6.388   7.038
 4620POPC   C4B59170  20.866   6.176   7.408
 4621POPC   NC359171  19.402  12.758   5.352
 4621POPC   PO459172  18.754  12.852   5.315
 4621POPC   GL159173  19.019  12.804   5.736
 4621POPC   GL259174  19.245  13.092   5.835
 4621POPC   C1A59175  19.082  12.528   6.157
 4621POPC   D2A59176  19.072  12.363   6.626
 4621POPC   C3A59177  19.002  12.623   7.031
 4621POPC   C4A59178  18.879  13.058   7.196
 4621POPC   C1B59179  19.323  12.979   6.240
 4621POPC   C2B59180  19.293  12.838   6.633
 4621POPC   C3B59181  19.435  12.929   7.017
 4621POPC   C4B59182  19.348  12.882   7.437
 4622POPC   NC359183  24.552   4.063   5.668
 4622POPC   PO459184  24.230   3.619   5.209
 4622POPC   GL159185  24.421   3.519   5.647
 4622POPC   GL259186  24.779   3.451   5.651
 4622POPC   C1A59187  24.335   3.436   6.123
 4622POPC   D2A59188  24.324   3.531   6.605
 4622POPC   C3A59189  24.403   3.227   6.972
 4622POPC   C4A59190  24.463   3.162   7.433
 4622POPC   C1B59191  24.843   3.574   6.107
 4622POPC   C2B59192  24.915   3.539   6.548
 4622POPC   C3B59193  24.742   3.635   6.925
 4622POPC   C4B59194  24.853   3.467   7.310
 4623POPC   NC359195  37.213  13.743   5.557
 4623POPC   PO459196  36.639  13.460   5.165
 4623POPC   GL159197  36.758  13.492   5.599
 4623POPC   GL259198  37.006  13.258   5.743
 4623POPC   C1A59199  36.761  13.640   6.034
 4623POPC   D2A59200  36.632  13.694   6.459
 4623POPC   C3A59201  36.818  13.601   6.812
 4623POPC   C4A59202  36.781  13.665   7.256
 4623POPC   C1B59203  37.126  13.309   6.209
 4623POPC   C2B59204  37.236  13.298   6.674
 4623POPC   C3B59205  37.053  13.257   7.092
 4623POPC   C4B59206  37.128  13.412   7.509
 4624POPC   NC359207  37.947  12.066   5.307
 4624POPC   PO459208  37.351  11.775   5.558
 4624POPC   GL159209  37.585  11.960   5.864
 4624POPC   GL259210  37.961  12.082   5.821
 4624POPC   C1A59211  37.449  12.141   6.267
 4624POPC   D2A59212  37.472  12.389   6.656
 4624POPC   C3A59213  37.339  12.259   7.033
 4624POPC   C4A59214  37.559  11.959   7.261
 4624POPC   C1B59215  37.920  11.907   6.248
 4624POPC   C2B59216  37.826  11.999   6.673
 4624POPC   C3B59217  37.991  11.956   7.045
 4624POPC   C4B59218  38.057  12.356   7.214
 4625POPC   NC359219  24.938  23.663   5.086
 4625POPC   PO459220  25.353  23.772   5.663
 4625POPC   GL159221  25.145  23.911   6.004
 4625POPC   GL259222  25.314  24.236   5.946
 4625POPC   C1A59223  25.181  23.687   6.398
 4625POPC   D2A59224  25.506  23.436   6.581
 4625POPC   C3A59225  25.476  23.495   7.028
 4625POPC   C4A59226  25.129  23.689   7.213
 4625POPC   C1B59227  25.589  24.003   6.241
 4625POPC   C2B59228  25.569  23.944   6.628
 4625POPC   C3B59229  25.314  24.054   6.917
 4625POPC   C4B59230  25.548  23.972   7.240
 4626POPC   NC359231   1.929  24.830   5.368
 4626POPC   PO459232   2.285  25.414   5.251
 4626POPC   GL159233   2.069  25.450   5.672
 4626POPC   GL259234   2.014  25.124   5.783
 4626POPC   C1A59235   1.986  25.596   6.115
 4626POPC   D2A59236   1.905  25.451   6.545
 4626POPC   C3A59237   2.153  25.279   6.856
 4626POPC   C4A59238   2.129  25.409   7.245
 4626POPC   C1B59239   1.775  25.122   6.126
 4626POPC   C2B59240   1.870  24.954   6.504
 4626POPC   C3B59241   1.676  25.100   6.849
 4626POPC   C4B59242   1.925  24.917   7.166
 4627POPC   NC359243  16.350  38.861   5.603
 4627POPC   PO459244  16.668  39.403   5.344
 4627POPC   GL159245  16.679  39.263   5.747
 4627POPC   GL259246  16.337  39.340   5.779
 4627POPC   C1A59247  16.720  39.038   6.152
 4627POPC   D2A59248  16.524  39.071   6.572
 4627POPC   C3A59249  16.859  39.075   6.872
 4627POPC   C4A59250  16.872  38.905   7.249
 4627POPC   C1B59251  16.423  39.445   6.200
 4627POPC   C2B59252  16.424  39.716   6.547
 4627POPC   C3B59253  16.374  39.634   6.989
 4627POPC   C4B59254  16.526  39.291   7.205
 4628POPC   NC359255  37.528  12.918   5.617
 4628POPC   PO459256  37.543  12.357   5.304
 4628POPC   GL159257  37.578  12.458   5.803
 4628POPC   GL259258  37.909  12.632   5.908
 4628POPC   C1A59259  37.520  12.681   6.243
 4628POPC   D2A59260  37.797  12.783   6.637
 4628POPC   C3A59261  37.683  12.660   7.085
 4628POPC   C4A59262  37.798  12.795   7.543
 4628POPC   C1B59263  37.920  13.044   6.163
 4628POPC   C2B59264  37.880  13.295   6.566
 4628POPC   C3B59265  37.806  13.160   7.022
 4628POPC   C4B59266  37.444  13.052   7.308
 4629POPC   NC359267  14.847  32.744   5.134
 4629POPC   PO459268  15.397  32.926   5.492
 4629POPC   GL159269  15.406  33.004   5.901
 4629POPC   GL259270  15.591  33.309   5.822
 4629POPC   C1A59271  15.086  32.959   6.241
 4629POPC   D2A59272  14.695  33.034   6.510
 4629POPC   C3A59273  14.796  33.254   6.912
 4629POPC   C4A59274  15.111  33.031   7.172
 4629POPC   C1B59275  15.458  33.362   6.275
 4629POPC   C2B59276  15.489  33.035   6.603
 4629POPC   C3B59277  15.602  33.066   7.039
 4629POPC   C4B59278  15.402  33.449   7.192
 4630POPC   NC359279  25.582  33.311   5.353
 4630POPC   PO459280  25.176  32.735   5.322
 4630POPC   GL159281  25.188  33.049   5.700
 4630POPC   GL259282  25.527  33.167   5.855
 4630POPC   C1A59283  25.139  33.079   6.181
 4630POPC   D2A59284  25.141  32.735   6.505
 4630POPC   C3A59285  25.173  32.804   6.965
 4630POPC   C4A59286  25.091  33.210   7.161
 4630POPC   C1B59287  25.616  33.210   6.345
 4630POPC   C2B59288  25.501  33.190   6.835
 4630POPC   C3B59289  25.530  33.019   7.309
 4630POPC   C4B59290  25.610  32.865   7.783
 4631POPC   NC359291  36.602   9.228   5.399
 4631POPC   PO459292  35.921   9.378   5.264
 4631POPC   GL159293  36.023   9.160   5.728
 4631POPC   GL259294  36.350   9.150   5.880
 4631POPC   C1A59295  35.893   8.873   6.071
 4631POPC   D2A59296  35.802   8.969   6.511
 4631POPC   C3A59297  35.871   8.761   6.898
 4631POPC   C4A59298  35.928   8.953   7.286
 4631POPC   C1B59299  36.340   8.925   6.299
 4631POPC   C2B59300  36.335   8.716   6.698
 4631POPC   C3B59301  36.410   8.931   7.096
 4631POPC   C4B59302  36.652   8.959   7.471
 4632POPC   NC359303  20.349  25.351   5.392
 4632POPC   PO459304  20.982  25.528   5.558
 4632POPC   GL159305  20.664  25.355   5.845
 4632POPC   GL259306  20.481  25.055   5.816
 4632POPC   C1A59307  20.528  25.243   6.292
 4632POPC   D2A59308  20.445  25.186   6.723
 4632POPC   C3A59309  20.596  25.451   7.040
 4632POPC   C4A59310  20.346  25.419   7.363
 4632POPC   C1B59311  20.843  24.906   6.069
 4632POPC   C2B59312  20.949  24.945   6.526
 4632POPC   C3B59313  20.992  25.059   6.983
 4632POPC   C4B59314  20.956  24.950   7.442
 4633POPC   NC359315  24.467   4.992   5.306
 4633POPC   PO459316  23.839   5.097   5.261
 4633POPC   GL159317  24.166   5.232   5.643
 4633POPC   GL259318  24.559   5.241   5.743
 4633POPC   C1A59319  24.216   5.146   6.103
 4633POPC   D2A59320  24.274   5.283   6.541
 4633POPC   C3A59321  24.380   4.942   6.815
 4633POPC   C4A59322  24.413   4.925   7.271
 4633POPC   C1B59323  24.655   5.409   6.184
 4633POPC   C2B59324  24.708   5.586   6.624
 4633POPC   C3B59325  24.663   5.329   7.016
 4633POPC   C4B59326  24.644   5.296   7.512
 4634POPC   NC359327   3.186  21.168   5.338
 4634POPC   PO459328   3.809  20.970   5.268
 4634POPC   GL159329   3.708  21.259   5.661
 4634POPC   GL259330   3.367  21.473   5.729
 4634POPC   C1A59331   3.676  21.318   6.138
 4634POPC   D2A59332   3.499  21.238   6.586
 4634POPC   C3A59333   3.786  21.239   6.960
 4634POPC   C4A59334   3.615  21.249   7.374
 4634POPC   C1B59335   3.206  21.580   6.161
 4634POPC   C2B59336   3.399  21.742   6.543
 4634POPC   C3B59337   3.471  21.654   6.963
 4634POPC   C4B59338   3.262  21.629   7.333
 4635POPC   NC359339  18.192  36.931   5.432
 4635POPC   PO459340  18.651  37.354   5.633
 4635POPC   GL159341  18.478  36.941   5.870
 4635POPC   GL259342  18.186  36.652   5.854
 4635POPC   C1A59343  18.244  36.922   6.264
 4635POPC   D2A59344  18.248  36.706   6.653
 4635POPC   C3A59345  18.228  36.921   7.029
 4635POPC   C4A59346  17.999  37.017   7.395
 4635POPC   C1B59347  18.455  36.465   6.214
 4635POPC   C2B59348  18.560  36.306   6.639
 4635POPC   C3B59349  18.476  36.436   7.075
 4635POPC   C4B59350  18.457  36.700   7.440
 4636POPC   NC359351  27.205  14.059   5.529
 4636POPC   PO459352  26.665  13.680   5.420
 4636POPC   GL159353  26.771  13.606   5.864
 4636POPC   GL259354  27.118  13.662   5.854
 4636POPC   C1A59355  26.494  13.559   6.233
 4636POPC   D2A59356  26.458  13.353   6.633
 4636POPC   C3A59357  26.683  13.495   7.018
 4636POPC   C4A59358  26.803  13.703   7.432
 4636POPC   C1B59359  27.319  13.640   6.245
 4636POPC   C2B59360  27.161  13.644   6.654
 4636POPC   C3B59361  27.084  13.844   7.020
 4636POPC   C4B59362  27.325  13.953   7.344
 4637POPC   NC359363   6.435  30.061   5.316
 4637POPC   PO459364   5.739  29.927   5.256
 4637POPC   GL159365   5.786  30.092   5.715
 4637POPC   GL259366   6.008  30.400   5.801
 4637POPC   C1A59367   5.768  30.013   6.191
 4637POPC   D2A59368   5.813  29.717   6.582
 4637POPC   C3A59369   5.621  29.810   6.965
 4637POPC   C4A59370   5.682  30.143   7.263
 4637POPC   C1B59371   6.157  30.357   6.175
 4637POPC   C2B59372   6.123  30.147   6.567
 4637POPC   C3B59373   6.134  30.056   6.983
 4637POPC   C4B59374   6.150  30.348   7.312
 4638POPC   NC359375   1.485  24.156   4.941
 4638POPC   PO459376   1.074  24.471   5.413
 4638POPC   GL159377   1.308  24.489   5.793
 4638POPC   GL259378   0.987  24.512   5.913
 4638POPC   C1A59379   1.355  24.292   6.236
 4638POPC   D2A59380   1.262  24.149   6.631
 4638POPC   C3A59381   1.490  24.156   6.991
 4638POPC   C4A59382   1.252  24.191   7.373
 4638POPC   C1B59383   0.862  24.617   6.295
 4638POPC   C2B59384   0.984  24.654   6.670
 4638POPC   C3B59385   1.043  24.472   7.006
 4638POPC   C4B59386   1.114  24.679   7.416
 4639POPC   NC359387  34.903  14.180   5.525
 4639POPC   PO459388  34.276  14.404   5.500
 4639POPC   GL159389  34.293  14.469   5.926
 4639POPC   GL259390  34.035  14.713   5.970
 4639POPC   C1A59391  34.539  14.398   6.333
 4639POPC   D2A59392  34.823  14.479   6.705
 4639POPC   C3A59393  34.605  14.387   7.082
 4639POPC   C4A59394  34.214  14.298   7.254
 4639POPC   C1B59395  34.341  14.877   6.252
 4639POPC   C2B59396  34.242  14.735   6.643
 4639POPC   C3B59397  34.267  14.818   7.053
 4639POPC   C4B59398  34.460  14.746   7.433
 4640POPC   NC359399  34.217   1.010   5.375
 4640POPC   PO459400  33.719   1.424   5.267
 4640POPC   GL159401  33.729   1.350   5.730
 4640POPC   GL259402  34.049   1.225   5.818
 4640POPC   C1A59403  33.682   1.296   6.219
 4640POPC   D2A59404  33.591   1.107   6.661
 4640POPC   C3A59405  33.576   1.380   6.994
 4640POPC   C4A59406  33.896   1.471   7.211
 4640POPC   C1B59407  34.065   0.941   6.170
 4640POPC   C2B59408  34.235   0.841   6.588
 4640POPC   C3B59409  34.096   1.025   6.977
 4640POPC   C4B59410  33.745   0.973   7.256
 4641POPC   NC359411  41.793  23.975   5.664
 4641POPC   PO459412  41.536  23.486   5.231
 4641POPC   GL159413  41.493  23.509   5.727
 4641POPC   GL259414  41.326  23.801   5.839
 4641POPC   C1A59415  41.670  23.495   6.175
 4641POPC   D2A59416  41.649  23.745   6.584
 4641POPC   C3A59417  41.537  23.501   6.938
 4641POPC   C4A59418  41.845  23.277   7.146
 4641POPC   C1B59419  41.213  23.713   6.271
 4641POPC   C2B59420  41.195  23.990   6.638
 4641POPC   C3B59421  41.340  23.965   7.083
 4641POPC   C4B59422  41.717  23.781   7.325
 4642POPC   NC359423  20.340  37.262   5.091
 4642POPC   PO459424  20.728  36.870   5.468
 4642POPC   GL159425  20.817  36.716   5.847
 4642POPC   GL259426  21.194  36.701   5.802
 4642POPC   C1A59427  20.621  36.865   6.264
 4642POPC   D2A59428  20.477  37.204   6.569
 4642POPC   C3A59429  20.747  37.148   6.932
 4642POPC   C4A59430  20.625  36.806   7.166
 4642POPC   C1B59431  21.108  36.662   6.252
 4642POPC   C2B59432  21.167  36.773   6.684
 4642POPC   C3B59433  21.108  36.589   7.106
 4642POPC   C4B59434  20.881  36.582   7.540
 4643POPC   NC359435   9.414  41.124   5.334
 4643POPC   PO459436   9.939  40.653   5.246
 4643POPC   GL159437   9.714  40.613   5.619
 4643POPC   GL259438   9.764  40.962   5.696
 4643POPC   C1A59439   9.815  40.552   6.065
 4643POPC   D2A59440   9.979  40.477   6.475
 4643POPC   C3A59441   9.729  40.524   6.840
 4643POPC   C4A59442   9.968  40.767   7.177
 4643POPC   C1B59443   9.850  41.108   6.123
 4643POPC   C2B59444   9.761  40.955   6.543
 4643POPC   C3B59445   9.511  40.968   6.943
 4643POPC   C4B59446   9.492  40.655   7.275
 4644POPC   NC359447  24.947  44.144   5.424
 4644POPC   PO459448  25.599  43.706   5.393
 4644POPC   GL159449  25.319  43.886   5.697
 4644POPC   GL259450  25.047  43.656   5.683
 4644POPC   C1A59451  25.147  43.975   6.112
 4644POPC   D2A59452  25.298  44.045   6.546
 4644POPC   C3A59453  25.095  44.103   6.948
 4644POPC   C4A59454  25.241  43.820   7.265
 4644POPC   C1B59455  24.911  43.447   6.050
 4644POPC   C2B59456  25.025  43.596   6.439
 4644POPC   C3B59457  24.990  43.609   6.844
 4644POPC   C4B59458  25.000  43.353   7.187
 4645POPC   NC359459  39.942  26.317   5.372
 4645POPC   PO459460  40.359  25.867   5.607
 4645POPC   GL159461  40.132  26.139   5.923
 4645POPC   GL259462  39.779  26.208   5.833
 4645POPC   C1A59463  40.099  25.913   6.343
 4645POPC   D2A59464  40.356  25.642   6.611
 4645POPC   C3A59465  40.232  25.813   7.017
 4645POPC   C4A59466  39.954  26.135   7.152
 4645POPC   C1B59467  39.631  26.099   6.225
 4645POPC   C2B59468  39.655  25.980   6.650
 4645POPC   C3B59469  39.505  25.919   7.052
 4645POPC   C4B59470  39.745  25.651   7.236
 4646POPC   NC359471  11.850  39.000   5.573
 4646POPC   PO459472  12.360  38.511   5.490
 4646POPC   GL159473  12.258  38.353   5.883
 4646POPC   GL259474  11.925  38.472   5.933
 4646POPC   C1A59475  12.205  38.323   6.306
 4646POPC   D2A59476  12.191  38.502   6.650
 4646POPC   C3A59477  12.179  38.265   7.003
 4646POPC   C4A59478  12.111  38.034   7.398
 4646POPC   C1B59479  12.015  38.827   6.214
 4646POPC   C2B59480  12.052  39.024   6.615
 4646POPC   C3B59481  11.998  38.825   6.977
 4646POPC   C4B59482  12.063  38.694   7.345
 4647POPC   NC359483  40.747  19.429   5.536
 4647POPC   PO459484  41.065  20.058   5.467
 4647POPC   GL159485  40.797  19.952   5.822
 4647POPC   GL259486  40.634  19.637   5.971
 4647POPC   C1A59487  40.850  20.014   6.266
 4647POPC   D2A59488  40.704  19.941   6.687
 4647POPC   C3A59489  41.003  19.928   7.018
 4647POPC   C4A59490  40.782  20.058   7.341
 4647POPC   C1B59491  40.833  19.470   6.346
 4647POPC   C2B59492  40.890  19.459   6.794
 4647POPC   C3B59493  40.589  19.591   7.089
 4647POPC   C4B59494  40.187  19.416   7.070
 4648POPC   NC359495  34.694  20.295   5.397
 4648POPC   PO459496  34.165  20.803   5.447
 4648POPC   GL159497  34.536  20.780   5.820
 4648POPC   GL259498  34.703  20.437   5.878
 4648POPC   C1A59499  34.854  20.735   6.230
 4648POPC   D2A59500  34.829  20.520   6.624
 4648POPC   C3A59501  34.681  20.750   7.013
 4648POPC   C4A59502  34.338  20.848   7.291
 4648POPC   C1B59503  34.411  20.449   6.266
 4648POPC   C2B59504  34.378  20.255   6.704
 4648POPC   C3B59505  34.353  20.359   7.164
 4648POPC   C4B59506  34.271  20.446   7.648
 4649POPC   NC359507  35.129  39.750   5.043
 4649POPC   PO459508  35.137  40.216   5.537
 4649POPC   GL159509  35.331  40.073   5.885
 4649POPC   GL259510  35.470  39.763   5.760
 4649POPC   C1A59511  35.418  40.247   6.285
 4649POPC   D2A59512  35.309  40.046   6.664
 4649POPC   C3A59513  35.403  40.216   7.049
 4649POPC   C4A59514  35.384  40.005   7.458
 4649POPC   C1B59515  35.393  39.634   6.204
 4649POPC   C2B59516  35.542  39.599   6.650
 4649POPC   C3B59517  35.334  39.686   7.054
 4649POPC   C4B59518  35.079  39.580   7.423
 4650POPC   NC359519  10.423  21.328   5.488
 4650POPC   PO459520  10.780  21.888   5.313
 4650POPC   GL159521  10.551  21.751   5.769
 4650POPC   GL259522  10.731  21.426   5.875
 4650POPC   C1A59523  10.665  21.711   6.273
 4650POPC   D2A59524  10.703  21.436   6.607
 4650POPC   C3A59525  10.341  21.572   6.825
 4650POPC   C4A59526  10.420  21.636   7.243
 4650POPC   C1B59527  10.370  21.291   6.181
 4650POPC   C2B59528  10.351  21.062   6.594
 4650POPC   C3B59529  10.478  21.131   7.015
 4650POPC   C4B59530  10.701  20.891   7.242
 4651POPC   NC359531  11.059  41.615   5.274
 4651POPC   PO459532  11.513  41.134   5.366
 4651POPC   GL159533  11.274  41.286   5.713
 4651POPC   GL259534  11.554  41.483   5.823
 4651POPC   C1A59535  11.102  41.434   6.128
 4651POPC   D2A59536  11.248  41.424   6.572
 4651POPC   C3A59537  11.006  41.474   6.945
 4651POPC   C4A59538  10.953  41.214   7.302
 4651POPC   C1B59539  11.549  41.753   6.189
 4651POPC   C2B59540  11.533  41.906   6.603
 4651POPC   C3B59541  11.551  41.756   6.989
 4651POPC   C4B59542  11.479  41.433   7.226
 4652POPC   NC359543  18.267  18.641   5.626
 4652POPC   PO459544  18.583  18.027   5.669
 4652POPC   GL159545  18.335  18.235   5.976
 4652POPC   GL259546  17.983  18.289   5.890
 4652POPC   C1A59547  18.157  18.107   6.358
 4652POPC   D2A59548  18.064  17.964   6.735
 4652POPC   C3A59549  18.294  18.195   7.023
 4652POPC   C4A59550  18.108  18.240   7.375
 4652POPC   C1B59551  18.003  18.581   6.244
 4652POPC   C2B59552  18.052  18.525   6.699
 4652POPC   C3B59553  17.991  18.664   7.131
 4652POPC   C4B59554  17.847  18.605   7.595
 4653POPC   NC359555  31.381  21.351   5.426
 4653POPC   PO459556  31.846  21.799   5.499
 4653POPC   GL159557  31.685  21.520   5.805
 4653POPC   GL259558  31.657  21.137   5.818
 4653POPC   C1A59559  31.687  21.506   6.224
 4653POPC   D2A59560  31.853  21.326   6.551
 4653POPC   C3A59561  31.679  21.443   6.926
 4653POPC   C4A59562  31.484  21.755   7.148
 4653POPC   C1B59563  31.278  21.267   6.093
 4653POPC   C2B59564  31.254  21.257   6.571
 4653POPC   C3B59565  31.275  21.143   7.033
 4653POPC   C4B59566  31.597  21.085   7.382
 4654POPC   NC359567   5.920  33.373   5.371
 4654POPC   PO459568   5.693  32.746   5.301
 4654POPC   GL159569   5.887  32.733   5.732
 4654POPC   GL259570   5.923  33.092   5.852
 4654POPC   C1A59571   5.890  32.686   6.203
 4654POPC   D2A59572   5.956  32.974   6.547
 4654POPC   C3A59573   5.892  32.801   6.952
 4654POPC   C4A59574   5.977  32.738   7.391
 4654POPC   C1B59575   5.631  33.286   6.176
 4654POPC   C2B59576   5.639  33.413   6.602
 4654POPC   C3B59577   5.872  33.301   6.988
 4654POPC   C4B59578   5.810  33.239   7.421
 4655POPC   NC359579   1.010  12.488   5.430
 4655POPC   PO459580   1.370  12.042   5.702
 4655POPC   GL159581   0.948  12.023   5.836
 4655POPC   GL259582   0.921  12.329   5.935
 4655POPC   C1A59583   0.847  11.929   6.261
 4655POPC   D2A59584   1.132  11.771   6.524
 4655POPC   C3A59585   1.033  11.882   6.912
 4655POPC   C4A59586   1.138  12.050   7.258
 4655POPC   C1B59587   1.158  12.396   6.317
 4655POPC   C2B59588   1.121  12.385   6.757
 4655POPC   C3B59589   1.251  12.527   7.152
 4655POPC   C4B59590   1.302  12.422   7.575
 4656POPC   NC359591  22.826  27.917   5.541
 4656POPC   PO459592  22.862  27.289   5.421
 4656POPC   GL159593  23.077  27.512   5.760
 4656POPC   GL259594  22.745  27.551   5.887
 4656POPC   C1A59595  23.104  27.842   6.123
 4656POPC   D2A59596  23.130  27.691   6.526
 4656POPC   C3A59597  23.122  27.842   6.930
 4656POPC   C4A59598  23.194  27.504   7.178
 4656POPC   C1B59599  22.661  27.620   6.295
 4656POPC   C2B59600  22.687  27.422   6.659
 4656POPC   C3B59601  22.679  27.599   7.049
 4656POPC   C4B59602  22.814  27.790   7.375
 4657POPC   NC359603  30.858  15.483   4.924
 4657POPC   PO459604  30.589  15.042   5.310
 4657POPC   GL159605  30.515  15.117   5.762
 4657POPC   GL259606  30.202  15.360   5.786
 4657POPC   C1A59607  30.777  15.032   6.198
 4657POPC   D2A59608  31.029  14.988   6.626
 4657POPC   C3A59609  30.963  15.283   6.996
 4657POPC   C4A59610  31.130  15.326   7.467
 4657POPC   C1B59611  30.280  15.156   6.196
 4657POPC   C2B59612  30.449  15.127   6.599
 4657POPC   C3B59613  30.434  15.320   6.978
 4657POPC   C4B59614  30.642  15.455   7.353
 4658POPC   NC359615   4.439   1.093   5.469
 4658POPC   PO459616   4.562   1.692   5.607
 4658POPC   GL159617   4.378   1.591   5.988
 4658POPC   GL259618   4.188   1.356   5.862
 4658POPC   C1A59619   4.368   1.279   6.356
 4658POPC   D2A59620   4.495   0.935   6.651
 4658POPC   C3A59621   4.552   1.079   7.080
 4658POPC   C4A59622   4.453   1.508   7.145
 4658POPC   C1B59623   3.989   1.047   6.085
 4658POPC   C2B59624   3.866   1.064   6.513
 4658POPC   C3B59625   4.061   1.126   6.927
 4658POPC   C4B59626   4.113   1.186   7.381
 4659POPC   NC359627  18.236  43.661   5.404
 4659POPC   PO459628  18.816  43.872   5.438
 4659POPC   GL159629  18.605  43.600   5.773
 4659POPC   GL259630  18.364  43.876   5.845
 4659POPC   C1A59631  18.416  43.557   6.227
 4659POPC   D2A59632  18.519  43.773   6.616
 4659POPC   C3A59633  18.380  43.610   7.004
 4659POPC   C4A59634  18.476  43.725   7.414
 4659POPC   C1B59635  18.674  44.008   6.144
 4659POPC   C2B59636  18.598  44.268   6.479
 4659POPC   C3B59637  18.682  44.221   6.898
 4659POPC   C4B59638  18.768  44.124   7.294
 4660POPC   NC359639  22.092   6.255   5.149
 4660POPC   PO459640  22.280   5.772   5.564
 4660POPC   GL159641  22.216   5.669   5.931
 4660POPC   GL259642  22.501   5.424   5.959
 4660POPC   C1A59643  22.028   5.875   6.276
 4660POPC   D2A59644  22.239   6.043   6.634
 4660POPC   C3A59645  22.021   5.983   7.025
 4660POPC   C4A59646  21.931   6.256   7.442
 4660POPC   C1B59647  22.533   5.663   6.336
 4660POPC   C2B59648  22.499   5.642   6.775
 4660POPC   C3B59649  22.520   5.942   7.097
 4660POPC   C4B59650  22.238   5.786   7.429
 4661POPC   NC359651  39.107   5.566   5.466
 4661POPC   PO459652  38.783   4.874   5.447
 4661POPC   GL159653  39.102   5.107   5.753
 4661POPC   GL259654  39.115   5.425   5.943
 4661POPC   C1A59655  39.296   4.943   6.135
 4661POPC   D2A59656  39.554   4.988   6.486
 4661POPC   C3A59657  39.348   5.006   6.881
 4661POPC   C4A59658  39.556   5.223   7.226
 4661POPC   C1B59659  39.146   5.382   6.365
 4661POPC   C2B59660  38.951   5.463   6.753
 4661POPC   C3B59661  39.158   5.566   7.087
 4661POPC   C4B59662  39.054   5.196   7.262
 4662POPC   NC359663   5.533  13.024   5.641
 4662POPC   PO459664   6.029  12.568   5.576
 4662POPC   GL159665   6.222  12.579   5.963
 4662POPC   GL259666   6.069  12.276   6.028
 4662POPC   C1A59667   6.007  12.789   6.298
 4662POPC   D2A59668   6.031  12.824   6.719
 4662POPC   C3A59669   5.699  13.037   6.944
 4662POPC   C4A59670   6.037  13.060   7.210
 4662POPC   C1B59671   5.639  12.458   6.197
 4662POPC   C2B59672   5.574  12.591   6.668
 4662POPC   C3B59673   5.796  12.561   7.106
 4662POPC   C4B59674   5.619  12.498   7.528
 4663POPC   NC359675   2.509   1.093   5.333
 4663POPC   PO459676   3.101   1.172   5.201
 4663POPC   GL159677   2.884   1.255   5.644
 4663POPC   GL259678   2.667   1.006   5.849
 4663POPC   C1A59679   2.948   1.388   6.102
 4663POPC   D2A59680   2.989   1.280   6.551
 4663POPC   C3A59681   2.640   1.389   6.835
 4663POPC   C4A59682   2.616   1.304   7.286
 4663POPC   C1B59683   2.547   1.100   6.285
 4663POPC   C2B59684   2.406   1.528   6.378
 4663POPC   C3B59685   2.239   1.775   6.720
 4663POPC   C4B59686   2.260   1.616   7.126
 4664POPC   NC359687  28.564  43.395   5.111
 4664POPC   PO459688  28.300  43.732   5.617
 4664POPC   GL159689  28.101  43.706   5.970
 4664POPC   GL259690  27.934  43.977   5.889
 4664POPC   C1A59691  28.259  43.911   6.321
 4664POPC   D2A59692  28.578  44.213   6.469
 4664POPC   C3A59693  28.489  44.197   6.889
 4664POPC   C4A59694  28.388  43.990   7.243
 4664POPC   C1B59695  27.826  44.186   6.216
 4664POPC   C2B59696  28.030  44.298   6.581
 4664POPC   C3B59697  27.971  44.270   6.996
 4664POPC   C4B59698  28.237  44.487   7.270
 4665POPC   NC359699  14.473  31.392   5.342
 4665POPC   PO459700  13.916  31.746   5.432
 4665POPC   GL159701  14.128  31.430   5.748
 4665POPC   GL259702  14.493  31.507   5.839
 4665POPC   C1A59703  14.207  31.265   6.197
 4665POPC   D2A59704  14.319  31.458   6.623
 4665POPC   C3A59705  14.285  31.225   7.007
 4665POPC   C4A59706  14.251  31.437   7.439
 4665POPC   C1B59707  14.708  31.374   6.216
 4665POPC   C2B59708  14.845  31.450   6.619
 4665POPC   C3B59709  14.807  31.199   6.973
 4665POPC   C4B59710  14.611  31.101   7.387
 4666POPC   NC359711  16.671  11.763   5.335
 4666POPC   PO459712  16.510  11.121   5.141
 4666POPC   GL159713  16.682  11.272   5.562
 4666POPC   GL259714  16.433  11.439   5.708
 4666POPC   C1A59715  16.856  11.209   5.998
 4666POPC   D2A59716  16.824  11.343   6.442
 4666POPC   C3A59717  17.109  11.222   6.819
 4666POPC   C4A59718  16.846  11.153   7.211
 4666POPC   C1B59719  16.360  11.298   6.127
 4666POPC   C2B59720  16.297  11.269   6.565
 4666POPC   C3B59721  16.446  11.380   6.971
 4666POPC   C4B59722  16.180  11.528   7.264
 4667POPC   NC359723  15.232  31.144   5.402
 4667POPC   PO459724  14.950  30.437   5.401
 4667POPC   GL159725  15.094  30.713   5.746
 4667POPC   GL259726  14.980  31.079   5.841
 4667POPC   C1A59727  15.106  30.689   6.189
 4667POPC   D2A59728  15.008  30.972   6.481
 4667POPC   C3A59729  15.144  30.816   6.853
 4667POPC   C4A59730  14.968  30.789   7.250
 4667POPC   C1B59731  15.406  31.059   6.040
 4667POPC   C2B59732  15.535  30.897   6.459
 4667POPC   C3B59733  15.628  30.932   6.911
 4667POPC   C4B59734  15.476  30.712   7.276
 4668POPC   NC359735  22.892  15.218   5.375
 4668POPC   PO459736  23.244  15.666   5.677
 4668POPC   GL159737  22.964  15.321   5.895
 4668POPC   GL259738  22.742  15.007   5.834
 4668POPC   C1A59739  22.855  15.190   6.328
 4668POPC   D2A59740  22.757  15.449   6.682
 4668POPC   C3A59741  22.845  15.281   7.084
 4668POPC   C4A59742  22.848  15.468   7.477
 4668POPC   C1B59743  22.596  14.749   6.196
 4668POPC   C2B59744  22.754  14.739   6.625
 4668POPC   C3B59745  22.576  14.832   7.009
 4668POPC   C4B59746  22.479  15.041   7.360
 4669POPC   NC359747  27.707  22.404   5.460
 4669POPC   PO459748  27.454  21.845   5.331
 4669POPC   GL159749  27.355  21.993   5.760
 4669POPC   GL259750  27.183  21.653   5.774
 4669POPC   C1A59751  27.516  22.194   6.174
 4669POPC   D2A59752  27.795  22.126   6.543
 4669POPC   C3A59753  27.772  22.356   6.951
 4669POPC   C4A59754  27.730  22.123   7.336
 4669POPC   C1B59755  27.185  21.806   6.203
 4669POPC   C2B59756  27.446  21.736   6.541
 4669POPC   C3B59757  27.492  21.914   6.925
 4669POPC   C4B59758  27.467  21.698   7.279
 4670POPC   NC359759   2.663  32.946   5.131
 4670POPC   PO459760   3.104  33.397   5.347
 4670POPC   GL159761   2.886  33.317   5.795
 4670POPC   GL259762   2.603  33.078   5.798
 4670POPC   C1A59763   2.797  33.210   6.265
 4670POPC   D2A59764   2.818  33.276   6.717
 4670POPC   C3A59765   3.004  33.119   7.072
 4670POPC   C4A59766   2.995  33.296   7.474
 4670POPC   C1B59767   2.551  32.761   6.158
 4670POPC   C2B59768   2.573  32.846   6.598
 4670POPC   C3B59769   2.500  32.985   7.038
 4670POPC   C4B59770   2.681  32.896   7.426
 4671POPC   NC359771   2.905  26.675   5.478
 4671POPC   PO459772   2.749  27.294   5.587
 4671POPC   GL159773   2.813  26.940   5.929
 4671POPC   GL259774   2.799  26.563   5.986
 4671POPC   C1A59775   2.886  26.833   6.394
 4671POPC   D2A59776   2.877  26.629   6.798
 4671POPC   C3A59777   2.801  26.971   7.060
 4671POPC   C4A59778   3.064  27.106   7.421
 4671POPC   C1B59779   2.478  26.511   6.296
 4671POPC   C2B59780   2.377  26.682   6.696
 4671POPC   C3B59781   2.488  26.530   7.126
 4671POPC   C4B59782   2.203  26.558   7.490
 4672POPC   NC359783  34.110  44.414   5.421
 4672POPC   PO459784  33.822  44.957   5.393
 4672POPC   GL159785  33.950  44.756   5.792
 4672POPC   GL259786  33.613  44.806   5.885
 4672POPC   C1A59787  33.984  44.845   6.259
 4672POPC   D2A59788  33.767  44.689   6.633
 4672POPC   C3A59789  33.977  44.677   7.040
 4672POPC   C4A59790  33.858  44.333   7.315
 4672POPC   C1B59791  33.342  44.770   6.246
 4672POPC   C2B59792  33.277  44.855   6.674
 4672POPC   C3B59793  33.453  44.695   7.049
 4672POPC   C4B59794  33.635  44.851   7.425
 4673POPC   NC359795  19.013  22.616   5.181
 4673POPC   PO459796  18.909  23.087   5.630
 4673POPC   GL159797  18.938  22.631   5.746
 4673POPC   GL259798  19.252  22.496   5.891
 4673POPC   C1A59799  18.839  22.615   6.194
 4673POPC   D2A59800  19.063  22.720   6.586
 4673POPC   C3A59801  18.908  22.797   7.017
 4673POPC   C4A59802  19.275  22.686   7.305
 4673POPC   C1B59803  19.315  22.888   6.131
 4673POPC   C2B59804  19.312  23.185   6.460
 4673POPC   C3B59805  19.113  23.232   6.839
 4673POPC   C4B59806  19.173  23.202   7.266
 4674POPC   NC359807  11.860  39.738   5.152
 4674POPC   PO459808  12.227  39.336   5.465
 4674POPC   GL159809  12.128  39.320   5.891
 4674POPC   GL259810  12.456  39.464   5.931
 4674POPC   C1A59811  11.834  39.341   6.273
 4674POPC   D2A59812  11.800  39.547   6.708
 4674POPC   C3A59813  11.982  39.327   7.059
 4674POPC   C4A59814  11.935  39.236   7.506
 4674POPC   C1B59815  12.409  39.308   6.350
 4674POPC   C2B59816  12.579  39.344   6.776
 4674POPC   C3B59817  12.497  39.469   7.165
 4674POPC   C4B59818  12.380  39.109   7.315
 4675POPC   NC359819  31.171  10.219   5.437
 4675POPC   PO459820  31.624   9.635   5.380
 4675POPC   GL159821  31.468   9.908   5.710
 4675POPC   GL259822  31.246   9.633   5.792
 4675POPC   C1A59823  31.255  10.028   6.113
 4675POPC   D2A59824  31.217   9.733   6.467
 4675POPC   C3A59825  31.428   9.823   6.850
 4675POPC   C4A59826  31.395  10.074   7.202
 4675POPC   C1B59827  31.579   9.600   6.119
 4675POPC   C2B59828  31.731   9.475   6.535
 4675POPC   C3B59829  31.686   9.377   6.966
 4675POPC   C4B59830  31.639   9.630   7.314
 4676POPC   NC359831  16.498  23.932   5.488
 4676POPC   PO459832  17.198  23.750   5.413
 4676POPC   GL159833  16.957  23.830   5.773
 4676POPC   GL259834  16.808  23.517   5.863
 4676POPC   C1A59835  16.881  23.894   6.214
 4676POPC   D2A59836  16.876  23.627   6.573
 4676POPC   C3A59837  16.894  23.848   6.933
 4676POPC   C4A59838  17.218  23.819   7.228
 4676POPC   C1B59839  16.502  23.511   6.234
 4676POPC   C2B59840  16.376  23.679   6.662
 4676POPC   C3B59841  16.482  23.580   7.098
 4676POPC   C4B59842  16.284  23.694   7.498
 4677POPC   NC359843  15.642  36.464   5.295
 4677POPC   PO459844  15.652  37.173   5.372
 4677POPC   GL159845  15.909  37.107   5.714
 4677POPC   GL259846  15.993  36.781   5.584
 4677POPC   C1A59847  15.919  37.256   6.142
 4677POPC   D2A59848  15.966  37.006   6.521
 4677POPC   C3A59849  15.811  37.114   6.931
 4677POPC   C4A59850  15.967  36.934   7.327
 4677POPC   C1B59851  16.039  36.720   6.041
 4677POPC   C2B59852  16.116  36.518   6.471
 4677POPC   C3B59853  16.101  36.644   6.898
 4677POPC   C4B59854  16.277  36.482   7.271
 4678POPC   NC359855  16.362   5.751   5.330
 4678POPC   PO459856  15.742   5.918   5.268
 4678POPC   GL159857  15.773   5.854   5.710
 4678POPC   GL259858  16.142   5.816   5.838
 4678POPC   C1A59859  15.696   5.953   6.126
 4678POPC   D2A59860  15.990   5.849   6.478
 4678POPC   C3A59861  15.824   5.840   6.881
 4678POPC   C4A59862  15.579   5.861   7.231
 4678POPC   C1B59863  16.296   5.530   6.173
 4678POPC   C2B59864  16.359   5.508   6.611
 4678POPC   C3B59865  16.170   5.466   7.004
 4678POPC   C4B59866  16.088   5.732   7.323
 4679POPC   NC359867  11.419  26.570   5.392
 4679POPC   PO459868  11.304  27.168   5.483
 4679POPC   GL159869  11.227  27.049   5.883
 4679POPC   GL259870  11.242  26.707   5.849
 4679POPC   C1A59871  11.060  27.060   6.291
 4679POPC   D2A59872  11.196  27.234   6.695
 4679POPC   C3A59873  11.063  27.093   7.124
 4679POPC   C4A59874  11.308  26.970   7.527
 4679POPC   C1B59875  11.455  26.695   6.202
 4679POPC   C2B59876  11.293  26.719   6.607
 4679POPC   C3B59877  11.250  26.618   7.020
 4679POPC   C4B59878  11.346  26.475   7.416
 4680POPC   NC359879  16.858   8.797   5.340
 4680POPC   PO459880  16.363   9.187   5.218
 4680POPC   GL159881  16.532   9.209   5.627
 4680POPC   GL259882  16.239   9.150   5.827
 4680POPC   C1A59883  16.705   9.265   6.056
 4680POPC   D2A59884  16.696   9.032   6.444
 4680POPC   C3A59885  16.932   8.864   6.786
 4680POPC   C4A59886  16.895   9.050   7.185
 4680POPC   C1B59887  16.447   8.789   6.064
 4680POPC   C2B59888  16.421   8.618   6.523
 4680POPC   C3B59889  16.445   8.806   6.950
 4680POPC   C4B59890  16.454   8.990   7.405
 4681POPC   NC359891  21.552  27.387   5.451
 4681POPC   PO459892  21.291  27.960   5.600
 4681POPC   GL159893  21.455  27.698   5.886
 4681POPC   GL259894  21.789  27.670   5.906
 4681POPC   C1A59895  21.404  27.491   6.260
 4681POPC   D2A59896  21.211  27.658   6.613
 4681POPC   C3A59897  21.307  27.519   7.028
 4681POPC   C4A59898  21.056  27.611   7.399
 4681POPC   C1B59899  21.910  27.378   6.249
 4681POPC   C2B59900  21.747  27.397   6.672
 4681POPC   C3B59901  21.805  27.412   7.099
 4681POPC   C4B59902  21.649  27.194   7.430
 4682POPC   NC359903   3.964  24.057   5.711
 4682POPC   PO459904   3.427  23.983   5.364
 4682POPC   GL159905   3.501  23.763   5.793
 4682POPC   GL259906   3.844  23.584   5.847
 4682POPC   C1A59907   3.360  23.781   6.246
 4682POPC   D2A59908   3.450  23.739   6.711
 4682POPC   C3A59909   3.247  23.982   7.057
 4682POPC   C4A59910   3.336  24.023   7.542
 4682POPC   C1B59911   3.720  23.323   6.175
 4682POPC   C2B59912   3.821  23.360   6.629
 4682POPC   C3B59913   3.655  23.367   7.004
 4682POPC   C4B59914   3.547  23.639   7.249
 4683POPC   NC359915  21.498   3.871   5.356
 4683POPC   PO459916  21.068   4.363   5.447
 4683POPC   GL159917  21.203   4.156   5.821
 4683POPC   GL259918  21.537   4.198   5.734
 4683POPC   C1A59919  21.162   4.278   6.264
 4683POPC   D2A59920  21.224   4.145   6.693
 4683POPC   C3A59921  21.037   4.301   7.040
 4683POPC   C4A59922  21.150   4.717   7.202
 4683POPC   C1B59923  21.647   4.385   6.101
 4683POPC   C2B59924  21.680   4.226   6.488
 4683POPC   C3B59925  21.730   4.129   6.913
 4683POPC   C4B59926  21.484   4.298   7.263
 4684POPC   NC359927  20.560  16.977   5.037
 4684POPC   PO459928  20.439  16.485   5.363
 4684POPC   GL159929  20.476  16.546   5.788
 4684POPC   GL259930  20.780  16.374   5.889
 4684POPC   C1A59931  20.614  16.791   6.154
 4684POPC   D2A59932  20.615  16.953   6.577
 4684POPC   C3A59933  20.665  16.678   6.924
 4684POPC   C4A59934  20.778  16.908   7.286
 4684POPC   C1B59935  20.946  16.136   6.236
 4684POPC   C2B59936  20.868  16.112   6.691
 4684POPC   C3B59937  20.949  16.235   7.128
 4684POPC   C4B59938  20.779  16.437   7.486
 4685POPC   NC359939  37.171  29.578   5.554
 4685POPC   PO459940  36.931  30.181   5.150
 4685POPC   GL159941  36.921  30.050   5.631
 4685POPC   GL259942  36.695  29.747   5.732
 4685POPC   C1A59943  37.067  29.936   6.086
 4685POPC   D2A59944  37.177  30.064   6.499
 4685POPC   C3A59945  37.125  29.892   6.878
 4685POPC   C4A59946  37.130  29.749   7.274
 4685POPC   C1B59947  36.683  29.618   6.184
 4685POPC   C2B59948  36.709  29.864   6.558
 4685POPC   C3B59949  36.675  30.184   6.868
 4685POPC   C4B59950  36.932  30.253   7.188
 4686POPC   NC359951  37.190  38.399   5.181
 4686POPC   PO459952  36.577  38.227   5.282
 4686POPC   GL159953  36.738  38.268   5.741
 4686POPC   GL259954  37.085  38.410   5.697
 4686POPC   C1A59955  36.829  38.499   6.160
 4686POPC   D2A59956  37.135  38.722   6.457
 4686POPC   C3A59957  37.179  38.598   6.912
 4686POPC   C4A59958  36.824  38.634   7.222
 4686POPC   C1B59959  37.205  38.154   6.047
 4686POPC   C2B59960  37.257  38.190   6.503
 4686POPC   C3B59961  37.196  38.043   6.919
 4686POPC   C4B59962  37.087  38.195   7.303
 4687POPC   NC359963  27.167   6.033   5.580
 4687POPC   PO459964  27.004   6.674   5.469
 4687POPC   GL159965  26.895   6.500   5.830
 4687POPC   GL259966  26.543   6.424   5.820
 4687POPC   C1A59967  26.999   6.729   6.190
 4687POPC   D2A59968  26.782   6.937   6.516
 4687POPC   C3A59969  26.975   6.898   6.920
 4687POPC   C4A59970  26.904   6.654   7.283
 4687POPC   C1B59971  26.489   6.555   6.247
 4687POPC   C2B59972  26.329   6.759   6.619
 4687POPC   C3B59973  26.456   6.742   7.058
 4687POPC   C4B59974  26.471   6.525   7.487
 4688POPC   NC359975   4.720  27.354   5.334
 4688POPC   PO459976   5.383  27.340   5.318
 4688POPC   GL159977   5.116  27.566   5.629
 4688POPC   GL259978   5.385  27.567   5.817
 4688POPC   C1A59979   4.991  27.737   6.082
 4688POPC   D2A59980   4.830  27.654   6.505
 4688POPC   C3A59981   5.026  27.727   6.904
 4688POPC   C4A59982   5.028  28.000   7.262
 4688POPC   C1B59983   5.352  27.366   6.228
 4688POPC   C2B59984   5.190  27.289   6.620
 4688POPC   C3B59985   5.412  27.307   6.975
 4688POPC   C4B59986   5.502  27.469   7.350
 4689POPC   NC359987  10.693  30.056   5.577
 4689POPC   PO459988  10.315  29.542   5.844
 4689POPC   GL159989  10.606  29.794   6.002
 4689POPC   GL259990  10.348  30.034   5.950
 4689POPC   C1A59991  10.742  30.153   6.255
 4689POPC   D2A59992  10.635  30.216   6.697
 4689POPC   C3A59993  10.556  29.791   6.887
 4689POPC   C4A59994  10.643  29.769   7.325
 4689POPC   C1B59995  10.277  29.983   6.388
 4689POPC   C2B59996  10.063  29.834   6.733
 4689POPC   C3B59997  10.139  29.857   7.170
 4689POPC   C4B59998  10.412  30.205   7.159
 4690POPC   NC359999  33.549  30.294   5.379
 4690POPC   PO460000  33.952  30.794   5.373
 4690POPC   GL160001  33.950  30.893   5.819
 4690POPC   GL260002  33.745  30.591   5.908
 4690POPC   C1A60003  33.893  30.912   6.280
 4690POPC   D2A60004  33.647  30.748   6.608
 4690POPC   C3A60005  33.877  30.550   6.929
 4690POPC   C4A60006  34.056  30.798   7.255
 4690POPC   C1B60007  33.393  30.474   6.203
 4690POPC   C2B60008  33.381  30.323   6.641
 4690POPC   C3B60009  33.342  30.483   7.092
 4690POPC   C4B60010  33.366  30.402   7.608
 4691POPC   NC360011  30.225   3.441   5.419
 4691POPC   PO460012  29.847   4.037   5.456
 4691POPC   GL160013  30.079   3.765   5.802
 4691POPC   GL260014  30.034   3.381   5.883
 4691POPC   C1A60015  30.132   3.714   6.266
 4691POPC   D2A60016  30.353   3.749   6.672
 4691POPC   C3A60017  30.146   3.563   7.050
 4691POPC   C4A60018  29.995   3.914   7.294
 4691POPC   C1B60019  29.768   3.288   6.227
 4691POPC   C2B60020  29.811   3.458   6.635
 4691POPC   C3B60021  29.643   3.588   7.011
 4691POPC   C4B60022  29.679   3.308   7.327
 4692POPC   NC360023   7.702   4.727   5.386
 4692POPC   PO460024   7.540   5.344   5.556
 4692POPC   GL160025   7.314   5.099   5.806
 4692POPC   GL260026   7.514   4.852   5.848
 4692POPC   C1A60027   7.203   5.033   6.258
 4692POPC   D2A60028   7.467   5.123   6.638
 4692POPC   C3A60029   7.335   5.225   7.064
 4692POPC   C4A60030   7.553   5.565   7.287
 4692POPC   C1B60031   7.632   4.767   6.244
 4692POPC   C2B60032   7.431   4.630   6.605
 4692POPC   C3B60033   7.405   4.704   7.025
 4692POPC   C4B60034   7.401   4.876   7.430
 4693POPC   NC360035  38.018  28.473   5.612
 4693POPC   PO460036  38.554  28.102   5.489
 4693POPC   GL160037  38.405  28.246   5.890
 4693POPC   GL260038  38.471  28.596   5.873
 4693POPC   C1A60039  38.299  28.431   6.312
 4693POPC   D2A60040  38.089  28.336   6.687
 4693POPC   C3A60041  38.212  28.520   7.080
 4693POPC   C4A60042  38.328  28.249   7.450
 4693POPC   C1B60043  38.810  28.496   6.160
 4693POPC   C2B60044  38.764  28.424   6.585
 4693POPC   C3B60045  38.932  28.285   6.930
 4693POPC   C4B60046  38.843  28.219   7.328
 4694POPC   NC360047  25.773  19.083   5.344
 4694POPC   PO460048  26.351  18.897   5.579
 4694POPC   GL160049  26.061  18.832   5.847
 4694POPC   GL260050  25.999  19.173   5.816
 4694POPC   C1A60051  26.138  18.922   6.261
 4694POPC   D2A60052  26.293  19.190   6.582
 4694POPC   C3A60053  26.186  18.962   6.944
 4694POPC   C4A60054  25.767  18.848   7.139
 4694POPC   C1B60055  26.029  19.420   6.178
 4694POPC   C2B60056  25.914  19.556   6.598
 4694POPC   C3B60057  26.088  19.475   7.033
 4694POPC   C4B60058  26.198  19.595   7.479
 4695POPC   NC360059   7.949  26.296   5.481
 4695POPC   PO460060   7.287  26.140   5.398
 4695POPC   GL160061   7.333  25.967   5.828
 4695POPC   GL260062   7.680  25.859   5.759
 4695POPC   C1A60063   7.272  25.999   6.305
 4695POPC   D2A60064   7.411  26.253   6.675
 4695POPC   C3A60065   7.228  26.217   7.106
 4695POPC   C4A60066   7.278  26.496   7.495
 4695POPC   C1B60067   7.771  26.060   6.164
 4695POPC   C2B60068   7.829  25.916   6.595
 4695POPC   C3B60069   7.681  25.951   7.020
 4695POPC   C4B60070   7.721  26.331   7.250
 4696POPC   NC360071  40.113  37.254   5.481
 4696POPC   PO460072  39.705  36.730   5.638
 4696POPC   GL160073  39.998  36.912   5.953
 4696POPC   GL260074  40.356  36.935   5.843
 4696POPC   C1A60075  40.000  36.709   6.371
 4696POPC   D2A60076  39.672  36.506   6.667
 4696POPC   C3A60077  39.835  36.628   7.075
 4696POPC   C4A60078  39.843  37.112   7.130
 4696POPC   C1B60079  40.369  37.116   6.285
 4696POPC   C2B60080  40.229  37.078   6.724
 4696POPC   C3B60081  40.294  36.870   7.134
 4696POPC   C4B60082  40.509  37.063   7.447
 4697POPC   NC360083  17.283  18.691   5.448
 4697POPC   PO460084  17.556  19.206   5.145
 4697POPC   GL160085  17.607  19.130   5.617
 4697POPC   GL260086  17.293  19.095   5.767
 4697POPC   C1A60087  17.723  19.015   6.071
 4697POPC   D2A60088  17.624  18.809   6.492
 4697POPC   C3A60089  17.688  19.014   6.896
 4697POPC   C4A60090  17.463  19.302   7.174
 4697POPC   C1B60091  17.218  18.818   6.124
 4697POPC   C2B60092  17.111  18.705   6.549
 4697POPC   C3B60093  17.179  18.891   6.949
 4697POPC   C4B60094  17.437  18.790   7.293
 4698POPC   NC360095   3.782  16.429   5.589
 4698POPC   PO460096   3.623  16.980   5.227
 4698POPC   GL160097   3.567  16.901   5.687
 4698POPC   GL260098   3.313  16.590   5.756
 4698POPC   C1A60099   3.581  16.825   6.136
 4698POPC   D2A60100   3.383  16.894   6.535
 4698POPC   C3A60101   3.671  16.676   6.812
 4698POPC   C4A60102   3.777  16.746   7.228
 4698POPC   C1B60103   3.190  16.489   6.197
 4698POPC   C2B60104   3.243  16.395   6.637
 4698POPC   C3B60105   3.194  16.633   7.012
 4698POPC   C4B60106   3.303  16.631   7.435
 4699POPC   NC360107  39.239  30.104   5.037
 4699POPC   PO460108  39.032  29.634   5.484
 4699POPC   GL160109  39.309  29.866   5.806
 4699POPC   GL260110  39.389  29.577   5.964
 4699POPC   C1A60111  39.555  29.972   6.215
 4699POPC   D2A60112  39.554  29.784   6.652
 4699POPC   C3A60113  39.380  29.981   7.023
 4699POPC   C4A60114  38.898  30.118   7.034
 4699POPC   C1B60115  39.081  29.762   6.267
 4699POPC   C2B60116  39.032  29.732   6.711
 4699POPC   C3B60117  39.040  29.622   7.157
 4699POPC   C4B60118  38.846  29.837   7.528
 4700POPC   NC360119   9.193  30.095   5.519
 4700POPC   PO460120   8.575  29.873   5.501
 4700POPC   GL160121   8.892  29.804   5.836
 4700POPC   GL260122   9.133  29.524   5.906
 4700POPC   C1A60123   9.072  29.947   6.212
 4700POPC   D2A60124   8.985  30.084   6.600
 4700POPC   C3A60125   9.070  29.832   6.928
 4700POPC   C4A60126   8.722  29.708   7.201
 4700POPC   C1B60127   9.362  29.532   6.251
 4700POPC   C2B60128   9.247  29.430   6.629
 4700POPC   C3B60129   9.369  29.439   7.040
 4700POPC   C4B60130   9.176  29.589   7.429
 4701POPC   NC360131   2.975  16.092   5.174
 4701POPC   PO460132   3.486  16.063   5.599
 4701POPC   GL160133   3.570  16.165   5.980
 4701POPC   GL260134   3.627  15.818   6.044
 4701POPC   C1A60135   3.650  16.178   6.404
 4701POPC   D2A60136   3.914  15.962   6.685
 4701POPC   C3A60137   3.797  16.164   7.086
 4701POPC   C4A60138   3.353  16.145   7.240
 4701POPC   C1B60139   3.516  15.647   6.416
 4701POPC   C2B60140   3.541  15.623   6.852
 4701POPC   C3B60141   3.855  15.653   7.150
 4701POPC   C4B60142   3.835  15.549   7.556
 4702POPC   NC360143  42.540   5.975   5.617
 4702POPC   PO460144  41.844   5.786   5.597
 4702POPC   GL160145  42.174   5.712   5.861
 4702POPC   GL260146  42.135   6.067   5.949
 4702POPC   C1A60147  42.431   5.697   6.238
 4702POPC   D2A60148  42.278   5.801   6.659
 4702POPC   C3A60149  42.374   5.529   6.982
 4702POPC   C4A60150  42.264   5.256   7.291
 4702POPC   C1B60151  42.373   6.211   6.316
 4702POPC   C2B60152  42.407   6.302   6.758
 4702POPC   C3B60153  42.382   6.044   7.125
 4702POPC   C4B60154  42.169   6.022   7.543
 4703POPC   NC360155  41.093  11.848   5.554
 4703POPC   PO460156  40.754  12.378   5.273
 4703POPC   GL160157  40.915  12.321   5.695
 4703POPC   GL260158  40.659  12.096   5.803
 4703POPC   C1A60159  40.963  12.275   6.179
 4703POPC   D2A60160  40.904  12.370   6.644
 4703POPC   C3A60161  40.835  12.063   6.976
 4703POPC   C4A60162  40.504  12.168   7.246
 4703POPC   C1B60163  40.424  11.920   6.166
 4703POPC   C2B60164  40.482  11.897   6.620
 4703POPC   C3B60165  40.380  11.715   7.029
 4703POPC   C4B60166  40.236  11.808   7.453
 4704POPC   NC360167  15.462   6.002   4.917
 4704POPC   PO460168  15.084   5.911   5.454
 4704POPC   GL160169  14.972   5.919   5.865
 4704POPC   GL260170  14.940   5.576   5.911
 4704POPC   C1A60171  15.196   6.022   6.234
 4704POPC   D2A60172  15.026   6.018   6.628
 4704POPC   C3A60173  15.231   6.167   6.979
 4704POPC   C4A60174  15.108   5.979   7.330
 4704POPC   C1B60175  15.270   5.488   6.206
 4704POPC   C2B60176  15.435   5.683   6.570
 4704POPC   C3B60177  15.201   5.648   6.942
 4704POPC   C4B60178  15.146   5.458   7.313
 4705POPC   NC360179  30.564  11.655   5.473
 4705POPC   PO460180  30.831  12.267   5.497
 4705POPC   GL160181  30.783  11.953   5.829
 4705POPC   GL260182  30.956  12.180   6.010
 4705POPC   C1A60183  30.663  11.854   6.264
 4705POPC   D2A60184  30.744  12.077   6.661
 4705POPC   C3A60185  30.565  11.958   7.071
 4705POPC   C4A60186  30.704  11.776   7.475
 4705POPC   C1B60187  31.035  12.413   6.393
 4705POPC   C2B60188  31.123  12.382   6.840
 4705POPC   C3B60189  30.929  12.270   7.263
 4705POPC   C4B60190  30.716  12.234   7.660
 4706POPC   NC360191  15.938   9.219   5.398
 4706POPC   PO460192  15.635   8.639   5.435
 4706POPC   GL160193  15.835   8.815   5.805
 4706POPC   GL260194  15.646   9.111   5.788
 4706POPC   C1A60195  15.991   8.771   6.285
 4706POPC   D2A60196  15.817   8.968   6.678
 4706POPC   C3A60197  15.997   8.985   7.084
 4706POPC   C4A60198  16.113   8.639   7.349
 4706POPC   C1B60199  15.664   9.133   6.209
 4706POPC   C2B60200  15.709   9.450   6.528
 4706POPC   C3B60201  15.618   9.570   6.963
 4706POPC   C4B60202  15.550   9.215   7.230
 4707POPC   NC360203   1.297  10.756   5.669
 4707POPC   PO460204   1.601  11.296   5.440
 4707POPC   GL160205   1.379  11.460   5.821
 4707POPC   GL260206   1.216  11.172   5.975
 4707POPC   C1A60207   1.494  11.501   6.250
 4707POPC   D2A60208   1.233  11.277   6.558
 4707POPC   C3A60209   1.344  11.449   6.938
 4707POPC   C4A60210   1.355  11.595   7.343
 4707POPC   C1B60211   1.013  10.898   6.271
 4707POPC   C2B60212   0.769  10.993   6.629
 4707POPC   C3B60213   0.977  11.045   6.992
 4707POPC   C4B60214   1.251  11.094   7.326
 4708POPC   NC360215  33.363  42.724   5.413
 4708POPC   PO460216  32.942  43.148   5.198
 4708POPC   GL160217  33.195  43.171   5.611
 4708POPC   GL260218  32.979  42.987   5.761
 4708POPC   C1A60219  33.325  43.067   6.095
 4708POPC   D2A60220  33.368  43.217   6.532
 4708POPC   C3A60221  33.194  42.955   6.831
 4708POPC   C4A60222  33.111  43.032   7.246
 4708POPC   C1B60223  32.818  43.238   6.105
 4708POPC   C2B60224  32.845  43.217   6.530
 4708POPC   C3B60225  32.723  43.153   6.954
 4708POPC   C4B60226  32.750  43.371   7.345
 4709POPC   NC360227  27.101  28.357   5.655
 4709POPC   PO460228  26.638  28.796   5.482
 4709POPC   GL160229  26.659  28.545   5.859
 4709POPC   GL260230  26.641  28.187   5.824
 4709POPC   C1A60231  26.793  28.453   6.262
 4709POPC   D2A60232  26.982  28.418   6.643
 4709POPC   C3A60233  26.774  28.473   7.015
 4709POPC   C4A60234  27.012  28.267   7.266
 4709POPC   C1B60235  26.515  27.981   6.195
 4709POPC   C2B60236  26.183  28.003   6.505
 4709POPC   C3B60237  26.271  28.137   6.938
 4709POPC   C4B60238  26.523  28.086   7.315
 4710POPC   NC360239  37.261  21.630   5.382
 4710POPC   PO460240  36.740  21.259   5.368
 4710POPC   GL160241  36.874  21.220   5.804
 4710POPC   GL260242  37.215  21.145   5.952
 4710POPC   C1A60243  36.612  21.284   6.168
 4710POPC   D2A60244  36.584  21.577   6.513
 4710POPC   C3A60245  36.583  21.382   6.886
 4710POPC   C4A60246  36.778  21.396   7.272
 4710POPC   C1B60247  37.079  21.334   6.405
 4710POPC   C2B60248  37.082  21.525   6.862
 4710POPC   C3B60249  37.155  21.716   7.331
 4710POPC   C4B60250  37.421  21.599   7.713
 4711POPC   NC360251  18.635  23.452   5.532
 4711POPC   PO460252  18.430  22.847   5.276
 4711POPC   GL160253  18.495  22.874   5.810
 4711POPC   GL260254  18.267  22.633   5.962
 4711POPC   C1A60255  18.379  23.094   6.182
 4711POPC   D2A60256  18.232  23.184   6.592
 4711POPC   C3A60257  18.574  23.289   6.880
 4711POPC   C4A60258  18.584  23.126   7.302
 4711POPC   C1B60259  18.378  22.439   6.312
 4711POPC   C2B60260  18.536  22.673   6.628
 4711POPC   C3B60261  18.342  22.831   6.943
 4711POPC   C4B60262  18.356  22.648   7.278
 4712POPC   NC360263  27.206  42.240   5.426
 4712POPC   PO460264  27.824  42.477   5.361
 4712POPC   GL160265  27.701  42.274   5.767
 4712POPC   GL260266  27.378  42.337   5.886
 4712POPC   C1A60267  27.902  42.126   6.154
 4712POPC   D2A60268  27.901  42.286   6.560
 4712POPC   C3A60269  27.828  42.120   6.980
 4712POPC   C4A60270  28.052  42.270   7.354
 4712POPC   C1B60271  27.400  42.182   6.307
 4712POPC   C2B60272  27.383  42.158   6.737
 4712POPC   C3B60273  27.368  42.331   7.122
 4712POPC   C4B60274  27.565  42.131   7.442
 4713POPC   NC360275   0.359   6.072   5.660
 4713POPC   PO460276  44.783   6.062   5.262
 4713POPC   GL160277  44.612   6.040   5.724
 4713POPC   GL260278  44.919   5.862   5.851
 4713POPC   C1A60279  44.547   5.949   6.192
 4713POPC   D2A60280  44.817   5.917   6.568
 4713POPC   C3A60281  44.524   5.900   6.892
 4713POPC   C4A60282  44.347   5.859   7.298
 4713POPC   C1B60283  44.882   5.502   6.131
 4713POPC   C2B60284   0.000   5.422   6.548
 4713POPC   C3B60285  44.932   5.577   6.965
 4713POPC   C4B60286   0.221   5.729   7.239
 4714POPC   NC360287   2.383  42.295   5.474
 4714POPC   PO460288   1.709  42.537   5.508
 4714POPC   GL160289   2.021  42.539   5.779
 4714POPC   GL260290   2.006  42.203   5.809
 4714POPC   C1A60291   2.030  42.544   6.207
 4714POPC   D2A60292   1.803  42.518   6.584
 4714POPC   C3A60293   2.059  42.467   6.904
 4714POPC   C4A60294   2.174  42.603   7.298
 4714POPC   C1B60295   2.181  41.979   6.118
 4714POPC   C2B60296   2.203  42.132   6.504
 4714POPC   C3B60297   2.173  41.944   6.879
 4714POPC   C4B60298   2.063  42.111   7.280
 4715POPC   NC360299  37.028   1.435   5.411
 4715POPC   PO460300  36.412   1.297   5.537
 4715POPC   GL160301  36.735   1.304   5.885
 4715POPC   GL260302  37.049   1.084   5.827
 4715POPC   C1A60303  36.738   1.195   6.350
 4715POPC   D2A60304  36.852   0.943   6.725
 4715POPC   C3A60305  36.863   1.214   7.069
 4715POPC   C4A60306  36.691   1.314   7.471
 4715POPC   C1B60307  37.234   1.275   6.212
 4715POPC   C2B60308  37.245   1.337   6.686
 4715POPC   C3B60309  37.352   1.315   7.146
 4715POPC   C4B60310  37.172   1.063   7.461
 4716POPC   NC360311   8.502  11.698   5.608
 4716POPC   PO460312   8.014  12.036   5.296
 4716POPC   GL160313   8.037  12.131   5.746
 4716POPC   GL260314   8.158  11.890   5.929
 4716POPC   C1A60315   8.015  12.316   6.163
 4716POPC   D2A60316   7.838  12.285   6.571
 4716POPC   C3A60317   8.132  12.136   6.852
 4716POPC   C4A60318   8.141  12.223   7.275
 4716POPC   C1B60319   8.183  11.790   6.359
 4716POPC   C2B60320   8.387  11.690   6.733
 4716POPC   C3B60321   8.328  11.750   7.142
 4716POPC   C4B60322   7.982  11.598   7.291
 4717POPC   NC360323  16.609  15.387   5.298
 4717POPC   PO460324  16.524  16.103   5.217
 4717POPC   GL160325  16.697  15.998   5.660
 4717POPC   GL260326  16.550  15.696   5.811
 4717POPC   C1A60327  16.967  15.956   6.064
 4717POPC   D2A60328  17.055  15.968   6.543
 4717POPC   C3A60329  16.843  15.927   6.976
 4717POPC   C4A60330  16.855  15.548   7.257
 4717POPC   C1B60331  16.469  16.008   6.128
 4717POPC   C2B60332  16.545  15.975   6.552
 4717POPC   C3B60333  16.377  16.200   6.882
 4717POPC   C4B60334  16.295  16.106   7.296
 4718POPC   NC360335   0.018  44.320   4.998
 4718POPC   PO460336  44.679  44.845   5.327
 4718POPC   GL160337  44.636  44.579   5.717
 4718POPC   GL260338  44.926  44.680   5.795
 4718POPC   C1A60339  44.609  44.478   6.169
 4718POPC   D2A60340  44.782  44.492   6.590
 4718POPC   C3A60341  44.582  44.350   6.945
 4718POPC   C4A60342  44.602  44.583   7.286
 4718POPC   C1B60343  44.926  44.974   6.106
 4718POPC   C2B60344   0.056  44.932   6.512
 4718POPC   C3B60345  44.866  44.913   6.911
 4718POPC   C4B60346   0.057  44.821   7.304
 4719POPC   NC360347  19.023  44.277   5.439
 4719POPC   PO460348  18.960  44.852   5.577
 4719POPC   GL160349  19.224  44.598   5.840
 4719POPC   GL260350  18.951  44.376   5.939
 4719POPC   C1A60351  19.287  44.604   6.287
 4719POPC   D2A60352  19.051  44.435   6.593
 4719POPC   C3A60353  19.193  44.295   6.979
 4719POPC   C4A60354  19.125  44.516   7.332
 4719POPC   C1B60355  18.752  44.678   6.192
 4719POPC   C2B60356  18.680  44.879   6.566
 4719POPC   C3B60357  18.822  44.750   6.970
 4719POPC   C4B60358  18.596  44.619   7.314
 4720POPC   NC360359  28.632  14.309   5.224
 4720POPC   PO460360  27.985  14.126   5.456
 4720POPC   GL160361  28.128  14.278   5.834
 4720POPC   GL260362  28.493  14.272   5.737
 4720POPC   C1A60363  28.079  14.263   6.273
 4720POPC   D2A60364  28.229  14.084   6.676
 4720POPC   C3A60365  28.044  14.265   7.055
 4720POPC   C4A60366  28.132  14.630   7.351
 4720POPC   C1B60367  28.553  14.165   6.182
 4720POPC   C2B60368  28.434  14.532   6.512
 4720POPC   C3B60369  28.464  14.528   6.945
 4720POPC   C4B60370  28.533  14.108   7.133
 4721POPC   NC360371  37.715  15.721   5.436
 4721POPC   PO460372  37.664  15.002   5.412
 4721POPC   GL160373  37.658  15.144   5.866
 4721POPC   GL260374  37.627  15.510   5.890
 4721POPC   C1A60375  37.707  15.033   6.323
 4721POPC   D2A60376  37.803  14.856   6.736
 4721POPC   C3A60377  37.598  15.023   7.103
 4721POPC   C4A60378  37.836  15.156   7.460
 4721POPC   C1B60379  37.392  15.430   6.263
 4721POPC   C2B60380  37.523  15.351   6.708
 4721POPC   C3B60381  37.483  15.548   7.132
 4721POPC   C4B60382  37.602  15.586   7.563
 4722POPC   NC360383  16.285  41.013   5.515
 4722POPC   PO460384  16.989  40.934   5.608
 4722POPC   GL160385  16.711  40.718   5.896
 4722POPC   GL260386  16.356  40.706   5.912
 4722POPC   C1A60387  16.749  40.767   6.324
 4722POPC   D2A60388  17.016  40.602   6.614
 4722POPC   C3A60389  16.854  40.767   6.988
 4722POPC   C4A60390  16.947  40.921   7.378
 4722POPC   C1B60391  16.401  40.410   6.229
 4722POPC   C2B60392  16.445  40.485   6.660
 4722POPC   C3B60393  16.488  40.397   7.083
 4722POPC   C4B60394  16.738  40.472   7.418
 4723POPC   NC360395   8.222  11.523   5.194
 4723POPC   PO460396   8.580  11.254   5.695
 4723POPC   GL160397   8.299  11.384   5.961
 4723POPC   GL260398   8.018  11.430   5.737
 4723POPC   C1A60399   8.455  11.344   6.354
 4723POPC   D2A60400   8.688  11.181   6.672
 4723POPC   C3A60401   8.413  11.242   6.976
 4723POPC   C4A60402   8.407  11.264   7.359
 4723POPC   C1B60403   7.848  11.429   6.179
 4723POPC   C2B60404   8.020  11.329   6.613
 4723POPC   C3B60405   7.868  11.195   7.005
 4723POPC   C4B60406   7.939  11.099   7.463
 4724POPC   NC360407   4.616  44.339   5.403
 4724POPC   PO460408   4.178  43.719   5.499
 4724POPC   GL160409   4.266  43.900   5.890
 4724POPC   GL260410   4.049  43.684   6.022
 4724POPC   C1A60411   4.502  43.867   6.270
 4724POPC   D2A60412   4.444  43.674   6.667
 4724POPC   C3A60413   4.547  43.924   7.025
 4724POPC   C4A60414   4.775  44.060   7.352
 4724POPC   C1B60415   4.004  43.915   6.387
 4724POPC   C2B60416   4.150  44.085   6.721
 4724POPC   C3B60417   4.047  43.864   7.068
 4724POPC   C4B60418   3.814  44.010   7.403
 4725POPC   NC360419   5.429  44.939   5.175
 4725POPC   PO460420   5.095  44.415   5.471
 4725POPC   GL160421   5.310  44.548   5.841
 4725POPC   GL260422   5.438  44.917   5.868
 4725POPC   C1A60423   5.183  44.567   6.265
 4725POPC   D2A60424   4.818  44.553   6.551
 4725POPC   C3A60425   4.933  44.332   6.910
 4725POPC   C4A60426   5.020  44.510   7.290
 4725POPC   C1B60427   5.215   0.068   6.265
 4725POPC   C2B60428   5.283   0.093   6.706
 4725POPC   C3B60429   5.214  44.993   7.127
 4725POPC   C4B60430   5.073  44.954   7.533
 4726POPC   NC360431  22.406  26.259   5.476
 4726POPC   PO460432  21.764  25.949   5.286
 4726POPC   GL160433  21.942  26.044   5.706
 4726POPC   GL260434  22.245  25.895   5.838
 4726POPC   C1A60435  21.868  26.040   6.176
 4726POPC   D2A60436  22.142  25.991   6.557
 4726POPC   C3A60437  21.949  26.074   6.962
 4726POPC   C4A60438  21.988  26.356   7.310
 4726POPC   C1B60439  22.364  26.264   6.135
 4726POPC   C2B60440  22.500  26.423   6.558
 4726POPC   C3B60441  22.398  26.318   6.964
 4726POPC   C4B60442  22.503  26.169   7.364
 4727POPC   NC360443   3.707  20.515   5.359
 4727POPC   PO460444   3.220  20.852   5.681
 4727POPC   GL160445   3.578  20.821   5.909
 4727POPC   GL260446   3.658  20.497   5.892
 4727POPC   C1A60447   3.659  20.804   6.356
 4727POPC   D2A60448   3.439  20.628   6.731
 4727POPC   C3A60449   3.368  20.923   7.048
 4727POPC   C4A60450   3.761  20.783   7.235
 4727POPC   C1B60451   3.344  20.415   6.256
 4727POPC   C2B60452   3.267  20.160   6.600
 4727POPC   C3B60453   3.368  20.153   6.992
 4727POPC   C4B60454   3.359  20.460   7.253
 4728POPC   NC360455  21.853  30.007   5.347
 4728POPC   PO460456  22.496  30.138   5.483
 4728POPC   GL160457  22.421  29.934   5.897
 4728POPC   GL260458  22.065  29.894   5.842
 4728POPC   C1A60459  22.375  29.708   6.297
 4728POPC   D2A60460  22.253  29.431   6.644
 4728POPC   C3A60461  22.156  29.604   7.022
 4728POPC   C4A60462  22.326  29.908   7.250
 4728POPC   C1B60463  21.993  30.047   6.276
 4728POPC   C2B60464  22.131  30.017   6.725
 4728POPC   C3B60465  22.041  30.278   7.105
 4728POPC   C4B60466  21.893  30.172   7.539
 4729POPC   NC360467  17.562  18.043   5.246
 4729POPC   PO460468  17.821  18.645   5.475
 4729POPC   GL160469  17.553  18.549   5.839
 4729POPC   GL260470  17.440  18.184   5.778
 4729POPC   C1A60471  17.478  18.377   6.236
 4729POPC   D2A60472  17.647  18.213   6.562
 4729POPC   C3A60473  17.553  18.477   6.876
 4729POPC   C4A60474  17.619  18.328   7.248
 4729POPC   C1B60475  17.235  17.906   6.128
 4729POPC   C2B60476  17.364  17.763   6.560
 4729POPC   C3B60477  17.385  17.961   6.970
 4729POPC   C4B60478  17.330  17.978   7.433
 4730POPC   NC360479   5.891  44.563   4.945
 4730POPC   PO460480   6.263  44.997   5.275
 4730POPC   GL160481   5.956  44.888   5.689
 4730POPC   GL260482   5.819  44.535   5.751
 4730POPC   C1A60483   5.917  44.765   6.176
 4730POPC   D2A60484   5.606  44.696   6.541
 4730POPC   C3A60485   5.693  44.848   6.972
 4730POPC   C4A60486   5.961  44.657   7.274
 4730POPC   C1B60487   5.641  44.327   6.165
 4730POPC   C2B60488   5.403  44.217   6.583
 4730POPC   C3B60489   5.462  44.385   7.005
 4730POPC   C4B60490   5.731  44.205   7.320
 4731POPC   NC360491  11.636  13.466   5.478
 4731POPC   PO460492  11.177  13.857   5.222
 4731POPC   GL160493  11.247  13.755   5.756
 4731POPC   GL260494  11.552  13.656   5.926
 4731POPC   C1A60495  11.146  13.683   6.220
 4731POPC   D2A60496  11.096  13.441   6.595
 4731POPC   C3A60497  11.022  13.748   6.907
 4731POPC   C4A60498  11.345  13.745   7.169
 4731POPC   C1B60499  11.673  13.842   6.277
 4731POPC   C2B60500  11.519  13.732   6.663
 4731POPC   C3B60501  11.632  13.388   6.905
 4731POPC   C4B60502  11.712  13.441   7.333
 4732POPC   NC360503  40.384   8.010   5.539
 4732POPC   PO460504  39.655   7.970   5.454
 4732POPC   GL160505  39.911   8.109   5.809
 4732POPC   GL260506  40.146   7.898   5.967
 4732POPC   C1A60507  40.060   8.339   6.196
 4732POPC   D2A60508  39.963   8.597   6.522
 4732POPC   C3A60509  40.123   8.511   6.911
 4732POPC   C4A60510  39.792   8.497   7.206
 4732POPC   C1B60511  39.828   7.894   6.276
 4732POPC   C2B60512  39.892   8.106   6.651
 4732POPC   C3B60513  39.958   8.040   7.066
 4732POPC   C4B60514  40.100   7.757   7.385
 4733POPC   NC360515  32.326  25.608   5.472
 4733POPC   PO460516  32.139  24.924   5.540
 4733POPC   GL160517  32.093  25.210   5.843
 4733POPC   GL260518  32.423  25.287   5.854
 4733POPC   C1A60519  32.152  25.397   6.263
 4733POPC   D2A60520  32.182  25.457   6.691
 4733POPC   C3A60521  32.029  25.752   6.999
 4733POPC   C4A60522  32.001  25.721   7.462
 4733POPC   C1B60523  32.495  24.981   6.165
 4733POPC   C2B60524  32.340  24.947   6.565
 4733POPC   C3B60525  32.479  25.118   6.909
 4733POPC   C4B60526  32.249  25.352   7.179
 4734POPC   NC360527  34.354   4.938   5.311
 4734POPC   PO460528  34.960   5.293   5.407
 4734POPC   GL160529  34.673   5.094   5.690
 4734POPC   GL260530  34.403   5.337   5.621
 4734POPC   C1A60531  34.636   4.821   6.082
 4734POPC   D2A60532  34.689   4.710   6.548
 4734POPC   C3A60533  34.361   4.879   6.839
 4734POPC   C4A60534  34.221   4.947   7.273
 4734POPC   C1B60535  34.423   5.334   6.079
 4734POPC   C2B60536  34.530   5.303   6.519
 4734POPC   C3B60537  34.741   5.269   6.913
 4734POPC   C4B60538  34.623   5.294   7.348
 4735POPC   NC360539  25.874  27.034   5.575
 4735POPC   PO460540  26.290  26.591   5.468
 4735POPC   GL160541  26.182  26.661   5.911
 4735POPC   GL260542  25.957  26.952   6.063
 4735POPC   C1A60543  26.276  26.687   6.355
 4735POPC   D2A60544  25.972  26.908   6.601
 4735POPC   C3A60545  25.904  26.758   7.002
 4735POPC   C4A60546  26.175  26.509   7.198
 4735POPC   C1B60547  25.723  26.599   6.274
 4735POPC   C2B60548  25.508  26.700   6.679
 4735POPC   C3B60549  25.563  27.141   6.837
 4735POPC   C4B60550  25.850  27.248   7.191
 4736POPC   NC360551  20.869  32.380   5.392
 4736POPC   PO460552  20.916  31.842   5.790
 4736POPC   GL160553  20.644  32.204   5.863
 4736POPC   GL260554  20.338  32.022   5.795
 4736POPC   C1A60555  20.653  32.382   6.315
 4736POPC   D2A60556  20.979  32.261   6.661
 4736POPC   C3A60557  20.813  32.277   7.098
 4736POPC   C4A60558  20.401  32.441   7.232
 4736POPC   C1B60559  20.366  31.951   6.267
 4736POPC   C2B60560  20.552  31.981   6.704
 4736POPC   C3B60561  20.915  31.804   6.961
 4736POPC   C4B60562  21.095  31.924   7.366
 4737POPC   NC360563  12.193  26.286   5.402
 4737POPC   PO460564  11.547  26.266   5.084
 4737POPC   GL160565  11.707  26.245   5.631
 4737POPC   GL260566  11.977  26.033   5.774
 4737POPC   C1A60567  11.857  26.369   6.127
 4737POPC   D2A60568  12.162  26.466   6.540
 4737POPC   C3A60569  12.027  26.368   7.009
 4737POPC   C4A60570  11.794  26.244   7.427
 4737POPC   C1B60571  11.652  25.891   6.074
 4737POPC   C2B60572  11.661  25.816   6.529
 4737POPC   C3B60573  11.661  25.692   6.964
 4737POPC   C4B60574  12.012  25.860   7.174
 4738POPC   NC360575  21.294   1.526   5.090
 4738POPC   PO460576  21.592   1.419   5.654
 4738POPC   GL160577  21.438   1.112   5.954
 4738POPC   GL260578  21.139   1.270   5.916
 4738POPC   C1A60579  21.426   1.063   6.386
 4738POPC   D2A60580  21.437   1.408   6.647
 4738POPC   C3A60581  21.551   1.290   7.053
 4738POPC   C4A60582  21.286   0.933   7.077
 4738POPC   C1B60583  20.932   1.029   6.227
 4738POPC   C2B60584  20.943   1.199   6.637
 4738POPC   C3B60585  21.059   1.434   6.997
 4738POPC   C4B60586  21.109   1.288   7.405
 4739POPC   NC360587  28.945  13.364   5.325
 4739POPC   PO460588  29.371  12.867   5.481
 4739POPC   GL160589  29.287  13.094   5.813
 4739POPC   GL260590  28.940  13.011   5.880
 4739POPC   C1A60591  29.357  12.922   6.215
 4739POPC   D2A60592  29.416  12.627   6.538
 4739POPC   C3A60593  29.434  12.831   6.942
 4739POPC   C4A60594  29.318  12.631   7.342
 4739POPC   C1B60595  28.928  13.178   6.313
 4739POPC   C2B60596  28.928  13.278   6.765
 4739POPC   C3B60597  28.969  13.000   7.120
 4739POPC   C4B60598  28.778  12.596   7.230
 4740POPC   NC360599  30.561   0.454   5.195
 4740POPC   PO460600  29.806   0.352   5.237
 4740POPC   GL160601  29.741   0.255   5.707
 4740POPC   GL260602  29.953   0.454   5.901
 4740POPC   C1A60603  29.576   0.255   6.184
 4740POPC   D2A60604  29.568   0.459   6.588
 4740POPC   C3A60605  29.726   0.311   6.982
 4740POPC   C4A60606  29.868   0.436   7.374
 4740POPC   C1B60607  30.056   0.094   6.168
 4740POPC   C2B60608  30.061   0.135   6.626
 4740POPC   C3B60609  30.225   0.231   7.057
 4740POPC   C4B60610  30.356   0.356   7.485
 4741POPC   NC360611  19.518   6.722   5.364
 4741POPC   PO460612  20.061   6.449   5.388
 4741POPC   GL160613  19.826   6.561   5.750
 4741POPC   GL260614  20.048   6.797   5.882
 4741POPC   C1A60615  19.582   6.798   6.120
 4741POPC   D2A60616  19.377   6.870   6.543
 4741POPC   C3A60617  19.652   6.788   6.911
 4741POPC   C4A60618  19.923   6.468   7.128
 4741POPC   C1B60619  19.992   6.489   6.232
 4741POPC   C2B60620  20.081   6.629   6.656
 4741POPC   C3B60621  20.394   6.592   6.980
 4741POPC   C4B60622  20.410   6.378   7.332
 4742POPC   NC360623  16.176   4.119   5.065
 4742POPC   PO460624  16.374   4.535   5.631
 4742POPC   GL160625  16.015   4.405   5.875
 4742POPC   GL260626  15.718   4.570   5.792
 4742POPC   C1A60627  15.881   4.028   6.126
 4742POPC   D2A60628  15.873   3.829   6.544
 4742POPC   C3A60629  15.891   4.128   6.919
 4742POPC   C4A60630  16.227   4.350   7.137
 4742POPC   C1B60631  15.815   4.634   6.257
 4742POPC   C2B60632  15.752   4.554   6.701
 4742POPC   C3B60633  15.802   4.622   7.188
 4742POPC   C4B60634  15.634   4.538   7.594
 4743POPC   NC360635  39.626  33.926   5.267
 4743POPC   PO460636  39.033  33.718   5.503
 4743POPC   GL160637  39.167  33.910   5.834
 4743POPC   GL260638  39.504  33.866   5.770
 4743POPC   C1A60639  39.168  33.796   6.251
 4743POPC   D2A60640  39.046  34.028   6.612
 4743POPC   C3A60641  39.049  33.807   6.992
 4743POPC   C4A60642  38.965  33.659   7.386
 4743POPC   C1B60643  39.618  34.038   6.146
 4743POPC   C2B60644  39.600  33.899   6.559
 4743POPC   C3B60645  39.485  34.059   6.950
 4743POPC   C4B60646  39.393  33.919   7.376
 4744POPC   NC360647  12.800  38.786   5.345
 4744POPC   PO460648  13.183  38.187   5.168
 4744POPC   GL160649  12.940  38.291   5.593
 4744POPC   GL260650  12.803  38.583   5.804
 4744POPC   C1A60651  12.810  38.130   6.029
 4744POPC   D2A60652  12.686  38.317   6.444
 4744POPC   C3A60653  12.953  38.394   6.792
 4744POPC   C4A60654  12.971  38.517   7.218
 4744POPC   C1B60655  12.511  38.705   6.152
 4744POPC   C2B60656  12.547  38.856   6.578
 4744POPC   C3B60657  12.527  38.718   7.016
 4744POPC   C4B60658  12.497  38.403   7.360
 4745POPC   NC360659   1.590  22.486   5.521
 4745POPC   PO460660   2.113  22.964   5.400
 4745POPC   GL160661   2.125  22.795   5.809
 4745POPC   GL260662   1.800  22.815   5.898
 4745POPC   C1A60663   2.271  22.626   6.212
 4745POPC   D2A60664   2.353  22.895   6.547
 4745POPC   C3A60665   2.096  22.855   6.878
 4745POPC   C4A60666   2.289  22.788   7.261
 4745POPC   C1B60667   1.865  22.922   6.334
 4745POPC   C2B60668   1.957  23.279   6.554
 4745POPC   C3B60669   2.031  23.359   6.970
 4745POPC   C4B60670   1.902  23.106   7.302
 4746POPC   NC360671  40.816  41.135   5.510
 4746POPC   PO460672  40.814  41.767   5.563
 4746POPC   GL160673  40.915  41.446   5.914
 4746POPC   GL260674  40.586  41.303   5.963
 4746POPC   C1A60675  40.849  41.418   6.384
 4746POPC   D2A60676  40.584  41.572   6.732
 4746POPC   C3A60677  40.690  41.580   7.177
 4746POPC   C4A60678  41.029  41.795   7.422
 4746POPC   C1B60679  40.361  41.220   6.359
 4746POPC   C2B60680  40.387  41.111   6.807
 4746POPC   C3B60681  40.212  41.371   7.097
 4746POPC   C4B60682  40.138  41.711   7.418
 4747POPC   NC360683  36.065   8.248   5.359
 4747POPC   PO460684  36.348   8.807   5.494
 4747POPC   GL160685  36.165   8.535   5.799
 4747POPC   GL260686  36.224   8.167   5.835
 4747POPC   C1A60687  36.133   8.445   6.255
 4747POPC   D2A60688  35.849   8.310   6.574
 4747POPC   C3A60689  36.050   8.200   6.946
 4747POPC   C4A60690  36.193   8.497   7.248
 4747POPC   C1B60691  36.197   7.919   6.211
 4747POPC   C2B60692  36.177   7.785   6.632
 4747POPC   C3B60693  36.383   7.812   7.041
 4747POPC   C4B60694  36.181   7.996   7.414
 4748POPC   NC360695  30.897   0.669   5.579
 4748POPC   PO460696  30.265   0.310   5.512
 4748POPC   GL160697  30.470   0.527   5.837
 4748POPC   GL260698  30.729   0.306   5.907
 4748POPC   C1A60699  30.506   0.745   6.232
 4748POPC   D2A60700  30.452   0.511   6.611
 4748POPC   C3A60701  30.563   0.595   7.039
 4748POPC   C4A60702  30.743   0.207   7.197
 4748POPC   C1B60703  30.967   0.526   6.233
 4748POPC   C2B60704  30.906   0.778   6.620
 4748POPC   C3B60705  31.066   0.638   7.045
 4748POPC   C4B60706  31.230   0.319   7.317
 4749POPC   NC360707  42.251  15.991   5.327
 4749POPC   PO460708  42.758  15.684   5.578
 4749POPC   GL160709  42.471  15.942   5.835
 4749POPC   GL260710  42.102  16.089   5.802
 4749POPC   C1A60711  42.506  15.926   6.268
 4749POPC   D2A60712  42.247  16.094   6.572
 4749POPC   C3A60713  42.339  15.937   6.957
 4749POPC   C4A60714  42.570  16.210   7.173
 4749POPC   C1B60715  41.978  15.823   6.149
 4749POPC   C2B60716  42.018  15.645   6.563
 4749POPC   C3B60717  41.884  15.695   6.943
 4749POPC   C4B60718  42.076  15.660   7.322
 4750POPC   NC360719  33.681  15.485   5.320
 4750POPC   PO460720  33.987  14.967   5.534
 4750POPC   GL160721  33.663  15.079   5.825
 4750POPC   GL260722  33.818  15.397   5.834
 4750POPC   C1A60723  33.466  15.292   6.203
 4750POPC   D2A60724  33.630  15.344   6.639
 4750POPC   C3A60725  33.752  14.988   6.907
 4750POPC   C4A60726  33.663  15.145   7.317
 4750POPC   C1B60727  33.975  15.241   6.247
 4750POPC   C2B60728  34.197  15.261   6.648
 4750POPC   C3B60729  34.032  15.388   7.050
 4750POPC   C4B60730  34.171  15.166   7.409
 4751POPC   NC360731  11.875  17.564   5.503
 4751POPC   PO460732  12.417  17.184   5.429
 4751POPC   GL160733  12.317  17.438   5.827
 4751POPC   GL260734  11.963  17.362   5.962
 4751POPC   C1A60735  12.271  17.598   6.273
 4751POPC   D2A60736  11.978  17.500   6.589
 4751POPC   C3A60737  12.273  17.405   6.893
 4751POPC   C4A60738  12.346  17.505   7.282
 4751POPC   C1B60739  11.760  17.034   6.210
 4751POPC   C2B60740  11.617  17.099   6.636
 4751POPC   C3B60741  11.868  17.077   6.999
 4751POPC   C4B60742  11.957  17.211   7.418
 4752POPC   NC360743   7.907   9.438   5.506
 4752POPC   PO460744   7.317   9.630   5.270
 4752POPC   GL160745   7.465   9.681   5.680
 4752POPC   GL260746   7.515   9.352   5.796
 4752POPC   C1A60747   7.531   9.753   6.119
 4752POPC   D2A60748   7.593   9.926   6.526
 4752POPC   C3A60749   7.312   9.818   6.891
 4752POPC   C4A60750   7.616   9.864   7.238
 4752POPC   C1B60751   7.499   9.247   6.184
 4752POPC   C2B60752   7.414   9.447   6.551
 4752POPC   C3B60753   7.652   9.435   6.937
 4752POPC   C4B60754   7.538   9.328   7.346
 4753POPC   NC360755  13.763  19.472   5.446
 4753POPC   PO460756  13.387  18.931   5.485
 4753POPC   GL160757  13.651  19.107   5.789
 4753POPC   GL260758  13.391  19.339   5.837
 4753POPC   C1A60759  13.766  19.121   6.221
 4753POPC   D2A60760  13.574  19.253   6.610
 4753POPC   C3A60761  13.678  18.993   6.945
 4753POPC   C4A60762  13.806  19.090   7.316
 4753POPC   C1B60763  13.190  19.304   6.252
 4753POPC   C2B60764  13.070  19.278   6.699
 4753POPC   C3B60765  13.319  19.331   7.097
 4753POPC   C4B60766  13.205  19.410   7.557
 4754POPC   NC360767  16.642  35.132   5.177
 4754POPC   PO460768  16.750  35.754   5.368
 4754POPC   GL160769  16.784  35.333   5.648
 4754POPC   GL260770  16.516  35.053   5.683
 4754POPC   C1A60771  16.912  35.261   6.114
 4754POPC   D2A60772  17.109  35.378   6.534
 4754POPC   C3A60773  16.872  35.448   6.931
 4754POPC   C4A60774  16.744  35.424   7.383
 4754POPC   C1B60775  16.485  34.961   6.128
 4754POPC   C2B60776  16.609  35.168   6.546
 4754POPC   C3B60777  16.475  35.132   6.978
 4754POPC   C4B60778  16.614  34.916   7.364
 4755POPC   NC360779  29.503   9.437   5.106
 4755POPC   PO460780  29.974   9.081   5.398
 4755POPC   GL160781  29.804   9.072   5.804
 4755POPC   GL260782  30.004   9.376   5.867
 4755POPC   C1A60783  29.673   9.120   6.272
 4755POPC   D2A60784  29.898   9.074   6.679
 4755POPC   C3A60785  29.767   8.894   7.054
 4755POPC   C4A60786  29.498   8.579   7.146
 4755POPC   C1B60787  30.169   9.025   6.170
 4755POPC   C2B60788  30.381   8.874   6.558
 4755POPC   C3B60789  30.311   8.982   6.989
 4755POPC   C4B60790  30.038   9.310   7.192
 4756POPC   NC360791   5.649  32.297   5.479
 4756POPC   PO460792   6.323  32.239   5.565
 4756POPC   GL160793   5.980  32.230   5.890
 4756POPC   GL260794   5.666  32.010   5.905
 4756POPC   C1A60795   5.941  32.115   6.338
 4756POPC   D2A60796   5.880  31.984   6.777
 4756POPC   C3A60797   6.157  32.125   7.095
 4756POPC   C4A60798   6.007  32.193   7.520
 4756POPC   C1B60799   5.496  32.354   6.210
 4756POPC   C2B60800   5.614  32.445   6.672
 4756POPC   C3B60801   5.689  32.368   7.129
 4756POPC   C4B60802   5.588  32.445   7.595
 4757POPC   NC360803  17.001  20.174   5.509
 4757POPC   PO460804  16.485  19.772   5.460
 4757POPC   GL160805  16.796  19.762   5.785
 4757POPC   GL260806  16.542  19.634   5.981
 4757POPC   C1A60807  16.890  19.981   6.196
 4757POPC   D2A60808  17.097  19.989   6.606
 4757POPC   C3A60809  16.819  20.057   6.963
 4757POPC   C4A60810  16.518  20.313   7.116
 4757POPC   C1B60811  16.712  19.542   6.387
 4757POPC   C2B60812  16.484  19.811   6.664
 4757POPC   C3B60813  16.341  19.828   7.086
 4757POPC   C4B60814  16.619  19.736   7.416
 4758POPC   NC360815  26.781  39.376   5.188
 4758POPC   PO460816  27.237  38.970   5.315
 4758POPC   GL160817  27.057  39.232   5.674
 4758POPC   GL260818  26.671  39.252   5.684
 4758POPC   C1A60819  26.945  39.210   6.142
 4758POPC   D2A60820  27.006  39.378   6.562
 4758POPC   C3A60821  27.011  39.073   6.906
 4758POPC   C4A60822  27.122  39.057   7.332
 4758POPC   C1B60823  26.451  39.417   6.062
 4758POPC   C2B60824  26.488  39.454   6.502
 4758POPC   C3B60825  26.618  39.419   6.929
 4758POPC   C4B60826  26.484  39.038   7.170
 4759POPC   NC360827  42.861  16.135   5.547
 4759POPC   PO460828  43.538  15.876   5.462
 4759POPC   GL160829  43.305  16.018   5.829
 4759POPC   GL260830  42.996  15.911   5.977
 4759POPC   C1A60831  43.415  16.161   6.258
 4759POPC   D2A60832  43.283  16.372   6.635
 4759POPC   C3A60833  43.370  16.114   6.992
 4759POPC   C4A60834  43.139  16.056   7.364
 4759POPC   C1B60835  42.906  16.248   6.270
 4759POPC   C2B60836  42.811  16.112   6.703
 4759POPC   C3B60837  42.843  15.777   7.010
 4759POPC   C4B60838  42.708  15.793   7.447
 4760POPC   NC360839   4.181  21.265   5.303
 4760POPC   PO460840   4.721  20.921   5.472
 4760POPC   GL160841   4.446  21.189   5.759
 4760POPC   GL260842   4.226  21.509   5.742
 4760POPC   C1A60843   4.252  21.212   6.177
 4760POPC   D2A60844   4.422  21.487   6.517
 4760POPC   C3A60845   4.372  21.289   6.921
 4760POPC   C4A60846   4.603  21.409   7.282
 4760POPC   C1B60847   4.084  21.679   6.137
 4760POPC   C2B60848   3.915  21.543   6.544
 4760POPC   C3B60849   3.975  21.736   6.936
 4760POPC   C4B60850   3.923  21.645   7.368
 4761POPC   NC360851  19.329  11.134   5.387
 4761POPC   PO460852  18.674  11.222   5.423
 4761POPC   GL160853  18.927  11.276   5.813
 4761POPC   GL260854  19.269  11.267   5.906
 4761POPC   C1A60855  18.926  11.040   6.233
 4761POPC   D2A60856  19.177  10.928   6.618
 4761POPC   C3A60857  19.018  11.038   7.040
 4761POPC   C4A60858  19.271  11.224   7.351
 4761POPC   C1B60859  19.082  11.541   6.229
 4761POPC   C2B60860  18.948  11.401   6.641
 4761POPC   C3B60861  19.090  11.564   7.021
 4761POPC   C4B60862  19.045  11.627   7.530
 4762POPC   NC360863  41.939  23.780   5.143
 4762POPC   PO460864  42.246  23.848   5.681
 4762POPC   GL160865  42.118  23.578   5.939
 4762POPC   GL260866  42.447  23.506   6.025
 4762POPC   C1A60867  42.125  23.594   6.386
 4762POPC   D2A60868  42.101  23.348   6.713
 4762POPC   C3A60869  42.043  23.698   6.945
 4762POPC   C4A60870  42.210  23.894   7.276
 4762POPC   C1B60871  42.690  23.840   6.203
 4762POPC   C2B60872  42.840  23.835   6.592
 4762POPC   C3B60873  42.569  23.867   6.902
 4762POPC   C4B60874  42.716  23.887   7.282
 4763POPC   NC360875   2.814  30.141   5.480
 4763POPC   PO460876   2.606  30.812   5.536
 4763POPC   GL160877   2.821  30.545   5.767
 4763POPC   GL260878   2.531  30.343   5.855
 4763POPC   C1A60879   2.860  30.620   6.173
 4763POPC   D2A60880   2.896  30.998   6.424
 4763POPC   C3A60881   2.931  30.898   6.853
 4763POPC   C4A60882   2.732  30.839   7.236
 4763POPC   C1B60883   2.467  30.280   6.263
 4763POPC   C2B60884   2.594  30.472   6.627
 4763POPC   C3B60885   2.796  30.398   6.988
 4763POPC   C4B60886   2.684  30.375   7.411
 4764POPC   NC360887  15.937   3.320   5.346
 4764POPC   PO460888  15.803   4.051   5.350
 4764POPC   GL160889  15.812   3.716   5.680
 4764POPC   GL260890  16.123   3.563   5.779
 4764POPC   C1A60891  15.744   3.524   6.107
 4764POPC   D2A60892  15.907   3.271   6.434
 4764POPC   C3A60893  15.939   3.403   6.842
 4764POPC   C4A60894  15.839   3.368   7.279
 4764POPC   C1B60895  16.304   3.732   6.172
 4764POPC   C2B60896  16.540   3.577   6.533
 4764POPC   C3B60897  16.412   3.517   6.974
 4764POPC   C4B60898  16.125   3.787   7.194
 4765POPC   NC360899  42.369   9.613   5.424
 4765POPC   PO460900  42.985   9.564   5.291
 4765POPC   GL160901  42.589   9.618   5.860
 4765POPC   GL260902  42.316   9.941   5.847
 4765POPC   C1A60903  42.176   9.617   6.183
 4765POPC   D2A60904  41.860   9.823   6.503
 4765POPC   C3A60905  42.029   9.899   6.950
 4765POPC   C4A60906  42.331   9.644   7.184
 4765POPC   C1B60907  42.526   9.999   6.253
 4765POPC   C2B60908  42.493   9.905   6.684
 4765POPC   C3B60909  42.734   9.953   7.042
 4765POPC   C4B60910  42.638   9.943   7.469
 4766POPC   NC360911   8.637  32.730   5.607
 4766POPC   PO460912   8.106  33.076   5.328
 4766POPC   GL160913   8.083  32.957   5.808
 4766POPC   GL260914   8.427  33.023   5.951
 4766POPC   C1A60915   8.113  32.884   6.307
 4766POPC   D2A60916   8.177  33.165   6.685
 4766POPC   C3A60917   7.941  33.060   7.053
 4766POPC   C4A60918   8.171  32.727   7.260
 4766POPC   C1B60919   8.602  33.087   6.369
 4766POPC   C2B60920   8.680  33.155   6.817
 4766POPC   C3B60921   8.463  33.150   7.226
 4766POPC   C4B60922   8.613  33.194   7.633
 4767POPC   NC360923   7.207   5.590   5.359
 4767POPC   PO460924   7.807   5.916   5.381
 4767POPC   GL160925   7.544   5.825   5.795
 4767POPC   GL260926   7.237   5.610   5.862
 4767POPC   C1A60927   7.291   6.023   6.167
 4767POPC   D2A60928   7.079   5.967   6.600
 4767POPC   C3A60929   7.357   6.008   6.976
 4767POPC   C4A60930   7.554   6.080   7.375
 4767POPC   C1B60931   7.254   5.531   6.299
 4767POPC   C2B60932   7.044   5.429   6.667
 4767POPC   C3B60933   7.035   5.630   7.035
 4767POPC   C4B60934   7.110   5.804   7.447
 4768POPC   NC360935   2.254  24.109   5.531
 4768POPC   PO460936   1.679  24.447   5.271
 4768POPC   GL160937   1.885  24.420   5.693
 4768POPC   GL260938   1.715  24.176   5.899
 4768POPC   C1A60939   2.123  24.342   6.131
 4768POPC   D2A60940   1.835  24.219   6.483
 4768POPC   C3A60941   1.915  24.468   6.835
 4768POPC   C4A60942   2.116  24.422   7.216
 4768POPC   C1B60943   1.699  24.617   6.131
 4768POPC   C2B60944   1.481  24.655   6.565
 4768POPC   C3B60945   1.487  24.671   7.014
 4768POPC   C4B60946   1.621  24.564   7.403
 4769POPC   NC360947   8.628  40.513   5.062
 4769POPC   PO460948   8.991  40.909   5.404
 4769POPC   GL160949   9.239  40.823   5.731
 4769POPC   GL260950   9.052  41.062   5.893
 4769POPC   C1A60951   9.335  40.704   6.154
 4769POPC   D2A60952   9.220  40.758   6.582
 4769POPC   C3A60953   9.179  40.484   6.933
 4769POPC   C4A60954   9.017  40.582   7.362
 4769POPC   C1B60955   8.928  41.059   6.288
 4769POPC   C2B60956   8.686  40.883   6.586
 4769POPC   C3B60957   8.890  40.908   6.975
 4769POPC   C4B60958   9.148  41.081   7.307
 4770POPC   NC360959  31.833  41.081   5.032
 4770POPC   PO460960  31.337  40.625   5.182
 4770POPC   GL160961  31.375  40.727   5.669
 4770POPC   GL260962  31.209  41.054   5.803
 4770POPC   C1A60963  31.566  40.748   6.100
 4770POPC   D2A60964  31.683  40.901   6.531
 4770POPC   C3A60965  31.780  40.634   6.917
 4770POPC   C4A60966  31.599  40.662   7.330
 4770POPC   C1B60967  31.081  40.874   6.205
 4770POPC   C2B60968  31.182  40.984   6.613
 4770POPC   C3B60969  31.280  40.883   7.022
 4770POPC   C4B60970  31.178  41.149   7.380
 4771POPC   NC360971  21.883  44.861   5.473
 4771POPC   PO460972  21.937  44.194   5.627
 4771POPC   GL160973  22.017  44.526   5.885
 4771POPC   GL260974  22.276  44.759   5.810
 4771POPC   C1A60975  22.053  44.627   6.321
 4771POPC   D2A60976  21.787  44.820   6.590
 4771POPC   C3A60977  21.850  44.698   7.024
 4771POPC   C4A60978  21.974  44.902   7.417
 4771POPC   C1B60979  22.553  44.751   6.172
 4771POPC   C2B60980  22.596  44.534   6.593
 4771POPC   C3B60981  22.398  44.607   7.003
 4771POPC   C4B60982  22.419   0.026   7.159
 4772POPC   NC360983   0.404  34.932   5.584
 4772POPC   PO460984   0.520  35.451   5.133
 4772POPC   GL160985   0.479  35.438   5.664
 4772POPC   GL260986   0.128  35.335   5.799
 4772POPC   C1A60987   0.586  35.293   6.147
 4772POPC   D2A60988   0.929  35.184   6.495
 4772POPC   C3A60989   0.764  35.141   6.940
 4772POPC   C4A60990   0.630  35.444   7.302
 4772POPC   C1B60991   0.141  35.531   6.219
 4772POPC   C2B60992   0.404  35.483   6.596
 4772POPC   C3B60993   0.232  35.426   7.001
 4772POPC   C4B60994   0.152  35.663   7.387
 4773POPC   NC360995  44.987  41.643   5.071
 4773POPC   PO460996  44.620  41.147   5.399
 4773POPC   GL160997  44.359  41.222   5.769
 4773POPC   GL260998  44.465  41.584   5.812
 4773POPC   C1A60999  44.538  41.105   6.191
 4773POPC   D2A61000  44.879  41.315   6.450
 4773POPC   C3A61001  44.873  41.195   6.887
 4773POPC   C4A61002  44.763  41.280   7.296
 4773POPC   C1B61003  44.350  41.945   6.101
 4773POPC   C2B61004  44.540  41.886   6.497
 4773POPC   C3B61005  44.783  41.716   6.842
 4773POPC   C4B61006  44.665  41.758   7.265
 4774POPC   NC361007  13.961  36.048   5.429
 4774POPC   PO461008  13.284  36.177   5.441
 4774POPC   GL161009  13.403  36.325   5.839
 4774POPC   GL261010  13.712  36.144   5.864
 4774POPC   C1A61011  13.428  36.194   6.292
 4774POPC   D2A61012  13.196  36.274   6.653
 4774POPC   C3A61013  13.347  36.060   7.024
 4774POPC   C4A61014  13.518  36.023   7.453
 4774POPC   C1B61015  13.845  36.445   6.165
 4774POPC   C2B61016  13.736  36.443   6.617
 4774POPC   C3B61017  13.793  36.325   7.044
 4774POPC   C4B61018  13.661  36.498   7.462
 4775POPC   NC361019   5.947  13.848   5.254
 4775POPC   PO461020   5.559  13.478   5.706
 4775POPC   GL161021   5.735  13.706   6.044
 4775POPC   GL261022   6.008  13.924   5.878
 4775POPC   C1A61023   5.956  13.463   6.386
 4775POPC   D2A61024   6.022  13.414   6.825
 4775POPC   C3A61025   5.740  13.532   7.152
 4775POPC   C4A61026   5.632  13.858   7.473
 4775POPC   C1B61027   6.150  13.928   6.313
 4775POPC   C2B61028   5.920  13.913   6.698
 4775POPC   C3B61029   6.114  13.881   7.063
 4775POPC   C4B61030   6.139  13.938   7.465
 4776POPC   NC361031  40.609  14.879   5.575
 4776POPC   PO461032  40.963  14.232   5.485
 4776POPC   GL161033  40.741  14.459   5.818
 4776POPC   GL261034  40.954  14.805   5.926
 4776POPC   C1A61035  40.835  14.405   6.246
 4776POPC   D2A61036  40.587  14.342   6.574
 4776POPC   C3A61037  40.776  14.367   6.944
 4776POPC   C4A61038  40.581  14.179   7.277
 4776POPC   C1B61039  40.642  14.874   6.268
 4776POPC   C2B61040  40.718  14.825   6.731
 4776POPC   C3B61041  40.546  14.744   7.168
 4776POPC   C4B61042  40.621  14.608   7.603
 4777POPC   NC361043  41.937   2.079   5.388
 4777POPC   PO461044  42.489   1.702   5.480
 4777POPC   GL161045  42.295   2.007   5.761
 4777POPC   GL261046  42.085   1.740   5.828
 4777POPC   C1A61047  42.029   2.124   6.154
 4777POPC   D2A61048  41.935   1.846   6.523
 4777POPC   C3A61049  41.916   1.996   6.961
 4777POPC   C4A61050  42.199   2.324   7.062
 4777POPC   C1B61051  42.392   1.733   6.203
 4777POPC   C2B61052  42.487   1.781   6.655
 4777POPC   C3B61053  42.485   1.878   7.103
 4777POPC   C4B61054  42.619   2.247   7.354
 4778POPC   NC361055  33.586  19.270   5.581
 4778POPC   PO461056  33.943  18.807   5.324
 4778POPC   GL161057  33.931  18.919   5.750
 4778POPC   GL261058  33.817  18.592   5.822
 4778POPC   C1A61059  33.965  19.194   6.172
 4778POPC   D2A61060  33.953  19.227   6.647
 4778POPC   C3A61061  33.599  19.139   6.931
 4778POPC   C4A61062  33.601  18.958   7.381
 4778POPC   C1B61063  34.122  18.697   6.175
 4778POPC   C2B61064  34.202  18.784   6.632
 4778POPC   C3B61065  33.944  18.760   7.008
 4778POPC   C4B61066  33.866  18.378   7.237
 4779POPC   NC361067  10.798  44.720   5.522
 4779POPC   PO461068  10.393  44.254   5.415
 4779POPC   GL161069  10.428  44.485   5.850
 4779POPC   GL261070  10.477  44.858   5.885
 4779POPC   C1A61071  10.499  44.547   6.316
 4779POPC   D2A61072  10.265  44.376   6.675
 4779POPC   C3A61073  10.497  44.397   7.055
 4779POPC   C4A61074  10.418  44.467   7.494
 4779POPC   C1B61075  10.854  44.894   6.172
 4779POPC   C2B61076  10.979  44.676   6.569
 4779POPC   C3B61077  10.855  44.792   7.004
 4779POPC   C4B61078  10.728  44.870   7.402
 4780POPC   NC361079   5.163  28.033   5.431
 4780POPC   PO461080   4.948  28.620   5.519
 4780POPC   GL161081   5.199  28.425   5.835
 4780POPC   GL261082   5.371  28.088   5.901
 4780POPC   C1A61083   5.079  28.364   6.247
 4780POPC   D2A61084   4.942  28.157   6.589
 4780POPC   C3A61085   4.958  28.495   6.862
 4780POPC   C4A61086   4.895  28.555   7.241
 4780POPC   C1B61087   5.586  28.245   6.287
 4780POPC   C2B61088   5.413  28.334   6.703
 4780POPC   C3B61089   5.405  28.362   7.175
 4780POPC   C4B61090   5.651  28.464   7.577
 4781POPC   NC361091  37.008  33.545   5.454
 4781POPC   PO461092  36.837  32.867   5.458
 4781POPC   GL161093  36.835  33.135   5.749
 4781POPC   GL261094  37.202  33.188   5.777
 4781POPC   C1A61095  36.842  33.078   6.163
 4781POPC   D2A61096  37.000  32.813   6.459
 4781POPC   C3A61097  36.715  32.943   6.769
 4781POPC   C4A61098  36.874  33.078   7.156
 4781POPC   C1B61099  37.204  33.430   6.163
 4781POPC   C2B61100  37.063  33.304   6.584
 4781POPC   C3B61101  37.199  33.436   6.963
 4781POPC   C4B61102  37.355  33.214   7.277
 4782POPC   NC361103  37.487  42.519   5.349
 4782POPC   PO461104  37.866  42.125   5.425
 4782POPC   GL161105  37.590  42.263   5.793
 4782POPC   GL261106  37.464  42.603   5.882
 4782POPC   C1A61107  37.620  42.226   6.228
 4782POPC   D2A61108  37.637  42.307   6.627
 4782POPC   C3A61109  37.869  42.046   6.878
 4782POPC   C4A61110  37.770  42.221   7.234
 4782POPC   C1B61111  37.625  42.728   6.332
 4782POPC   C2B61112  37.863  42.772   6.751
 4782POPC   C3B61113  37.930  42.718   7.215
 4782POPC   C4B61114  37.579  42.591   7.513
 4783POPC   NC361115  34.609  17.834   5.378
 4783POPC   PO461116  34.729  17.217   5.349
 4783POPC   GL161117  34.836  17.462   5.703
 4783POPC   GL261118  34.470  17.487   5.747
 4783POPC   C1A61119  34.854  17.443   6.172
 4783POPC   D2A61120  34.995  17.207   6.572
 4783POPC   C3A61121  34.801  17.296   6.992
 4783POPC   C4A61122  34.807  17.755   7.148
 4783POPC   C1B61123  34.375  17.616   6.173
 4783POPC   C2B61124  34.515  17.447   6.572
 4783POPC   C3B61125  34.374  17.572   6.968
 4783POPC   C4B61126  34.226  17.494   7.317
 4784POPC   NC361127  32.447   2.561   5.286
 4784POPC   PO461128  31.853   2.488   5.574
 4784POPC   GL161129  32.162   2.714   5.715
 4784POPC   GL261130  32.332   2.425   5.765
 4784POPC   C1A61131  32.186   2.874   6.128
 4784POPC   D2A61132  32.362   3.061   6.496
 4784POPC   C3A61133  32.297   2.878   6.894
 4784POPC   C4A61134  32.116   3.031   7.290
 4784POPC   C1B61135  32.169   2.314   6.145
 4784POPC   C2B61136  32.171   2.504   6.517
 4784POPC   C3B61137  31.978   2.419   6.878
 4784POPC   C4B61138  32.145   2.530   7.241
 4785POPC   NC361139  19.029  40.312   5.553
 4785POPC   PO461140  19.138  41.016   5.492
 4785POPC   GL161141  19.185  40.738   5.811
 4785POPC   GL261142  18.841  40.690   5.841
 4785POPC   C1A61143  19.212  40.577   6.226
 4785POPC   D2A61144  19.022  40.437   6.611
 4785POPC   C3A61145  19.230  40.624   6.958
 4785POPC   C4A61146  19.336  40.480   7.356
 4785POPC   C1B61147  18.696  40.660   6.254
 4785POPC   C2B61148  18.468  40.704   6.613
 4785POPC   C3B61149  18.732  40.726   6.950
 4785POPC   C4B61150  18.921  40.796   7.371
 4786POPC   NC361151  25.466  34.790   5.558
 4786POPC   PO461152  24.955  34.254   5.487
 4786POPC   GL161153  25.138  34.471   5.841
 4786POPC   GL261154  25.453  34.338   5.771
 4786POPC   C1A61155  25.109  34.717   6.250
 4786POPC   D2A61156  25.284  34.607   6.671
 4786POPC   C3A61157  25.054  34.682   7.051
 4786POPC   C4A61158  25.136  34.937   7.422
 4786POPC   C1B61159  25.536  34.445   6.211
 4786POPC   C2B61160  25.760  34.422   6.592
 4786POPC   C3B61161  25.678  34.484   7.016
 4786POPC   C4B61162  25.438  34.548   7.340
 4787POPC   NC361163  30.350  26.200   5.126
 4787POPC   PO461164  30.869  25.923   5.197
 4787POPC   GL161165  30.797  25.970   5.693
 4787POPC   GL261166  30.818  26.282   5.905
 4787POPC   C1A61167  30.555  25.947   6.148
 4787POPC   D2A61168  30.748  26.010   6.565
 4787POPC   C3A61169  30.550  25.957   6.935
 4787POPC   C4A61170  30.713  26.061   7.298
 4787POPC   C1B61171  30.660  26.430   6.320
 4787POPC   C2B61172  30.355  26.359   6.683
 4787POPC   C3B61173  30.419  26.464   7.153
 4787POPC   C4B61174  30.337  26.414   7.630
 4788POPC   NC361175  26.461  25.540   5.073
 4788POPC   PO461176  26.101  25.090   5.330
 4788POPC   GL161177  26.203  25.213   5.761
 4788POPC   GL261178  25.958  25.469   5.837
 4788POPC   C1A61179  26.105  25.150   6.206
 4788POPC   D2A61180  25.949  25.279   6.611
 4788POPC   C3A61181  26.170  25.145   6.962
 4788POPC   C4A61182  26.268  25.281   7.375
 4788POPC   C1B61183  25.705  25.534   6.220
 4788POPC   C2B61184  25.783  25.751   6.630
 4788POPC   C3B61185  25.922  25.589   7.062
 4788POPC   C4B61186  25.773  25.174   7.282
 4789POPC   NC361187  32.212   8.714   5.426
 4789POPC   PO461188  32.433   9.370   5.348
 4789POPC   GL161189  32.561   9.087   5.768
 4789POPC   GL261190  32.433   8.730   5.875
 4789POPC   C1A61191  32.492   9.033   6.262
 4789POPC   D2A61192  32.165   8.991   6.564
 4789POPC   C3A61193  32.079   9.040   7.017
 4789POPC   C4A61194  32.234   9.010   7.456
 4789POPC   C1B61195  32.191   8.602   6.213
 4789POPC   C2B61196  32.458   8.536   6.563
 4789POPC   C3B61197  32.477   8.749   6.916
 4789POPC   C4B61198  32.161   8.564   7.191
 4790POPC   NC361199   9.846  11.862   5.438
 4790POPC   PO461200   9.225  12.269   5.506
 4790POPC   GL161201   9.511  12.358   5.874
 4790POPC   GL261202   9.833  12.139   5.883
 4790POPC   C1A61203   9.578  12.219   6.320
 4790POPC   D2A61204   9.769  11.916   6.638
 4790POPC   C3A61205   9.847  12.124   7.046
 4790POPC   C4A61206   9.585  12.425   7.267
 4790POPC   C1B61207  10.056  11.847   6.182
 4790POPC   C2B61208  10.223  11.683   6.578
 4790POPC   C3B61209  10.087  11.662   6.995
 4790POPC   C4B61210  10.199  11.858   7.349
 4791POPC   NC361211  18.856  38.632   5.453
 4791POPC   PO461212  19.315  38.082   5.464
 4791POPC   GL161213  19.117  38.303   5.809
 4791POPC   GL261214  18.758  38.253   5.877
 4791POPC   C1A61215  19.122  38.409   6.246
 4791POPC   D2A61216  19.063  38.315   6.662
 4791POPC   C3A61217  19.192  38.467   7.055
 4791POPC   C4A61218  18.845  38.191   7.149
 4791POPC   C1B61219  18.688  38.666   6.106
 4791POPC   C2B61220  18.862  38.773   6.516
 4791POPC   C3B61221  18.760  38.676   6.921
 4791POPC   C4B61222  18.545  38.824   7.242
 4792POPC   NC361223   2.235  13.666   5.516
 4792POPC   PO461224   1.498  13.796   5.530
 4792POPC   GL161225   1.790  13.675   5.858
 4792POPC   GL261226   1.998  13.924   5.881
 4792POPC   C1A61227   1.958  13.502   6.264
 4792POPC   D2A61228   2.263  13.342   6.599
 4792POPC   C3A61229   2.213  13.409   7.030
 4792POPC   C4A61230   1.734  13.461   7.076
 4792POPC   C1B61231   1.773  14.002   6.248
 4792POPC   C2B61232   1.781  13.799   6.665
 4792POPC   C3B61233   2.037  13.888   7.009
 4792POPC   C4B61234   1.948  14.297   7.138
 4793POPC   NC361235  25.178  38.206   5.690
 4793POPC   PO461236  25.381  37.673   5.297
 4793POPC   GL161237  25.363  37.723   5.733
 4793POPC   GL261238  24.997  37.649   5.743
 4793POPC   C1A61239  25.483  37.876   6.175
 4793POPC   D2A61240  25.282  38.007   6.562
 4793POPC   C3A61241  25.290  37.739   6.915
 4793POPC   C4A61242  25.444  37.826   7.313
 4793POPC   C1B61243  24.842  37.819   6.147
 4793POPC   C2B61244  24.872  37.685   6.573
 4793POPC   C3B61245  24.788  37.780   6.988
 4793POPC   C4B61246  25.012  37.535   7.304
 4794POPC   NC361247  18.468  11.632   5.446
 4794POPC   PO461248  17.954  11.235   5.280
 4794POPC   GL161249  18.062  11.414   5.722
 4794POPC   GL261250  18.399  11.324   5.833
 4794POPC   C1A61251  18.048  11.474   6.201
 4794POPC   D2A61252  18.029  11.258   6.605
 4794POPC   C3A61253  18.006  11.407   7.045
 4794POPC   C4A61254  18.134  11.419   7.491
 4794POPC   C1B61255  18.585  11.481   6.182
 4794POPC   C2B61256  18.459  11.594   6.571
 4794POPC   C3B61257  18.485  11.286   6.878
 4794POPC   C4B61258  18.656  11.436   7.226
 4795POPC   NC361259  22.011  16.755   5.438
 4795POPC   PO461260  22.415  16.341   5.650
 4795POPC   GL161261  22.179  16.634   5.916
 4795POPC   GL261262  22.055  16.984   5.875
 4795POPC   C1A61263  22.273  16.825   6.314
 4795POPC   D2A61264  22.106  16.681   6.689
 4795POPC   C3A61265  22.322  16.650   7.069
 4795POPC   C4A61266  22.063  16.582   7.418
 4795POPC   C1B61267  21.852  17.113   6.232
 4795POPC   C2B61268  21.992  17.179   6.633
 4795POPC   C3B61269  22.034  17.074   7.046
 4795POPC   C4B61270  22.167  17.063   7.475
 4796POPC   NC361271  44.019  10.923   5.058
 4796POPC   PO461272  43.858  10.378   5.464
 4796POPC   GL161273  43.868  10.587   5.850
 4796POPC   GL261274  44.094  10.842   5.791
 4796POPC   C1A61275  43.787  10.670   6.281
 4796POPC   D2A61276  43.951  10.417   6.607
 4796POPC   C3A61277  43.788  10.471   7.008
 4796POPC   C4A61278  43.612  10.185   7.262
 4796POPC   C1B61279  44.252  10.912   6.208
 4796POPC   C2B61280  44.187  10.857   6.660
 4796POPC   C3B61281  44.172  10.986   7.088
 4796POPC   C4B61282  44.115  10.838   7.510
 4797POPC   NC361283  14.639  44.605   5.552
 4797POPC   PO461284  14.150   0.043   5.549
 4797POPC   GL161285  14.080  44.736   5.887
 4797POPC   GL261286  14.327  44.428   5.922
 4797POPC   C1A61287  14.035  44.680   6.333
 4797POPC   D2A61288  14.321  44.494   6.645
 4797POPC   C3A61289  14.183  44.512   7.093
 4797POPC   C4A61290  14.254  44.807   7.410
 4797POPC   C1B61291  14.543  44.724   6.210
 4797POPC   C2B61292  14.636  44.927   6.598
 4797POPC   C3B61293  14.620  44.749   6.982
 4797POPC   C4B61294  14.683  44.544   7.350
 4798POPC   NC361295  32.502  11.527   5.661
 4798POPC   PO461296  33.127  11.335   5.403
 4798POPC   GL161297  32.983  11.358   5.828
 4798POPC   GL261298  32.782  11.059   5.874
 4798POPC   C1A61299  33.118  11.345   6.264
 4798POPC   D2A61300  33.099  11.350   6.692
 4798POPC   C3A61301  33.222  11.557   7.073
 4798POPC   C4A61302  33.165  11.438   7.500
 4798POPC   C1B61303  32.607  11.260   6.265
 4798POPC   C2B61304  32.568  11.308   6.718
 4798POPC   C3B61305  32.796  11.247   7.080
 4798POPC   C4B61306  32.847  10.973   7.390
 4799POPC   NC361307   8.956  22.541   5.209
 4799POPC   PO461308   9.189  21.943   5.484
 4799POPC   GL161309   9.133  22.138   5.822
 4799POPC   GL261310   8.825  22.238   5.752
 4799POPC   C1A61311   9.020  22.034   6.242
 4799POPC   D2A61312   9.246  22.007   6.629
 4799POPC   C3A61313   8.961  22.099   6.916
 4799POPC   C4A61314   8.995  22.351   7.262
 4799POPC   C1B61315   8.644  22.401   6.139
 4799POPC   C2B61316   8.640  22.289   6.576
 4799POPC   C3B61317   8.537  22.458   7.011
 4799POPC   C4B61318   8.545  22.403   7.474
 4800POPC   NC361319   6.913  43.850   5.403
 4800POPC   PO461320   6.469  43.504   5.660
 4800POPC   GL161321   6.617  43.855   5.914
 4800POPC   GL261322   6.927  44.060   5.881
 4800POPC   C1A61323   6.763  43.755   6.328
 4800POPC   D2A61324   6.798  43.658   6.762
 4800POPC   C3A61325   6.609  43.868   7.085
 4800POPC   C4A61326   6.964  43.855   7.370
 4800POPC   C1B61327   6.765  44.255   6.268
 4800POPC   C2B61328   6.707  44.180   6.671
 4800POPC   C3B61329   6.949  44.225   7.007
 4800POPC   C4B61330   6.735  44.305   7.349
 4801POPC   NC361331  28.211  11.853   5.494
 4801POPC   PO461332  28.532  12.508   5.441
 4801POPC   GL161333  28.419  12.329   5.822
 4801POPC   GL261334  28.063  12.254   5.825
 4801POPC   C1A61335  28.375  12.372   6.256
 4801POPC   D2A61336  28.382  12.518   6.665
 4801POPC   C3A61337  28.643  12.215   6.876
 4801POPC   C4A61338  28.636  12.048   7.265
 4801POPC   C1B61339  27.969  12.074   6.223
 4801POPC   C2B61340  28.154  11.926   6.580
 4801POPC   C3B61341  28.304  11.801   6.969
 4801POPC   C4B61342  28.194  11.891   7.381
 4802POPC   NC361343  30.857   7.103   5.038
 4802POPC   PO461344  30.755   6.668   5.559
 4802POPC   GL161345  30.643   6.614   5.922
 4802POPC   GL261346  30.868   6.814   6.111
 4802POPC   C1A61347  30.410   6.604   6.260
 4802POPC   D2A61348  30.669   6.707   6.572
 4802POPC   C3A61349  30.480   6.646   6.902
 4802POPC   C4A61350  30.623   6.581   7.270
 4802POPC   C1B61351  31.108   6.477   6.200
 4802POPC   C2B61352  30.974   6.292   6.566
 4802POPC   C3B61353  31.009   6.493   6.944
 4802POPC   C4B61354  31.019   6.306   7.371
 4803POPC   NC361355  44.251  35.180   5.431
 4803POPC   PO461356  43.627  35.588   5.401
 4803POPC   GL161357  43.560  35.347   5.733
 4803POPC   GL261358  43.364  35.511   5.927
 4803POPC   C1A61359  43.755  35.143   6.080
 4803POPC   D2A61360  43.962  35.225   6.466
 4803POPC   C3A61361  43.780  35.300   6.875
 4803POPC   C4A61362  43.902  35.526   7.240
 4803POPC   C1B61363  43.697  35.650   6.163
 4803POPC   C2B61364  43.655  35.707   6.574
 4803POPC   C3B61365  43.568  35.835   6.967
 4803POPC   C4B61366  43.371  35.665   7.313
 4804POPC   NC361367  36.782  31.430   5.432
 4804POPC   PO461368  37.286  30.956   5.422
 4804POPC   GL161369  37.207  31.180   5.835
 4804POPC   GL261370  37.095  31.565   5.855
 4804POPC   C1A61371  37.077  31.270   6.291
 4804POPC   D2A61372  37.261  31.583   6.587
 4804POPC   C3A61373  37.160  31.567   7.017
 4804POPC   C4A61374  36.881  31.249   7.085
 4804POPC   C1B61375  36.739  31.632   6.186
 4804POPC   C2B61376  36.751  31.561   6.661
 4804POPC   C3B61377  36.645  31.706   7.067
 4804POPC   C4B61378  36.799  31.711   7.449
 4805POPC   NC361379  44.072  26.356   5.478
 4805POPC   PO461380  43.873  25.755   5.444
 4805POPC   GL161381  44.135  25.924   5.774
 4805POPC   GL261382  43.951  26.169   5.955
 4805POPC   C1A61383  44.309  25.920   6.227
 4805POPC   D2A61384  44.203  26.146   6.608
 4805POPC   C3A61385  44.146  25.932   7.003
 4805POPC   C4A61386  44.177  25.937   7.451
 4805POPC   C1B61387  43.690  26.075   6.336
 4805POPC   C2B61388  43.497  25.983   6.759
 4805POPC   C3B61389  43.648  25.967   7.200
 4805POPC   C4B61390  43.642  25.670   7.535
 4806POPC   NC361391  43.365  41.223   5.615
 4806POPC   PO461392  42.911  41.715   5.344
 4806POPC   GL161393  43.034  41.572   5.780
 4806POPC   GL261394  43.386  41.623   5.928
 4806POPC   C1A61395  42.970  41.569   6.229
 4806POPC   D2A61396  42.775  41.706   6.601
 4806POPC   C3A61397  43.033  41.699   6.977
 4806POPC   C4A61398  43.057  41.619   7.437
 4806POPC   C1B61399  43.418  41.803   6.378
 4806POPC   C2B61400  43.482  41.960   6.811
 4806POPC   C3B61401  43.460  41.869   7.268
 4806POPC   C4B61402  43.428  41.916   7.736
 4807POPC   NC361403   1.350  40.031   5.411
 4807POPC   PO461404   1.296  40.627   5.602
 4807POPC   GL161405   1.203  40.233   5.880
 4807POPC   GL261406   1.131  39.849   5.869
 4807POPC   C1A61407   1.126  40.097   6.313
 4807POPC   D2A61408   1.294  40.015   6.723
 4807POPC   C3A61409   1.014  40.010   7.050
 4807POPC   C4A61410   1.033  40.217   7.440
 4807POPC   C1B61411   0.781  39.725   6.180
 4807POPC   C2B61412   0.723  39.495   6.598
 4807POPC   C3B61413   0.668  39.594   7.049
 4807POPC   C4B61414   0.839  39.729   7.449
 4808POPC   NC361415   4.641  24.190   5.530
 4808POPC   PO461416   4.299  23.548   5.590
 4808POPC   GL161417   4.417  23.639   5.955
 4808POPC   GL261418   4.385  23.998   5.987
 4808POPC   C1A61419   4.186  23.486   6.263
 4808POPC   D2A61420   3.852  23.785   6.374
 4808POPC   C3A61421   3.937  23.900   6.820
 4808POPC   C4A61422   4.090  23.675   7.206
 4808POPC   C1B61423   4.312  23.959   6.423
 4808POPC   C2B61424   4.379  23.602   6.715
 4808POPC   C3B61425   4.603  23.641   7.060
 4808POPC   C4B61426   4.581  24.046   7.197
 4809POPC   NC361427   1.651  19.047   5.412
 4809POPC   PO461428   2.315  18.895   5.396
 4809POPC   GL161429   2.073  19.055   5.726
 4809POPC   GL261430   1.808  18.824   5.844
 4809POPC   C1A61431   2.084  19.169   6.149
 4809POPC   D2A61432   1.953  19.213   6.591
 4809POPC   C3A61433   2.238  19.294   6.940
 4809POPC   C4A61434   2.093  19.015   7.228
 4809POPC   C1B61435   1.591  18.654   6.190
 4809POPC   C2B61436   1.623  18.803   6.591
 4809POPC   C3B61437   1.780  18.671   6.996
 4809POPC   C4B61438   1.555  18.734   7.396
 4810POPC   NC361439  28.926   6.171   5.227
 4810POPC   PO461440  28.336   5.900   5.296
 4810POPC   GL161441  28.230   5.971   5.752
 4810POPC   GL261442  28.352   5.657   5.912
 4810POPC   C1A61443  28.458   6.091   6.157
 4810POPC   D2A61444  28.497   5.783   6.482
 4810POPC   C3A61445  28.469   5.781   6.935
 4810POPC   C4A61446  28.736   5.454   7.111
 4810POPC   C1B61447  28.039   5.797   6.229
 4810POPC   C2B61448  27.985   5.662   6.654
 4810POPC   C3B61449  27.951   5.894   7.029
 4810POPC   C4B61450  28.125   5.981   7.412
 4811POPC   NC361451  29.012  40.194   5.374
 4811POPC   PO461452  29.624  39.781   5.400
 4811POPC   GL161453  29.481  39.843   5.825
 4811POPC   GL261454  29.310  40.151   5.824
 4811POPC   C1A61455  29.428  39.929   6.277
 4811POPC   D2A61456  29.426  39.699   6.652
 4811POPC   C3A61457  29.377  39.916   7.046
 4811POPC   C4A61458  29.245  40.290   7.238
 4811POPC   C1B61459  29.132  40.343   6.212
 4811POPC   C2B61460  29.206  40.261   6.657
 4811POPC   C3B61461  28.898  40.044   6.913
 4811POPC   C4B61462  28.920  39.839   7.303
 4812POPC   NC361463  34.614   9.205   5.273
 4812POPC   PO461464  34.294   8.544   5.281
 4812POPC   GL161465  34.499   8.793   5.671
 4812POPC   GL261466  34.740   9.087   5.757
 4812POPC   C1A61467  34.353   8.925   6.116
 4812POPC   D2A61468  34.243   8.790   6.546
 4812POPC   C3A61469  34.450   8.878   6.949
 4812POPC   C4A61470  34.467   8.671   7.365
 4812POPC   C1B61471  34.851   8.832   6.148
 4812POPC   C2B61472  34.788   8.998   6.548
 4812POPC   C3B61473  34.964   9.056   6.945
 4812POPC   C4B61474  34.773   9.056   7.334
 4813POPC   NC361475   2.316   8.026   5.563
 4813POPC   PO461476   1.794   8.403   5.397
 4813POPC   GL161477   1.998   8.357   5.833
 4813POPC   GL261478   2.374   8.402   5.885
 4813POPC   C1A61479   1.915   8.079   6.218
 4813POPC   D2A61480   1.648   7.904   6.562
 4813POPC   C3A61481   1.820   8.076   6.915
 4813POPC   C4A61482   1.743   8.400   7.147
 4813POPC   C1B61483   2.400   8.257   6.295
 4813POPC   C2B61484   2.180   8.393   6.657
 4813POPC   C3B61485   2.296   8.304   7.057
 4813POPC   C4B61486   2.250   7.894   7.154
 4814POPC   NC361487  42.753  17.711   5.502
 4814POPC   PO461488  42.256  17.356   5.237
 4814POPC   GL161489  42.309  17.364   5.742
 4814POPC   GL261490  42.451  17.030   5.788
 4814POPC   C1A61491  42.201  17.489   6.250
 4814POPC   D2A61492  42.410  17.601   6.708
 4814POPC   C3A61493  42.192  17.554   7.155
 4814POPC   C4A61494  41.895  17.848   7.420
 4814POPC   C1B61495  42.616  17.222   6.156
 4814POPC   C2B61496  42.431  17.100   6.562
 4814POPC   C3B61497  42.477  17.158   6.993
 4814POPC   C4B61498  42.370  17.122   7.415
 4815POPC   NC361499   0.728  25.826   5.495
 4815POPC   PO461500   0.168  26.204   5.507
 4815POPC   GL161501   0.397  26.060   5.847
 4815POPC   GL261502   0.391  25.676   5.862
 4815POPC   C1A61503   0.540  26.299   6.207
 4815POPC   D2A61504   0.338  26.420   6.567
 4815POPC   C3A61505   0.489  26.328   6.959
 4815POPC   C4A61506   0.072  26.351   7.114
 4815POPC   C1B61507   0.702  25.824   6.183
 4815POPC   C2B61508   0.587  25.941   6.613
 4815POPC   C3B61509   0.444  25.837   7.039
 4815POPC   C4B61510   0.607  25.695   7.429
 4816POPC   NC361511  38.353   4.461   5.465
 4816POPC   PO461512  38.651   3.856   5.377
 4816POPC   GL161513  38.681   4.145   5.713
 4816POPC   GL261514  38.358   4.081   5.855
 4816POPC   C1A61515  38.840   4.371   6.094
 4816POPC   D2A61516  38.715   4.523   6.530
 4816POPC   C3A61517  38.560   4.400   6.955
 4816POPC   C4A61518  38.647   3.997   7.138
 4816POPC   C1B61519  38.395   4.181   6.278
 4816POPC   C2B61520  38.386   3.981   6.671
 4816POPC   C3B61521  38.131   4.045   7.068
 4816POPC   C4B61522  38.032   4.264   7.449
 4817POPC   NC361523  32.056  41.545   5.476
 4817POPC   PO461524  32.666  41.841   5.378
 4817POPC   GL161525  32.403  41.844   5.782
 4817POPC   GL261526  32.056  41.896   5.880
 4817POPC   C1A61527  32.322  41.607   6.204
 4817POPC   D2A61528  32.561  41.365   6.518
 4817POPC   C3A61529  32.441  41.300   6.940
 4817POPC   C4A61530  32.334  41.551   7.324
 4817POPC   C1B61531  32.111  42.084   6.298
 4817POPC   C2B61532  32.090  41.959   6.737
 4817POPC   C3B61533  31.960  41.606   6.993
 4817POPC   C4B61534  31.834  41.640   7.440
 4818POPC   NC361535  23.583  16.418   5.154
 4818POPC   PO461536  23.844  15.881   5.449
 4818POPC   GL161537  23.820  16.089   5.859
 4818POPC   GL261538  23.618  15.807   5.991
 4818POPC   C1A61539  23.701  16.182   6.316
 4818POPC   D2A61540  23.509  15.874   6.588
 4818POPC   C3A61541  23.592  15.983   7.011
 4818POPC   C4A61542  23.924  16.238   7.198
 4818POPC   C1B61543  23.964  15.758   6.259
 4818POPC   C2B61544  24.027  15.964   6.662
 4818POPC   C3B61545  24.075  15.791   7.027
 4818POPC   C4B61546  23.748  15.525   7.201
 4819POPC   NC361547   7.721  43.262   5.376
 4819POPC   PO461548   7.175  42.823   5.466
 4819POPC   GL161549   7.336  42.985   5.850
 4819POPC   GL261550   7.439  43.341   5.832
 4819POPC   C1A61551   7.262  43.119   6.275
 4819POPC   D2A61552   7.246  43.456   6.582
 4819POPC   C3A61553   7.122  43.317   7.021
 4819POPC   C4A61554   7.147  43.399   7.474
 4819POPC   C1B61555   7.806  43.193   6.072
 4819POPC   C2B61556   7.898  43.268   6.518
 4819POPC   C3B61557   7.641  43.276   6.874
 4819POPC   C4B61558   7.570  43.178   7.273
 4820POPC   NC361559   7.592  12.132   5.450
 4820POPC   PO461560   7.190  11.611   5.479
 4820POPC   GL161561   7.304  11.869   5.811
 4820POPC   GL261562   7.653  11.798   5.835
 4820POPC   C1A61563   7.164  12.051   6.211
 4820POPC   D2A61564   7.326  11.962   6.612
 4820POPC   C3A61565   7.192  12.163   6.967
 4820POPC   C4A61566   7.348  12.239   7.359
 4820POPC   C1B61567   7.686  11.904   6.254
 4820POPC   C2B61568   7.784  11.768   6.690
 4820POPC   C3B61569   7.693  11.985   7.066
 4820POPC   C4B61570   7.757  11.997   7.521
 4821POPC   NC361571  41.106  24.676   5.571
 4821POPC   PO461572  40.498  24.365   5.457
 4821POPC   GL161573  40.618  24.738   5.768
 4821POPC   GL261574  40.374  24.794   5.987
 4821POPC   C1A61575  40.863  24.826   6.181
 4821POPC   D2A61576  41.053  24.576   6.527
 4821POPC   C3A61577  40.899  24.499   6.961
 4821POPC   C4A61578  40.913  24.684   7.396
 4821POPC   C1B61579  40.668  24.374   6.109
 4821POPC   C2B61580  40.669  24.256   6.528
 4821POPC   C3B61581  40.386  24.345   6.881
 4821POPC   C4B61582  40.519  24.357   7.311
 4822POPC   NC361583  20.321   2.797   5.441
 4822POPC   PO461584  19.752   2.408   5.555
 4822POPC   GL161585  19.891   2.742   5.827
 4822POPC   GL261586  19.547   2.914   5.774
 4822POPC   C1A61587  20.079   2.695   6.291
 4822POPC   D2A61588  20.145   2.611   6.750
 4822POPC   C3A61589  19.956   2.899   6.984
 4822POPC   C4A61590  20.015   2.926   7.376
 4822POPC   C1B61591  19.572   2.749   6.208
 4822POPC   C2B61592  19.658   2.595   6.588
 4822POPC   C3B61593  19.541   2.612   6.970
 4822POPC   C4B61594  19.512   2.752   7.335
 4823POPC   NC361595   9.634  39.546   5.505
 4823POPC   PO461596   9.785  38.939   5.464
 4823POPC   GL161597   9.700  39.199   5.862
 4823POPC   GL261598   9.860  39.549   5.963
 4823POPC   C1A61599   9.810  39.157   6.280
 4823POPC   D2A61600   9.929  38.987   6.635
 4823POPC   C3A61601   9.840  39.261   6.918
 4823POPC   C4A61602   9.726  39.258   7.291
 4823POPC   C1B61603   9.536  39.626   6.311
 4823POPC   C2B61604   9.488  39.600   6.778
 4823POPC   C3B61605   9.318  39.524   7.196
 4823POPC   C4B61606   9.355  39.361   7.638
 4824POPC   NC361607  27.449  37.195   5.588
 4824POPC   PO461608  27.825  36.605   5.383
 4824POPC   GL161609  27.682  36.711   5.777
 4824POPC   GL261610  27.322  36.677   5.771
 4824POPC   C1A61611  27.695  36.697   6.235
 4824POPC   D2A61612  27.631  36.877   6.650
 4824POPC   C3A61613  27.528  36.628   7.000
 4824POPC   C4A61614  27.779  36.787   7.323
 4824POPC   C1B61615  27.209  36.853   6.177
 4824POPC   C2B61616  27.154  36.704   6.585
 4824POPC   C3B61617  27.126  36.922   6.942
 4824POPC   C4B61618  27.286  36.959   7.381
 4825POPC   NC361619  21.611  34.052   5.493
 4825POPC   PO461620  21.301  33.406   5.453
 4825POPC   GL161621  21.287  33.595   5.889
 4825POPC   GL261622  21.361  33.962   5.930
 4825POPC   C1A61623  21.100  33.659   6.306
 4825POPC   D2A61624  20.872  33.473   6.658
 4825POPC   C3A61625  21.108  33.590   7.004
 4825POPC   C4A61626  21.269  33.984   7.120
 4825POPC   C1B61627  21.568  33.900   6.325
 4825POPC   C2B61628  21.585  33.821   6.768
 4825POPC   C3B61629  21.782  33.965   7.171
 4825POPC   C4B61630  21.794  34.184   7.598
 4826POPC   NC361631  26.005  43.409   5.606
 4826POPC   PO461632  26.141  43.993   5.172
 4826POPC   GL161633  26.143  43.908   5.629
 4826POPC   GL261634  25.827  43.953   5.791
 4826POPC   C1A61635  26.235  43.838   6.093
 4826POPC   D2A61636  26.403  44.048   6.480
 4826POPC   C3A61637  26.350  43.782   6.839
 4826POPC   C4A61638  26.150  43.722   7.220
 4826POPC   C1B61639  25.699  43.895   6.208
 4826POPC   C2B61640  25.892  43.911   6.613
 4826POPC   C3B61641  25.712  43.918   7.023
 4826POPC   C4B61642  25.680  44.268   7.292
 4827POPC   NC361643  35.582  41.082   5.346
 4827POPC   PO461644  35.087  41.728   5.442
 4827POPC   GL161645  35.289  41.594   5.785
 4827POPC   GL261646  35.439  41.295   5.786
 4827POPC   C1A61647  35.199  41.502   6.219
 4827POPC   D2A61648  35.480  41.598   6.562
 4827POPC   C3A61649  35.370  41.507   6.981
 4827POPC   C4A61650  35.021  41.402   7.219
 4827POPC   C1B61651  35.651  41.264   6.185
 4827POPC   C2B61652  35.880  41.282   6.612
 4827POPC   C3B61653  35.764  41.185   7.057
 4827POPC   C4B61654  35.882  41.226   7.516
 4828POPC   NC361655  19.732  11.836   5.502
 4828POPC   PO461656  19.856  11.152   5.421
 4828POPC   GL161657  19.759  11.345   5.767
 4828POPC   GL261658  19.975  11.608   5.885
 4828POPC   C1A61659  19.812  11.171   6.187
 4828POPC   D2A61660  20.099  11.221   6.546
 4828POPC   C3A61661  19.980  11.073   6.960
 4828POPC   C4A61662  19.770  11.230   7.323
 4828POPC   C1B61663  19.588  11.627   6.152
 4828POPC   C2B61664  19.468  11.365   6.510
 4828POPC   C3B61665  19.572  11.423   6.911
 4828POPC   C4B61666  19.501  11.678   7.281
 4829POPC   NC361667  11.060  37.592   5.350
 4829POPC   PO461668  11.694  37.780   5.467
 4829POPC   GL161669  11.559  37.650   5.875
 4829POPC   GL261670  11.233  37.539   5.827
 4829POPC   C1A61671  11.555  37.666   6.343
 4829POPC   D2A61672  11.374  37.874   6.677
 4829POPC   C3A61673  11.448  37.570   6.958
 4829POPC   C4A61674  11.385  37.513   7.343
 4829POPC   C1B61675  11.087  37.731   6.207
 4829POPC   C2B61676  10.878  37.635   6.614
 4829POPC   C3B61677  10.944  37.584   7.043
 4829POPC   C4B61678  11.048  37.908   7.277
 4830POPC   NC361679  14.921  14.774   5.413
 4830POPC   PO461680  15.361  14.304   5.372
 4830POPC   GL161681  15.109  14.419   5.758
 4830POPC   GL261682  14.774  14.613   5.864
 4830POPC   C1A61683  15.187  14.574   6.173
 4830POPC   D2A61684  15.139  14.715   6.597
 4830POPC   C3A61685  14.982  14.494   6.940
 4830POPC   C4A61686  15.070  14.449   7.356
 4830POPC   C1B61687  14.638  14.661   6.304
 4830POPC   C2B61688  14.655  14.848   6.738
 4830POPC   C3B61689  14.650  14.797   7.210
 4830POPC   C4B61690  14.637  14.649   7.660
 4831POPC   NC361691  12.173   5.131   5.297
 4831POPC   PO461692  11.604   4.752   5.323
 4831POPC   GL161693  11.759   5.015   5.705
 4831POPC   GL261694  12.137   4.973   5.779
 4831POPC   C1A61695  11.891   5.194   6.150
 4831POPC   D2A61696  12.111   5.318   6.529
 4831POPC   C3A61697  12.118   5.123   6.928
 4831POPC   C4A61698  11.915   5.105   7.318
 4831POPC   C1B61699  12.400   5.239   6.072
 4831POPC   C2B61700  12.552   5.555   6.411
 4831POPC   C3B61701  12.485   5.482   6.856
 4831POPC   C4B61702  12.616   5.185   7.132
 4832POPC   NC361703  43.172  15.514   5.486
 4832POPC   PO461704  42.668  15.053   5.337
 4832POPC   GL161705  42.948  15.054   5.768
 4832POPC   GL261706  42.960  15.374   5.934
 4832POPC   C1A61707  43.143  14.996   6.213
 4832POPC   D2A61708  43.289  15.217   6.590
 4832POPC   C3A61709  42.967  15.260   6.918
 4832POPC   C4A61710  42.940  15.027   7.303
 4832POPC   C1B61711  42.937  15.548   6.334
 4832POPC   C2B61712  43.210  15.781   6.602
 4832POPC   C3B61713  43.381  15.589   6.956
 4832POPC   C4B61714  43.167  15.513   7.332
 4833POPC   NC361715  23.281  36.688   5.476
 4833POPC   PO461716  23.866  37.087   5.371
 4833POPC   GL161717  23.834  36.790   5.775
 4833POPC   GL261718  23.525  36.644   5.923
 4833POPC   C1A61719  23.915  36.827   6.244
 4833POPC   D2A61720  23.976  37.146   6.595
 4833POPC   C3A61721  24.150  37.035   7.020
 4833POPC   C4A61722  24.026  36.654   7.270
 4833POPC   C1B61723  23.462  36.630   6.381
 4833POPC   C2B61724  23.472  36.585   6.817
 4833POPC   C3B61725  23.682  36.912   7.000
 4833POPC   C4B61726  23.515  37.339   7.135
 4834POPC   NC361727   1.547  28.373   5.458
 4834POPC   PO461728   2.167  28.348   5.344
 4834POPC   GL161729   2.094  28.586   5.732
 4834POPC   GL261730   1.751  28.615   5.865
 4834POPC   C1A61731   2.150  28.558   6.188
 4834POPC   D2A61732   2.049  28.260   6.519
 4834POPC   C3A61733   2.158  28.385   6.905
 4834POPC   C4A61734   2.353  28.152   7.194
 4834POPC   C1B61735   1.631  28.443   6.277
 4834POPC   C2B61736   1.582  28.410   6.724
 4834POPC   C3B61737   1.708  28.519   7.143
 4834POPC   C4B61738   1.913  28.227   7.421
 4835POPC   NC361739  26.737  20.259   5.301
 4835POPC   PO461740  26.446  20.819   5.487
 4835POPC   GL161741  26.622  20.588   5.814
 4835POPC   GL261742  26.901  20.512   5.719
 4835POPC   C1A61743  26.858  20.415   6.218
 4835POPC   D2A61744  27.199  20.465   6.533
 4835POPC   C3A61745  27.072  20.294   6.935
 4835POPC   C4A61746  26.813  20.473   7.303
 4835POPC   C1B61747  26.954  20.892   6.075
 4835POPC   C2B61748  27.080  20.975   6.510
 4835POPC   C3B61749  26.965  20.799   6.917
 4835POPC   C4B61750  27.083  21.060   7.288
 4836POPC   NC361751  11.485  16.085   5.437
 4836POPC   PO461752  10.947  15.646   5.359
 4836POPC   GL161753  11.136  15.853   5.718
 4836POPC   GL261754  11.412  15.658   5.779
 4836POPC   C1A61755  11.146  16.075   6.124
 4836POPC   D2A61756  10.916  16.063   6.524
 4836POPC   C3A61757  11.121  16.268   6.889
 4836POPC   C4A61758  10.994  16.155   7.301
 4836POPC   C1B61759  11.504  15.714   6.218
 4836POPC   C2B61760  11.620  15.829   6.632
 4836POPC   C3B61761  11.594  15.636   7.036
 4836POPC   C4B61762  11.448  15.926   7.334
 4837POPC   NC361763  11.478   5.765   5.416
 4837POPC   PO461764  11.548   6.371   5.442
 4837POPC   GL161765  11.394   6.120   5.856
 4837POPC   GL261766  11.369   5.737   5.913
 4837POPC   C1A61767  11.334   6.034   6.355
 4837POPC   D2A61768  11.263   5.756   6.759
 4837POPC   C3A61769  11.228   5.919   7.222
 4837POPC   C4A61770  11.335   5.892   7.677
 4837POPC   C1B61771  11.626   5.610   6.298
 4837POPC   C2B61772  11.763   5.626   6.744
 4837POPC   C3B61773  11.541   5.513   7.135
 4837POPC   C4B61774  11.601   5.475   7.592
 4838POPC   NC361775  21.059  20.406   5.435
 4838POPC   PO461776  20.402  20.492   5.425
 4838POPC   GL161777  20.684  20.660   5.715
 4838POPC   GL261778  20.539  20.969   5.789
 4838POPC   C1A61779  20.793  20.557   6.142
 4838POPC   D2A61780  20.580  20.609   6.536
 4838POPC   C3A61781  20.763  20.537   6.930
 4838POPC   C4A61782  20.742  20.250   7.227
 4838POPC   C1B61783  20.270  20.998   6.167
 4838POPC   C2B61784  20.302  21.066   6.617
 4838POPC   C3B61785  20.337  20.792   6.959
 4838POPC   C4B61786  20.379  20.743   7.412
 4839POPC   NC361787  40.735  15.612   5.468
 4839POPC   PO461788  40.527  16.306   5.489
 4839POPC   GL161789  40.636  16.019   5.823
 4839POPC   GL261790  40.435  15.736   5.866
 4839POPC   C1A61791  40.961  16.040   6.161
 4839POPC   D2A61792  41.034  15.881   6.566
 4839POPC   C3A61793  41.083  16.148   6.936
 4839POPC   C4A61794  41.080  15.922   7.316
 4839POPC   C1B61795  40.540  15.806   6.306
 4839POPC   C2B61796  40.419  15.685   6.712
 4839POPC   C3B61797  40.718  15.723   7.037
 4839POPC   C4B61798  40.733  15.517   7.462
 4840POPC   NC361799  44.585  43.626   5.573
 4840POPC   PO461800  44.564  42.957   5.444
 4840POPC   GL161801  44.751  43.118   5.809
 4840POPC   GL261802  44.995  42.825   5.762
 4840POPC   C1A61803  44.730  43.358   6.212
 4840POPC   D2A61804  44.526  43.409   6.626
 4840POPC   C3A61805  44.765  43.238   6.940
 4840POPC   C4A61806  44.727  42.975   7.327
 4840POPC   C1B61807   0.060  42.964   6.186
 4840POPC   C2B61808   0.135  43.083   6.603
 4840POPC   C3B61809   0.102  42.878   6.985
 4840POPC   C4B61810   0.065  42.626   7.337
 4841POPC   NC361811  28.240  27.493   5.479
 4841POPC   PO461812  28.938  27.678   5.531
 4841POPC   GL161813  28.637  27.519   5.830
 4841POPC   GL261814  28.383  27.793   5.882
 4841POPC   C1A61815  28.342  27.383   6.173
 4841POPC   D2A61816  28.203  27.570   6.562
 4841POPC   C3A61817  28.300  27.377   6.953
 4841POPC   C4A61818  28.189  27.225   7.336
 4841POPC   C1B61819  28.625  27.773   6.294
 4841POPC   C2B61820  28.693  27.700   6.737
 4841POPC   C3B61821  28.447  27.839   7.108
 4841POPC   C4B61822  28.581  28.055   7.474
 4842POPC   NC361823  33.561  40.927   5.380
 4842POPC   PO461824  32.972  40.622   5.349
 4842POPC   GL161825  33.206  40.744   5.744
 4842POPC   GL261826  33.330  40.408   5.754
 4842POPC   C1A61827  33.086  40.954   6.177
 4842POPC   D2A61828  32.763  40.898   6.546
 4842POPC   C3A61829  32.872  41.005   6.993
 4842POPC   C4A61830  32.786  40.741   7.360
 4842POPC   C1B61831  33.162  40.441   6.171
 4842POPC   C2B61832  33.210  40.633   6.580
 4842POPC   C3B61833  32.949  40.500   6.902
 4842POPC   C4B61834  33.031  40.271   7.271
 4843POPC   NC361835  13.711  43.238   5.408
 4843POPC   PO461836  13.031  43.154   5.136
 4843POPC   GL161837  13.259  43.111   5.623
 4843POPC   GL261838  13.537  42.913   5.790
 4843POPC   C1A61839  13.424  43.342   6.050
 4843POPC   D2A61840  13.734  43.236   6.411
 4843POPC   C3A61841  13.601  43.182   6.859
 4843POPC   C4A61842  13.582  43.133   7.326
 4843POPC   C1B61843  13.836  42.755   6.152
 4843POPC   C2B61844  13.965  42.802   6.630
 4843POPC   C3B61845  14.008  42.656   7.062
 4843POPC   C4B61846  13.648  42.638   7.310
 4844POPC   NC361847  28.282   8.491   5.394
 4844POPC   PO461848  28.115   7.796   5.491
 4844POPC   GL161849  28.349   8.115   5.785
 4844POPC   GL261850  28.462   8.479   5.853
 4844POPC   C1A61851  28.593   8.077   6.163
 4844POPC   D2A61852  28.371   8.074   6.556
 4844POPC   C3A61853  28.604   8.215   6.903
 4844POPC   C4A61854  28.438   8.074   7.299
 4844POPC   C1B61855  28.186   8.396   6.189
 4844POPC   C2B61856  28.004   8.462   6.543
 4844POPC   C3B61857  28.160   8.434   6.917
 4844POPC   C4B61858  28.041   8.454   7.295
 4845POPC   NC361859  23.989  13.859   5.055
 4845POPC   PO461860  23.453  13.926   5.525
 4845POPC   GL161861  23.675  13.738   5.843
 4845POPC   GL261862  23.543  13.486   6.027
 4845POPC   C1A61863  23.894  13.776   6.258
 4845POPC   D2A61864  23.749  13.448   6.546
 4845POPC   C3A61865  23.620  13.505   6.946
 4845POPC   C4A61866  23.720  13.574   7.328
 4845POPC   C1B61867  23.398  13.809   6.315
 4845POPC   C2B61868  23.480  13.946   6.727
 4845POPC   C3B61869  23.330  13.889   7.132
 4845POPC   C4B61870  23.277  13.678   7.544
 4846POPC   NC361871  41.371  26.019   5.113
 4846POPC   PO461872  41.273  26.417   5.610
 4846POPC   GL161873  41.529  26.050   5.789
 4846POPC   GL261874  41.677  25.702   5.749
 4846POPC   C1A61875  41.727  26.119   6.175
 4846POPC   D2A61876  41.489  26.312   6.480
 4846POPC   C3A61877  41.586  26.123   6.850
 4846POPC   C4A61878  41.365  26.088   7.258
 4846POPC   C1B61879  41.483  25.669   6.156
 4846POPC   C2B61880  41.288  25.804   6.524
 4846POPC   C3B61881  41.385  25.684   6.927
 4846POPC   C4B61882  41.680  25.695   7.293
 4847POPC   NC361883  20.211   3.657   5.593
 4847POPC   PO461884  19.582   3.730   5.433
 4847POPC   GL161885  19.743   3.613   5.809
 4847POPC   GL261886  19.917   3.285   5.796
 4847POPC   C1A61887  19.879   3.680   6.220
 4847POPC   D2A61888  19.735   3.664   6.624
 4847POPC   C3A61889  19.941   3.462   6.944
 4847POPC   C4A61890  19.810   3.715   7.280
 4847POPC   C1B61891  19.625   3.249   6.167
 4847POPC   C2B61892  19.719   3.120   6.577
 4847POPC   C3B61893  19.513   3.147   6.969
 4847POPC   C4B61894  19.638   3.255   7.324
 4848POPC   NC361895  29.568  36.807   5.562
 4848POPC   PO461896  30.170  36.840   5.315
 4848POPC   GL161897  30.003  36.975   5.725
 4848POPC   GL261898  30.140  37.257   5.824
 4848POPC   C1A61899  29.970  36.869   6.171
 4848POPC   D2A61900  29.767  36.794   6.575
 4848POPC   C3A61901  30.042  36.754   6.912
 4848POPC   C4A61902  29.865  36.789   7.309
 4848POPC   C1B61903  30.312  37.270   6.212
 4848POPC   C2B61904  30.168  37.172   6.596
 4848POPC   C3B61905  30.299  37.350   6.974
 4848POPC   C4B61906  30.334  37.007   7.247
 4849POPC   NC361907   6.622  27.605   5.329
 4849POPC   PO461908   7.189  27.969   5.440
 4849POPC   GL161909   6.858  27.811   5.760
 4849POPC   GL261910   6.769  27.461   5.802
 4849POPC   C1A61911   6.848  27.908   6.227
 4849POPC   D2A61912   6.617  27.960   6.625
 4849POPC   C3A61913   6.683  27.729   7.033
 4849POPC   C4A61914   6.807  27.325   7.215
 4849POPC   C1B61915   6.454  27.579   6.128
 4849POPC   C2B61916   6.280  27.555   6.545
 4849POPC   C3B61917   6.348  27.368   6.935
 4849POPC   C4B61918   6.332  27.467   7.377
 4850POPC   NC361919  38.159  14.900   5.319
 4850POPC   PO461920  38.596  15.360   5.345
 4850POPC   GL161921  38.413  15.333   5.766
 4850POPC   GL261922  38.171  15.057   5.840
 4850POPC   C1A61923  38.526  15.187   6.200
 4850POPC   D2A61924  38.289  15.114   6.583
 4850POPC   C3A61925  38.477  15.395   6.886
 4850POPC   C4A61926  38.676  15.320   7.268
 4850POPC   C1B61927  38.056  15.395   6.160
 4850POPC   C2B61928  37.981  15.539   6.582
 4850POPC   C3B61929  37.974  15.386   7.002
 4850POPC   C4B61930  38.211  15.538   7.357
 4851POPC   NC361931  29.419   3.218   5.629
 4851POPC   PO461932  28.949   2.721   5.484
 4851POPC   GL161933  29.182   2.784   5.869
 4851POPC   GL261934  28.983   3.096   5.884
 4851POPC   C1A61935  29.216   2.583   6.303
 4851POPC   D2A61936  28.893   2.385   6.589
 4851POPC   C3A61937  28.957   2.233   6.973
 4851POPC   C4A61938  28.800   2.297   7.375
 4851POPC   C1B61939  29.243   3.142   6.272
 4851POPC   C2B61940  29.484   3.026   6.639
 4851POPC   C3B61941  29.424   2.841   7.062
 4851POPC   C4B61942  29.059   2.913   7.332
 4852POPC   NC361943  42.512  21.278   5.140
 4852POPC   PO461944  42.045  21.200   5.610
 4852POPC   GL161945  42.263  21.149   5.945
 4852POPC   GL261946  42.623  21.145   5.876
 4852POPC   C1A61947  42.284  21.232   6.337
 4852POPC   D2A61948  42.135  21.504   6.610
 4852POPC   C3A61949  42.204  21.385   7.018
 4852POPC   C4A61950  42.143  21.682   7.292
 4852POPC   C1B61951  42.765  21.333   6.274
 4852POPC   C2B61952  42.654  21.362   6.723
 4852POPC   C3B61953  42.669  21.272   7.181
 4852POPC   C4B61954  42.651  21.194   7.632
 4853POPC   NC361955  44.664  34.549   5.351
 4853POPC   PO461956  43.973  34.328   5.584
 4853POPC   GL161957  44.375  34.578   5.764
 4853POPC   GL261958  44.745  34.438   5.840
 4853POPC   C1A61959  44.535  34.689   6.212
 4853POPC   D2A61960  44.574  34.465   6.577
 4853POPC   C3A61961  44.576  34.725   6.901
 4853POPC   C4A61962  44.616  34.429   7.245
 4853POPC   C1B61963  44.976  34.425   6.260
 4853POPC   C2B61964   0.033  34.685   6.665
 4853POPC   C3B61965   0.017  34.726   7.143
 4853POPC   C4B61966   0.066  34.755   7.595
 4854POPC   NC361967  38.133  30.835   5.579
 4854POPC   PO461968  38.689  30.452   5.614
 4854POPC   GL161969  38.411  30.578   5.905
 4854POPC   GL261970  38.618  30.871   5.942
 4854POPC   C1A61971  38.352  30.718   6.323
 4854POPC   D2A61972  38.605  30.759   6.672
 4854POPC   C3A61973  38.343  30.836   6.981
 4854POPC   C4A61974  38.410  30.738   7.367
 4854POPC   C1B61975  38.635  31.155   6.317
 4854POPC   C2B61976  38.809  31.226   6.754
 4854POPC   C3B61977  38.694  31.148   7.188
 4854POPC   C4B61978  38.403  31.239   7.522
 4855POPC   NC361979  21.313  38.207   5.344
 4855POPC   PO461980  21.397  37.529   5.536
 4855POPC   GL161981  21.394  37.818   5.772
 4855POPC   GL261982  21.715  37.951   5.619
 4855POPC   C1A61983  21.351  37.660   6.216
 4855POPC   D2A61984  21.285  37.809   6.660
 4855POPC   C3A61985  21.347  37.612   7.067
 4855POPC   C4A61986  21.359  37.631   7.514
 4855POPC   C1B61987  21.695  38.033   6.102
 4855POPC   C2B61988  21.778  37.757   6.474
 4855POPC   C3B61989  21.790  37.833   6.895
 4855POPC   C4B61990  21.655  37.999   7.297
 4856POPC   NC361991   0.854   1.768   5.396
 4856POPC   PO461992   1.486   1.590   5.475
 4856POPC   GL161993   1.454   2.000   5.746
 4856POPC   GL261994   1.090   2.000   5.812
 4856POPC   C1A61995   1.536   2.274   6.146
 4856POPC   D2A61996   1.346   2.442   6.546
 4856POPC   C3A61997   1.401   2.302   6.989
 4856POPC   C4A61998   1.308   2.200   7.434
 4856POPC   C1B61999   1.041   2.113   6.245
 4856POPC   C2B62000   1.142   1.982   6.651
 4856POPC   C3B62001   1.006   1.949   7.059
 4856POPC   C4B62002   1.409   1.801   7.143
 4857POPC   NC362003  41.727  16.124   5.408
 4857POPC   PO462004  41.135  15.861   5.523
 4857POPC   GL162005  41.447  15.931   5.801
 4857POPC   GL262006  41.535  16.273   5.851
 4857POPC   C1A62007  41.449  15.828   6.221
 4857POPC   D2A62008  41.506  15.563   6.573
 4857POPC   C3A62009  41.369  15.719   6.948
 4857POPC   C4A62010  41.563  15.824   7.320
 4857POPC   C1B62011  41.827  16.316   6.192
 4857POPC   C2B62012  41.733  16.071   6.560
 4857POPC   C3B62013  41.661  16.167   6.945
 4857POPC   C4B62014  41.949  16.156   7.268
 4858POPC   NC362015  19.272  21.061   5.206
 4858POPC   PO462016  19.388  21.593   5.528
 4858POPC   GL162017  19.219  21.238   5.805
 4858POPC   GL262018  18.835  21.227   5.901
 4858POPC   C1A62019  19.198  21.041   6.234
 4858POPC   D2A62020  19.282  21.278   6.602
 4858POPC   C3A62021  19.323  21.125   7.039
 4858POPC   C4A62022  19.236  21.347   7.438
 4858POPC   C1B62023  18.793  21.340   6.368
 4858POPC   C2B62024  18.832  21.265   6.845
 4858POPC   C3B62025  18.723  21.490   7.221
 4858POPC   C4B62026  18.810  21.545   7.658
 4859POPC   NC362027  40.302  22.132   5.414
 4859POPC   PO462028  40.967  21.957   5.252
 4859POPC   GL162029  40.966  22.001   5.703
 4859POPC   GL262030  40.943  22.368   5.840
 4859POPC   C1A62031  40.759  21.951   6.109
 4859POPC   D2A62032  40.822  22.104   6.549
 4859POPC   C3A62033  40.911  21.860   6.948
 4859POPC   C4A62034  40.620  22.044   7.273
 4859POPC   C1B62035  41.175  22.412   6.256
 4859POPC   C2B62036  41.142  22.567   6.692
 4859POPC   C3B62037  40.985  22.347   7.067
 4859POPC   C4B62038  40.783  22.500   7.469
 4860POPC   NC362039  16.681  28.812   5.468
 4860POPC   PO462040  16.952  29.323   5.269
 4860POPC   GL162041  16.697  29.269   5.762
 4860POPC   GL262042  16.789  29.023   5.944
 4860POPC   C1A62043  16.435  29.262   6.204
 4860POPC   D2A62044  16.534  29.148   6.669
 4860POPC   C3A62045  16.703  29.354   7.074
 4860POPC   C4A62046  16.655  29.481   7.516
 4860POPC   C1B62047  16.927  29.193   6.325
 4860POPC   C2B62048  17.064  29.233   6.738
 4860POPC   C3B62049  17.259  29.461   7.099
 4860POPC   C4B62050  17.165  29.533   7.554
 4861POPC   NC362051  18.463   2.999   5.395
 4861POPC   PO462052  18.032   2.610   5.551
 4861POPC   GL162053  18.213   2.975   5.848
 4861POPC   GL262054  18.596   3.080   5.876
 4861POPC   C1A62055  18.208   3.052   6.317
 4861POPC   D2A62056  18.263   2.682   6.632
 4861POPC   C3A62057  18.137   2.757   7.065
 4861POPC   C4A62058  17.895   3.080   7.265
 4861POPC   C1B62059  18.593   2.748   6.199
 4861POPC   C2B62060  18.757   2.740   6.652
 4861POPC   C3B62061  18.646   2.574   7.059
 4861POPC   C4B62062  18.391   2.432   7.415
 4862POPC   NC362063  28.659  20.139   5.525
 4862POPC   PO462064  28.443  19.529   5.454
 4862POPC   GL162065  28.316  19.807   5.786
 4862POPC   GL262066  28.076  20.068   5.701
 4862POPC   C1A62067  28.477  19.949   6.186
 4862POPC   D2A62068  28.578  20.162   6.588
 4862POPC   C3A62069  28.489  19.901   6.940
 4862POPC   C4A62070  28.562  20.073   7.315
 4862POPC   C1B62071  27.950  19.935   6.136
 4862POPC   C2B62072  28.119  19.941   6.559
 4862POPC   C3B62073  27.960  19.907   6.976
 4862POPC   C4B62074  28.102  19.783   7.365
 4863POPC   NC362075   2.382   3.133   5.313
 4863POPC   PO462076   2.843   2.590   5.429
 4863POPC   GL162077   2.901   2.726   5.849
 4863POPC   GL262078   2.700   3.000   5.809
 4863POPC   C1A62079   2.658   2.605   6.247
 4863POPC   D2A62080   2.368   2.755   6.586
 4863POPC   C3A62081   2.472   2.786   7.034
 4863POPC   C4A62082   2.542   2.704   7.477
 4863POPC   C1B62083   2.792   3.095   6.280
 4863POPC   C2B62084   2.866   2.864   6.695
 4863POPC   C3B62085   2.986   2.915   7.142
 4863POPC   C4B62086   2.979   3.057   7.581
 4864POPC   NC362087   1.292  10.475   5.126
 4864POPC   PO462088   1.506  10.357   5.772
 4864POPC   GL162089   1.288  10.471   6.087
 4864POPC   GL262090   1.017  10.322   6.005
 4864POPC   C1A62091   1.352  10.562   6.477
 4864POPC   D2A62092   1.382  10.836   6.759
 4864POPC   C3A62093   1.400  10.632   7.134
 4864POPC   C4A62094   1.304  10.393   7.493
 4864POPC   C1B62095   0.843  10.414   6.390
 4864POPC   C2B62096   0.945  10.540   6.789
 4864POPC   C3B62097   1.072  10.231   7.039
 4864POPC   C4B62098   0.856  10.046   7.361
 4865POPC   NC362099  40.805  32.546   5.420
 4865POPC   PO462100  40.812  33.202   5.459
 4865POPC   GL162101  40.691  32.917   5.793
 4865POPC   GL262102  40.417  32.632   5.737
 4865POPC   C1A62103  40.869  32.996   6.221
 4865POPC   D2A62104  40.868  33.360   6.529
 4865POPC   C3A62105  40.687  33.302   6.948
 4865POPC   C4A62106  40.534  33.101   7.328
 4865POPC   C1B62107  40.442  32.720   6.185
 4865POPC   C2B62108  40.498  32.944   6.561
 4865POPC   C3B62109  40.653  32.787   6.920
 4865POPC   C4B62110  40.675  32.606   7.306
 4866POPC   NC362111  29.656   4.555   5.376
 4866POPC   PO462112  29.128   4.273   5.059
 4866POPC   GL162113  29.139   4.206   5.554
 4866POPC   GL262114  28.886   4.373   5.776
 4866POPC   C1A62115  29.364   4.111   5.958
 4866POPC   D2A62116  29.558   4.267   6.358
 4866POPC   C3A62117  29.498   4.023   6.752
 4866POPC   C4A62118  29.347   4.307   7.042
 4866POPC   C1B62119  29.065   4.445   6.198
 4866POPC   C2B62120  29.061   4.234   6.598
 4866POPC   C3B62121  28.849   4.213   6.986
 4866POPC   C4B62122  28.492   4.040   7.187
 4867POPC   NC362123  28.219  29.257   5.299
 4867POPC   PO462124  28.488  28.653   5.457
 4867POPC   GL162125  28.358  29.033   5.812
 4867POPC   GL262126  28.118  29.307   5.903
 4867POPC   C1A62127  28.467  28.997   6.311
 4867POPC   D2A62128  28.519  28.734   6.722
 4867POPC   C3A62129  28.481  28.986   7.146
 4867POPC   C4A62130  28.468  29.283   7.562
 4867POPC   C1B62131  27.999  29.196   6.348
 4867POPC   C2B62132  28.145  29.125   6.785
 4867POPC   C3B62133  28.257  29.442   7.132
 4867POPC   C4B62134  28.085  29.640   7.545
 4868POPC   NC362135   9.408  29.183   5.410
 4868POPC   PO462136  10.094  29.167   5.323
 4868POPC   GL162137   9.863  29.036   5.744
 4868POPC   GL262138   9.547  29.190   5.897
 4868POPC   C1A62139   9.841  28.856   6.181
 4868POPC   D2A62140   9.535  29.007   6.488
 4868POPC   C3A62141   9.652  29.017   6.918
 4868POPC   C4A62142   9.710  28.753   7.244
 4868POPC   C1B62143   9.831  29.351   6.216
 4868POPC   C2B62144   9.764  29.447   6.640
 4868POPC   C3B62145   9.922  29.419   7.056
 4868POPC   C4B62146   9.711  29.507   7.425
 4869POPC   NC362147  44.978  39.174   5.664
 4869POPC   PO462148  44.402  39.423   5.440
 4869POPC   GL162149  44.526  39.256   5.842
 4869POPC   GL262150  44.460  38.970   5.795
 4869POPC   C1A62151  44.691  39.085   6.262
 4869POPC   D2A62152  44.730  39.270   6.660
 4869POPC   C3A62153  44.780  39.148   7.059
 4869POPC   C4A62154  44.887  39.421   7.346
 4869POPC   C1B62155  44.202  38.990   6.163
 4869POPC   C2B62156  44.320  38.866   6.584
 4869POPC   C3B62157  44.263  39.134   6.921
 4869POPC   C4B62158  44.366  39.313   7.295
 4870POPC   NC362159   7.966   5.516   5.534
 4870POPC   PO462160   8.177   4.888   5.333
 4870POPC   GL162161   8.068   4.895   5.764
 4870POPC   GL262162   7.963   4.571   5.809
 4870POPC   C1A62163   8.195   5.068   6.182
 4870POPC   D2A62164   8.386   4.991   6.593
 4870POPC   C3A62165   8.115   5.103   6.936
 4870POPC   C4A62166   8.073   5.346   7.346
 4870POPC   C1B62167   8.096   4.573   6.225
 4870POPC   C2B62168   7.964   4.658   6.639
 4870POPC   C3B62169   8.082   4.582   7.044
 4870POPC   C4B62170   7.901   4.862   7.320
 4871POPC   NC362171   3.851   3.682   5.602
 4871POPC   PO462172   3.251   3.501   5.488
 4871POPC   GL162173   3.374   3.727   5.812
 4871POPC   GL262174   3.541   3.404   5.913
 4871POPC   C1A62175   3.532   3.796   6.226
 4871POPC   D2A62176   3.752   3.683   6.588
 4871POPC   C3A62177   3.558   3.694   7.017
 4871POPC   C4A62178   3.309   3.339   7.238
 4871POPC   C1B62179   3.820   3.142   6.160
 4871POPC   C2B62180   4.011   3.169   6.576
 4871POPC   C3B62181   3.981   3.408   6.941
 4871POPC   C4B62182   3.809   3.332   7.301
 4872POPC   NC362183  13.783  29.761   5.342
 4872POPC   PO462184  13.276  30.116   5.280
 4872POPC   GL162185  13.552  30.141   5.684
 4872POPC   GL262186  13.751  29.829   5.836
 4872POPC   C1A62187  13.449  30.127   6.146
 4872POPC   D2A62188  13.297  29.910   6.530
 4872POPC   C3A62189  13.515  30.073   6.869
 4872POPC   C4A62190  13.620  30.102   7.259
 4872POPC   C1B62191  13.726  29.569   6.211
 4872POPC   C2B62192  13.770  29.691   6.636
 4872POPC   C3B62193  13.940  29.758   7.058
 4872POPC   C4B62194  13.986  29.753   7.506
 4873POPC   NC362195  31.184  10.988   5.443
 4873POPC   PO462196  31.880  11.135   5.513
 4873POPC   GL162197  31.574  11.369   5.740
 4873POPC   GL262198  31.435  11.097   5.863
 4873POPC   C1A62199  31.578  11.417   6.219
 4873POPC   D2A62200  31.338  11.390   6.626
 4873POPC   C3A62201  31.502  11.559   7.026
 4873POPC   C4A62202  31.789  11.389   7.361
 4873POPC   C1B62203  31.597  10.829   6.171
 4873POPC   C2B62204  31.514  10.866   6.615
 4873POPC   C3B62205  31.450  11.051   7.024
 4873POPC   C4B62206  31.399  11.050   7.484
 4874POPC   NC362207   1.744   0.482   5.127
 4874POPC   PO462208   2.062   0.031   5.550
 4874POPC   GL162209   2.009   0.100   5.942
 4874POPC   GL262210   1.708   0.165   6.010
 4874POPC   C1A62211   2.071   0.297   6.339
 4874POPC   D2A62212   2.067   0.063   6.671
 4874POPC   C3A62213   1.943   0.316   6.920
 4874POPC   C4A62214   2.113   0.533   7.212
 4874POPC   C1B62215   1.472  44.885   6.260
 4874POPC   C2B62216   1.467  44.930   6.686
 4874POPC   C3B62217   1.440   0.258   6.979
 4874POPC   C4B62218   1.645   0.315   7.382
 4875POPC   NC362219   4.297  30.289   5.653
 4875POPC   PO462220   4.581  30.754   5.121
 4875POPC   GL162221   4.541  30.769   5.670
 4875POPC   GL262222   4.226  30.930   5.830
 4875POPC   C1A62223   4.576  30.726   6.147
 4875POPC   D2A62224   4.440  30.972   6.526
 4875POPC   C3A62225   4.538  30.757   6.918
 4875POPC   C4A62226   4.853  30.877   7.158
 4875POPC   C1B62227   4.073  30.732   6.251
 4875POPC   C2B62228   4.109  30.576   6.707
 4875POPC   C3B62229   3.893  30.414   7.112
 4875POPC   C4B62230   4.003  30.479   7.598
 4876POPC   NC362231   6.281   0.461   5.222
 4876POPC   PO462232   6.839   0.241   5.572
 4876POPC   GL162233   6.639   0.365   5.914
 4876POPC   GL262234   6.682   0.695   5.896
 4876POPC   C1A62235   6.742   0.386   6.341
 4876POPC   D2A62236   6.512   0.187   6.650
 4876POPC   C3A62237   6.692   0.201   7.033
 4876POPC   C4A62238   6.779   0.548   7.199
 4876POPC   C1B62239   6.450   0.814   6.288
 4876POPC   C2B62240   6.537   0.704   6.724
 4876POPC   C3B62241   6.307   0.726   7.097
 4876POPC   C4B62242   6.424   0.729   7.546
 4877POPC   NC362243  28.591   0.784   5.384
 4877POPC   PO462244  27.885   0.696   5.540
 4877POPC   GL162245  28.267   0.565   5.748
 4877POPC   GL262246  28.297   0.924   5.808
 4877POPC   C1A62247  28.418   0.258   6.105
 4877POPC   D2A62248  28.599   0.143   6.536
 4877POPC   C3A62249  28.329   0.106   6.914
 4877POPC   C4A62250  28.494   0.077   7.300
 4877POPC   C1B62251  28.536   0.761   6.168
 4877POPC   C2B62252  28.633   0.648   6.612
 4877POPC   C3B62253  28.475   0.583   7.037
 4877POPC   C4B62254  28.500   0.575   7.488
 4878POPC   NC362255  39.884   4.053   5.413
 4878POPC   PO462256  39.763   4.704   5.552
 4878POPC   GL162257  39.958   4.402   5.813
 4878POPC   GL262258  39.724   4.118   5.882
 4878POPC   C1A62259  40.137   4.268   6.212
 4878POPC   D2A62260  40.278   4.131   6.620
 4878POPC   C3A62261  40.080   4.321   7.002
 4878POPC   C4A62262  39.911   4.707   7.234
 4878POPC   C1B62263  39.771   3.907   6.244
 4878POPC   C2B62264  39.756   4.091   6.615
 4878POPC   C3B62265  39.712   3.967   7.011
 4878POPC   C4B62266  39.563   4.213   7.316
 4879POPC   NC362267   0.809  22.568   5.328
 4879POPC   PO462268   0.555  23.167   5.417
 4879POPC   GL162269   0.449  23.109   5.839
 4879POPC   GL262270   0.503  22.763   5.828
 4879POPC   C1A62271   0.566  23.151   6.246
 4879POPC   D2A62272   0.862  23.124   6.565
 4879POPC   C3A62273   0.613  23.019   6.907
 4879POPC   C4A62274   0.414  23.115   7.299
 4879POPC   C1B62275   0.531  22.574   6.207
 4879POPC   C2B62276   0.755  22.534   6.578
 4879POPC   C3B62277   0.676  22.394   6.961
 4879POPC   C4B62278   0.544  22.623   7.290
 4880POPC   NC362279  27.050  41.279   5.279
 4880POPC   PO462280  26.874  40.610   5.537
 4880POPC   GL162281  26.891  40.781   5.928
 4880POPC   GL262282  26.786  41.121   5.790
 4880POPC   C1A62283  26.707  40.645   6.341
 4880POPC   D2A62284  26.767  40.395   6.725
 4880POPC   C3A62285  26.908  40.665   7.056
 4880POPC   C4A62286  26.817  40.664   7.464
 4880POPC   C1B62287  26.904  41.193   6.220
 4880POPC   C2B62288  26.917  40.999   6.660
 4880POPC   C3B62289  26.767  41.159   7.085
 4880POPC   C4B62290  26.820  41.163   7.532
 4881POPC   NC362291  18.683  35.584   5.456
 4881POPC   PO462292  18.988  35.016   5.499
 4881POPC   GL162293  19.017  35.083   5.902
 4881POPC   GL262294  18.903  35.405   5.891
 4881POPC   C1A62295  18.945  35.161   6.341
 4881POPC   D2A62296  19.077  35.191   6.735
 4881POPC   C3A62297  18.732  35.192   7.011
 4881POPC   C4A62298  18.732  35.132   7.467
 4881POPC   C1B62299  19.140  35.621   6.215
 4881POPC   C2B62300  19.377  35.578   6.578
 4881POPC   C3B62301  19.218  35.714   6.960
 4881POPC   C4B62302  19.319  35.757   7.383
 4882POPC   NC362303  15.510  27.875   5.479
 4882POPC   PO462304  15.024  27.448   5.259
 4882POPC   GL162305  15.198  27.527   5.690
 4882POPC   GL262306  14.859  27.542   5.754
 4882POPC   C1A62307  15.476  27.643   6.094
 4882POPC   D2A62308  15.606  27.348   6.452
 4882POPC   C3A62309  15.402  27.277   6.884
 4882POPC   C4A62310  15.252  27.495   7.300
 4882POPC   C1B62311  14.991  27.780   6.113
 4882POPC   C2B62312  15.190  27.660   6.521
 4882POPC   C3B62313  14.983  27.632   6.912
 4882POPC   C4B62314  14.823  27.868   7.265
 4883POPC   NC362315  44.044  39.237   5.217
 4883POPC   PO462316  43.553  38.915   5.583
 4883POPC   GL162317  43.755  39.098   5.862
 4883POPC   GL262318  44.023  39.236   5.736
 4883POPC   C1A62319  43.745  39.278   6.214
 4883POPC   D2A62320  43.886  39.117   6.567
 4883POPC   C3A62321  43.746  39.223   6.949
 4883POPC   C4A62322  43.879  39.144   7.348
 4883POPC   C1B62323  44.188  39.501   6.091
 4883POPC   C2B62324  44.273  39.444   6.509
 4883POPC   C3B62325  44.112  39.620   6.894
 4883POPC   C4B62326  43.879  39.631   7.250
 4884POPC   NC362327  21.048  29.948   5.430
 4884POPC   PO462328  21.512  30.313   5.475
 4884POPC   GL162329  21.453  30.079   5.869
 4884POPC   GL262330  21.164  29.856   5.914
 4884POPC   C1A62331  21.480  29.928   6.309
 4884POPC   D2A62332  21.644  30.122   6.681
 4884POPC   C3A62333  21.712  29.923   7.072
 4884POPC   C4A62334  21.453  30.203   7.269
 4884POPC   C1B62335  21.129  29.536   6.240
 4884POPC   C2B62336  21.297  29.486   6.641
 4884POPC   C3B62337  21.258  29.743   7.005
 4884POPC   C4B62338  21.055  29.899   7.374
 4885POPC   NC362339  16.425  20.989   5.437
 4885POPC   PO462340  16.975  20.655   5.439
 4885POPC   GL162341  17.100  20.552   5.844
 4885POPC   GL262342  16.773  20.394   5.912
 4885POPC   C1A62343  17.103  20.453   6.292
 4885POPC   D2A62344  16.764  20.441   6.607
 4885POPC   C3A62345  16.929  20.593   6.993
 4885POPC   C4A62346  17.069  20.982   7.199
 4885POPC   C1B62347  16.713  20.799   6.129
 4885POPC   C2B62348  16.584  20.964   6.522
 4885POPC   C3B62349  16.465  20.810   6.909
 4885POPC   C4B62350  16.315  20.728   7.311
 4886POPC   NC362351  25.854   2.601   5.458
 4886POPC   PO462352  26.267   3.143   5.628
 4886POPC   GL162353  26.048   2.884   5.860
 4886POPC   GL262354  26.186   2.560   5.893
 4886POPC   C1A62355  26.023   2.924   6.291
 4886POPC   D2A62356  26.170   2.622   6.521
 4886POPC   C3A62357  26.240   2.681   6.934
 4886POPC   C4A62358  26.064   2.633   7.342
 4886POPC   C1B62359  25.843   2.440   6.126
 4886POPC   C2B62360  25.707   2.346   6.531
 4886POPC   C3B62361  25.777   2.418   6.969
 4886POPC   C4B62362  25.619   2.332   7.392
 4887POPC   NC362363  44.262  27.957   5.464
 4887POPC   PO462364  43.572  27.883   5.410
 4887POPC   GL162365  43.729  27.669   5.816
 4887POPC   GL262366  44.107  27.666   5.842
 4887POPC   C1A62367  43.832  27.378   6.130
 4887POPC   D2A62368  43.705  27.272   6.516
 4887POPC   C3A62369  43.817  27.504   6.872
 4887POPC   C4A62370  43.865  27.292   7.249
 4887POPC   C1B62371  44.291  27.566   6.239
 4887POPC   C2B62372  44.512  27.501   6.634
 4887POPC   C3B62373  44.313  27.604   7.011
 4887POPC   C4B62374  44.273  27.939   7.283
 4888POPC   NC362375  19.747  10.708   5.533
 4888POPC   PO462376  20.267  10.301   5.443
 4888POPC   GL162377  19.907  10.293   5.833
 4888POPC   GL262378  19.517  10.376   5.865
 4888POPC   C1A62379  19.799  10.191   6.307
 4888POPC   D2A62380  19.863  10.107   6.792
 4888POPC   C3A62381  19.941  10.494   7.064
 4888POPC   C4A62382  20.006  10.805   7.409
 4888POPC   C1B62383  19.594  10.688   6.204
 4888POPC   C2B62384  19.679  10.836   6.632
 4888POPC   C3B62385  19.520  10.830   7.080
 4888POPC   C4B62386  19.580  10.536   7.435
 4889POPC   NC362387  31.849   4.394   5.528
 4889POPC   PO462388  31.417   4.074   5.231
 4889POPC   GL162389  31.367   4.222   5.747
 4889POPC   GL262390  31.246   4.538   5.915
 4889POPC   C1A62391  31.434   4.168   6.208
 4889POPC   D2A62392  31.740   4.262   6.545
 4889POPC   C3A62393  31.654   4.134   6.980
 4889POPC   C4A62394  31.259   4.227   7.169
 4889POPC   C1B62395  31.619   4.640   6.172
 4889POPC   C2B62396  31.786   4.768   6.575
 4889POPC   C3B62397  31.555   4.618   6.902
 4889POPC   C4B62398  31.609   4.613   7.337
 4890POPC   NC362399  19.283  42.440   5.383
 4890POPC   PO462400  18.605  42.473   5.313
 4890POPC   GL162401  18.875  42.250   5.702
 4890POPC   GL262402  19.235  42.233   5.842
 4890POPC   C1A62403  18.878  42.090   6.173
 4890POPC   D2A62404  19.079  41.984   6.608
 4890POPC   C3A62405  18.926  42.157   7.003
 4890POPC   C4A62406  18.635  42.327   7.288
 4890POPC   C1B62407  19.378  42.269   6.270
 4890POPC   C2B62408  19.258  42.523   6.641
 4890POPC   C3B62409  19.345  42.674   7.046
 4890POPC   C4B62410  19.257  42.393   7.363
 4891POPC   NC362411  12.245  30.510   5.465
 4891POPC   PO462412  11.769  31.012   5.477
 4891POPC   GL162413  12.104  30.879   5.782
 4891POPC   GL262414  12.147  30.531   5.956
 4891POPC   C1A62415  12.237  30.967   6.171
 4891POPC   D2A62416  12.070  30.712   6.501
 4891POPC   C3A62417  12.081  30.912   6.898
 4891POPC   C4A62418  12.318  30.810   7.277
 4891POPC   C1B62419  11.828  30.338   6.173
 4891POPC   C2B62420  11.606  30.468   6.509
 4891POPC   C3B62421  11.704  30.355   6.908
 4891POPC   C4B62422  11.919  30.501   7.187
 4892POPC   NC362423  44.503  13.992   5.227
 4892POPC   PO462424  44.907  14.478   5.508
 4892POPC   GL162425  44.716  14.482   5.876
 4892POPC   GL262426  44.450  14.682   5.773
 4892POPC   C1A62427  44.631  14.654   6.273
 4892POPC   D2A62428  44.793  14.565   6.658
 4892POPC   C3A62429  44.665  14.313   6.939
 4892POPC   C4A62430  44.859  14.283   7.287
 4892POPC   C1B62431  44.234  14.914   6.057
 4892POPC   C2B62432  44.152  14.775   6.461
 4892POPC   C3B62433  44.332  14.706   6.863
 4892POPC   C4B62434  44.337  14.566   7.296
 4893POPC   NC362435  31.977  11.557   5.378
 4893POPC   PO462436  32.470  11.130   5.449
 4893POPC   GL162437  32.252  11.150   5.874
 4893POPC   GL262438  32.046  11.463   5.904
 4893POPC   C1A62439  32.028  11.077   6.248
 4893POPC   D2A62440  31.855  11.247   6.631
 4893POPC   C3A62441  31.977  11.050   6.985
 4893POPC   C4A62442  32.301  11.204   7.225
 4893POPC   C1B62443  32.196  11.553   6.332
 4893POPC   C2B62444  32.380  11.766   6.669
 4893POPC   C3B62445  32.483  11.686   7.111
 4893POPC   C4B62446  32.205  11.663   7.453
 4894POPC   NC362447   0.462  33.439   5.498
 4894POPC   PO462448   0.660  32.814   5.582
 4894POPC   GL162449   0.602  32.980   5.977
 4894POPC   GL262450   0.310  33.177   5.904
 4894POPC   C1A62451   0.727  33.006   6.429
 4894POPC   D2A62452   0.815  33.010   6.889
 4894POPC   C3A62453   0.593  32.776   7.177
 4894POPC   C4A62454   0.186  32.716   7.112
 4894POPC   C1B62455   0.248  33.087   6.329
 4894POPC   C2B62456   0.305  33.054   6.758
 4894POPC   C3B62457   0.396  33.266   7.110
 4894POPC   C4B62458   0.732  33.560   7.160
 4895POPC   NC362459  19.920   7.915   5.484
 4895POPC   PO462460  19.738   8.614   5.498
 4895POPC   GL162461  19.960   8.396   5.807
 4895POPC   GL262462  19.717   8.154   5.888
 4895POPC   C1A62463  20.075   8.257   6.231
 4895POPC   D2A62464  20.004   8.111   6.641
 4895POPC   C3A62465  19.929   8.309   7.022
 4895POPC   C4A62466  20.311   8.158   7.212
 4895POPC   C1B62467  19.643   7.987   6.304
 4895POPC   C2B62468  19.559   7.883   6.746
 4895POPC   C3B62469  19.521   8.034   7.188
 4895POPC   C4B62470  19.419   8.074   7.668
 4896POPC   NC362471  12.179   7.712   5.427
 4896POPC   PO462472  11.871   7.225   5.545
 4896POPC   GL162473  12.039   7.529   5.891
 4896POPC   GL262474  12.397   7.588   5.878
 4896POPC   C1A62475  12.119   7.522   6.359
 4896POPC   D2A62476  12.081   7.258   6.775
 4896POPC   C3A62477  11.888   7.467   7.154
 4896POPC   C4A62478  11.746   7.645   7.578
 4896POPC   C1B62479  12.605   7.407   6.227
 4896POPC   C2B62480  12.545   7.433   6.662
 4896POPC   C3B62481  12.461   7.371   7.119
 4896POPC   C4B62482  12.267   7.648   7.438
 4897POPC   NC362483  39.081  27.107   5.374
 4897POPC   PO462484  39.659  26.698   5.339
 4897POPC   GL162485  39.394  26.877   5.722
 4897POPC   GL262486  39.058  26.871   5.817
 4897POPC   C1A62487  39.399  26.952   6.181
 4897POPC   D2A62488  39.134  26.870   6.526
 4897POPC   C3A62489  39.255  26.807   6.943
 4897POPC   C4A62490  39.153  26.695   7.362
 4897POPC   C1B62491  38.792  26.877   6.149
 4897POPC   C2B62492  38.731  27.199   6.440
 4897POPC   C3B62493  38.904  27.260   6.846
 4897POPC   C4B62494  38.761  27.362   7.266
 4898POPC   NC362495  28.487  16.246   5.528
 4898POPC   PO462496  28.251  15.633   5.350
 4898POPC   GL162497  28.478  15.780   5.734
 4898POPC   GL262498  28.146  15.907   5.827
 4898POPC   C1A62499  28.470  15.970   6.195
 4898POPC   D2A62500  28.213  15.878   6.563
 4898POPC   C3A62501  28.332  16.038   6.991
 4898POPC   C4A62502  28.093  16.161   7.383
 4898POPC   C1B62503  28.230  15.503   6.102
 4898POPC   C2B62504  28.056  15.361   6.512
 4898POPC   C3B62505  27.971  15.552   6.887
 4898POPC   C4B62506  28.134  15.653   7.260
 4899POPC   NC362507  20.634   2.277   5.126
 4899POPC   PO462508  20.550   1.700   5.462
 4899POPC   GL162509  20.542   1.895   5.861
 4899POPC   GL262510  20.708   2.224   5.902
 4899POPC   C1A62511  20.399   1.929   6.290
 4899POPC   D2A62512  20.482   2.249   6.619
 4899POPC   C3A62513  20.392   2.193   7.061
 4899POPC   C4A62514  20.554   1.832   7.250
 4899POPC   C1B62515  20.897   1.945   6.241
 4899POPC   C2B62516  20.792   1.804   6.665
 4899POPC   C3B62517  20.988   1.941   7.040
 4899POPC   C4B62518  20.929   2.275   7.357
 4900POPC   NC362519   8.756  26.057   5.422
 4900POPC   PO462520   8.097  25.813   5.420
 4900POPC   GL162521   8.193  25.980   5.830
 4900POPC   GL262522   8.517  26.116   5.867
 4900POPC   C1A62523   8.211  25.785   6.245
 4900POPC   D2A62524   8.202  25.558   6.621
 4900POPC   C3A62525   8.174  25.781   6.985
 4900POPC   C4A62526   8.389  25.823   7.342
 4900POPC   C1B62527   8.552  26.165   6.279
 4900POPC   C2B62528   8.366  26.122   6.659
 4900POPC   C3B62529   8.437  26.276   7.072
 4900POPC   C4B62530   8.328  26.283   7.511
 4901POPC   NC362531  10.975  17.300   5.622
 4901POPC   PO462532  10.538  17.736   5.346
 4901POPC   GL162533  10.454  17.428   5.690
 4901POPC   GL262534  10.624  17.646   5.902
 4901POPC   C1A62535  10.313  17.280   6.116
 4901POPC   D2A62536  10.483  17.348   6.514
 4901POPC   C3A62537  10.312  17.553   6.887
 4901POPC   C4A62538  10.364  17.454   7.332
 4901POPC   C1B62539  10.815  17.799   6.278
 4901POPC   C2B62540  10.812  17.687   6.718
 4901POPC   C3B62541  10.703  17.809   7.124
 4901POPC   C4B62542  10.784  17.659   7.523
 4902POPC   NC362543  23.833  35.102   5.548
 4902POPC   PO462544  23.563  35.576   5.178
 4902POPC   GL162545  23.497  35.478   5.695
 4902POPC   GL262546  23.827  35.465   5.931
 4902POPC   C1A62547  23.416  35.443   6.194
 4902POPC   D2A62548  23.741  35.606   6.506
 4902POPC   C3A62549  23.666  35.659   6.947
 4902POPC   C4A62550  23.472  35.356   7.238
 4902POPC   C1B62551  24.106  35.150   6.159
 4902POPC   C2B62552  24.105  34.998   6.552
 4902POPC   C3B62553  23.887  35.139   6.896
 4902POPC   C4B62554  23.867  35.022   7.284
 4903POPC   NC362555  38.080  34.479   5.461
 4903POPC   PO462556  38.733  34.671   5.526
 4903POPC   GL162557  38.736  34.546   5.918
 4903POPC   GL262558  38.386  34.446   5.899
 4903POPC   C1A62559  38.704  34.517   6.341
 4903POPC   D2A62560  38.448  34.602   6.666
 4903POPC   C3A62561  38.683  34.595   7.035
 4903POPC   C4A62562  38.611  34.418   7.460
 4903POPC   C1B62563  38.050  34.629   6.185
 4903POPC   C2B62564  37.941  34.503   6.609
 4903POPC   C3B62565  38.112  34.510   7.030
 4903POPC   C4B62566  38.109  34.334   7.417
 4904POPC   NC362567  41.812  12.500   5.598
 4904POPC   PO462568  42.301  12.055   5.470
 4904POPC   GL162569  42.346  11.929   5.866
 4904POPC   GL262570  42.221  12.283   5.927
 4904POPC   C1A62571  42.234  11.951   6.300
 4904POPC   D2A62572  42.192  12.297   6.541
 4904POPC   C3A62573  42.219  12.031   6.873
 4904POPC   C4A62574  42.133  12.137   7.254
 4904POPC   C1B62575  42.578  12.400   6.162
 4904POPC   C2B62576  42.621  12.630   6.540
 4904POPC   C3B62577  42.532  12.452   6.909
 4904POPC   C4B62578  42.610  12.318   7.295
 4905POPC   NC362579   7.002  43.251   5.538
 4905POPC   PO462580   6.367  43.237   5.243
 4905POPC   GL162581   6.593  42.999   5.668
 4905POPC   GL262582   6.740  42.657   5.664
 4905POPC   C1A62583   6.731  43.166   6.125
 4905POPC   D2A62584   6.509  43.337   6.489
 4905POPC   C3A62585   6.611  43.203   6.911
 4905POPC   C4A62586   6.656  43.415   7.306
 4905POPC   C1B62587   6.936  42.702   6.098
 4905POPC   C2B62588   6.836  42.886   6.534
 4905POPC   C3B62589   6.816  42.733   6.961
 4905POPC   C4B62590   6.580  42.872   7.318
 4906POPC   NC362591  16.226  13.465   5.483
 4906POPC   PO462592  15.699  13.849   5.534
 4906POPC   GL162593  16.000  13.756   5.855
 4906POPC   GL262594  16.069  13.397   5.952
 4906POPC   C1A62595  15.976  13.761   6.297
 4906POPC   D2A62596  15.963  14.112   6.586
 4906POPC   C3A62597  15.853  13.919   6.983
 4906POPC   C4A62598  16.010  13.610   7.241
 4906POPC   C1B62599  15.624  13.432   6.080
 4906POPC   C2B62600  15.614  13.401   6.523
 4906POPC   C3B62601  15.737  13.276   6.939
 4906POPC   C4B62602  15.580  13.376   7.360
 4907POPC   NC362603  33.667  12.465   5.424
 4907POPC   PO462604  33.845  11.816   5.363
 4907POPC   GL162605  33.893  12.088   5.717
 4907POPC   GL262606  33.968  11.817   5.870
 4907POPC   C1A62607  34.013  12.231   6.178
 4907POPC   D2A62608  33.749  12.239   6.554
 4907POPC   C3A62609  33.942  12.336   6.931
 4907POPC   C4A62610  33.784  12.309   7.311
 4907POPC   C1B62611  33.616  11.916   6.156
 4907POPC   C2B62612  33.382  11.833   6.566
 4907POPC   C3B62613  33.466  12.014   6.996
 4907POPC   C4B62614  33.538  11.829   7.393
 4908POPC   NC362615  23.513  44.558   5.572
 4908POPC   PO462616  23.930   0.144   5.457
 4908POPC   GL162617  23.909  44.806   5.835
 4908POPC   GL262618  23.560  44.713   6.035
 4908POPC   C1A62619  23.991  44.669   6.291
 4908POPC   D2A62620  23.693  44.769   6.631
 4908POPC   C3A62621  23.876  44.811   7.030
 4908POPC   C4A62622  23.788  44.741   7.445
 4908POPC   C1B62623  23.436  44.422   6.343
 4908POPC   C2B62624  23.609  44.229   6.726
 4908POPC   C3B62625  23.694  44.331   7.172
 4908POPC   C4B62626  23.625  44.306   7.641
 4909POPC   NC362627   0.193   0.871   5.441
 4909POPC   PO462628   0.494   1.469   5.426
 4909POPC   GL162629   0.560   1.238   5.785
 4909POPC   GL262630   0.317   1.419   5.993
 4909POPC   C1A62631   0.707   1.181   6.213
 4909POPC   D2A62632   0.411   1.281   6.537
 4909POPC   C3A62633   0.574   1.163   6.913
 4909POPC   C4A62634   0.476   1.140   7.318
 4909POPC   C1B62635   0.282   0.941   6.124
 4909POPC   C2B62636   0.097   0.811   6.512
 4909POPC   C3B62637   0.087   0.950   6.915
 4909POPC   C4B62638   0.249   0.685   7.206
 4910POPC   NC362639  11.922   2.411   5.325
 4910POPC   PO462640  12.024   3.086   5.323
 4910POPC   GL162641  12.102   2.794   5.663
 4910POPC   GL262642  12.285   3.045   5.865
 4910POPC   C1A62643  12.076   2.661   6.105
 4910POPC   D2A62644  12.200   2.645   6.549
 4910POPC   C3A62645  11.934   2.375   6.818
 4910POPC   C4A62646  11.918   2.517   7.249
 4910POPC   C1B62647  12.485   2.984   6.257
 4910POPC   C2B62648  12.418   3.113   6.693
 4910POPC   C3B62649  12.243   2.889   7.025
 4910POPC   C4B62650  12.448   2.818   7.407
 4911POPC   NC362651  30.266  19.925   5.358
 4911POPC   PO462652  30.911  20.134   5.412
 4911POPC   GL162653  30.960  19.950   5.843
 4911POPC   GL262654  30.981  19.587   5.826
 4911POPC   C1A62655  30.662  20.081   6.188
 4911POPC   D2A62656  30.425  20.081   6.577
 4911POPC   C3A62657  30.676  19.909   6.901
 4911POPC   C4A62658  30.710  19.862   7.318
 4911POPC   C1B62659  30.756  19.593   6.250
 4911POPC   C2B62660  30.466  19.538   6.611
 4911POPC   C3B62661  30.480  19.429   7.075
 4911POPC   C4B62662  30.724  19.379   7.482
 4912POPC   NC362663  23.648  15.495   5.576
 4912POPC   PO462664  23.732  14.886   5.496
 4912POPC   GL162665  23.740  15.089   5.904
 4912POPC   GL262666  23.468  15.310   6.021
 4912POPC   C1A62667  23.950  15.232   6.287
 4912POPC   D2A62668  23.912  15.410   6.706
 4912POPC   C3A62669  23.972  15.075   7.036
 4912POPC   C4A62670  23.840  15.087   7.498
 4912POPC   C1B62671  23.299  14.932   6.212
 4912POPC   C2B62672  23.368  14.836   6.647
 4912POPC   C3B62673  23.475  15.141   6.955
 4912POPC   C4B62674  23.327  15.221   7.337
 4913POPC   NC362675  43.804   6.783   5.238
 4913POPC   PO462676  43.180   6.532   5.324
 4913POPC   GL162677  43.102   6.604   5.753
 4913POPC   GL262678  42.810   6.776   5.732
 4913POPC   C1A62679  43.225   6.596   6.182
 4913POPC   D2A62680  43.165   6.868   6.538
 4913POPC   C3A62681  43.315   6.763   6.923
 4913POPC   C4A62682  43.179   6.423   7.197
 4913POPC   C1B62683  42.700   6.545   6.089
 4913POPC   C2B62684  42.828   6.469   6.504
 4913POPC   C3B62685  42.778   6.678   6.892
 4913POPC   C4B62686  42.697   6.504   7.279
 4914POPC   NC362687  33.448  21.663   5.409
 4914POPC   PO462688  33.002  21.131   5.475
 4914POPC   GL162689  32.778  21.398   5.704
 4914POPC   GL262690  33.108  21.531   5.785
 4914POPC   C1A62691  32.619  21.461   6.119
 4914POPC   D2A62692  32.856  21.491   6.531
 4914POPC   C3A62693  32.662  21.510   6.951
 4914POPC   C4A62694  32.829  21.406   7.356
 4914POPC   C1B62695  33.108  21.261   6.122
 4914POPC   C2B62696  33.144  21.096   6.524
 4914POPC   C3B62697  32.894  21.057   6.905
 4914POPC   C4B62698  33.074  20.950   7.293
 4915POPC   NC362699  12.175  31.277   5.486
 4915POPC   PO462700  11.716  31.763   5.328
 4915POPC   GL162701  11.916  31.657   5.757
 4915POPC   GL262702  11.744  31.348   5.856
 4915POPC   C1A62703  12.165  31.477   6.154
 4915POPC   D2A62704  12.319  31.287   6.552
 4915POPC   C3A62705  12.231  31.470   6.901
 4915POPC   C4A62706  12.140  31.276   7.253
 4915POPC   C1B62707  11.674  31.597   6.223
 4915POPC   C2B62708  11.772  31.438   6.645
 4915POPC   C3B62709  11.734  31.537   7.067
 4915POPC   C4B62710  12.063  31.772   7.273
 4916POPC   NC362711  43.239  19.513   5.421
 4916POPC   PO462712  42.733  19.026   5.433
 4916POPC   GL162713  42.967  18.916   5.806
 4916POPC   GL262714  43.249  19.159   5.819
 4916POPC   C1A62715  43.084  18.794   6.220
 4916POPC   D2A62716  43.285  18.748   6.609
 4916POPC   C3A62717  43.047  18.875   6.941
 4916POPC   C4A62718  43.093  19.029   7.356
 4916POPC   C1B62719  43.018  19.319   6.171
 4916POPC   C2B62720  43.033  19.539   6.560
 4916POPC   C3B62721  43.069  19.392   6.979
 4916POPC   C4B62722  43.287  19.504   7.329
 4917POPC   NC362723  42.218  15.041   5.458
 4917POPC   PO462724  41.869  15.682   5.391
 4917POPC   GL162725  42.155  15.523   5.766
 4917POPC   GL262726  42.481  15.312   5.771
 4917POPC   C1A62727  42.338  15.458   6.212
 4917POPC   D2A62728  42.522  15.560   6.619
 4917POPC   C3A62729  42.313  15.398   6.929
 4917POPC   C4A62730  42.539  15.361   7.254
 4917POPC   C1B62731  42.602  15.022   6.137
 4917POPC   C2B62732  42.721  14.938   6.586
 4917POPC   C3B62733  42.517  14.907   7.018
 4917POPC   C4B62734  42.224  14.656   7.273
 4918POPC   NC362735  25.559  22.903   5.412
 4918POPC   PO462736  25.369  23.547   5.202
 4918POPC   GL162737  25.312  23.270   5.662
 4918POPC   GL262738  25.181  22.910   5.771
 4918POPC   C1A62739  25.303  23.226   6.143
 4918POPC   D2A62740  25.165  22.965   6.508
 4918POPC   C3A62741  25.387  23.016   6.872
 4918POPC   C4A62742  25.111  23.132   7.185
 4918POPC   C1B62743  25.320  22.654   6.154
 4918POPC   C2B62744  25.425  22.530   6.597
 4918POPC   C3B62745  25.139  22.593   6.955
 4918POPC   C4B62746  25.325  22.643   7.354
 4919POPC   NC362747  17.335  43.303   5.403
 4919POPC   PO462748  17.642  42.716   5.423
 4919POPC   GL162749  17.679  43.067   5.717
 4919POPC   GL262750  17.338  42.953   5.830
 4919POPC   C1A62751  17.551  43.258   6.159
 4919POPC   D2A62752  17.315  43.031   6.480
 4919POPC   C3A62753  17.460  43.140   6.869
 4919POPC   C4A62754  17.533  43.111   7.302
 4919POPC   C1B62755  17.708  42.785   6.132
 4919POPC   C2B62756  17.811  42.893   6.566
 4919POPC   C3B62757  17.801  42.775   7.016
 4919POPC   C4B62758  17.717  42.645   7.461
 4920POPC   NC362759  14.277  13.896   5.393
 4920POPC   PO462760  14.093  13.179   5.466
 4920POPC   GL162761  14.230  13.320   5.872
 4920POPC   GL262762  14.382  13.628   5.824
 4920POPC   C1A62763  14.273  13.473   6.327
 4920POPC   D2A62764  14.161  13.752   6.686
 4920POPC   C3A62765  14.206  13.617   7.113
 4920POPC   C4A62766  14.311  13.846   7.465
 4920POPC   C1B62767  14.692  13.685   6.117
 4920POPC   C2B62768  14.670  13.739   6.539
 4920POPC   C3B62769  14.793  13.545   6.896
 4920POPC   C4B62770  14.721  13.585   7.314
 4921POPC   NC362771   6.313   5.781   5.462
 4921POPC   PO462772   6.814   5.539   5.136
 4921POPC   GL162773   6.821   5.823   5.595
 4921POPC   GL262774   6.606   6.132   5.692
 4921POPC   C1A62775   6.828   5.777   6.092
 4921POPC   D2A62776   6.608   5.805   6.481
 4921POPC   C3A62777   6.524   5.764   6.897
 4921POPC   C4A62778   6.654   5.846   7.258
 4921POPC   C1B62779   6.488   6.170   6.147
 4921POPC   C2B62780   6.551   6.369   6.534
 4921POPC   C3B62781   6.510   6.289   6.941
 4921POPC   C4B62782   6.392   6.254   7.319
 4922POPC   NC362783   8.552  43.576   5.443
 4922POPC   PO462784   8.115  43.009   5.404
 4922POPC   GL162785   8.401  42.995   5.751
 4922POPC   GL262786   8.290  43.324   5.803
 4922POPC   C1A62787   8.411  43.002   6.222
 4922POPC   D2A62788   8.565  43.230   6.626
 4922POPC   C3A62789   8.443  42.964   6.995
 4922POPC   C4A62790   7.997  42.896   7.116
 4922POPC   C1B62791   8.242  43.477   6.198
 4922POPC   C2B62792   8.215  43.678   6.604
 4922POPC   C3B62793   8.154  43.425   6.980
 4922POPC   C4B62794   8.393  43.334   7.342
 4923POPC   NC362795   8.872  30.731   5.166
 4923POPC   PO462796   9.354  30.426   5.250
 4923POPC   GL162797   9.077  30.569   5.633
 4923POPC   GL262798   8.749  30.363   5.645
 4923POPC   C1A62799   9.177  30.653   6.088
 4923POPC   D2A62800   9.278  30.938   6.445
 4923POPC   C3A62801   9.222  30.784   6.872
 4923POPC   C4A62802   9.204  30.906   7.301
 4923POPC   C1B62803   8.718  30.442   6.093
 4923POPC   C2B62804   8.878  30.581   6.510
 4923POPC   C3B62805   8.843  30.431   6.951
 4923POPC   C4B62806   8.773  30.611   7.338
 4924POPC   NC362807   0.331  23.561   5.581
 4924POPC   PO462808   0.908  23.864   5.526
 4924POPC   GL162809   0.550  23.911   5.894
 4924POPC   GL262810   0.164  23.792   6.011
 4924POPC   C1A62811   0.514  23.831   6.360
 4924POPC   D2A62812   0.591  23.528   6.675
 4924POPC   C3A62813   0.584  23.568   7.119
 4924POPC   C4A62814   0.482  23.579   7.545
 4924POPC   C1B62815   0.160  23.456   6.356
 4924POPC   C2B62816   0.162  23.317   6.839
 4924POPC   C3B62817   0.066  23.472   7.269
 4924POPC   C4B62818   0.099  23.257   7.686
 4925POPC   NC362819   6.356   2.190   5.325
 4925POPC   PO462820   6.920   1.863   5.454
 4925POPC   GL162821   6.742   1.832   5.837
 4925POPC   GL262822   6.463   2.009   5.808
 4925POPC   C1A62823   6.770   1.986   6.267
 4925POPC   D2A62824   6.747   1.740   6.661
 4925POPC   C3A62825   6.975   1.875   7.017
 4925POPC   C4A62826   6.741   2.174   7.223
 4925POPC   C1B62827   6.270   2.240   6.167
 4925POPC   C2B62828   6.205   2.367   6.627
 4925POPC   C3B62829   6.249   2.215   7.069
 4925POPC   C4B62830   6.283   2.234   7.535
 4926POPC   NC362831  39.477  31.643   5.583
 4926POPC   PO462832  40.184  31.398   5.560
 4926POPC   GL162833  39.988  31.633   5.853
 4926POPC   GL262834  40.213  31.903   5.873
 4926POPC   C1A62835  39.957  31.489   6.267
 4926POPC   D2A62836  39.692  31.205   6.495
 4926POPC   C3A62837  39.812  31.250   6.919
 4926POPC   C4A62838  39.936  31.204   7.331
 4926POPC   C1B62839  40.024  32.001   6.233
 4926POPC   C2B62840  40.208  31.841   6.562
 4926POPC   C3B62841  40.318  31.832   6.962
 4926POPC   C4B62842  40.132  31.661   7.286
 4927POPC   NC362843  18.604  20.621   5.453
 4927POPC   PO462844  17.893  20.587   5.461
 4927POPC   GL162845  18.076  20.748   5.858
 4927POPC   GL262846  18.351  20.508   5.878
 4927POPC   C1A62847  18.295  20.871   6.249
 4927POPC   D2A62848  18.256  20.708   6.677
 4927POPC   C3A62849  18.554  20.668   7.012
 4927POPC   C4A62850  18.525  20.382   7.353
 4927POPC   C1B62851  18.119  20.386   6.248
 4927POPC   C2B62852  18.235  20.200   6.638
 4927POPC   C3B62853  18.147  20.336   7.019
 4927POPC   C4B62854  17.792  20.458   7.204
 4928POPC   NC362855   6.306  26.789   5.377
 4928POPC   PO462856   6.879  27.225   5.371
 4928POPC   GL162857   6.837  26.915   5.711
 4928POPC   GL262858   6.501  26.992   5.800
 4928POPC   C1A62859   6.789  26.620   6.086
 4928POPC   D2A62860   6.644  26.575   6.524
 4928POPC   C3A62861   6.953  26.578   6.880
 4928POPC   C4A62862   6.801  26.621   7.309
 4928POPC   C1B62863   6.689  27.122   6.170
 4928POPC   C2B62864   6.565  27.119   6.549
 4928POPC   C3B62865   6.600  26.927   6.918
 4928POPC   C4B62866   6.435  26.978   7.288
 4929POPC   NC362867  18.473  22.465   5.539
 4929POPC   PO462868  19.000  22.149   5.294
 4929POPC   GL162869  19.070  22.032   5.735
 4929POPC   GL262870  18.901  21.729   5.814
 4929POPC   C1A62871  18.967  22.120   6.180
 4929POPC   D2A62872  18.742  22.185   6.575
 4929POPC   C3A62873  18.996  22.284   6.928
 4929POPC   C4A62874  18.801  22.393   7.303
 4929POPC   C1B62875  19.168  21.637   6.165
 4929POPC   C2B62876  19.062  21.753   6.578
 4929POPC   C3B62877  19.163  21.647   6.990
 4929POPC   C4B62878  19.059  21.894   7.333
 4930POPC   NC362879  21.634  26.468   5.277
 4930POPC   PO462880  21.231  27.026   5.362
 4930POPC   GL162881  21.208  26.800   5.751
 4930POPC   GL262882  20.953  26.550   5.703
 4930POPC   C1A62883  21.348  26.923   6.193
 4930POPC   D2A62884  21.260  27.139   6.608
 4930POPC   C3A62885  21.477  27.028   6.966
 4930POPC   C4A62886  21.556  26.678   7.219
 4930POPC   C1B62887  21.014  26.493   6.149
 4930POPC   C2B62888  21.147  26.625   6.574
 4930POPC   C3B62889  21.066  26.709   7.010
 4930POPC   C4B62890  21.128  26.459   7.378
 4931POPC   NC362891  15.271   9.754   5.340
 4931POPC   PO462892  16.016   9.690   5.449
 4931POPC   GL162893  15.892   9.849   5.857
 4931POPC   GL262894  15.907   9.523   5.979
 4931POPC   C1A62895  15.849   9.896   6.325
 4931POPC   D2A62896  16.131   9.721   6.679
 4931POPC   C3A62897  16.016   9.920   7.052
 4931POPC   C4A62898  15.773   9.897   7.419
 4931POPC   C1B62899  16.223   9.403   6.272
 4931POPC   C2B62900  16.267   9.196   6.655
 4931POPC   C3B62901  16.385   9.344   7.043
 4931POPC   C4B62902  16.023   9.458   7.316
 4932POPC   NC362903  30.354   6.342   5.565
 4932POPC   PO462904  29.783   6.786   5.426
 4932POPC   GL162905  29.905   6.580   5.783
 4932POPC   GL262906  30.168   6.801   5.854
 4932POPC   C1A62907  29.880   6.608   6.237
 4932POPC   D2A62908  30.093   6.805   6.611
 4932POPC   C3A62909  29.802   6.829   6.947
 4932POPC   C4A62910  29.660   6.474   7.185
 4932POPC   C1B62911  29.999   7.107   6.196
 4932POPC   C2B62912  30.152   7.326   6.623
 4932POPC   C3B62913  30.258   7.131   7.042
 4932POPC   C4B62914  30.153   6.759   7.300
 4933POPC   NC362915  32.843  42.254   5.470
 4933POPC   PO462916  33.555  42.254   5.363
 4933POPC   GL162917  33.279  42.222   5.736
 4933POPC   GL262918  33.089  42.502   5.855
 4933POPC   C1A62919  33.201  42.109   6.174
 4933POPC   D2A62920  33.002  42.323   6.531
 4933POPC   C3A62921  32.988  42.113   6.948
 4933POPC   C4A62922  33.232  42.097   7.332
 4933POPC   C1B62923  32.919  42.741   6.213
 4933POPC   C2B62924  32.675  42.741   6.588
 4933POPC   C3B62925  32.804  42.611   6.973
 4933POPC   C4B62926  32.620  42.767   7.316
 4934POPC   NC362927  34.673   5.629   5.278
 4934POPC   PO462928  34.483   6.098   5.518
 4934POPC   GL162929  34.434   5.803   5.826
 4934POPC   GL262930  34.773   5.646   5.801
 4934POPC   C1A62931  34.484   5.814   6.287
 4934POPC   D2A62932  34.318   5.778   6.692
 4934POPC   C3A62933  34.561   5.735   7.048
 4934POPC   C4A62934  34.778   5.986   7.304
 4934POPC   C1B62935  34.927   5.561   6.224
 4934POPC   C2B62936  34.904   5.720   6.653
 4934POPC   C3B62937  35.073   5.660   7.078
 4934POPC   C4B62938  34.985   5.587   7.570
 4935POPC   NC362939   2.852  32.038   5.437
 4935POPC   PO462940   2.599  32.671   5.490
 4935POPC   GL162941   2.882  32.468   5.834
 4935POPC   GL262942   2.935  32.089   5.929
 4935POPC   C1A62943   2.976  32.452   6.284
 4935POPC   D2A62944   2.734  32.357   6.636
 4935POPC   C3A62945   2.860  32.604   6.971
 4935POPC   C4A62946   2.987  32.288   7.230
 4935POPC   C1B62947   2.996  31.933   6.350
 4935POPC   C2B62948   2.985  31.924   6.798
 4935POPC   C3B62949   2.774  31.836   7.159
 4935POPC   C4B62950   2.990  31.921   7.605
 4936POPC   NC362951   1.188  20.376   5.664
 4936POPC   PO462952   1.411  21.004   5.663
 4936POPC   GL162953   1.324  20.756   5.980
 4936POPC   GL262954   1.005  20.752   5.969
 4936POPC   C1A62955   1.444  20.501   6.317
 4936POPC   D2A62956   1.308  20.639   6.705
 4936POPC   C3A62957   1.465  20.650   7.097
 4936POPC   C4A62958   1.562  21.078   7.255
 4936POPC   C1B62959   0.916  20.486   6.297
 4936POPC   C2B62960   1.040  20.236   6.613
 4936POPC   C3B62961   0.938  20.391   6.974
 4936POPC   C4B62962   0.839  20.549   7.334
 4937POPC   NC362963   2.402   9.604   5.500
 4937POPC   PO462964   3.073   9.420   5.413
 4937POPC   GL162965   2.882   9.615   5.743
 4937POPC   GL262966   3.008   9.363   5.949
 4937POPC   C1A62967   2.748   9.805   6.140
 4937POPC   D2A62968   2.691  10.021   6.561
 4937POPC   C3A62969   2.742   9.805   6.972
 4937POPC   C4A62970   2.814  10.082   7.296
 4937POPC   C1B62971   3.074   9.467   6.353
 4937POPC   C2B62972   3.079   9.433   6.777
 4937POPC   C3B62973   3.336   9.521   7.126
 4937POPC   C4B62974   2.994   9.601   7.407
 4938POPC   NC362975  23.510  30.460   5.453
 4938POPC   PO462976  24.034  30.913   5.466
 4938POPC   GL162977  23.793  30.713   5.812
 4938POPC   GL262978  24.050  30.798   5.969
 4938POPC   C1A62979  23.687  30.644   6.289
 4938POPC   D2A62980  23.530  30.416   6.671
 4938POPC   C3A62981  23.715  30.653   7.008
 4938POPC   C4A62982  23.618  30.992   7.267
 4938POPC   C1B62983  24.174  30.474   6.251
 4938POPC   C2B62984  24.047  30.461   6.650
 4938POPC   C3B62985  24.207  30.498   7.034
 4938POPC   C4B62986  24.072  30.760   7.383
 4939POPC   NC362987   6.475  38.935   5.702
 4939POPC   PO462988   6.793  39.547   5.430
 4939POPC   GL162989   6.627  39.603   5.854
 4939POPC   GL262990   6.788  39.285   5.928
 4939POPC   C1A62991   6.557  39.579   6.339
 4939POPC   D2A62992   6.450  39.275   6.689
 4939POPC   C3A62993   6.651  39.313   7.086
 4939POPC   C4A62994   6.590  39.581   7.480
 4939POPC   C1B62995   6.875  39.161   6.351
 4939POPC   C2B62996   6.825  38.933   6.737
 4939POPC   C3B62997   6.973  38.809   7.085
 4939POPC   C4B62998   6.963  39.020   7.417
 4940POPC   NC362999  12.845  16.994   5.372
 4940POPC   PO463000  12.655  16.451   5.162
 4940POPC   GL163001  12.894  16.578   5.645
 4940POPC   GL263002  12.626  16.822   5.801
 4940POPC   C1A63003  12.864  16.491   6.140
 4940POPC   D2A63004  12.726  16.801   6.476
 4940POPC   C3A63005  12.763  16.626   6.895
 4940POPC   C4A63006  12.571  16.539   7.310
 4940POPC   C1B63007  12.994  16.957   6.039
 4940POPC   C2B63008  13.123  17.120   6.469
 4940POPC   C3B63009  13.189  16.925   6.878
 4940POPC   C4B63010  12.999  16.849   7.305
 4941POPC   NC363011  27.117  14.925   5.578
 4941POPC   PO463012  27.856  15.087   5.490
 4941POPC   GL163013  27.783  15.269   5.837
 4941POPC   GL263014  27.434  15.396   5.792
 4941POPC   C1A63015  27.707  15.110   6.229
 4941POPC   D2A63016  27.465  15.054   6.576
 4941POPC   C3A63017  27.665  15.142   6.932
 4941POPC   C4A63018  27.513  15.079   7.321
 4941POPC   C1B63019  27.227  15.335   6.176
 4941POPC   C2B63020  27.063  15.412   6.579
 4941POPC   C3B63021  27.128  15.218   6.947
 4941POPC   C4B63022  27.137  15.423   7.309
 4942POPC   NC363023  31.178  43.969   5.118
 4942POPC   PO463024  31.731  43.976   5.554
 4942POPC   GL163025  31.385  43.960   5.851
 4942POPC   GL263026  31.058  44.056   5.705
 4942POPC   C1A63027  31.457  43.894   6.305
 4942POPC   D2A63028  31.441  43.640   6.644
 4942POPC   C3A63029  31.584  43.787   7.010
 4942POPC   C4A63030  31.523  43.470   7.328
 4942POPC   C1B63031  31.024  44.146   6.193
 4942POPC   C2B63032  31.074  44.015   6.686
 4942POPC   C3B63033  31.085  43.909   7.168
 4942POPC   C4B63034  30.923  44.071   7.589
 4943POPC   NC363035  22.642   5.483   5.467
 4943POPC   PO463036  22.718   6.182   5.334
 4943POPC   GL163037  22.775   5.910   5.752
 4943POPC   GL263038  23.046   5.647   5.763
 4943POPC   C1A63039  22.987   5.939   6.174
 4943POPC   D2A63040  22.885   5.931   6.620
 4943POPC   C3A63041  23.116   6.082   6.976
 4943POPC   C4A63042  23.039   6.057   7.412
 4943POPC   C1B63043  22.992   5.437   6.170
 4943POPC   C2B63044  22.925   5.395   6.618
 4943POPC   C3B63045  22.930   5.600   7.039
 4943POPC   C4B63046  22.731   5.647   7.444
 4944POPC   NC363047  19.401  19.954   5.601
 4944POPC   PO463048  20.024  19.691   5.658
 4944POPC   GL163049  19.824  20.032   5.920
 4944POPC   GL263050  19.471  20.155   6.062
 4944POPC   C1A63051  19.919  20.098   6.344
 4944POPC   D2A63052  20.114  19.855   6.671
 4944POPC   C3A63053  19.908  19.944   7.045
 4944POPC   C4A63054  19.762  20.083   7.455
 4944POPC   C1B63055  19.498  19.773   6.331
 4944POPC   C2B63056  19.545  19.662   6.782
 4944POPC   C3B63057  19.701  19.486   7.183
 4944POPC   C4B63058  19.619  19.571   7.623
 4945POPC   NC363059  31.846  22.231   5.327
 4945POPC   PO463060  32.499  22.167   5.346
 4945POPC   GL163061  32.334  22.321   5.734
 4945POPC   GL263062  32.165  22.034   5.836
 4945POPC   C1A63063  32.205  22.494   6.182
 4945POPC   D2A63064  32.244  22.271   6.629
 4945POPC   C3A63065  31.958  22.219   6.994
 4945POPC   C4A63066  31.882  22.539   7.299
 4945POPC   C1B63067  32.471  22.060   6.196
 4945POPC   C2B63068  32.528  21.854   6.575
 4945POPC   C3B63069  32.680  22.023   6.959
 4945POPC   C4B63070  32.450  22.311   7.228
 4946POPC   NC363071  44.994  11.221   5.463
 4946POPC   PO463072  44.319  11.064   5.387
 4946POPC   GL163073  44.581  11.058   5.751
 4946POPC   GL263074  44.695  11.402   5.847
 4946POPC   C1A63075  44.777  10.957   6.151
 4946POPC   D2A63076  44.623  11.079   6.563
 4946POPC   C3A63077  44.851  11.248   6.922
 4946POPC   C4A63078  44.699  11.055   7.303
 4946POPC   C1B63079  44.803  11.472   6.280
 4946POPC   C2B63080  44.529  11.565   6.622
 4946POPC   C3B63081  44.409  11.458   7.054
 4946POPC   C4B63082  44.693  11.535   7.411
 4947POPC   NC363083  42.542  26.273   5.344
 4947POPC   PO463084  41.882  25.949   5.354
 4947POPC   GL163085  42.102  26.074   5.804
 4947POPC   GL263086  42.479  26.193   5.841
 4947POPC   C1A63087  42.228  26.219   6.267
 4947POPC   D2A63088  42.417  26.298   6.682
 4947POPC   C3A63089  42.154  26.061   6.936
 4947POPC   C4A63090  41.898  26.184   7.227
 4947POPC   C1B63091  42.596  25.868   6.160
 4947POPC   C2B63092  42.492  25.784   6.590
 4947POPC   C3B63093  42.633  25.901   6.992
 4947POPC   C4B63094  42.686  25.652   7.297
 4948POPC   NC363095   3.382   1.499   5.064
 4948POPC   PO463096   4.003   1.290   5.389
 4948POPC   GL163097   3.688   1.292   5.731
 4948POPC   GL263098   3.375   1.108   5.664
 4948POPC   C1A63099   3.505   1.256   6.157
 4948POPC   D2A63100   3.447   1.524   6.513
 4948POPC   C3A63101   3.573   1.324   6.888
 4948POPC   C4A63102   3.501   1.443   7.321
 4948POPC   C1B63103   3.145   0.904   6.044
 4948POPC   C2B63104   3.298   0.819   6.489
 4948POPC   C3B63105   3.234   0.897   6.939
 4948POPC   C4B63106   3.082   1.291   7.083
 4949POPC   NC363107  21.505  13.747   5.451
 4949POPC   PO463108  21.244  13.206   5.584
 4949POPC   GL163109  21.117  13.637   5.791
 4949POPC   GL263110  20.869  13.932   5.856
 4949POPC   C1A63111  21.311  13.899   6.135
 4949POPC   D2A63112  21.614  13.817   6.489
 4949POPC   C3A63113  21.605  13.929   6.917
 4949POPC   C4A63114  21.692  13.594   7.240
 4949POPC   C1B63115  20.837  13.693   6.238
 4949POPC   C2B63116  21.126  13.637   6.584
 4949POPC   C3B63117  21.227  13.598   7.012
 4949POPC   C4B63118  21.142  13.969   7.247
 4950POPC   NC363119  27.020   9.346   5.169
 4950POPC   PO463120  26.675   8.874   5.571
 4950POPC   GL163121  26.664   9.032   5.950
 4950POPC   GL263122  27.014   9.176   5.914
 4950POPC   C1A63123  26.750   9.016   6.401
 4950POPC   D2A63124  27.157   9.046   6.641
 4950POPC   C3A63125  27.027   9.162   7.055
 4950POPC   C4A63126  26.568   9.047   7.066
 4950POPC   C1B63127  27.131   8.767   6.128
 4950POPC   C2B63128  27.025   8.543   6.514
 4950POPC   C3B63129  26.913   8.684   6.913
 4950POPC   C4B63130  26.979   8.702   7.329
 4951POPC   NC363131  34.160   7.192   5.392
 4951POPC   PO463132  33.475   7.234   5.546
 4951POPC   GL163133  33.614   7.371   5.936
 4951POPC   GL263134  33.935   7.295   5.837
 4951POPC   C1A63135  33.804   7.357   6.318
 4951POPC   D2A63136  33.933   7.558   6.619
 4951POPC   C3A63137  33.708   7.465   6.963
 4951POPC   C4A63138  33.929   7.576   7.301
 4951POPC   C1B63139  34.092   6.979   6.163
 4951POPC   C2B63140  34.272   7.171   6.529
 4951POPC   C3B63141  34.179   7.251   6.958
 4951POPC   C4B63142  34.141   7.120   7.389
 4952POPC   NC363143  20.044  26.304   5.400
 4952POPC   PO463144  19.554  25.812   5.456
 4952POPC   GL163145  19.924  25.984   5.779
 4952POPC   GL263146  19.865  26.334   5.871
 4952POPC   C1A63147  20.058  26.035   6.240
 4952POPC   D2A63148  19.918  26.156   6.658
 4952POPC   C3A63149  19.732  25.835   6.943
 4952POPC   C4A63150  19.977  25.752   7.326
 4952POPC   C1B63151  19.551  26.217   6.180
 4952POPC   C2B63152  19.381  26.180   6.615
 4952POPC   C3B63153  19.531  26.316   6.988
 4952POPC   C4B63154  19.926  26.243   7.179
 4953POPC   NC363155  15.231   8.599   5.227
 4953POPC   PO463156  15.285   9.287   5.417
 4953POPC   GL163157  15.138   9.081   5.810
 4953POPC   GL263158  15.272   8.744   5.776
 4953POPC   C1A63159  15.151   8.908   6.251
 4953POPC   D2A63160  15.335   9.063   6.601
 4953POPC   C3A63161  15.156   8.955   6.940
 4953POPC   C4A63162  15.062   9.024   7.339
 4953POPC   C1B63163  15.534   8.596   6.150
 4953POPC   C2B63164  15.498   8.558   6.606
 4953POPC   C3B63165  15.578   8.685   7.076
 4953POPC   C4B63166  15.619   8.593   7.531
 4954POPC   NC363167  12.643  18.574   5.619
 4954POPC   PO463168  12.906  18.022   5.450
 4954POPC   GL163169  12.797  18.155   5.846
 4954POPC   GL263170  12.476  18.028   5.783
 4954POPC   C1A63171  12.947  18.424   6.173
 4954POPC   D2A63172  13.249  18.350   6.466
 4954POPC   C3A63173  13.057  18.361   6.858
 4954POPC   C4A63174  13.158  18.046   7.133
 4954POPC   C1B63175  12.397  18.245   6.176
 4954POPC   C2B63176  12.612  18.369   6.552
 4954POPC   C3B63177  12.525  18.342   6.979
 4954POPC   C4B63178  12.737  18.229   7.353
 4955POPC   NC363179   2.189  39.591   5.524
 4955POPC   PO463180   1.894  38.964   5.307
 4955POPC   GL163181   1.976  39.162   5.738
 4955POPC   GL263182   2.330  39.219   5.843
 4955POPC   C1A63183   2.018  39.048   6.207
 4955POPC   D2A63184   2.215  38.909   6.590
 4955POPC   C3A63185   2.054  39.138   6.989
 4955POPC   C4A63186   1.631  39.273   7.140
 4955POPC   C1B63187   2.204  39.515   6.202
 4955POPC   C2B63188   2.327  39.406   6.648
 4955POPC   C3B63189   2.363  39.592   7.036
 4955POPC   C4B63190   1.989  39.683   7.289
 4956POPC   NC363191  37.697  37.696   5.495
 4956POPC   PO463192  37.205  37.508   5.918
 4956POPC   GL163193  37.630  37.591   5.984
 4956POPC   GL263194  37.894  37.904   5.904
 4956POPC   C1A63195  37.655  37.789   6.344
 4956POPC   D2A63196  37.612  37.856   6.701
 4956POPC   C3A63197  37.720  37.670   7.033
 4956POPC   C4A63198  37.531  37.931   7.288
 4956POPC   C1B63199  38.097  37.609   6.185
 4956POPC   C2B63200  38.100  37.714   6.605
 4956POPC   C3B63201  38.099  38.021   6.942
 4956POPC   C4B63202  38.016  37.980   7.351
 4957POPC   NC363203  10.973  17.752   5.160
 4957POPC   PO463204  11.423  17.290   5.479
 4957POPC   GL163205  11.474  17.496   5.852
 4957POPC   GL263206  11.161  17.615   5.967
 4957POPC   C1A63207  11.552  17.503   6.284
 4957POPC   D2A63208  11.313  17.587   6.632
 4957POPC   C3A63209  11.551  17.538   6.987
 4957POPC   C4A63210  11.462  17.225   7.248
 4957POPC   C1B63211  10.998  17.316   6.306
 4957POPC   C2B63212  10.905  17.144   6.730
 4957POPC   C3B63213  10.979  17.357   7.132
 4957POPC   C4B63214  11.071  17.256   7.592
 4958POPC   NC363215   5.087  19.942   5.258
 4958POPC   PO463216   4.651  19.393   5.533
 4958POPC   GL163217   4.896  19.806   5.775
 4958POPC   GL263218   4.938  20.152   5.740
 4958POPC   C1A63219   5.113  19.838   6.186
 4958POPC   D2A63220   5.109  20.077   6.571
 4958POPC   C3A63221   5.276  19.840   6.900
 4958POPC   C4A63222   5.156  19.487   7.206
 4958POPC   C1B63223   4.721  20.162   6.122
 4958POPC   C2B63224   4.597  20.009   6.518
 4958POPC   C3B63225   4.690  20.169   6.888
 4958POPC   C4B63226   4.916  19.973   7.220
 4959POPC   NC363227   8.929  20.135   5.426
 4959POPC   PO463228   9.094  19.502   5.359
 4959POPC   GL163229   8.837  19.642   5.704
 4959POPC   GL263230   8.975  19.928   5.898
 4959POPC   C1A63231   8.661  19.557   6.124
 4959POPC   D2A63232   8.758  19.744   6.531
 4959POPC   C3A63233   9.011  19.517   6.820
 4959POPC   C4A63234   8.953  19.460   7.240
 4959POPC   C1B63235   9.209  19.818   6.266
 4959POPC   C2B63236   9.233  19.973   6.699
 4959POPC   C3B63237   9.119  19.952   7.134
 4959POPC   C4B63238   9.322  20.158   7.455
 4960POPC   NC363239  15.629  44.840   5.361
 4960POPC   PO463240  15.027  44.607   5.319
 4960POPC   GL163241  15.267  44.681   5.701
 4960POPC   GL263242  14.977  44.663   5.915
 4960POPC   C1A63243  15.397  44.613   6.158
 4960POPC   D2A63244  15.047  44.590   6.453
 4960POPC   C3A63245  15.129  44.778   6.837
 4960POPC   C4A63246  15.038  44.914   7.230
 4960POPC   C1B63247  14.808  44.282   6.103
 4960POPC   C2B63248  14.797  44.142   6.527
 4960POPC   C3B63249  14.906  44.315   6.917
 4960POPC   C4B63250  15.175  44.434   7.238
 4961POPC   NC363251  13.805  30.713   5.036
 4961POPC   PO463252  13.320  30.943   5.408
 4961POPC   GL163253  13.368  30.705   5.795
 4961POPC   GL263254  13.700  30.776   5.787
 4961POPC   C1A63255  13.484  30.663   6.266
 4961POPC   D2A63256  13.651  30.535   6.681
 4961POPC   C3A63257  13.442  30.575   7.103
 4961POPC   C4A63258  13.563  30.619   7.539
 4961POPC   C1B63259  13.727  31.098   6.135
 4961POPC   C2B63260  13.868  31.126   6.582
 4961POPC   C3B63261  13.802  30.943   6.979
 4961POPC   C4B63262  13.980  30.985   7.375
 4962POPC   NC363263  13.725  31.216   5.464
 4962POPC   PO463264  13.221  31.635   5.439
 4962POPC   GL163265  13.505  31.572   5.760
 4962POPC   GL263266  13.349  31.251   5.809
 4962POPC   C1A63267  13.797  31.623   6.084
 4962POPC   D2A63268  13.623  31.568   6.452
 4962POPC   C3A63269  13.768  31.683   6.813
 4962POPC   C4A63270  13.845  31.428   7.148
 4962POPC   C1B63271  13.224  31.377   6.172
 4962POPC   C2B63272  13.339  31.154   6.515
 4962POPC   C3B63273  13.429  31.301   6.904
 4962POPC   C4B63274  13.463  31.115   7.320
 4963POPC   NC363275  10.699  43.201   5.339
 4963POPC   PO463276  10.756  42.595   5.433
 4963POPC   GL163277  10.547  42.829   5.784
 4963POPC   GL263278  10.571  43.203   5.814
 4963POPC   C1A63279  10.580  42.962   6.244
 4963POPC   D2A63280  10.362  43.132   6.609
 4963POPC   C3A63281  10.469  43.031   7.045
 4963POPC   C4A63282  10.231  43.323   7.299
 4963POPC   C1B63283  10.424  43.478   6.134
 4963POPC   C2B63284  10.625  43.591   6.510
 4963POPC   C3B63285  10.520  43.532   6.934
 4963POPC   C4B63286  10.762  43.425   7.294
 4964POPC   NC363287  38.835  34.207   5.541
 4964POPC   PO463288  39.591  34.314   5.519
 4964POPC   GL163289  39.237  34.459   5.754
 4964POPC   GL263290  39.164  34.846   5.710
 4964POPC   C1A63291  39.152  34.310   6.166
 4964POPC   D2A63292  39.404  34.402   6.525
 4964POPC   C3A63293  39.147  34.454   6.863
 4964POPC   C4A63294  39.074  34.297   7.245
 4964POPC   C1B63295  39.220  34.817   6.137
 4964POPC   C2B63296  39.067  34.860   6.535
 4964POPC   C3B63297  39.348  34.926   6.854
 4964POPC   C4B63298  39.353  34.742   7.229
 4965POPC   NC363299  32.516  26.480   5.146
 4965POPC   PO463300  31.824  26.334   5.286
 4965POPC   GL163301  32.084  26.097   5.680
 4965POPC   GL263302  32.059  25.742   5.887
 4965POPC   C1A63303  32.064  26.167   6.155
 4965POPC   D2A63304  32.188  25.948   6.536
 4965POPC   C3A63305  32.215  26.226   6.890
 4965POPC   C4A63306  32.080  26.188   7.297
 4965POPC   C1B63307  32.444  25.786   6.110
 4965POPC   C2B63308  32.622  25.584   6.454
 4965POPC   C3B63309  32.616  25.690   6.880
 4965POPC   C4B63310  32.477  25.882   7.236
 4966POPC   NC363311  19.802  38.953   5.392
 4966POPC   PO463312  19.771  39.587   5.372
 4966POPC   GL163313  19.807  39.323   5.771
 4966POPC   GL263314  20.148  39.168   5.842
 4966POPC   C1A63315  19.727  39.200   6.221
 4966POPC   D2A63316  19.888  39.080   6.634
 4966POPC   C3A63317  19.795  39.338   6.979
 4966POPC   C4A63318  19.494  39.215   7.288
 4966POPC   C1B63319  20.257  38.940   6.239
 4966POPC   C2B63320  20.287  38.763   6.680
 4966POPC   C3B63321  20.198  38.994   7.074
 4966POPC   C4B63322  20.171  39.006   7.526
 4967POPC   NC363323  40.332  21.152   5.609
 4967POPC   PO463324  39.646  21.217   5.582
 4967POPC   GL163325  39.886  21.434   5.929
 4967POPC   GL263326  40.223  21.611   6.003
 4967POPC   C1A63327  40.024  21.325   6.351
 4967POPC   D2A63328  40.171  21.373   6.753
 4967POPC   C3A63329  39.917  21.329   7.082
 4967POPC   C4A63330  39.801  21.507   7.488
 4967POPC   C1B63331  40.463  21.633   6.398
 4967POPC   C2B63332  40.427  21.801   6.818
 4967POPC   C3B63333  40.174  21.763   7.192
 4967POPC   C4B63334  40.285  21.761   7.609
 4968POPC   NC363335  31.297  44.629   5.180
 4968POPC   PO463336  31.771  44.920   5.507
 4968POPC   GL163337  31.531  44.799   5.836
 4968POPC   GL263338  31.334  44.487   5.738
 4968POPC   C1A63339  31.612  44.865   6.269
 4968POPC   D2A63340  31.308  44.902   6.601
 4968POPC   C3A63341  31.515  44.790   6.964
 4968POPC   C4A63342  31.671  44.678   7.351
 4968POPC   C1B63343  31.535  44.367   6.136
 4968POPC   C2B63344  31.472  44.395   6.579
 4968POPC   C3B63345  31.419  44.283   7.020
 4968POPC   C4B63346  31.256  44.388   7.416
 4969POPC   NC363347  44.266  40.875   5.357
 4969POPC   PO463348  43.607  40.884   5.391
 4969POPC   GL163349  43.906  40.920   5.744
 4969POPC   GL263350  44.144  40.692   5.832
 4969POPC   C1A63351  44.001  40.987   6.202
 4969POPC   D2A63352  43.801  40.877   6.616
 4969POPC   C3A63353  44.006  41.093   6.958
 4969POPC   C4A63354  43.910  41.146   7.410
 4969POPC   C1B63355  43.993  40.454   6.174
 4969POPC   C2B63356  43.933  40.331   6.601
 4969POPC   C3B63357  43.658  40.434   6.905
 4969POPC   C4B63358  43.679  40.735   7.191
 4970POPC   NC363359   6.418  31.794   5.510
 4970POPC   PO463360   6.378  31.106   5.443
 4970POPC   GL163361   6.509  31.345   5.795
 4970POPC   GL263362   6.824  31.532   5.728
 4970POPC   C1A63363   6.706  31.254   6.205
 4970POPC   D2A63364   6.733  31.393   6.631
 4970POPC   C3A63365   6.917  31.190   6.986
 4970POPC   C4A63366   6.580  31.001   7.217
 4970POPC   C1B63367   6.742  31.757   6.129
 4970POPC   C2B63368   6.912  31.853   6.535
 4970POPC   C3B63369   6.736  31.829   6.934
 4970POPC   C4B63370   6.773  31.584   7.292
 4971POPC   NC363371  13.221  15.362   5.512
 4971POPC   PO463372  13.867  15.021   5.545
 4971POPC   GL163373  13.616  15.232   5.871
 4971POPC   GL263374  13.462  15.573   5.884
 4971POPC   C1A63375  13.764  15.392   6.269
 4971POPC   D2A63376  13.835  15.160   6.631
 4971POPC   C3A63377  13.750  15.213   7.031
 4971POPC   C4A63378  13.773  14.870   7.338
 4971POPC   C1B63379  13.262  15.542   6.272
 4971POPC   C2B63380  13.408  15.448   6.641
 4971POPC   C3B63381  13.254  15.504   6.985
 4971POPC   C4B63382  13.418  15.470   7.368
 4972POPC   NC363383   8.076  21.954   5.402
 4972POPC   PO463384   8.502  22.488   5.308
 4972POPC   GL163385   8.330  22.320   5.718
 4972POPC   GL263386   8.385  21.952   5.795
 4972POPC   C1A63387   8.140  22.283   6.131
 4972POPC   D2A63388   8.112  22.101   6.529
 4972POPC   C3A63389   8.052  22.323   6.877
 4972POPC   C4A63390   8.138  22.206   7.267
 4972POPC   C1B63391   8.522  21.890   6.194
 4972POPC   C2B63392   8.457  21.736   6.580
 4972POPC   C3B63393   8.453  21.952   6.931
 4972POPC   C4B63394   8.619  21.924   7.309
 4973POPC   NC363395  12.089  20.110   5.370
 4973POPC   PO463396  11.732  20.690   5.371
 4973POPC   GL163397  11.944  20.691   5.818
 4973POPC   GL263398  12.199  20.381   5.835
 4973POPC   C1A63399  12.174  20.722   6.246
 4973POPC   D2A63400  12.429  20.888   6.637
 4973POPC   C3A63401  12.202  20.833   7.020
 4973POPC   C4A63402  11.778  20.788   6.866
 4973POPC   C1B63403  12.387  20.268   6.262
 4973POPC   C2B63404  12.195  20.413   6.665
 4973POPC   C3B63405  11.970  20.344   7.034
 4973POPC   C4B63406  12.003  20.402   7.478
 4974POPC   NC363407   8.238  27.818   5.353
 4974POPC   PO463408   8.448  27.306   5.049
 4974POPC   GL163409   8.379  27.413   5.582
 4974POPC   GL263410   8.056  27.400   5.803
 4974POPC   C1A63411   8.457  27.569   6.040
 4974POPC   D2A63412   8.348  27.402   6.473
 4974POPC   C3A63413   8.247  27.653   6.836
 4974POPC   C4A63414   8.475  27.541   7.191
 4974POPC   C1B63415   7.992  27.664   6.221
 4974POPC   C2B63416   7.792  27.576   6.600
 4974POPC   C3B63417   7.763  27.680   7.025
 4974POPC   C4B63418   7.972  27.368   7.241
 4975POPC   NC363419   5.814  15.015   5.152
 4975POPC   PO463420   6.407  15.313   5.119
 4975POPC   GL163421   5.909  15.333   5.506
 4975POPC   GL263422   5.777  14.980   5.671
 4975POPC   C1A63423   5.796  15.373   5.969
 4975POPC   D2A63424   5.983  15.382   6.378
 4975POPC   C3A63425   5.791  15.450   6.788
 4975POPC   C4A63426   5.774  15.260   7.189
 4975POPC   C1B63427   5.896  14.903   6.130
 4975POPC   C2B63428   5.712  14.958   6.562
 4975POPC   C3B63429   5.829  14.822   6.957
 4975POPC   C4B63430   6.180  14.796   7.229
 4976POPC   NC363431  43.744   2.211   5.290
 4976POPC   PO463432  44.151   1.822   5.518
 4976POPC   GL163433  43.971   2.168   5.761
 4976POPC   GL263434  43.601   2.116   5.776
 4976POPC   C1A63435  43.905   2.131   6.198
 4976POPC   D2A63436  44.028   2.042   6.595
 4976POPC   C3A63437  43.845   2.220   6.963
 4976POPC   C4A63438  43.888   2.072   7.391
 4976POPC   C1B63439  43.464   1.876   6.157
 4976POPC   C2B63440  43.479   2.035   6.600
 4976POPC   C3B63441  43.429   1.910   7.043
 4976POPC   C4B63442  43.440   1.863   7.506
 4977POPC   NC363443  30.059  42.536   5.502
 4977POPC   PO463444  29.857  41.888   5.456
 4977POPC   GL163445  29.770  42.176   5.789
 4977POPC   GL263446  30.102  42.258   5.922
 4977POPC   C1A63447  29.747  42.077   6.240
 4977POPC   D2A63448  29.948  42.035   6.633
 4977POPC   C3A63449  29.740  42.126   7.001
 4977POPC   C4A63450  29.830  42.467   7.241
 4977POPC   C1B63451  30.275  42.303   6.309
 4977POPC   C2B63452  30.451  42.094   6.641
 4977POPC   C3B63453  30.260  42.126   7.063
 4977POPC   C4B63454  30.175  42.218   7.512
 4978POPC   NC363455  29.952   8.608   5.441
 4978POPC   PO463456  29.328   8.325   5.462
 4978POPC   GL163457  29.691   8.117   5.717
 4978POPC   GL263458  29.500   7.875   5.909
 4978POPC   C1A63459  30.025   8.267   6.066
 4978POPC   D2A63460  29.965   8.613   6.411
 4978POPC   C3A63461  30.068   8.514   6.876
 4978POPC   C4A63462  30.146   8.155   7.182
 4978POPC   C1B63463  29.537   8.224   6.204
 4978POPC   C2B63464  29.811   8.158   6.562
 4978POPC   C3B63465  29.688   8.140   6.971
 4978POPC   C4B63466  29.701   7.852   7.300
 4979POPC   NC363467  31.375  23.103   5.463
 4979POPC   PO463468  31.371  22.433   5.660
 4979POPC   GL163469  31.320  22.786   5.866
 4979POPC   GL263470  31.647  22.920   5.864
 4979POPC   C1A63471  31.381  22.911   6.284
 4979POPC   D2A63472  31.600  22.635   6.585
 4979POPC   C3A63473  31.475  22.724   6.958
 4979POPC   C4A63474  31.110  22.961   7.143
 4979POPC   C1B63475  31.890  22.923   6.255
 4979POPC   C2B63476  31.670  23.163   6.603
 4979POPC   C3B63477  31.535  23.214   7.011
 4979POPC   C4B63478  31.553  22.942   7.404
 4980POPC   NC363479   8.617  19.405   5.291
 4980POPC   PO463480   8.018  19.099   5.499
 4980POPC   GL163481   8.166  19.061   5.861
 4980POPC   GL263482   8.013  18.732   5.878
 4980POPC   C1A63483   8.245  19.207   6.257
 4980POPC   D2A63484   8.099  18.978   6.602
 4980POPC   C3A63485   8.067  19.177   6.971
 4980POPC   C4A63486   8.294  19.099   7.307
 4980POPC   C1B63487   8.350  18.695   6.173
 4980POPC   C2B63488   8.536  18.691   6.580
 4980POPC   C3B63489   8.331  18.665   6.981
 4980POPC   C4B63490   7.928  18.737   7.186
 4981POPC   NC363491  35.448   0.406   5.614
 4981POPC   PO463492  34.855   0.743   5.568
 4981POPC   GL163493  35.092   0.684   5.923
 4981POPC   GL263494  35.445   0.837   5.865
 4981POPC   C1A63495  35.083   0.305   6.212
 4981POPC   D2A63496  35.366   0.120   6.548
 4981POPC   C3A63497  35.225   0.230   6.974
 4981POPC   C4A63498  35.253   0.113   7.434
 4981POPC   C1B63499  35.496   0.643   6.256
 4981POPC   C2B63500  35.227   0.616   6.596
 4981POPC   C3B63501  35.238   0.768   6.959
 4981POPC   C4B63502  35.158   0.619   7.344
 4982POPC   NC363503  11.720  40.709   5.347
 4982POPC   PO463504  12.278  40.951   5.556
 4982POPC   GL163505  12.157  40.641   5.876
 4982POPC   GL263506  11.819  40.480   5.838
 4982POPC   C1A63507  12.283  40.646   6.320
 4982POPC   D2A63508  12.095  41.039   6.507
 4982POPC   C3A63509  11.853  41.056   6.885
 4982POPC   C4A63510  11.930  41.190   7.289
 4982POPC   C1B63511  11.779  40.696   6.236
 4982POPC   C2B63512  11.893  40.586   6.648
 4982POPC   C3B63513  12.099  40.638   7.005
 4982POPC   C4B63514  11.759  40.728   7.262
 4983POPC   NC363515  24.381  16.889   5.313
 4983POPC   PO463516  24.966  16.706   5.494
 4983POPC   GL163517  24.742  16.605   5.811
 4983POPC   GL263518  24.450  16.773   5.807
 4983POPC   C1A63519  24.659  16.517   6.215
 4983POPC   D2A63520  24.591  16.811   6.541
 4983POPC   C3A63521  24.580  16.720   6.965
 4983POPC   C4A63522  24.737  16.875   7.364
 4983POPC   C1B63523  24.408  17.106   6.099
 4983POPC   C2B63524  24.193  17.141   6.488
 4983POPC   C3B63525  24.332  17.161   6.910
 4983POPC   C4B63526  24.281  17.119   7.342
 4984POPC   NC363527  38.494   8.416   5.206
 4984POPC   PO463528  38.550   8.963   5.579
 4984POPC   GL163529  38.299   8.996   5.979
 4984POPC   GL263530  38.599   8.882   6.150
 4984POPC   C1A63531  38.074   8.769   6.293
 4984POPC   D2A63532  38.183   8.704   6.666
 4984POPC   C3A63533  38.063   9.070   6.849
 4984POPC   C4A63534  38.214   9.014   7.201
 4984POPC   C1B63535  38.956   9.155   6.336
 4984POPC   C2B63536  38.947   9.209   6.772
 4984POPC   C3B63537  38.659   8.911   6.919
 4984POPC   C4B63538  38.656   8.790   7.306
 4985POPC   NC363539  24.093  23.413   5.560
 4985POPC   PO463540  23.620  23.839   5.345
 4985POPC   GL163541  23.580  23.700   5.795
 4985POPC   GL263542  23.648  24.038   5.878
 4985POPC   C1A63543  23.667  23.692   6.300
 4985POPC   D2A63544  23.846  23.465   6.713
 4985POPC   C3A63545  23.805  23.594   7.125
 4985POPC   C4A63546  23.801  23.388   7.547
 4985POPC   C1B63547  23.371  24.107   6.251
 4985POPC   C2B63548  23.359  23.907   6.662
 4985POPC   C3B63549  23.460  23.975   7.084
 4985POPC   C4B63550  23.601  23.843   7.505
 4986POPC   NC363551  23.327  32.928   5.305
 4986POPC   PO463552  22.691  33.039   5.513
 4986POPC   GL163553  23.028  32.963   5.770
 4986POPC   GL263554  23.250  33.252   5.774
 4986POPC   C1A63555  23.026  32.813   6.193
 4986POPC   D2A63556  22.841  33.007   6.554
 4986POPC   C3A63557  22.999  32.889   6.943
 4986POPC   C4A63558  22.901  33.100   7.316
 4986POPC   C1B63559  23.412  33.172   6.227
 4986POPC   C2B63560  23.304  33.239   6.695
 4986POPC   C3B63561  23.340  33.280   7.166
 4986POPC   C4B63562  23.294  33.209   7.663
 4987POPC   NC363563   8.350  18.769   5.470
 4987POPC   PO463564   8.316  18.185   5.222
 4987POPC   GL163565   8.227  18.289   5.669
 4987POPC   GL263566   8.486  18.161   5.849
 4987POPC   C1A63567   7.987  18.278   6.092
 4987POPC   D2A63568   8.012  18.475   6.503
 4987POPC   C3A63569   7.919  18.275   6.871
 4987POPC   C4A63570   8.130  18.276   7.241
 4987POPC   C1B63571   8.439  18.198   6.306
 4987POPC   C2B63572   8.382  18.102   6.734
 4987POPC   C3B63573   8.564  18.063   7.132
 4987POPC   C4B63574   8.385  18.057   7.610
 4988POPC   NC363575  12.679  28.013   5.432
 4988POPC   PO463576  12.966  28.590   5.348
 4988POPC   GL163577  13.016  28.342   5.751
 4988POPC   GL263578  13.074  27.973   5.744
 4988POPC   C1A63579  12.875  28.404   6.216
 4988POPC   D2A63580  12.511  28.424   6.548
 4988POPC   C3A63581  12.632  28.543   7.000
 4988POPC   C4A63582  12.960  28.384   7.286
 4988POPC   C1B63583  12.738  27.937   6.062
 4988POPC   C2B63584  12.793  27.896   6.490
 4988POPC   C3B63585  12.868  28.110   6.849
 4988POPC   C4B63586  12.799  27.899   7.238
 4989POPC   NC363587  13.100  26.374   5.409
 4989POPC   PO463588  12.573  25.998   5.346
 4989POPC   GL163589  12.666  26.231   5.707
 4989POPC   GL263590  13.000  26.156   5.874
 4989POPC   C1A63591  12.530  26.308   6.142
 4989POPC   D2A63592  12.748  26.169   6.519
 4989POPC   C3A63593  12.755  26.250   6.961
 4989POPC   C4A63594  12.516  25.953   7.186
 4989POPC   C1B63595  13.101  25.902   6.267
 4989POPC   C2B63596  13.097  25.858   6.735
 4989POPC   C3B63597  13.294  25.921   7.156
 4989POPC   C4B63598  13.302  26.150   7.558
 4990POPC   NC363599  24.234  36.727   5.448
 4990POPC   PO463600  24.709  37.209   5.484
 4990POPC   GL163601  24.530  36.952   5.844
 4990POPC   GL263602  24.318  36.622   5.961
 4990POPC   C1A63603  24.380  37.039   6.261
 4990POPC   D2A63604  24.364  36.761   6.621
 4990POPC   C3A63605  24.594  36.818   7.000
 4990POPC   C4A63606  24.491  36.750   7.414
 4990POPC   C1B63607  24.704  36.644   6.254
 4990POPC   C2B63608  24.942  36.714   6.665
 4990POPC   C3B63609  25.038  36.569   7.123
 4990POPC   C4B63610  24.928  36.548   7.599
 4991POPC   NC363611  31.199   6.767   5.514
 4991POPC   PO463612  31.725   6.432   5.500
 4991POPC   GL163613  31.582   6.612   5.867
 4991POPC   GL263614  31.663   6.939   5.803
 4991POPC   C1A63615  31.638   6.652   6.311
 4991POPC   D2A63616  31.941   6.649   6.642
 4991POPC   C3A63617  31.746   6.350   6.929
 4991POPC   C4A63618  31.476   6.509   7.222
 4991POPC   C1B63619  31.339   7.014   6.122
 4991POPC   C2B63620  31.134   6.999   6.527
 4991POPC   C3B63621  31.278   6.940   6.952
 4991POPC   C4B63622  31.086   6.812   7.325
 4992POPC   NC363623   3.110  29.186   5.517
 4992POPC   PO463624   2.628  29.128   5.054
 4992POPC   GL163625   2.620  29.256   5.610
 4992POPC   GL263626   2.747  28.957   5.839
 4992POPC   C1A63627   2.798  29.386   6.099
 4992POPC   D2A63628   2.886  29.476   6.579
 4992POPC   C3A63629   2.707  29.448   7.013
 4992POPC   C4A63630   2.806  29.096   7.271
 4992POPC   C1B63631   2.992  28.947   6.281
 4992POPC   C2B63632   2.953  28.983   6.754
 4992POPC   C3B63633   3.118  28.741   7.101
 4992POPC   C4B63634   3.032  28.649   7.515
 4993POPC   NC363635   0.694  36.547   5.574
 4993POPC   PO463636   1.081  35.934   5.514
 4993POPC   GL163637   1.264  36.191   5.870
 4993POPC   GL263638   1.644  36.273   5.945
 4993POPC   C1A63639   1.291  36.139   6.302
 4993POPC   D2A63640   1.158  36.010   6.679
 4993POPC   C3A63641   1.344  36.120   7.018
 4993POPC   C4A63642   1.106  36.224   7.345
 4993POPC   C1B63643   1.604  36.551   6.272
 4993POPC   C2B63644   1.485  36.472   6.682
 4993POPC   C3B63645   1.759  36.443   7.043
 4993POPC   C4B63646   1.614  36.255   7.433
 4994POPC   NC363647  15.418  20.592   5.428
 4994POPC   PO463648  16.056  20.902   5.133
 4994POPC   GL163649  15.876  20.835   5.586
 4994POPC   GL263650  15.597  21.033   5.694
 4994POPC   C1A63651  15.860  20.590   6.028
 4994POPC   D2A63652  16.164  20.603   6.423
 4994POPC   C3A63653  16.070  20.422   6.833
 4994POPC   C4A63654  15.847  20.518   7.193
 4994POPC   C1B63655  15.563  20.989   6.145
 4994POPC   C2B63656  15.623  20.777   6.549
 4994POPC   C3B63657  15.420  20.690   6.956
 4994POPC   C4B63658  15.566  20.941   7.290
 4995POPC   NC363659  43.033  40.284   5.519
 4995POPC   PO463660  43.540  39.915   5.559
 4995POPC   GL163661  43.227  39.718   5.806
 4995POPC   GL263662  42.901  39.895   5.827
 4995POPC   C1A63663  43.174  39.789   6.246
 4995POPC   D2A63664  43.187  39.686   6.649
 4995POPC   C3A63665  43.099  39.999   6.932
 4995POPC   C4A63666  42.978  39.978   7.325
 4995POPC   C1B63667  42.748  40.128   6.229
 4995POPC   C2B63668  42.790  40.324   6.676
 4995POPC   C3B63669  42.649  40.285   7.118
 4995POPC   C4B63670  42.668  40.315   7.596
 4996POPC   NC363671  23.523  42.910   5.110
 4996POPC   PO463672  23.968  43.224   5.497
 4996POPC   GL163673  23.723  43.105   5.865
 4996POPC   GL263674  23.408  42.969   5.735
 4996POPC   C1A63675  23.612  43.041   6.310
 4996POPC   D2A63676  23.815  42.824   6.677
 4996POPC   C3A63677  23.706  43.025   7.001
 4996POPC   C4A63678  23.439  43.348   7.028
 4996POPC   C1B63679  23.303  42.699   6.103
 4996POPC   C2B63680  23.311  42.673   6.564
 4996POPC   C3B63681  23.233  42.841   6.988
 4996POPC   C4B63682  23.436  42.971   7.423
 4997POPC   NC363683  13.110   1.609   5.314
 4997POPC   PO463684  12.539   1.464   5.654
 4997POPC   GL163685  12.911   1.484   5.802
 4997POPC   GL263686  12.947   1.128   5.850
 4997POPC   C1A63687  13.044   1.572   6.206
 4997POPC   D2A63688  12.933   1.439   6.623
 4997POPC   C3A63689  13.050   1.623   6.989
 4997POPC   C4A63690  13.061   1.459   7.390
 4997POPC   C1B63691  12.670   1.182   6.243
 4997POPC   C2B63692  12.534   1.119   6.677
 4997POPC   C3B63693  12.799   1.139   7.060
 4997POPC   C4B63694  12.591   1.224   7.431
 4998POPC   NC363695  11.733   6.791   5.485
 4998POPC   PO463696  12.432   6.561   5.423
 4998POPC   GL163697  12.190   6.405   5.821
 4998POPC   GL263698  11.812   6.468   5.878
 4998POPC   C1A63699  12.129   6.418   6.280
 4998POPC   D2A63700  12.019   6.623   6.652
 4998POPC   C3A63701  12.096   6.381   6.994
 4998POPC   C4A63702  12.197   6.538   7.375
 4998POPC   C1B63703  11.602   6.500   6.319
 4998POPC   C2B63704  11.534   6.521   6.808
 4998POPC   C3B63705  11.736   6.679   7.198
 4998POPC   C4B63706  11.792   6.733   7.656
 4999POPC   NC363707   2.690  11.395   5.469
 4999POPC   PO463708   2.408  10.713   5.537
 4999POPC   GL163709   2.417  11.104   5.827
 4999POPC   GL263710   2.798  11.099   5.874
 4999POPC   C1A63711   2.528  11.476   6.123
 4999POPC   D2A63712   2.836  11.635   6.427
 4999POPC   C3A63713   2.780  11.417   6.817
 4999POPC   C4A63714   2.792  11.470   7.257
 4999POPC   C1B63715   2.774  11.034   6.307
 4999POPC   C2B63716   2.685  10.884   6.720
 4999POPC   C3B63717   2.856  10.967   7.080
 4999POPC   C4B63718   2.492  11.049   7.304
 5000POPC   NC363719   3.854   8.423   5.623
 5000POPC   PO463720   3.323   8.006   5.489
 5000POPC   GL163721   3.403   8.245   5.840
 5000POPC   GL263722   3.646   8.012   5.901
 5000POPC   C1A63723   3.448   8.445   6.271
 5000POPC   D2A63724   3.213   8.557   6.663
 5000POPC   C3A63725   3.315   8.305   6.985
 5000POPC   C4A63726   3.697   8.391   7.185
 5000POPC   C1B63727   3.558   7.914   6.317
 5000POPC   C2B63728   3.696   8.097   6.698
 5000POPC   C3B63729   3.611   7.886   7.087
 5000POPC   C4B63730   3.277   7.976   7.374
 5001POPC   NC363731  32.002  14.696   5.425
 5001POPC   PO463732  32.100  14.053   5.428
 5001POPC   GL163733  32.292  14.263   5.800
 5001POPC   GL263734  32.464  13.931   5.847
 5001POPC   C1A63735  32.332  14.511   6.232
 5001POPC   D2A63736  32.545  14.401   6.671
 5001POPC   C3A63737  32.242  14.480   7.023
 5001POPC   C4A63738  32.049  14.762   7.320
 5001POPC   C1B63739  32.418  14.026   6.263
 5001POPC   C2B63740  32.163  14.063   6.624
 5001POPC   C3B63741  31.956  14.025   6.987
 5001POPC   C4B63742  32.334  13.999   7.206
 5002POPC   NC363743  24.918   2.324   5.671
 5002POPC   PO463744  25.496   2.298   5.349
 5002POPC   GL163745  25.525   2.039   5.690
 5002POPC   GL263746  25.232   1.848   5.678
 5002POPC   C1A63747  25.403   2.165   6.115
 5002POPC   D2A63748  25.142   2.092   6.469
 5002POPC   C3A63749  25.304   2.235   6.858
 5002POPC   C4A63750  25.338   1.966   7.164
 5002POPC   C1B63751  25.235   1.670   6.094
 5002POPC   C2B63752  25.095   1.482   6.459
 5002POPC   C3B63753  25.132   1.578   6.871
 5002POPC   C4B63754  24.868   1.677   7.194
 5003POPC   NC363755  10.412  22.147   5.430
 5003POPC   PO463756  10.992  21.963   5.813
 5003POPC   GL163757  10.735  22.248   5.941
 5003POPC   GL263758  10.400  22.276   5.914
 5003POPC   C1A63759  10.631  22.229   6.383
 5003POPC   D2A63760  10.454  22.388   6.758
 5003POPC   C3A63761  10.583  22.170   7.124
 5003POPC   C4A63762  10.749  22.240   7.557
 5003POPC   C1B63763  10.232  21.948   6.177
 5003POPC   C2B63764  10.133  22.016   6.621
 5003POPC   C3B63765  10.106  22.015   7.088
 5003POPC   C4B63766  10.280  22.060   7.541
 5004POPC   NC363767   8.753  24.247   5.392
 5004POPC   PO463768   9.223  24.654   5.425
 5004POPC   GL163769   9.163  24.621   5.837
 5004POPC   GL263770   8.833  24.549   5.813
 5004POPC   C1A63771   9.119  24.474   6.251
 5004POPC   D2A63772   9.293  24.193   6.561
 5004POPC   C3A63773   9.199  24.379   6.927
 5004POPC   C4A63774   9.084  24.612   7.273
 5004POPC   C1B63775   8.606  24.515   6.181
 5004POPC   C2B63776   8.652  24.304   6.568
 5004POPC   C3B63777   8.691  24.478   6.981
 5004POPC   C4B63778   8.602  24.798   7.270
 5005POPC   NC363779   3.222  35.281   5.535
 5005POPC   PO463780   2.522  35.169   5.558
 5005POPC   GL163781   2.789  35.292   5.854
 5005POPC   GL263782   2.679  35.631   5.870
 5005POPC   C1A63783   2.722  35.305   6.283
 5005POPC   D2A63784   2.433  35.318   6.612
 5005POPC   C3A63785   2.726  35.243   6.906
 5005POPC   C4A63786   2.766  35.300   7.321
 5005POPC   C1B63787   3.073  35.660   6.107
 5005POPC   C2B63788   3.162  35.650   6.539
 5005POPC   C3B63789   3.090  35.610   6.945
 5005POPC   C4B63790   3.209  35.556   7.339
 5006POPC   NC363791  27.730  20.464   5.703
 5006POPC   PO463792  27.232  20.624   5.299
 5006POPC   GL163793  27.333  20.764   5.754
 5006POPC   GL263794  27.316  20.425   5.987
 5006POPC   C1A63795  27.494  20.841   6.196
 5006POPC   D2A63796  27.660  20.710   6.595
 5006POPC   C3A63797  27.456  20.832   6.929
 5006POPC   C4A63798  27.312  20.582   7.275
 5006POPC   C1B63799  27.644  20.325   6.286
 5006POPC   C2B63800  27.689  20.179   6.624
 5006POPC   C3B63801  27.659  20.354   6.975
 5006POPC   C4B63802  27.857  20.287   7.331
 5007POPC   NC363803  22.222  13.904   5.257
 5007POPC   PO463804  21.873  13.381   5.436
 5007POPC   GL163805  21.971  13.763   5.694
 5007POPC   GL263806  22.336  13.791   5.766
 5007POPC   C1A63807  21.990  13.798   6.150
 5007POPC   D2A63808  22.268  13.731   6.530
 5007POPC   C3A63809  22.070  13.637   6.898
 5007POPC   C4A63810  22.074  13.260   7.162
 5007POPC   C1B63811  22.451  13.506   6.125
 5007POPC   C2B63812  22.681  13.435   6.563
 5007POPC   C3B63813  22.546  13.367   6.990
 5007POPC   C4B63814  22.580  13.247   7.412
 5008POPC   NC363815  24.754  22.311   5.380
 5008POPC   PO463816  24.155  22.238   5.548
 5008POPC   GL163817  24.467  22.336   5.812
 5008POPC   GL263818  24.627  22.008   5.823
 5008POPC   C1A63819  24.472  22.408   6.245
 5008POPC   D2A63820  24.511  22.157   6.602
 5008POPC   C3A63821  24.558  22.454   6.915
 5008POPC   C4A63822  24.375  22.420   7.277
 5008POPC   C1B63823  24.866  21.877   6.207
 5008POPC   C2B63824  24.853  21.699   6.617
 5008POPC   C3B63825  24.641  21.729   6.997
 5008POPC   C4B63826  24.274  21.993   7.041
 5009POPC   NC363827   8.534  28.648   5.552
 5009POPC   PO463828   8.962  28.128   5.293
 5009POPC   GL163829   8.963  28.408   5.677
 5009POPC   GL263830   9.076  28.219   5.906
 5009POPC   C1A63831   8.859  28.604   6.138
 5009POPC   D2A63832   8.652  28.564   6.565
 5009POPC   C3A63833   8.849  28.598   6.961
 5009POPC   C4A63834   9.015  28.334   7.275
 5009POPC   C1B63835   9.179  28.143   6.326
 5009POPC   C2B63836   9.057  28.172   6.741
 5009POPC   C3B63837   9.227  27.946   7.059
 5009POPC   C4B63838   9.033  27.830   7.406
 5010POPC   NC363839  39.859  17.769   5.601
 5010POPC   PO463840  40.303  17.280   5.472
 5010POPC   GL163841  40.165  17.413   5.858
 5010POPC   GL263842  39.805  17.309   5.822
 5010POPC   C1A63843  40.278  17.580   6.271
 5010POPC   D2A63844  40.187  17.426   6.678
 5010POPC   C3A63845  39.958  17.680   6.943
 5010POPC   C4A63846  39.860  17.862   7.325
 5010POPC   C1B63847  39.844  17.255   6.269
 5010POPC   C2B63848  39.701  17.227   6.688
 5010POPC   C3B63849  39.887  17.182   7.069
 5010POPC   C4B63850  39.704  17.256   7.472
 5011POPC   NC363851  14.958  42.522   5.482
 5011POPC   PO463852  15.524  42.218   5.552
 5011POPC   GL163853  15.175  42.222   5.852
 5011POPC   GL263854  14.870  42.006   5.709
 5011POPC   C1A63855  15.017  42.542   6.155
 5011POPC   D2A63856  15.202  42.803   6.478
 5011POPC   C3A63857  15.191  42.569   6.822
 5011POPC   C4A63858  14.982  42.392   7.180
 5011POPC   C1B63859  14.806  42.054   6.152
 5011POPC   C2B63860  15.134  42.123   6.433
 5011POPC   C3B63861  15.108  42.048   6.841
 5011POPC   C4B63862  14.696  41.991   7.019
 5012POPC   NC363863  31.928  28.167   5.607
 5012POPC   PO463864  32.275  28.654   5.201
 5012POPC   GL163865  32.389  28.374   5.634
 5012POPC   GL263866  32.162  28.525   5.862
 5012POPC   C1A63867  32.546  28.375   6.130
 5012POPC   D2A63868  32.365  28.439   6.563
 5012POPC   C3A63869  32.617  28.503   6.934
 5012POPC   C4A63870  32.652  28.351   7.362
 5012POPC   C1B63871  32.117  28.777   6.223
 5012POPC   C2B63872  31.944  28.719   6.616
 5012POPC   C3B63873  32.154  28.710   7.010
 5012POPC   C4B63874  31.997  28.695   7.432
 5013POPC   NC363875  36.562  12.997   5.370
 5013POPC   PO463876  37.106  12.712   5.636
 5013POPC   GL163877  36.759  12.828   5.908
 5013POPC   GL263878  36.504  13.128   5.861
 5013POPC   C1A63879  36.986  12.815   6.297
 5013POPC   D2A63880  37.002  12.565   6.640
 5013POPC   C3A63881  37.173  12.763   6.957
 5013POPC   C4A63882  36.828  12.794   7.208
 5013POPC   C1B63883  36.623  13.192   6.265
 5013POPC   C2B63884  36.745  13.090   6.672
 5013POPC   C3B63885  36.549  13.198   7.031
 5013POPC   C4B63886  36.650  13.211   7.449
 5014POPC   NC363887  12.603  39.632   5.405
 5014POPC   PO463888  13.017  39.166   5.118
 5014POPC   GL163889  12.823  39.225   5.585
 5014POPC   GL263890  12.945  39.499   5.781
 5014POPC   C1A63891  12.791  39.099   6.035
 5014POPC   D2A63892  12.943  39.217   6.425
 5014POPC   C3A63893  13.006  38.946   6.793
 5014POPC   C4A63894  12.884  39.117   7.159
 5014POPC   C1B63895  13.255  39.507   6.077
 5014POPC   C2B63896  13.293  39.612   6.487
 5014POPC   C3B63897  13.103  39.475   6.840
 5014POPC   C4B63898  12.989  39.627   7.206
 5015POPC   NC363899   5.640  38.598   5.505
 5015POPC   PO463900   6.199  38.161   5.384
 5015POPC   GL163901   6.099  38.389   5.777
 5015POPC   GL263902   5.830  38.566   5.954
 5015POPC   C1A63903   6.262  38.500   6.187
 5015POPC   D2A63904   6.222  38.694   6.588
 5015POPC   C3A63905   5.998  38.389   6.831
 5015POPC   C4A63906   6.183  38.378   7.188
 5015POPC   C1B63907   5.539  38.610   6.260
 5015POPC   C2B63908   5.706  38.788   6.627
 5015POPC   C3B63909   5.878  38.868   6.991
 5015POPC   C4B63910   5.683  38.567   7.257
 5016POPC   NC363911  27.754  15.576   5.424
 5016POPC   PO463912  27.809  16.275   5.473
 5016POPC   GL163913  27.724  16.210   5.904
 5016POPC   GL263914  27.633  15.887   5.829
 5016POPC   C1A63915  27.797  16.113   6.326
 5016POPC   D2A63916  27.738  16.010   6.752
 5016POPC   C3A63917  27.388  16.125   7.001
 5016POPC   C4A63918  27.579  16.089   7.342
 5016POPC   C1B63919  27.750  15.634   6.171
 5016POPC   C2B63920  27.570  15.548   6.546
 5016POPC   C3B63921  27.434  15.623   6.928
 5016POPC   C4B63922  27.637  15.570   7.272
 5017POPC   NC363923   9.499  38.555   5.542
 5017POPC   PO463924   9.998  38.329   5.264
 5017POPC   GL163925   9.994  38.450   5.775
 5017POPC   GL263926   9.810  38.700   5.928
 5017POPC   C1A63927   9.911  38.276   6.243
 5017POPC   D2A63928  10.075  38.270   6.668
 5017POPC   C3A63929   9.811  38.237   7.096
 5017POPC   C4A63930   9.750  38.419   7.533
 5017POPC   C1B63931   9.599  38.691   6.323
 5017POPC   C2B63932   9.649  38.590   6.759
 5017POPC   C3B63933   9.794  38.771   7.143
 5017POPC   C4B63934   9.533  38.862   7.503
 5018POPC   NC363935  22.624  39.398   5.552
 5018POPC   PO463936  22.890  40.025   5.323
 5018POPC   GL163937  22.964  39.975   5.788
 5018POPC   GL263938  22.643  39.864   5.764
 5018POPC   C1A63939  23.132  39.884   6.236
 5018POPC   D2A63940  23.203  39.902   6.697
 5018POPC   C3A63941  22.882  40.188   6.917
 5018POPC   C4A63942  22.648  40.179   7.296
 5018POPC   C1B63943  22.637  39.781   6.177
 5018POPC   C2B63944  22.710  39.861   6.572
 5018POPC   C3B63945  22.619  39.748   6.973
 5018POPC   C4B63946  22.521  39.350   7.137
 5019POPC   NC363947  40.196   8.588   5.167
 5019POPC   PO463948  40.307   9.199   5.463
 5019POPC   GL163949  40.019   8.883   5.686
 5019POPC   GL263950  40.148   8.562   5.748
 5019POPC   C1A63951  39.758   8.824   6.085
 5019POPC   D2A63952  39.905   9.085   6.435
 5019POPC   C3A63953  39.864   8.970   6.894
 5019POPC   C4A63954  39.975   9.211   7.289
 5019POPC   C1B63955  40.263   8.830   6.144
 5019POPC   C2B63956  40.396   8.873   6.591
 5019POPC   C3B63957  40.355   8.953   7.048
 5019POPC   C4B63958  40.176   8.726   7.437
 5020POPC   NC363959  37.175  30.569   5.689
 5020POPC   PO463960  37.758  30.627   5.365
 5020POPC   GL163961  37.834  30.468   5.796
 5020POPC   GL263962  37.614  30.720   5.872
 5020POPC   C1A63963  37.860  30.552   6.267
 5020POPC   D2A63964  37.776  30.810   6.616
 5020POPC   C3A63965  37.757  30.660   7.004
 5020POPC   C4A63966  37.918  30.267   7.131
 5020POPC   C1B63967  37.477  30.953   6.220
 5020POPC   C2B63968  37.286  30.973   6.647
 5020POPC   C3B63969  37.415  31.098   7.052
 5020POPC   C4B63970  37.524  31.042   7.504
 5021POPC   NC363971  28.329  10.907   5.243
 5021POPC   PO463972  28.537  11.509   5.447
 5021POPC   GL163973  28.286  11.436   5.836
 5021POPC   GL263974  28.038  11.687   5.931
 5021POPC   C1A63975  28.295  11.426   6.318
 5021POPC   D2A63976  28.060  11.408   6.706
 5021POPC   C3A63977  28.214  11.128   7.044
 5021POPC   C4A63978  28.546  10.891   7.107
 5021POPC   C1B63979  28.441  11.872   6.117
 5021POPC   C2B63980  28.652  11.794   6.523
 5021POPC   C3B63981  28.582  11.418   6.795
 5021POPC   C4B63982  28.588  11.420   7.268
 5022POPC   NC363983  22.143   4.617   5.522
 5022POPC   PO463984  21.969   3.927   5.347
 5022POPC   GL163985  22.014   4.032   5.833
 5022POPC   GL263986  22.281   4.284   5.900
 5022POPC   C1A63987  22.124   4.028   6.293
 5022POPC   D2A63988  22.135   4.315   6.673
 5022POPC   C3A63989  22.275   4.074   6.985
 5022POPC   C4A63990  22.561   4.252   7.241
 5022POPC   C1B63991  22.122   4.528   6.212
 5022POPC   C2B63992  21.898   4.762   6.507
 5022POPC   C3B63993  21.747   4.650   6.910
 5022POPC   C4B63994  21.988   4.435   7.219
 5023POPC   NC363995  34.064  35.312   5.573
 5023POPC   PO463996  34.702  35.574   5.525
 5023POPC   GL163997  34.785  35.193   5.741
 5023POPC   GL263998  34.456  35.243   5.916
 5023POPC   C1A63999  34.921  35.153   6.186
 5023POPC   D2A64000  34.726  35.271   6.614
 5023POPC   C3A64001  34.971  35.188   7.020
 5023POPC   C4A64002  34.903  35.353   7.478
 5023POPC   C1B64003  34.231  35.571   6.172
 5023POPC   C2B64004  34.073  35.677   6.599
 5023POPC   C3B64005  34.286  35.645   6.999
 5023POPC   C4B64006  34.505  35.316   7.168
 5024POPC   NC364007  23.433  12.510   5.559
 5024POPC   PO464008  23.449  13.164   5.327
 5024POPC   GL164009  23.719  13.124   5.717
 5024POPC   GL264010  23.800  12.782   5.794
 5024POPC   C1A64011  23.757  13.060   6.203
 5024POPC   D2A64012  23.923  12.827   6.600
 5024POPC   C3A64013  23.863  13.058   6.988
 5024POPC   C4A64014  23.678  13.082   7.414
 5024POPC   C1B64015  23.807  12.542   6.172
 5024POPC   C2B64016  23.661  12.385   6.549
 5024POPC   C3B64017  23.583  12.588   6.919
 5024POPC   C4B64018  23.880  12.624   7.256
 5025POPC   NC364019   6.177   0.560   5.726
 5025POPC   PO464020   5.641   0.243   5.451
 5025POPC   GL164021   5.657   0.436   5.886
 5025POPC   GL264022   5.857   0.255   6.029
 5025POPC   C1A64023   5.846   0.690   6.288
 5025POPC   D2A64024   6.082   0.501   6.625
 5025POPC   C3A64025   5.834   0.365   6.973
 5025POPC   C4A64026   5.931   0.556   7.399
 5025POPC   C1B64027   5.711   0.195   6.431
 5025POPC   C2B64028   6.040  44.969   6.622
 5025POPC   C3B64029   6.246  44.887   6.946
 5025POPC   C4B64030   6.233   0.194   7.216
 5026POPC   NC364031  43.635  30.965   5.246
 5026POPC   PO464032  43.818  30.328   5.373
 5026POPC   GL164033  44.070  30.579   5.672
 5026POPC   GL264034  44.167  30.941   5.588
 5026POPC   C1A64035  43.982  30.662   6.113
 5026POPC   D2A64036  43.991  30.569   6.569
 5026POPC   C3A64037  43.621  30.567   6.833
 5026POPC   C4A64038  43.727  30.688   7.234
 5026POPC   C1B64039  44.158  31.145   6.010
 5026POPC   C2B64040  43.951  31.079   6.429
 5026POPC   C3B64041  43.870  31.013   6.861
 5026POPC   C4B64042  44.008  31.113   7.293
 5027POPC   NC364043  37.195   0.584   5.439
 5027POPC   PO464044  36.601   0.316   5.495
 5027POPC   GL164045  36.847   0.491   5.815
 5027POPC   GL264046  37.078   0.207   5.767
 5027POPC   C1A64047  36.879   0.720   6.208
 5027POPC   D2A64048  36.868   0.448   6.560
 5027POPC   C3A64049  36.720   0.430   6.983
 5027POPC   C4A64050  36.960   0.696   7.213
 5027POPC   C1B64051  37.218   0.329   6.156
 5027POPC   C2B64052  37.334   0.231   6.551
 5027POPC   C3B64053  37.229   0.379   6.922
 5027POPC   C4B64054  37.441   0.477   7.262
 5028POPC   NC364055  18.109  42.669   5.409
 5028POPC   PO464056  18.437  43.264   5.330
 5028POPC   GL164057  18.222  43.195   5.692
 5028POPC   GL264058  18.420  42.927   5.741
 5028POPC   C1A64059  18.083  43.145   6.121
 5028POPC   D2A64060  17.978  43.360   6.487
 5028POPC   C3A64061  18.056  43.210   6.903
 5028POPC   C4A64062  18.031  43.278   7.337
 5028POPC   C1B64063  18.604  43.093   6.134
 5028POPC   C2B64064  18.441  43.147   6.552
 5028POPC   C3B64065  18.578  43.135   6.967
 5028POPC   C4B64066  18.427  42.913   7.305
 5029POPC   NC364067  32.722  10.780   5.305
 5029POPC   PO464068  33.248  10.350   5.526
 5029POPC   GL164069  33.190  10.489   5.890
 5029POPC   GL264070  32.856  10.507   5.884
 5029POPC   C1A64071  33.119  10.722   6.261
 5029POPC   D2A64072  32.859  10.909   6.552
 5029POPC   C3A64073  32.929  10.746   6.928
 5029POPC   C4A64074  33.124  10.561   7.291
 5029POPC   C1B64075  32.705  10.301   6.247
 5029POPC   C2B64076  32.589  10.438   6.651
 5029POPC   C3B64077  32.724  10.307   7.061
 5029POPC   C4B64078  32.724  10.350   7.495
 5030POPC   NC364079  37.451  36.214   5.342
 5030POPC   PO464080  37.907  36.590   5.362
 5030POPC   GL164081  37.751  36.337   5.732
 5030POPC   GL264082  37.853  35.996   5.638
 5030POPC   C1A64083  37.714  36.213   6.179
 5030POPC   D2A64084  37.830  36.327   6.629
 5030POPC   C3A64085  37.677  35.974   6.860
 5030POPC   C4A64086  37.548  35.877   7.266
 5030POPC   C1B64087  38.098  35.893   6.013
 5030POPC   C2B64088  38.120  35.922   6.462
 5030POPC   C3B64089  38.195  35.966   6.904
 5030POPC   C4B64090  37.991  36.148   7.248
 5031POPC   NC364091  32.973  41.497   5.331
 5031POPC   PO464092  33.465  41.294   5.629
 5031POPC   GL164093  33.110  41.479   5.831
 5031POPC   GL264094  32.961  41.819   5.790
 5031POPC   C1A64095  32.987  41.479   6.231
 5031POPC   D2A64096  33.101  41.307   6.619
 5031POPC   C3A64097  33.100  41.589   6.962
 5031POPC   C4A64098  32.824  41.469   7.241
 5031POPC   C1B64099  32.731  41.930   6.166
 5031POPC   C2B64100  32.820  41.810   6.574
 5031POPC   C3B64101  32.578  41.793   6.937
 5031POPC   C4B64102  32.699  41.945   7.348
 5032POPC   NC364103  43.613  20.194   5.627
 5032POPC   PO464104  43.188  19.922   5.197
 5032POPC   GL164105  43.069  19.949   5.669
 5032POPC   GL264106  43.320  19.874   5.894
 5032POPC   C1A64107  42.901  19.828   6.132
 5032POPC   D2A64108  42.986  20.049   6.540
 5032POPC   C3A64109  43.055  19.890   6.963
 5032POPC   C4A64110  42.970  19.969   7.412
 5032POPC   C1B64111  43.454  19.668   6.248
 5032POPC   C2B64112  43.712  19.760   6.595
 5032POPC   C3B64113  43.617  19.692   6.994
 5032POPC   C4B64114  43.460  19.986   7.273
 5033POPC   NC364115  31.704  25.065   5.467
 5033POPC   PO464116  31.090  25.406   5.433
 5033POPC   GL164117  31.408  25.444   5.730
 5033POPC   GL264118  31.188  25.649   5.901
 5033POPC   C1A64119  31.658  25.333   6.128
 5033POPC   D2A64120  31.813  25.141   6.537
 5033POPC   C3A64121  31.727  25.329   6.921
 5033POPC   C4A64122  31.571  25.144   7.283
 5033POPC   C1B64123  31.152  25.221   6.108
 5033POPC   C2B64124  31.309  25.160   6.525
 5033POPC   C3B64125  31.195  25.189   6.951
 5033POPC   C4B64126  31.321  25.579   7.113
 5034POPC   NC364127  25.679  24.101   5.596
 5034POPC   PO464128  26.189  23.937   5.140
 5034POPC   GL164129  26.016  23.670   5.677
 5034POPC   GL264130  26.033  23.930   6.016
 5034POPC   C1A64131  25.814  23.523   6.133
 5034POPC   D2A64132  26.042  23.753   6.485
 5034POPC   C3A64133  25.921  23.676   6.873
 5034POPC   C4A64134  26.005  23.739   7.264
 5034POPC   C1B64135  26.379  24.116   6.237
 5034POPC   C2B64136  26.436  24.272   6.625
 5034POPC   C3B64137  26.242  24.100   6.969
 5034POPC   C4B64138  26.301  24.160   7.399
 5035POPC   NC364139   8.854   2.234   5.450
 5035POPC   PO464140   9.297   1.683   5.490
 5035POPC   GL164141   9.236   2.067   5.812
 5035POPC   GL264142   8.918   2.289   5.936
 5035POPC   C1A64143   9.162   2.058   6.292
 5035POPC   D2A64144   9.189   2.290   6.703
 5035POPC   C3A64145   9.039   1.995   6.975
 5035POPC   C4A64146   9.237   1.664   7.128
 5035POPC   C1B64147   8.642   2.208   6.304
 5035POPC   C2B64148   8.664   2.297   6.745
 5035POPC   C3B64149   8.632   2.221   7.159
 5035POPC   C4B64150   9.040   2.399   7.316
 5036POPC   NC364151  23.036  13.983   5.329
 5036POPC   PO464152  22.949  14.685   5.448
 5036POPC   GL164153  22.995  14.324   5.710
 5036POPC   GL264154  22.650  14.203   5.685
 5036POPC   C1A64155  23.235  14.259   6.109
 5036POPC   D2A64156  23.074  14.354   6.512
 5036POPC   C3A64157  23.230  14.409   6.918
 5036POPC   C4A64158  23.071  14.799   7.096
 5036POPC   C1B64159  22.716  14.243   6.137
 5036POPC   C2B64160  22.574  14.200   6.582
 5036POPC   C3B64161  22.714  14.349   6.973
 5036POPC   C4B64162  22.957  14.179   7.291
 5037POPC   NC364163  11.555   3.194   5.254
 5037POPC   PO464164  11.472   2.499   5.195
 5037POPC   GL164165  11.219   2.607   5.652
 5037POPC   GL264166  11.016   2.909   5.724
 5037POPC   C1A64167  11.013   2.535   6.099
 5037POPC   D2A64168  10.906   2.436   6.560
 5037POPC   C3A64169  11.072   2.576   6.961
 5037POPC   C4A64170  11.389   2.351   7.211
 5037POPC   C1B64171  10.930   3.119   6.136
 5037POPC   C2B64172  10.842   3.039   6.591
 5037POPC   C3B64173  10.953   3.144   7.032
 5037POPC   C4B64174  11.233   3.067   7.432
 5038POPC   NC364175  15.437  28.544   5.110
 5038POPC   PO464176  15.044  28.125   5.526
 5038POPC   GL164177  15.301  28.164   5.872
 5038POPC   GL264178  15.592  28.377   5.735
 5038POPC   C1A64179  15.102  28.242   6.283
 5038POPC   D2A64180  14.994  28.091   6.688
 5038POPC   C3A64181  15.270  28.064   7.022
 5038POPC   C4A64182  15.020  28.338   7.279
 5038POPC   C1B64183  15.528  28.519   6.183
 5038POPC   C2B64184  15.439  28.404   6.632
 5038POPC   C3B64185  15.398  28.572   7.013
 5038POPC   C4B64186  15.136  28.863   7.168
 5039POPC   NC364187  37.237  19.912   5.319
 5039POPC   PO464188  37.895  20.068   5.476
 5039POPC   GL164189  37.773  20.049   5.885
 5039POPC   GL264190  37.864  19.717   5.950
 5039POPC   C1A64191  37.502  19.930   6.241
 5039POPC   D2A64192  37.576  19.797   6.647
 5039POPC   C3A64193  37.539  19.971   7.027
 5039POPC   C4A64194  37.761  20.233   7.289
 5039POPC   C1B64195  37.802  19.466   6.317
 5039POPC   C2B64196  37.562  19.304   6.695
 5039POPC   C3B64197  37.632  19.476   7.116
 5039POPC   C4B64198  37.554  19.293   7.525
 5040POPC   NC364199  36.257  29.244   5.327
 5040POPC   PO464200  35.732  28.869   5.375
 5040POPC   GL164201  35.839  28.909   5.808
 5040POPC   GL264202  36.023  29.238   5.809
 5040POPC   C1A64203  36.040  28.930   6.219
 5040POPC   D2A64204  35.972  29.158   6.590
 5040POPC   C3A64205  36.028  28.918   6.939
 5040POPC   C4A64206  35.955  28.994   7.373
 5040POPC   C1B64207  36.180  29.456   6.186
 5040POPC   C2B64208  36.378  29.486   6.600
 5040POPC   C3B64209  36.325  29.314   7.002
 5040POPC   C4B64210  36.119  29.478   7.326
 5041POPC   NC364211   6.124  10.215   5.508
 5041POPC   PO464212   5.802  10.911   5.478
 5041POPC   GL164213   5.794  10.571   5.785
 5041POPC   GL264214   5.493  10.295   5.785
 5041POPC   C1A64215   5.964  10.695   6.183
 5041POPC   D2A64216   6.047  11.010   6.504
 5041POPC   C3A64217   5.907  10.823   6.881
 5041POPC   C4A64218   5.942  10.857   7.307
 5041POPC   C1B64219   5.495  10.462   6.196
 5041POPC   C2B64220   5.750  10.428   6.556
 5041POPC   C3B64221   5.825  10.323   6.952
 5041POPC   C4B64222   6.184  10.427   7.145
 5042POPC   NC364223  19.359  27.797   5.591
 5042POPC   PO464224  18.860  27.374   5.654
 5042POPC   GL164225  19.041  27.628   5.953
 5042POPC   GL264226  19.413  27.576   6.041
 5042POPC   C1A64227  18.859  27.549   6.307
 5042POPC   D2A64228  19.017  27.411   6.642
 5042POPC   C3A64229  18.823  27.534   6.976
 5042POPC   C4A64230  19.104  27.440   7.271
 5042POPC   C1B64231  19.292  27.905   6.318
 5042POPC   C2B64232  19.201  27.891   6.744
 5042POPC   C3B64233  19.140  27.928   7.171
 5042POPC   C4B64234  19.231  27.801   7.635
 5043POPC   NC364235  34.172  37.923   5.346
 5043POPC   PO464236  33.554  37.694   5.479
 5043POPC   GL164237  33.906  37.782   5.791
 5043POPC   GL264238  34.096  38.134   5.818
 5043POPC   C1A64239  33.908  37.596   6.211
 5043POPC   D2A64240  33.707  37.561   6.612
 5043POPC   C3A64241  33.910  37.595   6.984
 5043POPC   C4A64242  33.645  37.679   7.300
 5043POPC   C1B64243  34.180  38.038   6.261
 5043POPC   C2B64244  34.044  38.093   6.686
 5043POPC   C3B64245  34.138  38.038   7.137
 5043POPC   C4B64246  34.025  37.923   7.552
 5044POPC   NC364247   1.380  14.887   5.425
 5044POPC   PO464248   1.096  15.449   5.238
 5044POPC   GL164249   1.107  15.453   5.742
 5044POPC   GL264250   1.112  15.096   5.819
 5044POPC   C1A64251   1.353  15.511   6.187
 5044POPC   D2A64252   1.588  15.397   6.599
 5044POPC   C3A64253   1.328  15.451   7.014
 5044POPC   C4A64254   1.336  15.299   7.430
 5044POPC   C1B64255   0.938  15.229   6.203
 5044POPC   C2B64256   1.135  15.136   6.551
 5044POPC   C3B64257   1.106  14.995   6.940
 5044POPC   C4B64258   1.222  14.788   7.286
 5045POPC   NC364259  10.948  13.066   5.481
 5045POPC   PO464260  11.526  12.921   5.258
 5045POPC   GL164261  11.652  12.910   5.772
 5045POPC   GL264262  11.375  12.764   5.892
 5045POPC   C1A64263  11.556  13.067   6.268
 5045POPC   D2A64264  11.341  12.917   6.665
 5045POPC   C3A64265  11.387  12.968   7.103
 5045POPC   C4A64266  11.119  13.278   7.221
 5045POPC   C1B64267  11.350  12.547   6.296
 5045POPC   C2B64268  11.475  12.428   6.733
 5045POPC   C3B64269  11.502  12.450   7.177
 5045POPC   C4B64270  11.358  12.651   7.528
 5046POPC   NC364271  31.189   3.789   5.528
 5046POPC   PO464272  30.585   3.704   5.337
 5046POPC   GL164273  30.558   3.517   5.801
 5046POPC   GL264274  30.895   3.435   5.864
 5046POPC   C1A64275  30.662   3.559   6.286
 5046POPC   D2A64276  30.914   3.663   6.682
 5046POPC   C3A64277  30.657   3.526   7.005
 5046POPC   C4A64278  30.510   3.837   7.282
 5046POPC   C1B64279  31.072   3.239   6.206
 5046POPC   C2B64280  30.967   3.168   6.628
 5046POPC   C3B64281  31.080   3.269   7.039
 5046POPC   C4B64282  31.022   3.302   7.489
 5047POPC   NC364283  17.802  10.387   5.531
 5047POPC   PO464284  17.215  10.604   5.517
 5047POPC   GL164285  17.486  10.730   5.840
 5047POPC   GL264286  17.335  11.051   5.882
 5047POPC   C1A64287  17.554  10.583   6.262
 5047POPC   D2A64288  17.330  10.284   6.529
 5047POPC   C3A64289  17.380  10.345   6.970
 5047POPC   C4A64290  17.677  10.627   7.215
 5047POPC   C1B64291  17.113  10.819   6.243
 5047POPC   C2B64292  17.123  10.725   6.684
 5047POPC   C3B64293  17.169  10.785   7.130
 5047POPC   C4B64294  17.297  10.805   7.576
 5048POPC   NC364295   7.266  13.174   5.368
 5048POPC   PO464296   7.607  12.589   5.448
 5048POPC   GL164297   7.545  12.882   5.845
 5048POPC   GL264298   7.194  12.962   5.830
 5048POPC   C1A64299   7.467  12.992   6.331
 5048POPC   D2A64300   7.411  13.123   6.779
 5048POPC   C3A64301   7.693  13.064   7.123
 5048POPC   C4A64302   7.746  13.144   7.566
 5048POPC   C1B64303   7.207  12.596   6.147
 5048POPC   C2B64304   7.358  12.500   6.584
 5048POPC   C3B64305   7.374  12.650   7.018
 5048POPC   C4B64306   7.091  12.964   7.160
 5049POPC   NC364307  12.460  15.883   5.536
 5049POPC   PO464308  11.802  15.687   5.463
 5049POPC   GL164309  11.869  15.870   5.877
 5049POPC   GL264310  12.096  16.115   5.923
 5049POPC   C1A64311  12.023  15.779   6.300
 5049POPC   D2A64312  12.276  15.836   6.688
 5049POPC   C3A64313  11.995  15.961   7.020
 5049POPC   C4A64314  11.925  15.772   7.425
 5049POPC   C1B64315  12.385  16.139   6.280
 5049POPC   C2B64316  12.718  16.160   6.576
 5049POPC   C3B64317  12.622  16.140   7.004
 5049POPC   C4B64318  12.365  16.058   7.390
 5050POPC   NC364319  25.709  12.370   5.626
 5050POPC   PO464320  26.306  11.978   5.460
 5050POPC   GL164321  26.072  12.037   5.782
 5050POPC   GL264322  26.185  12.389   5.811
 5050POPC   C1A64323  25.902  11.906   6.167
 5050POPC   D2A64324  25.929  12.080   6.569
 5050POPC   C3A64325  26.198  11.966   6.893
 5050POPC   C4A64326  26.055  11.782   7.241
 5050POPC   C1B64327  26.436  12.464   6.154
 5050POPC   C2B64328  26.380  12.315   6.553
 5050POPC   C3B64329  26.438  12.449   6.975
 5050POPC   C4B64330  26.278  12.239   7.327
 5051POPC   NC364331   6.487  23.220   5.465
 5051POPC   PO464332   6.897  22.586   5.375
 5051POPC   GL164333   6.717  22.842   5.717
 5051POPC   GL264334   6.915  23.167   5.754
 5051POPC   C1A64335   6.597  23.012   6.144
 5051POPC   D2A64336   6.745  22.939   6.587
 5051POPC   C3A64337   6.490  22.966   6.965
 5051POPC   C4A64338   6.523  22.643   7.247
 5051POPC   C1B64339   7.080  23.268   6.183
 5051POPC   C2B64340   7.007  23.370   6.654
 5051POPC   C3B64341   6.970  23.156   7.047
 5051POPC   C4B64342   6.778  23.197   7.422
 5052POPC   NC364343  43.491  17.366   5.481
 5052POPC   PO464344  42.812  17.229   5.496
 5052POPC   GL164345  43.051  17.386   5.845
 5052POPC   GL264346  42.939  17.728   5.987
 5052POPC   C1A64347  43.118  17.332   6.278
 5052POPC   D2A64348  42.902  17.361   6.669
 5052POPC   C3A64349  43.235  17.411   6.950
 5052POPC   C4A64350  43.262  17.515   7.385
 5052POPC   C1B64351  43.238  17.858   6.321
 5052POPC   C2B64352  43.432  17.851   6.746
 5052POPC   C3B64353  43.096  17.886   7.068
 5052POPC   C4B64354  42.749  17.568   7.157
 5053POPC   NC364355  13.827   6.677   5.314
 5053POPC   PO464356  14.487   6.607   5.384
 5053POPC   GL164357  14.539   6.534   5.804
 5053POPC   GL264358  14.864   6.423   5.830
 5053POPC   C1A64359  14.517   6.741   6.193
 5053POPC   D2A64360  14.721   6.789   6.566
 5053POPC   C3A64361  14.459   6.698   6.917
 5053POPC   C4A64362  14.475   6.784   7.362
 5053POPC   C1B64363  14.769   6.304   6.259
 5053POPC   C2B64364  14.586   6.268   6.669
 5053POPC   C3B64365  14.656   6.236   7.141
 5053POPC   C4B64366  14.935   6.412   7.480
 5054POPC   NC364367  13.591  37.237   5.503
 5054POPC   PO464368  13.314  37.899   5.600
 5054POPC   GL164369  13.665  37.722   5.823
 5054POPC   GL264370  13.659  37.385   5.989
 5054POPC   C1A64371  13.812  37.851   6.241
 5054POPC   D2A64372  13.903  37.632   6.627
 5054POPC   C3A64373  13.787  37.750   7.030
 5054POPC   C4A64374  13.945  37.582   7.392
 5054POPC   C1B64375  13.299  37.186   6.211
 5054POPC   C2B64376  13.106  37.338   6.596
 5054POPC   C3B64377  13.316  37.488   6.980
 5054POPC   C4B64378  13.128  37.688   7.343
 5055POPC   NC364379  29.002  23.543   5.585
 5055POPC   PO464380  29.148  23.023   5.250
 5055POPC   GL164381  29.213  22.911   5.710
 5055POPC   GL264382  29.106  23.180   5.924
 5055POPC   C1A64383  29.436  22.774   6.121
 5055POPC   D2A64384  29.469  22.820   6.584
 5055POPC   C3A64385  29.107  22.849   6.868
 5055POPC   C4A64386  28.835  22.632   7.140
 5055POPC   C1B64387  29.075  23.076   6.356
 5055POPC   C2B64388  29.202  23.314   6.731
 5055POPC   C3B64389  29.123  23.248   7.195
 5055POPC   C4B64390  28.761  23.376   7.443
 5056POPC   NC364391  34.298   9.976   5.251
 5056POPC   PO464392  34.798   9.631   5.367
 5056POPC   GL164393  34.606   9.636   5.758
 5056POPC   GL264394  34.813   9.786   6.013
 5056POPC   C1A64395  34.513   9.402   6.133
 5056POPC   D2A64396  34.365   9.288   6.540
 5056POPC   C3A64397  34.587   9.401   6.894
 5056POPC   C4A64398  34.462   9.495   7.270
 5056POPC   C1B64399  34.555   9.852   6.391
 5056POPC   C2B64400  34.758   9.906   6.800
 5056POPC   C3B64401  35.019   9.957   7.179
 5056POPC   C4B64402  34.899   9.915   7.609
 5057POPC   NC364403  25.160  16.326   5.661
 5057POPC   PO464404  25.529  16.688   5.211
 5057POPC   GL164405  25.593  16.922   5.675
 5057POPC   GL264406  25.287  16.804   5.878
 5057POPC   C1A64407  25.645  16.970   6.172
 5057POPC   D2A64408  25.620  17.214   6.566
 5057POPC   C3A64409  25.470  17.000   6.951
 5057POPC   C4A64410  25.346  16.625   7.189
 5057POPC   C1B64411  25.185  16.569   6.305
 5057POPC   C2B64412  25.032  16.564   6.773
 5057POPC   C3B64413  24.885  16.387   7.213
 5057POPC   C4B64414  24.778  16.476   7.684
 5058POPC   NC364415  21.008  25.027   5.399
 5058POPC   PO464416  21.654  25.270   5.349
 5058POPC   GL164417  21.595  25.072   5.777
 5058POPC   GL264418  21.256  25.166   5.861
 5058POPC   C1A64419  21.617  25.094   6.253
 5058POPC   D2A64420  21.365  25.226   6.603
 5058POPC   C3A64421  21.516  25.265   7.000
 5058POPC   C4A64422  21.428  25.010   7.298
 5058POPC   C1B64423  21.041  25.372   6.211
 5058POPC   C2B64424  20.884  25.467   6.607
 5058POPC   C3B64425  21.093  25.558   6.974
 5058POPC   C4B64426  21.142  25.457   7.400
 5059POPC   NC364427  10.260  14.423   5.366
 5059POPC   PO464428  10.759  14.107   5.660
 5059POPC   GL164429  10.312  14.174   5.850
 5059POPC   GL264430  10.185  14.532   5.869
 5059POPC   C1A64431  10.288  14.245   6.312
 5059POPC   D2A64432  10.648  14.126   6.602
 5059POPC   C3A64433  10.587  14.205   7.041
 5059POPC   C4A64434  10.712  14.123   7.470
 5059POPC   C1B64435  10.596  14.582   6.111
 5059POPC   C2B64436  10.679  14.657   6.550
 5059POPC   C3B64437  10.730  14.747   6.989
 5059POPC   C4B64438  10.574  14.651   7.424
 5060POPC   NC364439   5.613  26.943   5.151
 5060POPC   PO464440   5.086  26.645   5.466
 5060POPC   GL164441   5.240  26.768   5.839
 5060POPC   GL264442   5.089  27.102   5.835
 5060POPC   C1A64443   5.196  26.858   6.266
 5060POPC   D2A64444   4.942  26.721   6.580
 5060POPC   C3A64445   5.141  26.854   6.937
 5060POPC   C4A64446   5.047  26.839   7.360
 5060POPC   C1B64447   4.838  27.222   6.224
 5060POPC   C2B64448   4.695  27.156   6.681
 5060POPC   C3B64449   4.886  27.267   7.092
 5060POPC   C4B64450   4.977  27.516   7.451
 5061POPC   NC364451  43.675  11.700   5.338
 5061POPC   PO464452  44.216  12.071   5.412
 5061POPC   GL164453  44.050  12.076   5.817
 5061POPC   GL264454  43.702  11.988   5.761
 5061POPC   C1A64455  44.103  11.949   6.255
 5061POPC   D2A64456  44.370  12.043   6.623
 5061POPC   C3A64457  44.203  11.937   7.004
 5061POPC   C4A64458  44.097  12.153   7.387
 5061POPC   C1B64459  43.639  12.167   6.165
 5061POPC   C2B64460  43.681  12.021   6.596
 5061POPC   C3B64461  43.779  12.217   6.979
 5061POPC   C4B64462  43.562  12.240   7.360
 5062POPC   NC364463  16.635  33.186   5.594
 5062POPC   PO464464  16.829  33.848   5.526
 5062POPC   GL164465  16.520  33.727   5.814
 5062POPC   GL264466  16.786  33.615   6.036
 5062POPC   C1A64467  16.387  33.862   6.226
 5062POPC   D2A64468  16.645  33.831   6.586
 5062POPC   C3A64469  16.526  33.658   6.977
 5062POPC   C4A64470  16.661  33.844   7.352
 5062POPC   C1B64471  16.949  34.031   6.226
 5062POPC   C2B64472  16.958  34.272   6.640
 5062POPC   C3B64473  17.031  34.104   7.072
 5062POPC   C4B64474  17.013  34.159   7.540
 5063POPC   NC364475  42.784   2.450   5.436
 5063POPC   PO464476  43.058   3.036   5.272
 5063POPC   GL164477  43.128   2.744   5.679
 5063POPC   GL264478  43.460   2.620   5.777
 5063POPC   C1A64479  43.033   2.699   6.117
 5063POPC   D2A64480  42.943   2.876   6.522
 5063POPC   C3A64481  42.868   2.586   6.859
 5063POPC   C4A64482  42.920   2.671   7.271
 5063POPC   C1B64483  43.491   2.928   6.134
 5063POPC   C2B64484  43.414   3.073   6.554
 5063POPC   C3B64485  43.235   2.952   6.942
 5063POPC   C4B64486  43.426   2.791   7.275
 5064POPC   NC364487  40.792  36.527   5.379
 5064POPC   PO464488  40.566  37.162   5.394
 5064POPC   GL164489  40.847  37.098   5.768
 5064POPC   GL264490  40.940  36.735   5.815
 5064POPC   C1A64491  40.875  36.989   6.226
 5064POPC   D2A64492  40.997  36.918   6.609
 5064POPC   C3A64493  40.731  37.006   6.924
 5064POPC   C4A64494  40.948  37.176   7.208
 5064POPC   C1B64495  40.606  36.573   6.096
 5064POPC   C2B64496  40.536  36.677   6.524
 5064POPC   C3B64497  40.810  36.509   6.845
 5064POPC   C4B64498  40.728  36.541   7.236
 5065POPC   NC364499  20.714  10.470   5.462
 5065POPC   PO464500  21.031   9.863   5.533
 5065POPC   GL164501  20.945  10.265   5.889
 5065POPC   GL264502  20.831  10.654   5.911
 5065POPC   C1A64503  20.937  10.482   6.357
 5065POPC   D2A64504  20.788  10.826   6.652
 5065POPC   C3A64505  20.779  10.719   7.110
 5065POPC   C4A64506  20.921  10.762   7.550
 5065POPC   C1B64507  20.424  10.562   6.141
 5065POPC   C2B64508  20.217  10.449   6.555
 5065POPC   C3B64509  20.437  10.366   6.951
 5065POPC   C4B64510  20.401  10.510   7.384
 5066POPC   NC364511  34.034  23.932   5.455
 5066POPC   PO464512  33.420  23.552   5.473
 5066POPC   GL164513  33.629  23.722   5.800
 5066POPC   GL264514  33.960  23.586   5.858
 5066POPC   C1A64515  33.535  23.801   6.225
 5066POPC   D2A64516  33.701  23.915   6.625
 5066POPC   C3A64517  33.469  23.701   6.922
 5066POPC   C4A64518  33.644  23.696   7.288
 5066POPC   C1B64519  33.878  23.412   6.302
 5066POPC   C2B64520  33.904  23.469   6.766
 5066POPC   C3B64521  34.053  23.813   6.995
 5066POPC   C4B64522  34.155  23.821   7.411
 5067POPC   NC364523  44.629  30.399   5.473
 5067POPC   PO464524  44.677  31.044   5.498
 5067POPC   GL164525  44.794  30.885   5.878
 5067POPC   GL264526  44.520  30.676   5.925
 5067POPC   C1A64527  44.959  30.732   6.267
 5067POPC   D2A64528  44.944  30.507   6.670
 5067POPC   C3A64529  44.805  30.741   7.047
 5067POPC   C4A64530  44.778  30.638   7.480
 5067POPC   C1B64531  44.410  30.822   6.345
 5067POPC   C2B64532  44.358  30.902   6.808
 5067POPC   C3B64533  44.278  30.680   7.228
 5067POPC   C4B64534  44.333  30.466   7.649
 5068POPC   NC364535  18.732  10.384   5.566
 5068POPC   PO464536  19.314  10.606   5.423
 5068POPC   GL164537  19.065  10.721   5.809
 5068POPC   GL264538  18.685  10.838   5.789
 5068POPC   C1A64539  19.112  10.506   6.210
 5068POPC   D2A64540  19.338  10.421   6.597
 5068POPC   C3A64541  19.099  10.511   6.970
 5068POPC   C4A64542  19.146  10.299   7.342
 5068POPC   C1B64543  18.609  10.606   6.175
 5068POPC   C2B64544  18.759  10.647   6.577
 5068POPC   C3B64545  18.611  10.711   6.975
 5068POPC   C4B64546  18.767  10.680   7.377
 5069POPC   NC364547  14.572  11.242   5.443
 5069POPC   PO464548  14.036  11.480   5.386
 5069POPC   GL164549  14.237  11.401   5.805
 5069POPC   GL264550  14.529  11.236   5.935
 5069POPC   C1A64551  14.241  11.530   6.239
 5069POPC   D2A64552  14.432  11.406   6.632
 5069POPC   C3A64553  14.299  11.608   7.030
 5069POPC   C4A64554  14.164  11.409   7.416
 5069POPC   C1B64555  14.756  11.535   6.151
 5069POPC   C2B64556  14.918  11.674   6.543
 5069POPC   C3B64557  14.813  11.574   6.957
 5069POPC   C4B64558  14.661  11.565   7.385
 5070POPC   NC364559  12.494   1.014   5.523
 5070POPC   PO464560  11.906   1.285   5.303
 5070POPC   GL164561  11.932   1.386   5.749
 5070POPC   GL264562  12.185   1.170   5.896
 5070POPC   C1A64563  11.780   1.398   6.192
 5070POPC   D2A64564  11.986   1.340   6.617
 5070POPC   C3A64565  11.779   1.407   6.969
 5070POPC   C4A64566  11.926   1.437   7.364
 5070POPC   C1B64567  12.177   0.996   6.298
 5070POPC   C2B64568  12.103   0.849   6.725
 5070POPC   C3B64569  12.199   1.075   7.092
 5070POPC   C4B64570  12.151   0.982   7.520
 5071POPC   NC364571  25.773  13.037   5.323
 5071POPC   PO464572  26.363  12.828   5.555
 5071POPC   GL164573  26.106  13.072   5.823
 5071POPC   GL264574  25.817  12.876   5.826
 5071POPC   C1A64575  26.077  13.200   6.270
 5071POPC   D2A64576  25.949  13.184   6.707
 5071POPC   C3A64577  25.969  12.865   7.034
 5071POPC   C4A64578  26.251  12.770   7.377
 5071POPC   C1B64579  25.975  12.681   6.209
 5071POPC   C2B64580  25.842  12.578   6.628
 5071POPC   C3B64581  25.837  12.350   7.038
 5071POPC   C4B64582  25.852  12.456   7.496
 5072POPC   NC364583  38.769  21.521   5.249
 5072POPC   PO464584  38.715  20.867   5.484
 5072POPC   GL164585  38.534  21.151   5.821
 5072POPC   GL264586  38.510  21.489   5.856
 5072POPC   C1A64587  38.626  21.246   6.275
 5072POPC   D2A64588  38.392  21.507   6.571
 5072POPC   C3A64589  38.468  21.461   6.968
 5072POPC   C4A64590  38.457  21.210   7.276
 5072POPC   C1B64591  38.577  21.772   6.189
 5072POPC   C2B64592  38.747  21.896   6.627
 5072POPC   C3B64593  38.649  21.910   7.085
 5072POPC   C4B64594  38.403  21.733   7.437
 5073POPC   NC364595  26.137  38.163   5.412
 5073POPC   PO464596  25.649  38.635   5.329
 5073POPC   GL164597  25.982  38.558   5.746
 5073POPC   GL264598  26.297  38.313   5.847
 5073POPC   C1A64599  26.212  38.660   6.199
 5073POPC   D2A64600  26.242  38.858   6.662
 5073POPC   C3A64601  26.060  38.641   7.060
 5073POPC   C4A64602  25.752  38.253   7.206
 5073POPC   C1B64603  26.508  38.216   6.215
 5073POPC   C2B64604  26.263  38.301   6.577
 5073POPC   C3B64605  26.211  38.144   6.957
 5073POPC   C4B64606  26.232  38.262   7.352
 5074POPC   NC364607  11.983  35.371   5.347
 5074POPC   PO464608  12.513  35.683   5.608
 5074POPC   GL164609  12.245  35.414   5.842
 5074POPC   GL264610  11.882  35.406   5.831
 5074POPC   C1A64611  12.114  35.405   6.277
 5074POPC   D2A64612  12.074  35.155   6.584
 5074POPC   C3A64613  12.019  35.424   6.889
 5074POPC   C4A64614  12.073  35.283   7.259
 5074POPC   C1B64615  11.625  35.564   6.138
 5074POPC   C2B64616  11.746  35.748   6.504
 5074POPC   C3B64617  11.674  35.814   6.932
 5074POPC   C4B64618  11.931  35.773   7.282
 5075POPC   NC364619   5.472   3.659   5.515
 5075POPC   PO464620   6.172   3.581   5.333
 5075POPC   GL164621   5.952   3.763   5.720
 5075POPC   GL264622   6.055   3.536   5.956
 5075POPC   C1A64623   5.661   3.800   6.124
 5075POPC   D2A64624   5.774   3.634   6.500
 5075POPC   C3A64625   5.552   3.706   6.855
 5075POPC   C4A64626   5.724   3.676   7.266
 5075POPC   C1B64627   5.756   3.252   6.128
 5075POPC   C2B64628   5.664   3.128   6.553
 5075POPC   C3B64629   5.845   3.283   6.951
 5075POPC   C4B64630   6.011   3.253   7.391
 5076POPC   NC364631  30.935  34.974   5.451
 5076POPC   PO464632  30.341  34.633   5.309
 5076POPC   GL164633  30.516  34.536   5.712
 5076POPC   GL264634  30.767  34.753   5.880
 5076POPC   C1A64635  30.675  34.238   6.017
 5076POPC   D2A64636  30.642  34.116   6.451
 5076POPC   C3A64637  30.813  34.361   6.813
 5076POPC   C4A64638  30.901  34.508   7.279
 5076POPC   C1B64639  30.633  34.668   6.299
 5076POPC   C2B64640  30.716  34.842   6.678
 5076POPC   C3B64641  30.556  34.827   7.075
 5076POPC   C4B64642  30.378  34.592   7.407
 5077POPC   NC364643   1.486  38.687   5.460
 5077POPC   PO464644   0.981  38.130   5.556
 5077POPC   GL164645   1.213  38.411   5.811
 5077POPC   GL264646   1.112  38.771   5.779
 5077POPC   C1A64647   1.243  38.502   6.231
 5077POPC   D2A64648   1.377  38.437   6.635
 5077POPC   C3A64649   1.039  38.518   6.853
 5077POPC   C4A64650   1.117  38.521   7.275
 5077POPC   C1B64651   1.385  38.971   6.091
 5077POPC   C2B64652   1.261  38.979   6.536
 5077POPC   C3B64653   1.268  38.947   6.995
 5077POPC   C4B64654   1.376  38.943   7.455
 5078POPC   NC364655  22.745   4.758   5.456
 5078POPC   PO464656  23.135   5.277   5.415
 5078POPC   GL164657  22.907   5.100   5.802
 5078POPC   GL264658  23.156   4.837   5.901
 5078POPC   C1A64659  22.872   4.959   6.285
 5078POPC   D2A64660  23.252   4.963   6.579
 5078POPC   C3A64661  23.103   5.086   6.992
 5078POPC   C4A64662  22.649   5.171   7.067
 5078POPC   C1B64663  23.168   4.535   6.254
 5078POPC   C2B64664  22.941   4.557   6.641
 5078POPC   C3B64665  22.850   4.635   7.051
 5078POPC   C4B64666  23.121   4.754   7.398
 5079POPC   NC364667  40.252  23.945   5.473
 5079POPC   PO464668  40.012  23.245   5.500
 5079POPC   GL164669  39.837  23.463   5.851
 5079POPC   GL264670  39.954  23.807   5.869
 5079POPC   C1A64671  39.874  23.467   6.279
 5079POPC   D2A64672  39.865  23.824   6.548
 5079POPC   C3A64673  39.900  23.675   6.956
 5079POPC   C4A64674  39.900  23.379   7.265
 5079POPC   C1B64675  40.216  23.947   6.203
 5079POPC   C2B64676  40.349  23.887   6.621
 5079POPC   C3B64677  40.409  23.683   6.975
 5079POPC   C4B64678  40.247  23.941   7.229
 5080POPC   NC364679  12.632   8.085   5.274
 5080POPC   PO464680  13.073   8.611   5.427
 5080POPC   GL164681  13.062   8.198   5.701
 5080POPC   GL264682  12.721   8.057   5.764
 5080POPC   C1A64683  13.048   7.966   6.136
 5080POPC   D2A64684  12.852   7.853   6.540
 5080POPC   C3A64685  13.001   8.024   6.921
 5080POPC   C4A64686  12.896   8.336   7.187
 5080POPC   C1B64687  12.786   8.409   6.059
 5080POPC   C2B64688  12.560   8.439   6.402
 5080POPC   C3B64689  12.576   8.348   6.810
 5080POPC   C4B64690  12.450   8.596   7.188
 5081POPC   NC364691  39.808  19.441   5.411
 5081POPC   PO464692  40.288  18.825   5.376
 5081POPC   GL164693  40.145  18.862   5.795
 5081POPC   GL264694  40.076  19.211   5.842
 5081POPC   C1A64695  40.015  18.842   6.212
 5081POPC   D2A64696  40.022  19.111   6.581
 5081POPC   C3A64697  40.015  18.939   6.979
 5081POPC   C4A64698  40.064  19.057   7.392
 5081POPC   C1B64699  39.773  19.333   6.193
 5081POPC   C2B64700  39.813  19.562   6.645
 5081POPC   C3B64701  39.691  19.339   7.053
 5081POPC   C4B64702  39.673  19.383   7.511
 5082POPC   NC364703   3.060  17.912   5.518
 5082POPC   PO464704   2.656  17.345   5.418
 5082POPC   GL164705   2.799  17.535   5.753
 5082POPC   GL264706   2.544  17.739   5.844
 5082POPC   C1A64707   2.903  17.550   6.173
 5082POPC   D2A64708   2.986  17.293   6.517
 5082POPC   C3A64709   3.001  17.566   6.854
 5082POPC   C4A64710   2.927  17.462   7.254
 5082POPC   C1B64711   2.314  17.654   6.208
 5082POPC   C2B64712   2.337  17.676   6.641
 5082POPC   C3B64713   2.497  17.626   7.055
 5082POPC   C4B64714   2.536  17.690   7.534
 5083POPC   NC364715  41.557  17.832   5.487
 5083POPC   PO464716  41.798  17.239   5.704
 5083POPC   GL164717  41.740  17.529   5.948
 5083POPC   GL264718  41.406  17.571   5.902
 5083POPC   C1A64719  41.688  17.394   6.355
 5083POPC   D2A64720  41.937  17.389   6.712
 5083POPC   C3A64721  41.698  17.586   7.022
 5083POPC   C4A64722  41.568  17.461   7.413
 5083POPC   C1B64723  41.496  17.903   6.205
 5083POPC   C2B64724  41.466  17.773   6.611
 5083POPC   C3B64725  41.163  17.701   6.895
 5083POPC   C4B64726  41.284  17.847   7.271
 5084POPC   NC364727  19.287  33.324   5.400
 5084POPC   PO464728  18.708  32.992   5.537
 5084POPC   GL164729  19.018  33.075   5.872
 5084POPC   GL264730  19.376  33.110   5.868
 5084POPC   C1A64731  19.109  32.864   6.274
 5084POPC   D2A64732  19.218  32.788   6.698
 5084POPC   C3A64733  18.880  32.714   6.983
 5084POPC   C4A64734  18.906  32.638   7.425
 5084POPC   C1B64735  19.273  33.334   6.276
 5084POPC   C2B64736  19.011  33.246   6.683
 5084POPC   C3B64737  19.017  33.183   7.149
 5084POPC   C4B64738  19.178  33.041   7.568
 5085POPC   NC364739  34.571   3.279   5.314
 5085POPC   PO464740  34.958   3.756   5.581
 5085POPC   GL164741  34.620   3.689   5.837
 5085POPC   GL264742  34.513   3.336   5.815
 5085POPC   C1A64743  34.673   3.832   6.251
 5085POPC   D2A64744  34.515   3.913   6.626
 5085POPC   C3A64745  34.783   3.831   6.945
 5085POPC   C4A64746  34.663   3.623   7.321
 5085POPC   C1B64747  34.275   3.498   6.165
 5085POPC   C2B64748  34.172   3.527   6.572
 5085POPC   C3B64749  34.372   3.459   6.957
 5085POPC   C4B64750  34.291   3.258   7.402
 5086POPC   NC364751   5.092  33.609   5.504
 5086POPC   PO464752   4.694  34.127   5.418
 5086POPC   GL164753   5.008  33.994   5.822
 5086POPC   GL264754   5.336  33.770   5.906
 5086POPC   C1A64755   4.902  33.714   6.187
 5086POPC   D2A64756   4.747  33.791   6.581
 5086POPC   C3A64757   4.976  33.879   6.944
 5086POPC   C4A64758   5.007  34.052   7.347
 5086POPC   C1B64759   5.300  34.025   6.282
 5086POPC   C2B64760   5.422  33.922   6.698
 5086POPC   C3B64761   5.451  33.930   7.133
 5086POPC   C4B64762   5.433  33.496   7.178
 5087POPC   NC364763  20.871  18.654   5.449
 5087POPC   PO464764  20.666  18.022   5.533
 5087POPC   GL164765  20.797  18.304   5.838
 5087POPC   GL264766  20.993  18.059   6.017
 5087POPC   C1A64767  20.589  18.335   6.246
 5087POPC   D2A64768  20.698  18.087   6.614
 5087POPC   C3A64769  20.545  18.224   7.019
 5087POPC   C4A64770  20.251  18.173   7.372
 5087POPC   C1B64771  21.095  18.410   6.244
 5087POPC   C2B64772  20.911  18.677   6.514
 5087POPC   C3B64773  21.007  18.430   6.846
 5087POPC   C4B64774  21.036  18.416   7.239
 5088POPC   NC364775  37.666   7.850   5.329
 5088POPC   PO464776  37.919   8.413   5.522
 5088POPC   GL164777  37.814   8.146   5.847
 5088POPC   GL264778  37.456   8.051   5.943
 5088POPC   C1A64779  37.781   8.302   6.255
 5088POPC   D2A64780  37.473   8.342   6.540
 5088POPC   C3A64781  37.666   8.228   6.870
 5088POPC   C4A64782  37.744   8.117   7.257
 5088POPC   C1B64783  37.540   7.837   6.374
 5088POPC   C2B64784  37.583   7.738   6.830
 5088POPC   C3B64785  37.403   7.752   7.254
 5088POPC   C4B64786  37.507   7.900   7.681
 5089POPC   NC364787  16.611  39.864   5.307
 5089POPC   PO464788  16.216  40.359   5.561
 5089POPC   GL164789  16.637  40.188   5.789
 5089POPC   GL264790  16.691  39.789   5.795
 5089POPC   C1A64791  16.874  40.227   6.228
 5089POPC   D2A64792  16.772  40.086   6.658
 5089POPC   C3A64793  16.999  40.269   7.004
 5089POPC   C4A64794  17.184  40.216   7.417
 5089POPC   C1B64795  16.869  39.716   6.184
 5089POPC   C2B64796  16.865  39.463   6.538
 5089POPC   C3B64797  16.860  39.649   6.934
 5089POPC   C4B64798  16.766  39.913   7.278
 5090POPC   NC364799  27.363  40.389   5.611
 5090POPC   PO464800  27.694  40.917   5.330
 5090POPC   GL164801  27.598  40.864   5.792
 5090POPC   GL264802  27.306  41.075   5.808
 5090POPC   C1A64803  27.814  40.963   6.227
 5090POPC   D2A64804  27.930  40.608   6.524
 5090POPC   C3A64805  27.924  40.573   6.974
 5090POPC   C4A64806  27.668  40.325   7.250
 5090POPC   C1B64807  27.306  40.887   6.240
 5090POPC   C2B64808  27.498  40.904   6.656
 5090POPC   C3B64809  27.421  40.739   7.058
 5090POPC   C4B64810  27.270  40.927   7.426
 5091POPC   NC364811  21.734   7.879   5.484
 5091POPC   PO464812  21.689   8.543   5.504
 5091POPC   GL164813  21.869   8.264   5.875
 5091POPC   GL264814  22.090   7.959   5.890
 5091POPC   C1A64815  21.897   8.191   6.346
 5091POPC   D2A64816  22.134   8.421   6.693
 5091POPC   C3A64817  22.322   8.370   7.122
 5091POPC   C4A64818  22.178   8.493   7.550
 5091POPC   C1B64819  22.338   7.938   6.309
 5091POPC   C2B64820  22.221   7.798   6.731
 5091POPC   C3B64821  22.254   7.874   7.177
 5091POPC   C4B64822  22.480   8.059   7.553
 5092POPC   NC364823  42.736  37.411   5.323
 5092POPC   PO464824  42.158  37.619   5.535
 5092POPC   GL164825  42.282  37.771   5.879
 5092POPC   GL264826  42.034  38.018   5.861
 5092POPC   C1A64827  42.300  37.553   6.247
 5092POPC   D2A64828  42.477  37.480   6.589
 5092POPC   C3A64829  42.316  37.635   6.952
 5092POPC   C4A64830  42.463  37.542   7.339
 5092POPC   C1B64831  42.082  38.015   6.279
 5092POPC   C2B64832  41.877  37.933   6.606
 5092POPC   C3B64833  41.966  38.051   6.969
 5092POPC   C4B64834  42.216  38.031   7.269
 5093POPC   NC364835  20.898  35.485   5.126
 5093POPC   PO464836  21.571  35.465   5.312
 5093POPC   GL164837  21.500  35.416   5.750
 5093POPC   GL264838  21.160  35.318   5.690
 5093POPC   C1A64839  21.514  35.548   6.194
 5093POPC   D2A64840  21.196  35.727   6.481
 5093POPC   C3A64841  21.261  35.561   6.897
 5093POPC   C4A64842  21.515  35.332   7.195
 5093POPC   C1B64843  21.071  35.298   6.140
 5093POPC   C2B64844  21.182  35.155   6.568
 5093POPC   C3B64845  20.932  35.124   6.969
 5093POPC   C4B64846  20.958  35.441   7.287
 5094POPC   NC364847  30.236  39.335   5.512
 5094POPC   PO464848  29.713  38.927   5.427
 5094POPC   GL164849  29.879  39.113   5.829
 5094POPC   GL264850  29.812  39.440   5.800
 5094POPC   C1A64851  30.163  39.314   6.192
 5094POPC   D2A64852  30.403  39.191   6.581
 5094POPC   C3A64853  30.103  38.873   6.761
 5094POPC   C4A64854  29.878  39.034   7.108
 5094POPC   C1B64855  29.666  39.459   6.218
 5094POPC   C2B64856  29.847  39.368   6.647
 5094POPC   C3B64857  29.675  39.485   7.051
 5094POPC   C4B64858  29.367  39.492   7.342
 5095POPC   NC364859  34.872  44.518   5.476
 5095POPC   PO464860  35.381  44.957   5.548
 5095POPC   GL164861  35.213  44.641   5.862
 5095POPC   GL264862  35.461  44.404   5.956
 5095POPC   C1A64863  35.165  44.629   6.326
 5095POPC   D2A64864  34.985  44.804   6.695
 5095POPC   C3A64865  35.263  44.732   7.064
 5095POPC   C4A64866  35.277  44.492   7.441
 5095POPC   C1B64867  35.652  44.429   6.355
 5095POPC   C2B64868  35.458  44.366   6.756
 5095POPC   C3B64869  35.666  44.353   7.175
 5095POPC   C4B64870  35.767  44.476   7.634
 5096POPC   NC364871  20.530  21.997   5.256
 5096POPC   PO464872  20.351  21.330   5.472
 5096POPC   GL164873  20.682  21.488   5.714
 5096POPC   GL264874  20.931  21.293   5.894
 5096POPC   C1A64875  20.589  21.574   6.140
 5096POPC   D2A64876  20.860  21.527   6.495
 5096POPC   C3A64877  20.610  21.464   6.845
 5096POPC   C4A64878  20.691  21.521   7.256
 5096POPC   C1B64879  20.777  21.069   6.263
 5096POPC   C2B64880  20.822  21.023   6.705
 5096POPC   C3B64881  20.771  21.016   7.144
 5096POPC   C4B64882  21.058  21.146   7.447
 5097POPC   NC364883  41.950   8.062   5.404
 5097POPC   PO464884  42.094   8.579   5.739
 5097POPC   GL164885  42.156   8.098   5.884
 5097POPC   GL264886  42.473   7.892   5.840
 5097POPC   C1A64887  42.192   7.899   6.315
 5097POPC   D2A64888  42.294   8.180   6.668
 5097POPC   C3A64889  42.363   8.028   7.078
 5097POPC   C4A64890  42.202   8.066   7.502
 5097POPC   C1B64891  42.630   8.140   6.225
 5097POPC   C2B64892  42.833   8.211   6.624
 5097POPC   C3B64893  42.736   8.431   7.014
 5097POPC   C4B64894  42.692   8.220   7.426
 5098POPC   NC364895  17.772   4.594   5.448
 5098POPC   PO464896  18.421   4.491   5.313
 5098POPC   GL164897  18.376   4.360   5.760
 5098POPC   GL264898  18.050   4.425   5.902
 5098POPC   C1A64899  18.475   4.211   6.160
 5098POPC   D2A64900  18.375   4.381   6.548
 5098POPC   C3A64901  18.504   4.151   6.900
 5098POPC   C4A64902  18.532   4.334   7.244
 5098POPC   C1B64903  17.963   4.145   6.277
 5098POPC   C2B64904  18.055   3.997   6.691
 5098POPC   C3B64905  18.048   4.357   6.969
 5098POPC   C4B64906  17.966   4.340   7.371
 5099POPC   NC364907   7.992  20.977   5.495
 5099POPC   PO464908   8.373  21.529   5.458
 5099POPC   GL164909   8.196  21.429   5.824
 5099POPC   GL264910   7.881  21.609   5.765
 5099POPC   C1A64911   8.313  21.337   6.264
 5099POPC   D2A64912   8.547  21.237   6.659
 5099POPC   C3A64913   8.305  21.427   6.988
 5099POPC   C4A64914   7.879  21.321   7.040
 5099POPC   C1B64915   8.011  21.753   6.170
 5099POPC   C2B64916   7.951  21.603   6.592
 5099POPC   C3B64917   7.970  21.820   6.971
 5099POPC   C4B64918   7.921  21.728   7.412
 5100POPC   NC364919  39.827  22.709   5.453
 5100POPC   PO464920  40.460  22.597   5.585
 5100POPC   GL164921  40.415  22.871   5.949
 5100POPC   GL264922  40.070  22.937   5.900
 5100POPC   C1A64923  40.288  22.946   6.374
 5100POPC   D2A64924  40.100  22.669   6.679
 5100POPC   C3A64925  40.271  22.669   7.082
 5100POPC   C4A64926  40.173  22.871   7.442
 5100POPC   C1B64927  39.802  22.881   6.253
 5100POPC   C2B64928  39.785  23.088   6.657
 5100POPC   C3B64929  39.807  22.915   7.066
 5100POPC   C4B64930  39.679  22.974   7.487
 5101POPC   NC364931  40.573  18.464   5.517
 5101POPC   PO464932  41.173  18.091   5.586
 5101POPC   GL164933  40.873  18.239   5.856
 5101POPC   GL264934  40.872  18.602   5.917
 5101POPC   C1A64935  40.681  18.149   6.231
 5101POPC   D2A64936  40.665  18.387   6.594
 5101POPC   C3A64937  40.713  18.147   6.930
 5101POPC   C4A64938  40.669  18.261   7.337
 5101POPC   C1B64939  40.488  18.653   6.184
 5101POPC   C2B64940  40.244  18.648   6.619
 5101POPC   C3B64941  40.378  18.583   7.050
 5101POPC   C4B64942  40.454  18.710   7.498
 5102POPC   NC364943  43.419   6.047   5.386
 5102POPC   PO464944  42.827   5.619   5.533
 5102POPC   GL164945  43.199   5.732   5.803
 5102POPC   GL264946  43.212   6.107   5.850
 5102POPC   C1A64947  43.373   5.820   6.231
 5102POPC   D2A64948  43.252   6.134   6.557
 5102POPC   C3A64949  43.356   5.989   6.984
 5102POPC   C4A64950  43.350   5.920   7.437
 5102POPC   C1B64951  42.892   6.052   6.166
 5102POPC   C2B64952  42.754   5.951   6.564
 5102POPC   C3B64953  42.856   6.129   6.938
 5102POPC   C4B64954  42.861   6.039   7.379
 5103POPC   NC364955   5.005   6.221   5.521
 5103POPC   PO464956   4.928   5.517   5.482
 5103POPC   GL164957   5.105   5.670   5.850
 5103POPC   GL264958   5.482   5.630   5.817
 5103POPC   C1A64959   4.919   5.988   6.124
 5103POPC   D2A64960   4.740   6.060   6.559
 5103POPC   C3A64961   4.788   5.726   6.884
 5103POPC   C4A64962   4.803   5.948   7.282
 5103POPC   C1B64963   5.444   5.911   6.156
 5103POPC   C2B64964   5.197   5.856   6.518
 5103POPC   C3B64965   5.214   5.996   6.916
 5103POPC   C4B64966   5.297   5.813   7.286
 5104POPC   NC364967  37.321  29.213   5.095
 5104POPC   PO464968  36.706  29.143   5.439
 5104POPC   GL164969  36.574  29.231   5.842
 5104POPC   GL264970  36.934  29.265   5.884
 5104POPC   C1A64971  36.562  29.113   6.286
 5104POPC   D2A64972  36.822  28.893   6.590
 5104POPC   C3A64973  37.059  29.081   6.924
 5104POPC   C4A64974  36.730  29.066   7.227
 5104POPC   C1B64975  37.071  29.225   6.256
 5104POPC   C2B64976  37.054  29.482   6.580
 5104POPC   C3B64977  36.789  29.522   6.946
 5104POPC   C4B64978  36.648  29.544   7.371
 5105POPC   NC364979  29.171   1.377   5.386
 5105POPC   PO464980  29.041   0.755   5.541
 5105POPC   GL164981  28.815   1.091   5.795
 5105POPC   GL264982  28.899   1.496   5.806
 5105POPC   C1A64983  28.869   1.181   6.223
 5105POPC   D2A64984  29.119   1.291   6.540
 5105POPC   C3A64985  28.964   1.187   6.944
 5105POPC   C4A64986  28.863   0.927   7.310
 5105POPC   C1B64987  29.189   1.690   6.104
 5105POPC   C2B64988  29.468   1.673   6.489
 5105POPC   C3B64989  29.483   1.392   6.866
 5105POPC   C4B64990  29.267   1.431   7.282
 5106POPC   NC364991  32.969  14.806   5.549
 5106POPC   PO464992  33.071  15.422   5.306
 5106POPC   GL164993  33.075  15.314   5.840
 5106POPC   GL264994  32.822  15.056   5.942
 5106POPC   C1A64995  32.970  15.236   6.371
 5106POPC   D2A64996  32.748  15.359   6.783
 5106POPC   C3A64997  33.065  15.555   7.098
 5106POPC   C4A64998  33.523  15.626   7.235
 5106POPC   C1B64999  33.231  14.844   6.128
 5106POPC   C2B65000  33.361  14.891   6.552
 5106POPC   C3B65001  33.243  15.087   6.953
 5106POPC   C4B65002  32.874  15.103   7.216
 5107POPC   NC365003  38.562  14.005   5.510
 5107POPC   PO465004  38.197  13.528   5.231
 5107POPC   GL165005  38.400  13.490   5.698
 5107POPC   GL265006  38.468  13.765   5.940
 5107POPC   C1A65007  38.350  13.353   6.193
 5107POPC   D2A65008  38.321  13.647   6.565
 5107POPC   C3A65009  38.457  13.630   7.003
 5107POPC   C4A65010  38.274  13.324   7.256
 5107POPC   C1B65011  38.710  13.987   6.294
 5107POPC   C2B65012  38.991  13.993   6.680
 5107POPC   C3B65013  38.798  14.019   7.099
 5107POPC   C4B65014  38.437  14.041   7.385
 5108POPC   NC365015  17.348  35.672   5.500
 5108POPC   PO465016  17.492  35.085   5.406
 5108POPC   GL165017  17.287  35.200   5.754
 5108POPC   GL265018  17.104  34.898   5.819
 5108POPC   C1A65019  17.434  35.445   6.139
 5108POPC   D2A65020  17.583  35.652   6.538
 5108POPC   C3A65021  17.380  35.565   6.916
 5108POPC   C4A65022  17.516  35.475   7.318
 5108POPC   C1B65023  17.455  34.927   6.140
 5108POPC   C2B65024  17.601  35.128   6.530
 5108POPC   C3B65025  17.433  35.053   6.927
 5108POPC   C4B65026  17.148  35.135   7.263
 5109POPC   NC365027   8.801  23.257   5.518
 5109POPC   PO465028   9.168  23.865   5.423
 5109POPC   GL165029   9.039  24.066   5.793
 5109POPC   GL265030   8.687  23.918   5.774
 5109POPC   C1A65031   8.923  24.002   6.230
 5109POPC   D2A65032   9.014  23.744   6.592
 5109POPC   C3A65033   8.863  23.980   6.915
 5109POPC   C4A65034   8.936  24.135   7.307
 5109POPC   C1B65035   8.691  23.583   6.061
 5109POPC   C2B65036   8.550  23.575   6.444
 5109POPC   C3B65037   8.591  23.543   6.872
 5109POPC   C4B65038   8.693  23.704   7.305
 5110POPC   NC365039  32.801   5.988   5.407
 5110POPC   PO465040  33.374   5.651   5.374
 5110POPC   GL165041  33.154   5.786   5.802
 5110POPC   GL265042  32.791   5.821   5.879
 5110POPC   C1A65043  33.106   5.819   6.284
 5110POPC   D2A65044  33.346   6.057   6.626
 5110POPC   C3A65045  33.267   5.930   7.053
 5110POPC   C4A65046  32.984   5.744   7.361
 5110POPC   C1B65047  32.770   6.186   6.112
 5110POPC   C2B65048  32.843   6.201   6.538
 5110POPC   C3B65049  32.768   6.044   6.941
 5110POPC   C4B65050  32.631   6.133   7.334
 5111POPC   NC365051  17.428  20.569   5.386
 5111POPC   PO465052  17.391  20.078   5.754
 5111POPC   GL165053  17.614  20.473   5.887
 5111POPC   GL265054  17.542  20.838   5.809
 5111POPC   C1A65055  17.667  20.662   6.293
 5111POPC   D2A65056  17.770  20.457   6.677
 5111POPC   C3A65057  17.393  20.308   6.926
 5111POPC   C4A65058  17.288  20.519   7.333
 5111POPC   C1B65059  17.226  20.958   6.148
 5111POPC   C2B65060  17.122  20.868   6.596
 5111POPC   C3B65061  17.462  20.832   6.895
 5111POPC   C4B65062  17.602  20.936   7.294
 5112POPC   NC365063  11.104  14.961   5.063
 5112POPC   PO465064  11.245  14.981   5.655
 5112POPC   GL165065  11.263  15.203   5.988
 5112POPC   GL265066  11.003  15.387   5.896
 5112POPC   C1A65067  11.325  15.151   6.413
 5112POPC   D2A65068  11.650  14.942   6.628
 5112POPC   C3A65069  11.738  15.123   7.018
 5112POPC   C4A65070  11.493  15.123   7.395
 5112POPC   C1B65071  11.012  15.595   6.250
 5112POPC   C2B65072  11.159  15.576   6.651
 5112POPC   C3B65073  11.251  15.259   6.942
 5112POPC   C4B65074  11.154  15.488   7.300
 5113POPC   NC365075  44.242  37.684   5.559
 5113POPC   PO465076  43.789  38.007   5.237
 5113POPC   GL165077  43.817  37.804   5.766
 5113POPC   GL265078  43.913  37.439   5.877
 5113POPC   C1A65079  43.601  37.696   6.182
 5113POPC   D2A65080  43.582  37.310   6.460
 5113POPC   C3A65081  43.692  37.400   6.892
 5113POPC   C4A65082  43.737  37.750   7.155
 5113POPC   C1B65083  44.105  37.619   6.229
 5113POPC   C2B65084  43.943  37.768   6.639
 5113POPC   C3B65085  44.195  37.607   6.997
 5113POPC   C4B65086  44.401  37.759   7.371
 5114POPC   NC365087  39.517  32.467   5.515
 5114POPC   PO465088  39.053  31.908   5.660
 5114POPC   GL165089  39.105  32.245   5.952
 5114POPC   GL265090  38.961  32.578   5.884
 5114POPC   C1A65091  39.074  32.181   6.416
 5114POPC   D2A65092  39.315  32.000   6.761
 5114POPC   C3A65093  39.181  32.024   7.188
 5114POPC   C4A65094  39.470  32.159   7.512
 5114POPC   C1B65095  39.207  32.661   6.274
 5114POPC   C2B65096  39.325  32.525   6.720
 5114POPC   C3B65097  39.254  32.534   7.195
 5114POPC   C4B65098  39.014  32.356   7.571
 5115POPC   NC365099   6.263  15.663   5.408
 5115POPC   PO465100   5.818  16.127   5.460
 5115POPC   GL165101   5.709  15.971   5.853
 5115POPC   GL265102   6.015  15.804   5.853
 5115POPC   C1A65103   5.756  16.052   6.301
 5115POPC   D2A65104   5.911  16.082   6.724
 5115POPC   C3A65105   5.691  15.942   7.099
 5115POPC   C4A65106   5.681  15.670   7.479
 5115POPC   C1B65107   6.231  15.820   6.257
 5115POPC   C2B65108   6.254  15.693   6.700
 5115POPC   C3B65109   6.196  15.814   7.102
 5115POPC   C4B65110   6.131  16.275   7.157
 5116POPC   NC365111  33.138  34.941   5.496
 5116POPC   PO465112  32.987  35.560   5.598
 5116POPC   GL165113  33.174  35.287   5.888
 5116POPC   GL265114  32.913  35.043   5.953
 5116POPC   C1A65115  33.290  35.182   6.337
 5116POPC   D2A65116  33.097  35.197   6.763
 5116POPC   C3A65117  33.288  35.439   7.102
 5116POPC   C4A65118  33.227  35.408   7.539
 5116POPC   C1B65119  32.758  35.235   6.333
 5116POPC   C2B65120  32.758  35.588   6.637
 5116POPC   C3B65121  32.802  35.598   7.034
 5116POPC   C4B65122  32.793  35.252   7.313
 5117POPC   NC365123  11.018  22.267   5.474
 5117POPC   PO465124  11.722  22.181   5.398
 5117POPC   GL165125  11.520  22.033   5.818
 5117POPC   GL265126  11.303  22.318   5.988
 5117POPC   C1A65127  11.442  21.877   6.267
 5117POPC   D2A65128  11.349  22.119   6.652
 5117POPC   C3A65129  11.313  21.926   7.041
 5117POPC   C4A65130  10.935  21.844   7.258
 5117POPC   C1B65131  10.974  22.604   6.208
 5117POPC   C2B65132  10.873  22.675   6.649
 5117POPC   C3B65133  11.018  22.410   7.018
 5117POPC   C4B65134  11.226  22.317   7.418
 5118POPC   NC365135  15.216  18.482   4.860
 5118POPC   PO465136  15.249  18.406   5.480
 5118POPC   GL165137  15.284  18.438   5.866
 5118POPC   GL265138  14.944  18.375   5.978
 5118POPC   C1A65139  15.313  18.124   6.194
 5118POPC   D2A65140  15.425  18.029   6.582
 5118POPC   C3A65141  15.606  18.367   6.790
 5118POPC   C4A65142  15.402  18.419   7.167
 5118POPC   C1B65143  14.739  18.138   6.323
 5118POPC   C2B65144  14.642  18.191   6.776
 5118POPC   C3B65145  14.875  18.234   7.170
 5118POPC   C4B65146  14.789  18.069   7.584
 5119POPC   NC365147   6.118  26.149   5.300
 5119POPC   PO465148   5.515  25.799   5.552
 5119POPC   GL165149   5.744  26.107   5.826
 5119POPC   GL265150   6.104  26.220   5.798
 5119POPC   C1A65151   5.834  26.147   6.283
 5119POPC   D2A65152   5.772  25.917   6.688
 5119POPC   C3A65153   5.710  26.216   7.034
 5119POPC   C4A65154   5.693  26.381   7.444
 5119POPC   C1B65155   6.305  26.360   6.168
 5119POPC   C2B65156   6.322  26.178   6.593
 5119POPC   C3B65157   6.189  26.034   6.987
 5119POPC   C4B65158   6.228  26.293   7.370
 5120POPC   NC365159  22.117   7.030   5.501
 5120POPC   PO465160  22.138   7.662   5.413
 5120POPC   GL165161  22.060   7.439   5.805
 5120POPC   GL265162  21.753   7.550   5.913
 5120POPC   C1A65163  22.203   7.453   6.241
 5120POPC   D2A65164  22.485   7.310   6.559
 5120POPC   C3A65165  22.389   7.371   6.979
 5120POPC   C4A65166  22.629   7.576   7.336
 5120POPC   C1B65167  21.744   7.251   6.265
 5120POPC   C2B65168  21.889   7.392   6.688
 5120POPC   C3B65169  21.917   7.481   7.133
 5120POPC   C4B65170  21.807   7.266   7.500
 5121POPC   NC365171  21.107  19.412   5.618
 5121POPC   PO465172  20.580  19.015   5.452
 5121POPC   GL165173  20.687  18.902   5.856
 5121POPC   GL265174  20.820  19.193   5.980
 5121POPC   C1A65175  20.495  18.856   6.238
 5121POPC   D2A65176  20.466  19.034   6.642
 5121POPC   C3A65177  20.618  18.752   6.931
 5121POPC   C4A65178  20.819  18.890   7.223
 5121POPC   C1B65179  20.498  19.374   6.221
 5121POPC   C2B65180  20.549  19.542   6.638
 5121POPC   C3B65181  20.658  19.364   7.033
 5121POPC   C4B65182  20.502  19.427   7.436
 5122POPC   NC365183  20.990   3.153   5.503
 5122POPC   PO465184  20.722   2.554   5.475
 5122POPC   GL165185  20.966   2.740   5.833
 5122POPC   GL265186  20.662   2.959   5.894
 5122POPC   C1A65187  20.942   2.868   6.308
 5122POPC   D2A65188  20.604   2.768   6.585
 5122POPC   C3A65189  20.694   2.592   6.988
 5122POPC   C4A65190  20.816   2.780   7.378
 5122POPC   C1B65191  20.305   3.134   6.178
 5122POPC   C2B65192  20.270   3.165   6.654
 5122POPC   C3B65193  20.439   3.033   7.088
 5122POPC   C4B65194  20.445   3.085   7.578
 5123POPC   NC365195  34.053  19.204   5.142
 5123POPC   PO465196  34.623  18.910   5.398
 5123POPC   GL165197  34.727  19.124   5.755
 5123POPC   GL265198  34.394  19.127   5.848
 5123POPC   C1A65199  34.946  19.164   6.125
 5123POPC   D2A65200  34.933  19.067   6.574
 5123POPC   C3A65201  34.687  18.794   6.803
 5123POPC   C4A65202  34.699  18.907   7.217
 5123POPC   C1B65203  34.471  19.063   6.275
 5123POPC   C2B65204  34.472  19.245   6.672
 5123POPC   C3B65205  34.286  19.130   7.041
 5123POPC   C4B65206  33.956  19.340   7.223
 5124POPC   NC365207  32.100   9.706   5.376
 5124POPC   PO465208  32.272  10.236   5.708
 5124POPC   GL165209  32.481   9.911   5.926
 5124POPC   GL265210  32.396   9.575   5.844
 5124POPC   C1A65211  32.688   9.771   6.285
 5124POPC   D2A65212  32.777   9.960   6.658
 5124POPC   C3A65213  32.397   9.955   6.916
 5124POPC   C4A65214  32.518   9.863   7.330
 5124POPC   C1B65215  32.240   9.492   6.296
 5124POPC   C2B65216  32.215   9.481   6.772
 5124POPC   C3B65217  32.141   9.481   7.238
 5124POPC   C4B65218  32.011   9.396   7.718
 5125POPC   NC365219   8.908  29.461   5.463
 5125POPC   PO465220   9.171  28.788   5.388
 5125POPC   GL165221   9.044  29.019   5.761
 5125POPC   GL265222   8.729  29.199   5.886
 5125POPC   C1A65223   9.118  29.070   6.193
 5125POPC   D2A65224   8.882  29.033   6.560
 5125POPC   C3A65225   9.158  28.990   6.876
 5125POPC   C4A65226   9.239  29.034   7.289
 5125POPC   C1B65227   8.774  29.479   6.259
 5125POPC   C2B65228   8.741  29.506   6.712
 5125POPC   C3B65229   8.777  29.223   7.093
 5125POPC   C4B65230   8.759  29.306   7.532
 5126POPC   NC365231  35.156  38.097   5.294
 5126POPC   PO465232  35.472  38.515   5.750
 5126POPC   GL165233  35.190  38.377   5.998
 5126POPC   GL265234  35.077  38.137   5.802
 5126POPC   C1A65235  35.274  38.480   6.408
 5126POPC   D2A65236  35.625  38.638   6.653
 5126POPC   C3A65237  35.500  38.758   7.061
 5126POPC   C4A65238  35.576  38.704   7.532
 5126POPC   C1B65239  35.166  37.911   6.207
 5126POPC   C2B65240  35.124  38.060   6.637
 5126POPC   C3B65241  35.387  38.237   6.915
 5126POPC   C4B65242  35.256  38.391   7.302
 5127POPC   NC365243  25.887  39.801   5.335
 5127POPC   PO465244  26.236  40.294   5.659
 5127POPC   GL165245  26.056  39.938   5.854
 5127POPC   GL265246  25.698  39.820   5.787
 5127POPC   C1A65247  26.029  39.962   6.302
 5127POPC   D2A65248  25.985  40.189   6.688
 5127POPC   C3A65249  25.810  40.068   7.072
 5127POPC   C4A65250  26.071  40.025   7.442
 5127POPC   C1B65251  25.597  40.105   6.094
 5127POPC   C2B65252  25.558  39.843   6.487
 5127POPC   C3B65253  25.565  39.624   6.884
 5127POPC   C4B65254  25.762  39.623   7.297
 5128POPC   NC365255  14.345  42.830   5.447
 5128POPC   PO465256  14.131  43.451   5.445
 5128POPC   GL165257  14.343  43.257   5.817
 5128POPC   GL265258  14.435  42.906   5.924
 5128POPC   C1A65259  14.485  43.480   6.190
 5128POPC   D2A65260  14.699  43.434   6.573
 5128POPC   C3A65261  14.587  43.297   7.036
 5128POPC   C4A65262  14.431  42.883   7.252
 5128POPC   C1B65263  14.247  43.050   6.290
 5128POPC   C2B65264  14.209  43.265   6.676
 5128POPC   C3B65265  14.047  43.174   7.097
 5128POPC   C4B65266  14.080  43.046   7.550
 5129POPC   NC365267  32.242  31.087   5.449
 5129POPC   PO465268  32.271  30.466   5.171
 5129POPC   GL165269  32.180  30.418   5.603
 5129POPC   GL265270  31.877  30.554   5.694
 5129POPC   C1A65271  32.219  30.428   6.086
 5129POPC   D2A65272  32.045  30.390   6.529
 5129POPC   C3A65273  32.209  30.551   6.964
 5129POPC   C4A65274  32.464  30.580   7.378
 5129POPC   C1B65275  31.833  30.774   6.116
 5129POPC   C2B65276  31.969  30.915   6.546
 5129POPC   C3B65277  31.784  30.902   6.965
 5129POPC   C4B65278  31.977  30.841   7.382
 5130POPC   NC365279  30.737   8.536   5.426
 5130POPC   PO465280  30.885   9.179   5.412
 5130POPC   GL165281  30.576   9.104   5.742
 5130POPC   GL265282  30.329   8.823   5.726
 5130POPC   C1A65283  30.696   9.019   6.159
 5130POPC   D2A65284  30.758   9.249   6.505
 5130POPC   C3A65285  30.809   9.121   6.898
 5130POPC   C4A65286  30.832   9.322   7.318
 5130POPC   C1B65287  30.445   8.586   6.092
 5130POPC   C2B65288  30.781   8.561   6.429
 5130POPC   C3B65289  30.707   8.626   6.876
 5130POPC   C4B65290  30.805   8.795   7.281
 5131POPC   NC365291  15.415  19.341   5.430
 5131POPC   PO465292  15.109  18.816   5.169
 5131POPC   GL165293  15.214  18.960   5.686
 5131POPC   GL265294  14.982  18.891   5.954
 5131POPC   C1A65295  15.343  19.167   6.124
 5131POPC   D2A65296  15.224  19.186   6.595
 5131POPC   C3A65297  15.506  19.108   6.978
 5131POPC   C4A65298  15.336  19.299   7.369
 5131POPC   C1B65299  15.229  18.687   6.288
 5131POPC   C2B65300  15.089  18.420   6.600
 5131POPC   C3B65301  14.902  18.670   6.886
 5131POPC   C4B65302  15.143  18.843   7.185
 5132POPC   NC365303  24.532   4.004   5.162
 5132POPC   PO465304  24.280   4.604   5.487
 5132POPC   GL165305  24.441   4.740   5.869
 5132POPC   GL265306  24.519   4.425   6.036
 5132POPC   C1A65307  24.598   4.851   6.304
 5132POPC   D2A65308  24.672   4.500   6.581
 5132POPC   C3A65309  24.694   4.563   7.023
 5132POPC   C4A65310  24.516   4.430   7.396
 5132POPC   C1B65311  24.328   4.134   6.312
 5132POPC   C2B65312  24.401   4.047   6.723
 5132POPC   C3B65313  24.450   4.006   7.127
 5132POPC   C4B65314  24.356   3.638   7.283
 5133POPC   NC365315   6.746  30.870   5.314
 5133POPC   PO465316   6.270  30.516   5.335
 5133POPC   GL165317   6.460  30.701   5.749
 5133POPC   GL265318   6.759  30.908   5.832
 5133POPC   C1A65319   6.602  30.592   6.187
 5133POPC   D2A65320   6.594  30.827   6.578
 5133POPC   C3A65321   6.436  30.550   6.896
 5133POPC   C4A65322   6.625  30.480   7.288
 5133POPC   C1B65323   7.036  30.856   6.246
 5133POPC   C2B65324   7.003  30.520   6.568
 5133POPC   C3B65325   6.969  30.678   6.971
 5133POPC   C4B65326   6.992  30.813   7.414
 5134POPC   NC365327  23.401  36.008   5.130
 5134POPC   PO465328  23.970  36.341   5.386
 5134POPC   GL165329  23.851  36.241   5.771
 5134POPC   GL265330  23.766  35.905   5.637
 5134POPC   C1A65331  23.939  36.303   6.217
 5134POPC   D2A65332  23.936  36.482   6.645
 5134POPC   C3A65333  23.834  36.207   7.001
 5134POPC   C4A65334  23.675  36.328   7.401
 5134POPC   C1B65335  23.638  35.903   6.092
 5134POPC   C2B65336  23.564  36.109   6.531
 5134POPC   C3B65337  23.327  36.090   6.923
 5134POPC   C4B65338  23.289  35.849   7.293
 5135POPC   NC365339  27.200   9.943   5.481
 5135POPC   PO465340  26.668   9.635   5.256
 5135POPC   GL165341  26.790   9.610   5.695
 5135POPC   GL265342  27.031   9.770   5.910
 5135POPC   C1A65343  26.650   9.514   6.109
 5135POPC   D2A65344  26.497   9.671   6.475
 5135POPC   C3A65345  26.723   9.555   6.822
 5135POPC   C4A65346  26.687   9.513   7.233
 5135POPC   C1B65347  26.854   9.981   6.247
 5135POPC   C2B65348  26.968  10.017   6.684
 5135POPC   C3B65349  27.019   9.912   7.114
 5135POPC   C4B65350  26.734   9.958   7.454
 5136POPC   NC365351  27.545  23.929   5.492
 5136POPC   PO465352  28.131  23.475   5.491
 5136POPC   GL165353  27.745  23.581   5.821
 5136POPC   GL265354  27.405  23.448   5.739
 5136POPC   C1A65355  27.509  23.815   6.209
 5136POPC   D2A65356  27.632  23.949   6.679
 5136POPC   C3A65357  27.394  23.833   7.114
 5136POPC   C4A65358  27.215  24.012   7.567
 5136POPC   C1B65359  27.302  23.325   6.180
 5136POPC   C2B65360  27.282  23.529   6.610
 5136POPC   C3B65361  27.252  23.337   7.020
 5136POPC   C4B65362  27.635  23.293   7.249
 5137POPC   NC365363   6.024  28.535   5.342
 5137POPC   PO465364   5.595  28.085   5.262
 5137POPC   GL165365   5.828  28.145   5.662
 5137POPC   GL265366   5.735  28.476   5.789
 5137POPC   C1A65367   6.055  28.127   6.083
 5137POPC   D2A65368   5.987  27.993   6.530
 5137POPC   C3A65369   5.875  28.252   6.888
 5137POPC   C4A65370   5.885  28.107   7.278
 5137POPC   C1B65371   5.962  28.619   6.157
 5137POPC   C2B65372   6.112  28.501   6.519
 5137POPC   C3B65373   6.122  28.724   6.877
 5137POPC   C4B65374   6.095  28.563   7.268
 5138POPC   NC365375  30.951  28.248   5.412
 5138POPC   PO465376  30.731  28.808   5.269
 5138POPC   GL165377  30.667  28.541   5.709
 5138POPC   GL265378  30.922  28.372   5.887
 5138POPC   C1A65379  30.536  28.488   6.185
 5138POPC   D2A65380  30.615  28.717   6.568
 5138POPC   C3A65381  30.722  28.558   6.970
 5138POPC   C4A65382  30.501  28.406   7.325
 5138POPC   C1B65383  30.906  28.088   6.214
 5138POPC   C2B65384  30.696  28.175   6.599
 5138POPC   C3B65385  30.827  28.051   7.010
 5138POPC   C4B65386  31.013  28.258   7.327
 5139POPC   NC365387   7.971   0.057   5.547
 5139POPC   PO465388   8.252   0.697   5.675
 5139POPC   GL165389   8.005   0.544   5.989
 5139POPC   GL265390   7.909   0.181   6.036
 5139POPC   C1A65391   8.106   0.497   6.407
 5139POPC   D2A65392   8.128   0.367   6.811
 5139POPC   C3A65393   8.186   0.679   7.119
 5139POPC   C4A65394   7.855   0.464   7.283
 5139POPC   C1B65395   8.369   0.180   6.101
 5139POPC   C2B65396   8.512   0.102   6.504
 5139POPC   C3B65397   8.609   0.240   6.908
 5139POPC   C4B65398   8.366   0.234   7.284
 5140POPC   NC365399  10.128   4.426   5.675
 5140POPC   PO465400   9.553   4.066   5.485
 5140POPC   GL165401   9.631   4.255   5.847
 5140POPC   GL265402   9.598   4.590   5.760
 5140POPC   C1A65403   9.495   4.159   6.266
 5140POPC   D2A65404   9.443   4.445   6.604
 5140POPC   C3A65405   9.735   4.399   6.920
 5140POPC   C4A65406   9.645   4.247   7.312
 5140POPC   C1B65407   9.730   4.629   6.206
 5140POPC   C2B65408  10.090   4.596   6.490
 5140POPC   C3B65409  10.192   4.647   6.935
 5140POPC   C4B65410   9.929   4.694   7.338
 5141POPC   NC365411   0.193  29.957   5.564
 5141POPC   PO465412  44.556  29.963   5.302
 5141POPC   GL165413  44.701  29.971   5.766
 5141POPC   GL265414  44.383  29.858   5.905
 5141POPC   C1A65415  44.735  30.169   6.223
 5141POPC   D2A65416  44.704  30.016   6.693
 5141POPC   C3A65417  44.897  30.156   7.111
 5141POPC   C4A65418   0.060  29.833   7.462
 5141POPC   C1B65419  44.431  29.524   6.221
 5141POPC   C2B65420  44.331  29.628   6.621
 5141POPC   C3B65421  44.292  29.839   6.985
 5141POPC   C4B65422  44.622  29.750   7.221
 5142POPC   NC365423  42.645  29.061   5.228
 5142POPC   PO465424  43.307  28.769   5.255
 5142POPC   GL165425  43.247  28.981   5.646
 5142POPC   GL265426  42.884  29.026   5.692
 5142POPC   C1A65427  43.205  28.957   6.106
 5142POPC   D2A65428  43.126  29.281   6.448
 5142POPC   C3A65429  43.142  29.079   6.850
 5142POPC   C4A65430  43.007  28.913   7.214
 5142POPC   C1B65431  42.708  29.072   6.126
 5142POPC   C2B65432  42.863  28.854   6.490
 5142POPC   C3B65433  42.678  28.731   6.848
 5142POPC   C4B65434  42.519  28.759   7.262
 5143POPC   NC365435  34.141  29.378   5.380
 5143POPC   PO465436  33.644  29.846   5.294
 5143POPC   GL165437  33.758  29.958   5.745
 5143POPC   GL265438  34.037  29.755   5.749
 5143POPC   C1A65439  33.736  30.104   6.209
 5143POPC   D2A65440  33.839  30.060   6.657
 5143POPC   C3A65441  33.540  29.996   7.004
 5143POPC   C4A65442  33.727  30.247   7.308
 5143POPC   C1B65443  33.913  29.641   6.153
 5143POPC   C2B65444  34.036  29.608   6.553
 5143POPC   C3B65445  33.876  29.613   6.953
 5143POPC   C4B65446  33.846  29.762   7.376
 5144POPC   NC365447  11.076  28.489   5.387
 5144POPC   PO465448  11.621  28.194   5.616
 5144POPC   GL165449  11.328  28.422   5.836
 5144POPC   GL265450  10.977  28.349   5.855
 5144POPC   C1A65451  11.285  28.373   6.261
 5144POPC   D2A65452  11.499  28.290   6.604
 5144POPC   C3A65453  11.403  28.051   6.920
 5144POPC   C4A65454  11.417  28.296   7.274
 5144POPC   C1B65455  10.802  28.532   6.196
 5144POPC   C2B65456  10.948  28.589   6.587
 5144POPC   C3B65457  11.008  28.399   6.957
 5144POPC   C4B65458  11.019  28.590   7.349
 5145POPC   NC365459  27.051   3.836   5.315
 5145POPC   PO465460  26.497   3.417   5.114
 5145POPC   GL165461  26.676   3.545   5.532
 5145POPC   GL265462  26.930   3.336   5.588
 5145POPC   C1A65463  26.594   3.757   5.965
 5145POPC   D2A65464  26.746   3.836   6.394
 5145POPC   C3A65465  26.595   3.565   6.738
 5145POPC   C4A65466  26.678   3.708   7.146
 5145POPC   C1B65467  27.031   3.499   6.027
 5145POPC   C2B65468  27.141   3.463   6.483
 5145POPC   C3B65469  27.057   3.400   6.931
 5145POPC   C4B65470  26.946   3.182   7.309
 5146POPC   NC365471  38.718  14.059   5.012
 5146POPC   PO465472  38.215  14.436   5.358
 5146POPC   GL165473  38.431  14.603   5.742
 5146POPC   GL265474  38.698  14.367   5.859
 5146POPC   C1A65475  38.474  14.659   6.226
 5146POPC   D2A65476  38.715  14.420   6.559
 5146POPC   C3A65477  38.559  14.523   6.967
 5146POPC   C4A65478  38.370  14.921   7.082
 5146POPC   C1B65479  38.293  14.215   6.066
 5146POPC   C2B65480  38.248  14.134   6.482
 5146POPC   C3B65481  38.215  14.125   6.921
 5146POPC   C4B65482  38.029  14.512   7.118
 5147POPC   NC365483  13.946  43.963   5.439
 5147POPC   PO465484  13.365  43.579   5.416
 5147POPC   GL165485  13.323  43.812   5.800
 5147POPC   GL265486  13.664  43.869   5.845
 5147POPC   C1A65487  13.385  43.892   6.261
 5147POPC   D2A65488  13.499  44.083   6.690
 5147POPC   C3A65489  13.485  43.949   7.089
 5147POPC   C4A65490  13.739  43.592   7.203
 5147POPC   C1B65491  13.929  44.150   6.069
 5147POPC   C2B65492  13.980  44.156   6.493
 5147POPC   C3B65493  13.957  44.099   6.908
 5147POPC   C4B65494  13.958  44.044   7.330
 5148POPC   NC365495  29.638  34.038   5.507
 5148POPC   PO465496  30.098  33.671   5.182
 5148POPC   GL165497  30.090  33.545   5.670
 5148POPC   GL265498  29.755  33.629   5.773
 5148POPC   C1A65499  30.046  33.654   6.164
 5148POPC   D2A65500  30.194  33.686   6.574
 5148POPC   C3A65501  30.302  33.998   6.829
 5148POPC   C4A65502  30.200  33.921   7.233
 5148POPC   C1B65503  29.537  33.549   6.157
 5148POPC   C2B65504  29.556  33.751   6.562
 5148POPC   C3B65505  29.794  33.736   6.955
 5148POPC   C4B65506  29.679  33.928   7.342
 5149POPC   NC365507  44.952   7.398   5.621
 5149POPC   PO465508  44.274   7.542   5.536
 5149POPC   GL165509  44.486   7.325   5.864
 5149POPC   GL265510  44.583   7.624   5.976
 5149POPC   C1A65511  44.616   7.198   6.287
 5149POPC   D2A65512  44.602   7.434   6.667
 5149POPC   C3A65513  44.819   7.234   7.006
 5149POPC   C4A65514  44.901   7.345   7.404
 5149POPC   C1B65515  44.941   7.669   6.251
 5149POPC   C2B65516  44.954   7.863   6.655
 5149POPC   C3B65517  44.978   7.773   7.117
 5149POPC   C4B65518   0.030   7.791   7.582
 5150POPC   NC365519   9.669  21.122   5.393
 5150POPC   PO465520  10.075  21.697   5.519
 5150POPC   GL165521   9.961  21.343   5.771
 5150POPC   GL265522   9.601  21.417   5.808
 5150POPC   C1A65523   9.841  21.188   6.178
 5150POPC   D2A65524   9.949  21.354   6.544
 5150POPC   C3A65525   9.958  21.103   6.925
 5150POPC   C4A65526  10.076  21.242   7.328
 5150POPC   C1B65527   9.758  21.717   6.157
 5150POPC   C2B65528   9.689  21.784   6.604
 5150POPC   C3B65529   9.842  21.602   6.985
 5150POPC   C4B65530   9.669  21.546   7.365
 5151POPC   NC365531  40.128  32.311   5.225
 5151POPC   PO465532  39.578  32.040   5.349
 5151POPC   GL165533  39.694  32.071   5.802
 5151POPC   GL265534  39.952  32.335   5.829
 5151POPC   C1A65535  39.554  32.208   6.221
 5151POPC   D2A65536  39.771  32.261   6.610
 5151POPC   C3A65537  39.671  32.262   7.027
 5151POPC   C4A65538  39.957  32.129   7.323
 5151POPC   C1B65539  39.978  32.536   6.227
 5151POPC   C2B65540  40.236  32.476   6.626
 5151POPC   C3B65541  40.176  32.539   7.082
 5151POPC   C4B65542  40.221  32.551   7.540
 5152POPC   NC365543   4.209   7.483   5.261
 5152POPC   PO465544   4.651   6.971   5.366
 5152POPC   GL165545   4.456   7.223   5.689
 5152POPC   GL265546   4.396   7.594   5.719
 5152POPC   C1A65547   4.362   7.250   6.131
 5152POPC   D2A65548   4.165   7.195   6.537
 5152POPC   C3A65549   4.351   7.315   6.929
 5152POPC   C4A65550   4.221   7.230   7.341
 5152POPC   C1B65551   4.469   7.774   6.151
 5152POPC   C2B65552   4.544   7.655   6.579
 5152POPC   C3B65553   4.736   7.698   6.979
 5152POPC   C4B65554   4.425   7.704   7.283
 5153POPC   NC365555   5.710  42.165   5.553
 5153POPC   PO465556   5.854  42.863   5.444
 5153POPC   GL165557   5.813  42.604   5.813
 5153POPC   GL265558   5.455  42.511   5.890
 5153POPC   C1A65559   5.962  42.398   6.189
 5153POPC   D2A65560   5.851  42.314   6.603
 5153POPC   C3A65561   6.102  42.128   6.880
 5153POPC   C4A65562   6.161  42.338   7.242
 5153POPC   C1B65563   5.448  42.225   6.263
 5153POPC   C2B65564   5.392  42.129   6.712
 5153POPC   C3B65565   5.615  42.308   7.083
 5153POPC   C4B65566   5.570  42.278   7.571
 5154POPC   NC365567  22.567  20.117   5.589
 5154POPC   PO465568  23.097  20.002   5.236
 5154POPC   GL165569  23.044  19.871   5.703
 5154POPC   GL265570  22.733  19.701   5.829
 5154POPC   C1A65571  22.966  20.024   6.155
 5154POPC   D2A65572  23.037  19.755   6.506
 5154POPC   C3A65573  22.862  19.610   6.866
 5154POPC   C4A65574  22.970  19.721   7.292
 5154POPC   C1B65575  22.585  19.671   6.243
 5154POPC   C2B65576  22.477  19.874   6.623
 5154POPC   C3B65577  22.537  19.928   7.068
 5154POPC   C4B65578  22.599  20.087   7.460
 5155POPC   NC365579  16.227   4.094   5.562
 5155POPC   PO465580  16.682   4.461   5.107
 5155POPC   GL165581  16.755   4.245   5.634
 5155POPC   GL265582  16.496   4.184   5.962
 5155POPC   C1A65583  16.913   4.390   6.097
 5155POPC   D2A65584  16.795   4.183   6.515
 5155POPC   C3A65585  16.642   4.451   6.849
 5155POPC   C4A65586  16.919   4.622   7.158
 5155POPC   C1B65587  16.286   4.266   6.349
 5155POPC   C2B65588  16.341   4.011   6.722
 5155POPC   C3B65589  16.621   3.979   7.062
 5155POPC   C4B65590  16.661   4.247   7.390
 5156POPC   NC365591  28.205  36.472   5.630
 5156POPC   PO465592  28.068  35.798   5.404
 5156POPC   GL165593  28.269  35.821   5.799
 5156POPC   GL265594  28.528  36.092   5.774
 5156POPC   C1A65595  28.292  35.878   6.226
 5156POPC   D2A65596  28.278  36.132   6.566
 5156POPC   C3A65597  28.115  35.929   6.907
 5156POPC   C4A65598  27.845  35.895   7.283
 5156POPC   C1B65599  28.638  36.402   6.123
 5156POPC   C2B65600  28.684  36.465   6.557
 5156POPC   C3B65601  28.527  36.355   6.955
 5156POPC   C4B65602  28.636  35.907   7.061
 5157POPC   NC365603  43.396  12.957   5.406
 5157POPC   PO465604  42.826  12.676   5.342
 5157POPC   GL165605  43.042  12.740   5.730
 5157POPC   GL265606  42.968  13.090   5.770
 5157POPC   C1A65607  42.997  12.725   6.191
 5157POPC   D2A65608  43.162  12.880   6.602
 5157POPC   C3A65609  42.990  12.672   6.960
 5157POPC   C4A65610  43.115  12.491   7.362
 5157POPC   C1B65611  43.101  13.239   6.185
 5157POPC   C2B65612  43.156  13.432   6.596
 5157POPC   C3B65613  43.027  13.280   6.995
 5157POPC   C4B65614  43.241  13.006   7.254
 5158POPC   NC365615  10.309   9.549   5.502
 5158POPC   PO465616  10.947   9.685   5.438
 5158POPC   GL165617  10.657   9.759   5.812
 5158POPC   GL265618  10.429   9.493   5.992
 5158POPC   C1A65619  10.617   9.902   6.221
 5158POPC   D2A65620  10.725   9.706   6.599
 5158POPC   C3A65621  10.682   9.873   6.996
 5158POPC   C4A65622  10.351   9.830   7.266
 5158POPC   C1B65623  10.853   9.415   6.159
 5158POPC   C2B65624  11.069   9.334   6.547
 5158POPC   C3B65625  10.863   9.344   6.965
 5158POPC   C4B65626  10.737   9.511   7.371
 5159POPC   NC365627  40.514   5.039   5.206
 5159POPC   PO465628  40.951   5.344   5.512
 5159POPC   GL165629  40.597   5.199   5.730
 5159POPC   GL265630  40.653   4.877   5.813
 5159POPC   C1A65631  40.584   5.181   6.192
 5159POPC   D2A65632  40.833   5.333   6.502
 5159POPC   C3A65633  40.677   5.156   6.870
 5159POPC   C4A65634  40.777   5.247   7.274
 5159POPC   C1B65635  40.941   4.833   6.198
 5159POPC   C2B65636  41.135   4.914   6.605
 5159POPC   C3B65637  41.080   4.886   7.048
 5159POPC   C4B65638  41.077   4.866   7.520
 5160POPC   NC365639  20.668   0.881   5.203
 5160POPC   PO465640  20.629   0.216   5.263
 5160POPC   GL165641  20.659   0.455   5.660
 5160POPC   GL265642  20.349   0.549   5.738
 5160POPC   C1A65643  20.635   0.580   6.139
 5160POPC   D2A65644  20.862   0.598   6.524
 5160POPC   C3A65645  20.632   0.514   6.909
 5160POPC   C4A65646  20.747   0.445   7.345
 5160POPC   C1B65647  20.351   0.154   5.989
 5160POPC   C2B65648  20.153   0.025   6.379
 5160POPC   C3B65649  20.139   0.109   6.832
 5160POPC   C4B65650  20.492   0.063   7.120
 5161POPC   NC365651   5.358  24.609   5.498
 5161POPC   PO465652   5.858  24.128   5.530
 5161POPC   GL165653   5.682  24.441   5.853
 5161POPC   GL265654   5.749  24.815   5.785
 5161POPC   C1A65655   5.572  24.439   6.283
 5161POPC   D2A65656   5.908  24.416   6.553
 5161POPC   C3A65657   5.755  24.437   6.937
 5161POPC   C4A65658   5.850  24.240   7.309
 5161POPC   C1B65659   5.950  24.805   6.177
 5161POPC   C2B65660   5.874  24.921   6.570
 5161POPC   C3B65661   5.986  25.054   6.927
 5161POPC   C4B65662   5.882  24.798   7.257
 5162POPC   NC365663  33.783  20.062   5.468
 5162POPC   PO465664  34.050  19.393   5.559
 5162POPC   GL165665  33.840  19.673   5.829
 5162POPC   GL265666  33.995  20.014   5.911
 5162POPC   C1A65667  33.716  19.689   6.277
 5162POPC   D2A65668  33.932  19.722   6.707
 5162POPC   C3A65669  33.635  19.702   7.060
 5162POPC   C4A65670  33.360  19.420   7.294
 5162POPC   C1B65671  34.027  20.085   6.331
 5162POPC   C2B65672  33.680  20.163   6.589
 5162POPC   C3B65673  33.902  20.150   6.966
 5162POPC   C4B65674  34.057  19.935   7.259
 5163POPC   NC365675  40.997  11.068   5.530
 5163POPC   PO465676  40.645  11.657   5.518
 5163POPC   GL165677  40.717  11.373   5.861
 5163POPC   GL265678  41.045  11.432   5.879
 5163POPC   C1A65679  40.789  11.264   6.315
 5163POPC   D2A65680  40.535  11.382   6.665
 5163POPC   C3A65681  40.595  11.217   7.074
 5163POPC   C4A65682  40.700  11.170   7.531
 5163POPC   C1B65683  40.904  11.744   6.167
 5163POPC   C2B65684  40.963  11.722   6.581
 5163POPC   C3B65685  41.005  11.488   6.917
 5163POPC   C4B65686  40.798  11.625   7.282
 5164POPC   NC365687  41.018   0.610   5.117
 5164POPC   PO465688  40.447   0.447   5.417
 5164POPC   GL165689  40.742   0.554   5.787
 5164POPC   GL265690  41.120   0.436   5.801
 5164POPC   C1A65691  40.707   0.440   6.255
 5164POPC   D2A65692  40.863   0.411   6.699
 5164POPC   C3A65693  40.608   0.420   7.064
 5164POPC   C4A65694  40.582   0.320   7.518
 5164POPC   C1B65695  41.099   0.756   6.108
 5164POPC   C2B65696  40.980   0.860   6.528
 5164POPC   C3B65697  41.040   0.788   6.994
 5164POPC   C4B65698  41.090   0.473   7.339
 5165POPC   NC365699  38.498  16.823   5.521
 5165POPC   PO465700  38.102  16.229   5.308
 5165POPC   GL165701  38.311  16.330   5.723
 5165POPC   GL265702  38.656  16.367   5.780
 5165POPC   C1A65703  38.271  16.341   6.187
 5165POPC   D2A65704  38.168  16.653   6.516
 5165POPC   C3A65705  38.342  16.571   6.934
 5165POPC   C4A65706  38.306  16.721   7.357
 5165POPC   C1B65707  38.718  16.625   6.194
 5165POPC   C2B65708  38.644  16.855   6.603
 5165POPC   C3B65709  38.471  17.090   7.000
 5165POPC   C4B65710  38.391  17.213   7.455
 5166POPC   NC365711  30.152  43.291   5.612
 5166POPC   PO465712  29.692  42.845   5.464
 5166POPC   GL165713  29.873  42.930   5.870
 5166POPC   GL265714  29.690  43.247   5.841
 5166POPC   C1A65715  30.105  42.793   6.281
 5166POPC   D2A65716  30.033  42.593   6.726
 5166POPC   C3A65717  29.853  42.929   7.019
 5166POPC   C4A65718  30.028  43.310   7.248
 5166POPC   C1B65719  29.620  43.362   6.242
 5166POPC   C2B65720  29.670  43.263   6.646
 5166POPC   C3B65721  29.567  43.406   7.026
 5166POPC   C4B65722  29.554  43.153   7.384
 5167POPC   NC365723  42.127  37.148   5.399
 5167POPC   PO465724  42.812  36.881   5.371
 5167POPC   GL165725  42.530  36.925   5.776
 5167POPC   GL265726  42.301  37.211   5.863
 5167POPC   C1A65727  42.636  37.098   6.227
 5167POPC   D2A65728  42.805  37.096   6.662
 5167POPC   C3A65729  42.456  37.136   6.971
 5167POPC   C4A65730  42.401  36.976   7.371
 5167POPC   C1B65731  41.891  37.308   6.064
 5167POPC   C2B65732  41.802  37.432   6.481
 5167POPC   C3B65733  41.823  37.509   6.904
 5167POPC   C4B65734  42.020  37.312   7.249
 5168POPC   NC365735   6.328  24.015   5.502
 5168POPC   PO465736   6.890  23.559   5.392
 5168POPC   GL165737   6.628  23.607   5.797
 5168POPC   GL265738   6.608  23.948   5.922
 5168POPC   C1A65739   6.666  23.550   6.277
 5168POPC   D2A65740   6.692  23.789   6.691
 5168POPC   C3A65741   6.834  23.658   7.136
 5168POPC   C4A65742   7.041  23.629   7.581
 5168POPC   C1B65743   6.312  24.193   6.189
 5168POPC   C2B65744   6.333  24.154   6.633
 5168POPC   C3B65745   6.259  23.879   7.011
 5168POPC   C4B65746   6.320  24.052   7.454
 5169POPC   NC365747   5.193   2.708   5.382
 5169POPC   PO465748   4.572   2.950   5.371
 5169POPC   GL165749   4.928   2.987   5.746
 5169POPC   GL265750   5.246   2.798   5.869
 5169POPC   C1A65751   4.892   2.845   6.211
 5169POPC   D2A65752   5.179   2.903   6.561
 5169POPC   C3A65753   4.989   2.817   6.954
 5169POPC   C4A65754   4.678   2.834   7.261
 5169POPC   C1B65755   5.374   2.548   6.242
 5169POPC   C2B65756   5.271   2.417   6.733
 5169POPC   C3B65757   5.328   2.562   7.216
 5169POPC   C4B65758   5.304   2.473   7.682
 5170POPC   NC365759  13.584  38.240   5.423
 5170POPC   PO465760  13.206  38.893   5.579
 5170POPC   GL165761  13.367  38.522   5.809
 5170POPC   GL265762  13.745  38.524   5.852
 5170POPC   C1A65763  13.425  38.251   6.198
 5170POPC   D2A65764  13.582  38.357   6.625
 5170POPC   C3A65765  13.412  38.587   6.974
 5170POPC   C4A65766  13.452  38.441   7.408
 5170POPC   C1B65767  13.962  38.350   6.251
 5170POPC   C2B65768  14.033  38.131   6.688
 5170POPC   C3B65769  13.828  38.263   7.113
 5170POPC   C4B65770  13.902  38.343   7.606
 5171POPC   NC365771  25.528  14.591   5.392
 5171POPC   PO465772  25.175  14.142   5.236
 5171POPC   GL165773  25.338  14.160   5.708
 5171POPC   GL265774  25.515  14.430   5.861
 5171POPC   C1A65775  25.402  14.052   6.162
 5171POPC   D2A65776  25.551  14.012   6.582
 5171POPC   C3A65777  25.317  14.248   6.892
 5171POPC   C4A65778  25.288  14.129   7.300
 5171POPC   C1B65779  25.471  14.744   6.178
 5171POPC   C2B65780  25.392  14.800   6.609
 5171POPC   C3B65781  25.515  14.698   7.006
 5171POPC   C4B65782  25.403  14.690   7.435
 5172POPC   NC365783  24.097  14.026   5.654
 5172POPC   PO465784  24.337  13.599   5.191
 5172POPC   GL165785  24.427  13.633   5.653
 5172POPC   GL265786  24.118  13.517   5.793
 5172POPC   C1A65787  24.543  13.671   6.117
 5172POPC   D2A65788  24.380  13.725   6.546
 5172POPC   C3A65789  24.595  13.749   6.966
 5172POPC   C4A65790  24.339  13.809   7.349
 5172POPC   C1B65791  24.156  13.358   6.207
 5172POPC   C2B65792  24.214  13.242   6.621
 5172POPC   C3B65793  24.146  13.481   6.992
 5172POPC   C4B65794  24.155  13.322   7.418
 5173POPC   NC365795  19.809  43.349   5.471
 5173POPC   PO465796  19.317  42.850   5.561
 5173POPC   GL165797  19.562  43.085   5.845
 5173POPC   GL265798  19.495  43.432   5.894
 5173POPC   C1A65799  19.942  42.985   6.080
 5173POPC   D2A65800  20.083  43.094   6.470
 5173POPC   C3A65801  20.092  43.063   6.927
 5173POPC   C4A65802  20.034  43.363   7.256
 5173POPC   C1B65803  19.642  43.341   6.288
 5173POPC   C2B65804  19.739  43.405   6.694
 5173POPC   C3B65805  19.600  43.226   7.032
 5173POPC   C4B65806  19.552  43.521   7.342
 5174POPC   NC365807  14.793   1.188   5.162
 5174POPC   PO465808  14.395   1.759   5.353
 5174POPC   GL165809  14.520   1.522   5.745
 5174POPC   GL265810  14.393   1.169   5.823
 5174POPC   C1A65811  14.586   1.469   6.193
 5174POPC   D2A65812  14.389   1.360   6.568
 5174POPC   C3A65813  14.578   1.296   6.952
 5174POPC   C4A65814  14.392   1.367   7.329
 5174POPC   C1B65815  14.420   0.964   6.230
 5174POPC   C2B65816  14.345   0.857   6.679
 5174POPC   C3B65817  14.300   0.867   7.134
 5174POPC   C4B65818  14.273   0.949   7.583
 5175POPC   NC365819  43.212  35.786   5.532
 5175POPC   PO465820  43.280  36.410   5.527
 5175POPC   GL165821  43.095  36.176   5.873
 5175POPC   GL265822  42.808  35.926   5.861
 5175POPC   C1A65823  43.235  35.908   6.201
 5175POPC   D2A65824  43.160  35.868   6.611
 5175POPC   C3A65825  43.253  36.237   6.838
 5175POPC   C4A65826  43.074  36.393   7.194
 5175POPC   C1B65827  42.764  36.097   6.310
 5175POPC   C2B65828  42.739  36.149   6.777
 5175POPC   C3B65829  42.931  35.910   7.096
 5175POPC   C4B65830  42.851  35.723   7.468
 5176POPC   NC365831  21.491  34.916   5.481
 5176POPC   PO465832  21.187  34.282   5.494
 5176POPC   GL165833  21.408  34.499   5.832
 5176POPC   GL265834  21.204  34.817   5.901
 5176POPC   C1A65835  21.538  34.432   6.275
 5176POPC   D2A65836  21.759  34.316   6.676
 5176POPC   C3A65837  21.557  34.412   7.078
 5176POPC   C4A65838  21.107  34.484   7.234
 5176POPC   C1B65839  21.530  34.955   6.197
 5176POPC   C2B65840  21.664  34.830   6.626
 5176POPC   C3B65841  21.372  34.879   6.979
 5176POPC   C4B65842  21.199  34.985   7.395
 5177POPC   NC365843  37.145   7.002   5.425
 5177POPC   PO465844  36.858   6.418   5.306
 5177POPC   GL165845  36.973   6.602   5.692
 5177POPC   GL265846  36.685   6.567   5.875
 5177POPC   C1A65847  37.089   6.877   6.074
 5177POPC   D2A65848  37.263   7.008   6.485
 5177POPC   C3A65849  37.039   6.914   6.870
 5177POPC   C4A65850  36.872   6.796   7.300
 5177POPC   C1B65851  37.059   6.358   6.115
 5177POPC   C2B65852  37.070   6.536   6.498
 5177POPC   C3B65853  36.943   6.427   6.895
 5177POPC   C4B65854  36.611   6.368   7.186
 5178POPC   NC365855  36.926  28.785   5.639
 5178POPC   PO465856  36.874  28.160   5.515
 5178POPC   GL165857  36.831  28.307   5.917
 5178POPC   GL265858  36.946  27.963   6.034
 5178POPC   C1A65859  37.022  28.552   6.265
 5178POPC   D2A65860  37.237  28.598   6.685
 5178POPC   C3A65861  36.916  28.611   7.026
 5178POPC   C4A65862  36.835  28.339   7.323
 5178POPC   C1B65863  36.619  28.111   6.329
 5178POPC   C2B65864  36.815  28.276   6.670
 5178POPC   C3B65865  37.119  28.098   6.959
 5178POPC   C4B65866  37.129  27.935   7.383
 5179POPC   NC365867  15.995  21.371   5.245
 5179POPC   PO465868  15.713  21.866   5.505
 5179POPC   GL165869  15.771  21.506   5.783
 5179POPC   GL265870  16.073  21.296   5.751
 5179POPC   C1A65871  15.971  21.494   6.223
 5179POPC   D2A65872  15.991  21.648   6.663
 5179POPC   C3A65873  15.832  21.443   7.037
 5179POPC   C4A65874  15.558  21.430   7.393
 5179POPC   C1B65875  16.114  21.024   6.114
 5179POPC   C2B65876  16.066  21.089   6.566
 5179POPC   C3B65877  15.977  20.961   6.982
 5179POPC   C4B65878  16.062  21.159   7.414
 5180POPC   NC365879  29.012  20.632   5.575
 5180POPC   PO465880  29.280  20.186   5.165
 5180POPC   GL165881  29.449  20.500   5.746
 5180POPC   GL265882  29.115  20.431   6.042
 5180POPC   C1A65883  29.524  20.598   6.221
 5180POPC   D2A65884  29.229  20.494   6.593
 5180POPC   C3A65885  29.190  20.690   7.028
 5180POPC   C4A65886  29.397  20.590   7.439
 5180POPC   C1B65887  28.939  20.782   6.271
 5180POPC   C2B65888  28.800  20.769   6.694
 5180POPC   C3B65889  28.717  20.473   6.992
 5180POPC   C4B65890  28.865  20.495   7.407
 5181POPC   NC365891  14.811   3.480   5.510
 5181POPC   PO465892  14.346   3.705   5.118
 5181POPC   GL165893  14.244   3.547   5.610
 5181POPC   GL265894  14.189   3.205   5.743
 5181POPC   C1A65895  14.090   3.536   6.111
 5181POPC   D2A65896  14.261   3.655   6.563
 5181POPC   C3A65897  14.122   3.734   7.016
 5181POPC   C4A65898  14.493   3.763   7.279
 5181POPC   C1B65899  14.529   3.249   6.114
 5181POPC   C2B65900  14.570   3.228   6.584
 5181POPC   C3B65901  14.485   3.310   7.018
 5181POPC   C4B65902  14.622   3.178   7.432
 5182POPC   NC365903  20.642  38.935   5.482
 5182POPC   PO465904  20.491  39.626   5.501
 5182POPC   GL165905  20.635  39.406   5.859
 5182POPC   GL265906  20.689  39.065   5.964
 5182POPC   C1A65907  20.405  39.440   6.234
 5182POPC   D2A65908  20.381  39.281   6.643
 5182POPC   C3A65909  20.621  39.545   6.867
 5182POPC   C4A65910  20.381  39.500   7.241
 5182POPC   C1B65911  20.797  39.149   6.387
 5182POPC   C2B65912  20.978  39.143   6.786
 5182POPC   C3B65913  20.710  39.095   7.089
 5182POPC   C4B65914  20.865  39.418   7.310
 5183POPC   NC365915   2.479  25.124   5.561
 5183POPC   PO465916   3.104  25.367   5.552
 5183POPC   GL165917   2.894  25.545   5.907
 5183POPC   GL265918   2.540  25.649   5.784
 5183POPC   C1A65919   2.961  25.343   6.310
 5183POPC   D2A65920   3.023  25.040   6.634
 5183POPC   C3A65921   2.853  25.094   7.026
 5183POPC   C4A65922   2.989  25.319   7.393
 5183POPC   C1B65923   2.478  25.493   6.214
 5183POPC   C2B65924   2.591  25.405   6.658
 5183POPC   C3B65925   2.599  25.525   7.099
 5183POPC   C4B65926   2.516  25.438   7.580
 5184POPC   NC365927  34.131  26.272   5.232
 5184POPC   PO465928  33.695  25.710   5.236
 5184POPC   GL165929  33.827  25.894   5.633
 5184POPC   GL265930  34.165  26.048   5.672
 5184POPC   C1A65931  33.741  25.893   6.089
 5184POPC   D2A65932  33.598  25.876   6.525
 5184POPC   C3A65933  33.825  26.004   6.918
 5184POPC   C4A65934  33.558  26.186   7.254
 5184POPC   C1B65935  34.197  26.128   6.125
 5184POPC   C2B65936  34.166  26.229   6.533
 5184POPC   C3B65937  34.368  26.263   6.894
 5184POPC   C4B65938  34.235  26.050   7.286
 5185POPC   NC365939  30.474  33.425   5.292
 5185POPC   PO465940  30.922  32.876   5.277
 5185POPC   GL165941  30.959  33.055   5.703
 5185POPC   GL265942  30.614  33.106   5.792
 5185POPC   C1A65943  30.951  33.176   6.178
 5185POPC   D2A65944  30.817  32.940   6.553
 5185POPC   C3A65945  30.906  33.143   6.942
 5185POPC   C4A65946  30.894  32.871   7.242
 5185POPC   C1B65947  30.470  32.898   6.190
 5185POPC   C2B65948  30.319  32.990   6.658
 5185POPC   C3B65949  30.429  33.055   7.119
 5185POPC   C4B65950  30.227  33.355   7.419
 5186POPC   NC365951   3.524   5.319   5.518
 5186POPC   PO465952   2.874   5.090   5.493
 5186POPC   GL165953   2.534   4.985   5.768
 5186POPC   GL265954   2.656   5.275   5.945
 5186POPC   C1A65955   2.592   4.842   6.198
 5186POPC   D2A65956   2.874   4.942   6.550
 5186POPC   C3A65957   2.654   5.068   6.909
 5186POPC   C4A65958   2.799   5.097   7.266
 5186POPC   C1B65959   2.864   5.545   6.228
 5186POPC   C2B65960   2.787   5.465   6.621
 5186POPC   C3B65961   3.098   5.310   6.891
 5186POPC   C4B65962   3.152   5.577   7.203
 5187POPC   NC365963  29.778  44.269   5.576
 5187POPC   PO465964  29.844  43.626   5.534
 5187POPC   GL165965  30.078  43.686   5.933
 5187POPC   GL265966  30.162  44.044   5.847
 5187POPC   C1A65967  30.042  43.603   6.403
 5187POPC   D2A65968  29.663  43.800   6.633
 5187POPC   C3A65969  29.680  43.903   7.103
 5187POPC   C4A65970  29.685  43.634   7.488
 5187POPC   C1B65971  30.006  44.088   6.275
 5187POPC   C2B65972  30.122  44.035   6.693
 5187POPC   C3B65973  30.140  43.719   6.964
 5187POPC   C4B65974  30.140  43.825   7.387
 5188POPC   NC365975   2.830  36.293   5.291
 5188POPC   PO465976   3.212  35.725   5.402
 5188POPC   GL165977   3.004  36.038   5.754
 5188POPC   GL265978   2.727  36.314   5.779
 5188POPC   C1A65979   2.737  36.031   6.181
 5188POPC   D2A65980   2.672  35.762   6.518
 5188POPC   C3A65981   2.650  35.950   6.896
 5188POPC   C4A65982   2.761  35.811   7.286
 5188POPC   C1B65983   3.062  36.434   6.118
 5188POPC   C2B65984   3.105  36.404   6.592
 5188POPC   C3B65985   3.017  36.264   7.053
 5188POPC   C4B65986   2.626  36.351   7.293
 5189POPC   NC365987  36.295  31.900   5.451
 5189POPC   PO465988  36.338  31.275   5.444
 5189POPC   GL165989  36.081  31.524   5.769
 5189POPC   GL265990  35.966  31.864   5.865
 5189POPC   C1A65991  35.962  31.434   6.203
 5189POPC   D2A65992  36.275  31.465   6.528
 5189POPC   C3A65993  36.268  31.377   6.972
 5189POPC   C4A65994  36.460  31.095   7.290
 5189POPC   C1B65995  36.044  31.922   6.321
 5189POPC   C2B65996  35.956  31.798   6.757
 5189POPC   C3B65997  36.164  31.850   7.149
 5189POPC   C4B65998  36.321  31.570   7.457
 5190POPC   NC365999  17.793  40.078   5.594
 5190POPC   PO466000  17.083  39.944   5.503
 5190POPC   GL166001  17.360  39.948   5.841
 5190POPC   GL266002  17.597  39.647   5.834
 5190POPC   C1A66003  17.398  40.027   6.272
 5190POPC   D2A66004  17.229  39.809   6.624
 5190POPC   C3A66005  17.321  39.874   7.063
 5190POPC   C4A66006  17.693  40.080   7.162
 5190POPC   C1B66007  17.869  39.735   6.186
 5190POPC   C2B66008  17.785  39.903   6.601
 5190POPC   C3B66009  17.747  39.625   6.930
 5190POPC   C4B66010  17.811  39.618   7.346
 5191POPC   NC366011  30.578  30.979   5.438
 5191POPC   PO466012  30.627  30.366   5.371
 5191POPC   GL166013  30.688  30.575   5.775
 5191POPC   GL266014  30.921  30.852   5.818
 5191POPC   C1A66015  30.766  30.522   6.217
 5191POPC   D2A66016  30.985  30.764   6.519
 5191POPC   C3A66017  30.802  30.733   6.896
 5191POPC   C4A66018  30.540  30.396   7.089
 5191POPC   C1B66019  30.715  31.030   6.186
 5191POPC   C2B66020  30.580  31.150   6.586
 5191POPC   C3B66021  30.600  31.206   7.031
 5191POPC   C4B66022  30.446  30.984   7.399
 5192POPC   NC366023   9.603  20.447   5.508
 5192POPC   PO466024  10.115  20.924   5.440
 5192POPC   GL166025   9.837  20.834   5.808
 5192POPC   GL266026   9.494  20.874   5.801
 5192POPC   C1A66027   9.716  20.545   6.157
 5192POPC   D2A66028   9.612  20.267   6.511
 5192POPC   C3A66029   9.586  20.267   6.991
 5192POPC   C4A66030   9.722  20.495   7.387
 5192POPC   C1B66031   9.385  20.931   6.206
 5192POPC   C2B66032   9.668  20.866   6.556
 5192POPC   C3B66033   9.553  20.786   6.967
 5192POPC   C4B66034   9.621  21.015   7.337
 5193POPC   NC366035  41.780   8.868   5.543
 5193POPC   PO466036  41.183   9.222   5.540
 5193POPC   GL166037  41.340   8.964   5.850
 5193POPC   GL266038  41.350   8.656   5.694
 5193POPC   C1A66039  41.659   8.928   6.197
 5193POPC   D2A66040  41.715   8.750   6.625
 5193POPC   C3A66041  41.486   8.973   6.951
 5193POPC   C4A66042  41.627   9.188   7.306
 5193POPC   C1B66043  41.366   8.510   6.111
 5193POPC   C2B66044  41.217   8.580   6.505
 5193POPC   C3B66045  41.324   8.468   6.904
 5193POPC   C4B66046  41.180   8.607   7.264
 5194POPC   NC366047  30.970  35.938   5.239
 5194POPC   PO466048  30.432  36.324   5.493
 5194POPC   GL166049  30.625  36.062   5.810
 5194POPC   GL266050  31.000  36.068   5.742
 5194POPC   C1A66051  30.498  35.996   6.256
 5194POPC   D2A66052  30.463  36.156   6.693
 5194POPC   C3A66053  30.503  35.898   7.092
 5194POPC   C4A66054  30.616  36.041   7.523
 5194POPC   C1B66055  30.956  36.248   6.150
 5194POPC   C2B66056  31.026  36.084   6.533
 5194POPC   C3B66057  30.910  36.165   6.934
 5194POPC   C4B66058  31.090  36.024   7.281
 5195POPC   NC366059  33.332  34.153   5.312
 5195POPC   PO466060  32.647  33.899   5.220
 5195POPC   GL166061  32.973  33.891   5.598
 5195POPC   GL266062  32.799  34.039   5.873
 5195POPC   C1A66063  33.132  33.652   6.019
 5195POPC   D2A66064  33.089  33.491   6.488
 5195POPC   C3A66065  33.109  33.752   6.899
 5195POPC   C4A66066  33.183  34.166   7.146
 5195POPC   C1B66067  32.731  33.853   6.288
 5195POPC   C2B66068  32.599  33.835   6.706
 5195POPC   C3B66069  32.630  33.687   7.112
 5195POPC   C4B66070  32.693  34.011   7.387
 5196POPC   NC366071  29.856  38.594   5.726
 5196POPC   PO466072  30.402  38.365   5.294
 5196POPC   GL166073  30.160  38.193   5.721
 5196POPC   GL266074  29.795  38.094   5.827
 5196POPC   C1A66075  30.083  38.236   6.215
 5196POPC   D2A66076  30.248  38.368   6.630
 5196POPC   C3A66077  30.067  38.301   7.041
 5196POPC   C4A66078  30.037  38.624   7.351
 5196POPC   C1B66079  29.555  38.203   6.199
 5196POPC   C2B66080  29.705  38.360   6.588
 5196POPC   C3B66081  29.663  38.596   6.945
 5196POPC   C4B66082  29.603  38.350   7.283
 5197POPC   NC366083  15.667  38.472   5.098
 5197POPC   PO466084  14.998  38.391   5.357
 5197POPC   GL166085  14.949  38.544   5.776
 5197POPC   GL266086  15.089  38.877   5.837
 5197POPC   C1A66087  15.136  38.528   6.226
 5197POPC   D2A66088  15.036  38.438   6.676
 5197POPC   C3A66089  15.214  38.428   7.100
 5197POPC   C4A66090  14.958  38.341   7.484
 5197POPC   C1B66091  15.133  39.044   6.219
 5197POPC   C2B66092  15.305  38.983   6.610
 5197POPC   C3B66093  15.069  38.903   6.970
 5197POPC   C4B66094  15.130  38.816   7.426
 5198POPC   NC366095  19.073   5.672   5.141
 5198POPC   PO466096  19.326   6.288   5.341
 5198POPC   GL166097  19.194   6.024   5.686
 5198POPC   GL266098  18.875   6.144   5.796
 5198POPC   C1A66099  19.190   5.937   6.166
 5198POPC   D2A66100  19.294   5.822   6.598
 5198POPC   C3A66101  19.096   6.014   6.962
 5198POPC   C4A66102  19.148   5.722   7.269
 5198POPC   C1B66103  18.680   6.031   6.200
 5198POPC   C2B66104  18.668   5.683   6.531
 5198POPC   C3B66105  18.686   5.685   6.986
 5198POPC   C4B66106  18.550   6.104   7.129
 5199POPC   NC366107  35.849   1.143   5.071
 5199POPC   PO466108  35.337   0.937   5.356
 5199POPC   GL166109  35.471   1.298   5.660
 5199POPC   GL266110  35.379   1.585   5.846
 5199POPC   C1A66111  35.555   1.246   6.158
 5199POPC   D2A66112  35.349   1.117   6.547
 5199POPC   C3A66113  35.466   1.271   6.975
 5199POPC   C4A66114  35.692   1.304   7.365
 5199POPC   C1B66115  35.141   1.533   6.225
 5199POPC   C2B66116  35.237   1.620   6.639
 5199POPC   C3B66117  35.064   1.582   7.040
 5199POPC   C4B66118  35.275   1.575   7.447
 5200POPC   NC366119  28.970  12.612   5.534
 5200POPC   PO466120  29.317  11.977   5.501
 5200POPC   GL166121  29.175  12.279   5.855
 5200POPC   GL266122  28.903  12.082   5.993
 5200POPC   C1A66123  28.956  12.576   6.194
 5200POPC   D2A66124  28.877  12.746   6.626
 5200POPC   C3A66125  29.097  12.459   6.886
 5200POPC   C4A66126  29.103  12.205   7.239
 5200POPC   C1B66127  29.333  11.905   6.151
 5200POPC   C2B66128  29.519  12.001   6.524
 5200POPC   C3B66129  29.172  11.966   6.780
 5200POPC   C4B66130  28.927  11.717   7.015
 5201POPC   NC366131  44.112  30.059   5.166
 5201POPC   PO466132  43.616  29.632   5.379
 5201POPC   GL166133  43.876  29.871   5.714
 5201POPC   GL266134  43.603  29.787   5.913
 5201POPC   C1A66135  43.902  30.134   6.159
 5201POPC   D2A66136  43.750  30.104   6.639
 5201POPC   C3A66137  43.955  30.245   7.071
 5201POPC   C4A66138  43.869  30.280   7.536
 5201POPC   C1B66139  43.932  29.629   6.213
 5201POPC   C2B66140  43.820  29.591   6.648
 5201POPC   C3B66141  43.791  29.753   7.075
 5201POPC   C4B66142  44.067  29.503   7.320
 5202POPC   NC366143  28.166  28.444   5.175
 5202POPC   PO466144  27.539  28.363   5.507
 5202POPC   GL166145  27.610  28.264   5.883
 5202POPC   GL266146  27.915  28.113   5.816
 5202POPC   C1A66147  27.445  28.349   6.281
 5202POPC   D2A66148  27.481  28.634   6.601
 5202POPC   C3A66149  27.385  28.448   6.963
 5202POPC   C4A66150  27.578  28.396   7.327
 5202POPC   C1B66151  27.947  28.170   6.278
 5202POPC   C2B66152  27.771  28.166   6.704
 5202POPC   C3B66153  27.916  28.039   7.109
 5202POPC   C4B66154  27.834  28.034   7.577
 5203POPC   NC366155  26.132   7.604   5.399
 5203POPC   PO466156  25.702   7.075   5.268
 5203POPC   GL166157  25.828   7.263   5.694
 5203POPC   GL266158  26.177   7.335   5.832
 5203POPC   C1A66159  25.807   7.294   6.161
 5203POPC   D2A66160  26.090   7.222   6.520
 5203POPC   C3A66161  25.932   7.294   6.928
 5203POPC   C4A66162  25.721   7.473   7.286
 5203POPC   C1B66163  26.220   7.634   6.204
 5203POPC   C2B66164  26.337   7.691   6.657
 5203POPC   C3B66165  26.349   7.651   7.109
 5203POPC   C4B66166  26.222   7.285   7.353
 5204POPC   NC366167  41.149  40.083   5.162
 5204POPC   PO466168  41.719  39.789   5.249
 5204POPC   GL166169  41.496  39.874   5.679
 5204POPC   GL266170  41.140  39.753   5.683
 5204POPC   C1A66171  41.579  40.050   6.138
 5204POPC   D2A66172  41.828  39.973   6.555
 5204POPC   C3A66173  41.832  40.229   6.948
 5204POPC   C4A66174  41.737  39.910   7.266
 5204POPC   C1B66175  41.307  39.614   6.096
 5204POPC   C2B66176  41.323  39.780   6.529
 5204POPC   C3B66177  41.370  40.001   6.916
 5204POPC   C4B66178  41.198  40.118   7.335
 5205POPC   NC366179   2.398  26.233   5.468
 5205POPC   PO466180   1.764  26.167   5.241
 5205POPC   GL166181   1.695  26.100   5.654
 5205POPC   GL266182   2.015  25.957   5.733
 5205POPC   C1A66183   1.654  26.083   6.095
 5205POPC   D2A66184   1.729  25.909   6.488
 5205POPC   C3A66185   1.648  26.047   6.919
 5205POPC   C4A66186   1.886  26.085   7.317
 5205POPC   C1B66187   2.166  26.083   6.159
 5205POPC   C2B66188   2.254  25.830   6.528
 5205POPC   C3B66189   2.148  25.826   6.947
 5205POPC   C4B66190   2.347  25.882   7.360
 5206POPC   NC366191  20.891  12.958   5.459
 5206POPC   PO466192  20.533  12.528   5.396
 5206POPC   GL166193  20.564  12.752   5.816
 5206POPC   GL266194  20.322  13.054   5.783
 5206POPC   C1A66195  20.753  12.804   6.274
 5206POPC   D2A66196  21.011  12.864   6.654
 5206POPC   C3A66197  20.738  13.009   6.997
 5206POPC   C4A66198  20.373  12.802   7.185
 5206POPC   C1B66199  20.249  12.852   6.209
 5206POPC   C2B66200  20.353  12.920   6.630
 5206POPC   C3B66201  20.295  13.295   6.841
 5206POPC   C4B66202  20.308  13.417   7.254
 5207POPC   NC366203   9.906  15.312   5.031
 5207POPC   PO466204   9.478  14.853   5.398
 5207POPC   GL166205   9.691  15.207   5.757
 5207POPC   GL266206   9.903  15.026   5.984
 5207POPC   C1A66207   9.514  15.318   6.194
 5207POPC   D2A66208   9.436  15.094   6.586
 5207POPC   C3A66209   9.479  15.310   6.959
 5207POPC   C4A66210   9.367  15.226   7.358
 5207POPC   C1B66211  10.010  15.419   6.184
 5207POPC   C2B66212   9.846  15.490   6.615
 5207POPC   C3B66213   9.979  15.398   7.046
 5207POPC   C4B66214  10.253  15.496   7.368
 5208POPC   NC366215  21.711  20.469   5.211
 5208POPC   PO466216  21.227  20.855   5.388
 5208POPC   GL166217  21.304  20.657   5.804
 5208POPC   GL266218  21.505  20.349   5.845
 5208POPC   C1A66219  21.237  20.822   6.203
 5208POPC   D2A66220  21.118  20.612   6.570
 5208POPC   C3A66221  21.236  20.825   6.958
 5208POPC   C4A66222  21.545  20.698   7.240
 5208POPC   C1B66223  21.551  20.439   6.273
 5208POPC   C2B66224  21.623  20.543   6.716
 5208POPC   C3B66225  21.687  20.255   7.053
 5208POPC   C4B66226  21.703  20.296   7.502
 5209POPC   NC366227  34.965  13.315   5.656
 5209POPC   PO466228  34.715  13.837   5.260
 5209POPC   GL166229  34.548  13.654   5.715
 5209POPC   GL266230  34.558  13.988   5.905
 5209POPC   C1A66231  34.571  13.545   6.173
 5209POPC   D2A66232  34.798  13.306   6.479
 5209POPC   C3A66233  34.672  13.440   6.867
 5209POPC   C4A66234  34.687  13.423   7.283
 5209POPC   C1B66235  34.839  13.971   6.313
 5209POPC   C2B66236  34.703  13.967   6.720
 5209POPC   C3B66237  34.510  13.891   7.082
 5209POPC   C4B66238  34.713  13.968   7.474
 5210POPC   NC366239  43.992  15.578   5.424
 5210POPC   PO466240  43.500  15.031   5.429
 5210POPC   GL166241  43.631  15.004   5.870
 5210POPC   GL266242  43.418  14.709   5.886
 5210POPC   C1A66243  43.854  15.208   6.258
 5210POPC   D2A66244  43.824  15.475   6.660
 5210POPC   C3A66245  43.821  15.291   7.089
 5210POPC   C4A66246  43.759  15.353   7.574
 5210POPC   C1B66247  43.605  14.750   6.309
 5210POPC   C2B66248  43.725  14.940   6.692
 5210POPC   C3B66249  43.876  14.776   7.057
 5210POPC   C4B66250  43.975  14.911   7.451
 5211POPC   NC366251  10.831   4.473   5.170
 5211POPC   PO466252  10.341   4.067   5.477
 5211POPC   GL166253  10.589   4.194   5.825
 5211POPC   GL266254  10.714   4.530   5.759
 5211POPC   C1A66255  10.415   4.238   6.249
 5211POPC   D2A66256  10.517   4.320   6.654
 5211POPC   C3A66257  10.415   4.040   6.966
 5211POPC   C4A66258  10.153   4.251   7.236
 5211POPC   C1B66259  10.823   4.537   6.222
 5211POPC   C2B66260  11.051   4.327   6.567
 5211POPC   C3B66261  10.899   4.244   6.979
 5211POPC   C4B66262  10.606   4.491   7.201
 5212POPC   NC366263  25.575  42.246   5.106
 5212POPC   PO466264  26.143  42.445   5.427
 5212POPC   GL166265  26.089  42.265   5.803
 5212POPC   GL266266  26.360  42.027   5.814
 5212POPC   C1A66267  25.934  42.334   6.219
 5212POPC   D2A66268  26.093  42.425   6.620
 5212POPC   C3A66269  25.864  42.283   6.952
 5212POPC   C4A66270  26.052  42.315   7.369
 5212POPC   C1B66271  26.154  41.885   6.174
 5212POPC   C2B66272  25.971  41.917   6.569
 5212POPC   C3B66273  26.028  41.655   6.916
 5212POPC   C4B66274  25.868  41.856   7.231
 5213POPC   NC366275   1.668  11.740   5.527
 5213POPC   PO466276   1.971  12.218   5.160
 5213POPC   GL166277   1.986  12.122   5.684
 5213POPC   GL266278   1.750  12.265   5.938
 5213POPC   C1A66279   1.977  11.833   6.100
 5213POPC   D2A66280   1.883  11.714   6.550
 5213POPC   C3A66281   2.015  12.050   6.816
 5213POPC   C4A66282   2.148  12.008   7.221
 5213POPC   C1B66283   1.551  12.041   6.319
 5213POPC   C2B66284   1.499  12.027   6.762
 5213POPC   C3B66285   1.624  11.987   7.155
 5213POPC   C4B66286   1.738  12.217   7.466
 5214POPC   NC366287  33.056   4.118   5.453
 5214POPC   PO466288  33.119   4.723   5.102
 5214POPC   GL166289  33.018   4.600   5.600
 5214POPC   GL266290  32.674   4.610   5.770
 5214POPC   C1A66291  32.999   4.299   6.045
 5214POPC   D2A66292  32.983   4.052   6.415
 5214POPC   C3A66293  33.242   4.113   6.759
 5214POPC   C4A66294  32.963   4.149   7.093
 5214POPC   C1B66295  33.019   4.790   6.076
 5214POPC   C2B66296  33.252   4.585   6.450
 5214POPC   C3B66297  33.334   4.619   6.893
 5214POPC   C4B66298  33.133   4.910   7.156
 5215POPC   NC366299  24.741  25.573   5.412
 5215POPC   PO466300  24.239  25.158   5.517
 5215POPC   GL166301  24.258  25.017   5.927
 5215POPC   GL266302  24.611  24.951   5.865
 5215POPC   C1A66303  24.153  25.178   6.341
 5215POPC   D2A66304  24.338  25.508   6.608
 5215POPC   C3A66305  24.431  25.322   7.008
 5215POPC   C4A66306  24.269  24.986   7.290
 5215POPC   C1B66307  24.630  25.323   6.139
 5215POPC   C2B66308  24.851  25.362   6.515
 5215POPC   C3B66309  24.974  25.454   6.913
 5215POPC   C4B66310  24.816  25.531   7.275
 5216POPC   NC366311  34.954  41.295   5.501
 5216POPC   PO466312  34.336  41.643   5.495
 5216POPC   GL166313  34.646  41.551   5.827
 5216POPC   GL266314  34.831  41.796   5.951
 5216POPC   C1A66315  34.620  41.429   6.281
 5216POPC   D2A66316  34.586  41.646   6.698
 5216POPC   C3A66317  34.460  41.497   7.096
 5216POPC   C4A66318  34.621  41.506   7.503
 5216POPC   C1B66319  34.946  41.924   6.363
 5216POPC   C2B66320  34.915  42.099   6.770
 5216POPC   C3B66321  34.819  41.880   7.153
 5216POPC   C4B66322  34.994  41.834   7.583
 5217POPC   NC366323  40.110  29.751   5.376
 5217POPC   PO466324  39.539  29.989   5.363
 5217POPC   GL166325  39.800  30.045   5.725
 5217POPC   GL266326  39.856  29.704   5.821
 5217POPC   C1A66327  40.048  30.086   6.118
 5217POPC   D2A66328  39.913  30.130   6.575
 5217POPC   C3A66329  40.054  29.902   6.942
 5217POPC   C4A66330  40.394  30.157   7.133
 5217POPC   C1B66331  39.936  29.606   6.269
 5217POPC   C2B66332  39.865  29.395   6.667
 5217POPC   C3B66333  39.712  29.537   7.115
 5217POPC   C4B66334  39.882  29.458   7.561
 5218POPC   NC366335  35.608   6.545   5.387
 5218POPC   PO466336  34.978   6.804   5.308
 5218POPC   GL166337  35.208   6.851   5.701
 5218POPC   GL266338  34.929   6.998   5.887
 5218POPC   C1A66339  35.549   6.698   6.016
 5218POPC   D2A66340  35.514   6.504   6.429
 5218POPC   C3A66341  35.513   6.633   6.875
 5218POPC   C4A66342  35.667   6.368   7.200
 5218POPC   C1B66343  35.063   6.684   6.194
 5218POPC   C2B66344  35.129   6.843   6.601
 5218POPC   C3B66345  35.050   6.800   7.046
 5218POPC   C4B66346  35.244   6.585   7.434
 5219POPC   NC366347  21.858  39.396   5.671
 5219POPC   PO466348  22.354  39.186   5.229
 5219POPC   GL166349  22.276  39.127   5.764
 5219POPC   GL266350  22.026  39.060   6.018
 5219POPC   C1A66351  22.281  39.434   6.183
 5219POPC   D2A66352  22.368  39.435   6.629
 5219POPC   C3A66353  22.070  39.228   6.911
 5219POPC   C4A66354  21.829  39.399   7.258
 5219POPC   C1B66355  22.164  38.968   6.434
 5219POPC   C2B66356  21.843  38.787   6.704
 5219POPC   C3B66357  21.741  38.890   7.140
 5219POPC   C4B66358  22.100  38.981   7.394
 5220POPC   NC366359  41.458  13.098   5.461
 5220POPC   PO466360  41.368  12.415   5.458
 5220POPC   GL166361  41.397  12.600   5.885
 5220POPC   GL266362  41.547  12.939   5.936
 5220POPC   C1A66363  41.610  12.579   6.290
 5220POPC   D2A66364  41.629  12.891   6.598
 5220POPC   C3A66365  41.619  12.730   7.011
 5220POPC   C4A66366  41.860  12.972   7.293
 5220POPC   C1B66367  41.320  13.178   6.233
 5220POPC   C2B66368  41.316  13.309   6.625
 5220POPC   C3B66369  41.484  13.209   7.013
 5220POPC   C4B66370  41.353  13.183   7.411
 5221POPC   NC366371  33.567  11.472   5.476
 5221POPC   PO466372  33.974  10.942   5.680
 5221POPC   GL166373  33.830  11.321   5.899
 5221POPC   GL266374  33.512  11.456   5.977
 5221POPC   C1A66375  33.954  11.536   6.283
 5221POPC   D2A66376  34.004  11.419   6.693
 5221POPC   C3A66377  33.733  11.564   6.981
 5221POPC   C4A66378  33.627  11.326   7.315
 5221POPC   C1B66379  33.601  11.147   6.330
 5221POPC   C2B66380  33.568  11.121   6.781
 5221POPC   C3B66381  33.288  11.037   7.107
 5221POPC   C4B66382  33.341  10.967   7.543
 5222POPC   NC366383  15.080  20.053   5.510
 5222POPC   PO466384  14.931  19.353   5.448
 5222POPC   GL166385  15.069  19.606   5.842
 5222POPC   GL266386  15.042  19.964   5.999
 5222POPC   C1A66387  15.234  19.618   6.290
 5222POPC   D2A66388  15.455  19.773   6.608
 5222POPC   C3A66389  15.364  19.592   6.944
 5222POPC   C4A66390  15.348  19.795   7.306
 5222POPC   C1B66391  14.739  19.727   6.255
 5222POPC   C2B66392  14.884  19.611   6.651
 5222POPC   C3B66393  14.922  19.838   7.000
 5222POPC   C4B66394  14.863  19.688   7.377
 5223POPC   NC366395  43.276  22.848   5.309
 5223POPC   PO466396  42.624  22.954   5.441
 5223POPC   GL166397  42.991  22.903   5.730
 5223POPC   GL266398  43.253  23.160   5.753
 5223POPC   C1A66399  42.982  22.853   6.170
 5223POPC   D2A66400  42.673  22.945   6.483
 5223POPC   C3A66401  42.850  22.997   6.872
 5223POPC   C4A66402  42.881  22.843   7.253
 5223POPC   C1B66403  43.375  23.190   6.210
 5223POPC   C2B66404  43.293  22.887   6.599
 5223POPC   C3B66405  43.352  22.875   7.063
 5223POPC   C4B66406  43.295  23.255   7.275
 5224POPC   NC366407  35.827  32.329   4.916
 5224POPC   PO466408  36.441  32.338   5.350
 5224POPC   GL166409  36.239  32.304   5.758
 5224POPC   GL266410  36.447  32.051   5.898
 5224POPC   C1A66411  36.131  32.412   6.178
 5224POPC   D2A66412  36.224  32.566   6.582
 5224POPC   C3A66413  36.022  32.361   6.917
 5224POPC   C4A66414  36.150  32.520   7.303
 5224POPC   C1B66415  36.527  32.096   6.276
 5224POPC   C2B66416  36.436  31.991   6.682
 5224POPC   C3B66417  36.509  32.213   7.045
 5224POPC   C4B66418  36.516  32.148   7.482
 5225POPC   NC366419   1.272  29.064   5.489
 5225POPC   PO466420   1.443  29.541   5.924
 5225POPC   GL166421   1.086  29.281   5.978
 5225POPC   GL266422   0.988  28.972   5.895
 5225POPC   C1A66423   1.045  29.169   6.390
 5225POPC   D2A66424   1.318  29.421   6.649
 5225POPC   C3A66425   1.073  29.571   6.976
 5225POPC   C4A66426   1.253  29.336   7.269
 5225POPC   C1B66427   1.390  28.893   6.127
 5225POPC   C2B66428   1.438  28.876   6.573
 5225POPC   C3B66429   1.312  28.886   7.008
 5225POPC   C4B66430   1.443  28.913   7.440
 5226POPC   NC366431   2.563  21.028   5.268
 5226POPC   PO466432   2.957  21.457   5.076
 5226POPC   GL166433   2.834  21.230   5.650
 5226POPC   GL266434   2.825  21.523   5.803
 5226POPC   C1A66435   2.770  21.102   6.118
 5226POPC   D2A66436   2.706  21.300   6.551
 5226POPC   C3A66437   2.802  21.126   6.961
 5226POPC   C4A66438   2.542  21.094   7.340
 5226POPC   C1B66439   2.725  21.803   6.099
 5226POPC   C2B66440   2.772  21.821   6.500
 5226POPC   C3B66441   2.940  21.662   6.876
 5226POPC   C4B66442   2.774  21.775   7.259
 5227POPC   NC366443   1.589  44.903   5.592
 5227POPC   PO466444   1.896  44.373   5.372
 5227POPC   GL166445   1.963  44.580   5.799
 5227POPC   GL266446   2.219  44.361   5.860
 5227POPC   C1A66447   1.964  44.732   6.273
 5227POPC   D2A66448   1.901  44.576   6.708
 5227POPC   C3A66449   1.794  44.860   7.068
 5227POPC   C4A66450   2.120   0.032   7.293
 5227POPC   C1B66451   2.321  44.375   6.266
 5227POPC   C2B66452   2.317  44.251   6.678
 5227POPC   C3B66453   2.270  44.509   7.037
 5227POPC   C4B66454   1.955  44.459   7.310
 5228POPC   NC366455  12.403  12.082   5.589
 5228POPC   PO466456  11.793  12.418   5.513
 5228POPC   GL166457  11.653  12.310   5.901
 5228POPC   GL266458  11.969  12.106   5.913
 5228POPC   C1A66459  11.702  12.165   6.350
 5228POPC   D2A66460  11.751  11.778   6.608
 5228POPC   C3A66461  12.039  11.859   6.944
 5228POPC   C4A66462  11.866  12.088   7.268
 5228POPC   C1B66463  12.119  11.859   6.268
 5228POPC   C2B66464  12.249  11.537   6.555
 5228POPC   C3B66465  12.481  11.522   6.927
 5228POPC   C4B66466  12.490  11.782   7.256
 5229POPC   NC366467  14.944  40.263   5.531
 5229POPC   PO466468  15.434  39.767   5.520
 5229POPC   GL166469  15.253  39.999   5.862
 5229POPC   GL266470  15.472  39.814   6.057
 5229POPC   C1A66471  15.092  40.123   6.259
 5229POPC   D2A66472  15.104  39.882   6.634
 5229POPC   C3A66473  15.050  40.062   7.056
 5229POPC   C4A66474  14.752  40.297   7.277
 5229POPC   C1B66475  15.582  39.992   6.427
 5229POPC   C2B66476  15.565  39.929   6.863
 5229POPC   C3B66477  15.420  39.766   7.229
 5229POPC   C4B66478  15.390  39.754   7.647
 5230POPC   NC366479  36.602  17.571   5.112
 5230POPC   PO466480  37.159  17.378   5.462
 5230POPC   GL166481  36.968  17.348   5.825
 5230POPC   GL266482  36.695  17.564   5.753
 5230POPC   C1A66483  36.878  17.411   6.242
 5230POPC   D2A66484  36.694  17.273   6.595
 5230POPC   C3A66485  36.892  17.376   6.967
 5230POPC   C4A66486  36.663  17.297   7.326
 5230POPC   C1B66487  36.642  17.840   6.124
 5230POPC   C2B66488  36.663  17.777   6.558
 5230POPC   C3B66489  36.523  17.727   6.977
 5230POPC   C4B66490  36.751  17.809   7.336
 5231POPC   NC366491  43.108  43.987   5.030
 5231POPC   PO466492  42.804  43.379   5.318
 5231POPC   GL166493  43.111  43.643   5.629
 5231POPC   GL266494  43.220  44.028   5.624
 5231POPC   C1A66495  43.251  43.741   6.054
 5231POPC   D2A66496  43.129  43.733   6.493
 5231POPC   C3A66497  43.097  44.066   6.825
 5231POPC   C4A66498  43.320  43.834   7.103
 5231POPC   C1B66499  43.293  44.244   6.061
 5231POPC   C2B66500  43.370  44.373   6.524
 5231POPC   C3B66501  43.535  44.291   6.979
 5231POPC   C4B66502  43.255  44.277   7.346
 5232POPC   NC366503   2.809  12.990   5.392
 5232POPC   PO466504   2.359  12.558   5.411
 5232POPC   GL166505   2.530  12.801   5.798
 5232POPC   GL266506   2.584  13.169   5.891
 5232POPC   C1A66507   2.737  12.622   6.175
 5232POPC   D2A66508   2.739  12.332   6.536
 5232POPC   C3A66509   2.916  12.597   6.818
 5232POPC   C4A66510   2.867  12.741   7.203
 5232POPC   C1B66511   2.667  13.109   6.382
 5232POPC   C2B66512   2.524  12.954   6.832
 5232POPC   C3B66513   2.402  12.964   7.290
 5232POPC   C4B66514   2.419  13.287   7.639
 5233POPC   NC366515  25.149  37.251   5.392
 5233POPC   PO466516  25.573  36.706   5.466
 5233POPC   GL166517  25.311  36.906   5.774
 5233POPC   GL266518  25.308  37.242   5.889
 5233POPC   C1A66519  25.192  36.808   6.188
 5233POPC   D2A66520  25.287  37.054   6.510
 5233POPC   C3A66521  25.414  36.831   6.872
 5233POPC   C4A66522  25.387  36.991   7.283
 5233POPC   C1B66523  24.905  37.258   6.135
 5233POPC   C2B66524  24.772  37.177   6.558
 5233POPC   C3B66525  24.997  37.162   6.946
 5233POPC   C4B66526  24.890  37.031   7.365
 5234POPC   NC366527  18.045   5.888   5.322
 5234POPC   PO466528  18.664   5.721   5.371
 5234POPC   GL166529  18.372   5.975   5.742
 5234POPC   GL266530  18.012   6.174   5.749
 5234POPC   C1A66531  18.172   5.924   6.194
 5234POPC   D2A66532  18.093   5.636   6.571
 5234POPC   C3A66533  18.165   5.776   7.001
 5234POPC   C4A66534  18.128   5.956   7.410
 5234POPC   C1B66535  17.928   6.390   6.157
 5234POPC   C2B66536  18.089   6.344   6.599
 5234POPC   C3B66537  18.001   6.335   7.070
 5234POPC   C4B66538  18.045   6.440   7.512
 5235POPC   NC366539  14.370  25.574   5.371
 5235POPC   PO466540  14.479  24.939   5.508
 5235POPC   GL166541  14.362  25.268   5.820
 5235POPC   GL266542  14.649  25.482   5.870
 5235POPC   C1A66543  14.278  25.295   6.305
 5235POPC   D2A66544  14.477  25.133   6.725
 5235POPC   C3A66545  14.245  25.087   7.161
 5235POPC   C4A66546  14.058  25.345   7.544
 5235POPC   C1B66547  14.782  25.359   6.310
 5235POPC   C2B66548  14.899  25.467   6.739
 5235POPC   C3B66549  14.636  25.445   7.101
 5235POPC   C4B66550  14.208  25.596   7.141
 5236POPC   NC366551   3.274  36.863   5.393
 5236POPC   PO466552   3.902  36.667   5.580
 5236POPC   GL166553   3.678  36.991   5.801
 5236POPC   GL266554   3.318  36.993   5.876
 5236POPC   C1A66555   3.755  37.020   6.233
 5236POPC   D2A66556   3.898  36.831   6.574
 5236POPC   C3A66557   3.724  36.955   6.929
 5236POPC   C4A66558   3.817  36.850   7.320
 5236POPC   C1B66559   3.243  36.933   6.282
 5236POPC   C2B66560   3.265  36.870   6.707
 5236POPC   C3B66561   3.243  37.159   7.001
 5236POPC   C4B66562   3.550  37.312   7.273
 5237POPC   NC366563  19.242  16.526   5.321
 5237POPC   PO466564  18.981  17.016   5.599
 5237POPC   GL166565  18.910  16.653   5.847
 5237POPC   GL266566  19.259  16.490   5.827
 5237POPC   C1A66567  18.788  16.664   6.288
 5237POPC   D2A66568  19.065  16.446   6.572
 5237POPC   C3A66569  19.259  16.650   6.923
 5237POPC   C4A66570  19.126  16.466   7.286
 5237POPC   C1B66571  19.270  16.752   6.181
 5237POPC   C2B66572  19.110  17.030   6.492
 5237POPC   C3B66573  18.950  17.064   6.894
 5237POPC   C4B66574  19.034  16.975   7.311
 5238POPC   NC366575  39.488  25.426   5.340
 5238POPC   PO466576  39.166  24.954   5.438
 5238POPC   GL166577  39.182  25.228   5.854
 5238POPC   GL266578  39.446  25.516   5.874
 5238POPC   C1A66579  39.145  25.223   6.352
 5238POPC   D2A66580  39.015  25.091   6.799
 5238POPC   C3A66581  39.227  25.015   7.187
 5238POPC   C4A66582  39.164  25.148   7.599
 5238POPC   C1B66583  39.470  25.622   6.328
 5238POPC   C2B66584  39.384  25.486   6.764
 5238POPC   C3B66585  39.193  25.520   7.175
 5238POPC   C4B66586  39.331  25.634   7.570
 5239POPC   NC366587  15.365  16.372   5.606
 5239POPC   PO466588  14.801  16.652   5.402
 5239POPC   GL166589  15.021  16.719   5.821
 5239POPC   GL266590  15.367  16.858   5.781
 5239POPC   C1A66591  14.881  16.747   6.284
 5239POPC   D2A66592  15.120  16.909   6.675
 5239POPC   C3A66593  14.999  16.872   7.098
 5239POPC   C4A66594  14.763  16.516   7.185
 5239POPC   C1B66595  15.343  16.995   6.219
 5239POPC   C2B66596  15.619  16.974   6.612
 5239POPC   C3B66597  15.691  16.954   7.057
 5239POPC   C4B66598  15.431  17.018   7.442
 5240POPC   NC366599   6.466  12.689   5.514
 5240POPC   PO466600   6.826  13.209   5.518
 5240POPC   GL166601   6.610  13.046   5.871
 5240POPC   GL266602   6.750  12.728   5.952
 5240POPC   C1A66603   6.476  12.960   6.301
 5240POPC   D2A66604   6.424  13.159   6.666
 5240POPC   C3A66605   6.560  13.019   7.060
 5240POPC   C4A66606   6.389  12.650   7.220
 5240POPC   C1B66607   6.956  13.094   6.242
 5240POPC   C2B66608   6.927  13.004   6.665
 5240POPC   C3B66609   6.865  12.599   6.877
 5240POPC   C4B66610   6.858  12.422   7.286
 5241POPC   NC366611  17.649  41.878   5.424
 5241POPC   PO466612  17.483  41.326   5.224
 5241POPC   GL166613  17.569  41.457   5.717
 5241POPC   GL266614  17.313  41.285   5.862
 5241POPC   C1A66615  17.722  41.538   6.131
 5241POPC   D2A66616  17.650  41.429   6.562
 5241POPC   C3A66617  17.809  41.668   6.885
 5241POPC   C4A66618  17.657  41.743   7.284
 5241POPC   C1B66619  17.202  41.387   6.252
 5241POPC   C2B66620  17.190  41.659   6.586
 5241POPC   C3B66621  17.311  41.553   6.950
 5241POPC   C4B66622  17.167  41.420   7.306
 5242POPC   NC366623  11.294  20.836   5.490
 5242POPC   PO466624  10.850  20.256   5.557
 5242POPC   GL166625  11.122  20.488   5.898
 5242POPC   GL266626  11.484  20.427   5.790
 5242POPC   C1A66627  11.272  20.612   6.363
 5242POPC   D2A66628  11.331  20.986   6.694
 5242POPC   C3A66629  11.279  20.891   7.157
 5242POPC   C4A66630  11.040  20.542   7.322
 5242POPC   C1B66631  11.766  20.352   6.159
 5242POPC   C2B66632  11.689  20.284   6.587
 5242POPC   C3B66633  11.401  20.457   6.878
 5242POPC   C4B66634  11.518  20.349   7.271
 5243POPC   NC366635  24.232  44.206   5.120
 5243POPC   PO466636  24.640  43.772   5.395
 5243POPC   GL166637  24.522  43.711   5.832
 5243POPC   GL266638  24.167  43.595   5.849
 5243POPC   C1A66639  24.637  43.850   6.228
 5243POPC   D2A66640  24.731  44.108   6.564
 5243POPC   C3A66641  24.536  43.921   6.887
 5243POPC   C4A66642  24.729  43.817   7.243
 5243POPC   C1B66643  24.285  43.451   6.236
 5243POPC   C2B66644  24.531  43.499   6.583
 5243POPC   C3B66645  24.512  43.420   6.988
 5243POPC   C4B66646  24.315  43.519   7.365
 5244POPC   NC366647  33.262  38.431   5.530
 5244POPC   PO466648  33.957  38.609   5.500
 5244POPC   GL166649  33.939  38.655   5.913
 5244POPC   GL266650  33.598  38.607   5.893
 5244POPC   C1A66651  33.882  38.446   6.291
 5244POPC   D2A66652  33.679  38.538   6.644
 5244POPC   C3A66653  33.912  38.497   6.987
 5244POPC   C4A66654  34.113  38.504   7.369
 5244POPC   C1B66655  33.377  38.395   6.228
 5244POPC   C2B66656  33.533  38.057   6.492
 5244POPC   C3B66657  33.596  38.052   6.935
 5244POPC   C4B66658  33.667  38.222   7.340
 5245POPC   NC366659   7.983  30.976   5.553
 5245POPC   PO466660   8.644  30.870   5.535
 5245POPC   GL166661   8.397  30.861   5.903
 5245POPC   GL266662   8.177  30.597   5.859
 5245POPC   C1A66663   8.383  30.737   6.342
 5245POPC   D2A66664   8.463  30.716   6.763
 5245POPC   C3A66665   8.280  30.563   7.068
 5245POPC   C4A66666   8.354  30.900   7.275
 5245POPC   C1B66667   7.907  30.644   6.201
 5245POPC   C2B66668   7.954  30.675   6.650
 5245POPC   C3B66669   7.909  30.948   7.017
 5245POPC   C4B66670   7.895  30.735   7.428
 5246POPC   NC366671  31.253  13.065   5.448
 5246POPC   PO466672  31.715  12.642   5.217
 5246POPC   GL166673  31.754  12.692   5.698
 5246POPC   GL266674  31.641  13.053   5.801
 5246POPC   C1A66675  31.713  12.679   6.178
 5246POPC   D2A66676  31.403  12.758   6.530
 5246POPC   C3A66677  31.566  12.634   6.926
 5246POPC   C4A66678  31.277  12.653   7.254
 5246POPC   C1B66679  31.485  13.156   6.226
 5246POPC   C2B66680  31.625  13.199   6.656
 5246POPC   C3B66681  31.501  13.121   7.068
 5246POPC   C4B66682  31.695  12.880   7.386
 5247POPC   NC366683   0.112  18.514   5.485
 5247POPC   PO466684   0.382  19.121   5.384
 5247POPC   GL166685   0.396  19.106   5.821
 5247POPC   GL266686   0.437  18.755   5.862
 5247POPC   C1A66687   0.575  19.084   6.253
 5247POPC   D2A66688   0.555  19.003   6.707
 5247POPC   C3A66689   0.522  19.345   7.010
 5247POPC   C4A66690   0.500  19.230   7.445
 5247POPC   C1B66691   0.127  18.771   6.223
 5247POPC   C2B66692   0.036  18.922   6.675
 5247POPC   C3B66693   0.161  18.964   7.150
 5247POPC   C4B66694   0.067  18.934   7.634
 5248POPC   NC366695  21.147  31.602   5.465
 5248POPC   PO466696  21.854  31.697   5.475
 5248POPC   GL166697  21.606  31.462   5.817
 5248POPC   GL266698  21.273  31.298   5.836
 5248POPC   C1A66699  21.506  31.533   6.264
 5248POPC   D2A66700  21.289  31.754   6.615
 5248POPC   C3A66701  21.374  31.548   7.015
 5248POPC   C4A66702  21.814  31.421   7.131
 5248POPC   C1B66703  21.274  31.069   6.222
 5248POPC   C2B66704  21.198  31.187   6.663
 5248POPC   C3B66705  21.045  31.143   7.091
 5248POPC   C4B66706  21.197  31.175   7.530
 5249POPC   NC366707   2.189   8.655   5.332
 5249POPC   PO466708   2.086   9.351   5.269
 5249POPC   GL166709   2.075   9.165   5.698
 5249POPC   GL266710   2.162   8.857   5.809
 5249POPC   C1A66711   2.036   9.156   6.208
 5249POPC   D2A66712   2.113   9.387   6.599
 5249POPC   C3A66713   2.057   9.167   6.993
 5249POPC   C4A66714   1.688   8.900   7.069
 5249POPC   C1B66715   2.401   8.793   6.221
 5249POPC   C2B66716   2.346   8.903   6.653
 5249POPC   C3B66717   2.454   8.808   7.070
 5249POPC   C4B66718   2.109   8.722   7.301
 5250POPC   NC366719  23.809  21.586   5.569
 5250POPC   PO466720  23.354  21.086   5.526
 5250POPC   GL166721  23.271  21.251   5.971
 5250POPC   GL266722  23.407  21.583   5.964
 5250POPC   C1A66723  23.300  21.176   6.455
 5250POPC   D2A66724  23.600  20.894   6.710
 5250POPC   C3A66725  23.880  21.132   6.967
 5250POPC   C4A66726  23.535  21.363   7.229
 5250POPC   C1B66727  23.699  21.463   6.310
 5250POPC   C2B66728  23.692  21.539   6.764
 5250POPC   C3B66729  23.941  21.635   7.197
 5250POPC   C4B66730  23.946  21.382   7.569
 5251POPC   NC366731  33.428   1.001   5.406
 5251POPC   PO466732  32.751   1.150   5.216
 5251POPC   GL166733  32.841   1.127   5.735
 5251POPC   GL266734  33.148   0.919   5.848
 5251POPC   C1A66735  33.066   1.313   6.160
 5251POPC   D2A66736  33.292   1.505   6.520
 5251POPC   C3A66737  33.088   1.458   6.918
 5251POPC   C4A66738  32.865   1.354   7.285
 5251POPC   C1B66739  33.318   0.887   6.272
 5251POPC   C2B66740  33.028   1.023   6.589
 5251POPC   C3B66741  32.904   0.961   6.977
 5251POPC   C4B66742  33.253   1.022   7.202
 5252POPC   NC366743  31.678  38.415   5.305
 5252POPC   PO466744  31.172  38.663   5.234
 5252POPC   GL166745  31.319  38.391   5.635
 5252POPC   GL266746  31.582  38.554   5.795
 5252POPC   C1A66747  31.425  38.143   6.039
 5252POPC   D2A66748  31.554  38.221   6.485
 5252POPC   C3A66749  31.341  38.315   6.881
 5252POPC   C4A66750  31.308  38.740   7.065
 5252POPC   C1B66751  31.666  38.668   6.235
 5252POPC   C2B66752  31.913  38.568   6.611
 5252POPC   C3B66753  31.850  38.634   7.036
 5252POPC   C4B66754  31.620  38.379   7.321
 5253POPC   NC366755  33.605  43.641   5.547
 5253POPC   PO466756  34.274  43.976   5.496
 5253POPC   GL166757  34.033  43.863   5.835
 5253POPC   GL266758  33.887  44.203   5.853
 5253POPC   C1A66759  33.959  43.841   6.290
 5253POPC   D2A66760  33.545  43.859   6.460
 5253POPC   C3A66761  33.530  43.823   6.887
 5253POPC   C4A66762  33.741  43.579   7.218
 5253POPC   C1B66763  33.847  44.340   6.272
 5253POPC   C2B66764  33.858  44.196   6.701
 5253POPC   C3B66765  34.034  43.871   6.911
 5253POPC   C4B66766  34.140  43.899   7.333
 5254POPC   NC366767  15.954  17.940   5.495
 5254POPC   PO466768  16.056  18.624   5.429
 5254POPC   GL166769  15.831  18.369   5.777
 5254POPC   GL266770  16.055  18.116   5.952
 5254POPC   C1A66771  15.745  18.409   6.258
 5254POPC   D2A66772  16.082  18.316   6.563
 5254POPC   C3A66773  16.057  18.203   7.007
 5254POPC   C4A66774  15.889  18.460   7.292
 5254POPC   C1B66775  15.811  17.901   6.254
 5254POPC   C2B66776  15.883  17.840   6.684
 5254POPC   C3B66777  15.619  17.922   7.053
 5254POPC   C4B66778  15.808  17.946   7.445
 5255POPC   NC366779  20.854  24.301   5.299
 5255POPC   PO466780  20.532  24.883   5.346
 5255POPC   GL166781  20.610  24.566   5.704
 5255POPC   GL266782  20.953  24.480   5.783
 5255POPC   C1A66783  20.625  24.440   6.183
 5255POPC   D2A66784  20.921  24.438   6.577
 5255POPC   C3A66785  20.766  24.577   7.008
 5255POPC   C4A66786  20.513  24.925   7.188
 5255POPC   C1B66787  21.064  24.178   6.127
 5255POPC   C2B66788  21.115  23.969   6.552
 5255POPC   C3B66789  21.047  24.110   6.995
 5255POPC   C4B66790  20.678  24.141   7.282
 5256POPC   NC366791  32.232  37.943   5.106
 5256POPC   PO466792  32.210  37.487   5.632
 5256POPC   GL166793  32.292  37.557   5.991
 5256POPC   GL266794  32.249  37.898   6.013
 5256POPC   C1A66795  32.223  37.571   6.392
 5256POPC   D2A66796  32.056  37.614   6.718
 5256POPC   C3A66797  32.259  37.786   7.008
 5256POPC   C4A66798  32.124  37.641   7.375
 5256POPC   C1B66799  32.610  37.886   6.254
 5256POPC   C2B66800  32.611  38.004   6.654
 5256POPC   C3B66801  32.739  37.958   7.053
 5256POPC   C4B66802  32.528  37.949   7.434
 5257POPC   NC366803   1.431  19.685   5.431
 5257POPC   PO466804   1.676  20.309   5.524
 5257POPC   GL166805   1.490  19.996   5.850
 5257POPC   GL266806   1.404  19.613   5.924
 5257POPC   C1A66807   1.237  19.991   6.222
 5257POPC   D2A66808   1.277  19.784   6.615
 5257POPC   C3A66809   1.278  19.981   7.018
 5257POPC   C4A66810   1.318  19.761   7.397
 5257POPC   C1B66811   1.059  19.490   6.201
 5257POPC   C2B66812   0.915  19.359   6.595
 5257POPC   C3B66813   1.104  19.448   6.973
 5257POPC   C4B66814   0.877  19.534   7.323
 5258POPC   NC366815  24.723  33.851   5.598
 5258POPC   PO466816  25.327  33.721   5.249
 5258POPC   GL166817  25.181  33.590   5.660
 5258POPC   GL266818  25.159  33.926   5.828
 5258POPC   C1A66819  25.305  33.555   6.117
 5258POPC   D2A66820  25.093  33.559   6.512
 5258POPC   C3A66821  25.254  33.681   6.914
 5258POPC   C4A66822  25.545  33.546   7.227
 5258POPC   C1B66823  25.059  34.148   6.229
 5258POPC   C2B66824  24.984  34.085   6.666
 5258POPC   C3B66825  25.217  34.194   7.013
 5258POPC   C4B66826  25.160  34.134   7.448
 5259POPC   NC366827  18.599  41.024   5.517
 5259POPC   PO466828  18.558  40.356   5.532
 5259POPC   GL166829  18.332  40.570   5.895
 5259POPC   GL266830  18.385  40.942   5.962
 5259POPC   C1A66831  18.028  40.720   6.240
 5259POPC   D2A66832  17.897  40.905   6.639
 5259POPC   C3A66833  18.187  40.989   6.964
 5259POPC   C4A66834  18.389  40.724   7.292
 5259POPC   C1B66835  18.533  41.159   6.329
 5259POPC   C2B66836  18.609  41.205   6.770
 5259POPC   C3B66837  18.549  41.216   7.243
 5259POPC   C4B66838  18.206  41.059   7.616
 5260POPC   NC366839   9.616  34.275   5.493
 5260POPC   PO466840  10.085  34.674   5.494
 5260POPC   GL166841   9.869  34.518   5.861
 5260POPC   GL266842   9.947  34.178   5.880
 5260POPC   C1A66843   9.642  34.589   6.257
 5260POPC   D2A66844   9.678  34.875   6.629
 5260POPC   C3A66845   9.733  34.699   7.059
 5260POPC   C4A66846   9.395  34.431   7.174
 5260POPC   C1B66847  10.034  34.274   6.283
 5260POPC   C2B66848   9.929  34.410   6.693
 5260POPC   C3B66849  10.137  34.312   7.085
 5260POPC   C4B66850   9.997  34.423   7.483
 5261POPC   NC366851  32.130  44.040   5.312
 5261POPC   PO466852  32.550  43.524   5.200
 5261POPC   GL166853  32.516  43.841   5.600
 5261POPC   GL266854  32.184  43.754   5.766
 5261POPC   C1A66855  32.447  44.091   6.042
 5261POPC   D2A66856  32.389  43.900   6.477
 5261POPC   C3A66857  32.292  44.060   6.907
 5261POPC   C4A66858  32.386  44.036   7.359
 5261POPC   C1B66859  31.970  43.909   6.160
 5261POPC   C2B66860  31.883  44.084   6.570
 5261POPC   C3B66861  31.908  44.408   6.882
 5261POPC   C4B66862  31.907  44.242   7.303
 5262POPC   NC366863  11.309  11.601   5.002
 5262POPC   PO466864  11.374  11.080   5.450
 5262POPC   GL166865  11.163  11.192   5.849
 5262POPC   GL266866  10.937  11.509   5.782
 5262POPC   C1A66867  11.255  11.069   6.300
 5262POPC   D2A66868  11.294  10.895   6.752
 5262POPC   C3A66869  11.407  11.173   7.094
 5262POPC   C4A66870  11.430  11.096   7.551
 5262POPC   C1B66871  11.101  11.568   6.219
 5262POPC   C2B66872  11.259  11.597   6.640
 5262POPC   C3B66873  11.041  11.605   7.030
 5262POPC   C4B66874  11.042  11.397   7.430
 5263POPC   NC366875  18.260  24.183   5.559
 5263POPC   PO466876  18.142  23.483   5.532
 5263POPC   GL166877  18.201  23.745   5.867
 5263POPC   GL266878  18.552  23.866   5.836
 5263POPC   C1A66879  18.106  23.606   6.293
 5263POPC   D2A66880  17.866  23.543   6.679
 5263POPC   C3A66881  18.000  23.805   7.004
 5263POPC   C4A66882  18.295  23.574   7.222
 5263POPC   C1B66883  18.433  24.006   6.256
 5263POPC   C2B66884  18.398  23.822   6.681
 5263POPC   C3B66885  18.574  23.979   7.057
 5263POPC   C4B66886  18.492  24.016   7.462
 5264POPC   NC366887  40.985  16.300   5.571
 5264POPC   PO466888  40.889  16.892   5.517
 5264POPC   GL166889  40.755  16.868   5.903
 5264POPC   GL266890  40.690  16.537   5.914
 5264POPC   C1A66891  40.860  16.774   6.322
 5264POPC   D2A66892  40.594  16.667   6.656
 5264POPC   C3A66893  40.769  16.748   7.065
 5264POPC   C4A66894  40.951  16.894   7.441
 5264POPC   C1B66895  40.515  16.321   6.260
 5264POPC   C2B66896  40.587  16.158   6.698
 5264POPC   C3B66897  40.610  16.233   7.149
 5264POPC   C4B66898  40.514  16.539   7.488
 5265POPC   NC366899   8.828  16.354   5.426
 5265POPC   PO466900   9.141  16.950   5.408
 5265POPC   GL166901   8.980  16.712   5.772
 5265POPC   GL266902   9.160  16.421   5.821
 5265POPC   C1A66903   8.902  16.738   6.231
 5265POPC   D2A66904   9.044  16.995   6.598
 5265POPC   C3A66905   8.906  16.862   7.008
 5265POPC   C4A66906   8.946  16.973   7.438
 5265POPC   C1B66907   9.148  16.288   6.257
 5265POPC   C2B66908   8.976  16.403   6.660
 5265POPC   C3B66909   9.133  16.400   7.081
 5265POPC   C4B66910   9.307  16.498   7.478
 5266POPC   NC366911  38.396   5.146   5.364
 5266POPC   PO466912  37.949   5.712   5.502
 5266POPC   GL166913  38.136   5.332   5.750
 5266POPC   GL266914  38.593   5.299   5.796
 5266POPC   C1A66915  38.269   5.160   6.141
 5266POPC   D2A66916  38.316   4.837   6.479
 5266POPC   C3A66917  38.247   4.983   6.903
 5266POPC   C4A66918  38.410   5.120   7.295
 5266POPC   C1B66919  38.778   5.043   6.147
 5266POPC   C2B66920  38.944   4.967   6.554
 5266POPC   C3B66921  38.756   4.949   6.937
 5266POPC   C4B66922  38.825   4.753   7.345
 5267POPC   NC366923  19.236  43.658   5.388
 5267POPC   PO466924  19.466  44.409   5.386
 5267POPC   GL166925  19.342  44.100   5.779
 5267POPC   GL266926  19.125  43.815   5.847
 5267POPC   C1A66927  19.252  44.094   6.236
 5267POPC   D2A66928  19.041  43.913   6.578
 5267POPC   C3A66929  19.350  43.804   6.903
 5267POPC   C4A66930  19.227  43.912   7.335
 5267POPC   C1B66931  18.938  43.571   6.166
 5267POPC   C2B66932  18.886  43.405   6.573
 5267POPC   C3B66933  18.885  43.604   6.983
 5267POPC   C4B66934  18.851  43.394   7.356
 5268POPC   NC366935  39.933  25.719   5.729
 5268POPC   PO466936  40.136  25.193   5.378
 5268POPC   GL166937  39.992  25.159   5.808
 5268POPC   GL266938  39.653  25.041   5.771
 5268POPC   C1A66939  40.073  25.381   6.230
 5268POPC   D2A66940  39.884  25.441   6.631
 5268POPC   C3A66941  40.175  25.290   6.952
 5268POPC   C4A66942  40.161  25.422   7.376
 5268POPC   C1B66943  39.628  25.144   6.211
 5268POPC   C2B66944  39.574  25.013   6.644
 5268POPC   C3B66945  39.688  25.165   7.044
 5268POPC   C4B66946  39.650  25.227   7.477
 5269POPC   NC366947   7.525  29.173   5.454
 5269POPC   PO466948   6.903  29.253   5.697
 5269POPC   GL166949   7.277  29.095   5.919
 5269POPC   GL266950   7.679  29.139   5.933
 5269POPC   C1A66951   7.354  29.103   6.330
 5269POPC   D2A66952   7.619  28.979   6.628
 5269POPC   C3A66953   7.339  29.036   6.951
 5269POPC   C4A66954   7.376  29.125   7.329
 5269POPC   C1B66955   7.723  29.456   6.256
 5269POPC   C2B66956   7.877  29.480   6.677
 5269POPC   C3B66957   7.806  29.289   7.099
 5269POPC   C4B66958   7.834  29.338   7.583
 5270POPC   NC366959  19.440  34.935   5.534
 5270POPC   PO466960  19.996  35.382   5.386
 5270POPC   GL166961  19.746  35.298   5.782
 5270POPC   GL266962  19.415  35.423   5.812
 5270POPC   C1A66963  19.938  35.233   6.188
 5270POPC   D2A66964  19.892  35.420   6.569
 5270POPC   C3A66965  20.062  35.238   6.889
 5270POPC   C4A66966  19.992  35.108   7.284
 5270POPC   C1B66967  19.436  35.177   6.203
 5270POPC   C2B66968  19.559  35.037   6.621
 5270POPC   C3B66969  19.549  35.293   6.979
 5270POPC   C4B66970  19.173  35.285   7.229
 5271POPC   NC366971   3.560   2.470   5.325
 5271POPC   PO466972   3.280   1.932   5.174
 5271POPC   GL166973   3.421   2.051   5.628
 5271POPC   GL266974   3.159   2.275   5.737
 5271POPC   C1A66975   3.444   1.950   6.122
 5271POPC   D2A66976   3.739   1.963   6.508
 5271POPC   C3A66977   3.562   1.842   6.930
 5271POPC   C4A66978   3.566   1.935   7.404
 5271POPC   C1B66979   3.146   2.381   6.197
 5271POPC   C2B66980   3.307   2.233   6.641
 5271POPC   C3B66981   3.220   2.174   7.118
 5271POPC   C4B66982   3.075   1.984   7.552
 5272POPC   NC366983   0.433  29.004   5.378
 5272POPC   PO466984   0.936  29.384   5.436
 5272POPC   GL166985   0.630  29.342   5.759
 5272POPC   GL266986   0.438  29.014   5.882
 5272POPC   C1A66987   0.594  29.362   6.203
 5272POPC   D2A66988   0.286  29.195   6.474
 5272POPC   C3A66989   0.427  29.137   6.886
 5272POPC   C4A66990   0.778  29.160   7.184
 5272POPC   C1B66991   0.146  28.785   6.185
 5272POPC   C2B66992  44.974  28.824   6.625
 5272POPC   C3B66993   0.123  28.736   7.038
 5272POPC   C4B66994   0.280  28.986   7.350
 5273POPC   NC366995   6.428   3.949   5.558
 5273POPC   PO466996   6.371   4.674   5.374
 5273POPC   GL166997   6.583   4.448   5.742
 5273POPC   GL266998   6.919   4.309   5.753
 5273POPC   C1A66999   6.528   4.341   6.200
 5273POPC   D2A67000   6.479   4.466   6.648
 5273POPC   C3A67001   6.482   4.180   7.008
 5273POPC   C4A67002   6.382   4.299   7.433
 5273POPC   C1B67003   6.909   4.017   6.162
 5273POPC   C2B67004   6.751   3.947   6.582
 5273POPC   C3B67005   6.911   3.892   6.989
 5273POPC   C4B67006   6.800   3.957   7.451
 5274POPC   NC367007  15.219  37.993   5.233
 5274POPC   PO467008  14.859  37.414   5.329
 5274POPC   GL167009  15.198  37.642   5.634
 5274POPC   GL267010  15.143  38.019   5.744
 5274POPC   C1A67011  15.380  37.504   6.073
 5274POPC   D2A67012  15.324  37.185   6.455
 5274POPC   C3A67013  15.299  37.334   6.898
 5274POPC   C4A67014  14.938  37.436   7.179
 5274POPC   C1B67015  15.335  38.036   6.169
 5274POPC   C2B67016  15.379  37.882   6.616
 5274POPC   C3B67017  15.277  37.929   7.064
 5274POPC   C4B67018  15.364  38.054   7.523
 5275POPC   NC367019  39.778   5.807   5.381
 5275POPC   PO467020  40.368   5.465   5.318
 5275POPC   GL167021  40.250   5.838   5.651
 5275POPC   GL267022  39.927   5.759   5.871
 5275POPC   C1A67023  40.248   6.087   6.086
 5275POPC   D2A67024  40.043   5.886   6.452
 5275POPC   C3A67025  40.186   5.897   6.894
 5275POPC   C4A67026  40.317   5.604   7.214
 5275POPC   C1B67027  39.730   6.142   6.113
 5275POPC   C2B67028  39.632   6.158   6.574
 5275POPC   C3B67029  39.684   5.837   6.953
 5275POPC   C4B67030  39.889   5.870   7.379
 5276POPC   NC367031   3.078  38.423   5.192
 5276POPC   PO467032   3.693  38.219   5.247
 5276POPC   GL167033   3.456  38.295   5.651
 5276POPC   GL267034   3.315  38.637   5.653
 5276POPC   C1A67035   3.532  38.360   6.126
 5276POPC   D2A67036   3.817  38.451   6.493
 5276POPC   C3A67037   3.658  38.648   6.882
 5276POPC   C4A67038   3.857  38.600   7.297
 5276POPC   C1B67039   3.399  38.854   6.069
 5276POPC   C2B67040   3.213  38.738   6.462
 5276POPC   C3B67041   3.172  38.833   6.871
 5276POPC   C4B67042   3.224  38.514   7.169
 5277POPC   NC367043  35.687  27.616   5.281
 5277POPC   PO467044  35.033  27.566   5.339
 5277POPC   GL167045  35.350  27.567   5.711
 5277POPC   GL267046  35.528  27.248   5.787
 5277POPC   C1A67047  35.513  27.603   6.163
 5277POPC   D2A67048  35.459  27.406   6.570
 5277POPC   C3A67049  35.481  27.606   6.979
 5277POPC   C4A67050  35.718  27.505   7.351
 5277POPC   C1B67051  35.183  27.195   6.116
 5277POPC   C2B67052  34.964  27.316   6.500
 5277POPC   C3B67053  35.064  27.261   6.912
 5277POPC   C4B67054  35.129  27.406   7.308
 5278POPC   NC367055  13.037  19.241   5.398
 5278POPC   PO467056  12.421  18.916   5.380
 5278POPC   GL167057  12.651  19.108   5.751
 5278POPC   GL267058  12.997  18.963   5.848
 5278POPC   C1A67059  12.681  19.168   6.214
 5278POPC   D2A67060  12.787  18.867   6.564
 5278POPC   C3A67061  12.614  19.072   6.920
 5278POPC   C4A67062  12.828  19.272   7.226
 5278POPC   C1B67063  13.321  18.814   6.161
 5278POPC   C2B67064  13.329  18.819   6.610
 5278POPC   C3B67065  13.139  18.863   7.001
 5278POPC   C4B67066  12.808  18.712   7.222
 5279POPC   NC367067   3.507   6.969   5.504
 5279POPC   PO467068   3.878   6.337   5.405
 5279POPC   GL167069   3.673   6.570   5.771
 5279POPC   GL267070   3.390   6.439   6.003
 5279POPC   C1A67071   3.731   6.784   6.181
 5279POPC   D2A67072   3.455   6.623   6.523
 5279POPC   C3A67073   3.484   6.464   6.936
 5279POPC   C4A67074   3.545   6.481   7.362
 5279POPC   C1B67075   3.248   6.894   6.143
 5279POPC   C2B67076   3.153   7.046   6.540
 5279POPC   C3B67077   3.329   6.981   6.944
 5279POPC   C4B67078   3.446   6.978   7.363
 5280POPC   NC367079  39.657  35.453   5.430
 5280POPC   PO467080  39.043  35.447   5.542
 5280POPC   GL167081  39.325  35.334   5.861
 5280POPC   GL267082  39.524  35.628   5.885
 5280POPC   C1A67083  39.184  35.324   6.283
 5280POPC   D2A67084  38.845  35.474   6.517
 5280POPC   C3A67085  38.918  35.241   6.872
 5280POPC   C4A67086  39.168  35.273   7.208
 5280POPC   C1B67087  39.644  35.532   6.290
 5280POPC   C2B67088  39.564  35.366   6.714
 5280POPC   C3B67089  39.518  35.640   7.096
 5280POPC   C4B67090  39.480  35.564   7.542
 5281POPC   NC367091  26.607  24.245   5.635
 5281POPC   PO467092  26.772  24.889   5.374
 5281POPC   GL167093  26.791  24.689   5.800
 5281POPC   GL267094  27.127  24.587   5.929
 5281POPC   C1A67095  26.726  24.554   6.243
 5281POPC   D2A67096  26.906  24.489   6.642
 5281POPC   C3A67097  26.685  24.552   7.015
 5281POPC   C4A67098  26.633  24.848   7.320
 5281POPC   C1B67099  27.103  24.202   6.231
 5281POPC   C2B67100  27.129  24.036   6.657
 5281POPC   C3B67101  27.063  24.213   7.091
 5281POPC   C4B67102  26.950  24.454   7.476
 5282POPC   NC367103  24.770  13.940   5.366
 5282POPC   PO467104  24.350  14.394   5.717
 5282POPC   GL167105  24.647  14.117   5.845
 5282POPC   GL267106  24.875  14.354   5.646
 5282POPC   C1A67107  24.659  14.136   6.309
 5282POPC   D2A67108  24.527  14.543   6.482
 5282POPC   C3A67109  24.244  14.551   6.820
 5282POPC   C4A67110  24.283  14.228   7.089
 5282POPC   C1B67111  25.032  14.399   6.055
 5282POPC   C2B67112  25.061  14.426   6.488
 5282POPC   C3B67113  24.865  14.508   6.905
 5282POPC   C4B67114  24.792  14.188   7.184
 5283POPC   NC367115   4.441  11.018   5.599
 5283POPC   PO467116   3.842  11.397   5.489
 5283POPC   GL167117   4.085  11.364   5.847
 5283POPC   GL267118   4.423  11.529   5.824
 5283POPC   C1A67119   4.099  11.564   6.254
 5283POPC   D2A67120   4.204  11.368   6.671
 5283POPC   C3A67121   4.193  11.517   7.113
 5283POPC   C4A67122   4.037  11.559   7.534
 5283POPC   C1B67123   4.717  11.690   6.167
 5283POPC   C2B67124   4.821  11.589   6.608
 5283POPC   C3B67125   4.660  11.340   6.955
 5283POPC   C4B67126   4.675  11.525   7.331
 5284POPC   NC367127  32.762  28.579   5.318
 5284POPC   PO467128  33.369  28.267   5.331
 5284POPC   GL167129  33.047  28.215   5.678
 5284POPC   GL267130  32.943  28.542   5.832
 5284POPC   C1A67131  32.981  28.091   6.133
 5284POPC   D2A67132  32.691  28.015   6.502
 5284POPC   C3A67133  32.810  28.019   6.961
 5284POPC   C4A67134  33.127  28.156   7.259
 5284POPC   C1B67135  33.026  28.577   6.301
 5284POPC   C2B67136  33.101  28.441   6.747
 5284POPC   C3B67137  33.066  28.655   7.169
 5284POPC   C4B67138  32.958  28.672   7.629
 5285POPC   NC367139   7.903  39.173   5.317
 5285POPC   PO467140   8.517  39.421   5.388
 5285POPC   GL167141   8.147  39.423   5.708
 5285POPC   GL267142   8.379  39.376   5.955
 5285POPC   C1A67143   7.931  39.421   6.180
 5285POPC   D2A67144   8.035  39.429   6.684
 5285POPC   C3A67145   8.106  39.270   7.150
 5285POPC   C4A67146   7.895  39.339   7.571
 5285POPC   C1B67147   8.329  39.135   6.350
 5285POPC   C2B67148   8.422  39.070   6.785
 5285POPC   C3B67149   8.720  38.813   7.008
 5285POPC   C4B67150   8.664  38.678   7.431
 5286POPC   NC367151  44.128  17.137   5.560
 5286POPC   PO467152  43.786  17.666   5.276
 5286POPC   GL167153  43.832  17.594   5.781
 5286POPC   GL267154  43.524  17.656   5.947
 5286POPC   C1A67155  44.107  17.614   6.171
 5286POPC   D2A67156  44.014  17.771   6.583
 5286POPC   C3A67157  44.179  17.612   6.959
 5286POPC   C4A67158  44.060  17.823   7.334
 5286POPC   C1B67159  43.615  17.518   6.348
 5286POPC   C2B67160  43.695  17.346   6.735
 5286POPC   C3B67161  43.716  17.464   7.156
 5286POPC   C4B67162  43.727  17.448   7.595
 5287POPC   NC367163   6.587  38.373   5.276
 5287POPC   PO467164   6.912  38.801   5.636
 5287POPC   GL167165   6.711  38.547   5.920
 5287POPC   GL267166   6.596  38.248   5.777
 5287POPC   C1A67167   6.725  38.626   6.352
 5287POPC   D2A67168   6.917  38.407   6.686
 5287POPC   C3A67169   6.654  38.436   7.028
 5287POPC   C4A67170   6.431  38.831   7.079
 5287POPC   C1B67171   6.628  38.139   6.229
 5287POPC   C2B67172   6.433  38.214   6.619
 5287POPC   C3B67173   6.504  37.943   6.976
 5287POPC   C4B67174   6.594  38.051   7.413
 5288POPC   NC367175  23.946  28.788   5.426
 5288POPC   PO467176  23.470  28.258   5.293
 5288POPC   GL167177  23.762  28.361   5.684
 5288POPC   GL267178  23.676  28.696   5.843
 5288POPC   C1A67179  23.912  28.310   6.145
 5288POPC   D2A67180  24.081  28.356   6.584
 5288POPC   C3A67181  23.783  28.157   6.867
 5288POPC   C4A67182  23.587  28.216   7.259
 5288POPC   C1B67183  23.793  28.784   6.247
 5288POPC   C2B67184  23.641  28.616   6.627
 5288POPC   C3B67185  23.794  28.654   7.042
 5288POPC   C4B67186  23.657  28.664   7.487
 5289POPC   NC367187  21.231  22.968   5.198
 5289POPC   PO467188  20.534  22.924   5.371
 5289POPC   GL167189  20.500  22.908   5.795
 5289POPC   GL267190  20.811  22.842   5.820
 5289POPC   C1A67191  20.417  22.758   6.231
 5289POPC   D2A67192  20.191  22.914   6.623
 5289POPC   C3A67193  20.355  22.718   7.010
 5289POPC   C4A67194  20.599  22.802   7.385
 5289POPC   C1B67195  20.912  22.977   6.227
 5289POPC   C2B67196  20.727  22.972   6.611
 5289POPC   C3B67197  20.881  22.835   6.974
 5289POPC   C4B67198  21.138  22.934   7.322
 5290POPC   NC367199  44.094   9.967   5.517
 5290POPC   PO467200  43.604   9.602   5.403
 5290POPC   GL167201  43.621   9.899   5.750
 5290POPC   GL267202  43.862   9.699   5.928
 5290POPC   C1A67203  43.666  10.093   6.185
 5290POPC   D2A67204  43.880   9.921   6.558
 5290POPC   C3A67205  44.029   9.998   6.967
 5290POPC   C4A67206  43.860   9.745   7.281
 5290POPC   C1B67207  44.178   9.672   6.241
 5290POPC   C2B67208  44.224   9.532   6.676
 5290POPC   C3B67209  44.293   9.533   7.114
 5290POPC   C4B67210  44.376   9.866   7.422
 5291POPC   NC367211  18.556  16.688   5.491
 5291POPC   PO467212  17.964  16.353   5.630
 5291POPC   GL167213  18.267  16.527   5.920
 5291POPC   GL267214  18.399  16.864   5.921
 5291POPC   C1A67215  18.274  16.628   6.355
 5291POPC   D2A67216  18.274  16.651   6.803
 5291POPC   C3A67217  18.620  16.713   7.070
 5291POPC   C4A67218  18.382  16.491   7.341
 5291POPC   C1B67219  18.181  17.121   6.187
 5291POPC   C2B67220  18.002  17.061   6.567
 5291POPC   C3B67221  17.901  16.980   6.956
 5291POPC   C4B67222  17.737  17.191   7.297
 5292POPC   NC367223  19.538  22.008   5.382
 5292POPC   PO467224  20.201  22.311   5.594
 5292POPC   GL167225  19.915  22.055   5.881
 5292POPC   GL267226  19.636  21.813   5.916
 5292POPC   C1A67227  19.961  22.061   6.332
 5292POPC   D2A67228  20.217  22.333   6.623
 5292POPC   C3A67229  20.044  22.291   7.043
 5292POPC   C4A67230  19.906  22.459   7.454
 5292POPC   C1B67231  19.471  22.147   6.218
 5292POPC   C2B67232  19.451  22.350   6.664
 5292POPC   C3B67233  19.493  22.230   7.137
 5292POPC   C4B67234  19.557  21.799   7.296
 5293POPC   NC367235   5.608  34.323   5.379
 5293POPC   PO467236   6.233  34.431   5.187
 5293POPC   GL167237   6.089  34.409   5.650
 5293POPC   GL267238   6.342  34.226   5.825
 5293POPC   C1A67239   5.825  34.558   6.053
 5293POPC   D2A67240   5.666  34.692   6.505
 5293POPC   C3A67241   5.682  34.841   6.961
 5293POPC   C4A67242   5.636  34.685   7.398
 5293POPC   C1B67243   6.253  34.335   6.264
 5293POPC   C2B67244   6.136  34.470   6.705
 5293POPC   C3B67245   6.157  34.692   7.123
 5293POPC   C4B67246   6.123  34.669   7.585
 5294POPC   NC367247  42.733  32.111   5.479
 5294POPC   PO467248  42.140  32.458   5.706
 5294POPC   GL167249  42.202  32.244   6.067
 5294POPC   GL267250  42.524  32.145   5.924
 5294POPC   C1A67251  42.014  32.076   6.470
 5294POPC   D2A67252  41.902  31.891   6.882
 5294POPC   C3A67253  42.243  32.087   7.121
 5294POPC   C4A67254  42.287  32.567   7.292
 5294POPC   C1B67255  42.657  32.422   6.195
 5294POPC   C2B67256  42.531  32.276   6.543
 5294POPC   C3B67257  42.563  32.395   6.908
 5294POPC   C4B67258  42.720  32.304   7.286
 5295POPC   NC367259  14.896  29.234   5.592
 5295POPC   PO467260  15.500  28.952   5.366
 5295POPC   GL167261  15.333  29.080   5.809
 5295POPC   GL267262  15.471  29.362   5.951
 5295POPC   C1A67263  15.102  29.219   6.238
 5295POPC   D2A67264  15.336  29.419   6.607
 5295POPC   C3A67265  15.042  29.435   6.935
 5295POPC   C4A67266  14.804  29.235   7.255
 5295POPC   C1B67267  15.575  29.036   6.318
 5295POPC   C2B67268  15.625  28.988   6.783
 5295POPC   C3B67269  15.472  29.257   7.134
 5295POPC   C4B67270  15.718  29.345   7.514
 5296POPC   NC367271   0.226   1.801   5.583
 5296POPC   PO467272   0.692   2.197   5.454
 5296POPC   GL167273   0.565   2.099   5.845
 5296POPC   GL267274   0.253   2.269   5.789
 5296POPC   C1A67275   0.602   1.837   6.205
 5296POPC   D2A67276   0.642   1.992   6.633
 5296POPC   C3A67277   0.563   1.670   6.908
 5296POPC   C4A67278   0.584   1.650   7.333
 5296POPC   C1B67279   0.156   2.122   6.221
 5296POPC   C2B67280   0.189   1.803   6.545
 5296POPC   C3B67281   0.141   1.930   6.957
 5296POPC   C4B67282   0.492   2.138   7.137
 5297POPC   NC367283   3.081   3.079   5.395
 5297POPC   PO467284   3.789   2.878   5.280
 5297POPC   GL167285   3.511   2.941   5.648
 5297POPC   GL267286   3.522   2.621   5.816
 5297POPC   C1A67287   3.289   2.977   6.082
 5297POPC   D2A67288   3.317   3.047   6.531
 5297POPC   C3A67289   3.422   2.732   6.852
 5297POPC   C4A67290   3.800   2.877   7.031
 5297POPC   C1B67291   3.667   2.410   6.190
 5297POPC   C2B67292   3.840   2.478   6.576
 5297POPC   C3B67293   3.839   2.273   6.928
 5297POPC   C4B67294   3.655   2.421   7.271
 5298POPC   NC367295  16.455  25.607   5.509
 5298POPC   PO467296  16.917  26.193   5.581
 5298POPC   GL167297  16.845  25.963   5.937
 5298POPC   GL267298  16.996  25.645   5.918
 5298POPC   C1A67299  16.740  26.161   6.327
 5298POPC   D2A67300  16.547  26.056   6.710
 5298POPC   C3A67301  16.558  26.278   7.086
 5298POPC   C4A67302  16.269  26.104   7.367
 5298POPC   C1B67303  16.874  25.640   6.366
 5298POPC   C2B67304  16.903  25.623   6.822
 5298POPC   C3B67305  16.929  25.807   7.234
 5298POPC   C4B67306  17.236  26.010   7.473
 5299POPC   NC367307  17.954  35.087   5.483
 5299POPC   PO467308  18.241  35.741   5.496
 5299POPC   GL167309  18.399  35.564   5.878
 5299POPC   GL267310  18.430  35.183   5.820
 5299POPC   C1A67311  18.533  35.442   6.291
 5299POPC   D2A67312  18.476  35.035   6.524
 5299POPC   C3A67313  18.244  35.088   6.901
 5299POPC   C4A67314  18.322  35.382   7.260
 5299POPC   C1B67315  18.083  35.231   6.149
 5299POPC   C2B67316  18.053  35.424   6.549
 5299POPC   C3B67317  17.876  35.430   6.957
 5299POPC   C4B67318  17.876  35.118   7.294
 5300POPC   NC367319  35.579  38.808   5.417
 5300POPC   PO467320  35.341  39.440   5.340
 5300POPC   GL167321  35.280  39.283   5.784
 5300POPC   GL267322  35.618  39.252   5.877
 5300POPC   C1A67323  35.240  39.075   6.222
 5300POPC   D2A67324  35.173  38.903   6.658
 5300POPC   C3A67325  35.202  39.202   6.965
 5300POPC   C4A67326  35.392  39.160   7.365
 5300POPC   C1B67327  35.753  39.253   6.316
 5300POPC   C2B67328  35.741  39.143   6.763
 5300POPC   C3B67329  35.773  39.427   7.121
 5300POPC   C4B67330  35.630  39.563   7.553
 5301POPC   NC367331  38.269  22.381   5.357
 5301POPC   PO467332  38.410  21.723   5.451
 5301POPC   GL167333  38.343  22.044   5.778
 5301POPC   GL267334  38.018  22.193   5.783
 5301POPC   C1A67335  38.465  22.255   6.204
 5301POPC   D2A67336  38.623  22.409   6.638
 5301POPC   C3A67337  38.371  22.328   7.018
 5301POPC   C4A67338  38.504  22.249   7.451
 5301POPC   C1B67339  38.067  21.929   6.187
 5301POPC   C2B67340  38.241  21.997   6.602
 5301POPC   C3B67341  38.131  21.867   7.004
 5301POPC   C4B67342  38.041  22.106   7.357
 5302POPC   NC367343  13.861  18.711   5.476
 5302POPC   PO467344  13.746  18.088   5.215
 5302POPC   GL167345  13.784  18.200   5.689
 5302POPC   GL267346  14.011  17.989   5.911
 5302POPC   C1A67347  13.752  18.424   6.113
 5302POPC   D2A67348  13.863  18.670   6.492
 5302POPC   C3A67349  13.678  18.494   6.846
 5302POPC   C4A67350  13.427  18.480   7.211
 5302POPC   C1B67351  13.681  17.902   6.223
 5302POPC   C2B67352  13.583  18.009   6.652
 5302POPC   C3B67353  13.673  18.047   7.080
 5302POPC   C4B67354  13.923  18.124   7.469
 5303POPC   NC367355  25.439   8.176   5.268
 5303POPC   PO467356  24.961   7.743   5.207
 5303POPC   GL167357  25.151   7.970   5.644
 5303POPC   GL267358  25.497   8.160   5.801
 5303POPC   C1A67359  25.195   7.968   6.138
 5303POPC   D2A67360  25.141   8.275   6.504
 5303POPC   C3A67361  25.190   8.163   6.945
 5303POPC   C4A67362  25.208   8.370   7.367
 5303POPC   C1B67363  25.630   8.347   6.240
 5303POPC   C2B67364  25.632   8.314   6.719
 5303POPC   C3B67365  25.665   8.462   7.157
 5303POPC   C4B67366  25.677   8.271   7.600
 5304POPC   NC367367  21.270  38.764   5.610
 5304POPC   PO467368  21.714  38.419   5.274
 5304POPC   GL167369  21.591  38.410   5.748
 5304POPC   GL267370  21.277  38.314   5.845
 5304POPC   C1A67371  21.566  38.525   6.208
 5304POPC   D2A67372  21.567  38.241   6.586
 5304POPC   C3A67373  21.625  38.411   6.991
 5304POPC   C4A67374  21.478  38.544   7.415
 5304POPC   C1B67375  21.202  38.160   6.248
 5304POPC   C2B67376  21.059  38.266   6.673
 5304POPC   C3B67377  21.198  38.139   7.095
 5304POPC   C4B67378  21.228  38.134   7.563
 5305POPC   NC367379  34.919  12.623   5.435
 5305POPC   PO467380  34.533  13.108   5.659
 5305POPC   GL167381  34.518  12.709   5.830
 5305POPC   GL267382  34.849  12.681   5.929
 5305POPC   C1A67383  34.442  12.506   6.241
 5305POPC   D2A67384  34.394  12.237   6.641
 5305POPC   C3A67385  34.431  12.509   7.034
 5305POPC   C4A67386  34.489  12.981   7.098
 5305POPC   C1B67387  35.014  12.873   6.273
 5305POPC   C2B67388  34.897  12.832   6.705
 5305POPC   C3B67389  35.012  13.087   7.045
 5305POPC   C4B67390  35.297  13.380   7.207
 5306POPC   NC367391   6.878  24.889   5.588
 5306POPC   PO467392   6.743  24.273   5.447
 5306POPC   GL167393   6.739  24.449   5.863
 5306POPC   GL267394   7.072  24.503   5.854
 5306POPC   C1A67395   6.823  24.275   6.284
 5306POPC   D2A67396   6.975  24.250   6.704
 5306POPC   C3A67397   6.673  24.175   7.038
 5306POPC   C4A67398   6.260  24.391   7.081
 5306POPC   C1B67399   7.135  24.693   6.236
 5306POPC   C2B67400   6.909  24.856   6.562
 5306POPC   C3B67401   6.795  24.673   6.934
 5306POPC   C4B67402   7.065  24.448   7.218
 5307POPC   NC367403  41.112   7.190   5.513
 5307POPC   PO467404  41.779   7.597   5.430
 5307POPC   GL167405  41.748   7.718   5.863
 5307POPC   GL267406  41.477   7.487   5.900
 5307POPC   C1A67407  41.775   7.588   6.329
 5307POPC   D2A67408  41.711   7.295   6.688
 5307POPC   C3A67409  41.669   7.523   7.092
 5307POPC   C4A67410  41.577   7.431   7.535
 5307POPC   C1B67411  41.283   7.306   6.282
 5307POPC   C2B67412  41.052   7.255   6.690
 5307POPC   C3B67413  41.231   7.278   7.102
 5307POPC   C4B67414  41.056   7.362   7.510
 5308POPC   NC367415  20.095  39.884   5.528
 5308POPC   PO467416  19.504  40.345   5.541
 5308POPC   GL167417  19.668  40.034   5.803
 5308POPC   GL267418  19.997  40.120   5.959
 5308POPC   C1A67419  19.591  40.007   6.243
 5308POPC   D2A67420  19.498  40.247   6.579
 5308POPC   C3A67421  19.710  40.029   6.905
 5308POPC   C4A67422  19.718  40.171   7.308
 5308POPC   C1B67423  19.958  39.679   6.114
 5308POPC   C2B67424  19.961  39.571   6.522
 5308POPC   C3B67425  20.143  39.748   6.873
 5308POPC   C4B67426  20.198  40.012   7.235
 5309POPC   NC367427  19.843  15.591   5.712
 5309POPC   PO467428  19.832  14.983   5.370
 5309POPC   GL167429  19.967  15.095   5.761
 5309POPC   GL267430  19.620  15.122   5.875
 5309POPC   C1A67431  20.168  15.183   6.143
 5309POPC   D2A67432  20.250  15.136   6.571
 5309POPC   C3A67433  20.007  15.344   6.894
 5309POPC   C4A67434  19.951  15.047   7.225
 5309POPC   C1B67435  19.705  15.098   6.337
 5309POPC   C2B67436  19.659  14.949   6.775
 5309POPC   C3B67437  19.457  14.888   7.186
 5309POPC   C4B67438  19.561  15.080   7.583
 5310POPC   NC367439  10.721  42.140   5.441
 5310POPC   PO467440  10.168  42.215   5.182
 5310POPC   GL167441  10.351  42.329   5.712
 5310POPC   GL267442  10.456  41.999   5.862
 5310POPC   C1A67443  10.394  42.485   6.177
 5310POPC   D2A67444  10.578  42.627   6.626
 5310POPC   C3A67445  10.334  42.531   7.014
 5310POPC   C4A67446  10.201  42.750   7.409
 5310POPC   C1B67447  10.670  42.064   6.267
 5310POPC   C2B67448  10.523  42.121   6.703
 5310POPC   C3B67449  10.591  42.116   7.159
 5310POPC   C4B67450  10.672  42.052   7.624
 5311POPC   NC367451  44.062  22.636   5.487
 5311POPC   PO467452  43.665  23.085   5.434
 5311POPC   GL167453  43.569  22.682   5.714
 5311POPC   GL267454  43.858  22.456   5.912
 5311POPC   C1A67455  43.489  22.689   6.153
 5311POPC   D2A67456  43.778  22.925   6.412
 5311POPC   C3A67457  43.788  22.833   6.815
 5311POPC   C4A67458  43.836  23.088   7.186
 5311POPC   C1B67459  44.167  22.754   6.131
 5311POPC   C2B67460  44.325  22.868   6.580
 5311POPC   C3B67461  44.233  22.798   7.037
 5311POPC   C4B67462  44.177  22.805   7.532
 5312POPC   NC367463   9.462  13.351   5.262
 5312POPC   PO467464   9.033  13.817   5.452
 5312POPC   GL167465   9.213  13.631   5.810
 5312POPC   GL267466   9.224  13.270   5.710
 5312POPC   C1A67467   9.041  13.729   6.241
 5312POPC   D2A67468   8.801  13.781   6.660
 5312POPC   C3A67469   8.871  14.036   7.059
 5312POPC   C4A67470   8.649  14.081   7.476
 5312POPC   C1B67471   9.236  13.246   6.160
 5312POPC   C2B67472   9.251  13.418   6.603
 5312POPC   C3B67473   9.239  13.619   7.013
 5312POPC   C4B67474   9.343  13.445   7.427
 5313POPC   NC367475   0.145  31.097   5.562
 5313POPC   PO467476   0.092  30.411   5.554
 5313POPC   GL167477   0.295  30.673   5.892
 5313POPC   GL267478   0.458  30.325   5.926
 5313POPC   C1A67479   0.479  30.950   6.260
 5313POPC   D2A67480   0.265  30.943   6.638
 5313POPC   C3A67481   0.370  30.754   7.040
 5313POPC   C4A67482   0.276  30.737   7.489
 5313POPC   C1B67483   0.512  30.466   6.302
 5313POPC   C2B67484   0.718  30.643   6.634
 5313POPC   C3B67485   0.853  30.472   6.995
 5313POPC   C4B67486   0.703  30.446   7.408
 5314POPC   NC367487  16.428  35.729   5.689
 5314POPC   PO467488  16.229  35.282   5.314
 5314POPC   GL167489  15.991  35.188   5.715
 5314POPC   GL267490  15.948  35.524   5.831
 5314POPC   C1A67491  15.887  35.058   6.131
 5314POPC   D2A67492  16.102  35.081   6.539
 5314POPC   C3A67493  15.940  35.214   6.937
 5314POPC   C4A67494  16.109  35.041   7.320
 5314POPC   C1B67495  15.882  35.547   6.286
 5314POPC   C2B67496  16.109  35.622   6.650
 5314POPC   C3B67497  16.282  35.606   7.038
 5314POPC   C4B67498  15.980  35.538   7.335
 5315POPC   NC367499  27.377  16.383   5.582
 5315POPC   PO467500  27.674  16.951   5.411
 5315POPC   GL167501  27.574  16.829   5.819
 5315POPC   GL267502  27.253  16.967   5.795
 5315POPC   C1A67503  27.374  16.645   6.197
 5315POPC   D2A67504  27.438  16.396   6.550
 5315POPC   C3A67505  27.481  16.604   6.922
 5315POPC   C4A67506  27.349  16.666   7.323
 5315POPC   C1B67507  27.203  17.138   6.196
 5315POPC   C2B67508  27.228  16.952   6.609
 5315POPC   C3B67509  27.425  17.101   6.987
 5315POPC   C4B67510  27.499  17.133   7.433
 5316POPC   NC367511  22.118  21.741   5.472
 5316POPC   PO467512  22.451  21.196   5.653
 5316POPC   GL167513  22.303  21.521   5.886
 5316POPC   GL267514  21.979  21.420   5.860
 5316POPC   C1A67515  22.311  21.432   6.301
 5316POPC   D2A67516  22.176  21.121   6.582
 5316POPC   C3A67517  22.276  21.348   6.916
 5316POPC   C4A67518  22.497  21.479   7.247
 5316POPC   C1B67519  21.788  21.428   6.240
 5316POPC   C2B67520  21.894  21.546   6.623
 5316POPC   C3B67521  21.715  21.580   6.995
 5316POPC   C4B67522  21.987  21.503   7.306
 5317POPC   NC367523  12.550  44.500   5.420
 5317POPC   PO467524  11.925  44.652   5.179
 5317POPC   GL167525  11.921  44.787   5.679
 5317POPC   GL267526  12.293  44.858   5.768
 5317POPC   C1A67527  11.890  44.741   6.163
 5317POPC   D2A67528  11.782   0.021   6.532
 5317POPC   C3A67529  11.869  44.832   6.940
 5317POPC   C4A67530  12.306  44.822   7.124
 5317POPC   C1B67531  12.409  44.727   6.201
 5317POPC   C2B67532  12.645  44.445   6.488
 5317POPC   C3B67533  12.555  44.363   6.921
 5317POPC   C4B67534  12.423  44.282   7.390
 5318POPC   NC367535  19.400  44.895   5.461
 5318POPC   PO467536  20.088  44.843   5.405
 5318POPC   GL167537  19.793  44.717   5.734
 5318POPC   GL267538  19.736  44.402   5.843
 5318POPC   C1A67539  19.721  44.839   6.174
 5318POPC   D2A67540  19.802  44.765   6.633
 5318POPC   C3A67541  19.810  44.802   7.101
 5318POPC   C4A67542  20.077  44.938   7.447
 5318POPC   C1B67543  19.723  44.331   6.263
 5318POPC   C2B67544  19.621  44.295   6.683
 5318POPC   C3B67545  19.902  44.310   7.043
 5318POPC   C4B67546  19.611  44.276   7.373
 5319POPC   NC367547  28.003  18.253   5.541
 5319POPC   PO467548  27.472  18.418   5.092
 5319POPC   GL167549  27.470  18.476   5.731
 5319POPC   GL267550  27.723  18.364   5.954
 5319POPC   C1A67551  27.297  18.169   6.129
 5319POPC   D2A67552  27.313  17.984   6.584
 5319POPC   C3A67553  27.467  18.142   7.017
 5319POPC   C4A67554  27.259  18.142   7.430
 5319POPC   C1B67555  27.523  18.579   6.314
 5319POPC   C2B67556  27.622  18.567   6.731
 5319POPC   C3B67557  27.917  18.419   7.022
 5319POPC   C4B67558  27.754  18.633   7.335
 5320POPC   NC367559  34.843   2.090   5.048
 5320POPC   PO467560  35.079   1.681   5.469
 5320POPC   GL167561  34.746   1.848   5.758
 5320POPC   GL267562  34.457   2.100   5.706
 5320POPC   C1A67563  34.671   1.710   6.185
 5320POPC   D2A67564  34.728   1.569   6.631
 5320POPC   C3A67565  34.640   1.888   6.987
 5320POPC   C4A67566  34.616   1.844   7.475
 5320POPC   C1B67567  34.450   2.158   6.172
 5320POPC   C2B67568  34.485   2.315   6.625
 5320POPC   C3B67569  34.403   2.373   7.090
 5320POPC   C4B67570  34.433   2.326   7.553
 5321POPC   NC367571   9.066  26.711   5.377
 5321POPC   PO467572   8.857  27.276   5.606
 5321POPC   GL167573   9.000  26.880   5.855
 5321POPC   GL267574   8.790  26.554   5.770
 5321POPC   C1A67575   9.344  26.774   6.195
 5321POPC   D2A67576   9.330  26.578   6.617
 5321POPC   C3A67577   9.140  26.903   6.877
 5321POPC   C4A67578   8.993  27.043   7.271
 5321POPC   C1B67579   8.608  26.674   6.176
 5321POPC   C2B67580   8.629  26.577   6.610
 5321POPC   C3B67581   8.633  26.759   7.010
 5321POPC   C4B67582   8.739  26.593   7.401
 5322POPC   NC367583  15.628  25.549   5.558
 5322POPC   PO467584  16.242  25.189   5.364
 5322POPC   GL167585  16.096  25.294   5.784
 5322POPC   GL267586  15.792  25.123   5.822
 5322POPC   C1A67587  16.152  25.287   6.264
 5322POPC   D2A67588  16.342  25.072   6.640
 5322POPC   C3A67589  16.157  25.213   7.031
 5322POPC   C4A67590  16.313  25.148   7.448
 5322POPC   C1B67591  15.643  25.258   6.236
 5322POPC   C2B67592  15.754  25.255   6.675
 5322POPC   C3B67593  15.631  25.028   6.990
 5322POPC   C4B67594  15.715  25.263   7.320
 5323POPC   NC367595  40.118   5.008   5.595
 5323POPC   PO467596  39.558   5.427   5.544
 5323POPC   GL167597  39.668   5.253   5.934
 5323POPC   GL267598  39.801   4.910   6.004
 5323POPC   C1A67599  39.943   5.318   6.281
 5323POPC   D2A67600  39.835   5.444   6.675
 5323POPC   C3A67601  40.022   5.188   6.977
 5323POPC   C4A67602  40.259   5.107   7.326
 5323POPC   C1B67603  40.200   4.799   6.197
 5323POPC   C2B67604  40.296   4.968   6.573
 5323POPC   C3B67605  40.339   4.758   6.944
 5323POPC   C4B67606  40.621   4.760   7.257
 5324POPC   NC367607  33.160   8.426   5.499
 5324POPC   PO467608  32.834   7.761   5.562
 5324POPC   GL167609  33.007   8.013   5.872
 5324POPC   GL267610  32.821   8.302   5.856
 5324POPC   C1A67611  33.138   8.158   6.270
 5324POPC   D2A67612  32.875   8.153   6.630
 5324POPC   C3A67613  33.081   8.059   7.019
 5324POPC   C4A67614  33.349   8.343   7.260
 5324POPC   C1B67615  32.809   8.578   6.202
 5324POPC   C2B67616  32.979   8.671   6.610
 5324POPC   C3B67617  32.922   8.547   7.044
 5324POPC   C4B67618  32.625   8.594   7.374
 5325POPC   NC367619   4.702  20.416   5.389
 5325POPC   PO467620   4.001  20.208   5.527
 5325POPC   GL167621   4.166  20.471   5.809
 5325POPC   GL267622   4.086  20.823   5.781
 5325POPC   C1A67623   4.064  20.529   6.230
 5325POPC   D2A67624   4.299  20.421   6.570
 5325POPC   C3A67625   4.092  20.515   6.934
 5325POPC   C4A67626   4.238  20.592   7.346
 5325POPC   C1B67627   4.492  20.765   6.083
 5325POPC   C2B67628   4.530  20.927   6.515
 5325POPC   C3B67629   4.533  20.760   6.921
 5325POPC   C4B67630   4.625  20.907   7.314
 5326POPC   NC367631  23.334  40.027   5.438
 5326POPC   PO467632  23.786  39.616   5.547
 5326POPC   GL167633  23.490  39.747   5.879
 5326POPC   GL267634  23.496  40.126   5.925
 5326POPC   C1A67635  23.617  39.749   6.322
 5326POPC   D2A67636  23.848  39.606   6.672
 5326POPC   C3A67637  23.607  39.773   6.993
 5326POPC   C4A67638  23.579  39.635   7.377
 5326POPC   C1B67639  23.746  40.259   6.302
 5326POPC   C2B67640  23.831  40.183   6.752
 5326POPC   C3B67641  23.930  40.133   7.193
 5326POPC   C4B67642  24.001  40.367   7.602
 5327POPC   NC367643   6.367   8.552   5.399
 5327POPC   PO467644   5.785   8.176   5.190
 5327POPC   GL167645   5.914   8.147   5.643
 5327POPC   GL267646   6.103   8.398   5.790
 5327POPC   C1A67647   5.823   8.131   6.098
 5327POPC   D2A67648   5.629   8.141   6.501
 5327POPC   C3A67649   5.868   8.029   6.895
 5327POPC   C4A67650   5.946   7.761   7.253
 5327POPC   C1B67651   6.056   8.556   6.231
 5327POPC   C2B67652   6.083   8.398   6.610
 5327POPC   C3B67653   6.020   8.509   7.018
 5327POPC   C4B67654   5.880   8.260   7.358
 5328POPC   NC367655  10.614  30.841   5.457
 5328POPC   PO467656  10.218  30.191   5.441
 5328POPC   GL167657  10.388  30.518   5.846
 5328POPC   GL267658  10.164  30.828   5.991
 5328POPC   C1A67659  10.364  30.514   6.350
 5328POPC   D2A67660  10.309  30.647   6.806
 5328POPC   C3A67661  10.690  30.633   7.076
 5328POPC   C4A67662  10.887  30.336   7.343
 5328POPC   C1B67663  10.552  30.969   6.206
 5328POPC   C2B67664  10.750  30.905   6.624
 5328POPC   C3B67665  10.642  31.142   7.020
 5328POPC   C4B67666  10.463  31.014   7.408
 5329POPC   NC367667   2.337  38.175   5.580
 5329POPC   PO467668   2.695  38.674   5.239
 5329POPC   GL167669   2.594  38.641   5.723
 5329POPC   GL267670   2.648  38.317   5.948
 5329POPC   C1A67671   2.783  38.733   6.159
 5329POPC   D2A67672   2.588  38.546   6.517
 5329POPC   C3A67673   2.805  38.480   6.875
 5329POPC   C4A67674   2.713  38.529   7.298
 5329POPC   C1B67675   2.448  38.094   6.245
 5329POPC   C2B67676   2.597  38.057   6.650
 5329POPC   C3B67677   2.450  38.147   7.050
 5329POPC   C4B67678   2.376  37.939   7.407
 5330POPC   NC367679  30.048  22.154   5.518
 5330POPC   PO467680  29.590  22.599   5.478
 5330POPC   GL167681  29.727  22.406   5.872
 5330POPC   GL267682  29.622  22.046   5.813
 5330POPC   C1A67683  29.888  22.468   6.318
 5330POPC   D2A67684  30.150  22.301   6.676
 5330POPC   C3A67685  29.944  22.206   7.071
 5330POPC   C4A67686  29.680  22.299   7.437
 5330POPC   C1B67687  29.870  21.957   6.183
 5330POPC   C2B67688  29.848  21.872   6.621
 5330POPC   C3B67689  30.158  21.640   6.825
 5330POPC   C4B67690  30.360  21.845   7.130
 5331POPC   NC367691  41.262  35.351   5.358
 5331POPC   PO467692  41.626  35.812   5.637
 5331POPC   GL167693  41.500  35.424   5.823
 5331POPC   GL267694  41.371  35.063   5.787
 5331POPC   C1A67695  41.761  35.405   6.163
 5331POPC   D2A67696  41.924  35.632   6.477
 5331POPC   C3A67697  41.988  35.522   6.925
 5331POPC   C4A67698  41.875  35.306   7.300
 5331POPC   C1B67699  41.373  35.116   6.248
 5331POPC   C2B67700  41.443  35.394   6.631
 5331POPC   C3B67701  41.386  35.287   7.083
 5331POPC   C4B67702  41.105  35.138   7.390
 5332POPC   NC367703  11.204   9.290   5.296
 5332POPC   PO467704  11.357   8.704   5.474
 5332POPC   GL167705  11.438   8.966   5.842
 5332POPC   GL267706  11.153   9.145   5.850
 5332POPC   C1A67707  11.337   8.944   6.321
 5332POPC   D2A67708  11.603   8.860   6.687
 5332POPC   C3A67709  11.513   8.816   7.144
 5332POPC   C4A67710  11.366   8.714   7.555
 5332POPC   C1B67711  11.412   9.408   6.147
 5332POPC   C2B67712  11.573   9.435   6.572
 5332POPC   C3B67713  11.432   9.277   6.946
 5332POPC   C4B67714  11.229   9.376   7.318
 5333POPC   NC367715  40.426  35.691   5.443
 5333POPC   PO467716  39.964  35.109   5.408
 5333POPC   GL167717  39.825  35.167   5.858
 5333POPC   GL267718  40.122  35.305   6.038
 5333POPC   C1A67719  39.770  35.053   6.311
 5333POPC   D2A67720  40.078  35.296   6.583
 5333POPC   C3A67721  39.983  35.409   7.016
 5333POPC   C4A67722  39.665  35.161   7.209
 5333POPC   C1B67723  40.117  35.715   6.263
 5333POPC   C2B67724  40.305  35.777   6.593
 5333POPC   C3B67725  40.447  35.538   6.855
 5333POPC   C4B67726  40.427  35.674   7.230
 5334POPC   NC367727  17.281  36.658   5.590
 5334POPC   PO467728  17.553  36.068   5.578
 5334POPC   GL167729  17.439  36.258   5.902
 5334POPC   GL267730  17.643  36.529   5.942
 5334POPC   C1A67731  17.573  36.092   6.269
 5334POPC   D2A67732  17.579  36.151   6.699
 5334POPC   C3A67733  17.714  35.919   7.076
 5334POPC   C4A67734  17.535  35.946   7.490
 5334POPC   C1B67735  17.358  36.584   6.305
 5334POPC   C2B67736  17.243  36.537   6.737
 5334POPC   C3B67737  17.447  36.359   7.141
 5334POPC   C4B67738  17.572  36.452   7.595
 5335POPC   NC367739  16.647  33.200   5.054
 5335POPC   PO467740  17.058  32.991   5.601
 5335POPC   GL167741  16.962  33.127   5.982
 5335POPC   GL267742  16.697  32.886   5.987
 5335POPC   C1A67743  16.900  33.241   6.402
 5335POPC   D2A67744  17.123  33.168   6.787
 5335POPC   C3A67745  16.801  33.243   7.093
 5335POPC   C4A67746  16.469  32.989   7.214
 5335POPC   C1B67747  16.514  32.648   6.295
 5335POPC   C2B67748  16.770  32.584   6.599
 5335POPC   C3B67749  16.847  32.757   6.966
 5335POPC   C4B67750  16.733  32.588   7.373
 5336POPC   NC367751  22.598  36.093   5.520
 5336POPC   PO467752  23.127  36.377   5.138
 5336POPC   GL167753  23.330  36.184   5.621
 5336POPC   GL267754  23.060  35.940   5.779
 5336POPC   C1A67755  23.270  36.242   6.126
 5336POPC   D2A67756  23.022  36.395   6.508
 5336POPC   C3A67757  22.993  36.484   6.957
 5336POPC   C4A67758  22.847  36.116   7.162
 5336POPC   C1B67759  22.786  36.068   6.180
 5336POPC   C2B67760  22.551  35.883   6.544
 5336POPC   C3B67761  22.418  35.928   6.985
 5336POPC   C4B67762  22.497  35.922   7.463
 5337POPC   NC367763  26.730  10.856   5.366
 5337POPC   PO467764  27.267  10.405   5.476
 5337POPC   GL167765  27.101  10.334   5.888
 5337POPC   GL267766  26.777  10.217   5.766
 5337POPC   C1A67767  27.092  10.422   6.371
 5337POPC   D2A67768  26.946  10.617   6.730
 5337POPC   C3A67769  26.898  10.415   7.149
 5337POPC   C4A67770  27.051  10.621   7.524
 5337POPC   C1B67771  26.650  10.459   6.129
 5337POPC   C2B67772  26.564  10.292   6.546
 5337POPC   C3B67773  26.529  10.105   6.957
 5337POPC   C4B67774  26.372  10.296   7.332
 5338POPC   NC367775  17.082  41.427   5.438
 5338POPC   PO467776  16.393  41.462   5.366
 5338POPC   GL167777  16.493  41.468   5.824
 5338POPC   GL267778  16.833  41.586   5.838
 5338POPC   C1A67779  16.685  41.301   6.245
 5338POPC   D2A67780  16.916  41.215   6.665
 5338POPC   C3A67781  16.723  41.289   7.091
 5338POPC   C4A67782  16.683  41.281   7.576
 5338POPC   C1B67783  16.861  41.795   6.210
 5338POPC   C2B67784  16.688  41.771   6.621
 5338POPC   C3B67785  16.863  41.786   7.027
 5338POPC   C4B67786  17.213  41.963   7.273
 5339POPC   NC367787  13.721   5.512   5.639
 5339POPC   PO467788  13.273   4.927   5.515
 5339POPC   GL167789  13.513   5.065   5.835
 5339POPC   GL267790  13.363   5.351   6.002
 5339POPC   C1A67791  13.791   5.093   6.183
 5339POPC   D2A67792  13.830   5.006   6.614
 5339POPC   C3A67793  13.954   5.353   6.854
 5339POPC   C4A67794  13.934   5.406   7.284
 5339POPC   C1B67795  13.308   5.007   6.351
 5339POPC   C2B67796  13.354   4.994   6.807
 5339POPC   C3B67797  13.602   5.001   7.201
 5339POPC   C4B67798  13.326   4.885   7.606
 5340POPC   NC367799  36.124  35.731   5.464
 5340POPC   PO467800  36.064  36.402   5.412
 5340POPC   GL167801  36.139  36.187   5.786
 5340POPC   GL267802  36.461  35.995   5.788
 5340POPC   C1A67803  36.024  36.336   6.199
 5340POPC   D2A67804  35.956  36.175   6.623
 5340POPC   C3A67805  35.975  36.384   7.024
 5340POPC   C4A67806  35.885  36.131   7.408
 5340POPC   C1B67807  36.314  35.902   6.207
 5340POPC   C2B67808  36.333  35.824   6.661
 5340POPC   C3B67809  36.262  35.963   7.091
 5340POPC   C4B67810  36.290  35.758   7.528
 5341POPC   NC367811  42.688   6.708   5.216
 5341POPC   PO467812  42.265   6.235   5.366
 5341POPC   GL167813  42.310   6.500   5.737
 5341POPC   GL267814  42.324   6.835   5.645
 5341POPC   C1A67815  42.084   6.597   6.146
 5341POPC   D2A67816  41.898   6.685   6.585
 5341POPC   C3A67817  42.165   6.708   6.935
 5341POPC   C4A67818  42.209   6.481   7.297
 5341POPC   C1B67819  42.417   6.987   6.063
 5341POPC   C2B67820  42.442   6.854   6.501
 5341POPC   C3B67821  42.451   7.129   6.892
 5341POPC   C4B67822  42.475   6.954   7.281
 5342POPC   NC367823  26.554  13.248   5.589
 5342POPC   PO467824  26.990  12.706   5.498
 5342POPC   GL167825  26.826  12.888   5.865
 5342POPC   GL267826  27.058  13.155   5.914
 5342POPC   C1A67827  26.539  12.968   6.223
 5342POPC   D2A67828  26.310  12.824   6.591
 5342POPC   C3A67829  26.480  12.976   6.969
 5342POPC   C4A67830  26.807  12.975   7.245
 5342POPC   C1B67831  26.941  13.280   6.337
 5342POPC   C2B67832  26.993  13.158   6.782
 5342POPC   C3B67833  27.135  13.358   7.205
 5342POPC   C4B67834  26.963  13.261   7.645
 5343POPC   NC367835  42.152  28.110   5.552
 5343POPC   PO467836  42.504  28.639   5.354
 5343POPC   GL167837  42.482  28.669   5.831
 5343POPC   GL267838  42.355  28.339   5.943
 5343POPC   C1A67839  42.450  28.626   6.327
 5343POPC   D2A67840  42.608  28.281   6.622
 5343POPC   C3A67841  42.391  28.328   6.984
 5343POPC   C4A67842  42.095  28.429   7.274
 5343POPC   C1B67843  42.154  28.164   6.337
 5343POPC   C2B67844  42.182  27.929   6.743
 5343POPC   C3B67845  42.129  27.918   7.218
 5343POPC   C4B67846  42.060  27.820   7.682
 5344POPC   NC367847   1.002   6.131   5.372
 5344POPC   PO467848   1.304   5.501   5.334
 5344POPC   GL167849   1.198   5.765   5.722
 5344POPC   GL267850   0.921   6.010   5.847
 5344POPC   C1A67851   1.285   5.829   6.170
 5344POPC   D2A67852   1.357   5.659   6.595
 5344POPC   C3A67853   1.258   5.950   6.932
 5344POPC   C4A67854   1.585   6.094   7.232
 5344POPC   C1B67855   0.787   5.984   6.263
 5344POPC   C2B67856   0.649   6.165   6.636
 5344POPC   C3B67857   0.771   6.222   7.058
 5344POPC   C4B67858   1.061   6.091   7.383
 5345POPC   NC367859  12.181  36.346   5.445
 5345POPC   PO467860  12.225  35.697   5.125
 5345POPC   GL167861  12.048  35.849   5.597
 5345POPC   GL267862  11.718  35.873   5.687
 5345POPC   C1A67863  12.087  35.880   6.103
 5345POPC   D2A67864  12.214  35.890   6.598
 5345POPC   C3A67865  12.349  36.192   6.928
 5345POPC   C4A67866  12.251  36.166   7.361
 5345POPC   C1B67867  11.608  36.063   6.103
 5345POPC   C2B67868  11.608  36.276   6.480
 5345POPC   C3B67869  11.842  36.275   6.857
 5345POPC   C4B67870  11.740  36.271   7.298
 5346POPC   NC367871  36.499  42.383   5.273
 5346POPC   PO467872  37.115  42.781   5.343
 5346POPC   GL167873  36.964  42.553   5.710
 5346POPC   GL267874  37.069  42.180   5.759
 5346POPC   C1A67875  36.698  42.628   6.067
 5346POPC   D2A67876  36.622  42.659   6.524
 5346POPC   C3A67877  36.699  42.349   6.844
 5346POPC   C4A67878  36.672  42.474   7.258
 5346POPC   C1B67879  37.121  42.347   6.186
 5346POPC   C2B67880  37.145  42.514   6.618
 5346POPC   C3B67881  37.154  42.453   7.080
 5346POPC   C4B67882  37.267  42.213   7.437
 5347POPC   NC367883  12.185   1.718   5.425
 5347POPC   PO467884  12.393   2.419   5.398
 5347POPC   GL167885  12.177   2.232   5.801
 5347POPC   GL267886  12.134   1.845   5.908
 5347POPC   C1A67887  11.987   2.177   6.250
 5347POPC   D2A67888  11.919   1.840   6.534
 5347POPC   C3A67889  12.112   1.844   6.926
 5347POPC   C4A67890  12.053   2.036   7.281
 5347POPC   C1B67891  12.256   1.547   6.237
 5347POPC   C2B67892  12.454   1.626   6.616
 5347POPC   C3B67893  12.481   1.524   7.039
 5347POPC   C4B67894  12.363   1.673   7.446
 5348POPC   NC367895  28.120  41.067   5.186
 5348POPC   PO467896  28.637  40.587   5.369
 5348POPC   GL167897  28.437  40.874   5.634
 5348POPC   GL267898  28.482  40.613   5.877
 5348POPC   C1A67899  28.340  41.055   6.072
 5348POPC   D2A67900  28.350  40.921   6.518
 5348POPC   C3A67901  28.004  41.101   6.754
 5348POPC   C4A67902  27.733  41.156   7.111
 5348POPC   C1B67903  28.613  40.459   6.277
 5348POPC   C2B67904  28.755  40.546   6.692
 5348POPC   C3B67905  28.516  40.788   6.989
 5348POPC   C4B67906  28.193  40.947   7.221
 5349POPC   NC367907  31.723  13.921   5.665
 5349POPC   PO467908  31.318  13.567   5.218
 5349POPC   GL167909  31.317  13.613   5.653
 5349POPC   GL267910  31.244  13.992   5.750
 5349POPC   C1A67911  31.233  13.574   6.089
 5349POPC   D2A67912  31.494  13.635   6.450
 5349POPC   C3A67913  31.419  13.638   6.883
 5349POPC   C4A67914  31.266  13.506   7.287
 5349POPC   C1B67915  31.390  14.065   6.199
 5349POPC   C2B67916  31.558  14.122   6.629
 5349POPC   C3B67917  31.398  14.138   7.052
 5349POPC   C4B67918  31.604  13.870   7.339
 5350POPC   NC367919  21.751  18.777   5.172
 5350POPC   PO467920  21.506  19.382   5.357
 5350POPC   GL167921  21.553  19.120   5.786
 5350POPC   GL267922  21.268  18.925   5.889
 5350POPC   C1A67923  21.655  18.949   6.268
 5350POPC   D2A67924  21.535  19.125   6.695
 5350POPC   C3A67925  21.285  18.881   7.008
 5350POPC   C4A67926  21.453  18.721   7.386
 5350POPC   C1B67927  21.269  19.256   6.232
 5350POPC   C2B67928  20.997  19.219   6.592
 5350POPC   C3B67929  21.147  19.377   6.963
 5350POPC   C4B67930  21.400  19.327   7.273
 5351POPC   NC367931  40.208  40.354   5.363
 5351POPC   PO467932  39.992  39.791   5.438
 5351POPC   GL167933  40.183  40.037   5.766
 5351POPC   GL267934  39.906  40.240   5.829
 5351POPC   C1A67935  40.386  40.041   6.179
 5351POPC   D2A67936  40.238  39.865   6.551
 5351POPC   C3A67937  40.335  40.063   6.909
 5351POPC   C4A67938  40.168  39.874   7.246
 5351POPC   C1B67939  39.672  40.351   6.204
 5351POPC   C2B67940  39.469  40.148   6.580
 5351POPC   C3B67941  39.763  39.961   6.907
 5351POPC   C4B67942  39.899  40.301   7.183
 5352POPC   NC367943  17.776  28.111   5.150
 5352POPC   PO467944  18.365  28.200   5.383
 5352POPC   GL167945  18.308  28.133   5.853
 5352POPC   GL267946  17.973  28.220   6.006
 5352POPC   C1A67947  18.378  28.271   6.311
 5352POPC   D2A67948  18.252  28.379   6.732
 5352POPC   C3A67949  18.035  28.116   7.029
 5352POPC   C4A67950  18.310  27.983   7.354
 5352POPC   C1B67951  18.022  28.634   6.298
 5352POPC   C2B67952  18.095  28.861   6.723
 5352POPC   C3B67953  18.095  28.659   7.153
 5352POPC   C4B67954  17.890  28.788   7.511
 5353POPC   NC367955  39.442  13.591   5.519
 5353POPC   PO467956  38.822  13.646   5.203
 5353POPC   GL167957  38.953  13.604   5.698
 5353POPC   GL267958  38.948  13.902   5.857
 5353POPC   C1A67959  39.300  13.672   6.125
 5353POPC   D2A67960  39.482  13.911   6.471
 5353POPC   C3A67961  39.484  13.685   6.874
 5353POPC   C4A67962  39.481  13.330   7.178
 5353POPC   C1B67963  38.837  13.518   6.189
 5353POPC   C2B67964  38.796  13.516   6.633
 5353POPC   C3B67965  38.992  13.520   7.024
 5353POPC   C4B67966  39.212  13.772   7.302
 5354POPC   NC367967  25.125   2.550   5.206
 5354POPC   PO467968  25.487   3.032   5.382
 5354POPC   GL167969  25.196   2.801   5.668
 5354POPC   GL267970  25.411   2.547   5.771
 5354POPC   C1A67971  25.097   2.720   6.146
 5354POPC   D2A67972  25.087   2.610   6.585
 5354POPC   C3A67973  25.205   2.892   6.939
 5354POPC   C4A67974  24.958   2.950   7.348
 5354POPC   C1B67975  25.564   2.862   6.032
 5354POPC   C2B67976  25.549   2.861   6.472
 5354POPC   C3B67977  25.766   2.912   6.842
 5354POPC   C4B67978  25.597   2.810   7.258
 5355POPC   NC367979   1.957  11.000   5.445
 5355POPC   PO467980   2.254  11.607   5.526
 5355POPC   GL167981   1.953  11.400   5.818
 5355POPC   GL267982   1.729  11.098   5.888
 5355POPC   C1A67983   2.021  11.324   6.241
 5355POPC   D2A67984   2.326  11.200   6.535
 5355POPC   C3A67985   2.217  11.317   6.935
 5355POPC   C4A67986   1.858  11.543   7.115
 5355POPC   C1B67987   1.595  10.995   6.287
 5355POPC   C2B67988   1.739  11.205   6.665
 5355POPC   C3B67989   1.704  11.060   7.070
 5355POPC   C4B67990   1.998  11.061   7.318
 5356POPC   NC367991   1.623   5.224   5.129
 5356POPC   PO467992   1.117   4.890   5.417
 5356POPC   GL167993   1.083   4.899   5.817
 5356POPC   GL267994   1.176   5.237   5.793
 5356POPC   C1A67995   1.209   4.733   6.199
 5356POPC   D2A67996   1.403   4.622   6.575
 5356POPC   C3A67997   1.199   4.763   6.928
 5356POPC   C4A67998   1.207   4.950   7.328
 5356POPC   C1B67999   1.249   5.309   6.211
 5356POPC   C2B68000   1.246   5.151   6.615
 5356POPC   C3B68001   1.041   5.302   6.993
 5356POPC   C4B68002   1.178   5.600   7.316
 5357POPC   NC368003  27.734  30.124   5.411
 5357POPC   PO468004  27.839  29.413   5.496
 5357POPC   GL168005  27.609  29.678   5.783
 5357POPC   GL268006  27.764  29.975   5.913
 5357POPC   C1A68007  27.465  29.722   6.249
 5357POPC   D2A68008  27.577  29.949   6.661
 5357POPC   C3A68009  27.498  29.759   7.089
 5357POPC   C4A68010  27.375  29.830   7.539
 5357POPC   C1B68011  27.824  30.227   6.311
 5357POPC   C2B68012  27.950  30.321   6.752
 5357POPC   C3B68013  27.722  30.236   7.120
 5357POPC   C4B68014  27.794  30.085   7.544
 5358POPC   NC368015  26.306  34.644   5.611
 5358POPC   PO468016  26.887  34.324   5.446
 5358POPC   GL168017  26.840  34.600   5.780
 5358POPC   GL268018  26.892  34.327   5.987
 5358POPC   C1A68019  26.649  34.704   6.189
 5358POPC   D2A68020  26.832  34.736   6.600
 5358POPC   C3A68021  26.685  34.430   6.882
 5358POPC   C4A68022  26.514  34.476   7.272
 5358POPC   C1B68023  27.165  34.651   6.213
 5358POPC   C2B68024  27.353  34.655   6.623
 5358POPC   C3B68025  27.164  34.582   7.004
 5358POPC   C4B68026  26.998  34.373   7.337
 5359POPC   NC368027  21.581  40.252   5.392
 5359POPC   PO468028  21.484  39.547   5.417
 5359POPC   GL168029  21.430  39.727   5.809
 5359POPC   GL268030  21.322  40.059   5.791
 5359POPC   C1A68031  21.393  39.813   6.246
 5359POPC   D2A68032  21.540  40.174   6.500
 5359POPC   C3A68033  21.545  40.135   6.958
 5359POPC   C4A68034  21.734  39.930   7.319
 5359POPC   C1B68035  21.121  40.246   6.187
 5359POPC   C2B68036  21.085  40.386   6.645
 5359POPC   C3B68037  21.054  40.256   7.094
 5359POPC   C4B68038  21.290  40.209   7.524
 5360POPC   NC368039  42.793  22.002   5.402
 5360POPC   PO468040  43.351  22.365   5.325
 5360POPC   GL168041  43.077  22.386   5.707
 5360POPC   GL268042  43.096  22.052   5.830
 5360POPC   C1A68043  42.843  22.363   6.120
 5360POPC   D2A68044  43.002  22.229   6.516
 5360POPC   C3A68045  43.073  22.474   6.891
 5360POPC   C4A68046  42.901  22.333   7.287
 5360POPC   C1B68047  42.942  21.821   6.204
 5360POPC   C2B68048  43.073  21.702   6.621
 5360POPC   C3B68049  43.324  22.013   6.849
 5360POPC   C4B68050  43.378  22.158   7.259
 5361POPC   NC368051  30.934   3.016   4.948
 5361POPC   PO468052  30.670   2.607   5.469
 5361POPC   GL168053  30.632   2.958   5.766
 5361POPC   GL268054  30.843   2.723   5.933
 5361POPC   C1A68055  30.603   3.042   6.235
 5361POPC   D2A68056  30.704   2.753   6.603
 5361POPC   C3A68057  30.645   2.972   6.996
 5361POPC   C4A68058  30.482   2.874   7.375
 5361POPC   C1B68059  31.100   2.738   6.243
 5361POPC   C2B68060  31.277   2.758   6.604
 5361POPC   C3B68061  31.126   2.772   7.003
 5361POPC   C4B68062  30.972   2.807   7.426
 5362POPC   NC368063  35.110  21.870   5.460
 5362POPC   PO468064  34.539  22.269   5.410
 5362POPC   GL168065  34.334  22.237   5.851
 5362POPC   GL268066  34.381  22.589   5.897
 5362POPC   C1A68067  34.274  22.091   6.311
 5362POPC   D2A68068  34.477  21.851   6.667
 5362POPC   C3A68069  34.663  21.944   7.063
 5362POPC   C4A68070  34.852  22.167   7.405
 5362POPC   C1B68071  34.632  22.449   6.268
 5362POPC   C2B68072  34.503  22.377   6.712
 5362POPC   C3B68073  34.482  22.422   7.162
 5362POPC   C4B68074  34.491  22.449   7.598
 5363POPC   NC368075   8.320   3.040   5.196
 5363POPC   PO468076   8.293   2.381   5.357
 5363POPC   GL168077   8.445   2.557   5.742
 5363POPC   GL268078   8.416   2.928   5.708
 5363POPC   C1A68079   8.252   2.543   6.163
 5363POPC   D2A68080   8.208   2.400   6.570
 5363POPC   C3A68081   8.288   2.640   6.927
 5363POPC   C4A68082   8.035   2.772   7.256
 5363POPC   C1B68083   8.358   3.038   6.152
 5363POPC   C2B68084   8.167   2.977   6.550
 5363POPC   C3B68085   8.173   3.163   6.941
 5363POPC   C4B68086   8.382   3.150   7.339
 5364POPC   NC368087  13.855  26.288   5.222
 5364POPC   PO468088  13.267  25.960   5.294
 5364POPC   GL168089  13.503  26.069   5.673
 5364POPC   GL268090  13.860  26.181   5.728
 5364POPC   C1A68091  13.602  25.890   6.091
 5364POPC   D2A68092  13.575  25.991   6.536
 5364POPC   C3A68093  13.751  25.765   6.909
 5364POPC   C4A68094  13.741  25.717   7.358
 5364POPC   C1B68095  13.941  26.272   6.182
 5364POPC   C2B68096  13.774  26.473   6.555
 5364POPC   C3B68097  13.674  26.272   6.937
 5364POPC   C4B68098  13.715  26.351   7.331
 5365POPC   NC368099  10.200  32.758   5.420
 5365POPC   PO468100  10.709  33.296   5.471
 5365POPC   GL168101  10.639  32.929   5.682
 5365POPC   GL268102  10.350  33.027   5.852
 5365POPC   C1A68103  10.788  32.814   6.094
 5365POPC   D2A68104  10.558  33.005   6.426
 5365POPC   C3A68105  10.767  32.958   6.807
 5365POPC   C4A68106  10.683  32.962   7.227
 5365POPC   C1B68107  10.311  32.636   6.126
 5365POPC   C2B68108  10.148  32.680   6.562
 5365POPC   C3B68109  10.229  33.003   6.852
 5365POPC   C4B68110  10.067  33.104   7.240
 5366POPC   NC368111  11.816  14.449   5.428
 5366POPC   PO468112  12.446  14.173   5.361
 5366POPC   GL168113  12.255  14.367   5.783
 5366POPC   GL268114  11.977  14.645   5.880
 5366POPC   C1A68115  12.051  14.306   6.226
 5366POPC   D2A68116  11.857  14.179   6.619
 5366POPC   C3A68117  12.183  14.174   6.938
 5366POPC   C4A68118  12.234  14.432   7.301
 5366POPC   C1B68119  12.319  14.736   6.211
 5366POPC   C2B68120  12.253  14.601   6.654
 5366POPC   C3B68121  11.879  14.593   6.945
 5366POPC   C4B68122  11.850  14.764   7.338
 5367POPC   NC368123  17.665  12.008   4.984
 5367POPC   PO468124  17.605  11.827   5.583
 5367POPC   GL168125  17.602  12.068   5.956
 5367POPC   GL268126  17.888  12.274   5.949
 5367POPC   C1A68127  17.341  12.157   6.323
 5367POPC   D2A68128  17.514  12.111   6.704
 5367POPC   C3A68129  17.242  12.055   6.996
 5367POPC   C4A68130  17.217  12.252   7.302
 5367POPC   C1B68131  17.901  12.110   6.362
 5367POPC   C2B68132  17.991  11.786   6.626
 5367POPC   C3B68133  17.846  11.878   7.019
 5367POPC   C4B68134  17.696  12.190   7.229
 5368POPC   NC368135  18.140  25.779   5.331
 5368POPC   PO468136  18.548  26.253   5.290
 5368POPC   GL168137  18.255  26.064   5.745
 5368POPC   GL268138  18.053  25.785   5.857
 5368POPC   C1A68139  18.297  26.045   6.250
 5368POPC   D2A68140  18.391  25.835   6.684
 5368POPC   C3A68141  18.455  26.108   7.024
 5368POPC   C4A68142  18.103  26.273   7.241
 5368POPC   C1B68143  17.980  25.652   6.270
 5368POPC   C2B68144  17.885  25.806   6.695
 5368POPC   C3B68145  18.066  25.774   7.110
 5368POPC   C4B68146  18.300  25.811   7.518
 5369POPC   NC368147  29.857  11.189   5.376
 5369POPC   PO468148  30.406  11.352   5.779
 5369POPC   GL168149  30.063  11.042   5.884
 5369POPC   GL268150  29.684  11.084   5.833
 5369POPC   C1A68151  30.169  10.981   6.317
 5369POPC   D2A68152  30.384  11.196   6.692
 5369POPC   C3A68153  30.089  11.177   7.063
 5369POPC   C4A68154  29.771  11.487   7.144
 5369POPC   C1B68155  29.650  10.845   6.195
 5369POPC   C2B68156  29.573  10.963   6.616
 5369POPC   C3B68157  29.383  10.817   6.977
 5369POPC   C4B68158  29.593  11.019   7.250
 5370POPC   NC368159  24.787  40.919   5.324
 5370POPC   PO468160  24.153  40.735   5.555
 5370POPC   GL168161  24.517  40.798   5.791
 5370POPC   GL268162  24.643  41.122   5.773
 5370POPC   C1A68163  24.529  40.710   6.213
 5370POPC   D2A68164  24.355  40.925   6.573
 5370POPC   C3A68165  24.450  40.810   6.981
 5370POPC   C4A68166  24.247  40.905   7.386
 5370POPC   C1B68167  24.549  41.214   6.193
 5370POPC   C2B68168  24.823  41.144   6.525
 5370POPC   C3B68169  24.912  41.047   6.929
 5370POPC   C4B68170  24.708  41.130   7.291
 5371POPC   NC368171  38.517  10.467   5.454
 5371POPC   PO468172  38.093  10.084   5.750
 5371POPC   GL168173  38.454  10.279   5.921
 5371POPC   GL268174  38.318  10.604   5.932
 5371POPC   C1A68175  38.622  10.394   6.309
 5371POPC   D2A68176  38.625  10.191   6.672
 5371POPC   C3A68177  38.379  10.297   7.004
 5371POPC   C4A68178  38.548  10.268   7.403
 5371POPC   C1B68179  38.381  10.841   6.306
 5371POPC   C2B68180  38.488  10.751   6.764
 5371POPC   C3B68181  38.428  10.775   7.255
 5371POPC   C4B68182  38.629  10.960   7.653
 5372POPC   NC368183  25.510   1.628   5.263
 5372POPC   PO468184  25.020   1.192   5.355
 5372POPC   GL168185  25.209   1.283   5.756
 5372POPC   GL268186  25.562   1.445   5.751
 5372POPC   C1A68187  25.327   1.117   6.175
 5372POPC   D2A68188  25.149   0.964   6.568
 5372POPC   C3A68189  25.312   1.032   6.982
 5372POPC   C4A68190  25.631   0.982   7.284
 5372POPC   C1B68191  25.725   1.427   6.180
 5372POPC   C2B68192  25.583   1.324   6.601
 5372POPC   C3B68193  25.599   1.470   7.020
 5372POPC   C4B68194  25.474   1.565   7.437
 5373POPC   NC368195  41.984  42.611   5.478
 5373POPC   PO468196  41.427  42.351   5.453
 5373POPC   GL168197  41.492  42.283   5.915
 5373POPC   GL268198  41.312  42.570   6.030
 5373POPC   C1A68199  41.772  42.171   6.325
 5373POPC   D2A68200  41.948  42.377   6.737
 5373POPC   C3A68201  41.797  42.433   7.193
 5373POPC   C4A68202  41.508  42.259   7.520
 5373POPC   C1B68203  41.649  42.666   6.359
 5373POPC   C2B68204  41.594  42.733   6.817
 5373POPC   C3B68205  41.314  42.572   7.166
 5373POPC   C4B68206  41.195  42.694   7.587
 5374POPC   NC368207   7.148  24.952   5.139
 5374POPC   PO468208   6.510  25.161   5.443
 5374POPC   GL168209   6.706  25.309   5.837
 5374POPC   GL268210   6.744  24.986   6.058
 5374POPC   C1A68211   6.715  25.443   6.260
 5374POPC   D2A68212   6.520  25.182   6.565
 5374POPC   C3A68213   6.650  25.213   6.932
 5374POPC   C4A68214   6.613  25.349   7.353
 5374POPC   C1B68215   6.477  24.707   6.295
 5374POPC   C2B68216   6.329  24.724   6.717
 5374POPC   C3B68217   6.386  24.867   7.175
 5374POPC   C4B68218   6.422  24.918   7.613
 5375POPC   NC368219  19.806  18.422   5.397
 5375POPC   PO468220  19.679  17.714   5.437
 5375POPC   GL168221  19.642  18.031   5.809
 5375POPC   GL268222  19.717  18.412   5.903
 5375POPC   C1A68223  19.788  18.046   6.254
 5375POPC   D2A68224  20.160  18.043   6.525
 5375POPC   C3A68225  20.012  18.042   6.939
 5375POPC   C4A68226  19.837  17.879   7.301
 5375POPC   C1B68227  20.044  18.573   6.196
 5375POPC   C2B68228  20.280  18.548   6.599
 5375POPC   C3B68229  20.153  18.560   7.018
 5375POPC   C4B68230  19.797  18.440   7.235
 5376POPC   NC368231  36.238  33.577   5.338
 5376POPC   PO468232  35.915  34.187   5.491
 5376POPC   GL168233  36.013  33.825   5.765
 5376POPC   GL268234  35.844  33.529   5.704
 5376POPC   C1A68235  36.283  33.797   6.144
 5376POPC   D2A68236  36.371  33.976   6.590
 5376POPC   C3A68237  36.307  33.806   7.035
 5376POPC   C4A68238  36.334  33.780   7.510
 5376POPC   C1B68239  35.892  33.417   6.119
 5376POPC   C2B68240  35.934  33.646   6.504
 5376POPC   C3B68241  35.932  33.461   6.892
 5376POPC   C4B68242  36.031  33.421   7.289
 5377POPC   NC368243  25.608   6.778   5.605
 5377POPC   PO468244  26.068   6.328   5.393
 5377POPC   GL168245  26.099   6.658   5.698
 5377POPC   GL268246  26.025   6.416   5.940
 5377POPC   C1A68247  26.103   6.877   6.117
 5377POPC   D2A68248  25.830   6.770   6.471
 5377POPC   C3A68249  25.911   6.734   6.915
 5377POPC   C4A68250  26.030   6.803   7.337
 5377POPC   C1B68251  25.944   6.270   6.348
 5377POPC   C2B68252  26.181   6.288   6.720
 5377POPC   C3B68253  26.144   6.325   7.139
 5377POPC   C4B68254  25.731   6.352   7.277
 5378POPC   NC368255  30.760   7.837   5.273
 5378POPC   PO468256  30.327   8.350   5.412
 5378POPC   GL168257  30.436   8.082   5.735
 5378POPC   GL268258  30.760   8.090   5.722
 5378POPC   C1A68259  30.557   8.109   6.187
 5378POPC   D2A68260  30.370   8.276   6.542
 5378POPC   C3A68261  30.597   8.139   6.922
 5378POPC   C4A68262  30.604   8.333   7.327
 5378POPC   C1B68263  31.024   7.930   6.037
 5378POPC   C2B68264  31.163   8.030   6.453
 5378POPC   C3B68265  31.069   7.916   6.872
 5378POPC   C4B68266  30.909   7.905   7.288
 5379POPC   NC368267  19.411  25.368   5.492
 5379POPC   PO468268  20.009  25.095   5.599
 5379POPC   GL168269  20.110  25.440   5.857
 5379POPC   GL268270  19.764  25.517   5.849
 5379POPC   C1A68271  20.016  25.500   6.313
 5379POPC   D2A68272  19.725  25.405   6.655
 5379POPC   C3A68273  19.914  25.323   7.045
 5379POPC   C4A68274  20.005  24.960   7.245
 5379POPC   C1B68275  19.500  25.422   6.185
 5379POPC   C2B68276  19.324  25.117   6.490
 5379POPC   C3B68277  19.325  25.182   6.936
 5379POPC   C4B68278  19.491  24.978   7.302
 5380POPC   NC368279  32.663  20.831   5.529
 5380POPC   PO468280  33.311  20.737   5.165
 5380POPC   GL168281  33.103  20.681   5.695
 5380POPC   GL268282  32.870  20.423   5.762
 5380POPC   C1A68283  33.015  20.753   6.151
 5380POPC   D2A68284  32.847  20.655   6.573
 5380POPC   C3A68285  33.114  20.592   6.934
 5380POPC   C4A68286  33.259  20.455   7.328
 5380POPC   C1B68287  32.763  20.314   6.182
 5380POPC   C2B68288  32.425  20.370   6.493
 5380POPC   C3B68289  32.480  20.305   6.894
 5380POPC   C4B68290  32.859  20.179   7.111
 5381POPC   NC368291  12.856   2.241   5.438
 5381POPC   PO468292  12.626   1.767   5.193
 5381POPC   GL168293  12.606   1.945   5.727
 5381POPC   GL268294  12.871   2.199   5.925
 5381POPC   C1A68295  12.625   1.873   6.197
 5381POPC   D2A68296  12.870   1.966   6.565
 5381POPC   C3A68297  12.686   1.983   6.968
 5381POPC   C4A68298  12.797   1.889   7.379
 5381POPC   C1B68299  13.214   2.201   6.229
 5381POPC   C2B68300  13.264   2.281   6.676
 5381POPC   C3B68301  13.161   2.177   7.100
 5381POPC   C4B68302  13.104   2.200   7.593
 5382POPC   NC368303  43.554   4.395   5.397
 5382POPC   PO468304  44.039   4.038   5.785
 5382POPC   GL168305  43.831   4.359   6.041
 5382POPC   GL268306  43.519   4.517   5.886
 5382POPC   C1A68307  43.900   4.293   6.491
 5382POPC   D2A68308  43.954   3.940   6.797
 5382POPC   C3A68309  43.869   4.090   7.194
 5382POPC   C4A68310  44.092   4.156   7.558
 5382POPC   C1B68311  43.559   4.801   6.226
 5382POPC   C2B68312  43.793   4.818   6.598
 5382POPC   C3B68313  43.854   4.556   6.940
 5382POPC   C4B68314  43.836   4.560   7.391
 5383POPC   NC368315  36.520  39.143   5.445
 5383POPC   PO468316  37.146  39.063   5.446
 5383POPC   GL168317  36.987  39.104   5.865
 5383POPC   GL268318  36.645  38.951   5.912
 5383POPC   C1A68319  37.221  39.213   6.271
 5383POPC   D2A68320  37.333  39.134   6.719
 5383POPC   C3A68321  37.141  39.411   6.991
 5383POPC   C4A68322  37.117  39.154   7.326
 5383POPC   C1B68323  36.698  39.264   6.249
 5383POPC   C2B68324  36.837  39.178   6.656
 5383POPC   C3B68325  36.669  39.213   7.072
 5383POPC   C4B68326  36.693  39.383   7.488
 5384POPC   NC368327  28.737   4.872   5.609
 5384POPC   PO468328  28.362   4.209   5.698
 5384POPC   GL168329  28.222   4.509   5.983
 5384POPC   GL268330  28.513   4.661   6.006
 5384POPC   C1A68331  28.069   4.426   6.369
 5384POPC   D2A68332  28.273   4.209   6.708
 5384POPC   C3A68333  28.032   4.308   7.011
 5384POPC   C4A68334  28.089   4.403   7.395
 5384POPC   C1B68335  28.590   4.350   6.325
 5384POPC   C2B68336  28.670   4.573   6.690
 5384POPC   C3B68337  28.486   4.547   7.107
 5384POPC   C4B68338  28.645   4.596   7.486
 5385POPC   NC368339   4.503  42.797   5.126
 5385POPC   PO468340   4.488  42.149   5.352
 5385POPC   GL168341   4.270  42.192   5.742
 5385POPC   GL268342   4.160  42.515   5.719
 5385POPC   C1A68343   4.355  42.352   6.186
 5385POPC   D2A68344   4.240  42.080   6.540
 5385POPC   C3A68345   4.143  42.128   6.953
 5385POPC   C4A68346   4.172  41.835   7.313
 5385POPC   C1B68347   4.050  42.772   6.075
 5385POPC   C2B68348   4.074  42.708   6.520
 5385POPC   C3B68349   3.903  42.630   6.931
 5385POPC   C4B68350   4.187  42.564   7.244
 5386POPC   NC368351  13.781  10.641   5.337
 5386POPC   PO468352  13.275  10.198   5.226
 5386POPC   GL168353  13.318  10.346   5.689
 5386POPC   GL268354  13.517  10.631   5.821
 5386POPC   C1A68355  13.321  10.216   6.159
 5386POPC   D2A68356  13.335  10.488   6.529
 5386POPC   C3A68357  13.445  10.382   6.959
 5386POPC   C4A68358  13.427  10.647   7.301
 5386POPC   C1B68359  13.856  10.589   6.165
 5386POPC   C2B68360  13.892  10.521   6.622
 5386POPC   C3B68361  13.737  10.807   6.929
 5386POPC   C4B68362  13.904  10.924   7.332
 5387POPC   NC368363  10.315   2.145   5.396
 5387POPC   PO468364  10.839   1.790   5.423
 5387POPC   GL168365  10.645   2.054   5.775
 5387POPC   GL268366  10.354   1.853   5.814
 5387POPC   C1A68367  10.572   2.258   6.209
 5387POPC   D2A68368  10.589   2.046   6.663
 5387POPC   C3A68369  10.581   2.297   7.046
 5387POPC   C4A68370  10.869   2.304   7.383
 5387POPC   C1B68371  10.509   1.773   6.229
 5387POPC   C2B68372  10.678   1.536   6.529
 5387POPC   C3B68373  10.789   1.580   6.931
 5387POPC   C4B68374  10.591   1.826   7.215
 5388POPC   NC368375   5.825   2.377   5.565
 5388POPC   PO468376   6.134   1.762   5.328
 5388POPC   GL168377   5.735   1.863   5.586
 5388POPC   GL268378   5.966   1.949   5.823
 5388POPC   C1A68379   5.524   2.007   6.033
 5388POPC   D2A68380   5.790   2.105   6.402
 5388POPC   C3A68381   5.689   2.133   6.844
 5388POPC   C4A68382   5.772   2.005   7.252
 5388POPC   C1B68383   6.106   1.755   6.184
 5388POPC   C2B68384   6.236   1.645   6.585
 5388POPC   C3B68385   6.096   1.724   6.981
 5388POPC   C4B68386   6.099   1.471   7.351
 5389POPC   NC368387  17.103  23.295   5.347
 5389POPC   PO468388  16.459  23.350   5.506
 5389POPC   GL168389  16.495  23.093   5.924
 5389POPC   GL268390  16.374  22.716   5.964
 5389POPC   C1A68391  16.780  23.069   6.302
 5389POPC   D2A68392  16.738  22.748   6.643
 5389POPC   C3A68393  16.966  22.692   7.024
 5389POPC   C4A68394  16.924  22.974   7.349
 5389POPC   C1B68395  16.284  22.881   6.366
 5389POPC   C2B68396  16.432  23.178   6.673
 5389POPC   C3B68397  16.504  23.061   7.083
 5389POPC   C4B68398  16.517  22.674   7.329
 5390POPC   NC368399  37.957   1.408   5.234
 5390POPC   PO468400  37.366   1.033   5.397
 5390POPC   GL168401  37.659   1.290   5.655
 5390POPC   GL268402  37.648   1.024   5.892
 5390POPC   C1A68403  37.784   1.444   6.089
 5390POPC   D2A68404  37.678   1.176   6.443
 5390POPC   C3A68405  37.795   1.311   6.878
 5390POPC   C4A68406  37.958   1.351   7.309
 5390POPC   C1B68407  37.377   0.804   6.118
 5390POPC   C2B68408  37.300   0.750   6.529
 5390POPC   C3B68409  37.365   0.871   6.925
 5390POPC   C4B68410  37.673   0.932   7.233
 5391POPC   NC368411  14.867  26.172   5.377
 5391POPC   PO468412  14.223  25.990   5.259
 5391POPC   GL168413  14.404  26.148   5.645
 5391POPC   GL268414  14.309  25.868   5.823
 5391POPC   C1A68415  14.491  26.269   6.095
 5391POPC   D2A68416  14.353  26.400   6.509
 5391POPC   C3A68417  14.120  26.107   6.741
 5391POPC   C4A68418  14.103  26.082   7.190
 5391POPC   C1B68419  14.263  25.824   6.274
 5391POPC   C2B68420  14.423  25.667   6.664
 5391POPC   C3B68421  14.555  25.947   6.986
 5391POPC   C4B68422  14.527  26.389   7.036
 5392POPC   NC368423  38.070  38.230   5.359
 5392POPC   PO468424  38.560  38.690   5.245
 5392POPC   GL168425  38.468  38.491   5.650
 5392POPC   GL268426  38.784  38.427   5.735
 5392POPC   C1A68427  38.386  38.392   6.107
 5392POPC   D2A68428  38.392  38.537   6.534
 5392POPC   C3A68429  38.104  38.564   6.878
 5392POPC   C4A68430  38.256  38.410   7.267
 5392POPC   C1B68431  38.888  38.555   6.154
 5392POPC   C2B68432  38.910  38.381   6.554
 5392POPC   C3B68433  38.664  38.303   6.914
 5392POPC   C4B68434  38.760  38.480   7.273
 5393POPC   NC368435  39.481  29.500   5.471
 5393POPC   PO468436  39.094  28.932   5.348
 5393POPC   GL168437  39.180  29.140   5.748
 5393POPC   GL268438  39.529  29.081   5.773
 5393POPC   C1A68439  39.113  29.253   6.201
 5393POPC   D2A68440  38.764  29.365   6.422
 5393POPC   C3A68441  38.863  29.254   6.803
 5393POPC   C4A68442  38.798  29.162   7.184
 5393POPC   C1B68443  39.619  29.192   6.219
 5393POPC   C2B68444  39.436  29.124   6.631
 5393POPC   C3B68445  39.321  29.201   7.050
 5393POPC   C4B68446  39.467  29.188   7.454
 5394POPC   NC368447   9.680   1.380   5.498
 5394POPC   PO468448   9.801   0.742   5.385
 5394POPC   GL168449   9.895   0.943   5.777
 5394POPC   GL268450  10.124   1.165   5.760
 5394POPC   C1A68451   9.656   1.097   6.154
 5394POPC   D2A68452   9.479   0.889   6.550
 5394POPC   C3A68453   9.433   1.211   6.883
 5394POPC   C4A68454   9.725   1.509   7.089
 5394POPC   C1B68455  10.164   1.065   6.242
 5394POPC   C2B68456   9.986   1.046   6.685
 5394POPC   C3B68457   9.860   1.020   7.144
 5394POPC   C4B68458  10.068   0.940   7.542
 5395POPC   NC368459  31.378  40.213   5.372
 5395POPC   PO468460  31.664  39.637   5.428
 5395POPC   GL168461  31.337  39.848   5.770
 5395POPC   GL268462  31.388  40.214   5.890
 5395POPC   C1A68463  31.260  39.871   6.243
 5395POPC   D2A68464  31.514  39.948   6.605
 5395POPC   C3A68465  31.334  39.784   6.963
 5395POPC   C4A68466  31.421  39.861   7.348
 5395POPC   C1B68467  31.198  40.385   6.268
 5395POPC   C2B68468  31.350  40.495   6.667
 5395POPC   C3B68469  31.389  40.291   7.057
 5395POPC   C4B68470  31.218  40.337   7.471
 5396POPC   NC368471   1.341   8.583   5.360
 5396POPC   PO468472   0.972   8.042   5.481
 5396POPC   GL168473   1.214   8.273   5.775
 5396POPC   GL268474   0.976   8.391   5.966
 5396POPC   C1A68475   1.417   8.239   6.199
 5396POPC   D2A68476   1.530   8.433   6.610
 5396POPC   C3A68477   1.303   8.228   6.909
 5396POPC   C4A68478   1.370   7.870   7.078
 5396POPC   C1B68479   0.934   7.993   6.202
 5396POPC   C2B68480   1.022   7.823   6.629
 5396POPC   C3B68481   0.860   7.962   7.031
 5396POPC   C4B68482   0.997   8.241   7.347
 5397POPC   NC368483  17.163  13.548   5.419
 5397POPC   PO468484  16.525  13.889   5.483
 5397POPC   GL168485  16.508  13.666   5.867
 5397POPC   GL268486  16.814  13.583   5.800
 5397POPC   C1A68487  16.553  13.570   6.310
 5397POPC   D2A68488  16.332  13.764   6.668
 5397POPC   C3A68489  16.442  13.796   7.061
 5397POPC   C4A68490  16.644  13.470   7.240
 5397POPC   C1B68491  16.872  13.954   6.061
 5397POPC   C2B68492  16.849  13.967   6.490
 5397POPC   C3B68493  16.862  13.644   6.786
 5397POPC   C4B68494  17.090  13.682   7.160
 5398POPC   NC368495  39.036  38.477   5.281
 5398POPC   PO468496  38.844  38.998   5.658
 5398POPC   GL168497  39.218  38.732   5.770
 5398POPC   GL268498  39.289  38.343   5.727
 5398POPC   C1A68499  39.361  38.763   6.206
 5398POPC   D2A68500  39.171  38.883   6.591
 5398POPC   C3A68501  39.130  38.649   6.951
 5398POPC   C4A68502  39.333  38.672   7.341
 5398POPC   C1B68503  39.295  38.244   6.188
 5398POPC   C2B68504  39.469  38.414   6.604
 5398POPC   C3B68505  39.487  38.284   7.042
 5398POPC   C4B68506  39.078  38.110   7.190
 5399POPC   NC368507  40.818  34.465   5.489
 5399POPC   PO468508  40.901  35.128   5.551
 5399POPC   GL168509  40.878  34.862   5.888
 5399POPC   GL268510  40.630  34.615   5.950
 5399POPC   C1A68511  40.928  34.880   6.329
 5399POPC   D2A68512  41.226  34.902   6.699
 5399POPC   C3A68513  40.942  34.817   7.023
 5399POPC   C4A68514  40.596  34.707   7.257
 5399POPC   C1B68515  40.907  34.365   6.198
 5399POPC   C2B68516  40.999  34.436   6.621
 5399POPC   C3B68517  40.799  34.312   6.986
 5399POPC   C4B68518  40.996  34.364   7.359
 5400POPC   NC368519  31.454   2.480   5.364
 5400POPC   PO468520  31.366   3.118   5.121
 5400POPC   GL168521  31.361   3.069   5.662
 5400POPC   GL268522  31.381   2.729   5.801
 5400POPC   C1A68523  31.547   3.032   6.171
 5400POPC   D2A68524  31.787   2.865   6.605
 5400POPC   C3A68525  31.705   2.805   7.104
 5400POPC   C4A68526  31.809   2.691   7.574
 5400POPC   C1B68527  31.551   2.503   6.178
 5400POPC   C2B68528  31.406   2.242   6.513
 5400POPC   C3B68529  31.463   2.399   6.916
 5400POPC   C4B68530  31.379   2.508   7.356
 5401POPC   NC368531   9.321  27.353   5.703
 5401POPC   PO468532   9.935  27.567   5.448
 5401POPC   GL168533   9.898  27.586   5.881
 5401POPC   GL268534  10.000  27.916   5.970
 5401POPC   C1A68535   9.873  27.424   6.310
 5401POPC   D2A68536   9.692  27.477   6.764
 5401POPC   C3A68537   9.937  27.397   7.178
 5401POPC   C4A68538   9.819  27.294   7.596
 5401POPC   C1B68539   9.665  27.895   6.322
 5401POPC   C2B68540   9.592  28.067   6.729
 5401POPC   C3B68541   9.739  27.859   7.122
 5401POPC   C4B68542   9.616  27.795   7.566
 5402POPC   NC368543   4.403  35.378   5.529
 5402POPC   PO468544   3.937  35.742   5.202
 5402POPC   GL168545   4.075  35.698   5.726
 5402POPC   GL268546   4.415  35.745   5.930
 5402POPC   C1A68547   4.060  35.452   6.139
 5402POPC   D2A68548   4.251  35.391   6.534
 5402POPC   C3A68549   4.048  35.187   6.884
 5402POPC   C4A68550   4.077  35.517   7.170
 5402POPC   C1B68551   4.616  35.362   6.144
 5402POPC   C2B68552   4.725  35.205   6.556
 5402POPC   C3B68553   4.549  35.334   6.967
 5402POPC   C4B68554   4.820  35.317   7.304
 5403POPC   NC368555  10.660  15.344   5.544
 5403POPC   PO468556  10.323  14.866   5.305
 5403POPC   GL168557  10.385  14.989   5.777
 5403POPC   GL268558  10.751  14.935   5.811
 5403POPC   C1A68559  10.327  14.999   6.268
 5403POPC   D2A68560  10.321  15.226   6.696
 5403POPC   C3A68561  10.308  15.012   7.121
 5403POPC   C4A68562  10.220  14.573   7.049
 5403POPC   C1B68563  10.828  15.060   6.229
 5403POPC   C2B68564  10.854  15.137   6.636
 5403POPC   C3B68565  10.744  15.289   7.012
 5403POPC   C4B68566  10.699  15.218   7.420
 5404POPC   NC368567  10.744   3.717   5.516
 5404POPC   PO468568  10.238   3.340   5.421
 5404POPC   GL168569  10.423   3.402   5.816
 5404POPC   GL268570  10.310   3.733   5.866
 5404POPC   C1A68571  10.463   3.339   6.265
 5404POPC   D2A68572  10.338   3.605   6.617
 5404POPC   C3A68573  10.474   3.337   6.934
 5404POPC   C4A68574  10.410   3.106   7.296
 5404POPC   C1B68575  10.661   3.797   6.165
 5404POPC   C2B68576  10.786   3.890   6.580
 5404POPC   C3B68577  10.833   3.718   6.969
 5404POPC   C4B68578  10.733   3.514   7.360
 5405POPC   NC368579  22.515  44.762   5.290
 5405POPC   PO468580  23.212  44.832   5.337
 5405POPC   GL168581  23.119  44.838   5.772
 5405POPC   GL268582  23.059  44.480   5.822
 5405POPC   C1A68583  23.077  44.820   6.218
 5405POPC   D2A68584  22.815   0.073   6.467
 5405POPC   C3A68585  22.856  44.930   6.859
 5405POPC   C4A68586  22.855  44.754   7.233
 5405POPC   C1B68587  22.918  44.314   6.211
 5405POPC   C2B68588  23.061  44.190   6.628
 5405POPC   C3B68589  23.218  44.470   6.963
 5405POPC   C4B68590  23.367  44.873   7.045
 5406POPC   NC368591  14.723  19.085   5.134
 5406POPC   PO468592  14.144  19.175   5.442
 5406POPC   GL168593  14.340  19.124   5.854
 5406POPC   GL268594  14.659  19.296   5.908
 5406POPC   C1A68595  14.265  18.938   6.272
 5406POPC   D2A68596  14.090  19.124   6.644
 5406POPC   C3A68597  14.228  19.018   7.045
 5406POPC   C4A68598  14.257  18.990   7.513
 5406POPC   C1B68599  14.766  19.195   6.307
 5406POPC   C2B68600  14.672  19.123   6.708
 5406POPC   C3B68601  14.898  19.270   7.051
 5406POPC   C4B68602  14.708  18.992   7.332
 5407POPC   NC368603   9.958   3.776   5.406
 5407POPC   PO468604   9.450   3.299   5.423
 5407POPC   GL168605   9.772   3.417   5.721
 5407POPC   GL268606   9.688   3.745   5.858
 5407POPC   C1A68607   9.980   3.437   6.130
 5407POPC   D2A68608   9.822   3.638   6.495
 5407POPC   C3A68609   9.887   3.389   6.814
 5407POPC   C4A68610  10.033   3.413   7.192
 5407POPC   C1B68611   9.970   3.986   6.150
 5407POPC   C2B68612  10.037   4.091   6.600
 5407POPC   C3B68613   9.916   3.882   6.988
 5407POPC   C4B68614   9.977   3.843   7.442
 5408POPC   NC368615   8.414   4.516   5.506
 5408POPC   PO468616   7.871   3.972   5.298
 5408POPC   GL168617   7.969   4.043   5.777
 5408POPC   GL268618   8.313   4.195   5.876
 5408POPC   C1A68619   8.126   3.910   6.216
 5408POPC   D2A68620   8.066   4.165   6.551
 5408POPC   C3A68621   8.218   4.082   6.935
 5408POPC   C4A68622   8.033   4.040   7.297
 5408POPC   C1B68623   8.543   4.371   6.240
 5408POPC   C2B68624   8.465   4.479   6.664
 5408POPC   C3B68625   8.585   4.458   7.092
 5408POPC   C4B68626   8.474   4.824   7.315
 5409POPC   NC368627  41.362   7.805   5.480
 5409POPC   PO468628  41.553   8.371   5.337
 5409POPC   GL168629  41.623   8.216   5.757
 5409POPC   GL268630  41.337   8.064   5.889
 5409POPC   C1A68631  41.739   8.129   6.187
 5409POPC   D2A68632  41.537   8.145   6.570
 5409POPC   C3A68633  41.810   8.123   6.931
 5409POPC   C4A68634  41.733   8.448   7.242
 5409POPC   C1B68635  41.322   7.811   6.252
 5409POPC   C2B68636  41.354   7.673   6.672
 5409POPC   C3B68637  41.328   7.945   7.013
 5409POPC   C4B68638  41.258   7.793   7.364
 5410POPC   NC368639  15.888  42.470   5.362
 5410POPC   PO468640  16.500  42.435   5.571
 5410POPC   GL168641  16.106  42.306   5.785
 5410POPC   GL268642  15.780  42.549   5.860
 5410POPC   C1A68643  15.956  42.211   6.176
 5410POPC   D2A68644  15.975  42.487   6.521
 5410POPC   C3A68645  16.008  42.318   6.925
 5410POPC   C4A68646  15.913  42.068   7.242
 5410POPC   C1B68647  15.515  42.438   6.253
 5410POPC   C2B68648  15.564  42.244   6.681
 5410POPC   C3B68649  15.479  42.292   7.130
 5410POPC   C4B68650  15.365  42.661   7.363
 5411POPC   NC368651  36.172   5.600   5.448
 5411POPC   PO468652  35.942   6.212   5.387
 5411POPC   GL168653  36.223   6.009   5.799
 5411POPC   GL268654  36.461   5.671   5.858
 5411POPC   C1A68655  36.198   5.879   6.284
 5411POPC   D2A68656  36.025   5.693   6.704
 5411POPC   C3A68657  36.042   5.973   7.076
 5411POPC   C4A68658  35.816   5.965   7.472
 5411POPC   C1B68659  36.636   5.562   6.247
 5411POPC   C2B68660  36.544   5.688   6.657
 5411POPC   C3B68661  36.413   5.618   7.094
 5411POPC   C4B68662  36.254   5.733   7.490
 5412POPC   NC368663  40.037  26.957   5.123
 5412POPC   PO468664  40.148  26.594   5.672
 5412POPC   GL168665  40.128  26.837   6.005
 5412POPC   GL268666  39.781  26.684   5.996
 5412POPC   C1A68667  40.187  26.806   6.412
 5412POPC   D2A68668  40.148  26.383   6.568
 5412POPC   C3A68669  40.273  26.452   6.940
 5412POPC   C4A68670  40.049  26.655   7.204
 5412POPC   C1B68671  39.730  26.588   6.362
 5412POPC   C2B68672  39.677  26.913   6.622
 5412POPC   C3B68673  39.687  27.138   6.977
 5412POPC   C4B68674  39.633  26.905   7.311
 5413POPC   NC368675  39.254  26.443   5.472
 5413POPC   PO468676  39.557  25.863   5.495
 5413POPC   GL168677  39.278  26.062   5.839
 5413POPC   GL268678  39.303  26.427   6.007
 5413POPC   C1A68679  39.090  25.996   6.245
 5413POPC   D2A68680  39.120  25.925   6.693
 5413POPC   C3A68681  39.144  26.263   7.009
 5413POPC   C4A68682  39.152  26.153   7.484
 5413POPC   C1B68683  39.300  26.386   6.506
 5413POPC   C2B68684  39.619  26.445   6.852
 5413POPC   C3B68685  39.559  26.419   7.276
 5413POPC   C4B68686  39.429  26.504   7.726
 5414POPC   NC368687  23.566  39.218   5.429
 5414POPC   PO468688  24.088  38.828   5.539
 5414POPC   GL168689  23.860  39.156   5.853
 5414POPC   GL268690  23.469  39.217   5.902
 5414POPC   C1A68691  23.769  39.238   6.293
 5414POPC   D2A68692  23.733  38.957   6.621
 5414POPC   C3A68693  23.812  39.167   7.012
 5414POPC   C4A68694  24.123  39.123   7.342
 5414POPC   C1B68695  23.330  38.897   6.167
 5414POPC   C2B68696  23.215  38.887   6.611
 5414POPC   C3B68697  23.410  38.844   6.997
 5414POPC   C4B68698  23.404  39.169   7.297
 5415POPC   NC368699  10.538  11.998   5.366
 5415POPC   PO468700  10.815  12.613   5.441
 5415POPC   GL168701  10.564  12.372   5.756
 5415POPC   GL268702  10.681  12.024   5.857
 5415POPC   C1A68703  10.329  12.299   6.131
 5415POPC   D2A68704  10.478  12.168   6.534
 5415POPC   C3A68705  10.470  12.460   6.888
 5415POPC   C4A68706  10.479  12.311   7.308
 5415POPC   C1B68707  10.591  11.736   6.188
 5415POPC   C2B68708  10.738  11.727   6.603
 5415POPC   C3B68709  10.608  11.906   6.999
 5415POPC   C4B68710  10.704  11.822   7.438
 5416POPC   NC368711  39.657  14.515   5.452
 5416POPC   PO468712  40.353  14.556   5.349
 5416POPC   GL168713  40.231  14.592   5.803
 5416POPC   GL268714  39.879  14.670   5.879
 5416POPC   C1A68715  40.224  14.515   6.252
 5416POPC   D2A68716  40.219  14.712   6.658
 5416POPC   C3A68717  40.235  14.405   6.962
 5416POPC   C4A68718  40.183  14.434   7.429
 5416POPC   C1B68719  39.690  14.405   6.181
 5416POPC   C2B68720  39.768  14.335   6.592
 5416POPC   C3B68721  39.531  14.194   6.905
 5416POPC   C4B68722  39.790  14.292   7.174
 5417POPC   NC368723  30.458  21.521   5.573
 5417POPC   PO468724  31.179  21.783   5.550
 5417POPC   GL168725  30.867  21.602   5.889
 5417POPC   GL268726  30.827  21.252   5.867
 5417POPC   C1A68727  30.551  21.470   6.255
 5417POPC   D2A68728  30.476  21.254   6.679
 5417POPC   C3A68729  30.697  21.483   7.014
 5417POPC   C4A68730  31.028  21.525   7.300
 5417POPC   C1B68731  30.823  21.055   6.293
 5417POPC   C2B68732  30.863  20.891   6.729
 5417POPC   C3B68733  30.690  20.996   7.159
 5417POPC   C4B68734  30.646  21.269   7.529
 5418POPC   NC368735  18.993  12.093   5.448
 5418POPC   PO468736  19.362  11.570   5.502
 5418POPC   GL168737  19.203  11.823   5.829
 5418POPC   GL268738  18.815  11.770   5.795
 5418POPC   C1A68739  19.306  12.049   6.235
 5418POPC   D2A68740  19.436  11.870   6.618
 5418POPC   C3A68741  19.374  12.092   6.956
 5418POPC   C4A68742  19.107  12.019   7.231
 5418POPC   C1B68743  18.808  12.021   6.146
 5418POPC   C2B68744  18.904  11.895   6.556
 5418POPC   C3B68745  18.722  11.907   6.930
 5418POPC   C4B68746  18.661  12.266   7.215
 5419POPC   NC368747  13.178   9.874   5.557
 5419POPC   PO468748  12.567   9.580   5.189
 5419POPC   GL168749  12.710   9.656   5.690
 5419POPC   GL268750  12.513   9.558   5.951
 5419POPC   C1A68751  12.972   9.705   6.136
 5419POPC   D2A68752  13.256   9.700   6.519
 5419POPC   C3A68753  13.144   9.989   6.840
 5419POPC   C4A68754  12.818   9.938   7.138
 5419POPC   C1B68755  12.510   9.787   6.332
 5419POPC   C2B68756  12.750   9.719   6.673
 5419POPC   C3B68757  12.898   9.428   6.987
 5419POPC   C4B68758  12.855   9.516   7.434
 5420POPC   NC368759   7.689  33.166   5.505
 5420POPC   PO468760   7.535  32.564   5.501
 5420POPC   GL168761   7.447  32.880   5.840
 5420POPC   GL268762   7.230  33.187   5.745
 5420POPC   C1A68763   7.707  33.127   6.133
 5420POPC   D2A68764   7.694  33.206   6.550
 5420POPC   C3A68765   7.394  33.041   6.809
 5420POPC   C4A68766   7.410  32.955   7.221
 5420POPC   C1B68767   7.249  33.316   6.214
 5420POPC   C2B68768   7.249  33.503   6.641
 5420POPC   C3B68769   7.178  33.418   7.120
 5420POPC   C4B68770   7.096  33.196   7.547
 5421POPC   NC368771   9.050  31.078   5.629
 5421POPC   PO468772   9.185  31.745   5.572
 5421POPC   GL168773   8.884  31.613   5.888
 5421POPC   GL268774   8.679  31.298   5.870
 5421POPC   C1A68775   8.852  31.522   6.324
 5421POPC   D2A68776   9.142  31.395   6.642
 5421POPC   C3A68777   9.089  31.520   7.060
 5421POPC   C4A68778   8.695  31.493   7.249
 5421POPC   C1B68779   8.795  31.015   6.216
 5421POPC   C2B68780   8.719  31.115   6.619
 5421POPC   C3B68781   8.793  31.035   7.043
 5421POPC   C4B68782   8.758  31.078   7.524
 5422POPC   NC368783  16.254  27.973   5.189
 5422POPC   PO468784  15.866  27.569   5.534
 5422POPC   GL168785  15.961  27.496   5.927
 5422POPC   GL268786  16.094  27.154   5.900
 5422POPC   C1A68787  15.954  27.771   6.276
 5422POPC   D2A68788  15.631  27.938   6.517
 5422POPC   C3A68789  15.637  27.719   6.883
 5422POPC   C4A68790  15.696  27.756   7.303
 5422POPC   C1B68791  16.341  27.352   6.228
 5422POPC   C2B68792  16.255  27.558   6.648
 5422POPC   C3B68793  16.118  27.534   7.094
 5422POPC   C4B68794  16.063  27.529   7.570
 5423POPC   NC368795   7.032  19.751   5.415
 5423POPC   PO468796   7.640  20.020   5.446
 5423POPC   GL168797   7.359  19.859   5.822
 5423POPC   GL268798   7.208  19.527   5.881
 5423POPC   C1A68799   7.170  19.805   6.270
 5423POPC   D2A68800   7.395  19.716   6.620
 5423POPC   C3A68801   7.218  19.704   7.002
 5423POPC   C4A68802   6.996  19.711   7.363
 5423POPC   C1B68803   7.629  19.540   6.153
 5423POPC   C2B68804   7.798  19.409   6.572
 5423POPC   C3B68805   7.722  19.558   7.015
 5423POPC   C4B68806   7.572  19.668   7.436
 5424POPC   NC368807   9.065  42.472   4.934
 5424POPC   PO468808   8.997  42.242   5.583
 5424POPC   GL168809   9.024  42.514   5.936
 5424POPC   GL268810   8.818  42.320   6.100
 5424POPC   C1A68811   9.115  42.558   6.409
 5424POPC   D2A68812   8.763  42.624   6.653
 5424POPC   C3A68813   8.897  42.395   6.991
 5424POPC   C4A68814   8.796  42.518   7.383
 5424POPC   C1B68815   9.257  42.113   6.186
 5424POPC   C2B68816   9.352  41.811   6.507
 5424POPC   C3B68817   9.144  41.893   6.877
 5424POPC   C4B68818   9.325  42.148   7.181
 5425POPC   NC368819   1.600  16.634   5.004
 5425POPC   PO468820   1.938  17.116   5.316
 5425POPC   GL168821   1.907  16.934   5.746
 5425POPC   GL268822   2.240  16.840   5.884
 5425POPC   C1A68823   1.707  16.773   6.137
 5425POPC   D2A68824   1.748  16.861   6.576
 5425POPC   C3A68825   1.860  16.520   6.886
 5425POPC   C4A68826   1.893  16.180   7.174
 5425POPC   C1B68827   2.206  16.764   6.320
 5425POPC   C2B68828   2.256  16.819   6.746
 5425POPC   C3B68829   2.223  16.788   7.180
 5425POPC   C4B68830   2.302  16.418   7.388
 5426POPC   NC368831  39.310   4.751   5.458
 5426POPC   PO468832  39.425   4.125   5.282
 5426POPC   GL168833  39.235   4.177   5.748
 5426POPC   GL268834  39.364   4.497   5.894
 5426POPC   C1A68835  39.282   4.142   6.242
 5426POPC   D2A68836  39.245   4.535   6.506
 5426POPC   C3A68837  39.062   4.533   6.920
 5426POPC   C4A68838  39.044   4.292   7.299
 5426POPC   C1B68839  39.675   4.486   6.233
 5426POPC   C2B68840  39.881   4.597   6.603
 5426POPC   C3B68841  39.572   4.520   6.918
 5426POPC   C4B68842  39.365   4.709   7.316
 5427POPC   NC368843  32.632   1.581   5.363
 5427POPC   PO468844  32.278   2.133   5.231
 5427POPC   GL168845  32.607   2.058   5.574
 5427POPC   GL268846  32.411   1.831   5.762
 5427POPC   C1A68847  32.667   2.175   6.052
 5427POPC   D2A68848  32.522   2.010   6.464
 5427POPC   C3A68849  32.269   1.981   6.846
 5427POPC   C4A68850  32.333   2.067   7.264
 5427POPC   C1B68851  32.175   1.785   6.135
 5427POPC   C2B68852  32.221   1.569   6.510
 5427POPC   C3B68853  32.007   1.538   6.860
 5427POPC   C4B68854  31.997   1.711   7.245
 5428POPC   NC368855  27.343   6.978   5.474
 5428POPC   PO468856  27.969   6.833   5.264
 5428POPC   GL168857  27.756   6.764   5.713
 5428POPC   GL268858  27.428   6.536   5.779
 5428POPC   C1A68859  27.563   6.892   6.145
 5428POPC   D2A68860  27.658   7.009   6.601
 5428POPC   C3A68861  27.818   6.750   6.953
 5428POPC   C4A68862  27.867   6.605   7.395
 5428POPC   C1B68863  27.388   6.397   6.247
 5428POPC   C2B68864  27.368   6.574   6.697
 5428POPC   C3B68865  27.385   6.590   7.176
 5428POPC   C4B68866  27.187   6.302   7.491
 5429POPC   NC368867   5.154  18.493   5.310
 5429POPC   PO468868   5.307  17.752   5.304
 5429POPC   GL168869   5.327  17.942   5.767
 5429POPC   GL268870   5.148  18.268   5.766
 5429POPC   C1A68871   5.319  18.161   6.213
 5429POPC   D2A68872   4.922  18.198   6.456
 5429POPC   C3A68873   5.002  18.104   6.857
 5429POPC   C4A68874   5.286  18.371   7.011
 5429POPC   C1B68875   5.035  18.605   6.063
 5429POPC   C2B68876   4.893  18.722   6.488
 5429POPC   C3B68877   4.750  18.594   6.900
 5429POPC   C4B68878   4.884  18.512   7.319
 5430POPC   NC368879  32.998  15.816   5.519
 5430POPC   PO468880  33.138  16.426   5.372
 5430POPC   GL168881  33.146  16.193   5.831
 5430POPC   GL268882  33.257  15.836   5.947
 5430POPC   C1A68883  33.155  16.205   6.324
 5430POPC   D2A68884  32.973  16.337   6.774
 5430POPC   C3A68885  33.190  16.124   7.141
 5430POPC   C4A68886  33.142  15.846   7.506
 5430POPC   C1B68887  32.952  15.734   6.258
 5430POPC   C2B68888  32.903  15.839   6.707
 5430POPC   C3B68889  32.711  15.945   7.132
 5430POPC   C4B68890  32.489  15.837   7.507
 5431POPC   NC368891  35.289  15.419   5.526
 5431POPC   PO468892  34.965  14.765   5.539
 5431POPC   GL168893  35.136  15.067   5.843
 5431POPC   GL268894  35.524  15.119   5.866
 5431POPC   C1A68895  35.211  15.379   6.174
 5431POPC   D2A68896  35.457  15.331   6.512
 5431POPC   C3A68897  35.195  15.143   6.802
 5431POPC   C4A68898  35.143  15.233   7.213
 5431POPC   C1B68899  35.675  14.947   6.260
 5431POPC   C2B68900  35.723  14.912   6.709
 5431POPC   C3B68901  35.650  15.148   7.071
 5431POPC   C4B68902  35.530  15.006   7.470
 5432POPC   NC368903  26.646  40.196   5.495
 5432POPC   PO468904  27.231  40.004   5.335
 5432POPC   GL168905  26.940  39.742   5.624
 5432POPC   GL268906  26.550  39.755   5.709
 5432POPC   C1A68907  26.934  39.703   6.087
 5432POPC   D2A68908  26.954  39.976   6.461
 5432POPC   C3A68909  26.865  39.891   6.916
 5432POPC   C4A68910  26.701  40.225   7.220
 5432POPC   C1B68911  26.508  39.952   6.149
 5432POPC   C2B68912  26.449  39.957   6.605
 5432POPC   C3B68913  26.352  39.904   7.037
 5432POPC   C4B68914  26.528  39.849   7.510
 5433POPC   NC368915  19.758  34.208   5.383
 5433POPC   PO468916  19.882  34.857   5.615
 5433POPC   GL168917  19.858  34.469   5.841
 5433POPC   GL268918  19.553  34.259   5.833
 5433POPC   C1A68919  20.037  34.524   6.244
 5433POPC   D2A68920  20.033  34.858   6.527
 5433POPC   C3A68921  19.935  34.720   6.922
 5433POPC   C4A68922  20.011  34.612   7.351
 5433POPC   C1B68923  19.414  34.281   6.205
 5433POPC   C2B68924  19.563  34.526   6.516
 5433POPC   C3B68925  19.417  34.489   6.894
 5433POPC   C4B68926  19.678  34.307   7.162
 5434POPC   NC368927  44.588  16.163   5.504
 5434POPC   PO468928  44.728  16.835   5.431
 5434POPC   GL168929  44.643  16.671   5.844
 5434POPC   GL268930  44.344  16.459   5.870
 5434POPC   C1A68931  44.762  16.650   6.273
 5434POPC   D2A68932  44.962  16.536   6.635
 5434POPC   C3A68933  44.849  16.806   6.951
 5434POPC   C4A68934  44.794  16.649   7.362
 5434POPC   C1B68935  44.253  16.726   6.242
 5434POPC   C2B68936  44.402  16.774   6.668
 5434POPC   C3B68937  44.357  16.707   7.116
 5434POPC   C4B68938  44.356  16.323   7.383
 5435POPC   NC368939  35.692   1.766   5.463
 5435POPC   PO468940  35.313   2.270   5.156
 5435POPC   GL168941  35.311   2.099   5.640
 5435POPC   GL268942  35.585   2.048   5.866
 5435POPC   C1A68943  35.102   2.041   6.074
 5435POPC   D2A68944  34.904   2.048   6.495
 5435POPC   C3A68945  35.135   2.064   6.874
 5435POPC   C4A68946  35.047   2.007   7.306
 5435POPC   C1B68947  35.545   1.854   6.257
 5435POPC   C2B68948  35.617   1.983   6.662
 5435POPC   C3B68949  35.557   1.832   7.073
 5435POPC   C4B68950  35.733   2.137   7.331
 5436POPC   NC368951  24.527  17.719   5.122
 5436POPC   PO468952  24.607  18.306   5.345
 5436POPC   GL168953  24.613  18.343   5.781
 5436POPC   GL268954  24.267  18.276   5.853
 5436POPC   C1A68955  24.636  18.443   6.237
 5436POPC   D2A68956  24.425  18.644   6.604
 5436POPC   C3A68957  24.617  18.541   7.030
 5436POPC   C4A68958  24.773  18.630   7.490
 5436POPC   C1B68959  24.282  18.082   6.260
 5436POPC   C2B68960  24.335  18.135   6.692
 5436POPC   C3B68961  24.361  18.101   7.126
 5436POPC   C4B68962  24.333  18.396   7.447
 5437POPC   NC368963  37.207  44.005   5.362
 5437POPC   PO468964  36.597  43.668   5.656
 5437POPC   GL168965  36.845  43.797   5.944
 5437POPC   GL268966  36.980  44.115   5.823
 5437POPC   C1A68967  36.840  43.632   6.366
 5437POPC   D2A68968  36.618  43.604   6.769
 5437POPC   C3A68969  36.922  43.711   7.051
 5437POPC   C4A68970  37.278  43.860   7.260
 5437POPC   C1B68971  36.813  44.177   6.255
 5437POPC   C2B68972  36.923  44.039   6.665
 5437POPC   C3B68973  36.884  44.215   7.085
 5437POPC   C4B68974  36.684  44.337   7.456
 5438POPC   NC368975   9.436  43.206   5.363
 5438POPC   PO468976  10.168  43.164   5.495
 5438POPC   GL168977   9.792  43.196   5.737
 5438POPC   GL268978   9.737  42.872   5.675
 5438POPC   C1A68979   9.596  43.163   6.150
 5438POPC   D2A68980   9.828  43.191   6.544
 5438POPC   C3A68981   9.558  43.182   6.928
 5438POPC   C4A68982   9.727  43.324   7.328
 5438POPC   C1B68983   9.993  42.820   6.092
 5438POPC   C2B68984  10.076  42.709   6.546
 5438POPC   C3B68985   9.977  42.892   6.948
 5438POPC   C4B68986   9.727  42.830   7.303
 5439POPC   NC368987  24.747  21.256   5.459
 5439POPC   PO468988  24.109  21.239   5.549
 5439POPC   GL168989  24.413  21.202   5.861
 5439POPC   GL268990  24.759  21.003   5.890
 5439POPC   C1A68991  24.238  21.358   6.232
 5439POPC   D2A68992  24.349  21.690   6.473
 5439POPC   C3A68993  24.216  21.519   6.814
 5439POPC   C4A68994  24.324  21.293   7.192
 5439POPC   C1B68995  24.748  21.327   6.230
 5439POPC   C2B68996  24.597  21.246   6.630
 5439POPC   C3B68997  24.798  21.228   7.009
 5439POPC   C4B68998  24.754  21.003   7.396
 5440POPC   NC368999   5.360  14.774   5.422
 5440POPC   PO469000   5.199  14.198   5.425
 5440POPC   GL169001   5.034  14.510   5.743
 5440POPC   GL269002   4.994  14.246   5.953
 5440POPC   C1A69003   4.981  14.733   6.145
 5440POPC   D2A69004   5.151  14.786   6.589
 5440POPC   C3A69005   5.010  14.496   6.939
 5440POPC   C4A69006   4.796  14.457   7.362
 5440POPC   C1B69007   5.331  14.084   6.185
 5440POPC   C2B69008   5.419  13.947   6.579
 5440POPC   C3B69009   5.431  13.922   6.994
 5440POPC   C4B69010   5.214  14.163   7.320
 5441POPC   NC369011   7.456  44.227   5.332
 5441POPC   PO469012   7.295  43.581   5.399
 5441POPC   GL169013   7.384  43.861   5.740
 5441POPC   GL269014   7.676  44.083   5.766
 5441POPC   C1A69015   7.255  43.798   6.164
 5441POPC   D2A69016   7.167  44.016   6.541
 5441POPC   C3A69017   7.251  43.828   6.934
 5441POPC   C4A69018   7.486  43.683   7.249
 5441POPC   C1B69019   7.667  44.227   6.176
 5441POPC   C2B69020   7.557  44.330   6.604
 5441POPC   C3B69021   7.545  44.239   7.052
 5441POPC   C4B69022   7.684  44.101   7.477
 5442POPC   NC369023  43.428  42.275   5.531
 5442POPC   PO469024  44.102  42.307   5.430
 5442POPC   GL169025  43.910  42.251   5.826
 5442POPC   GL269026  43.722  42.545   5.905
 5442POPC   C1A69027  43.856  42.093   6.263
 5442POPC   D2A69028  44.090  42.111   6.654
 5442POPC   C3A69029  43.917  42.031   7.070
 5442POPC   C4A69030  43.804  42.163   7.516
 5442POPC   C1B69031  44.097  42.564   6.207
 5442POPC   C2B69032  44.149  42.757   6.623
 5442POPC   C3B69033  44.087  42.522   6.993
 5442POPC   C4B69034  44.005  42.602   7.427
 5443POPC   NC369035  29.656  29.386   5.471
 5443POPC   PO469036  29.694  28.798   5.172
 5443POPC   GL169037  29.732  28.914   5.693
 5443POPC   GL269038  29.976  29.214   5.833
 5443POPC   C1A69039  29.860  28.893   6.197
 5443POPC   D2A69040  29.801  29.121   6.599
 5443POPC   C3A69041  29.846  28.879   6.968
 5443POPC   C4A69042  29.649  28.866   7.330
 5443POPC   C1B69043  29.704  29.433   6.188
 5443POPC   C2B69044  29.473  29.685   6.544
 5443POPC   C3B69045  29.424  29.629   7.002
 5443POPC   C4B69046  29.764  29.358   7.146
 5444POPC   NC369047   9.548  16.685   5.361
 5444POPC   PO469048  10.181  16.285   5.431
 5444POPC   GL169049  10.010  16.623   5.766
 5444POPC   GL269050   9.642  16.745   5.850
 5444POPC   C1A69051   9.997  16.827   6.210
 5444POPC   D2A69052   9.820  17.014   6.612
 5444POPC   C3A69053   9.902  16.770   6.952
 5444POPC   C4A69054  10.167  16.429   7.043
 5444POPC   C1B69055   9.443  16.784   6.280
 5444POPC   C2B69056   9.423  16.677   6.734
 5444POPC   C3B69057   9.419  16.894   7.148
 5444POPC   C4B69058   9.415  16.965   7.613
 5445POPC   NC369059  43.472   2.850   5.337
 5445POPC   PO469060  44.120   2.519   5.238
 5445POPC   GL169061  43.952   2.680   5.608
 5445POPC   GL269062  44.286   2.696   5.747
 5445POPC   C1A69063  43.893   2.629   6.072
 5445POPC   D2A69064  43.857   2.527   6.521
 5445POPC   C3A69065  43.785   2.772   6.899
 5445POPC   C4A69066  43.891   2.597   7.328
 5445POPC   C1B69067  44.394   2.734   6.194
 5445POPC   C2B69068  44.259   2.846   6.616
 5445POPC   C3B69069  44.290   2.905   7.064
 5445POPC   C4B69070  43.994   3.087   7.310
 5446POPC   NC369071  16.246   7.378   5.662
 5446POPC   PO469072  16.030   6.872   5.354
 5446POPC   GL169073  15.845   7.059   5.786
 5446POPC   GL269074  15.758   7.462   5.808
 5446POPC   C1A69075  15.950   7.234   6.237
 5446POPC   D2A69076  15.978   7.131   6.668
 5446POPC   C3A69077  16.127   7.347   7.015
 5446POPC   C4A69078  15.901   7.329   7.397
 5446POPC   C1B69079  15.743   7.709   6.221
 5446POPC   C2B69080  15.911   7.718   6.671
 5446POPC   C3B69081  15.802   7.747   7.123
 5446POPC   C4B69082  16.011   7.795   7.556
 5447POPC   NC369083  44.236  37.059   5.115
 5447POPC   PO469084  44.855  36.834   5.386
 5447POPC   GL169085  44.836  36.968   5.831
 5447POPC   GL269086  44.751  36.612   5.877
 5447POPC   C1A69087  44.636  36.901   6.257
 5447POPC   D2A69088  44.441  36.762   6.618
 5447POPC   C3A69089  44.670  36.859   6.982
 5447POPC   C4A69090  44.495  37.038   7.331
 5447POPC   C1B69091  44.994  36.525   6.277
 5447POPC   C2B69092   0.072  36.631   6.724
 5447POPC   C3B69093   0.120  36.618   7.191
 5447POPC   C4B69094   0.043  36.594   7.650
 5448POPC   NC369095  37.715  10.308   5.559
 5448POPC   PO469096  37.301  10.806   5.489
 5448POPC   GL169097  37.483  10.651   5.852
 5448POPC   GL269098  37.832  10.725   5.833
 5448POPC   C1A69099  37.336  10.672   6.261
 5448POPC   D2A69100  37.477  10.727   6.658
 5448POPC   C3A69101  37.524  10.370   6.930
 5448POPC   C4A69102  37.550  10.393   7.387
 5448POPC   C1B69103  37.848  10.796   6.274
 5448POPC   C2B69104  37.995  10.634   6.670
 5448POPC   C3B69105  37.917  10.682   7.105
 5448POPC   C4B69106  37.894  10.777   7.547
 5449POPC   NC369107  43.899   5.170   5.416
 5449POPC   PO469108  44.017   4.467   5.330
 5449POPC   GL169109  43.935   4.797   5.760
 5449POPC   GL269110  43.682   5.142   5.864
 5449POPC   C1A69111  44.023   5.015   6.185
 5449POPC   D2A69112  44.036   5.280   6.547
 5449POPC   C3A69113  44.263   5.013   6.809
 5449POPC   C4A69114  44.140   4.913   7.197
 5449POPC   C1B69115  43.427   5.298   6.237
 5449POPC   C2B69116  43.523   5.289   6.687
 5449POPC   C3B69117  43.613   5.018   7.029
 5449POPC   C4B69118  43.706   5.071   7.433
 5450POPC   NC369119  14.174   1.334   5.401
 5450POPC   PO469120  13.510   1.304   5.259
 5450POPC   GL169121  13.732   1.386   5.689
 5450POPC   GL269122  14.008   1.654   5.761
 5450POPC   C1A69123  13.630   1.158   6.080
 5450POPC   D2A69124  13.374   1.239   6.435
 5450POPC   C3A69125  13.505   1.317   6.857
 5450POPC   C4A69126  13.315   1.086   7.181
 5450POPC   C1B69127  14.071   1.396   6.142
 5450POPC   C2B69128  13.926   1.153   6.516
 5450POPC   C3B69129  14.031   1.268   6.939
 5450POPC   C4B69130  13.859   1.573   7.215
 5451POPC   NC369131  16.532  18.640   5.352
 5451POPC   PO469132  17.122  18.206   5.372
 5451POPC   GL169133  16.880  18.344   5.724
 5451POPC   GL269134  16.511  18.236   5.711
 5451POPC   C1A69135  16.957  18.349   6.172
 5451POPC   D2A69136  17.114  18.200   6.577
 5451POPC   C3A69137  17.056  18.390   6.976
 5451POPC   C4A69138  16.898  18.237   7.339
 5451POPC   C1B69139  16.437  18.362   6.161
 5451POPC   C2B69140  16.624  18.428   6.569
 5451POPC   C3B69141  16.556  18.268   6.948
 5451POPC   C4B69142  16.431  18.465   7.311
 5452POPC   NC369143  11.022  19.047   5.354
 5452POPC   PO469144  11.681  18.950   5.213
 5452POPC   GL169145  11.479  18.965   5.651
 5452POPC   GL269146  11.306  19.250   5.776
 5452POPC   C1A69147  11.422  18.782   6.100
 5452POPC   D2A69148  11.473  18.908   6.560
 5452POPC   C3A69149  11.232  18.984   6.919
 5452POPC   C4A69150  11.372  18.870   7.290
 5452POPC   C1B69151  11.417  19.273   6.210
 5452POPC   C2B69152  11.315  19.410   6.613
 5452POPC   C3B69153  11.490  19.431   6.992
 5452POPC   C4B69154  11.284  19.344   7.354
 5453POPC   NC369155  34.954   1.210   5.510
 5453POPC   PO469156  34.331   1.492   5.430
 5453POPC   GL169157  34.534   1.378   5.830
 5453POPC   GL269158  34.579   1.041   5.869
 5453POPC   C1A69159  34.425   1.273   6.293
 5453POPC   D2A69160  34.080   1.349   6.571
 5453POPC   C3A69161  34.300   1.501   6.927
 5453POPC   C4A69162  34.542   1.237   7.170
 5453POPC   C1B69163  34.892   1.070   6.255
 5453POPC   C2B69164  34.878   1.079   6.753
 5453POPC   C3B69165  35.013   1.123   7.220
 5453POPC   C4B69166  34.849   1.337   7.619
 5454POPC   NC369167   4.509  18.941   5.433
 5454POPC   PO469168   3.942  19.243   5.271
 5454POPC   GL169169   4.045  18.997   5.682
 5454POPC   GL269170   4.202  19.273   5.784
 5454POPC   C1A69171   4.315  18.902   6.105
 5454POPC   D2A69172   4.465  18.998   6.529
 5454POPC   C3A69173   4.217  18.813   6.869
 5454POPC   C4A69174   4.344  18.637   7.244
 5454POPC   C1B69175   4.181  19.380   6.238
 5454POPC   C2B69176   4.064  19.281   6.679
 5454POPC   C3B69177   4.322  19.260   7.052
 5454POPC   C4B69178   4.135  19.577   7.216
 5455POPC   NC369179  32.509  13.377   5.560
 5455POPC   PO469180  31.834  13.501   5.470
 5455POPC   GL169181  32.065  13.535   5.843
 5455POPC   GL269182  31.737  13.530   5.990
 5455POPC   C1A69183  32.368  13.509   6.220
 5455POPC   D2A69184  32.543  13.687   6.611
 5455POPC   C3A69185  32.366  13.514   6.964
 5455POPC   C4A69186  32.520  13.431   7.335
 5455POPC   C1B69187  31.940  13.775   6.274
 5455POPC   C2B69188  31.971  13.594   6.653
 5455POPC   C3B69189  31.862  13.499   7.056
 5455POPC   C4B69190  32.058  13.635   7.378
 5456POPC   NC369191  32.953  31.016   5.402
 5456POPC   PO469192  33.083  30.303   5.422
 5456POPC   GL169193  33.082  30.624   5.737
 5456POPC   GL269194  33.339  30.870   5.775
 5456POPC   C1A69195  32.942  30.716   6.165
 5456POPC   D2A69196  32.899  30.440   6.531
 5456POPC   C3A69197  32.824  30.583   6.975
 5456POPC   C4A69198  32.973  30.617   7.411
 5456POPC   C1B69199  33.386  30.984   6.219
 5456POPC   C2B69200  33.157  30.911   6.629
 5456POPC   C3B69201  33.169  30.997   7.082
 5456POPC   C4B69202  33.446  30.889   7.439
 5457POPC   NC369203  19.284  18.977   5.367
 5457POPC   PO469204  18.495  19.008   5.426
 5457POPC   GL169205  18.889  19.129   5.687
 5457POPC   GL269206  18.999  18.810   5.783
 5457POPC   C1A69207  19.105  19.219   6.109
 5457POPC   D2A69208  19.031  19.065   6.552
 5457POPC   C3A69209  19.222  19.262   6.910
 5457POPC   C4A69210  19.122  19.198   7.315
 5457POPC   C1B69211  19.094  18.700   6.200
 5457POPC   C2B69212  19.140  18.557   6.606
 5457POPC   C3B69213  19.070  18.749   7.005
 5457POPC   C4B69214  19.359  18.721   7.340
 5458POPC   NC369215  13.750   4.778   5.298
 5458POPC   PO469216  13.272   4.322   5.148
 5458POPC   GL169217  13.470   4.436   5.627
 5458POPC   GL269218  13.367   4.194   5.880
 5458POPC   C1A69219  13.576   4.605   6.102
 5458POPC   D2A69220  13.504   4.561   6.586
 5458POPC   C3A69221  13.849   4.554   6.932
 5458POPC   C4A69222  13.872   4.225   7.282
 5458POPC   C1B69223  13.182   4.236   6.282
 5458POPC   C2B69224  13.268   4.077   6.649
 5458POPC   C3B69225  13.192   4.259   7.029
 5458POPC   C4B69226  13.417   4.541   7.203
 5459POPC   NC369227   4.976  25.279   5.462
 5459POPC   PO469228   5.551  24.996   5.338
 5459POPC   GL169229   5.313  25.082   5.773
 5459POPC   GL269230   5.261  25.444   5.883
 5459POPC   C1A69231   4.950  25.081   6.107
 5459POPC   D2A69232   4.794  25.231   6.505
 5459POPC   C3A69233   4.902  25.049   6.873
 5459POPC   C4A69234   5.157  25.230   7.171
 5459POPC   C1B69235   5.222  25.444   6.353
 5459POPC   C2B69236   5.133  25.538   6.783
 5459POPC   C3B69237   5.403  25.778   7.096
 5459POPC   C4B69238   5.827  25.735   7.226
 5460POPC   NC369239   5.467  43.116   5.359
 5460POPC   PO469240   4.817  42.951   5.431
 5460POPC   GL169241   4.912  43.116   5.818
 5460POPC   GL269242   5.188  43.347   5.771
 5460POPC   C1A69243   5.142  42.979   6.180
 5460POPC   D2A69244   5.303  43.104   6.596
 5460POPC   C3A69245   5.002  43.008   6.920
 5460POPC   C4A69246   5.020  43.136   7.325
 5460POPC   C1B69247   5.371  43.440   6.204
 5460POPC   C2B69248   5.410  43.620   6.629
 5460POPC   C3B69249   5.353  43.401   7.035
 5460POPC   C4B69250   5.457  42.935   7.122
 5461POPC   NC369251  35.934  39.527   5.559
 5461POPC   PO469252  36.123  38.924   5.382
 5461POPC   GL169253  36.126  39.105   5.808
 5461POPC   GL269254  36.347  39.385   5.897
 5461POPC   C1A69255  36.221  39.050   6.241
 5461POPC   D2A69256  36.339  39.220   6.629
 5461POPC   C3A69257  36.185  39.059   6.994
 5461POPC   C4A69258  35.907  38.972   7.280
 5461POPC   C1B69259  36.172  39.589   6.255
 5461POPC   C2B69260  36.057  39.621   6.681
 5461POPC   C3B69261  36.279  39.561   7.050
 5461POPC   C4B69262  36.189  39.383   7.440
 5462POPC   NC369263  28.889  38.642   5.477
 5462POPC   PO469264  29.437  38.260   5.534
 5462POPC   GL169265  29.125  38.436   5.888
 5462POPC   GL269266  28.868  38.726   5.961
 5462POPC   C1A69267  28.953  38.351   6.299
 5462POPC   D2A69268  29.210  38.147   6.575
 5462POPC   C3A69269  29.328  38.089   6.962
 5462POPC   C4A69270  29.113  38.187   7.327
 5462POPC   C1B69271  29.030  38.886   6.322
 5462POPC   C2B69272  29.271  38.661   6.617
 5462POPC   C3B69273  29.150  38.586   7.022
 5462POPC   C4B69274  28.823  38.845   7.170
 5463POPC   NC369275  23.317  25.986   5.168
 5463POPC   PO469276  23.759  26.410   5.296
 5463POPC   GL169277  23.689  26.204   5.748
 5463POPC   GL269278  23.507  25.893   5.813
 5463POPC   C1A69279  23.769  26.037   6.216
 5463POPC   D2A69280  24.018  25.939   6.581
 5463POPC   C3A69281  23.878  26.031   7.010
 5463POPC   C4A69282  23.687  26.245   7.365
 5463POPC   C1B69283  23.295  25.807   6.228
 5463POPC   C2B69284  23.216  26.017   6.605
 5463POPC   C3B69285  23.381  26.032   6.990
 5463POPC   C4B69286  23.548  25.742   7.291
 5464POPC   NC369287  24.524   7.712   5.407
 5464POPC   PO469288  24.251   8.277   5.602
 5464POPC   GL169289  24.366   8.033   5.998
 5464POPC   GL269290  24.688   7.833   5.917
 5464POPC   C1A69291  24.291   8.185   6.462
 5464POPC   D2A69292  24.435   8.522   6.755
 5464POPC   C3A69293  24.433   8.375   7.171
 5464POPC   C4A69294  24.098   8.113   7.157
 5464POPC   C1B69295  24.737   7.950   6.369
 5464POPC   C2B69296  24.694   8.074   6.816
 5464POPC   C3B69297  24.804   8.037   7.263
 5464POPC   C4B69298  24.747   8.290   7.627
 5465POPC   NC369299  18.645  25.002   5.135
 5465POPC   PO469300  18.966  25.480   5.551
 5465POPC   GL169301  19.069  25.350   5.908
 5465POPC   GL269302  19.152  25.020   5.951
 5465POPC   C1A69303  19.006  25.434   6.280
 5465POPC   D2A69304  19.202  25.642   6.598
 5465POPC   C3A69305  18.897  25.557   6.890
 5465POPC   C4A69306  19.037  25.456   7.274
 5465POPC   C1B69307  18.807  24.971   6.282
 5465POPC   C2B69308  18.854  25.072   6.705
 5465POPC   C3B69309  18.843  25.029   7.129
 5465POPC   C4B69310  18.799  24.990   7.592
 5466POPC   NC369311  15.195  26.422   5.782
 5466POPC   PO469312  15.203  25.833   5.382
 5466POPC   GL169313  15.275  25.911   5.816
 5466POPC   GL269314  14.906  25.942   5.895
 5466POPC   C1A69315  15.329  26.029   6.273
 5466POPC   D2A69316  15.322  26.390   6.540
 5466POPC   C3A69317  15.443  26.258   6.933
 5466POPC   C4A69318  15.214  26.222   7.303
 5466POPC   C1B69319  14.828  25.879   6.358
 5466POPC   C2B69320  15.037  25.963   6.771
 5466POPC   C3B69321  14.984  25.795   7.194
 5466POPC   C4B69322  15.040  25.435   7.455
 5467POPC   NC369323  43.280   9.915   5.301
 5467POPC   PO469324  42.717   9.980   5.571
 5467POPC   GL169325  43.087   9.650   5.764
 5467POPC   GL269326  42.945   9.286   5.746
 5467POPC   C1A69327  43.376   9.601   6.119
 5467POPC   D2A69328  43.382   9.808   6.531
 5467POPC   C3A69329  43.198   9.633   6.910
 5467POPC   C4A69330  43.328   9.771   7.301
 5467POPC   C1B69331  42.926   9.365   6.164
 5467POPC   C2B69332  42.885   9.619   6.503
 5467POPC   C3B69333  42.697   9.466   6.886
 5467POPC   C4B69334  42.851   9.514   7.294
 5468POPC   NC369335   7.458   3.186   5.356
 5468POPC   PO469336   6.930   3.384   5.220
 5468POPC   GL169337   7.186   3.465   5.661
 5468POPC   GL269338   7.555   3.616   5.640
 5468POPC   C1A69339   7.198   3.530   6.114
 5468POPC   D2A69340   7.416   3.375   6.501
 5468POPC   C3A69341   7.136   3.395   6.885
 5468POPC   C4A69342   7.180   3.586   7.293
 5468POPC   C1B69343   7.681   3.718   6.062
 5468POPC   C2B69344   7.724   3.772   6.515
 5468POPC   C3B69345   7.451   3.802   6.912
 5468POPC   C4B69346   7.606   3.812   7.372
 5469POPC   NC369347  44.145  42.745   5.569
 5469POPC   PO469348  43.570  42.921   5.556
 5469POPC   GL169349  43.851  43.063   5.883
 5469POPC   GL269350  44.221  43.205   5.791
 5469POPC   C1A69351  43.756  42.922   6.292
 5469POPC   D2A69352  43.468  42.974   6.622
 5469POPC   C3A69353  43.735  42.909   6.944
 5469POPC   C4A69354  43.767  43.025   7.334
 5469POPC   C1B69355  44.245  43.120   6.232
 5469POPC   C2B69356  44.000  43.281   6.572
 5469POPC   C3B69357  44.031  43.351   7.004
 5469POPC   C4B69358  44.247  42.996   7.162
 5470POPC   NC369359   2.529  22.776   5.478
 5470POPC   PO469360   3.107  23.067   5.445
 5470POPC   GL169361   2.939  22.872   5.802
 5470POPC   GL269362   2.700  23.161   5.883
 5470POPC   C1A69363   2.794  22.795   6.215
 5470POPC   D2A69364   2.827  23.086   6.530
 5470POPC   C3A69365   2.736  22.897   6.932
 5470POPC   C4A69366   3.007  22.747   7.262
 5470POPC   C1B69367   2.420  23.312   6.248
 5470POPC   C2B69368   2.463  23.408   6.709
 5470POPC   C3B69369   2.506  23.288   7.169
 5470POPC   C4B69370   2.283  23.314   7.562
 5471POPC   NC369371  43.796  14.680   5.496
 5471POPC   PO469372  43.586  14.036   5.482
 5471POPC   GL169373  43.707  14.249   5.870
 5471POPC   GL269374  43.913  14.536   5.956
 5471POPC   C1A69375  43.812  14.164   6.290
 5471POPC   D2A69376  43.822  14.420   6.643
 5471POPC   C3A69377  43.611  14.337   7.013
 5471POPC   C4A69378  43.617  14.529   7.420
 5471POPC   C1B69379  44.261  14.334   6.120
 5471POPC   C2B69380  44.323  14.274   6.556
 5471POPC   C3B69381  44.161  14.225   6.971
 5471POPC   C4B69382  44.410  14.038   7.273
 5472POPC   NC369383   6.392  39.830   5.390
 5472POPC   PO469384   6.626  40.490   5.379
 5472POPC   GL169385   6.576  40.196   5.703
 5472POPC   GL269386   6.871  40.026   5.671
 5472POPC   C1A69387   6.508  40.050   6.121
 5472POPC   D2A69388   6.359  40.046   6.552
 5472POPC   C3A69389   6.563  39.808   6.884
 5472POPC   C4A69390   6.505  40.041   7.262
 5472POPC   C1B69391   7.004  40.163   6.077
 5472POPC   C2B69392   6.869  40.022   6.502
 5472POPC   C3B69393   6.942  40.187   6.929
 5472POPC   C4B69394   7.035  40.028   7.301
 5473POPC   NC369395  29.614   6.281   5.301
 5473POPC   PO469396  30.347   5.993   5.271
 5473POPC   GL169397  30.189   5.845   5.674
 5473POPC   GL269398  29.920   6.062   5.756
 5473POPC   C1A69399  30.075   5.594   6.061
 5473POPC   D2A69400  29.948   5.740   6.479
 5473POPC   C3A69401  30.089   5.748   6.916
 5473POPC   C4A69402  29.776   5.644   7.277
 5473POPC   C1B69403  30.132   6.138   6.172
 5473POPC   C2B69404  29.981   6.268   6.597
 5473POPC   C3B69405  30.126   6.311   7.001
 5473POPC   C4B69406  29.999   6.088   7.315
 5474POPC   NC369407  24.767  28.014   5.148
 5474POPC   PO469408  24.383  28.593   5.417
 5474POPC   GL169409  24.279  28.517   5.839
 5474POPC   GL269410  24.397  28.833   5.891
 5474POPC   C1A69411  24.437  28.273   6.223
 5474POPC   D2A69412  24.592  28.139   6.641
 5474POPC   C3A69413  24.420  28.298   7.021
 5474POPC   C4A69414  24.615  28.437   7.408
 5474POPC   C1B69415  24.310  28.758   6.310
 5474POPC   C2B69416  24.500  28.673   6.677
 5474POPC   C3B69417  24.659  28.785   7.064
 5474POPC   C4B69418  24.512  28.914   7.499
 5475POPC   NC369419  17.532  44.249   5.055
 5475POPC   PO469420  17.542  43.710   5.362
 5475POPC   GL169421  17.514  43.826   5.799
 5475POPC   GL269422  17.323  44.170   5.844
 5475POPC   C1A69423  17.765  43.710   6.185
 5475POPC   D2A69424  17.539  43.592   6.612
 5475POPC   C3A69425  17.685  43.558   7.050
 5475POPC   C4A69426  17.978  43.785   7.259
 5475POPC   C1B69427  17.266  44.355   6.271
 5475POPC   C2B69428  17.244  44.146   6.711
 5475POPC   C3B69429  17.618  44.068   6.979
 5475POPC   C4B69430  17.710  44.175   7.425
 5476POPC   NC369431  22.359  35.127   5.420
 5476POPC   PO469432  22.432  35.712   5.747
 5476POPC   GL169433  22.228  35.329   5.879
 5476POPC   GL269434  22.475  35.061   5.930
 5476POPC   C1A69435  21.936  35.258   6.238
 5476POPC   D2A69436  21.690  35.336   6.644
 5476POPC   C3A69437  21.980  35.279   6.997
 5476POPC   C4A69438  22.249  35.540   7.250
 5476POPC   C1B69439  22.475  35.352   6.326
 5476POPC   C2B69440  22.433  35.402   6.777
 5476POPC   C3B69441  22.488  35.111   7.140
 5476POPC   C4B69442  22.604  35.218   7.600
 5477POPC   NC369443   4.533  12.932   5.187
 5477POPC   PO469444   3.953  13.192   5.443
 5477POPC   GL169445   4.241  12.922   5.646
 5477POPC   GL269446   4.051  12.911   5.906
 5477POPC   C1A69447   4.530  12.824   6.025
 5477POPC   D2A69448   4.638  12.794   6.477
 5477POPC   C3A69449   4.436  12.869   6.905
 5477POPC   C4A69450   4.497  12.910   7.407
 5477POPC   C1B69451   3.855  13.016   6.287
 5477POPC   C2B69452   3.927  12.973   6.713
 5477POPC   C3B69453   3.985  12.594   6.912
 5477POPC   C4B69454   3.915  12.459   7.304
 5478POPC   NC369455  26.365  28.423   5.442
 5478POPC   PO469456  25.830  28.156   5.559
 5478POPC   GL169457  26.132  28.242   5.859
 5478POPC   GL269458  26.059  27.939   5.976
 5478POPC   C1A69459  26.270  28.435   6.227
 5478POPC   D2A69460  26.016  28.503   6.618
 5478POPC   C3A69461  25.990  28.545   7.075
 5478POPC   C4A69462  26.359  28.575   7.335
 5478POPC   C1B69463  25.785  28.217   6.248
 5478POPC   C2B69464  25.699  28.110   6.672
 5478POPC   C3B69465  25.785  28.063   7.094
 5478POPC   C4B69466  26.029  28.167   7.428
 5479POPC   NC369467   1.348   7.783   5.632
 5479POPC   PO469468   1.003   7.244   5.343
 5479POPC   GL169469   1.031   7.137   5.773
 5479POPC   GL269470   1.228   7.387   5.923
 5479POPC   C1A69471   0.798   7.273   6.145
 5479POPC   D2A69472   0.650   7.422   6.528
 5479POPC   C3A69473   0.920   7.363   6.853
 5479POPC   C4A69474   1.014   7.518   7.244
 5479POPC   C1B69475   1.428   7.489   6.327
 5479POPC   C2B69476   1.426   7.471   6.786
 5479POPC   C3B69477   1.528   7.406   7.246
 5479POPC   C4B69478   1.719   7.487   7.706
 5480POPC   NC369479  39.773  38.965   5.474
 5480POPC   PO469480  39.515  38.392   5.232
 5480POPC   GL169481  39.817  38.378   5.620
 5480POPC   GL269482  39.713  38.594   5.880
 5480POPC   C1A69483  40.049  38.212   6.033
 5480POPC   D2A69484  40.007  37.999   6.460
 5480POPC   C3A69485  39.964  38.284   6.809
 5480POPC   C4A69486  40.110  38.247   7.232
 5480POPC   C1B69487  39.854  38.636   6.315
 5480POPC   C2B69488  39.685  38.889   6.657
 5480POPC   C3B69489  39.751  38.734   7.049
 5480POPC   C4B69490  40.138  38.768   7.226
 5481POPC   NC369491  22.817  30.191   5.157
 5481POPC   PO469492  23.100  30.742   5.398
 5481POPC   GL169493  22.948  30.767   5.830
 5481POPC   GL269494  22.601  30.940   5.880
 5481POPC   C1A69495  23.186  30.672   6.239
 5481POPC   D2A69496  23.337  30.891   6.649
 5481POPC   C3A69497  23.216  30.689   7.067
 5481POPC   C4A69498  23.175  30.365   7.378
 5481POPC   C1B69499  22.747  30.898   6.291
 5481POPC   C2B69500  22.864  30.666   6.663
 5481POPC   C3B69501  22.747  30.878   7.054
 5481POPC   C4B69502  22.793  30.672   7.429
 5482POPC   NC369503  29.824  26.974   5.099
 5482POPC   PO469504  29.911  27.673   5.300
 5482POPC   GL169505  30.058  27.668   5.742
 5482POPC   GL269506  29.945  27.330   5.836
 5482POPC   C1A69507  29.953  27.779   6.184
 5482POPC   D2A69508  29.874  27.643   6.641
 5482POPC   C3A69509  29.816  27.912   6.987
 5482POPC   C4A69510  29.939  27.795   7.382
 5482POPC   C1B69511  30.200  27.338   6.211
 5482POPC   C2B69512  30.253  27.280   6.664
 5482POPC   C3B69513  30.233  27.472   7.068
 5482POPC   C4B69514  30.134  27.320   7.483
 5483POPC   NC369515   9.542  19.594   5.622
 5483POPC   PO469516   9.696  18.921   5.372
 5483POPC   GL169517   9.585  18.943   5.797
 5483POPC   GL269518   9.940  19.073   5.897
 5483POPC   C1A69519   9.634  18.877   6.254
 5483POPC   D2A69520   9.857  19.165   6.529
 5483POPC   C3A69521   9.650  19.106   6.890
 5483POPC   C4A69522   9.581  18.717   7.084
 5483POPC   C1B69523  10.186  18.870   6.257
 5483POPC   C2B69524  10.340  19.006   6.671
 5483POPC   C3B69525  10.125  19.177   7.035
 5483POPC   C4B69526   9.862  19.048   7.359
 5484POPC   NC369527  28.100   6.332   5.376
 5484POPC   PO469528  27.568   5.844   5.472
 5484POPC   GL169529  27.525   5.675   5.844
 5484POPC   GL269530  27.859   5.515   5.815
 5484POPC   C1A69531  27.479   5.863   6.250
 5484POPC   D2A69532  27.671   6.077   6.598
 5484POPC   C3A69533  27.471   6.117   6.994
 5484POPC   C4A69534  27.646   6.149   7.400
 5484POPC   C1B69535  27.731   5.393   6.234
 5484POPC   C2B69536  27.487   5.487   6.610
 5484POPC   C3B69537  27.526   5.609   7.030
 5484POPC   C4B69538  27.695   5.653   7.456
 5485POPC   NC369539  21.833  24.804   5.385
 5485POPC   PO469540  21.217  24.585   5.323
 5485POPC   GL169541  21.454  24.557   5.728
 5485POPC   GL269542  21.530  24.184   5.820
 5485POPC   C1A69543  21.306  24.675   6.155
 5485POPC   D2A69544  21.488  24.706   6.570
 5485POPC   C3A69545  21.282  24.615   6.943
 5485POPC   C4A69546  21.559  24.529   7.257
 5485POPC   C1B69547  21.555  24.243   6.295
 5485POPC   C2B69548  21.545  24.189   6.752
 5485POPC   C3B69549  21.704  24.079   7.160
 5485POPC   C4B69550  21.568  24.102   7.597
 5486POPC   NC369551  36.366  19.564   5.422
 5486POPC   PO469552  35.829  19.981   5.390
 5486POPC   GL169553  36.087  19.850   5.739
 5486POPC   GL269554  35.926  19.607   5.842
 5486POPC   C1A69555  36.175  19.908   6.194
 5486POPC   D2A69556  36.016  20.060   6.599
 5486POPC   C3A69557  36.239  20.034   6.981
 5486POPC   C4A69558  36.387  19.814   7.304
 5486POPC   C1B69559  36.027  19.416   6.261
 5486POPC   C2B69560  36.040  19.566   6.718
 5486POPC   C3B69561  36.050  19.424   7.169
 5486POPC   C4B69562  35.742  19.434   7.529
 5487POPC   NC369563  20.896  33.153   5.493
 5487POPC   PO469564  20.470  32.629   5.285
 5487POPC   GL169565  20.372  32.934   5.639
 5487POPC   GL269566  20.633  32.743   5.799
 5487POPC   C1A69567  20.363  33.125   6.091
 5487POPC   D2A69568  20.630  33.049   6.475
 5487POPC   C3A69569  20.561  33.145   6.940
 5487POPC   C4A69570  20.786  33.258   7.332
 5487POPC   C1B69571  20.982  32.699   6.088
 5487POPC   C2B69572  21.084  32.761   6.516
 5487POPC   C3B69573  20.786  32.705   6.830
 5487POPC   C4B69574  20.797  32.768   7.257
 5488POPC   NC369575  24.715  22.930   4.943
 5488POPC   PO469576  24.560  23.397   5.419
 5488POPC   GL169577  24.508  23.120   5.765
 5488POPC   GL269578  24.684  22.788   5.666
 5488POPC   C1A69579  24.371  23.170   6.218
 5488POPC   D2A69580  24.317  23.240   6.681
 5488POPC   C3A69581  24.207  22.855   6.925
 5488POPC   C4A69582  24.299  22.905   7.362
 5488POPC   C1B69583  24.802  22.855   6.126
 5488POPC   C2B69584  24.639  22.835   6.548
 5488POPC   C3B69585  24.694  22.963   6.967
 5488POPC   C4B69586  24.787  22.723   7.314
 5489POPC   NC369587  44.330  21.718   5.593
 5489POPC   PO469588  43.702  21.432   5.415
 5489POPC   GL169589  43.740  21.337   5.836
 5489POPC   GL269590  44.036  21.444   5.936
 5489POPC   C1A69591  43.744  21.123   6.218
 5489POPC   D2A69592  44.008  21.036   6.548
 5489POPC   C3A69593  43.810  21.152   6.917
 5489POPC   C4A69594  43.954  21.445   7.219
 5489POPC   C1B69595  43.885  21.624   6.308
 5489POPC   C2B69596  43.795  21.886   6.664
 5489POPC   C3B69597  44.018  21.921   7.049
 5489POPC   C4B69598  43.853  22.049   7.432
 5490POPC   NC369599  35.489  28.545   5.593
 5490POPC   PO469600  34.921  28.280   5.521
 5490POPC   GL169601  35.152  28.182   5.846
 5490POPC   GL269602  35.492  28.055   5.763
 5490POPC   C1A69603  35.066  28.393   6.243
 5490POPC   D2A69604  35.040  28.276   6.673
 5490POPC   C3A69605  35.169  28.564   6.955
 5490POPC   C4A69606  35.188  28.670   7.408
 5490POPC   C1B69607  35.494  28.123   6.221
 5490POPC   C2B69608  35.554  28.333   6.600
 5490POPC   C3B69609  35.450  28.131   6.960
 5490POPC   C4B69610  35.459  28.250   7.344
 5491POPC   NC369611  35.221  11.701   5.192
 5491POPC   PO469612  35.573  11.098   5.460
 5491POPC   GL169613  35.309  11.260   5.830
 5491POPC   GL269614  34.970  11.114   5.733
 5491POPC   C1A69615  35.272  11.472   6.292
 5491POPC   D2A69616  35.305  11.659   6.726
 5491POPC   C3A69617  35.547  11.470   7.043
 5491POPC   C4A69618  35.451  11.292   7.427
 5491POPC   C1B69619  34.968  11.070   6.185
 5491POPC   C2B69620  35.229  11.034   6.592
 5491POPC   C3B69621  35.133  11.166   7.019
 5491POPC   C4B69622  34.844  11.220   7.355
 5492POPC   NC369623   3.205  22.541   5.497
 5492POPC   PO469624   3.859  22.650   5.591
 5492POPC   GL169625   3.491  22.860   5.777
 5492POPC   GL269626   3.512  23.217   5.709
 5492POPC   C1A69627   3.327  22.849   6.185
 5492POPC   D2A69628   3.674  22.908   6.466
 5492POPC   C3A69629   3.727  22.886   6.874
 5492POPC   C4A69630   3.499  22.957   7.273
 5492POPC   C1B69631   3.224  23.322   6.041
 5492POPC   C2B69632   3.312  23.286   6.475
 5492POPC   C3B69633   3.239  23.067   6.846
 5492POPC   C4B69634   3.078  23.281   7.211
 5493POPC   NC369635  34.213   6.438   5.303
 5493POPC   PO469636  34.521   6.943   5.562
 5493POPC   GL169637  34.485   6.732   5.918
 5493POPC   GL269638  34.335   6.449   5.831
 5493POPC   C1A69639  34.594   6.810   6.339
 5493POPC   D2A69640  34.656   6.604   6.734
 5493POPC   C3A69641  34.428   6.811   7.051
 5493POPC   C4A69642  34.641   7.022   7.381
 5493POPC   C1B69643  34.349   6.361   6.257
 5493POPC   C2B69644  34.255   6.281   6.656
 5493POPC   C3B69645  34.396   6.281   7.087
 5493POPC   C4B69646  34.743   6.489   7.290
 5494POPC   NC369647  13.484  35.155   5.462
 5494POPC   PO469648  13.940  35.663   5.667
 5494POPC   GL169649  13.570  35.501   5.825
 5494POPC   GL269650  13.335  35.800   5.854
 5494POPC   C1A69651  13.506  35.226   6.192
 5494POPC   D2A69652  13.598  35.392   6.619
 5494POPC   C3A69653  13.598  35.184   6.995
 5494POPC   C4A69654  13.778  35.205   7.383
 5494POPC   C1B69655  13.630  35.746   6.252
 5494POPC   C2B69656  13.724  35.919   6.668
 5494POPC   C3B69657  13.717  35.716   7.074
 5494POPC   C4B69658  13.392  35.558   7.332
 5495POPC   NC369659  19.601   4.994   5.516
 5495POPC   PO469660  20.317   5.142   5.582
 5495POPC   GL169661  20.009   5.016   5.835
 5495POPC   GL269662  19.812   5.326   5.839
 5495POPC   C1A69663  19.799   4.963   6.222
 5495POPC   D2A69664  19.884   4.741   6.580
 5495POPC   C3A69665  19.614   4.828   6.906
 5495POPC   C4A69666  19.728   4.722   7.307
 5495POPC   C1B69667  19.961   5.445   6.251
 5495POPC   C2B69668  20.069   5.254   6.659
 5495POPC   C3B69669  19.866   5.238   7.070
 5495POPC   C4B69670  19.902   5.148   7.495
 5496POPC   NC369671   0.222  40.111   5.416
 5496POPC   PO469672   0.893  40.052   5.461
 5496POPC   GL169673   0.643  40.104   5.863
 5496POPC   GL269674   0.290  40.034   5.906
 5496POPC   C1A69675   0.580  40.178   6.319
 5496POPC   D2A69676   0.552  39.972   6.732
 5496POPC   C3A69677   0.339  40.146   7.116
 5496POPC   C4A69678   0.537  40.142   7.535
 5496POPC   C1B69679   0.262  39.716   6.222
 5496POPC   C2B69680   0.192  39.550   6.608
 5496POPC   C3B69681   0.121  39.708   6.993
 5496POPC   C4B69682   0.297  39.727   7.410
 5497POPC   NC369683  15.792  27.127   5.457
 5497POPC   PO469684  16.206  26.668   5.332
 5497POPC   GL169685  15.967  26.674   5.734
 5497POPC   GL269686  16.218  26.508   5.918
 5497POPC   C1A69687  15.873  26.806   6.194
 5497POPC   D2A69688  16.039  27.084   6.526
 5497POPC   C3A69689  15.925  27.081   6.957
 5497POPC   C4A69690  15.723  27.248   7.314
 5497POPC   C1B69691  16.232  26.345   6.344
 5497POPC   C2B69692  16.046  26.591   6.667
 5497POPC   C3B69693  15.848  26.589   7.059
 5497POPC   C4B69694  15.977  26.809   7.420
 5498POPC   NC369695  22.443  12.421   5.667
 5498POPC   PO469696  23.104  12.227   5.374
 5498POPC   GL169697  23.109  12.161   5.862
 5498POPC   GL269698  22.930  12.454   5.857
 5498POPC   C1A69699  22.931  12.101   6.363
 5498POPC   D2A69700  22.771  12.064   6.824
 5498POPC   C3A69701  23.015  11.977   7.193
 5498POPC   C4A69702  23.019  11.798   7.624
 5498POPC   C1B69703  22.858  12.585   6.279
 5498POPC   C2B69704  23.116  12.506   6.659
 5498POPC   C3B69705  22.991  12.461   7.086
 5498POPC   C4B69706  22.859  12.302   7.549
 5499POPC   NC369707  31.860   7.250   5.391
 5499POPC   PO469708  31.133   7.204   5.397
 5499POPC   GL169709  31.248   7.414   5.781
 5499POPC   GL269710  31.604   7.443   5.804
 5499POPC   C1A69711  31.118   7.465   6.210
 5499POPC   D2A69712  31.326   7.520   6.557
 5499POPC   C3A69713  31.092   7.410   6.868
 5499POPC   C4A69714  31.196   7.445   7.247
 5499POPC   C1B69715  31.741   7.310   6.211
 5499POPC   C2B69716  31.642   7.109   6.596
 5499POPC   C3B69717  31.653   7.311   6.997
 5499POPC   C4B69718  31.831   7.633   7.319
 5500POPC   NC369719  37.551   4.616   5.438
 5500POPC   PO469720  37.984   4.098   5.504
 5500POPC   GL169721  37.721   4.352   5.826
 5500POPC   GL269722  37.890   4.378   6.125
 5500POPC   C1A69723  37.432   4.584   6.166
 5500POPC   D2A69724  37.510   4.373   6.597
 5500POPC   C3A69725  37.543   4.449   7.041
 5500POPC   C4A69726  37.942   4.649   7.120
 5500POPC   C1B69727  37.493   4.071   6.192
 5500POPC   C2B69728  37.348   3.835   6.522
 5500POPC   C3B69729  37.503   3.934   6.893
 5500POPC   C4B69730  37.413   3.796   7.266
 5501POPC   NC369731  35.041  18.697   5.366
 5501POPC   PO469732  35.602  19.118   5.400
 5501POPC   GL169733  35.336  19.211   5.756
 5501POPC   GL269734  35.337  18.884   5.866
 5501POPC   C1A69735  35.446  19.316   6.203
 5501POPC   D2A69736  35.679  19.241   6.601
 5501POPC   C3A69737  35.529  19.334   7.025
 5501POPC   C4A69738  35.121  19.173   7.107
 5501POPC   C1B69739  35.282  18.838   6.305
 5501POPC   C2B69740  35.370  18.852   6.748
 5501POPC   C3B69741  35.114  18.670   7.071
 5501POPC   C4B69742  35.060  18.671   7.519
 5502POPC   NC369743  16.093  44.130   5.522
 5502POPC   PO469744  15.907  43.520   5.545
 5502POPC   GL169745  15.869  43.807   5.824
 5502POPC   GL269746  15.529  43.860   5.662
 5502POPC   C1A69747  16.053  43.714   6.213
 5502POPC   D2A69748  15.986  43.468   6.593
 5502POPC   C3A69749  16.101  43.658   6.976
 5502POPC   C4A69750  16.160  43.687   7.430
 5502POPC   C1B69751  15.458  43.677   6.058
 5502POPC   C2B69752  15.617  43.805   6.456
 5502POPC   C3B69753  15.561  43.603   6.840
 5502POPC   C4B69754  15.382  43.539   7.218
 5503POPC   NC369755  44.941  15.609   5.491
 5503POPC   PO469756  44.950  16.212   5.784
 5503POPC   GL169757  44.634  16.063   6.017
 5503POPC   GL269758  44.634  15.743   5.859
 5503POPC   C1A69759  44.420  16.243   6.373
 5503POPC   D2A69760  44.280  16.315   6.794
 5503POPC   C3A69761  44.673  16.298   6.982
 5503POPC   C4A69762  44.845  16.133   7.332
 5503POPC   C1B69763  44.893  15.685   6.234
 5503POPC   C2B69764  44.756  15.878   6.632
 5503POPC   C3B69765  44.840  15.720   7.043
 5503POPC   C4B69766  44.591  15.541   7.332
 5504POPC   NC369767  37.835  35.410   5.602
 5504POPC   PO469768  37.339  35.768   5.321
 5504POPC   GL169769  37.455  35.689   5.805
 5504POPC   GL269770  37.502  35.318   5.961
 5504POPC   C1A69771  37.659  35.701   6.253
 5504POPC   D2A69772  37.776  35.499   6.652
 5504POPC   C3A69773  37.524  35.443   7.016
 5504POPC   C4A69774  37.444  35.111   7.301
 5504POPC   C1B69775  37.945  35.236   6.223
 5504POPC   C2B69776  37.999  35.021   6.656
 5504POPC   C3B69777  37.981  35.198   7.119
 5504POPC   C4B69778  38.100  35.185   7.603
 5505POPC   NC369779  16.175   4.945   5.630
 5505POPC   PO469780  15.498   5.016   5.625
 5505POPC   GL169781  15.768   5.059   5.942
 5505POPC   GL269782  15.934   5.352   5.813
 5505POPC   C1A69783  16.082   5.059   6.267
 5505POPC   D2A69784  16.210   4.752   6.570
 5505POPC   C3A69785  16.007   4.970   6.893
 5505POPC   C4A69786  15.988   5.108   7.305
 5505POPC   C1B69787  15.778   5.467   6.216
 5505POPC   C2B69788  15.849   5.382   6.631
 5505POPC   C3B69789  15.631   5.367   7.030
 5505POPC   C4B69790  15.605   5.428   7.485
 5506POPC   NC369791  28.001   7.333   5.575
 5506POPC   PO469792  28.637   7.307   5.513
 5506POPC   GL169793  28.410   7.289   5.891
 5506POPC   GL269794  28.333   7.617   5.912
 5506POPC   C1A69795  28.413   7.156   6.316
 5506POPC   D2A69796  28.679   7.245   6.665
 5506POPC   C3A69797  28.498   7.170   6.998
 5506POPC   C4A69798  28.299   7.367   7.323
 5506POPC   C1B69799  28.145   7.608   6.282
 5506POPC   C2B69800  28.284   7.579   6.680
 5506POPC   C3B69801  28.104   7.759   7.043
 5506POPC   C4B69802  27.726   7.587   7.208
 5507POPC   NC369803   4.864  36.257   5.412
 5507POPC   PO469804   5.095  35.613   5.193
 5507POPC   GL169805   4.984  35.834   5.628
 5507POPC   GL269806   5.210  36.115   5.773
 5507POPC   C1A69807   4.798  36.087   6.051
 5507POPC   D2A69808   4.931  36.258   6.477
 5507POPC   C3A69809   4.807  36.051   6.857
 5507POPC   C4A69810   4.791  36.194   7.275
 5507POPC   C1B69811   5.207  36.486   6.112
 5507POPC   C2B69812   5.151  36.738   6.538
 5507POPC   C3B69813   5.339  36.623   6.968
 5507POPC   C4B69814   5.241  36.437   7.382
 5508POPC   NC369815  42.537  40.671   5.514
 5508POPC   PO469816  42.058  40.990   5.182
 5508POPC   GL169817  42.082  40.941   5.675
 5508POPC   GL269818  42.392  41.106   5.795
 5508POPC   C1A69819  42.209  40.711   6.109
 5508POPC   D2A69820  42.020  40.589   6.542
 5508POPC   C3A69821  42.267  40.576   6.930
 5508POPC   C4A69822  42.594  40.797   7.166
 5508POPC   C1B69823  42.117  41.201   6.162
 5508POPC   C2B69824  42.041  41.104   6.624
 5508POPC   C3B69825  42.177  41.082   7.072
 5508POPC   C4B69826  42.254  41.129   7.503
 5509POPC   NC369827  30.649  25.529   5.339
 5509POPC   PO469828  30.399  24.868   5.384
 5509POPC   GL169829  30.691  25.118   5.696
 5509POPC   GL269830  30.697  25.485   5.854
 5509POPC   C1A69831  30.646  25.093   6.167
 5509POPC   D2A69832  30.809  25.137   6.578
 5509POPC   C3A69833  30.672  25.063   6.999
 5509POPC   C4A69834  30.962  24.836   7.258
 5509POPC   C1B69835  30.863  25.581   6.302
 5509POPC   C2B69836  30.953  25.588   6.752
 5509POPC   C3B69837  30.802  25.542   7.146
 5509POPC   C4B69838  30.383  25.544   7.191
 5510POPC   NC369839  36.877   5.564   5.463
 5510POPC   PO469840  37.258   4.990   5.482
 5510POPC   GL169841  36.938   5.161   5.790
 5510POPC   GL269842  37.072   5.409   5.961
 5510POPC   C1A69843  36.607   5.076   6.122
 5510POPC   D2A69844  36.685   4.944   6.557
 5510POPC   C3A69845  36.666   5.224   6.890
 5510POPC   C4A69846  36.581   5.138   7.340
 5510POPC   C1B69847  37.096   5.044   6.272
 5510POPC   C2B69848  37.150   5.093   6.731
 5510POPC   C3B69849  37.027   4.980   7.146
 5510POPC   C4B69850  37.204   4.732   7.461
 5511POPC   NC369851  44.108  32.569   5.503
 5511POPC   PO469852  43.489  32.354   5.445
 5511POPC   GL169853  43.793  32.336   5.829
 5511POPC   GL269854  43.893  32.010   5.947
 5511POPC   C1A69855  44.021  32.471   6.221
 5511POPC   D2A69856  44.126  32.407   6.651
 5511POPC   C3A69857  43.771  32.300   6.871
 5511POPC   C4A69858  43.702  32.380   7.284
 5511POPC   C1B69859  43.940  31.987   6.381
 5511POPC   C2B69860  44.126  31.917   6.767
 5511POPC   C3B69861  43.875  31.859   7.143
 5511POPC   C4B69862  43.859  31.988   7.564
 5512POPC   NC369863  24.188  30.421   5.602
 5512POPC   PO469864  24.824  30.572   5.327
 5512POPC   GL169865  24.659  30.607   5.748
 5512POPC   GL269866  24.502  30.938   5.746
 5512POPC   C1A69867  24.703  30.451   6.190
 5512POPC   D2A69868  24.556  30.600   6.593
 5512POPC   C3A69869  24.729  30.507   6.987
 5512POPC   C4A69870  24.557  30.643   7.361
 5512POPC   C1B69871  24.460  30.929   6.186
 5512POPC   C2B69872  24.294  31.066   6.566
 5512POPC   C3B69873  24.473  30.969   6.961
 5512POPC   C4B69874  24.470  31.119   7.378
 5513POPC   NC369875  24.430  30.810   5.251
 5513POPC   PO469876  24.547  31.565   5.313
 5513POPC   GL169877  24.526  31.466   5.760
 5513POPC   GL269878  24.217  31.364   5.943
 5513POPC   C1A69879  24.692  31.387   6.168
 5513POPC   D2A69880  24.557  31.518   6.587
 5513POPC   C3A69881  24.543  31.494   7.032
 5513POPC   C4A69882  24.829  31.451   7.404
 5513POPC   C1B69883  24.009  31.619   6.286
 5513POPC   C2B69884  24.071  31.598   6.739
 5513POPC   C3B69885  24.179  31.839   7.105
 5513POPC   C4B69886  24.324  31.595   7.494
 5514POPC   NC369887   7.409  14.706   5.399
 5514POPC   PO469888   7.286  14.063   5.638
 5514POPC   GL169889   7.378  14.252   5.991
 5514POPC   GL269890   7.455  14.575   5.890
 5514POPC   C1A69891   7.147  14.457   6.315
 5514POPC   D2A69892   7.185  14.625   6.705
 5514POPC   C3A69893   6.945  14.368   6.985
 5514POPC   C4A69894   6.949  14.218   7.408
 5514POPC   C1B69895   7.724  14.532   6.267
 5514POPC   C2B69896   7.783  14.644   6.707
 5514POPC   C3B69897   7.814  14.543   7.144
 5514POPC   C4B69898   7.833  14.556   7.623
 5515POPC   NC369899  27.181  13.151   5.408
 5515POPC   PO469900  27.829  13.047   5.459
 5515POPC   GL169901  27.602  12.989   5.855
 5515POPC   GL269902  27.351  12.717   5.898
 5515POPC   C1A69903  27.444  13.045   6.274
 5515POPC   D2A69904  27.337  12.765   6.599
 5515POPC   C3A69905  27.430  12.986   6.990
 5515POPC   C4A69906  27.519  13.128   7.446
 5515POPC   C1B69907  27.730  12.542   6.135
 5515POPC   C2B69908  27.732  12.349   6.568
 5515POPC   C3B69909  27.565  12.456   6.958
 5515POPC   C4B69910  27.527  12.647   7.334
 5516POPC   NC369911  36.041   9.913   5.463
 5516POPC   PO469912  36.674   9.749   5.574
 5516POPC   GL169913  36.365   9.845   5.899
 5516POPC   GL269914  36.085   9.630   5.909
 5516POPC   C1A69915  36.121   9.953   6.298
 5516POPC   D2A69916  36.037   9.744   6.713
 5516POPC   C3A69917  36.118  10.008   7.074
 5516POPC   C4A69918  35.861  10.053   7.430
 5516POPC   C1B69919  36.369   9.468   6.272
 5516POPC   C2B69920  36.389   9.281   6.691
 5516POPC   C3B69921  36.355   9.481   7.083
 5516POPC   C4B69922  35.948   9.546   7.230
 5517POPC   NC369923  34.303  18.579   5.487
 5517POPC   PO469924  34.916  18.194   5.457
 5517POPC   GL169925  34.838  18.286   5.866
 5517POPC   GL269926  34.866  18.642   5.842
 5517POPC   C1A69927  34.754  18.100   6.300
 5517POPC   D2A69928  34.426  17.949   6.621
 5517POPC   C3A69929  34.391  18.096   7.066
 5517POPC   C4A69930  34.374  18.527   7.171
 5517POPC   C1B69931  34.802  18.650   6.274
 5517POPC   C2B69932  35.018  18.452   6.605
 5517POPC   C3B69933  34.882  18.229   6.962
 5517POPC   C4B69934  34.773  18.259   7.407
 5518POPC   NC369935  44.140   8.705   5.411
 5518POPC   PO469936  43.493   8.706   5.363
 5518POPC   GL169937  43.721   8.888   5.731
 5518POPC   GL269938  44.108   8.969   5.843
 5518POPC   C1A69939  43.769   8.781   6.153
 5518POPC   D2A69940  44.013   8.695   6.519
 5518POPC   C3A69941  43.791   8.751   6.903
 5518POPC   C4A69942  43.915   8.731   7.308
 5518POPC   C1B69943  44.090   9.167   6.259
 5518POPC   C2B69944  43.764   9.433   6.427
 5518POPC   C3B69945  43.705   9.522   6.848
 5518POPC   C4B69946  43.811   9.244   7.172
 5519POPC   NC369947  20.373  37.998   5.614
 5519POPC   PO469948  20.670  37.562   5.229
 5519POPC   GL169949  20.783  37.667   5.698
 5519POPC   GL269950  20.898  38.005   5.717
 5519POPC   C1A69951  20.573  37.665   6.174
 5519POPC   D2A69952  20.263  37.710   6.568
 5519POPC   C3A69953  20.451  37.577   6.987
 5519POPC   C4A69954  20.315  37.211   7.225
 5519POPC   C1B69955  20.723  38.155   6.125
 5519POPC   C2B69956  20.579  38.139   6.553
 5519POPC   C3B69957  20.678  38.062   6.987
 5519POPC   C4B69958  20.879  37.815   7.326
 5520POPC   NC369959  38.627  32.746   5.527
 5520POPC   PO469960  38.441  32.104   5.357
 5520POPC   GL169961  38.486  32.317   5.761
 5520POPC   GL269962  38.179  32.552   5.709
 5520POPC   C1A69963  38.610  32.300   6.213
 5520POPC   D2A69964  38.363  32.109   6.570
 5520POPC   C3A69965  38.352  32.197   7.024
 5520POPC   C4A69966  38.553  32.143   7.434
 5520POPC   C1B69967  38.185  32.592   6.170
 5520POPC   C2B69968  38.318  32.655   6.601
 5520POPC   C3B69969  38.118  32.649   6.977
 5520POPC   C4B69970  38.286  32.586   7.373
 5521POPC   NC369971  32.995  43.590   5.091
 5521POPC   PO469972  33.308  44.038   5.472
 5521POPC   GL169973  33.018  43.954   5.828
 5521POPC   GL269974  32.951  43.597   5.753
 5521POPC   C1A69975  32.890  43.996   6.289
 5521POPC   D2A69976  32.807  44.185   6.716
 5521POPC   C3A69977  32.822  43.895   7.096
 5521POPC   C4A69978  32.814  43.845   7.574
 5521POPC   C1B69979  33.192  43.588   6.167
 5521POPC   C2B69980  33.094  43.656   6.623
 5521POPC   C3B69981  33.166  43.495   7.033
 5521POPC   C4B69982  33.289  43.808   7.340
 5522POPC   NC369983   7.101   2.314   5.535
 5522POPC   PO469984   7.704   2.012   5.506
 5522POPC   GL169985   7.605   1.975   5.914
 5522POPC   GL269986   7.233   1.973   5.902
 5522POPC   C1A69987   7.521   1.895   6.323
 5522POPC   D2A69988   7.236   1.985   6.604
 5522POPC   C3A69989   7.501   2.065   6.954
 5522POPC   C4A69990   7.727   1.966   7.320
 5522POPC   C1B69991   7.216   2.299   6.184
 5522POPC   C2B69992   7.242   2.513   6.544
 5522POPC   C3B69993   7.110   2.388   6.926
 5522POPC   C4B69994   7.054   2.583   7.295
 5523POPC   NC369995   4.957  13.814   5.390
 5523POPC   PO469996   5.512  13.652   5.233
 5523POPC   GL169997   5.174  13.738   5.811
 5523POPC   GL269998   4.870  13.559   5.843
 5523POPC   C1A69999   5.236  13.577   6.274
 5523POPC   D2A70000   5.500  13.439   6.652
 5523POPC   C3A70001   5.266  13.369   7.027
 5523POPC   C4A70002   5.077  13.680   7.263
 5523POPC   C1B70003   4.748  13.722   6.274
 5523POPC   C2B70004   4.912  13.702   6.708
 5523POPC   C3B70005   4.682  13.493   7.032
 5523POPC   C4B70006   4.504  13.432   7.418
 5524POPC   NC370007  15.387  38.609   5.505
 5524POPC   PO470008  16.061  38.642   5.321
 5524POPC   GL170009  15.910  38.457   5.713
 5524POPC   GL270010  16.044  38.655   5.936
 5524POPC   C1A70011  15.835  38.270   6.164
 5524POPC   D2A70012  16.006  38.163   6.597
 5524POPC   C3A70013  15.742  38.192   6.966
 5524POPC   C4A70014  15.671  38.424   7.353
 5524POPC   C1B70015  16.338  38.683   6.260
 5524POPC   C2B70016  16.153  38.682   6.653
 5524POPC   C3B70017  16.046  38.644   7.066
 5524POPC   C4B70018  16.416  38.708   7.305
 5525POPC   NC370019   3.982  44.136   5.534
 5525POPC   PO470020   3.471  43.830   5.208
 5525POPC   GL170021   3.614  43.824   5.735
 5525POPC   GL270022   3.774  44.126   6.007
 5525POPC   C1A70023   3.576  43.693   6.189
 5525POPC   D2A70024   3.454  43.612   6.605
 5525POPC   C3A70025   3.556  43.906   6.914
 5525POPC   C4A70026   3.385  43.770   7.299
 5525POPC   C1B70027   3.355  44.182   6.231
 5525POPC   C2B70028   3.121  44.002   6.581
 5525POPC   C3B70029   3.119  44.151   6.987
 5525POPC   C4B70030   3.395  44.281   7.327
 5526POPC   NC370031   0.923   7.674   5.198
 5526POPC   PO470032   0.281   7.567   5.355
 5526POPC   GL170033   0.470   7.405   5.750
 5526POPC   GL270034   0.769   7.639   5.771
 5526POPC   C1A70035   0.286   7.254   6.184
 5526POPC   D2A70036   0.143   7.374   6.623
 5526POPC   C3A70037   0.338   7.131   6.955
 5526POPC   C4A70038   0.680   7.124   7.224
 5526POPC   C1B70039   0.478   7.737   6.146
 5526POPC   C2B70040   0.477   7.918   6.570
 5526POPC   C3B70041   0.459   7.660   6.951
 5526POPC   C4B70042   0.389   7.512   7.366
 5527POPC   NC370043  43.624  23.548   5.466
 5527POPC   PO470044  44.299  23.868   5.387
 5527POPC   GL170045  44.049  23.654   5.758
 5527POPC   GL270046  44.229  23.391   5.971
 5527POPC   C1A70047  43.750  23.589   6.128
 5527POPC   D2A70048  43.679  23.773   6.546
 5527POPC   C3A70049  43.859  23.612   6.956
 5527POPC   C4A70050  43.710  23.539   7.404
 5527POPC   C1B70051  44.225  23.801   6.212
 5527POPC   C2B70052  44.140  24.034   6.574
 5527POPC   C3B70053  44.261  24.005   6.980
 5527POPC   C4B70054  44.251  23.731   7.316
 5528POPC   NC370055  13.353   0.866   5.240
 5528POPC   PO470056  13.707   0.320   5.210
 5528POPC   GL170057  13.591   0.477   5.617
 5528POPC   GL270058  13.684   0.208   5.879
 5528POPC   C1A70059  13.522   0.653   6.055
 5528POPC   D2A70060  13.406   0.587   6.508
 5528POPC   C3A70061  13.455   0.637   6.953
 5528POPC   C4A70062  13.482   0.316   7.250
 5528POPC   C1B70063  13.764   0.241   6.326
 5528POPC   C2B70064  13.861   0.080   6.750
 5528POPC   C3B70065  13.851  44.955   7.167
 5528POPC   C4B70066  13.842   0.013   7.641
 5529POPC   NC370067  11.000  40.190   5.390
 5529POPC   PO470068  11.433  39.878   5.187
 5529POPC   GL170069  11.213  39.806   5.651
 5529POPC   GL270070  11.199  40.111   5.864
 5529POPC   C1A70071  11.283  39.738   6.176
 5529POPC   D2A70072  11.237  39.949   6.622
 5529POPC   C3A70073  11.458  39.884   6.992
 5529POPC   C4A70074  11.709  39.689   7.298
 5529POPC   C1B70075  10.989  40.211   6.266
 5529POPC   C2B70076  10.965  40.355   6.719
 5529POPC   C3B70077  11.021  40.147   7.139
 5529POPC   C4B70078  10.972  40.263   7.615
 5530POPC   NC370079  44.385   5.792   5.342
 5530POPC   PO470080  43.704   5.680   5.341
 5530POPC   GL170081  43.727   5.896   5.779
 5530POPC   GL270082  44.024   6.123   5.742
 5530POPC   C1A70083  43.912   5.828   6.224
 5530POPC   D2A70084  44.053   5.800   6.681
 5530POPC   C3A70085  43.752   5.667   7.042
 5530POPC   C4A70086  43.705   5.577   7.532
 5530POPC   C1B70087  44.120   6.306   6.157
 5530POPC   C2B70088  44.290   6.275   6.583
 5530POPC   C3B70089  44.119   6.211   7.000
 5530POPC   C4B70090  43.877   6.057   7.377
 5531POPC   NC370091  15.796  12.006   5.385
 5531POPC   PO470092  15.260  12.412   5.664
 5531POPC   GL170093  15.717  12.249   5.839
 5531POPC   GL270094  16.051  12.398   5.753
 5531POPC   C1A70095  15.944  12.079   6.214
 5531POPC   D2A70096  15.862  11.802   6.570
 5531POPC   C3A70097  15.932  11.952   7.005
 5531POPC   C4A70098  15.795  12.054   7.420
 5531POPC   C1B70099  16.162  12.549   6.201
 5531POPC   C2B70100  16.429  12.396   6.552
 5531POPC   C3B70101  16.502  12.477   6.987
 5531POPC   C4B70102  16.125  12.444   7.234
 5532POPC   NC370103  43.158   7.017   5.458
 5532POPC   PO470104  43.337   7.733   5.531
 5532POPC   GL170105  43.173   7.403   5.822
 5532POPC   GL270106  43.337   7.060   5.940
 5532POPC   C1A70107  43.196   7.449   6.275
 5532POPC   D2A70108  43.071   7.645   6.672
 5532POPC   C3A70109  43.344   7.626   7.022
 5532POPC   C4A70110  43.347   7.289   7.264
 5532POPC   C1B70111  42.922   7.044   6.136
 5532POPC   C2B70112  42.791   7.229   6.525
 5532POPC   C3B70113  42.973   7.172   6.935
 5532POPC   C4B70114  43.025   6.892   7.324
 5533POPC   NC370115  42.531  23.421   5.521
 5533POPC   PO470116  43.178  23.646   5.382
 5533POPC   GL170117  43.265  23.673   5.814
 5533POPC   GL270118  42.930  23.568   5.846
 5533POPC   C1A70119  43.241  23.793   6.244
 5533POPC   D2A70120  43.259  24.116   6.571
 5533POPC   C3A70121  43.327  23.853   6.920
 5533POPC   C4A70122  43.229  23.780   7.310
 5533POPC   C1B70123  42.901  23.366   6.236
 5533POPC   C2B70124  43.116  23.393   6.635
 5533POPC   C3B70125  42.916  23.493   7.023
 5533POPC   C4B70126  42.873  23.453   7.485
 5534POPC   NC370127  25.108  20.342   5.314
 5534POPC   PO470128  25.516  20.809   5.628
 5534POPC   GL170129  25.394  20.419   5.786
 5534POPC   GL270130  25.069  20.543   5.816
 5534POPC   C1A70131  25.354  20.338   6.225
 5534POPC   D2A70132  25.461  20.665   6.536
 5534POPC   C3A70133  25.446  20.538   6.967
 5534POPC   C4A70134  25.346  20.203   7.225
 5534POPC   C1B70135  24.913  20.610   6.233
 5534POPC   C2B70136  25.008  20.440   6.648
 5534POPC   C3B70137  24.902  20.632   7.045
 5534POPC   C4B70138  25.135  20.672   7.417
 5535POPC   NC370139  32.172   3.846   5.617
 5535POPC   PO470140  32.308   3.308   5.225
 5535POPC   GL170141  32.440   3.304   5.687
 5535POPC   GL270142  32.600   3.623   5.806
 5535POPC   C1A70143  32.261   3.405   6.120
 5535POPC   D2A70144  32.236   3.576   6.531
 5535POPC   C3A70145  32.074   3.344   6.847
 5535POPC   C4A70146  31.948   3.496   7.221
 5535POPC   C1B70147  32.548   3.865   6.238
 5535POPC   C2B70148  32.612   3.859   6.758
 5535POPC   C3B70149  32.515   3.951   7.231
 5535POPC   C4B70150  32.612   3.749   7.647
 5536POPC   NC370151   2.190   7.681   5.102
 5536POPC   PO470152   1.705   7.411   5.489
 5536POPC   GL170153   1.752   7.395   5.910
 5536POPC   GL270154   1.625   7.069   5.893
 5536POPC   C1A70155   2.021   7.553   6.252
 5536POPC   D2A70156   2.154   7.792   6.626
 5536POPC   C3A70157   1.922   7.571   6.953
 5536POPC   C4A70158   2.016   7.304   7.312
 5536POPC   C1B70159   1.770   7.092   6.329
 5536POPC   C2B70160   1.781   7.105   6.781
 5536POPC   C3B70161   1.681   6.899   7.148
 5536POPC   C4B70162   1.644   6.977   7.581
 5537POPC   NC370163  25.341  30.807   5.284
 5537POPC   PO470164  25.452  30.213   5.486
 5537POPC   GL170165  25.398  30.325   5.896
 5537POPC   GL270166  25.189  30.638   5.801
 5537POPC   C1A70167  25.226  30.473   6.296
 5537POPC   D2A70168  25.093  30.679   6.681
 5537POPC   C3A70169  25.263  30.518   7.075
 5537POPC   C4A70170  25.449  30.425   7.479
 5537POPC   C1B70171  24.962  30.894   6.122
 5537POPC   C2B70172  24.809  31.062   6.531
 5537POPC   C3B70173  24.938  31.207   6.910
 5537POPC   C4B70174  24.962  30.927   7.223
 5538POPC   NC370175   7.104  10.030   5.438
 5538POPC   PO470176   7.009   9.431   5.724
 5538POPC   GL170177   7.001   9.793   5.935
 5538POPC   GL270178   6.647   9.905   5.859
 5538POPC   C1A70179   7.064   9.844   6.381
 5538POPC   D2A70180   6.757   9.918   6.690
 5538POPC   C3A70181   6.792   9.724   7.074
 5538POPC   C4A70182   6.758   9.950   7.459
 5538POPC   C1B70183   6.487   9.733   6.267
 5538POPC   C2B70184   6.253   9.775   6.683
 5538POPC   C3B70185   6.298   9.903   7.116
 5538POPC   C4B70186   6.402   9.610   7.433
 5539POPC   NC370187  19.439   7.369   5.532
 5539POPC   PO470188  20.069   7.462   5.465
 5539POPC   GL170189  19.863   7.310   5.845
 5539POPC   GL270190  19.695   7.634   5.903
 5539POPC   C1A70191  19.881   7.235   6.311
 5539POPC   D2A70192  19.970   7.600   6.586
 5539POPC   C3A70193  19.862   7.586   7.038
 5539POPC   C4A70194  19.763   7.192   7.230
 5539POPC   C1B70195  19.464   7.510   6.283
 5539POPC   C2B70196  19.504   7.365   6.705
 5539POPC   C3B70197  19.322   7.543   7.075
 5539POPC   C4B70198  19.486   7.616   7.472
 5540POPC   NC370199  19.807  15.420   5.220
 5540POPC   PO470200  19.892  16.030   5.558
 5540POPC   GL170201  19.846  16.213   5.941
 5540POPC   GL270202  19.746  15.915   6.086
 5540POPC   C1A70203  19.942  16.229   6.409
 5540POPC   D2A70204  19.958  15.850   6.678
 5540POPC   C3A70205  20.016  15.933   7.105
 5540POPC   C4A70206  20.151  15.958   7.531
 5540POPC   C1B70207  19.436  15.637   6.238
 5540POPC   C2B70208  19.558  15.503   6.623
 5540POPC   C3B70209  19.552  15.663   7.022
 5540POPC   C4B70210  19.781  15.521   7.351
 5541POPC   NC370211  16.443  15.126   5.735
 5541POPC   PO470212  16.963  15.581   5.513
 5541POPC   GL170213  16.992  15.454   5.940
 5541POPC   GL270214  16.890  15.116   6.029
 5541POPC   C1A70215  16.735  15.550   6.296
 5541POPC   D2A70216  16.739  15.494   6.728
 5541POPC   C3A70217  16.924  15.130   6.890
 5541POPC   C4A70218  16.979  14.953   7.274
 5541POPC   C1B70219  16.596  14.944   6.362
 5541POPC   C2B70220  16.425  15.051   6.762
 5541POPC   C3B70221  16.474  15.155   7.168
 5541POPC   C4B70222  16.495  14.791   7.439
 5542POPC   NC370223  30.999  30.063   5.374
 5542POPC   PO470224  30.551  29.562   5.387
 5542POPC   GL170225  30.672  29.812   5.794
 5542POPC   GL270226  30.910  30.106   5.854
 5542POPC   C1A70227  30.640  29.956   6.247
 5542POPC   D2A70228  30.571  30.099   6.652
 5542POPC   C3A70229  30.794  29.867   6.940
 5542POPC   C4A70230  30.577  29.781   7.290
 5542POPC   C1B70231  31.129  30.187   6.234
 5542POPC   C2B70232  31.048  30.285   6.675
 5542POPC   C3B70233  31.052  30.278   7.115
 5542POPC   C4B70234  31.100  29.916   7.371
 5543POPC   NC370235  31.301  33.629   5.526
 5543POPC   PO470236  31.789  34.084   5.295
 5543POPC   GL170237  31.669  33.916   5.715
 5543POPC   GL270238  31.361  34.132   5.698
 5543POPC   C1A70239  31.756  33.692   6.172
 5543POPC   D2A70240  31.626  33.508   6.625
 5543POPC   C3A70241  31.690  33.621   7.095
 5543POPC   C4A70242  31.412  33.611   7.475
 5543POPC   C1B70243  31.389  34.062   6.149
 5543POPC   C2B70244  31.250  34.072   6.583
 5543POPC   C3B70245  31.293  33.925   7.043
 5543POPC   C4B70246  31.130  34.041   7.450
 5544POPC   NC370247  29.431   7.109   5.524
 5544POPC   PO470248  29.182   6.535   5.298
 5544POPC   GL170249  29.176   6.720   5.726
 5544POPC   GL270250  28.989   7.018   5.825
 5544POPC   C1A70251  29.271   6.707   6.169
 5544POPC   D2A70252  29.332   6.376   6.481
 5544POPC   C3A70253  29.222   6.468   6.897
 5544POPC   C4A70254  29.059   6.385   7.292
 5544POPC   C1B70255  28.929   7.104   6.243
 5544POPC   C2B70256  29.067   6.902   6.640
 5544POPC   C3B70257  28.978   6.880   7.096
 5544POPC   C4B70258  28.751   7.063   7.420
 5545POPC   NC370259  26.022  19.958   5.331
 5545POPC   PO470260  26.145  19.333   5.222
 5545POPC   GL170261  26.176  19.630   5.689
 5545POPC   GL270262  26.367  19.953   5.764
 5545POPC   C1A70263  25.962  19.926   6.092
 5545POPC   D2A70264  26.126  20.134   6.498
 5545POPC   C3A70265  25.970  19.967   6.909
 5545POPC   C4A70266  25.802  19.903   7.323
 5545POPC   C1B70267  26.419  19.770   6.208
 5545POPC   C2B70268  26.404  19.690   6.683
 5545POPC   C3B70269  26.427  19.875   7.123
 5545POPC   C4B70270  26.399  20.059   7.567
 5546POPC   NC370271  44.702  38.752   5.409
 5546POPC   PO470272  44.469  38.099   5.504
 5546POPC   GL170273  44.550  38.455   5.824
 5546POPC   GL270274  44.864  38.680   5.894
 5546POPC   C1A70275  44.319  38.494   6.211
 5546POPC   D2A70276  44.153  38.339   6.618
 5546POPC   C3A70277  44.419  38.476   6.949
 5546POPC   C4A70278  44.437  38.792   7.232
 5546POPC   C1B70279  44.820  38.594   6.333
 5546POPC   C2B70280  44.799  38.755   6.745
 5546POPC   C3B70281  44.924  38.657   7.159
 5546POPC   C4B70282   0.172  38.303   7.226
 5547POPC   NC370283   1.584  36.101   5.482
 5547POPC   PO470284   2.317  36.146   5.433
 5547POPC   GL170285   2.118  36.017   5.822
 5547POPC   GL270286   1.901  35.737   5.808
 5547POPC   C1A70287   2.047  36.156   6.248
 5547POPC   D2A70288   2.019  36.403   6.607
 5547POPC   C3A70289   2.220  36.242   7.000
 5547POPC   C4A70290   2.094  36.393   7.433
 5547POPC   C1B70291   1.676  35.807   6.199
 5547POPC   C2B70292   1.696  36.008   6.625
 5547POPC   C3B70293   1.824  35.922   7.062
 5547POPC   C4B70294   1.526  35.760   7.348
 5548POPC   NC370295  11.604  36.812   5.511
 5548POPC   PO470296  11.030  37.117   5.380
 5548POPC   GL170297  11.219  37.034   5.795
 5548POPC   GL270298  11.245  36.688   5.843
 5548POPC   C1A70299  11.272  37.230   6.220
 5548POPC   D2A70300  11.475  37.185   6.619
 5548POPC   C3A70301  11.167  37.112   6.971
 5548POPC   C4A70302  11.219  37.059   7.436
 5548POPC   C1B70303  11.442  36.746   6.256
 5548POPC   C2B70304  11.292  36.667   6.679
 5548POPC   C3B70305  11.364  36.656   7.131
 5548POPC   C4B70306  11.086  36.593   7.542
 5549POPC   NC370307  42.648   0.225   5.377
 5549POPC   PO470308  43.328   0.374   5.296
 5549POPC   GL170309  43.060   0.509   5.651
 5549POPC   GL270310  42.960   0.188   5.818
 5549POPC   C1A70311  42.965   0.633   6.105
 5549POPC   D2A70312  42.992   0.330   6.486
 5549POPC   C3A70313  42.871   0.434   6.924
 5549POPC   C4A70314  42.817   0.764   7.227
 5549POPC   C1B70315  43.343   0.280   6.097
 5549POPC   C2B70316  43.496   0.168   6.519
 5549POPC   C3B70317  43.305   0.123   6.909
 5549POPC   C4B70318  43.337   0.434   7.170
 5550POPC   NC370319  14.416  19.542   5.548
 5550POPC   PO470320  14.672  20.138   5.715
 5550POPC   GL170321  14.328  19.864   5.938
 5550POPC   GL270322  14.048  19.557   5.904
 5550POPC   C1A70323  14.259  19.938   6.364
 5550POPC   D2A70324  14.573  20.061   6.672
 5550POPC   C3A70325  14.421  19.941   7.062
 5550POPC   C4A70326  14.032  19.925   7.231
 5550POPC   C1B70327  14.298  19.442   6.273
 5550POPC   C2B70328  14.388  19.551   6.720
 5550POPC   C3B70329  14.431  19.456   7.168
 5550POPC   C4B70330  14.112  19.455   7.471
 5551POPC   NC370331   4.388  30.339   5.139
 5551POPC   PO470332   4.018  29.843   5.421
 5551POPC   GL170333   4.046  29.709   5.829
 5551POPC   GL270334   4.408  29.775   5.849
 5551POPC   C1A70335   4.097  29.791   6.272
 5551POPC   D2A70336   4.296  29.770   6.667
 5551POPC   C3A70337   4.348  30.154   6.884
 5551POPC   C4A70338   4.316  30.235   7.286
 5551POPC   C1B70339   4.607  29.957   6.210
 5551POPC   C2B70340   4.812  29.846   6.578
 5551POPC   C3B70341   4.745  29.860   6.999
 5551POPC   C4B70342   4.668  29.909   7.412
 5552POPC   NC370343   4.232   6.611   5.279
 5552POPC   PO470344   3.965   7.162   5.475
 5552POPC   GL170345   4.112   6.830   5.806
 5552POPC   GL270346   4.165   6.423   5.820
 5552POPC   C1A70347   4.226   6.741   6.261
 5552POPC   D2A70348   3.969   6.724   6.641
 5552POPC   C3A70349   4.217   6.777   7.014
 5552POPC   C4A70350   3.935   6.817   7.348
 5552POPC   C1B70351   4.395   6.252   6.195
 5552POPC   C2B70352   4.344   6.377   6.637
 5552POPC   C3B70353   4.498   6.315   7.037
 5552POPC   C4B70354   4.735   6.513   7.323
 5553POPC   NC370355   3.855  41.085   5.519
 5553POPC   PO470356   3.329  40.700   5.358
 5553POPC   GL170357   3.568  40.684   5.725
 5553POPC   GL270358   3.467  41.003   5.862
 5553POPC   C1A70359   3.616  40.558   6.132
 5553POPC   D2A70360   3.541  40.785   6.513
 5553POPC   C3A70361   3.640  40.630   6.931
 5553POPC   C4A70362   3.687  40.974   7.194
 5553POPC   C1B70363   3.153  40.784   6.129
 5553POPC   C2B70364   2.996  40.761   6.543
 5553POPC   C3B70365   3.201  40.893   6.914
 5553POPC   C4B70366   3.143  41.013   7.316
 5554POPC   NC370367  20.656  14.154   5.442
 5554POPC   PO470368  20.298  13.498   5.447
 5554POPC   GL170369  20.468  13.593   5.827
 5554POPC   GL270370  20.339  13.930   5.794
 5554POPC   C1A70371  20.421  13.364   6.216
 5554POPC   D2A70372  20.723  13.280   6.537
 5554POPC   C3A70373  20.728  13.544   6.911
 5554POPC   C4A70374  20.854  13.443   7.343
 5554POPC   C1B70375  20.407  13.974   6.206
 5554POPC   C2B70376  20.321  13.739   6.568
 5554POPC   C3B70377  20.304  13.855   6.976
 5554POPC   C4B70378  20.610  13.881   7.291
 5555POPC   NC370379  19.354   2.544   5.397
 5555POPC   PO470380  18.939   3.034   5.432
 5555POPC   GL170381  19.035   2.737   5.810
 5555POPC   GL270382  19.304   2.448   5.887
 5555POPC   C1A70383  19.082   2.706   6.265
 5555POPC   D2A70384  19.242   2.919   6.611
 5555POPC   C3A70385  19.085   2.860   7.049
 5555POPC   C4A70386  18.914   2.740   7.464
 5555POPC   C1B70387  19.353   2.278   6.317
 5555POPC   C2B70388  19.156   2.409   6.726
 5555POPC   C3B70389  19.141   2.358   7.199
 5555POPC   C4B70390  18.856   2.246   7.566
 5556POPC   NC370391  23.626  26.829   5.148
 5556POPC   PO470392  24.311  26.817   5.345
 5556POPC   GL170393  23.938  26.928   5.674
 5556POPC   GL270394  23.656  26.719   5.704
 5556POPC   C1A70395  23.721  27.040   6.106
 5556POPC   D2A70396  23.826  26.915   6.550
 5556POPC   C3A70397  23.598  27.040   6.909
 5556POPC   C4A70398  23.386  26.887   7.263
 5556POPC   C1B70399  23.742  26.541   6.130
 5556POPC   C2B70400  23.569  26.413   6.526
 5556POPC   C3B70401  23.627  26.508   6.939
 5556POPC   C4B70402  23.869  26.714   7.239
 5557POPC   NC370403   3.440  25.172   5.287
 5557POPC   PO470404   4.093  25.356   5.406
 5557POPC   GL170405   3.661  25.349   5.704
 5557POPC   GL270406   3.563  24.984   5.769
 5557POPC   C1A70407   3.451  25.322   6.151
 5557POPC   D2A70408   3.379  25.465   6.603
 5557POPC   C3A70409   3.748  25.471   6.907
 5557POPC   C4A70410   3.821  25.206   7.305
 5557POPC   C1B70411   3.746  24.894   6.203
 5557POPC   C2B70412   3.550  24.981   6.610
 5557POPC   C3B70413   3.379  25.146   7.016
 5557POPC   C4B70414   3.388  24.991   7.441
 5558POPC   NC370415  26.309  22.638   5.550
 5558POPC   PO470416  25.945  22.010   5.409
 5558POPC   GL170417  25.990  22.196   5.782
 5558POPC   GL270418  26.342  22.190   5.855
 5558POPC   C1A70419  25.826  22.020   6.149
 5558POPC   D2A70420  25.787  22.162   6.586
 5558POPC   C3A70421  25.992  22.255   6.983
 5558POPC   C4A70422  25.794  22.323   7.381
 5558POPC   C1B70423  26.250  22.210   6.331
 5558POPC   C2B70424  26.222  21.884   6.700
 5558POPC   C3B70425  26.204  21.841   7.172
 5558POPC   C4B70426  26.174  22.039   7.616
 5559POPC   NC370427  18.051  21.023   5.428
 5559POPC   PO470428  17.564  21.455   5.328
 5559POPC   GL170429  17.433  21.347   5.716
 5559POPC   GL270430  17.784  21.296   5.778
 5559POPC   C1A70431  17.453  21.428   6.148
 5559POPC   D2A70432  17.446  21.255   6.548
 5559POPC   C3A70433  17.281  21.367   6.943
 5559POPC   C4A70434  17.434  21.413   7.361
 5559POPC   C1B70435  17.852  21.119   6.163
 5559POPC   C2B70436  17.890  21.041   6.599
 5559POPC   C3B70437  17.800  21.287   6.961
 5559POPC   C4B70438  17.953  21.306   7.377
 5560POPC   NC370439   7.129  17.188   5.674
 5560POPC   PO470440   7.446  17.693   5.260
 5560POPC   GL170441   7.460  17.587   5.713
 5560POPC   GL270442   7.645  17.254   5.707
 5560POPC   C1A70443   7.244  17.619   6.160
 5560POPC   D2A70444   7.495  17.686   6.522
 5560POPC   C3A70445   7.414  17.517   6.949
 5560POPC   C4A70446   7.672  17.607   7.274
 5560POPC   C1B70447   7.654  17.318   6.157
 5560POPC   C2B70448   7.843  17.310   6.562
 5560POPC   C3B70449   7.752  17.126   6.943
 5560POPC   C4B70450   7.971  17.008   7.290
 5561POPC   NC370451  18.973  13.286   5.454
 5561POPC   PO470452  19.482  13.819   5.434
 5561POPC   GL170453  19.148  13.702   5.734
 5561POPC   GL270454  18.911  13.973   5.834
 5561POPC   C1A70455  19.012  13.591   6.167
 5561POPC   D2A70456  19.144  13.390   6.561
 5561POPC   C3A70457  19.346  13.603   6.896
 5561POPC   C4A70458  19.300  13.357   7.252
 5561POPC   C1B70459  18.838  14.067   6.306
 5561POPC   C2B70460  18.746  13.734   6.635
 5561POPC   C3B70461  18.866  13.636   7.081
 5561POPC   C4B70462  18.752  13.965   7.375
 5562POPC   NC370463  30.768   1.387   5.487
 5562POPC   PO470464  30.484   0.833   5.437
 5562POPC   GL170465  30.635   1.038   5.823
 5562POPC   GL270466  30.948   0.963   5.975
 5562POPC   C1A70467  30.615   1.277   6.203
 5562POPC   D2A70468  30.333   1.158   6.517
 5562POPC   C3A70469  30.438   1.240   6.951
 5562POPC   C4A70470  30.748   1.033   7.202
 5562POPC   C1B70471  31.126   1.351   6.087
 5562POPC   C2B70472  31.048   1.432   6.471
 5562POPC   C3B70473  31.014   1.258   6.844
 5562POPC   C4B70474  31.047   1.452   7.224
 5563POPC   NC370475   8.786   1.463   5.545
 5563POPC   PO470476   9.133   0.903   5.585
 5563POPC   GL170477   9.240   1.235   5.880
 5563POPC   GL270478   9.081   1.576   5.950
 5563POPC   C1A70479   9.142   1.227   6.338
 5563POPC   D2A70480   8.948   0.998   6.704
 5563POPC   C3A70481   8.977   1.166   7.132
 5563POPC   C4A70482   9.326   1.278   7.416
 5563POPC   C1B70483   8.832   1.657   6.324
 5563POPC   C2B70484   8.916   1.536   6.740
 5563POPC   C3B70485   8.718   1.601   7.142
 5563POPC   C4B70486   8.805   1.439   7.549
 5564POPC   NC370487  22.908  21.152   5.573
 5564POPC   PO470488  22.662  21.805   5.463
 5564POPC   GL170489  22.900  21.696   5.850
 5564POPC   GL270490  22.777  21.406   5.978
 5564POPC   C1A70491  23.038  21.638   6.317
 5564POPC   D2A70492  23.309  21.851   6.594
 5564POPC   C3A70493  23.213  21.658   6.968
 5564POPC   C4A70494  23.045  21.479   7.342
 5564POPC   C1B70495  22.829  21.109   6.251
 5564POPC   C2B70496  22.702  21.215   6.610
 5564POPC   C3B70497  22.863  21.211   6.962
 5564POPC   C4B70498  22.724  21.052   7.338
 5565POPC   NC370499  44.978  44.181   5.622
 5565POPC   PO470500  44.338  44.008   5.474
 5565POPC   GL170501  44.558  44.021   5.897
 5565POPC   GL270502  44.875  43.799   5.963
 5565POPC   C1A70503  44.410  43.777   6.272
 5565POPC   D2A70504  44.166  43.766   6.661
 5565POPC   C3A70505  44.347  43.772   7.077
 5565POPC   C4A70506  44.516  43.420   7.324
 5565POPC   C1B70507  44.838  44.049   6.327
 5565POPC   C2B70508  44.684  43.905   6.703
 5565POPC   C3B70509  44.867  43.752   7.081
 5565POPC   C4B70510  44.769  44.092   7.360
 5566POPC   NC370511  36.477  27.178   5.093
 5566POPC   PO470512  36.190  26.727   5.504
 5566POPC   GL170513  36.159  26.899   5.915
 5566POPC   GL270514  36.497  26.770   6.042
 5566POPC   C1A70515  36.087  26.797   6.349
 5566POPC   D2A70516  35.791  26.587   6.611
 5566POPC   C3A70517  35.910  26.678   7.037
 5566POPC   C4A70518  35.993  27.041   7.260
 5566POPC   C1B70519  36.430  27.173   6.283
 5566POPC   C2B70520  36.516  27.296   6.754
 5566POPC   C3B70521  36.531  26.963   7.093
 5566POPC   C4B70522  36.424  26.548   7.292
 5567POPC   NC370523  16.431  36.663   5.333
 5567POPC   PO470524  16.983  37.013   5.581
 5567POPC   GL170525  16.811  36.893   5.916
 5567POPC   GL270526  16.476  36.853   5.804
 5567POPC   C1A70527  16.823  36.787   6.319
 5567POPC   D2A70528  16.528  36.825   6.631
 5567POPC   C3A70529  16.795  36.976   6.914
 5567POPC   C4A70530  17.025  36.691   7.166
 5567POPC   C1B70531  16.387  37.050   6.194
 5567POPC   C2B70532  16.383  37.305   6.556
 5567POPC   C3B70533  16.309  37.140   6.962
 5567POPC   C4B70534  16.483  36.934   7.294
 5568POPC   NC370535   3.686  37.777   5.403
 5568POPC   PO470536   3.173  37.331   5.414
 5568POPC   GL170537   3.425  37.480   5.758
 5568POPC   GL270538   3.388  37.824   5.880
 5568POPC   C1A70539   3.496  37.435   6.196
 5568POPC   D2A70540   3.557  37.345   6.628
 5568POPC   C3A70541   3.455  37.679   6.932
 5568POPC   C4A70542   3.454  37.807   7.369
 5568POPC   C1B70543   3.420  37.914   6.347
 5568POPC   C2B70544   3.387  38.223   6.692
 5568POPC   C3B70545   3.615  38.186   7.089
 5568POPC   C4B70546   3.878  38.102   7.469
 5569POPC   NC370547  40.528  31.026   5.516
 5569POPC   PO470548  41.109  30.607   5.511
 5569POPC   GL170549  40.956  30.870   5.840
 5569POPC   GL270550  40.601  30.716   5.925
 5569POPC   C1A70551  40.928  30.815   6.292
 5569POPC   D2A70552  40.582  30.699   6.518
 5569POPC   C3A70553  40.674  30.836   6.914
 5569POPC   C4A70554  41.063  30.832   7.158
 5569POPC   C1B70555  40.508  31.119   6.187
 5569POPC   C2B70556  40.517  31.383   6.578
 5569POPC   C3B70557  40.408  31.305   7.012
 5569POPC   C4B70558  40.661  31.124   7.337
 5570POPC   NC370559  27.418  11.574   5.505
 5570POPC   PO470560  27.913  11.028   5.439
 5570POPC   GL170561  27.771  11.275   5.776
 5570POPC   GL270562  27.447  11.157   5.851
 5570POPC   C1A70563  27.754  11.385   6.239
 5570POPC   D2A70564  27.616  11.107   6.580
 5570POPC   C3A70565  27.717  11.161   7.008
 5570POPC   C4A70566  27.917  11.523   7.196
 5570POPC   C1B70567  27.235  11.298   6.251
 5570POPC   C2B70568  27.125  11.143   6.691
 5570POPC   C3B70569  27.241  11.262   7.118
 5570POPC   C4B70570  27.159  11.114   7.562
 5571POPC   NC370571  17.361   8.393   5.150
 5571POPC   PO470572  17.840   7.999   5.302
 5571POPC   GL170573  17.855   8.117   5.725
 5571POPC   GL270574  18.081   7.908   5.812
 5571POPC   C1A70575  17.637   8.269   6.114
 5571POPC   D2A70576  17.796   8.401   6.525
 5571POPC   C3A70577  17.581   8.367   6.915
 5571POPC   C4A70578  17.686   8.241   7.321
 5571POPC   C1B70579  17.832   7.808   6.172
 5571POPC   C2B70580  17.639   7.862   6.566
 5571POPC   C3B70581  17.725   7.868   6.987
 5571POPC   C4B70582  17.790   7.761   7.435
 5572POPC   NC370583  44.419  36.900   5.589
 5572POPC   PO470584  43.946  37.252   5.415
 5572POPC   GL170585  43.930  36.906   5.777
 5572POPC   GL270586  44.199  36.675   5.982
 5572POPC   C1A70587  43.717  36.787   6.195
 5572POPC   D2A70588  43.914  36.737   6.614
 5572POPC   C3A70589  43.707  36.896   6.977
 5572POPC   C4A70590  43.590  36.833   7.402
 5572POPC   C1B70591  44.143  37.070   6.217
 5572POPC   C2B70592  44.087  37.248   6.584
 5572POPC   C3B70593  44.166  37.094   6.955
 5572POPC   C4B70594  43.960  37.213   7.317
 5573POPC   NC370595  38.944   1.313   5.358
 5573POPC   PO470596  39.307   0.822   5.541
 5573POPC   GL170597  39.277   1.022   5.927
 5573POPC   GL270598  39.185   1.326   5.817
 5573POPC   C1A70599  39.379   1.035   6.379
 5573POPC   D2A70600  39.707   1.153   6.673
 5573POPC   C3A70601  39.548   1.012   7.055
 5573POPC   C4A70602  39.081   0.902   7.067
 5573POPC   C1B70603  39.448   1.482   6.168
 5573POPC   C2B70604  39.351   1.526   6.609
 5573POPC   C3B70605  39.179   1.395   6.994
 5573POPC   C4B70606  39.308   1.305   7.393
 5574POPC   NC370607   5.935   6.740   5.379
 5574POPC   PO470608   5.402   6.392   5.681
 5574POPC   GL170609   5.684   6.525   5.965
 5574POPC   GL270610   5.843   6.840   5.882
 5574POPC   C1A70611   5.622   6.824   6.330
 5574POPC   D2A70612   5.788   7.000   6.701
 5574POPC   C3A70613   5.673   6.695   7.007
 5574POPC   C4A70614   5.512   6.649   7.401
 5574POPC   C1B70615   6.100   6.614   6.225
 5574POPC   C2B70616   6.080   6.541   6.681
 5574POPC   C3B70617   6.155   6.652   7.114
 5574POPC   C4B70618   5.959   6.431   7.476
 5575POPC   NC370619  17.832  14.404   5.587
 5575POPC   PO470620  17.213  14.063   5.387
 5575POPC   GL170621  17.374  14.191   5.813
 5575POPC   GL270622  17.699  14.065   5.943
 5575POPC   C1A70623  17.324  14.050   6.278
 5575POPC   D2A70624  17.293  14.158   6.714
 5575POPC   C3A70625  17.207  14.484   7.009
 5575POPC   C4A70626  17.264  14.153   7.291
 5575POPC   C1B70627  17.570  14.480   6.196
 5575POPC   C2B70628  17.689  14.521   6.610
 5575POPC   C3B70629  17.690  14.344   6.995
 5575POPC   C4B70630  17.787  14.570   7.338
 5576POPC   NC370631  22.254   0.741   5.404
 5576POPC   PO470632  22.286   0.114   5.451
 5576POPC   GL170633  22.216   0.365   5.820
 5576POPC   GL270634  21.933   0.633   5.768
 5576POPC   C1A70635  22.389   0.306   6.262
 5576POPC   D2A70636  22.323  44.996   6.619
 5576POPC   C3A70637  22.006   0.165   6.892
 5576POPC   C4A70638  22.059   0.411   7.207
 5576POPC   C1B70639  21.998   0.660   6.187
 5576POPC   C2B70640  21.895   0.582   6.591
 5576POPC   C3B70641  21.797   0.915   6.819
 5576POPC   C4B70642  21.845   0.888   7.247
 5577POPC   NC370643  17.583   5.335   5.599
 5577POPC   PO470644  17.280   4.645   5.490
 5577POPC   GL170645  17.415   4.908   5.841
 5577POPC   GL270646  17.774   4.885   5.864
 5577POPC   C1A70647  17.512   5.065   6.267
 5577POPC   D2A70648  17.321   5.167   6.658
 5577POPC   C3A70649  17.472   5.015   7.060
 5577POPC   C4A70650  17.393   5.385   7.283
 5577POPC   C1B70651  17.995   4.803   6.248
 5577POPC   C2B70652  17.815   4.780   6.663
 5577POPC   C3B70653  17.957   4.885   7.036
 5577POPC   C4B70654  17.888   5.338   7.130
 5578POPC   NC370655  35.788   8.952   5.355
 5578POPC   PO470656  35.076   9.140   5.331
 5578POPC   GL170657  35.408   9.083   5.676
 5578POPC   GL270658  35.492   8.765   5.779
 5578POPC   C1A70659  35.506   9.207   6.119
 5578POPC   D2A70660  35.309   9.150   6.555
 5578POPC   C3A70661  35.566   9.255   6.949
 5578POPC   C4A70662  35.542   9.256   7.415
 5578POPC   C1B70663  35.392   8.716   6.250
 5578POPC   C2B70664  35.407   8.619   6.710
 5578POPC   C3B70665  35.375   8.810   7.132
 5578POPC   C4B70666  35.101   8.673   7.467
 5579POPC   NC370667  11.337  12.515   5.408
 5579POPC   PO470668  11.011  11.883   5.199
 5579POPC   GL170669  11.170  12.036   5.668
 5579POPC   GL270670  11.078  12.358   5.816
 5579POPC   C1A70671  11.235  12.051   6.171
 5579POPC   D2A70672  11.115  12.077   6.632
 5579POPC   C3A70673  11.430  11.960   6.982
 5579POPC   C4A70674  11.600  11.615   7.279
 5579POPC   C1B70675  10.849  12.412   6.223
 5579POPC   C2B70676  10.938  12.542   6.663
 5579POPC   C3B70677  10.981  12.329   7.100
 5579POPC   C4B70678  10.916  12.283   7.583
 5580POPC   NC370679  40.762   9.089   5.454
 5580POPC   PO470680  40.561   8.445   5.437
 5580POPC   GL170681  40.624   8.739   5.768
 5580POPC   GL270682  40.890   8.557   5.847
 5580POPC   C1A70683  40.779   8.902   6.197
 5580POPC   D2A70684  40.794   9.227   6.507
 5580POPC   C3A70685  41.022   9.264   6.887
 5580POPC   C4A70686  40.827   9.132   7.244
 5580POPC   C1B70687  40.562   8.428   6.140
 5580POPC   C2B70688  40.711   8.472   6.546
 5580POPC   C3B70689  40.835   8.745   6.878
 5580POPC   C4B70690  40.674   8.657   7.293
 5581POPC   NC370691  40.089  16.369   5.371
 5581POPC   PO470692  39.622  15.895   5.413
 5581POPC   GL170693  39.908  15.781   5.794
 5581POPC   GL270694  40.073  16.082   5.816
 5581POPC   C1A70695  40.041  15.752   6.244
 5581POPC   D2A70696  39.939  15.917   6.656
 5581POPC   C3A70697  40.005  15.733   7.052
 5581POPC   C4A70698  40.326  15.827   7.337
 5581POPC   C1B70699  40.001  16.269   6.216
 5581POPC   C2B70700  40.121  16.418   6.599
 5581POPC   C3B70701  40.129  16.283   7.008
 5581POPC   C4B70702  39.998  16.187   7.418
 5582POPC   NC370703  37.473   8.636   5.496
 5582POPC   PO470704  37.638   9.373   5.545
 5582POPC   GL170705  37.799   9.148   5.923
 5582POPC   GL270706  37.800   8.768   5.877
 5582POPC   C1A70707  37.705   9.232   6.364
 5582POPC   D2A70708  37.263   9.153   6.505
 5582POPC   C3A70709  37.259   9.005   6.918
 5582POPC   C4A70710  37.601   9.042   7.223
 5582POPC   C1B70711  37.531   8.764   6.245
 5582POPC   C2B70712  37.665   8.789   6.687
 5582POPC   C3B70713  37.862   8.641   7.077
 5582POPC   C4B70714  37.629   8.575   7.438
 5583POPC   NC370715  39.571  28.699   5.334
 5583POPC   PO470716  39.975  29.306   5.430
 5583POPC   GL170717  40.008  29.216   5.870
 5583POPC   GL270718  40.045  28.883   5.748
 5583POPC   C1A70719  40.133  29.117   6.288
 5583POPC   D2A70720  40.400  29.208   6.648
 5583POPC   C3A70721  40.185  29.326   7.034
 5583POPC   C4A70722  39.827  29.033   7.099
 5583POPC   C1B70723  39.809  28.742   6.059
 5583POPC   C2B70724  39.770  28.740   6.498
 5583POPC   C3B70725  39.536  28.617   6.870
 5583POPC   C4B70726  39.502  28.669   7.321
 5584POPC   NC370727  30.982  20.619   5.410
 5584POPC   PO470728  30.521  21.066   5.510
 5584POPC   GL170729  30.654  20.771   5.887
 5584POPC   GL270730  30.717  20.430   5.810
 5584POPC   C1A70731  30.663  20.572   6.341
 5584POPC   D2A70732  30.418  20.569   6.740
 5584POPC   C3A70733  30.528  20.500   7.197
 5584POPC   C4A70734  30.482  20.307   7.617
 5584POPC   C1B70735  31.081  20.372   6.087
 5584POPC   C2B70736  31.052  20.227   6.509
 5584POPC   C3B70737  30.900  20.381   6.880
 5584POPC   C4B70738  31.089  20.686   7.162
 5585POPC   NC370739  22.468  32.608   5.649
 5585POPC   PO470740  22.164  33.117   5.281
 5585POPC   GL170741  22.262  33.184   5.788
 5585POPC   GL270742  22.547  33.000   6.001
 5585POPC   C1A70743  22.212  33.284   6.262
 5585POPC   D2A70744  22.237  33.025   6.626
 5585POPC   C3A70745  22.049  33.087   7.026
 5585POPC   C4A70746  22.025  32.799   7.400
 5585POPC   C1B70747  22.529  32.662   6.324
 5585POPC   C2B70748  22.536  32.641   6.764
 5585POPC   C3B70749  22.482  32.851   7.136
 5585POPC   C4B70750  22.540  32.872   7.580
 5586POPC   NC370751  31.030  14.616   5.392
 5586POPC   PO470752  30.658  14.052   5.431
 5586POPC   GL170753  30.628  14.366   5.772
 5586POPC   GL270754  30.366  14.632   5.666
 5586POPC   C1A70755  30.781  14.321   6.219
 5586POPC   D2A70756  30.628  14.143   6.652
 5586POPC   C3A70757  30.812  14.301   7.043
 5586POPC   C4A70758  31.001  14.442   7.443
 5586POPC   C1B70759  30.414  14.673   6.138
 5586POPC   C2B70760  30.636  14.653   6.563
 5586POPC   C3B70761  30.676  14.825   6.963
 5586POPC   C4B70762  30.871  14.913   7.328
 5587POPC   NC370763  32.605  34.308   5.437
 5587POPC   PO470764  33.152  34.570   5.203
 5587POPC   GL170765  33.036  34.447   5.667
 5587POPC   GL270766  33.291  34.237   5.834
 5587POPC   C1A70767  32.971  34.550   6.130
 5587POPC   D2A70768  32.872  34.708   6.562
 5587POPC   C3A70769  33.138  34.664   6.942
 5587POPC   C4A70770  33.199  34.936   7.295
 5587POPC   C1B70771  33.182  34.102   6.247
 5587POPC   C2B70772  33.003  34.184   6.637
 5587POPC   C3B70773  32.730  34.313   6.951
 5587POPC   C4B70774  32.820  34.495   7.356
 5588POPC   NC370775   9.105  36.510   5.436
 5588POPC   PO470776   9.095  35.906   5.391
 5588POPC   GL170777   8.988  36.117   5.819
 5588POPC   GL270778   9.279  36.297   5.911
 5588POPC   C1A70779   8.838  36.282   6.271
 5588POPC   D2A70780   8.612  36.260   6.704
 5588POPC   C3A70781   8.817  36.098   7.086
 5588POPC   C4A70782   9.124  36.225   7.402
 5588POPC   C1B70783   9.280  36.041   6.318
 5588POPC   C2B70784   9.267  36.091   6.800
 5588POPC   C3B70785   9.370  35.849   7.185
 5588POPC   C4B70786   9.172  35.692   7.567
 5589POPC   NC370787  29.749  26.913   5.589
 5589POPC   PO470788  30.122  26.592   5.122
 5589POPC   GL170789  30.073  26.551   5.669
 5589POPC   GL270790  29.797  26.673   5.995
 5589POPC   C1A70791  30.212  26.487   6.126
 5589POPC   D2A70792  29.952  26.643   6.498
 5589POPC   C3A70793  30.123  26.810   6.882
 5589POPC   C4A70794  30.034  26.826   7.335
 5589POPC   C1B70795  29.749  27.057   6.251
 5589POPC   C2B70796  29.647  27.166   6.689
 5589POPC   C3B70797  29.738  27.359   7.111
 5589POPC   C4B70798  29.652  27.436   7.574
 5590POPC   NC370799  16.907  37.459   5.510
 5590POPC   PO470800  16.340  37.766   5.418
 5590POPC   GL170801  16.567  37.754   5.795
 5590POPC   GL270802  16.493  37.386   5.822
 5590POPC   C1A70803  16.766  37.862   6.196
 5590POPC   D2A70804  17.022  37.989   6.549
 5590POPC   C3A70805  16.823  37.987   6.952
 5590POPC   C4A70806  16.579  37.902   7.333
 5590POPC   C1B70807  16.791  37.353   6.168
 5590POPC   C2B70808  16.895  37.466   6.572
 5590POPC   C3B70809  16.680  37.503   6.940
 5590POPC   C4B70810  16.706  37.402   7.320
 5591POPC   NC370811   2.351  35.581   5.474
 5591POPC   PO470812   1.690  35.370   5.507
 5591POPC   GL170813   1.891  35.207   5.879
 5591POPC   GL270814   2.234  35.323   5.936
 5591POPC   C1A70815   1.889  35.331   6.320
 5591POPC   D2A70816   1.959  35.150   6.708
 5591POPC   C3A70817   1.811  35.413   6.984
 5591POPC   C4A70818   1.574  35.278   7.291
 5591POPC   C1B70819   2.262  35.680   6.214
 5591POPC   C2B70820   2.173  35.811   6.656
 5591POPC   C3B70821   2.288  35.626   7.052
 5591POPC   C4B70822   2.288  35.204   7.162
 5592POPC   NC370823  36.453  40.163   4.988
 5592POPC   PO470824  36.390  39.613   5.466
 5592POPC   GL170825  36.197  39.888   5.805
 5592POPC   GL270826  35.888  40.082   5.716
 5592POPC   C1A70827  36.270  40.113   6.188
 5592POPC   D2A70828  36.453  39.958   6.561
 5592POPC   C3A70829  36.290  40.065   6.954
 5592POPC   C4A70830  36.278  40.307   7.319
 5592POPC   C1B70831  35.797  39.935   6.136
 5592POPC   C2B70832  35.821  40.053   6.566
 5592POPC   C3B70833  35.795  39.919   6.996
 5592POPC   C4B70834  35.990  39.861   7.371
 5593POPC   NC370835  15.145  35.042   5.495
 5593POPC   PO470836  15.309  35.718   5.336
 5593POPC   GL170837  15.209  35.674   5.735
 5593POPC   GL270838  15.451  35.423   5.763
 5593POPC   C1A70839  14.998  35.603   6.144
 5593POPC   D2A70840  15.065  35.334   6.522
 5593POPC   C3A70841  15.088  35.566   6.890
 5593POPC   C4A70842  15.120  35.401   7.283
 5593POPC   C1B70843  15.412  35.255   6.152
 5593POPC   C2B70844  15.571  35.181   6.558
 5593POPC   C3B70845  15.409  35.098   6.963
 5593POPC   C4B70846  15.592  35.227   7.338
 5594POPC   NC370847  27.254   5.416   5.432
 5594POPC   PO470848  27.617   4.845   5.498
 5594POPC   GL170849  27.489   4.813   5.891
 5594POPC   GL270850  27.444   5.165   5.884
 5594POPC   C1A70851  27.678   4.872   6.306
 5594POPC   D2A70852  27.879   5.131   6.640
 5594POPC   C3A70853  27.614   5.104   6.933
 5594POPC   C4A70854  27.612   5.149   7.299
 5594POPC   C1B70855  27.204   5.428   6.179
 5594POPC   C2B70856  26.980   5.291   6.541
 5594POPC   C3B70857  27.128   5.251   6.933
 5594POPC   C4B70858  27.181   5.403   7.330
 5595POPC   NC370859   8.796  38.997   5.392
 5595POPC   PO470860   9.193  39.412   5.613
 5595POPC   GL170861   8.872  39.285   5.831
 5595POPC   GL270862   8.968  38.958   5.904
 5595POPC   C1A70863   8.806  39.330   6.240
 5595POPC   D2A70864   8.913  39.109   6.603
 5595POPC   C3A70865   8.870  39.299   6.984
 5595POPC   C4A70866   8.583  39.186   7.304
 5595POPC   C1B70867   9.291  39.140   6.197
 5595POPC   C2B70868   9.425  39.101   6.619
 5595POPC   C3B70869   9.343  39.037   7.033
 5595POPC   C4B70870   9.063  39.019   7.378
 5596POPC   NC370871  33.878   4.606   5.549
 5596POPC   PO470872  33.475   4.020   5.619
 5596POPC   GL170873  33.903   4.093   5.892
 5596POPC   GL270874  34.077   4.435   5.978
 5596POPC   C1A70875  34.068   4.013   6.354
 5596POPC   D2A70876  34.065   3.986   6.830
 5596POPC   C3A70877  33.763   4.100   7.163
 5596POPC   C4A70878  34.057   4.217   7.502
 5596POPC   C1B70879  33.731   4.409   6.265
 5596POPC   C2B70880  33.729   4.344   6.695
 5596POPC   C3B70881  33.989   4.528   7.024
 5596POPC   C4B70882  33.736   4.684   7.333
 5597POPC   NC370883  21.862  37.454   5.447
 5597POPC   PO470884  22.227  37.964   5.451
 5597POPC   GL170885  22.170  37.673   5.821
 5597POPC   GL270886  21.830  37.567   5.935
 5597POPC   C1A70887  22.260  37.429   6.227
 5597POPC   D2A70888  22.496  37.362   6.626
 5597POPC   C3A70889  22.261  37.448   7.023
 5597POPC   C4A70890  22.172  37.880   7.232
 5597POPC   C1B70891  21.775  37.280   6.231
 5597POPC   C2B70892  21.956  37.263   6.622
 5597POPC   C3B70893  21.768  37.279   6.993
 5597POPC   C4B70894  21.814  37.512   7.306
 5598POPC   NC370895   3.803  12.686   5.455
 5598POPC   PO470896   3.232  13.029   5.543
 5598POPC   GL170897   3.543  12.930   5.812
 5598POPC   GL270898   3.666  13.248   5.866
 5598POPC   C1A70899   3.591  12.598   6.110
 5598POPC   D2A70900   3.685  12.500   6.512
 5598POPC   C3A70901   3.427  12.613   6.832
 5598POPC   C4A70902   3.566  12.819   7.162
 5598POPC   C1B70903   3.372  13.186   6.207
 5598POPC   C2B70904   3.167  12.938   6.505
 5598POPC   C3B70905   3.160  13.048   6.935
 5598POPC   C4B70906   3.235  13.162   7.356
 5599POPC   NC370907  32.505  24.634   5.533
 5599POPC   PO470908  31.922  24.327   5.430
 5599POPC   GL170909  32.208  24.285   5.797
 5599POPC   GL270910  32.218  24.620   5.936
 5599POPC   C1A70911  32.370  24.264   6.250
 5599POPC   D2A70912  32.285  24.295   6.678
 5599POPC   C3A70913  32.411  24.539   7.006
 5599POPC   C4A70914  32.573  24.195   7.230
 5599POPC   C1B70915  31.977  24.780   6.224
 5599POPC   C2B70916  31.919  24.653   6.647
 5599POPC   C3B70917  31.986  24.882   7.011
 5599POPC   C4B70918  31.869  24.770   7.422
 5600POPC   NC370919  21.854  36.696   5.455
 5600POPC   PO470920  22.328  37.250   5.547
 5600POPC   GL170921  22.182  36.993   5.857
 5600POPC   GL270922  22.211  36.605   5.857
 5600POPC   C1A70923  22.104  36.897   6.269
 5600POPC   D2A70924  22.315  36.882   6.625
 5600POPC   C3A70925  22.135  36.867   7.006
 5600POPC   C4A70926  22.020  37.059   7.381
 5600POPC   C1B70927  22.486  36.516   6.266
 5600POPC   C2B70928  22.536  36.415   6.728
 5600POPC   C3B70929  22.531  36.540   7.187
 5600POPC   C4B70930  22.694  36.400   7.600
 5601POPC   NC370931  28.964  40.938   5.373
 5601POPC   PO470932  29.389  40.475   5.412
 5601POPC   GL170933  29.096  40.622   5.772
 5601POPC   GL270934  28.894  40.926   5.874
 5601POPC   C1A70935  29.287  40.813   6.162
 5601POPC   D2A70936  29.320  40.939   6.568
 5601POPC   C3A70937  29.184  40.730   6.932
 5601POPC   C4A70938  29.364  40.983   7.228
 5601POPC   C1B70939  28.820  40.929   6.315
 5601POPC   C2B70940  28.846  41.101   6.725
 5601POPC   C3B70941  28.867  41.091   7.180
 5601POPC   C4B70942  29.015  41.168   7.593
 5602POPC   NC370943  24.279   6.942   5.597
 5602POPC   PO470944  24.740   7.347   5.590
 5602POPC   GL170945  24.389   7.420   5.853
 5602POPC   GL270946  24.515   7.152   6.014
 5602POPC   C1A70947  24.220   7.433   6.302
 5602POPC   D2A70948  24.109   7.170   6.673
 5602POPC   C3A70949  24.340   7.200   7.083
 5602POPC   C4A70950  24.175   7.434   7.471
 5602POPC   C1B70951  24.726   7.434   6.301
 5602POPC   C2B70952  24.521   7.591   6.680
 5602POPC   C3B70953  24.428   7.704   7.081
 5602POPC   C4B70954  24.679   7.479   7.386
 5603POPC   NC370955  13.142  36.622   5.415
 5603POPC   PO470956  13.778  36.838   5.307
 5603POPC   GL170957  13.771  36.777   5.750
 5603POPC   GL270958  13.447  36.856   5.811
 5603POPC   C1A70959  13.803  36.943   6.183
 5603POPC   D2A70960  13.597  36.934   6.569
 5603POPC   C3A70961  13.822  36.849   6.951
 5603POPC   C4A70962  13.707  37.192   7.149
 5603POPC   C1B70963  13.329  36.678   6.203
 5603POPC   C2B70964  13.048  36.812   6.522
 5603POPC   C3B70965  13.211  36.930   6.894
 5603POPC   C4B70966  13.360  36.568   7.044
 5604POPC   NC370967  29.384  21.549   5.432
 5604POPC   PO470968  29.362  20.903   5.413
 5604POPC   GL170969  29.399  21.160   5.822
 5604POPC   GL270970  29.168  21.482   5.877
 5604POPC   C1A70971  29.275  21.180   6.273
 5604POPC   D2A70972  28.910  21.277   6.522
 5604POPC   C3A70973  28.968  21.212   6.963
 5604POPC   C4A70974  28.796  20.970   7.284
 5604POPC   C1B70975  29.257  21.716   6.262
 5604POPC   C2B70976  29.262  21.914   6.657
 5604POPC   C3B70977  29.474  21.949   7.057
 5604POPC   C4B70978  29.421  21.572   7.259
 5605POPC   NC370979  43.832   7.755   5.471
 5605POPC   PO470980  43.621   7.116   5.508
 5605POPC   GL170981  43.668   7.473   5.880
 5605POPC   GL270982  44.011   7.641   5.951
 5605POPC   C1A70983  43.688   7.303   6.306
 5605POPC   D2A70984  43.452   7.257   6.690
 5605POPC   C3A70985  43.736   7.128   6.990
 5605POPC   C4A70986  43.874   7.266   7.384
 5605POPC   C1B70987  44.179   7.488   6.324
 5605POPC   C2B70988  44.111   7.193   6.653
 5605POPC   C3B70989  44.275   7.243   7.069
 5605POPC   C4B70990  44.494   7.628   7.144
 5606POPC   NC370991  27.370  36.673   5.252
 5606POPC   PO470992  26.983  37.059   5.563
 5606POPC   GL170993  26.791  36.724   5.819
 5606POPC   GL270994  26.440  36.761   5.858
 5606POPC   C1A70995  26.715  36.731   6.295
 5606POPC   D2A70996  26.812  37.106   6.536
 5606POPC   C3A70997  26.656  37.138   6.941
 5606POPC   C4A70998  26.786  36.916   7.304
 5606POPC   C1B70999  26.202  36.674   6.233
 5606POPC   C2B71000  26.281  36.744   6.678
 5606POPC   C3B71001  26.357  36.744   7.120
 5606POPC   C4B71002  26.587  36.436   7.395
 5607POPC   NC371003  20.017   9.760   5.361
 5607POPC   PO471004  19.451   9.903   5.693
 5607POPC   GL171005  19.791   9.793   5.954
 5607POPC   GL271006  20.157   9.838   5.839
 5607POPC   C1A71007  19.656   9.664   6.370
 5607POPC   D2A71008  19.541   9.411   6.730
 5607POPC   C3A71009  19.545   9.740   7.025
 5607POPC   C4A71010  19.681  10.047   7.324
 5607POPC   C1B71011  20.179   9.714   6.278
 5607POPC   C2B71012  20.056   9.546   6.685
 5607POPC   C3B71013  20.052   9.689   7.099
 5607POPC   C4B71014  20.184  10.074   7.279
 5608POPC   NC371015  42.596  33.775   5.486
 5608POPC   PO471016  42.200  34.263   5.295
 5608POPC   GL171017  42.039  33.943   5.638
 5608POPC   GL271018  42.217  33.659   5.823
 5608POPC   C1A71019  41.959  33.999   6.105
 5608POPC   D2A71020  42.141  33.820   6.511
 5608POPC   C3A71021  42.089  34.016   6.940
 5608POPC   C4A71022  42.026  33.776   7.328
 5608POPC   C1B71023  42.531  33.751   6.151
 5608POPC   C2B71024  42.685  33.777   6.568
 5608POPC   C3B71025  42.501  33.670   6.944
 5608POPC   C4B71026  42.639  33.859   7.302
 5609POPC   NC371027   8.418  25.519   5.566
 5609POPC   PO471028   7.965  25.107   5.411
 5609POPC   GL171029   8.017  25.025   5.859
 5609POPC   GL271030   8.360  24.941   5.998
 5609POPC   C1A71031   8.004  25.236   6.276
 5609POPC   D2A71032   8.053  25.042   6.671
 5609POPC   C3A71033   8.120  25.266   7.056
 5609POPC   C4A71034   8.159  25.026   7.396
 5609POPC   C1B71035   8.522  25.224   6.349
 5609POPC   C2B71036   8.573  25.264   6.807
 5609POPC   C3B71037   8.608  25.365   7.242
 5609POPC   C4B71038   8.637  25.121   7.641
 5610POPC   NC371039  18.164  26.481   5.473
 5610POPC   PO471040  18.558  27.025   5.253
 5610POPC   GL171041  18.470  26.942   5.758
 5610POPC   GL271042  18.179  26.783   5.878
 5610POPC   C1A71043  18.484  26.793   6.262
 5610POPC   D2A71044  18.224  26.883   6.605
 5610POPC   C3A71045  18.390  26.645   6.943
 5610POPC   C4A71046  18.406  26.746   7.359
 5610POPC   C1B71047  18.045  26.546   6.238
 5610POPC   C2B71048  17.972  26.419   6.689
 5610POPC   C3B71049  17.889  26.701   7.075
 5610POPC   C4B71050  17.926  26.655   7.535
 5611POPC   NC371051  27.677  38.933   5.217
 5611POPC   PO471052  27.601  38.304   5.385
 5611POPC   GL171053  27.501  38.446   5.794
 5611POPC   GL271054  27.720  38.729   5.838
 5611POPC   C1A71055  27.491  38.446   6.258
 5611POPC   D2A71056  27.666  38.218   6.616
 5611POPC   C3A71057  27.650  38.409   6.982
 5611POPC   C4A71058  27.348  38.297   7.230
 5611POPC   C1B71059  27.993  38.789   6.191
 5611POPC   C2B71060  27.792  38.750   6.591
 5611POPC   C3B71061  28.033  38.732   6.984
 5611POPC   C4B71062  27.869  38.683   7.370
 5612POPC   NC371063  28.559  21.940   5.388
 5612POPC   PO471064  28.603  22.561   5.325
 5612POPC   GL171065  28.682  22.370   5.768
 5612POPC   GL271066  28.583  22.030   5.878
 5612POPC   C1A71067  28.458  22.396   6.207
 5612POPC   D2A71068  28.219  22.453   6.612
 5612POPC   C3A71069  28.512  22.289   6.918
 5612POPC   C4A71070  28.605  22.205   7.352
 5612POPC   C1B71071  28.291  21.872   6.200
 5612POPC   C2B71072  28.252  21.934   6.637
 5612POPC   C3B71073  28.140  21.967   7.066
 5612POPC   C4B71074  28.181  21.959   7.528
 5613POPC   NC371075  32.656  14.177   5.427
 5613POPC   PO471076  33.279  14.471   5.534
 5613POPC   GL171077  32.984  14.290   5.814
 5613POPC   GL271078  32.736  14.501   5.898
 5613POPC   C1A71079  32.940  14.163   6.243
 5613POPC   D2A71080  33.066  14.384   6.601
 5613POPC   C3A71081  33.067  14.159   6.984
 5613POPC   C4A71082  33.175  14.232   7.401
 5613POPC   C1B71083  32.785  14.707   6.308
 5613POPC   C2B71084  32.846  14.855   6.710
 5613POPC   C3B71085  32.903  14.638   7.065
 5613POPC   C4B71086  32.684  14.360   7.245
 5614POPC   NC371087  23.246  31.981   5.618
 5614POPC   PO471088  22.762  32.351   5.254
 5614POPC   GL171089  22.790  32.202   5.685
 5614POPC   GL271090  23.049  32.439   5.796
 5614POPC   C1A71091  22.727  32.215   6.150
 5614POPC   D2A71092  22.910  32.316   6.559
 5614POPC   C3A71093  22.752  32.253   6.978
 5614POPC   C4A71094  22.859  32.550   7.307
 5614POPC   C1B71095  23.274  32.362   6.190
 5614POPC   C2B71096  23.334  32.590   6.594
 5614POPC   C3B71097  23.271  32.417   7.010
 5614POPC   C4B71098  23.087  32.099   7.297
 5615POPC   NC371099  33.311   7.657   5.643
 5615POPC   PO471100  32.866   7.019   5.595
 5615POPC   GL171101  33.160   7.123   5.955
 5615POPC   GL271102  33.001   7.459   5.999
 5615POPC   C1A71103  33.299   7.359   6.378
 5615POPC   D2A71104  33.006   7.621   6.658
 5615POPC   C3A71105  33.156   7.553   7.084
 5615POPC   C4A71106  33.443   7.623   7.420
 5615POPC   C1B71107  32.819   7.195   6.376
 5615POPC   C2B71108  32.889   7.159   6.852
 5615POPC   C3B71109  32.674   7.298   7.224
 5615POPC   C4B71110  32.625   7.286   7.686
 5616POPC   NC371111  44.690  24.123   5.503
 5616POPC   PO471112  44.739  24.767   5.405
 5616POPC   GL171113  44.721  24.546   5.795
 5616POPC   GL271114  44.377  24.632   5.841
 5616POPC   C1A71115  44.965  24.636   6.176
 5616POPC   D2A71116  44.946  24.450   6.580
 5616POPC   C3A71117  44.853  24.639   6.980
 5616POPC   C4A71118  44.891  24.402   7.398
 5616POPC   C1B71119  44.332  24.415   6.251
 5616POPC   C2B71120  44.420  24.462   6.691
 5616POPC   C3B71121  44.371  24.493   7.117
 5616POPC   C4B71122  44.252  24.233   7.444
 5617POPC   NC371123   2.783  14.135   5.388
 5617POPC   PO471124   2.773  13.447   5.462
 5617POPC   GL171125   2.770  13.666   5.855
 5617POPC   GL271126   2.960  13.983   5.834
 5617POPC   C1A71127   2.483  13.647   6.227
 5617POPC   D2A71128   2.559  13.750   6.659
 5617POPC   C3A71129   2.762  13.421   6.817
 5617POPC   C4A71130   2.778  13.265   7.193
 5617POPC   C1B71131   2.837  14.023   6.272
 5617POPC   C2B71132   3.050  13.917   6.629
 5617POPC   C3B71133   2.920  13.876   7.027
 5617POPC   C4B71134   3.134  13.894   7.410
 5618POPC   NC371135  31.291  43.578   5.477
 5618POPC   PO471136  31.221  42.851   5.500
 5618POPC   GL171137  31.413  42.937   5.907
 5618POPC   GL271138  31.752  42.932   5.884
 5618POPC   C1A71139  31.606  42.826   6.344
 5618POPC   D2A71140  31.645  43.154   6.637
 5618POPC   C3A71141  31.348  43.180   6.946
 5618POPC   C4A71142  31.292  42.930   7.344
 5618POPC   C1B71143  31.790  43.337   6.156
 5618POPC   C2B71144  31.936  43.566   6.544
 5618POPC   C3B71145  31.934  43.410   6.972
 5618POPC   C4B71146  31.793  43.030   7.162
 5619POPC   NC371147  28.798  18.822   5.046
 5619POPC   PO471148  29.266  19.234   5.257
 5619POPC   GL171149  29.232  19.056   5.655
 5619POPC   GL271150  28.955  18.816   5.701
 5619POPC   C1A71151  29.179  19.105   6.079
 5619POPC   D2A71152  29.202  18.881   6.445
 5619POPC   C3A71153  29.161  19.147   6.785
 5619POPC   C4A71154  29.452  19.063   7.076
 5619POPC   C1B71155  28.761  18.802   6.124
 5619POPC   C2B71156  28.698  18.977   6.559
 5619POPC   C3B71157  28.725  18.948   7.025
 5619POPC   C4B71158  28.763  18.830   7.456
 5620POPC   NC371159  25.677  34.049   5.377
 5620POPC   PO471160  26.250  33.687   5.445
 5620POPC   GL171161  25.997  33.838   5.774
 5620POPC   GL271162  25.681  33.665   5.740
 5620POPC   C1A71163  26.052  33.826   6.239
 5620POPC   D2A71164  26.158  34.114   6.581
 5620POPC   C3A71165  26.255  34.005   6.977
 5620POPC   C4A71166  26.045  33.657   7.167
 5620POPC   C1B71167  25.598  33.966   6.073
 5620POPC   C2B71168  25.477  33.984   6.503
 5620POPC   C3B71169  25.712  33.973   6.879
 5620POPC   C4B71170  25.624  34.045   7.287
 5621POPC   NC371171   0.683  15.609   5.394
 5621POPC   PO471172   0.175  15.141   5.477
 5621POPC   GL171173   0.280  15.383   5.832
 5621POPC   GL271174   0.614  15.254   5.794
 5621POPC   C1A71175   0.465  15.472   6.246
 5621POPC   D2A71176   0.468  15.332   6.653
 5621POPC   C3A71177   0.290  15.433   7.068
 5621POPC   C4A71178   0.219  15.087   7.383
 5621POPC   C1B71179   0.533  14.945   6.131
 5621POPC   C2B71180   0.655  14.874   6.579
 5621POPC   C3B71181   0.605  15.028   7.027
 5621POPC   C4B71182   0.859  15.310   7.261
 5622POPC   NC371183  11.409  30.235   5.483
 5622POPC   PO471184  10.995  29.690   5.524
 5622POPC   GL171185  11.324  29.843   5.807
 5622POPC   GL271186  11.132  30.106   5.919
 5622POPC   C1A71187  11.532  29.918   6.223
 5622POPC   D2A71188  11.402  30.034   6.644
 5622POPC   C3A71189  11.548  29.880   7.041
 5622POPC   C4A71190  11.418  30.201   7.340
 5622POPC   C1B71191  11.061  29.720   6.210
 5622POPC   C2B71192  10.960  29.823   6.597
 5622POPC   C3B71193  11.033  29.946   7.013
 5622POPC   C4B71194  11.129  29.610   7.271
 5623POPC   NC371195  12.371  42.343   5.549
 5623POPC   PO471196  11.752  42.686   5.422
 5623POPC   GL171197  11.924  42.489   5.790
 5623POPC   GL271198  12.197  42.730   5.804
 5623POPC   C1A71199  11.949  42.128   6.123
 5623POPC   D2A71200  12.047  41.842   6.485
 5623POPC   C3A71201  11.979  42.035   6.903
 5623POPC   C4A71202  11.959  42.182   7.342
 5623POPC   C1B71203  12.174  42.589   6.233
 5623POPC   C2B71204  12.271  42.306   6.535
 5623POPC   C3B71205  12.428  42.270   6.938
 5623POPC   C4B71206  12.363  42.563   7.225
 5624POPC   NC371207   7.006  40.829   5.479
 5624POPC   PO471208   6.328  40.935   5.574
 5624POPC   GL171209   6.459  40.810   5.930
 5624POPC   GL271210   6.779  40.628   5.900
 5624POPC   C1A71211   6.599  40.840   6.348
 5624POPC   D2A71212   6.673  40.491   6.622
 5624POPC   C3A71213   6.521  40.526   7.054
 5624POPC   C4A71214   6.520  40.886   7.325
 5624POPC   C1B71215   7.087  40.640   6.262
 5624POPC   C2B71216   7.193  40.598   6.712
 5624POPC   C3B71217   6.989  40.841   7.060
 5624POPC   C4B71218   6.968  41.051   7.489
 5625POPC   NC371219  39.640  21.734   5.570
 5625POPC   PO471220  39.896  22.290   5.237
 5625POPC   GL171221  40.007  22.327   5.759
 5625POPC   GL271222  39.887  21.996   5.947
 5625POPC   C1A71223  40.099  22.436   6.193
 5625POPC   D2A71224  40.315  22.201   6.520
 5625POPC   C3A71225  40.150  22.206   6.940
 5625POPC   C4A71226  39.791  22.400   7.140
 5625POPC   C1B71227  39.946  21.853   6.371
 5625POPC   C2B71228  39.735  22.034   6.713
 5625POPC   C3B71229  39.671  21.862   7.103
 5625POPC   C4B71230  39.780  22.006   7.511
 5626POPC   NC371231  21.663  30.752   5.358
 5626POPC   PO471232  21.080  31.094   5.326
 5626POPC   GL171233  21.272  30.806   5.680
 5626POPC   GL271234  21.634  30.924   5.826
 5626POPC   C1A71235  21.322  30.578   6.069
 5626POPC   D2A71236  21.254  30.623   6.505
 5626POPC   C3A71237  21.427  30.552   6.890
 5626POPC   C4A71238  21.227  30.693   7.296
 5626POPC   C1B71239  21.800  31.079   6.209
 5626POPC   C2B71240  21.644  30.950   6.600
 5626POPC   C3B71241  21.532  31.029   7.050
 5626POPC   C4B71242  21.696  31.088   7.509
 5627POPC   NC371243  32.949  31.794   5.444
 5627POPC   PO471244  33.354  31.235   5.428
 5627POPC   GL171245  33.051  31.321   5.807
 5627POPC   GL271246  32.937  31.657   5.941
 5627POPC   C1A71247  32.954  31.245   6.253
 5627POPC   D2A71248  33.078  31.439   6.651
 5627POPC   C3A71249  33.226  31.522   7.083
 5627POPC   C4A71250  33.147  31.346   7.513
 5627POPC   C1B71251  32.580  31.599   6.242
 5627POPC   C2B71252  32.579  31.331   6.598
 5627POPC   C3B71253  32.739  31.327   6.998
 5627POPC   C4B71254  32.750  31.628   7.317
 5628POPC   NC371255  22.873  25.400   5.460
 5628POPC   PO471256  23.006  24.775   5.459
 5628POPC   GL171257  22.741  24.938   5.757
 5628POPC   GL271258  22.997  25.159   5.887
 5628POPC   C1A71259  22.590  25.097   6.162
 5628POPC   D2A71260  22.723  25.076   6.578
 5628POPC   C3A71261  22.571  25.389   6.864
 5628POPC   C4A71262  22.801  25.285   7.220
 5628POPC   C1B71263  23.220  25.228   6.273
 5628POPC   C2B71264  23.226  25.093   6.721
 5628POPC   C3B71265  23.368  25.310   7.107
 5628POPC   C4B71266  23.463  25.079   7.522
 5629POPC   NC371267  43.693  33.452   5.296
 5629POPC   PO471268  44.219  33.037   5.414
 5629POPC   GL171269  44.057  32.982   5.836
 5629POPC   GL271270  43.748  33.193   5.890
 5629POPC   C1A71271  44.091  33.057   6.278
 5629POPC   D2A71272  43.911  32.866   6.649
 5629POPC   C3A71273  43.973  33.068   7.041
 5629POPC   C4A71274  44.028  33.512   7.158
 5629POPC   C1B71275  43.652  32.794   6.140
 5629POPC   C2B71276  43.484  32.627   6.548
 5629POPC   C3B71277  43.523  32.775   6.998
 5629POPC   C4B71278  43.680  32.869   7.445
 5630POPC   NC371279  13.098  44.222   5.578
 5630POPC   PO471280  12.879  44.840   5.500
 5630POPC   GL171281  12.795  44.712   5.877
 5630POPC   GL271282  12.675  44.357   5.900
 5630POPC   C1A71283  12.885  44.883   6.295
 5630POPC   D2A71284  12.636  44.931   6.681
 5630POPC   C3A71285  12.831  44.780   7.050
 5630POPC   C4A71286  12.680  44.709   7.470
 5630POPC   C1B71287  13.059  44.413   6.183
 5630POPC   C2B71288  13.167  44.572   6.590
 5630POPC   C3B71289  13.183  44.382   6.962
 5630POPC   C4B71290  12.922  44.313   7.252
 5631POPC   NC371291  41.929  20.774   5.433
 5631POPC   PO471292  42.520  20.662   5.128
 5631POPC   GL171293  42.540  20.644   5.622
 5631POPC   GL271294  42.699  20.325   5.726
 5631POPC   C1A71295  42.444  20.710   6.097
 5631POPC   D2A71296  42.561  20.848   6.544
 5631POPC   C3A71297  42.373  20.663   6.944
 5631POPC   C4A71298  42.398  20.812   7.374
 5631POPC   C1B71299  42.728  20.299   6.167
 5631POPC   C2B71300  42.528  20.316   6.554
 5631POPC   C3B71301  42.710  20.267   6.938
 5631POPC   C4B71302  42.687  20.385   7.348
 5632POPC   NC371303  19.673  40.022   5.259
 5632POPC   PO471304  18.984  39.836   5.349
 5632POPC   GL171305  19.138  39.879   5.782
 5632POPC   GL271306  18.783  39.948   5.829
 5632POPC   C1A71307  19.092  40.069   6.215
 5632POPC   D2A71308  19.051  39.897   6.618
 5632POPC   C3A71309  19.215  40.104   6.995
 5632POPC   C4A71310  19.141  39.981   7.410
 5632POPC   C1B71311  18.589  40.166   6.186
 5632POPC   C2B71312  18.600  40.155   6.624
 5632POPC   C3B71313  18.724  39.956   7.021
 5632POPC   C4B71314  18.794  40.318   7.264
 5633POPC   NC371315  29.414   5.433   5.496
 5633POPC   PO471316  28.701   5.391   5.574
 5633POPC   GL171317  29.063   5.227   5.818
 5633POPC   GL271318  29.222   4.864   5.849
 5633POPC   C1A71319  29.111   5.247   6.244
 5633POPC   D2A71320  28.889   5.056   6.568
 5633POPC   C3A71321  29.110   5.150   6.945
 5633POPC   C4A71322  29.042   5.114   7.382
 5633POPC   C1B71323  29.396   4.816   6.285
 5633POPC   C2B71324  29.227   4.696   6.703
 5633POPC   C3B71325  28.993   4.684   7.096
 5633POPC   C4B71326  29.153   4.626   7.509
 5634POPC   NC371327  11.780  34.393   5.376
 5634POPC   PO471328  12.266  34.927   5.326
 5634POPC   GL171329  12.153  34.712   5.739
 5634POPC   GL271330  11.942  34.395   5.856
 5634POPC   C1A71331  12.138  34.768   6.199
 5634POPC   D2A71332  12.052  34.623   6.617
 5634POPC   C3A71333  12.197  34.839   6.974
 5634POPC   C4A71334  12.027  34.774   7.337
 5634POPC   C1B71335  12.078  34.186   6.265
 5634POPC   C2B71336  12.211  34.130   6.711
 5634POPC   C3B71337  12.136  34.319   7.125
 5634POPC   C4B71338  12.224  34.376   7.584
 5635POPC   NC371339   9.641  21.900   5.534
 5635POPC   PO471340   9.783  22.467   5.291
 5635POPC   GL171341   9.613  22.377   5.743
 5635POPC   GL271342   9.898  22.189   5.864
 5635POPC   C1A71343   9.508  22.212   6.191
 5635POPC   D2A71344   9.650  22.320   6.618
 5635POPC   C3A71345   9.426  22.366   6.980
 5635POPC   C4A71346   9.582  22.016   7.180
 5635POPC   C1B71347  10.012  22.408   6.247
 5635POPC   C2B71348  10.025  22.638   6.626
 5635POPC   C3B71349  10.018  22.517   7.023
 5635POPC   C4B71350   9.894  22.349   7.405
 5636POPC   NC371351  44.864   4.914   5.359
 5636POPC   PO471352  44.379   5.343   5.448
 5636POPC   GL171353  44.672   5.150   5.760
 5636POPC   GL271354  44.442   4.919   5.918
 5636POPC   C1A71355  44.916   4.929   6.092
 5636POPC   D2A71356  44.680   5.020   6.460
 5636POPC   C3A71357  44.790   5.072   6.874
 5636POPC   C4A71358  44.644   4.794   7.174
 5636POPC   C1B71359  44.404   5.347   6.166
 5636POPC   C2B71360  44.503   5.491   6.594
 5636POPC   C3B71361  44.456   5.418   7.046
 5636POPC   C4B71362  44.107   5.407   7.288
 5637POPC   NC371363  13.175  12.342   5.651
 5637POPC   PO471364  13.659  11.988   5.264
 5637POPC   GL171365  13.587  11.895   5.719
 5637POPC   GL271366  13.580  12.187   5.938
 5637POPC   C1A71367  13.707  11.736   6.171
 5637POPC   D2A71368  13.718  11.943   6.583
 5637POPC   C3A71369  13.639  11.742   6.977
 5637POPC   C4A71370  13.713  11.857   7.412
 5637POPC   C1B71371  13.552  12.393   6.365
 5637POPC   C2B71372  13.534  12.449   6.848
 5637POPC   C3B71373  13.617  12.418   7.339
 5637POPC   C4B71374  13.433  12.504   7.804
 5638POPC   NC371375  17.082  10.079   5.510
 5638POPC   PO471376  17.765   9.931   5.387
 5638POPC   GL171377  17.584   9.879   5.790
 5638POPC   GL271378  17.437  10.205   5.905
 5638POPC   C1A71379  17.315   9.755   6.147
 5638POPC   D2A71380  17.147   9.810   6.566
 5638POPC   C3A71381  17.461   9.652   6.817
 5638POPC   C4A71382  17.585   9.719   7.210
 5638POPC   C1B71383  17.722  10.080   6.273
 5638POPC   C2B71384  17.895   9.939   6.699
 5638POPC   C3B71385  17.834  10.155   7.101
 5638POPC   C4B71386  17.549  10.165   7.451
 5639POPC   NC371387  14.453   5.056   5.362
 5639POPC   PO471388  13.797   5.245   5.271
 5639POPC   GL171389  14.013   5.023   5.663
 5639POPC   GL271390  14.177   5.257   5.787
 5639POPC   C1A71391  14.251   4.885   6.104
 5639POPC   D2A71392  14.232   4.694   6.535
 5639POPC   C3A71393  14.245   4.929   6.941
 5639POPC   C4A71394  14.194   4.891   7.399
 5639POPC   C1B71395  14.195   5.415   6.181
 5639POPC   C2B71396  14.337   5.217   6.518
 5639POPC   C3B71397  14.607   5.339   6.831
 5639POPC   C4B71398  14.528   5.245   7.251
 5640POPC   NC371399  10.999  38.404   5.527
 5640POPC   PO471400  11.645  38.576   5.534
 5640POPC   GL171401  11.420  38.362   5.856
 5640POPC   GL271402  11.244  38.060   5.824
 5640POPC   C1A71403  11.516  38.342   6.274
 5640POPC   D2A71404  11.684  38.604   6.583
 5640POPC   C3A71405  11.695  38.396   6.968
 5640POPC   C4A71406  11.562  38.491   7.381
 5640POPC   C1B71407  11.016  38.248   6.200
 5640POPC   C2B71408  11.136  38.332   6.625
 5640POPC   C3B71409  11.194  38.329   7.060
 5640POPC   C4B71410  10.993  38.618   7.323
 5641POPC   NC371411  38.527  15.825   5.457
 5641POPC   PO471412  37.978  15.909   5.756
 5641POPC   GL171413  38.374  15.857   5.945
 5641POPC   GL271414  38.715  15.706   5.949
 5641POPC   C1A71415  38.379  15.807   6.351
 5641POPC   D2A71416  38.145  16.029   6.619
 5641POPC   C3A71417  38.369  15.919   6.966
 5641POPC   C4A71418  38.337  16.145   7.303
 5641POPC   C1B71419  38.768  16.106   6.191
 5641POPC   C2B71420  38.611  16.276   6.591
 5641POPC   C3B71421  38.776  16.288   7.024
 5641POPC   C4B71422  38.733  16.423   7.475
 5642POPC   NC371423  22.333  22.615   5.430
 5642POPC   PO471424  21.942  22.094   5.231
 5642POPC   GL171425  22.096  22.200   5.688
 5642POPC   GL271426  21.794  22.129   5.883
 5642POPC   C1A71427  22.248  22.353   6.117
 5642POPC   D2A71428  22.439  22.444   6.530
 5642POPC   C3A71429  22.157  22.373   6.895
 5642POPC   C4A71430  22.303  22.318   7.335
 5642POPC   C1B71431  22.033  21.872   6.160
 5642POPC   C2B71432  22.203  21.969   6.552
 5642POPC   C3B71433  22.223  21.858   6.979
 5642POPC   C4B71434  21.892  22.017   7.184
 5643POPC   NC371435  24.990  30.208   5.594
 5643POPC   PO471436  25.367  29.739   5.220
 5643POPC   GL171437  25.334  29.803   5.742
 5643POPC   GL271438  25.641  29.788   5.871
 5643POPC   C1A71439  25.098  29.985   6.190
 5643POPC   D2A71440  24.910  30.188   6.605
 5643POPC   C3A71441  25.007  30.060   7.051
 5643POPC   C4A71442  25.148  29.623   7.117
 5643POPC   C1B71443  25.500  29.691   6.287
 5643POPC   C2B71444  25.350  29.846   6.697
 5643POPC   C3B71445  25.513  30.035   7.112
 5643POPC   C4B71446  25.719  30.026   7.553
 5644POPC   NC371447  33.627  16.480   5.403
 5644POPC   PO471448  33.936  15.881   5.305
 5644POPC   GL171449  33.699  15.885   5.704
 5644POPC   GL271450  33.685  16.192   5.899
 5644POPC   C1A71451  33.708  15.751   6.172
 5644POPC   D2A71452  33.986  15.704   6.519
 5644POPC   C3A71453  33.839  15.863   6.891
 5644POPC   C4A71454  34.004  15.872   7.280
 5644POPC   C1B71455  34.093  16.100   6.181
 5644POPC   C2B71456  34.250  16.141   6.639
 5644POPC   C3B71457  34.058  16.328   7.007
 5644POPC   C4B71458  33.705  16.307   7.277
 5645POPC   NC371459  43.268  24.088   5.483
 5645POPC   PO471460  42.905  24.591   5.564
 5645POPC   GL171461  43.180  24.445   5.871
 5645POPC   GL271462  43.014  24.119   5.919
 5645POPC   C1A71463  43.279  24.708   6.245
 5645POPC   D2A71464  43.129  24.758   6.668
 5645POPC   C3A71465  43.410  24.524   6.917
 5645POPC   C4A71466  43.410  24.291   7.295
 5645POPC   C1B71467  42.853  24.355   6.268
 5645POPC   C2B71468  42.752  24.349   6.685
 5645POPC   C3B71469  42.982  24.226   7.010
 5645POPC   C4B71470  42.918  24.338   7.418
 5646POPC   NC371471  23.108   4.036   5.544
 5646POPC   PO471472  22.516   4.340   5.461
 5646POPC   GL171473  22.805   4.401   5.823
 5646POPC   GL271474  22.983   4.129   6.012
 5646POPC   C1A71475  22.651   4.425   6.233
 5646POPC   D2A71476  22.609   4.172   6.604
 5646POPC   C3A71477  22.945   4.100   6.902
 5646POPC   C4A71478  23.098   4.239   7.286
 5646POPC   C1B71479  23.064   3.963   6.416
 5646POPC   C2B71480  23.372   3.807   6.727
 5646POPC   C3B71481  23.533   4.016   7.100
 5646POPC   C4B71482  23.434   3.950   7.557
 5647POPC   NC371483  15.726  40.079   5.695
 5647POPC   PO471484  16.148  39.814   5.176
 5647POPC   GL171485  16.176  39.806   5.633
 5647POPC   GL271486  15.881  39.587   5.786
 5647POPC   C1A71487  16.294  39.921   6.066
 5647POPC   D2A71488  16.078  40.072   6.409
 5647POPC   C3A71489  16.169  40.074   6.828
 5647POPC   C4A71490  15.904  40.211   7.120
 5647POPC   C1B71491  15.929  39.614   6.247
 5647POPC   C2B71492  15.939  39.625   6.685
 5647POPC   C3B71493  15.902  39.641   7.130
 5647POPC   C4B71494  15.713  39.422   7.475
 5648POPC   NC371495  29.063  44.246   5.312
 5648POPC   PO471496  29.079  43.618   5.316
 5648POPC   GL171497  29.372  43.812   5.632
 5648POPC   GL271498  29.316  44.148   5.757
 5648POPC   C1A71499  29.397  43.781   6.097
 5648POPC   D2A71500  29.139  43.866   6.462
 5648POPC   C3A71501  29.214  43.769   6.901
 5648POPC   C4A71502  28.875  43.839   7.186
 5648POPC   C1B71503  29.522  44.266   6.168
 5648POPC   C2B71504  29.347  44.326   6.563
 5648POPC   C3B71505  29.000  44.221   6.836
 5648POPC   C4B71506  29.260  44.195   7.203
 5649POPC   NC371507  31.582  36.548   5.401
 5649POPC   PO471508  31.310  37.053   5.586
 5649POPC   GL171509  31.539  36.792   5.847
 5649POPC   GL271510  31.291  36.510   5.835
 5649POPC   C1A71511  31.770  36.932   6.188
 5649POPC   D2A71512  31.741  37.280   6.453
 5649POPC   C3A71513  31.691  37.106   6.874
 5649POPC   C4A71514  31.399  37.140   7.198
 5649POPC   C1B71515  31.226  36.677   6.266
 5649POPC   C2B71516  31.316  36.508   6.681
 5649POPC   C3B71517  31.211  36.525   7.111
 5649POPC   C4B71518  30.902  36.459   7.420
 5650POPC   NC371519  18.734  25.060   5.639
 5650POPC   PO471520  18.238  25.306   5.202
 5650POPC   GL171521  18.262  25.345   5.658
 5650POPC   GL271522  17.958  25.128   5.753
 5650POPC   C1A71523  18.473  25.562   6.044
 5650POPC   D2A71524  18.536  25.392   6.466
 5650POPC   C3A71525  18.338  25.339   6.861
 5650POPC   C4A71526  18.524  25.455   7.237
 5650POPC   C1B71527  18.193  25.164   6.139
 5650POPC   C2B71528  18.301  24.929   6.490
 5650POPC   C3B71529  18.452  24.778   6.842
 5650POPC   C4B71530  18.361  24.957   7.232
 5651POPC   NC371531  15.981  17.143   5.447
 5651POPC   PO471532  16.386  17.792   5.447
 5651POPC   GL171533  16.186  17.582   5.805
 5651POPC   GL271534  16.529  17.464   5.819
 5651POPC   C1A71535  16.150  17.529   6.281
 5651POPC   D2A71536  15.993  17.327   6.670
 5651POPC   C3A71537  15.885  17.489   7.067
 5651POPC   C4A71538  16.167  17.576   7.401
 5651POPC   C1B71539  16.526  17.841   6.106
 5651POPC   C2B71540  16.385  17.921   6.542
 5651POPC   C3B71541  16.366  17.768   6.969
 5651POPC   C4B71542  16.473  17.965   7.391
 5652POPC   NC371543   4.181  13.598   5.408
 5652POPC   PO471544   4.663  13.982   5.680
 5652POPC   GL171545   4.375  13.727   5.894
 5652POPC   GL271546   4.398  13.371   5.803
 5652POPC   C1A71547   4.217  13.793   6.323
 5652POPC   D2A71548   4.048  13.685   6.730
 5652POPC   C3A71549   4.268  13.795   7.109
 5652POPC   C4A71550   4.128  14.079   7.439
 5652POPC   C1B71551   4.306  13.275   6.209
 5652POPC   C2B71552   4.412  13.327   6.626
 5652POPC   C3B71553   4.197  13.298   7.031
 5652POPC   C4B71554   4.032  12.980   7.253
 5653POPC   NC371555  26.798  44.985   5.348
 5653POPC   PO471556  26.963  44.341   5.333
 5653POPC   GL171557  26.810  44.513   5.738
 5653POPC   GL271558  26.955  44.843   5.819
 5653POPC   C1A71559  26.919  44.399   6.204
 5653POPC   D2A71560  27.116  44.327   6.630
 5653POPC   C3A71561  26.926  44.538   7.022
 5653POPC   C4A71562  26.583  44.502   7.342
 5653POPC   C1B71563  26.744  44.886   6.216
 5653POPC   C2B71564  26.607  44.916   6.656
 5653POPC   C3B71565  26.678   0.006   7.093
 5653POPC   C4B71566  26.902  44.898   7.443
 5654POPC   NC371567  35.346   3.907   5.391
 5654POPC   PO471568  35.557   4.543   5.437
 5654POPC   GL171569  35.403   4.274   5.773
 5654POPC   GL271570  35.697   4.074   5.749
 5654POPC   C1A71571  35.337   4.028   6.173
 5654POPC   D2A71572  35.508   3.955   6.598
 5654POPC   C3A71573  35.265   4.000   6.988
 5654POPC   C4A71574  35.327   4.183   7.422
 5654POPC   C1B71575  35.812   4.236   6.157
 5654POPC   C2B71576  35.757   4.425   6.551
 5654POPC   C3B71577  35.581   4.418   6.956
 5654POPC   C4B71578  35.825   4.361   7.309
 5655POPC   NC371579  38.989  14.812   5.580
 5655POPC   PO471580  38.952  14.214   5.387
 5655POPC   GL171581  39.212  14.342   5.771
 5655POPC   GL271582  39.336  14.666   5.921
 5655POPC   C1A71583  39.149  14.302   6.233
 5655POPC   D2A71584  39.271  14.567   6.580
 5655POPC   C3A71585  39.085  14.435   6.958
 5655POPC   C4A71586  38.891  14.470   7.351
 5655POPC   C1B71587  39.542  14.896   6.248
 5655POPC   C2B71588  39.721  14.850   6.668
 5655POPC   C3B71589  39.522  14.719   7.053
 5655POPC   C4B71590  39.675  14.684   7.496
 5656POPC   NC371591  22.317  42.043   5.475
 5656POPC   PO471592  21.850  42.475   5.462
 5656POPC   GL171593  22.073  42.414   5.896
 5656POPC   GL271594  22.411  42.592   5.993
 5656POPC   C1A71595  22.029  42.580   6.329
 5656POPC   D2A71596  22.266  42.642   6.711
 5656POPC   C3A71597  22.120  42.334   7.032
 5656POPC   C4A71598  22.090  42.352   7.488
 5656POPC   C1B71599  22.482  42.165   6.152
 5656POPC   C2B71600  22.478  41.828   6.477
 5656POPC   C3B71601  22.461  41.913   6.911
 5656POPC   C4B71602  22.230  41.889   7.280
 5657POPC   NC371603  13.542  14.527   5.336
 5657POPC   PO471604  13.086  14.914   5.566
 5657POPC   GL171605  13.392  14.709   5.831
 5657POPC   GL271606  13.349  14.334   5.770
 5657POPC   C1A71607  13.508  14.518   6.239
 5657POPC   D2A71608  13.723  14.629   6.607
 5657POPC   C3A71609  13.838  14.468   6.992
 5657POPC   C4A71610  14.066  14.120   7.123
 5657POPC   C1B71611  13.121  14.199   6.115
 5657POPC   C2B71612  13.106  14.254   6.560
 5657POPC   C3B71613  13.353  14.288   6.932
 5657POPC   C4B71614  13.393  14.548   7.273
 5658POPC   NC371615  41.859  13.498   5.543
 5658POPC   PO471616  42.490  13.603   5.388
 5658POPC   GL171617  42.550  13.416   5.806
 5658POPC   GL271618  42.212  13.296   5.905
 5658POPC   C1A71619  42.660  13.529   6.228
 5658POPC   D2A71620  42.352  13.511   6.589
 5658POPC   C3A71621  42.571  13.530   6.992
 5658POPC   C4A71622  42.547  13.319   7.403
 5658POPC   C1B71623  42.196  13.719   6.091
 5658POPC   C2B71624  41.971  13.909   6.449
 5658POPC   C3B71625  41.888  13.833   6.887
 5658POPC   C4B71626  42.045  13.930   7.281
 5659POPC   NC371627  26.033  36.793   5.545
 5659POPC   PO471628  26.264  37.415   5.424
 5659POPC   GL171629  26.166  37.209   5.825
 5659POPC   GL271630  25.802  37.073   5.889
 5659POPC   C1A71631  26.107  37.192   6.286
 5659POPC   D2A71632  25.813  36.960   6.551
 5659POPC   C3A71633  25.901  36.950   6.986
 5659POPC   C4A71634  26.192  37.257   7.150
 5659POPC   C1B71635  25.702  36.688   6.144
 5659POPC   C2B71636  25.807  36.455   6.569
 5659POPC   C3B71637  25.622  36.340   6.962
 5659POPC   C4B71638  25.698  36.566   7.309
 5660POPC   NC371639  18.824  42.997   5.358
 5660POPC   PO471640  19.420  43.245   5.254
 5660POPC   GL171641  19.069  43.251   5.713
 5660POPC   GL271642  18.914  42.853   5.826
 5660POPC   C1A71643  19.154  43.120   6.181
 5660POPC   D2A71644  19.307  43.089   6.603
 5660POPC   C3A71645  19.089  43.118   6.968
 5660POPC   C4A71646  19.264  43.085   7.379
 5660POPC   C1B71647  18.993  42.625   6.182
 5660POPC   C2B71648  18.849  42.829   6.544
 5660POPC   C3B71649  18.799  42.657   6.912
 5660POPC   C4B71650  18.901  42.755   7.284
 5661POPC   NC371651   5.342   5.281   5.464
 5661POPC   PO471652   4.965   4.778   5.705
 5661POPC   GL171653   5.032   5.160   5.867
 5661POPC   GL271654   5.344   5.145   5.960
 5661POPC   C1A71655   4.856   5.334   6.215
 5661POPC   D2A71656   4.606   5.135   6.541
 5661POPC   C3A71657   4.792   5.142   6.961
 5661POPC   C4A71658   5.087   4.885   7.194
 5661POPC   C1B71659   5.360   5.401   6.331
 5661POPC   C2B71660   5.252   5.429   6.800
 5661POPC   C3B71661   5.406   5.283   7.201
 5661POPC   C4B71662   5.575   4.937   7.502
 5662POPC   NC371663  25.157  35.520   5.366
 5662POPC   PO471664  25.051  34.962   5.659
 5662POPC   GL171665  25.184  35.223   5.966
 5662POPC   GL271666  25.294  35.557   5.874
 5662POPC   C1A71667  25.040  35.294   6.350
 5662POPC   D2A71668  24.938  35.015   6.663
 5662POPC   C3A71669  25.234  35.127   6.934
 5662POPC   C4A71670  25.226  35.415   7.250
 5662POPC   C1B71671  25.222  35.765   6.275
 5662POPC   C2B71672  25.265  35.593   6.696
 5662POPC   C3B71673  25.624  35.453   6.911
 5662POPC   C4B71674  25.726  35.535   7.332
 5663POPC   NC371675  20.881  41.644   5.517
 5663POPC   PO471676  21.382  41.260   5.678
 5663POPC   GL171677  21.101  41.264   6.005
 5663POPC   GL271678  21.018  41.600   6.005
 5663POPC   C1A71679  21.187  41.392   6.452
 5663POPC   D2A71680  21.492  41.556   6.771
 5663POPC   C3A71681  21.391  41.450   7.178
 5663POPC   C4A71682  21.166  41.081   7.287
 5663POPC   C1B71683  20.853  41.963   6.210
 5663POPC   C2B71684  20.930  42.158   6.622
 5663POPC   C3B71685  21.163  41.948   6.947
 5663POPC   C4B71686  21.047  41.796   7.332
 5664POPC   NC371687  25.700   9.932   5.508
 5664POPC   PO471688  25.315   9.536   5.277
 5664POPC   GL171689  25.519   9.495   5.713
 5664POPC   GL271690  25.440   9.792   5.933
 5664POPC   C1A71691  25.591   9.366   6.146
 5664POPC   D2A71692  25.365   9.403   6.548
 5664POPC   C3A71693  25.455   9.356   6.975
 5664POPC   C4A71694  25.256   9.608   7.296
 5664POPC   C1B71695  25.458   9.882   6.408
 5664POPC   C2B71696  25.263   9.930   6.858
 5664POPC   C3B71697  25.478  10.064   7.243
 5664POPC   C4B71698  25.376  10.234   7.661
 5665POPC   NC371699  42.858  20.343   5.226
 5665POPC   PO471700  43.454  20.706   5.491
 5665POPC   GL171701  43.093  20.680   5.764
 5665POPC   GL271702  43.195  20.378   5.945
 5665POPC   C1A71703  42.948  20.761   6.193
 5665POPC   D2A71704  43.013  20.551   6.604
 5665POPC   C3A71705  42.869  20.777   6.968
 5665POPC   C4A71706  42.927  20.870   7.371
 5665POPC   C1B71707  43.420  20.192   6.317
 5665POPC   C2B71708  43.437  20.204   6.777
 5665POPC   C3B71709  43.172  20.384   7.110
 5665POPC   C4B71710  43.190  20.479   7.539
 5666POPC   NC371711  30.465  29.118   5.493
 5666POPC   PO471712  31.114  29.559   5.573
 5666POPC   GL171713  30.825  29.315   5.829
 5666POPC   GL271714  30.664  28.992   5.941
 5666POPC   C1A71715  30.722  29.445   6.244
 5666POPC   D2A71716  30.483  29.562   6.617
 5666POPC   C3A71717  30.698  29.338   6.958
 5666POPC   C4A71718  30.974  29.432   7.303
 5666POPC   C1B71719  30.355  29.079   6.288
 5666POPC   C2B71720  30.290  29.075   6.753
 5666POPC   C3B71721  30.338  28.881   7.164
 5666POPC   C4B71722  30.447  28.867   7.656
 5667POPC   NC371723  12.851   4.452   5.016
 5667POPC   PO471724  12.985   4.065   5.585
 5667POPC   GL171725  12.839   4.315   5.923
 5667POPC   GL271726  13.088   4.647   5.967
 5667POPC   C1A71727  12.630   4.196   6.295
 5667POPC   D2A71728  12.766   4.107   6.703
 5667POPC   C3A71729  12.682   4.278   7.095
 5667POPC   C4A71730  12.556   3.925   7.302
 5667POPC   C1B71731  12.852   4.658   6.318
 5667POPC   C2B71732  12.982   4.604   6.714
 5667POPC   C3B71733  12.940   4.716   7.130
 5667POPC   C4B71734  13.011   4.468   7.501
 5668POPC   NC371735  35.191  32.271   5.446
 5668POPC   PO471736  35.802  31.889   5.316
 5668POPC   GL171737  35.511  31.978   5.685
 5668POPC   GL271738  35.684  32.294   5.669
 5668POPC   C1A71739  35.189  32.084   6.089
 5668POPC   D2A71740  35.171  32.326   6.510
 5668POPC   C3A71741  35.071  32.188   6.952
 5668POPC   C4A71742  35.280  32.327   7.332
 5668POPC   C1B71743  35.665  32.243   6.115
 5668POPC   C2B71744  35.671  32.200   6.559
 5668POPC   C3B71745  35.571  32.051   6.977
 5668POPC   C4B71746  35.799  32.128   7.340
 5669POPC   NC371747  17.396  28.990   5.438
 5669POPC   PO471748  17.877  29.355   5.647
 5669POPC   GL171749  17.664  29.009   5.941
 5669POPC   GL271750  17.309  29.018   6.021
 5669POPC   C1A71751  17.601  28.910   6.420
 5669POPC   D2A71752  17.531  29.041   6.846
 5669POPC   C3A71753  17.872  29.144   7.139
 5669POPC   C4A71754  17.919  29.417   7.529
 5669POPC   C1B71755  17.111  28.706   6.340
 5669POPC   C2B71756  17.118  28.718   6.799
 5669POPC   C3B71757  17.122  28.978   7.188
 5669POPC   C4B71758  17.465  29.123   7.468
 5670POPC   NC371759  31.345  34.108   5.164
 5670POPC   PO471760  31.327  34.800   5.277
 5670POPC   GL171761  31.271  34.680   5.739
 5670POPC   GL271762  31.468  34.843   5.990
 5670POPC   C1A71763  31.125  34.512   6.167
 5670POPC   D2A71764  31.192  34.681   6.584
 5670POPC   C3A71765  31.290  34.416   6.953
 5670POPC   C4A71766  31.435  34.468   7.361
 5670POPC   C1B71767  31.646  34.573   6.279
 5670POPC   C2B71768  31.689  34.612   6.697
 5670POPC   C3B71769  31.476  34.872   6.998
 5670POPC   C4B71770  31.650  34.944   7.350
 5671POPC   NC371771  29.456   3.976   5.217
 5671POPC   PO471772  29.072   3.552   5.624
 5671POPC   GL171773  29.216   3.585   5.981
 5671POPC   GL271774  29.577   3.653   5.867
 5671POPC   C1A71775  28.988   3.840   6.279
 5671POPC   D2A71776  28.684   3.874   6.625
 5671POPC   C3A71777  28.903   3.728   6.989
 5671POPC   C4A71778  29.252   3.828   7.239
 5671POPC   C1B71779  29.539   3.750   6.315
 5671POPC   C2B71780  29.265   3.544   6.637
 5671POPC   C3B71781  29.207   3.317   7.041
 5671POPC   C4B71782  29.220   3.393   7.511
 5672POPC   NC371783  21.428  28.379   5.478
 5672POPC   PO471784  20.902  28.875   5.496
 5672POPC   GL171785  21.168  28.691   5.866
 5672POPC   GL271786  21.201  28.334   5.921
 5672POPC   C1A71787  21.512  28.606   6.191
 5672POPC   D2A71788  21.730  28.566   6.600
 5672POPC   C3A71789  21.475  28.545   7.000
 5672POPC   C4A71790  21.510  28.340   7.403
 5672POPC   C1B71791  21.333  28.068   6.272
 5672POPC   C2B71792  21.446  28.113   6.711
 5672POPC   C3B71793  21.250  28.024   7.120
 5672POPC   C4B71794  21.123  28.072   7.606
 5673POPC   NC371795  32.288  27.515   4.999
 5673POPC   PO471796  31.899  27.730   5.484
 5673POPC   GL171797  32.093  27.695   5.902
 5673POPC   GL271798  32.370  27.909   5.865
 5673POPC   C1A71799  32.269  27.545   6.324
 5673POPC   D2A71800  32.422  27.168   6.527
 5673POPC   C3A71801  32.277  27.194   6.939
 5673POPC   C4A71802  32.166  27.571   7.118
 5673POPC   C1B71803  32.175  28.045   6.271
 5673POPC   C2B71804  32.231  27.949   6.710
 5673POPC   C3B71805  32.256  28.105   7.106
 5673POPC   C4B71806  32.445  27.868   7.440
 5674POPC   NC371807   3.207  20.398   5.644
 5674POPC   PO471808   2.872  20.648   5.136
 5674POPC   GL171809   2.739  20.667   5.636
 5674POPC   GL271810   2.525  20.406   5.742
 5674POPC   C1A71811   2.829  20.523   6.137
 5674POPC   D2A71812   2.964  20.671   6.538
 5674POPC   C3A71813   2.909  20.459   6.927
 5674POPC   C4A71814   2.921  20.709   7.273
 5674POPC   C1B71815   2.395  20.744   6.057
 5674POPC   C2B71816   2.436  20.691   6.492
 5674POPC   C3B71817   2.416  20.777   6.919
 5674POPC   C4B71818   2.433  20.555   7.277
 5675POPC   NC371819  43.469  10.747   5.561
 5675POPC   PO471820  42.904  10.558   5.225
 5675POPC   GL171821  43.040  10.419   5.672
 5675POPC   GL271822  43.176  10.142   5.746
 5675POPC   C1A71823  43.293  10.446   6.120
 5675POPC   D2A71824  43.428  10.387   6.545
 5675POPC   C3A71825  43.216  10.666   6.809
 5675POPC   C4A71826  43.308  10.613   7.210
 5675POPC   C1B71827  43.040   9.993   6.161
 5675POPC   C2B71828  42.974  10.120   6.584
 5675POPC   C3B71829  43.199  10.159   6.959
 5675POPC   C4B71830  43.065  10.197   7.385
 5676POPC   NC371831  13.726  21.116   5.447
 5676POPC   PO471832  13.359  20.551   5.360
 5676POPC   GL171833  13.553  20.459   5.797
 5676POPC   GL271834  13.924  20.550   5.858
 5676POPC   C1A71835  13.592  20.615   6.258
 5676POPC   D2A71836  13.734  20.602   6.684
 5676POPC   C3A71837  13.443  20.653   6.944
 5676POPC   C4A71838  13.284  20.471   7.236
 5676POPC   C1B71839  14.041  20.882   6.187
 5676POPC   C2B71840  13.821  21.073   6.544
 5676POPC   C3B71841  13.837  21.016   7.005
 5676POPC   C4B71842  13.726  21.228   7.390
 5677POPC   NC371843  27.991  19.485   5.332
 5677POPC   PO471844  27.622  20.100   5.426
 5677POPC   GL171845  27.558  19.974   5.812
 5677POPC   GL271846  27.700  19.671   5.736
 5677POPC   C1A71847  27.420  19.892   6.210
 5677POPC   D2A71848  27.238  19.951   6.571
 5677POPC   C3A71849  27.428  19.878   6.951
 5677POPC   C4A71850  27.396  20.077   7.320
 5677POPC   C1B71851  27.687  19.484   6.138
 5677POPC   C2B71852  27.721  19.618   6.567
 5677POPC   C3B71853  27.777  19.436   6.969
 5677POPC   C4B71854  27.593  19.565   7.336
 5678POPC   NC371855  11.586   0.951   5.295
 5678POPC   PO471856  10.945   1.037   5.179
 5678POPC   GL171857  11.164   0.998   5.620
 5678POPC   GL271858  11.391   1.296   5.729
 5678POPC   C1A71859  11.274   0.928   6.083
 5678POPC   D2A71860  11.436   1.059   6.503
 5678POPC   C3A71861  11.120   1.136   6.827
 5678POPC   C4A71862  11.178   1.018   7.244
 5678POPC   C1B71863  11.266   1.473   6.160
 5678POPC   C2B71864  11.465   1.572   6.570
 5678POPC   C3B71865  11.299   1.590   6.950
 5678POPC   C4B71866  11.404   1.445   7.337
 5679POPC   NC371867  35.975  16.979   5.458
 5679POPC   PO471868  36.577  16.568   5.389
 5679POPC   GL171869  36.286  16.657   5.809
 5679POPC   GL271870  36.151  17.000   5.929
 5679POPC   C1A71871  36.342  16.752   6.299
 5679POPC   D2A71872  36.490  16.807   6.696
 5679POPC   C3A71873  36.167  16.626   6.912
 5679POPC   C4A71874  36.126  16.392   7.249
 5679POPC   C1B71875  35.838  16.934   6.290
 5679POPC   C2B71876  35.828  16.948   6.780
 5679POPC   C3B71877  35.947  16.992   7.233
 5679POPC   C4B71878  35.813  17.087   7.692
 5680POPC   NC371879   3.180  41.807   5.529
 5680POPC   PO471880   3.824  41.561   5.418
 5680POPC   GL171881   3.730  41.491   5.856
 5680POPC   GL271882   3.368  41.519   5.932
 5680POPC   C1A71883   3.710  41.766   6.235
 5680POPC   D2A71884   3.527  41.768   6.634
 5680POPC   C3A71885   3.750  41.762   7.009
 5680POPC   C4A71886   3.454  41.838   7.323
 5680POPC   C1B71887   3.549  41.270   6.294
 5680POPC   C2B71888   3.598  41.261   6.737
 5680POPC   C3B71889   3.394  41.393   7.079
 5680POPC   C4B71890   3.432  41.362   7.523
 5681POPC   NC371891  10.884   0.615   5.393
 5681POPC   PO471892  11.512   0.492   5.338
 5681POPC   GL171893  11.310   0.483   5.787
 5681POPC   GL271894  10.962   0.574   5.885
 5681POPC   C1A71895  11.420   0.320   6.240
 5681POPC   D2A71896  11.281   0.164   6.677
 5681POPC   C3A71897  11.379   0.494   7.016
 5681POPC   C4A71898  11.640   0.894   7.028
 5681POPC   C1B71899  10.925   0.406   6.297
 5681POPC   C2B71900  11.052   0.663   6.640
 5681POPC   C3B71901  10.889   0.639   7.066
 5681POPC   C4B71902  11.024   0.278   7.320
 5682POPC   NC371903  40.426  35.101   5.562
 5682POPC   PO471904  40.873  35.632   5.342
 5682POPC   GL171905  40.975  35.552   5.795
 5682POPC   GL271906  40.629  35.464   5.886
 5682POPC   C1A71907  41.058  35.523   6.231
 5682POPC   D2A71908  40.885  35.685   6.615
 5682POPC   C3A71909  40.920  35.516   7.041
 5682POPC   C4A71910  40.630  35.206   7.209
 5682POPC   C1B71911  40.558  35.387   6.335
 5682POPC   C2B71912  40.623  35.093   6.682
 5682POPC   C3B71913  40.291  34.942   6.917
 5682POPC   C4B71914  40.149  35.002   7.310
 5683POPC   NC371915   0.710  39.263   5.379
 5683POPC   PO471916   0.172  39.566   5.557
 5683POPC   GL171917   0.496  39.365   5.847
 5683POPC   GL271918   0.615  38.994   5.804
 5683POPC   C1A71919   0.462  39.204   6.260
 5683POPC   D2A71920   0.204  39.029   6.591
 5683POPC   C3A71921   0.279  39.212   7.007
 5683POPC   C4A71922   0.491  39.268   7.396
 5683POPC   C1B71923   0.835  38.837   6.186
 5683POPC   C2B71924   0.745  38.916   6.593
 5683POPC   C3B71925   0.781  39.097   6.977
 5683POPC   C4B71926   0.861  38.931   7.368
 5684POPC   NC371927  18.547  39.962   5.306
 5684POPC   PO471928  17.969  39.673   5.464
 5684POPC   GL171929  18.331  39.716   5.702
 5684POPC   GL271930  18.270  40.029   5.803
 5684POPC   C1A71931  18.483  39.660   6.131
 5684POPC   D2A71932  18.564  39.634   6.581
 5684POPC   C3A71933  18.245  39.860   6.835
 5684POPC   C4A71934  18.283  39.788   7.245
 5684POPC   C1B71935  18.073  40.201   6.161
 5684POPC   C2B71936  18.114  40.317   6.549
 5684POPC   C3B71937  17.947  40.442   6.894
 5684POPC   C4B71938  18.158  40.280   7.232
 5685POPC   NC371939  34.015  13.041   5.529
 5685POPC   PO471940  34.144  12.422   5.375
 5685POPC   GL171941  34.014  12.592   5.789
 5685POPC   GL271942  33.685  12.510   5.931
 5685POPC   C1A71943  34.048  12.834   6.163
 5685POPC   D2A71944  33.952  12.720   6.586
 5685POPC   C3A71945  33.993  13.001   6.936
 5685POPC   C4A71946  34.036  12.799   7.327
 5685POPC   C1B71947  33.538  12.743   6.271
 5685POPC   C2B71948  33.394  12.711   6.682
 5685POPC   C3B71949  33.578  12.722   7.079
 5685POPC   C4B71950  33.545  12.831   7.513
 5686POPC   NC371951  17.213  38.609   5.522
 5686POPC   PO471952  17.672  38.180   5.452
 5686POPC   GL171953  17.597  38.368   5.826
 5686POPC   GL271954  17.771  38.692   5.862
 5686POPC   C1A71955  17.360  38.259   6.210
 5686POPC   D2A71956  17.384  38.383   6.650
 5686POPC   C3A71957  17.308  38.772   6.893
 5686POPC   C4A71958  17.256  38.599   7.332
 5686POPC   C1B71959  17.792  38.548   6.260
 5686POPC   C2B71960  17.960  38.472   6.621
 5686POPC   C3B71961  17.771  38.569   6.960
 5686POPC   C4B71962  17.733  38.365   7.299
 5687POPC   NC371963  16.173  39.327   5.211
 5687POPC   PO471964  15.584  38.997   5.295
 5687POPC   GL171965  15.872  39.064   5.649
 5687POPC   GL271966  15.612  38.940   5.838
 5687POPC   C1A71967  16.008  39.120   6.121
 5687POPC   D2A71968  15.827  39.113   6.544
 5687POPC   C3A71969  16.091  39.170   6.896
 5687POPC   C4A71970  16.060  39.088   7.318
 5687POPC   C1B71971  15.617  38.746   6.239
 5687POPC   C2B71972  15.641  38.610   6.682
 5687POPC   C3B71973  15.577  38.848   7.074
 5687POPC   C4B71974  15.607  38.919   7.533
 5688POPC   NC371975  26.775  29.848   5.352
 5688POPC   PO471976  27.288  30.055   5.469
 5688POPC   GL171977  27.088  29.739   5.781
 5688POPC   GL271978  26.733  29.628   5.806
 5688POPC   C1A71979  26.953  29.835   6.216
 5688POPC   D2A71980  27.092  29.788   6.620
 5688POPC   C3A71981  27.144  30.101   6.904
 5688POPC   C4A71982  26.994  30.093   7.313
 5688POPC   C1B71983  26.564  29.506   6.198
 5688POPC   C2B71984  26.550  29.739   6.570
 5688POPC   C3B71985  26.655  29.908   6.941
 5688POPC   C4B71986  26.508  29.878   7.340
 5689POPC   NC371987  21.572  16.256   5.309
 5689POPC   PO471988  20.944  16.295   5.425
 5689POPC   GL171989  21.240  16.151   5.742
 5689POPC   GL271990  21.220  15.844   5.882
 5689POPC   C1A71991  21.469  16.165   6.163
 5689POPC   D2A71992  21.621  15.981   6.542
 5689POPC   C3A71993  21.329  15.944   6.878
 5689POPC   C4A71994  21.463  16.157   7.236
 5689POPC   C1B71995  21.051  15.611   6.193
 5689POPC   C2B71996  20.964  15.616   6.600
 5689POPC   C3B71997  21.060  15.473   6.977
 5689POPC   C4B71998  21.111  15.750   7.328
 5690POPC   NC371999  43.309  43.251   5.353
 5690POPC   PO472000  43.073  42.557   5.320
 5690POPC   GL172001  43.100  42.901   5.735
 5690POPC   GL272002  43.288  43.214   5.869
 5690POPC   C1A72003  43.010  42.955   6.209
 5690POPC   D2A72004  42.965  43.240   6.586
 5690POPC   C3A72005  42.985  43.024   6.992
 5690POPC   C4A72006  43.300  42.817   7.235
 5690POPC   C1B72007  43.488  43.349   6.261
 5690POPC   C2B72008  43.573  43.534   6.670
 5690POPC   C3B72009  43.384  43.323   6.994
 5690POPC   C4B72010  43.136  43.436   7.360
 5691POPC   NC372011  13.142  14.057   5.386
 5691POPC   PO472012  13.089  13.434   5.563
 5691POPC   GL172013  12.944  13.803   5.821
 5691POPC   GL272014  12.582  13.867   5.890
 5691POPC   C1A72015  12.916  13.767   6.277
 5691POPC   D2A72016  13.027  13.550   6.635
 5691POPC   C3A72017  13.048  13.867   6.909
 5691POPC   C4A72018  13.263  13.880   7.277
 5691POPC   C1B72019  12.521  13.474   6.153
 5691POPC   C2B72020  12.510  13.570   6.586
 5691POPC   C3B72021  12.522  13.785   6.970
 5691POPC   C4B72022  12.779  13.711   7.302
 5692POPC   NC372023  21.447  43.305   5.355
 5692POPC   PO472024  21.103  42.779   5.381
 5692POPC   GL172025  21.238  43.049   5.770
 5692POPC   GL272026  21.017  43.324   5.670
 5692POPC   C1A72027  21.437  43.222   6.213
 5692POPC   D2A72028  21.479  43.324   6.694
 5692POPC   C3A72029  21.421  43.014   7.059
 5692POPC   C4A72030  21.558  43.061   7.511
 5692POPC   C1B72031  20.970  43.364   6.089
 5692POPC   C2B72032  21.010  43.206   6.514
 5692POPC   C3B72033  21.028  43.345   6.943
 5692POPC   C4B72034  21.146  43.307   7.372
 5693POPC   NC372035  34.130  24.706   5.534
 5693POPC   PO472036  33.667  24.207   5.359
 5693POPC   GL172037  33.800  24.200   5.828
 5693POPC   GL272038  34.017  24.453   5.948
 5693POPC   C1A72039  33.698  24.290   6.286
 5693POPC   D2A72040  33.738  24.640   6.574
 5693POPC   C3A72041  33.794  24.478   6.949
 5693POPC   C4A72042  33.827  24.183   7.274
 5693POPC   C1B72043  34.050  24.837   6.200
 5693POPC   C2B72044  34.084  25.043   6.610
 5693POPC   C3B72045  34.058  24.924   7.037
 5693POPC   C4B72046  33.975  24.670   7.376
 5694POPC   NC372047  11.328  31.101   5.594
 5694POPC   PO472048  10.962  30.468   5.544
 5694POPC   GL172049  11.313  30.625   5.817
 5694POPC   GL272050  11.679  30.578   5.738
 5694POPC   C1A72051  11.230  30.730   6.238
 5694POPC   D2A72052  11.077  30.423   6.528
 5694POPC   C3A72053  11.197  30.443   6.936
 5694POPC   C4A72054  11.204  30.739   7.269
 5694POPC   C1B72055  11.724  30.844   6.116
 5694POPC   C2B72056  11.593  30.987   6.509
 5694POPC   C3B72057  11.569  30.850   6.926
 5694POPC   C4B72058  11.757  30.954   7.322
 5695POPC   NC372059   6.035  19.712   5.492
 5695POPC   PO472060   5.380  19.970   5.600
 5695POPC   GL172061   5.684  19.843   5.922
 5695POPC   GL272062   6.012  19.986   5.941
 5695POPC   C1A72063   5.738  19.597   6.308
 5695POPC   D2A72064   5.526  19.376   6.682
 5695POPC   C3A72065   5.665  19.580   7.076
 5695POPC   C4A72066   5.626  20.004   7.266
 5695POPC   C1B72067   6.202  19.904   6.326
 5695POPC   C2B72068   6.017  19.797   6.754
 5695POPC   C3B72069   6.103  19.836   7.211
 5695POPC   C4B72070   6.115  19.725   7.705
 5696POPC   NC372071   4.776  23.491   5.570
 5696POPC   PO472072   5.061  24.124   5.339
 5696POPC   GL172073   5.133  23.891   5.721
 5696POPC   GL272074   4.868  23.890   5.873
 5696POPC   C1A72075   5.284  23.705   6.122
 5696POPC   D2A72076   5.282  23.883   6.527
 5696POPC   C3A72077   5.391  23.585   6.842
 5696POPC   C4A72078   5.446  23.519   7.314
 5696POPC   C1B72079   4.777  23.788   6.273
 5696POPC   C2B72080   4.773  23.998   6.635
 5696POPC   C3B72081   5.009  23.951   6.943
 5696POPC   C4B72082   5.038  23.789   7.293
 5697POPC   NC372083  24.908   6.404   5.490
 5697POPC   PO472084  24.249   6.476   5.544
 5697POPC   GL172085  24.493   6.630   5.913
 5697POPC   GL272086  24.784   6.761   5.825
 5697POPC   C1A72087  24.656   6.789   6.316
 5697POPC   D2A72088  24.544   6.911   6.681
 5697POPC   C3A72089  24.365   6.561   6.856
 5697POPC   C4A72090  24.367   6.700   7.258
 5697POPC   C1B72091  24.912   6.391   6.162
 5697POPC   C2B72092  25.017   6.488   6.589
 5697POPC   C3B72093  24.880   6.657   6.970
 5697POPC   C4B72094  24.812   6.485   7.393
 5698POPC   NC372095  11.155  33.454   5.439
 5698POPC   PO472096  11.432  32.784   5.470
 5698POPC   GL172097  11.370  32.900   5.845
 5698POPC   GL272098  11.109  33.098   5.795
 5698POPC   C1A72099  11.391  33.085   6.238
 5698POPC   D2A72100  11.363  32.852   6.614
 5698POPC   C3A72101  11.546  32.984   6.991
 5698POPC   C4A72102  11.176  32.882   7.161
 5698POPC   C1B72103  10.918  33.323   6.125
 5698POPC   C2B72104  10.868  33.421   6.545
 5698POPC   C3B72105  11.113  33.324   6.901
 5698POPC   C4B72106  11.007  33.333   7.336
 5699POPC   NC372107   9.803  44.641   5.462
 5699POPC   PO472108   9.802  44.024   5.590
 5699POPC   GL172109   9.896  44.400   5.922
 5699POPC   GL272110   9.663  44.717   5.936
 5699POPC   C1A72111  10.085  44.787   6.185
 5699POPC   D2A72112  10.079  44.940   6.621
 5699POPC   C3A72113   9.845  44.629   6.880
 5699POPC   C4A72114   9.991  44.367   7.207
 5699POPC   C1B72115   9.651  44.643   6.391
 5699POPC   C2B72116   9.367  44.488   6.689
 5699POPC   C3B72117   9.323  44.779   7.009
 5699POPC   C4B72118   9.594  44.696   7.339
 5700POPC   NC372119   1.225  31.200   5.432
 5700POPC   PO472120   0.939  31.901   5.544
 5700POPC   GL172121   1.222  31.698   5.803
 5700POPC   GL272122   0.948  31.715   6.056
 5700POPC   C1A72123   1.393  31.534   6.205
 5700POPC   D2A72124   1.178  31.554   6.609
 5700POPC   C3A72125   1.341  31.372   6.972
 5700POPC   C4A72126   1.380  31.651   7.305
 5700POPC   C1B72127   0.829  31.342   6.295
 5700POPC   C2B72128   0.614  31.345   6.685
 5700POPC   C3B72129   0.839  31.488   7.034
 5700POPC   C4B72130   0.967  31.306   7.397
 5701POPC   NC372131  27.791   2.391   5.518
 5701POPC   PO472132  27.218   2.111   5.634
 5701POPC   GL172133  27.449   2.113   5.989
 5701POPC   GL272134  27.634   1.782   5.988
 5701POPC   C1A72135  27.339   2.150   6.432
 5701POPC   D2A72136  27.497   2.043   6.798
 5701POPC   C3A72137  27.217   2.276   7.023
 5701POPC   C4A72138  27.271   2.375   7.424
 5701POPC   C1B72139  27.816   2.036   6.335
 5701POPC   C2B72140  28.030   1.946   6.729
 5701POPC   C3B72141  27.890   1.867   7.129
 5701POPC   C4B72142  27.686   2.175   7.266
 5702POPC   NC372143  29.762  33.371   5.335
 5702POPC   PO472144  30.254  33.045   5.436
 5702POPC   GL172145  30.081  33.064   5.831
 5702POPC   GL272146  29.715  33.130   5.823
 5702POPC   C1A72147  30.039  33.152   6.256
 5702POPC   D2A72148  29.833  33.341   6.598
 5702POPC   C3A72149  29.970  33.205   6.987
 5702POPC   C4A72150  30.046  32.727   7.077
 5702POPC   C1B72151  29.551  33.053   6.287
 5702POPC   C2B72152  29.730  32.848   6.692
 5702POPC   C3B72153  29.591  32.931   7.178
 5702POPC   C4B72154  29.575  32.932   7.663
 5703POPC   NC372155   9.035   3.119   5.390
 5703POPC   PO472156   9.270   2.536   5.348
 5703POPC   GL172157   9.233   2.667   5.789
 5703POPC   GL272158   8.924   2.799   5.773
 5703POPC   C1A72159   9.219   2.573   6.268
 5703POPC   D2A72160   9.170   2.879   6.643
 5703POPC   C3A72161   9.128   2.866   7.119
 5703POPC   C4A72162   8.903   3.092   7.483
 5703POPC   C1B72163   8.743   2.712   6.143
 5703POPC   C2B72164   8.634   2.774   6.546
 5703POPC   C3B72165   8.671   2.958   6.946
 5703POPC   C4B72166   8.628   2.706   7.313
 5704POPC   NC372167  22.589  43.358   5.353
 5704POPC   PO472168  23.254  43.228   5.302
 5704POPC   GL172169  23.000  43.286   5.690
 5704POPC   GL272170  22.866  42.944   5.665
 5704POPC   C1A72171  23.097  43.373   6.159
 5704POPC   D2A72172  23.188  43.213   6.602
 5704POPC   C3A72173  22.934  43.260   7.023
 5704POPC   C4A72174  22.992  43.211   7.491
 5704POPC   C1B72175  22.843  42.912   6.127
 5704POPC   C2B72176  22.790  42.858   6.588
 5704POPC   C3B72177  22.683  42.818   7.017
 5704POPC   C4B72178  22.954  42.720   7.391
 5705POPC   NC372179  12.593  17.652   5.428
 5705POPC   PO472180  13.165  17.313   5.462
 5705POPC   GL172181  12.834  17.336   5.761
 5705POPC   GL272182  12.841  17.656   5.864
 5705POPC   C1A72183  12.700  17.324   6.204
 5705POPC   D2A72184  12.733  17.458   6.599
 5705POPC   C3A72185  12.757  17.183   6.902
 5705POPC   C4A72186  12.843  17.329   7.277
 5705POPC   C1B72187  12.712  17.867   6.271
 5705POPC   C2B72188  12.485  17.886   6.689
 5705POPC   C3B72189  12.712  17.788   7.071
 5705POPC   C4B72190  12.693  17.774   7.551
 5706POPC   NC372191  34.419  31.911   5.486
 5706POPC   PO472192  34.806  32.497   5.586
 5706POPC   GL172193  34.523  32.282   5.848
 5706POPC   GL272194  34.404  32.581   6.017
 5706POPC   C1A72195  34.483  32.093   6.260
 5706POPC   D2A72196  34.275  32.124   6.659
 5706POPC   C3A72197  34.549  32.026   6.994
 5706POPC   C4A72198  34.636  32.157   7.399
 5706POPC   C1B72199  34.754  32.528   6.280
 5706POPC   C2B72200  34.686  32.462   6.720
 5706POPC   C3B72201  34.767  32.587   7.134
 5706POPC   C4B72202  34.903  32.686   7.525
 5707POPC   NC372203  38.826  31.797   5.281
 5707POPC   PO472204  39.189  31.271   5.529
 5707POPC   GL172205  39.183  31.392   5.939
 5707POPC   GL272206  39.526  31.306   6.004
 5707POPC   C1A72207  39.160  31.297   6.376
 5707POPC   D2A72208  39.335  31.430   6.787
 5707POPC   C3A72209  39.080  31.510   7.126
 5707POPC   C4A72210  38.990  31.356   7.550
 5707POPC   C1B72211  39.484  31.684   6.301
 5707POPC   C2B72212  39.734  31.735   6.684
 5707POPC   C3B72213  39.634  31.736   7.134
 5707POPC   C4B72214  39.387  31.669   7.513
 5708POPC   NC372215  30.192   2.590   5.450
 5708POPC   PO472216  29.843   3.170   5.458
 5708POPC   GL172217  29.782   2.837   5.764
 5708POPC   GL272218  30.128   2.843   5.930
 5708POPC   C1A72219  29.685   2.778   6.202
 5708POPC   D2A72220  30.016   2.880   6.511
 5708POPC   C3A72221  29.918   3.034   6.938
 5708POPC   C4A72222  29.958   2.882   7.360
 5708POPC   C1B72223  30.394   2.583   6.227
 5708POPC   C2B72224  30.375   2.359   6.644
 5708POPC   C3B72225  30.212   2.542   7.038
 5708POPC   C4B72226  30.265   2.455   7.496
 5709POPC   NC372227  39.124  36.736   5.443
 5709POPC   PO472228  39.239  37.450   5.426
 5709POPC   GL172229  39.317  37.112   5.758
 5709POPC   GL272230  39.010  36.920   5.919
 5709POPC   C1A72231  39.448  36.985   6.191
 5709POPC   D2A72232  39.169  36.892   6.531
 5709POPC   C3A72233  39.192  36.638   6.865
 5709POPC   C4A72234  39.395  36.823   7.220
 5709POPC   C1B72235  38.765  37.073   6.290
 5709POPC   C2B72236  38.886  37.320   6.666
 5709POPC   C3B72237  39.043  37.109   7.007
 5709POPC   C4B72238  39.005  37.149   7.469
 5710POPC   NC372239  22.318  31.632   5.494
 5710POPC   PO472240  22.152  30.984   5.602
 5710POPC   GL172241  22.100  31.324   5.840
 5710POPC   GL272242  22.456  31.440   5.942
 5710POPC   C1A72243  22.020  31.604   6.156
 5710POPC   D2A72244  22.346  31.666   6.457
 5710POPC   C3A72245  22.146  31.702   6.822
 5710POPC   C4A72246  22.278  31.667   7.207
 5710POPC   C1B72247  22.301  31.189   6.294
 5710POPC   C2B72248  22.083  31.206   6.714
 5710POPC   C3B72249  22.241  31.162   7.169
 5710POPC   C4B72250  22.192  31.089   7.654
 5711POPC   NC372251  33.129  36.690   5.374
 5711POPC   PO472252  32.695  37.249   5.342
 5711POPC   GL172253  32.920  37.030   5.707
 5711POPC   GL272254  32.806  36.673   5.777
 5711POPC   C1A72255  33.119  36.936   6.121
 5711POPC   D2A72256  33.122  36.790   6.563
 5711POPC   C3A72257  33.030  37.123   6.888
 5711POPC   C4A72258  33.012  36.828   7.197
 5711POPC   C1B72259  32.652  36.744   6.201
 5711POPC   C2B72260  32.646  36.966   6.593
 5711POPC   C3B72261  32.545  36.933   7.046
 5711POPC   C4B72262  32.618  36.755   7.494
 5712POPC   NC372263  29.241  19.698   5.232
 5712POPC   PO472264  29.106  20.170   5.636
 5712POPC   GL172265  28.948  19.910   5.924
 5712POPC   GL272266  29.004  19.545   5.850
 5712POPC   C1A72267  28.982  19.961   6.344
 5712POPC   D2A72268  28.981  19.717   6.712
 5712POPC   C3A72269  29.003  20.025   7.028
 5712POPC   C4A72270  29.168  20.109   7.425
 5712POPC   C1B72271  29.295  19.575   6.235
 5712POPC   C2B72272  29.513  19.529   6.618
 5712POPC   C3B72273  29.633  19.710   7.002
 5712POPC   C4B72274  29.275  19.561   7.120
 5713POPC   NC372275  44.514  22.406   5.268
 5713POPC   PO472276  44.751  21.780   5.381
 5713POPC   GL172277  44.698  22.162   5.696
 5713POPC   GL272278  44.541  22.041   5.943
 5713POPC   C1A72279  44.611  22.481   6.134
 5713POPC   D2A72280  44.802  22.605   6.565
 5713POPC   C3A72281  44.691  22.543   7.019
 5713POPC   C4A72282  44.621  22.545   7.478
 5713POPC   C1B72283  44.743  21.987   6.339
 5713POPC   C2B72284  44.674  22.068   6.775
 5713POPC   C3B72285  44.647  22.088   7.233
 5713POPC   C4B72286  44.826  22.028   7.626
 5714POPC   NC372287  36.257  41.815   5.433
 5714POPC   PO472288  35.678  41.529   5.384
 5714POPC   GL172289  35.898  41.576   5.778
 5714POPC   GL272290  36.255  41.444   5.789
 5714POPC   C1A72291  36.000  41.629   6.225
 5714POPC   D2A72292  35.945  41.823   6.622
 5714POPC   C3A72293  36.045  41.623   7.015
 5714POPC   C4A72294  36.274  41.246   7.104
 5714POPC   C1B72295  36.485  41.441   6.183
 5714POPC   C2B72296  36.382  41.542   6.587
 5714POPC   C3B72297  36.551  41.722   6.914
 5714POPC   C4B72298  36.638  41.571   7.283
 5715POPC   NC372299  37.941  32.045   5.393
 5715POPC   PO472300  37.772  32.647   5.269
 5715POPC   GL172301  37.648  32.465   5.680
 5715POPC   GL272302  37.487  32.119   5.734
 5715POPC   C1A72303  37.664  32.466   6.153
 5715POPC   D2A72304  37.874  32.379   6.567
 5715POPC   C3A72305  37.629  32.470   6.961
 5715POPC   C4A72306  37.788  32.498   7.387
 5715POPC   C1B72307  37.415  31.968   6.182
 5715POPC   C2B72308  37.462  32.058   6.648
 5715POPC   C3B72309  37.439  32.012   7.104
 5715POPC   C4B72310  37.288  31.831   7.474
 5716POPC   NC372311  10.880  26.945   5.523
 5716POPC   PO472312  10.228  26.659   5.506
 5716POPC   GL172313  10.465  26.862   5.822
 5716POPC   GL272314  10.744  26.648   5.918
 5716POPC   C1A72315  10.508  27.103   6.200
 5716POPC   D2A72316  10.340  26.944   6.592
 5716POPC   C3A72317  10.623  26.742   6.873
 5716POPC   C4A72318  10.538  26.975   7.214
 5716POPC   C1B72319  10.503  26.576   6.268
 5716POPC   C2B72320  10.413  26.317   6.601
 5716POPC   C3B72321  10.226  26.391   6.991
 5716POPC   C4B72322  10.482  26.420   7.314
 5717POPC   NC372323   8.013  22.853   5.085
 5717POPC   PO472324   7.864  22.386   5.535
 5717POPC   GL172325   7.865  22.748   5.795
 5717POPC   GL272326   7.968  23.128   5.791
 5717POPC   C1A72327   8.018  22.801   6.203
 5717POPC   D2A72328   8.272  22.629   6.511
 5717POPC   C3A72329   8.113  22.827   6.870
 5717POPC   C4A72330   8.222  22.791   7.274
 5717POPC   C1B72331   8.343  23.183   6.118
 5717POPC   C2B72332   8.437  23.105   6.567
 5717POPC   C3B72333   8.591  22.998   6.964
 5717POPC   C4B72334   8.470  23.249   7.276
 5718POPC   NC372335  34.398  38.615   5.376
 5718POPC   PO472336  34.681  38.044   5.358
 5718POPC   GL172337  34.597  38.317   5.745
 5718POPC   GL272338  34.827  38.613   5.706
 5718POPC   C1A72339  34.382  38.501   6.124
 5718POPC   D2A72340  34.260  38.687   6.548
 5718POPC   C3A72341  34.407  38.418   6.882
 5718POPC   C4A72342  34.609  38.372   7.272
 5718POPC   C1B72343  34.844  38.715   6.167
 5718POPC   C2B72344  34.765  38.463   6.513
 5718POPC   C3B72345  34.946  38.484   6.902
 5718POPC   C4B72346  34.977  38.811   7.220
 5719POPC   NC372347  25.691   5.082   5.446
 5719POPC   PO472348  26.279   4.887   5.566
 5719POPC   GL172349  26.094   5.128   5.876
 5719POPC   GL272350  25.782   4.942   5.918
 5719POPC   C1A72351  26.102   5.026   6.332
 5719POPC   D2A72352  26.127   4.938   6.778
 5719POPC   C3A72353  26.218   5.286   7.078
 5719POPC   C4A72354  26.316   5.235   7.523
 5719POPC   C1B72355  25.700   5.310   6.187
 5719POPC   C2B72356  25.840   5.362   6.631
 5719POPC   C3B72357  25.723   5.162   7.012
 5719POPC   C4B72358  25.875   5.006   7.366
 5720POPC   NC372359  26.571  19.279   5.405
 5720POPC   PO472360  26.915  18.670   5.455
 5720POPC   GL172361  26.794  18.986   5.810
 5720POPC   GL272362  26.530  19.286   5.908
 5720POPC   C1A72363  26.668  18.914   6.220
 5720POPC   D2A72364  26.507  18.723   6.563
 5720POPC   C3A72365  26.749  18.763   6.904
 5720POPC   C4A72366  26.971  19.039   7.160
 5720POPC   C1B72367  26.747  19.403   6.320
 5720POPC   C2B72368  26.764  19.300   6.771
 5720POPC   C3B72369  26.560  19.332   7.204
 5720POPC   C4B72370  26.568  19.174   7.663
 5721POPC   NC372371   4.686  37.694   5.177
 5721POPC   PO472372   4.125  37.633   5.450
 5721POPC   GL172373   4.327  37.574   5.868
 5721POPC   GL272374   4.059  37.347   5.982
 5721POPC   C1A72375   4.375  37.553   6.319
 5721POPC   D2A72376   4.094  37.481   6.660
 5721POPC   C3A72377   4.411  37.560   6.955
 5721POPC   C4A72378   4.558  37.960   7.127
 5721POPC   C1B72379   3.914  37.756   6.232
 5721POPC   C2B72380   3.821  37.934   6.674
 5721POPC   C3B72381   3.939  37.748   7.091
 5721POPC   C4B72382   4.031  37.305   7.152
 5722POPC   NC372383  13.528  13.265   5.501
 5722POPC   PO472384  13.599  14.046   5.399
 5722POPC   GL172385  13.467  13.775   5.743
 5722POPC   GL272386  13.764  13.553   5.856
 5722POPC   C1A72387  13.445  13.809   6.202
 5722POPC   D2A72388  13.622  14.094   6.528
 5722POPC   C3A72389  13.664  13.859   6.895
 5722POPC   C4A72390  13.750  13.779   7.307
 5722POPC   C1B72391  13.826  13.262   6.221
 5722POPC   C2B72392  13.890  13.303   6.686
 5722POPC   C3B72393  13.589  13.349   7.016
 5722POPC   C4B72394  13.526  13.336   7.470
 5723POPC   NC372395  41.216   6.323   5.336
 5723POPC   PO472396  41.721   6.752   5.454
 5723POPC   GL172397  41.479   6.561   5.799
 5723POPC   GL272398  41.139   6.399   5.840
 5723POPC   C1A72399  41.555   6.678   6.213
 5723POPC   D2A72400  41.378   6.898   6.555
 5723POPC   C3A72401  41.514   6.869   6.960
 5723POPC   C4A72402  41.750   6.654   7.225
 5723POPC   C1B72403  41.197   6.302   6.267
 5723POPC   C2B72404  41.418   6.407   6.640
 5723POPC   C3B72405  41.377   6.358   7.052
 5723POPC   C4B72406  41.339   6.456   7.507
 5724POPC   NC372407  42.879   1.767   5.264
 5724POPC   PO472408  43.283   2.302   5.385
 5724POPC   GL172409  43.087   2.034   5.647
 5724POPC   GL272410  43.111   2.244   5.906
 5724POPC   C1A72411  42.975   1.755   6.014
 5724POPC   D2A72412  43.085   1.683   6.471
 5724POPC   C3A72413  42.969   1.968   6.828
 5724POPC   C4A72414  42.966   1.869   7.273
 5724POPC   C1B72415  43.435   2.383   6.206
 5724POPC   C2B72416  43.353   2.569   6.569
 5724POPC   C3B72417  43.368   2.421   6.942
 5724POPC   C4B72418  43.245   2.299   7.317
 5725POPC   NC372419  42.589  13.100   5.404
 5725POPC   PO472420  41.901  12.967   5.562
 5725POPC   GL172421  42.186  12.785   5.828
 5725POPC   GL272422  42.530  12.740   5.780
 5725POPC   C1A72423  42.167  12.720   6.240
 5725POPC   D2A72424  42.209  13.004   6.557
 5725POPC   C3A72425  42.114  12.769   6.883
 5725POPC   C4A72426  42.291  12.710   7.264
 5725POPC   C1B72427  42.584  13.018   6.147
 5725POPC   C2B72428  42.717  13.139   6.570
 5725POPC   C3B72429  42.588  13.003   6.975
 5725POPC   C4B72430  42.760  12.854   7.391
 5726POPC   NC372431  20.247  20.087   5.586
 5726POPC   PO472432  20.816  19.708   5.403
 5726POPC   GL172433  20.537  19.663   5.765
 5726POPC   GL272434  20.809  19.720   5.922
 5726POPC   C1A72435  20.433  19.885   6.224
 5726POPC   D2A72436  20.611  20.054   6.642
 5726POPC   C3A72437  20.449  19.848   7.078
 5726POPC   C4A72438  20.542  19.935   7.555
 5726POPC   C1B72439  20.935  19.631   6.275
 5726POPC   C2B72440  21.032  19.742   6.621
 5726POPC   C3B72441  20.946  19.855   6.983
 5726POPC   C4B72442  20.932  19.697   7.348
 5727POPC   NC372443   6.464  32.608   5.350
 5727POPC   PO472444   6.857  31.977   5.448
 5727POPC   GL172445   6.810  32.189   5.825
 5727POPC   GL272446   6.651  32.540   5.845
 5727POPC   C1A72447   6.844  32.271   6.248
 5727POPC   D2A72448   6.621  32.282   6.637
 5727POPC   C3A72449   6.836  32.484   6.954
 5727POPC   C4A72450   6.785  32.203   7.268
 5727POPC   C1B72451   6.346  32.432   6.215
 5727POPC   C2B72452   6.142  32.467   6.648
 5727POPC   C3B72453   6.349  32.592   7.044
 5727POPC   C4B72454   6.421  32.483   7.476
 5728POPC   NC372455  35.479  43.616   5.498
 5728POPC   PO472456  35.246  44.250   5.500
 5728POPC   GL172457  35.222  43.965   5.868
 5728POPC   GL272458  35.487  43.708   5.998
 5728POPC   C1A72459  35.282  44.068   6.319
 5728POPC   D2A72460  35.439  43.730   6.585
 5728POPC   C3A72461  35.544  43.894   6.950
 5728POPC   C4A72462  35.317  44.008   7.318
 5728POPC   C1B72463  35.088  43.618   6.233
 5728POPC   C2B72464  34.891  43.757   6.575
 5728POPC   C3B72465  35.038  43.717   7.000
 5728POPC   C4B72466  35.068  43.552   7.423
 5729POPC   NC372467   3.261  26.057   5.191
 5729POPC   PO472468   3.738  25.847   5.657
 5729POPC   GL172469   3.620  26.150   5.936
 5729POPC   GL272470   3.515  25.835   6.109
 5729POPC   C1A72471   3.549  26.231   6.388
 5729POPC   D2A72472   3.630  25.903   6.633
 5729POPC   C3A72473   3.559  25.939   7.042
 5729POPC   C4A72474   3.672  26.027   7.455
 5729POPC   C1B72475   3.147  25.818   6.303
 5729POPC   C2B72476   2.926  25.776   6.657
 5729POPC   C3B72477   3.121  25.661   7.037
 5729POPC   C4B72478   3.457  25.550   7.336
 5730POPC   NC372479  35.617  37.222   5.151
 5730POPC   PO472480  35.261  37.710   5.535
 5730POPC   GL172481  35.236  37.416   5.836
 5730POPC   GL272482  34.913  37.210   5.841
 5730POPC   C1A72483  35.439  37.463   6.234
 5730POPC   D2A72484  35.498  37.720   6.584
 5730POPC   C3A72485  35.644  37.777   6.997
 5730POPC   C4A72486  35.390  37.891   7.366
 5730POPC   C1B72487  34.905  37.460   6.215
 5730POPC   C2B72488  35.072  37.350   6.599
 5730POPC   C3B72489  35.256  37.444   6.975
 5730POPC   C4B72490  35.003  37.546   7.306
 5731POPC   NC372491  42.370  14.062   5.383
 5731POPC   PO472492  41.826  14.519   5.265
 5731POPC   GL172493  42.060  14.409   5.660
 5731POPC   GL272494  42.418  14.537   5.726
 5731POPC   C1A72495  41.992  14.334   6.124
 5731POPC   D2A72496  42.211  14.385   6.542
 5731POPC   C3A72497  42.000  14.330   6.943
 5731POPC   C4A72498  41.718  14.596   7.144
 5731POPC   C1B72499  42.473  14.214   6.047
 5731POPC   C2B72500  42.479  13.969   6.422
 5731POPC   C3B72501  42.380  13.981   6.841
 5731POPC   C4B72502  42.470  14.222   7.194
 5732POPC   NC372503  36.931  35.834   5.538
 5732POPC   PO472504  37.061  36.459   5.363
 5732POPC   GL172505  36.880  36.302   5.727
 5732POPC   GL272506  37.223  36.154   5.807
 5732POPC   C1A72507  36.575  36.432   6.056
 5732POPC   D2A72508  36.469  36.318   6.485
 5732POPC   C3A72509  36.786  36.135   6.743
 5732POPC   C4A72510  36.753  36.110   7.175
 5732POPC   C1B72511  37.237  36.020   6.236
 5732POPC   C2B72512  37.313  36.293   6.607
 5732POPC   C3B72513  37.234  36.199   7.021
 5732POPC   C4B72514  37.103  35.765   7.052
 5733POPC   NC372515  33.832  33.429   5.163
 5733POPC   PO472516  33.944  32.874   5.606
 5733POPC   GL172517  33.649  32.787   5.869
 5733POPC   GL272518  33.702  33.095   6.022
 5733POPC   C1A72519  33.597  32.625   6.232
 5733POPC   D2A72520  33.592  32.869   6.569
 5733POPC   C3A72521  33.530  32.630   6.914
 5733POPC   C4A72522  33.747  32.672   7.281
 5733POPC   C1B72523  33.834  33.321   6.384
 5733POPC   C2B72524  33.562  33.482   6.721
 5733POPC   C3B72525  33.591  33.355   7.125
 5733POPC   C4B72526  33.979  33.125   7.214
 5734POPC   NC372527  28.696   9.369   5.385
 5734POPC   PO472528  29.259   9.846   5.460
 5734POPC   GL172529  29.100   9.816   5.851
 5734POPC   GL272530  28.936   9.508   5.830
 5734POPC   C1A72531  29.261   9.689   6.247
 5734POPC   D2A72532  29.243   9.506   6.645
 5734POPC   C3A72533  29.278   9.792   7.035
 5734POPC   C4A72534  29.430   9.867   7.495
 5734POPC   C1B72535  28.983   9.247   6.209
 5734POPC   C2B72536  28.841   9.164   6.636
 5734POPC   C3B72537  28.971   9.362   7.047
 5734POPC   C4B72538  28.978   9.623   7.419
 5735POPC   NC372539  28.760  41.783   5.463
 5735POPC   PO472540  28.163  41.467   5.416
 5735POPC   GL172541  28.363  41.587   5.805
 5735POPC   GL272542  28.623  41.352   5.748
 5735POPC   C1A72543  28.319  41.789   6.230
 5735POPC   D2A72544  28.088  41.806   6.639
 5735POPC   C3A72545  28.166  41.747   7.099
 5735POPC   C4A72546  28.111  41.429   7.396
 5735POPC   C1B72547  28.686  41.414   6.197
 5735POPC   C2B72548  28.450  41.423   6.573
 5735POPC   C3B72549  28.447  41.328   6.991
 5735POPC   C4B72550  28.676  41.591   7.259
 5736POPC   NC372551   6.686  25.604   5.327
 5736POPC   PO472552   6.549  26.355   5.395
 5736POPC   GL172553   6.655  26.164   5.793
 5736POPC   GL272554   6.508  25.833   5.815
 5736POPC   C1A72555   6.749  26.108   6.249
 5736POPC   D2A72556   6.901  26.115   6.671
 5736POPC   C3A72557   6.664  26.208   7.046
 5736POPC   C4A72558   6.875  26.150   7.474
 5736POPC   C1B72559   6.341  25.800   6.247
 5736POPC   C2B72560   6.571  25.720   6.661
 5736POPC   C3B72561   6.787  25.715   7.047
 5736POPC   C4B72562   6.488  25.846   7.354
 5737POPC   NC372563   4.181  25.701   5.701
 5737POPC   PO472564   4.140  26.357   5.314
 5737POPC   GL172565   4.102  26.213   5.729
 5737POPC   GL272566   4.425  26.216   5.796
 5737POPC   C1A72567   4.042  26.129   6.213
 5737POPC   D2A72568   4.021  26.253   6.648
 5737POPC   C3A72569   4.438  26.182   6.853
 5737POPC   C4A72570   4.388  26.236   7.307
 5737POPC   C1B72571   4.541  25.965   6.181
 5737POPC   C2B72572   4.685  25.751   6.563
 5737POPC   C3B72573   4.521  25.679   6.980
 5737POPC   C4B72574   4.495  25.744   7.445
 5738POPC   NC372575  28.713   3.873   5.627
 5738POPC   PO472576  28.313   3.382   5.348
 5738POPC   GL172577  28.457   3.412   5.790
 5738POPC   GL272578  28.438   3.088   5.954
 5738POPC   C1A72579  28.422   3.682   6.188
 5738POPC   D2A72580  28.192   3.709   6.577
 5738POPC   C3A72581  28.352   3.602   6.978
 5738POPC   C4A72582  28.023   3.820   7.182
 5738POPC   C1B72583  28.730   3.281   6.270
 5738POPC   C2B72584  28.752   3.354   6.705
 5738POPC   C3B72585  28.696   3.233   7.151
 5738POPC   C4B72586  28.473   3.245   7.551
 5739POPC   NC372587  36.537  11.659   5.343
 5739POPC   PO472588  37.035  11.278   5.232
 5739POPC   GL172589  36.870  11.367   5.666
 5739POPC   GL272590  37.157  11.424   5.860
 5739POPC   C1A72591  36.718  11.345   6.124
 5739POPC   D2A72592  36.568  11.216   6.567
 5739POPC   C3A72593  36.691  11.287   6.995
 5739POPC   C4A72594  36.849  11.541   7.314
 5739POPC   C1B72595  37.198  11.264   6.282
 5739POPC   C2B72596  37.059  11.436   6.662
 5739POPC   C3B72597  37.213  11.222   7.026
 5739POPC   C4B72598  37.362  10.796   7.147
 5740POPC   NC372599  26.547  44.130   5.379
 5740POPC   PO472600  26.573  43.432   5.186
 5740POPC   GL172601  26.716  43.673   5.632
 5740POPC   GL272602  27.041  43.565   5.825
 5740POPC   C1A72603  26.766  43.888   6.095
 5740POPC   D2A72604  26.907  43.846   6.554
 5740POPC   C3A72605  26.751  44.074   6.936
 5740POPC   C4A72606  26.905  44.082   7.374
 5740POPC   C1B72607  27.189  43.453   6.262
 5740POPC   C2B72608  27.360  43.566   6.681
 5740POPC   C3B72609  27.122  43.725   7.057
 5740POPC   C4B72610  26.689  43.638   7.209
 5741POPC   NC372611  13.312   7.391   5.512
 5741POPC   PO472612  13.948   7.136   5.171
 5741POPC   GL172613  13.798   7.215   5.596
 5741POPC   GL272614  13.570   6.956   5.718
 5741POPC   C1A72615  13.775   7.347   6.058
 5741POPC   D2A72616  13.712   7.227   6.518
 5741POPC   C3A72617  13.830   7.394   6.941
 5741POPC   C4A72618  14.081   7.647   7.231
 5741POPC   C1B72619  13.380   7.010   6.153
 5741POPC   C2B72620  13.268   6.993   6.613
 5741POPC   C3B72621  13.353   7.201   7.034
 5741POPC   C4B72622  13.340   7.662   7.193
 5742POPC   NC372623   9.446  24.241   5.420
 5742POPC   PO472624  10.041  24.282   5.743
 5742POPC   GL172625   9.662  24.469   5.839
 5742POPC   GL272626   9.660  24.821   5.815
 5742POPC   C1A72627   9.629  24.454   6.261
 5742POPC   D2A72628   9.881  24.200   6.505
 5742POPC   C3A72629   9.853  24.309   6.912
 5742POPC   C4A72630   9.585  24.442   7.249
 5742POPC   C1B72631   9.443  24.917   6.208
 5742POPC   C2B72632   9.331  24.774   6.622
 5742POPC   C3B72633   9.461  24.906   7.047
 5742POPC   C4B72634   9.446  24.859   7.517
 5743POPC   NC372635  21.666  33.128   5.354
 5743POPC   PO472636  21.152  32.753   5.452
 5743POPC   GL172637  21.268  33.010   5.802
 5743POPC   GL272638  21.581  33.150   5.857
 5743POPC   C1A72639  21.176  33.172   6.203
 5743POPC   D2A72640  21.339  33.287   6.600
 5743POPC   C3A72641  21.118  33.091   6.922
 5743POPC   C4A72642  21.248  33.076   7.315
 5743POPC   C1B72643  21.683  33.385   6.228
 5743POPC   C2B72644  21.852  33.409   6.649
 5743POPC   C3B72645  21.602  33.376   7.037
 5743POPC   C4B72646  21.728  33.202   7.421
 5744POPC   NC372647  31.248  41.777   5.447
 5744POPC   PO472648  31.752  41.523   5.137
 5744POPC   GL172649  31.611  41.560   5.716
 5744POPC   GL272650  31.251  41.610   5.906
 5744POPC   C1A72651  31.665  41.736   6.195
 5744POPC   D2A72652  31.472  41.917   6.595
 5744POPC   C3A72653  31.530  41.863   7.052
 5744POPC   C4A72654  31.322  41.636   7.424
 5744POPC   C1B72655  31.255  41.371   6.249
 5744POPC   C2B72656  31.511  41.396   6.586
 5744POPC   C3B72657  31.477  41.359   6.993
 5744POPC   C4B72658  31.682  41.168   7.293
 5745POPC   NC372659  36.735  10.171   5.704
 5745POPC   PO472660  36.869   9.582   5.136
 5745POPC   GL172661  37.004   9.407   5.665
 5745POPC   GL272662  37.163   9.703   5.736
 5745POPC   C1A72663  36.873   9.582   6.140
 5745POPC   D2A72664  36.850   9.471   6.572
 5745POPC   C3A72665  36.777   9.792   6.864
 5745POPC   C4A72666  36.606   9.917   7.244
 5745POPC   C1B72667  37.371   9.546   6.110
 5745POPC   C2B72668  37.339   9.667   6.531
 5745POPC   C3B72669  37.245   9.512   6.918
 5745POPC   C4B72670  37.072   9.675   7.266
 5746POPC   NC372671   0.528  10.796   5.363
 5746POPC   PO472672   0.431  11.366   5.430
 5746POPC   GL172673   0.374  11.100   5.802
 5746POPC   GL272674   0.700  11.130   5.927
 5746POPC   C1A72675   0.271  11.246   6.235
 5746POPC   D2A72676   0.211  11.485   6.632
 5746POPC   C3A72677   0.375  11.253   7.004
 5746POPC   C4A72678   0.215  11.061   7.378
 5746POPC   C1B72679   0.790  11.399   6.295
 5746POPC   C2B72680   0.741  11.503   6.741
 5746POPC   C3B72681   0.869  11.490   7.192
 5746POPC   C4B72682   0.909  11.599   7.645
 5747POPC   NC372683  29.531  41.688   5.715
 5747POPC   PO472684  29.956  41.352   5.302
 5747POPC   GL172685  29.969  41.410   5.770
 5747POPC   GL272686  30.024  41.750   5.901
 5747POPC   C1A72687  29.853  41.419   6.234
 5747POPC   D2A72688  29.609  41.652   6.531
 5747POPC   C3A72689  29.822  41.615   6.926
 5747POPC   C4A72690  29.687  41.372   7.259
 5747POPC   C1B72691  30.223  41.788   6.263
 5747POPC   C2B72692  30.359  41.432   6.482
 5747POPC   C3B72693  30.332  41.261   6.885
 5747POPC   C4B72694  30.202  41.453   7.280
 5748POPC   NC372695  30.285  35.720   5.597
 5748POPC   PO472696  30.880  35.458   5.272
 5748POPC   GL172697  30.812  35.578   5.699
 5748POPC   GL272698  30.698  35.271   5.833
 5748POPC   C1A72699  30.916  35.677   6.151
 5748POPC   D2A72700  30.720  35.668   6.581
 5748POPC   C3A72701  30.953  35.652   6.956
 5748POPC   C4A72702  30.852  35.606   7.390
 5748POPC   C1B72703  30.632  35.198   6.285
 5748POPC   C2B72704  30.447  35.258   6.702
 5748POPC   C3B72705  30.562  35.339   7.078
 5748POPC   C4B72706  30.669  35.141   7.471
 5749POPC   NC372707  26.558  15.989   5.092
 5749POPC   PO472708  26.929  16.309   5.591
 5749POPC   GL172709  26.963  16.129   5.976
 5749POPC   GL272710  27.133  15.818   5.874
 5749POPC   C1A72711  26.726  15.954   6.333
 5749POPC   D2A72712  26.475  16.201   6.631
 5749POPC   C3A72713  26.644  16.227   7.067
 5749POPC   C4A72714  26.543  16.156   7.545
 5749POPC   C1B72715  27.306  15.855   6.232
 5749POPC   C2B72716  27.183  15.935   6.587
 5749POPC   C3B72717  26.947  15.813   6.917
 5749POPC   C4B72718  27.016  15.971   7.321
 5750POPC   NC372719  25.746  44.224   5.364
 5750POPC   PO472720  26.284  44.706   5.476
 5750POPC   GL172721  26.073  44.421   5.739
 5750POPC   GL272722  25.715  44.524   5.808
 5750POPC   C1A72723  26.017  44.292   6.169
 5750POPC   D2A72724  25.679  44.376   6.442
 5750POPC   C3A72725  25.852  44.403   6.838
 5750POPC   C4A72726  26.182  44.234   7.104
 5750POPC   C1B72727  25.888  44.784   6.164
 5750POPC   C2B72728  26.159  44.677   6.523
 5750POPC   C3B72729  26.218  44.751   6.977
 5750POPC   C4B72730  25.906  44.739   7.309
 5751POPC   NC372731  31.978  20.552   5.361
 5751POPC   PO472732  31.390  20.894   5.392
 5751POPC   GL172733  31.225  20.806   5.828
 5751POPC   GL272734  31.534  20.583   5.909
 5751POPC   C1A72735  31.258  20.807   6.299
 5751POPC   D2A72736  31.682  20.878   6.449
 5751POPC   C3A72737  31.763  20.914   6.898
 5751POPC   C4A72738  31.629  20.604   7.210
 5751POPC   C1B72739  31.547  20.410   6.338
 5751POPC   C2B72740  31.392  20.535   6.754
 5751POPC   C3B72741  31.327  20.220   7.114
 5751POPC   C4B72742  31.472  20.170   7.564
 5752POPC   NC372743  33.711  28.623   5.007
 5752POPC   PO472744  33.906  29.023   5.560
 5752POPC   GL172745  33.899  29.254   5.854
 5752POPC   GL272746  33.619  29.444   5.738
 5752POPC   C1A72747  33.998  29.158   6.279
 5752POPC   D2A72748  33.781  29.189   6.664
 5752POPC   C3A72749  33.972  29.102   7.039
 5752POPC   C4A72750  33.991  29.080   7.498
 5752POPC   C1B72751  33.478  29.231   6.157
 5752POPC   C2B72752  33.295  29.078   6.567
 5752POPC   C3B72753  33.451  29.011   7.013
 5752POPC   C4B72754  33.593  29.333   7.289
 5753POPC   NC372755  14.124  11.926   5.312
 5753POPC   PO472756  14.773  11.698   5.468
 5753POPC   GL172757  14.487  11.856   5.800
 5753POPC   GL272758  14.104  11.896   5.840
 5753POPC   C1A72759  14.483  11.975   6.232
 5753POPC   D2A72760  14.236  11.900   6.602
 5753POPC   C3A72761  14.466  12.089   6.925
 5753POPC   C4A72762  14.779  12.034   7.245
 5753POPC   C1B72763  14.016  12.189   6.198
 5753POPC   C2B72764  14.016  12.365   6.626
 5753POPC   C3B72765  13.964  12.198   7.032
 5753POPC   C4B72766  14.215  12.040   7.369
 5754POPC   NC372767  18.970  36.344   5.656
 5754POPC   PO472768  19.138  35.708   5.428
 5754POPC   GL172769  19.161  35.883   5.789
 5754POPC   GL272770  18.818  35.899   5.858
 5754POPC   C1A72771  19.375  36.092   6.116
 5754POPC   D2A72772  19.339  36.099   6.555
 5754POPC   C3A72773  19.080  36.367   6.788
 5754POPC   C4A72774  19.264  36.206   7.136
 5754POPC   C1B72775  18.882  36.087   6.260
 5754POPC   C2B72776  18.862  35.892   6.638
 5754POPC   C3B72777  18.785  36.003   7.062
 5754POPC   C4B72778  18.782  35.647   7.333
 5755POPC   NC372779  10.009  24.652   5.474
 5755POPC   PO472780   9.707  25.253   5.492
 5755POPC   GL172781   9.963  25.261   5.851
 5755POPC   GL272782  10.207  25.008   5.790
 5755POPC   C1A72783   9.837  25.287   6.287
 5755POPC   D2A72784   9.538  25.253   6.614
 5755POPC   C3A72785   9.716  25.370   6.988
 5755POPC   C4A72786   9.514  25.346   7.353
 5755POPC   C1B72787  10.020  24.822   6.169
 5755POPC   C2B72788   9.839  24.818   6.580
 5755POPC   C3B72789   9.978  24.805   6.996
 5755POPC   C4B72790   9.898  25.021   7.345
 5756POPC   NC372791  15.670  35.892   5.539
 5756POPC   PO472792  16.153  36.291   5.303
 5756POPC   GL172793  15.928  36.298   5.721
 5756POPC   GL272794  16.057  36.025   5.898
 5756POPC   C1A72795  15.754  36.327   6.165
 5756POPC   D2A72796  15.830  36.050   6.517
 5756POPC   C3A72797  15.703  36.251   6.887
 5756POPC   C4A72798  15.772  36.455   7.264
 5756POPC   C1B72799  16.307  35.956   6.293
 5756POPC   C2B72800  16.547  35.896   6.686
 5756POPC   C3B72801  16.243  36.119   6.900
 5756POPC   C4B72802  16.029  36.032   7.259
 5757POPC   NC372803   2.884   2.101   5.331
 5757POPC   PO472804   2.315   1.984   5.431
 5757POPC   GL172805   2.620   1.948   5.739
 5757POPC   GL272806   2.650   2.279   5.835
 5757POPC   C1A72807   2.929   1.915   6.071
 5757POPC   D2A72808   2.828   1.792   6.485
 5757POPC   C3A72809   3.051   1.754   6.849
 5757POPC   C4A72810   2.763   1.808   7.187
 5757POPC   C1B72811   2.463   2.118   6.233
 5757POPC   C2B72812   2.476   2.249   6.686
 5757POPC   C3B72813   2.747   2.359   7.077
 5757POPC   C4B72814   2.998   2.492   7.455
 5758POPC   NC372815  10.532  18.182   5.467
 5758POPC   PO472816  10.621  18.851   5.448
 5758POPC   GL172817  10.463  18.565   5.847
 5758POPC   GL272818  10.467  18.162   5.962
 5758POPC   C1A72819  10.598  18.530   6.290
 5758POPC   D2A72820  10.621  18.155   6.569
 5758POPC   C3A72821  10.792  18.290   6.943
 5758POPC   C4A72822  10.523  18.430   7.222
 5758POPC   C1B72823  10.286  17.861   6.269
 5758POPC   C2B72824  10.067  17.973   6.652
 5758POPC   C3B72825  10.251  18.061   7.035
 5758POPC   C4B72826  10.357  17.996   7.478
 5759POPC   NC372827  24.214  29.750   5.468
 5759POPC   PO472828  23.635  29.254   5.356
 5759POPC   GL172829  23.751  29.234   5.769
 5759POPC   GL272830  23.793  29.599   5.760
 5759POPC   C1A72831  23.579  29.262   6.168
 5759POPC   D2A72832  23.318  29.280   6.522
 5759POPC   C3A72833  23.542  29.074   6.853
 5759POPC   C4A72834  23.753  29.196   7.234
 5759POPC   C1B72835  23.901  29.675   6.179
 5759POPC   C2B72836  23.820  29.461   6.572
 5759POPC   C3B72837  24.066  29.484   6.911
 5759POPC   C4B72838  23.905  29.705   7.255
 5760POPC   NC372839  35.244  17.915   5.631
 5760POPC   PO472840  35.524  18.490   5.289
 5760POPC   GL172841  35.347  18.411   5.681
 5760POPC   GL272842  35.624  18.226   5.794
 5760POPC   C1A72843  35.257  18.362   6.135
 5760POPC   D2A72844  35.518  18.438   6.487
 5760POPC   C3A72845  35.449  18.314   6.896
 5760POPC   C4A72846  35.274  18.252   7.313
 5760POPC   C1B72847  35.628  17.993   6.206
 5760POPC   C2B72848  35.584  17.851   6.660
 5760POPC   C3B72849  35.551  17.871   7.129
 5760POPC   C4B72850  35.515  17.908   7.596
 5761POPC   NC372851  44.406   2.210   5.460
 5761POPC   PO472852  44.816   1.719   5.396
 5761POPC   GL172853  44.573   1.749   5.782
 5761POPC   GL272854  44.818   1.987   5.841
 5761POPC   C1A72855  44.318   1.783   6.225
 5761POPC   D2A72856  44.263   1.599   6.691
 5761POPC   C3A72857  44.245   1.908   7.036
 5761POPC   C4A72858  44.385   1.880   7.489
 5761POPC   C1B72859  44.815   1.736   6.219
 5761POPC   C2B72860  44.684   1.872   6.633
 5761POPC   C3B72861  44.693   1.721   7.066
 5761POPC   C4B72862  44.907   1.879   7.422
 5762POPC   NC372863  42.525  19.435   5.480
 5762POPC   PO472864  41.834  19.463   5.404
 5762POPC   GL172865  41.961  19.074   5.710
 5762POPC   GL272866  42.335  19.021   5.778
 5762POPC   C1A72867  42.030  18.925   6.168
 5762POPC   D2A72868  42.254  18.919   6.586
 5762POPC   C3A72869  42.070  18.949   7.001
 5762POPC   C4A72870  42.234  19.083   7.414
 5762POPC   C1B72871  42.587  18.969   6.183
 5762POPC   C2B72872  42.719  19.139   6.620
 5762POPC   C3B72873  42.636  19.162   7.099
 5762POPC   C4B72874  42.752  19.461   7.452
 5763POPC   NC372875  20.129  24.671   5.486
 5763POPC   PO472876  19.702  24.151   5.476
 5763POPC   GL172877  19.873  24.359   5.812
 5763POPC   GL272878  20.207  24.245   5.772
 5763POPC   C1A72879  19.718  24.405   6.241
 5763POPC   D2A72880  19.532  24.653   6.572
 5763POPC   C3A72881  19.707  24.608   6.991
 5763POPC   C4A72882  19.667  24.483   7.407
 5763POPC   C1B72883  20.184  24.135   6.191
 5763POPC   C2B72884  20.261  24.364   6.560
 5763POPC   C3B72885  20.288  24.334   6.994
 5763POPC   C4B72886  20.047  24.151   7.275
 5764POPC   NC372887  11.929  19.239   5.552
 5764POPC   PO472888  12.326  19.714   5.233
 5764POPC   GL172889  12.298  19.772   5.710
 5764POPC   GL272890  12.265  19.459   5.859
 5764POPC   C1A72891  12.078  19.912   6.092
 5764POPC   D2A72892  12.126  19.917   6.539
 5764POPC   C3A72893  11.850  19.821   6.853
 5764POPC   C4A72894  11.953  19.894   7.269
 5764POPC   C1B72895  12.165  19.435   6.277
 5764POPC   C2B72896  12.372  19.471   6.679
 5764POPC   C3B72897  12.447  19.630   7.097
 5764POPC   C4B72898  12.259  19.561   7.502
 5765POPC   NC372899  10.096  29.667   5.467
 5765POPC   PO472900   9.375  29.656   5.496
 5765POPC   GL172901   9.690  29.702   5.829
 5765POPC   GL272902   9.849  30.022   5.760
 5765POPC   C1A72903   9.789  29.855   6.260
 5765POPC   D2A72904   9.497  29.914   6.592
 5765POPC   C3A72905   9.633  29.858   7.004
 5765POPC   C4A72906   9.525  29.984   7.390
 5765POPC   C1B72907   9.968  30.322   6.083
 5765POPC   C2B72908   9.887  30.331   6.530
 5765POPC   C3B72909   9.927  30.279   6.973
 5765POPC   C4B72910   9.972  30.252   7.429
 5766POPC   NC372911   8.685  41.229   5.526
 5766POPC   PO472912   8.242  41.757   5.338
 5766POPC   GL172913   8.200  41.539   5.733
 5766POPC   GL272914   8.474  41.535   5.879
 5766POPC   C1A72915   8.007  41.457   6.154
 5766POPC   D2A72916   7.831  41.400   6.566
 5766POPC   C3A72917   8.069  41.539   6.968
 5766POPC   C4A72918   8.235  41.464   7.378
 5766POPC   C1B72919   8.495  41.344   6.261
 5766POPC   C2B72920   8.326  41.244   6.641
 5766POPC   C3B72921   8.486  41.217   7.022
 5766POPC   C4B72922   8.766  41.457   7.276
 5767POPC   NC372923   5.657  20.313   5.667
 5767POPC   PO472924   5.176  20.409   5.205
 5767POPC   GL172925   5.167  20.605   5.637
 5767POPC   GL272926   5.448  20.776   5.808
 5767POPC   C1A72927   5.028  20.584   6.096
 5767POPC   D2A72928   4.816  20.499   6.510
 5767POPC   C3A72929   5.003  20.576   6.944
 5767POPC   C4A72930   4.759  20.432   7.308
 5767POPC   C1B72931   5.458  20.819   6.252
 5767POPC   C2B72932   5.368  20.520   6.554
 5767POPC   C3B72933   5.499  20.425   6.970
 5767POPC   C4B72934   5.546  20.728   7.333
 5768POPC   NC372935  31.607  26.747   5.355
 5768POPC   PO472936  31.027  26.563   5.547
 5768POPC   GL172937  31.414  26.645   5.819
 5768POPC   GL272938  31.720  26.446   5.792
 5768POPC   C1A72939  31.605  26.877   6.185
 5768POPC   D2A72940  31.427  27.118   6.562
 5768POPC   C3A72941  31.333  26.947   6.981
 5768POPC   C4A72942  31.425  26.952   7.430
 5768POPC   C1B72943  31.574  26.357   6.222
 5768POPC   C2B72944  31.572  26.569   6.616
 5768POPC   C3B72945  31.480  26.464   7.038
 5768POPC   C4B72946  31.758  26.569   7.358
 5769POPC   NC372947  21.176   0.083   5.445
 5769POPC   PO472948  21.319  44.501   5.147
 5769POPC   GL172949  21.524  44.501   5.650
 5769POPC   GL272950  21.274  44.351   5.916
 5769POPC   C1A72951  21.570  44.691   6.107
 5769POPC   D2A72952  21.246  44.630   6.456
 5769POPC   C3A72953  21.360  44.807   6.860
 5769POPC   C4A72954  21.375  44.667   7.246
 5769POPC   C1B72955  21.053  44.166   6.227
 5769POPC   C2B72956  21.144  44.104   6.610
 5769POPC   C3B72957  21.118  44.333   6.934
 5769POPC   C4B72958  21.126  44.220   7.355
 5770POPC   NC372959  24.247  35.930   5.427
 5770POPC   PO472960  24.626  36.471   5.575
 5770POPC   GL172961  24.487  36.127   5.860
 5770POPC   GL272962  24.190  35.879   5.929
 5770POPC   C1A72963  24.424  36.131   6.285
 5770POPC   D2A72964  24.229  36.057   6.669
 5770POPC   C3A72965  24.331  36.361   6.989
 5770POPC   C4A72966  24.491  36.260   7.397
 5770POPC   C1B72967  24.218  35.646   6.319
 5770POPC   C2B72968  24.197  35.553   6.783
 5770POPC   C3B72969  24.238  35.822   7.147
 5770POPC   C4B72970  24.294  35.844   7.591
 5771POPC   NC372971   3.636  35.857   5.547
 5771POPC   PO472972   3.280  36.394   5.330
 5771POPC   GL172973   3.435  36.497   5.761
 5771POPC   GL272974   3.487  36.182   5.901
 5771POPC   C1A72975   3.577  36.539   6.237
 5771POPC   D2A72976   3.762  36.341   6.631
 5771POPC   C3A72977   3.519  36.482   7.008
 5771POPC   C4A72978   3.472  36.436   7.469
 5771POPC   C1B72979   3.398  36.057   6.329
 5771POPC   C2B72980   3.392  36.028   6.774
 5771POPC   C3B72981   3.425  35.992   7.186
 5771POPC   C4B72982   3.677  35.768   7.446
 5772POPC   NC372983  31.595  29.533   5.556
 5772POPC   PO472984  31.442  30.126   5.236
 5772POPC   GL172985  31.430  30.018   5.691
 5772POPC   GL272986  31.787  30.030   5.703
 5772POPC   C1A72987  31.445  29.811   6.140
 5772POPC   D2A72988  31.144  29.778   6.530
 5772POPC   C3A72989  31.355  29.884   6.928
 5772POPC   C4A72990  31.490  29.590   7.268
 5772POPC   C1B72991  31.698  30.268   6.097
 5772POPC   C2B72992  31.540  30.277   6.527
 5772POPC   C3B72993  31.730  30.263   6.930
 5772POPC   C4B72994  31.883  29.903   7.140
 5773POPC   NC372995   8.030  23.837   5.258
 5773POPC   PO472996   8.372  23.220   5.319
 5773POPC   GL172997   8.286  23.544   5.717
 5773POPC   GL272998   8.124  23.888   5.746
 5773POPC   C1A72999   8.088  23.610   6.166
 5773POPC   D2A73000   7.961  23.287   6.483
 5773POPC   C3A73001   8.117  23.347   6.912
 5773POPC   C4A73002   8.201  23.703   7.174
 5773POPC   C1B73003   7.836  24.062   6.060
 5773POPC   C2B73004   7.683  23.963   6.501
 5773POPC   C3B73005   7.823  23.981   6.926
 5773POPC   C4B73006   7.726  23.810   7.319
 5774POPC   NC373007   8.337  22.824   5.563
 5774POPC   PO473008   8.947  23.002   5.167
 5774POPC   GL173009   8.849  22.741   5.644
 5774POPC   GL273010   8.709  22.887   5.922
 5774POPC   C1A73011   9.117  22.576   6.049
 5774POPC   D2A73012   9.149  22.468   6.489
 5774POPC   C3A73013   8.979  22.664   6.845
 5774POPC   C4A73014   9.140  22.882   7.203
 5774POPC   C1B73015   8.827  22.859   6.371
 5774POPC   C2B73016   8.968  23.186   6.678
 5774POPC   C3B73017   9.005  23.357   7.101
 5774POPC   C4B73018   8.925  23.325   7.547
 5775POPC   NC373019  11.035  35.056   5.301
 5775POPC   PO473020  11.517  35.473   5.413
 5775POPC   GL173021  11.404  35.214   5.802
 5775POPC   GL273022  11.675  34.932   5.812
 5775POPC   C1A73023  11.214  35.275   6.258
 5775POPC   D2A73024  10.995  35.264   6.671
 5775POPC   C3A73025  11.213  35.225   7.067
 5775POPC   C4A73026  11.550  35.419   7.208
 5775POPC   C1B73027  11.701  35.073   6.233
 5775POPC   C2B73028  11.578  35.269   6.647
 5775POPC   C3B73029  11.686  34.992   6.996
 5775POPC   C4B73030  11.603  34.966   7.474
 5776POPC   NC373031  35.156  17.105   5.481
 5776POPC   PO473032  35.620  16.587   5.505
 5776POPC   GL173033  35.448  16.849   5.809
 5776POPC   GL273034  35.165  16.668   5.883
 5776POPC   C1A73035  35.335  17.045   6.209
 5776POPC   D2A73036  35.375  16.840   6.605
 5776POPC   C3A73037  35.358  17.068   6.970
 5776POPC   C4A73038  35.441  16.992   7.373
 5776POPC   C1B73039  35.530  16.540   6.197
 5776POPC   C2B73040  35.799  16.465   6.558
 5776POPC   C3B73041  35.675  16.490   6.996
 5776POPC   C4B73042  35.272  16.568   7.159
 5777POPC   NC373043  33.969  37.247   5.494
 5777POPC   PO473044  33.569  36.763   5.356
 5777POPC   GL173045  33.502  36.608   5.789
 5777POPC   GL273046  33.866  36.565   5.837
 5777POPC   C1A73047  33.510  36.627   6.258
 5777POPC   D2A73048  33.521  37.084   6.459
 5777POPC   C3A73049  33.543  37.122   6.914
 5777POPC   C4A73050  33.495  36.821   7.293
 5777POPC   C1B73051  33.907  36.902   6.130
 5777POPC   C2B73052  33.896  36.771   6.574
 5777POPC   C3B73053  33.922  36.818   7.024
 5777POPC   C4B73054  33.884  37.182   7.320
 5778POPC   NC373055  19.565  37.892   5.128
 5778POPC   PO473056  19.100  37.522   5.314
 5778POPC   GL173057  19.103  37.714   5.766
 5778POPC   GL273058  18.810  37.729   5.943
 5778POPC   C1A73059  19.260  37.908   6.172
 5778POPC   D2A73060  19.138  37.809   6.614
 5778POPC   C3A73061  19.288  37.968   6.984
 5778POPC   C4A73062  19.186  37.863   7.404
 5778POPC   C1B73063  19.001  37.459   6.263
 5778POPC   C2B73064  18.940  37.324   6.686
 5778POPC   C3B73065  18.919  37.561   7.056
 5778POPC   C4B73066  18.805  37.529   7.474
 5779POPC   NC373067  42.563   4.270   5.346
 5779POPC   PO473068  43.175   4.108   5.287
 5779POPC   GL173069  43.093   4.178   5.752
 5779POPC   GL273070  43.000   4.525   5.834
 5779POPC   C1A73071  42.943   4.035   6.190
 5779POPC   D2A73072  42.990   4.214   6.647
 5779POPC   C3A73073  43.095   4.062   7.074
 5779POPC   C4A73074  43.321   4.138   7.486
 5779POPC   C1B73075  43.192   4.463   6.267
 5779POPC   C2B73076  43.319   4.623   6.698
 5779POPC   C3B73077  43.386   4.500   7.131
 5779POPC   C4B73078  43.379   4.663   7.584
 5780POPC   NC373079  43.731  13.537   5.541
 5780POPC   PO473080  44.381  13.628   5.457
 5780POPC   GL173081  44.212  13.556   5.831
 5780POPC   GL273082  44.072  13.876   5.884
 5780POPC   C1A73083  43.958  13.410   6.182
 5780POPC   D2A73084  44.085  13.381   6.611
 5780POPC   C3A73085  43.772  13.424   6.935
 5780POPC   C4A73086  43.811  13.194   7.317
 5780POPC   C1B73087  44.210  13.832   6.318
 5780POPC   C2B73088  43.936  13.866   6.691
 5780POPC   C3B73089  43.811  13.892   7.124
 5780POPC   C4B73090  43.941  14.129   7.473
 5781POPC   NC373091  21.630  12.980   5.501
 5781POPC   PO473092  21.159  12.559   5.438
 5781POPC   GL173093  21.099  12.814   5.893
 5781POPC   GL273094  20.849  13.169   5.928
 5781POPC   C1A73095  21.366  12.781   6.273
 5781POPC   D2A73096  21.719  12.615   6.536
 5781POPC   C3A73097  21.511  12.562   6.948
 5781POPC   C4A73098  21.081  12.509   7.035
 5781POPC   C1B73099  21.155  13.256   6.240
 5781POPC   C2B73100  21.428  13.199   6.598
 5781POPC   C3B73101  21.529  13.137   7.024
 5781POPC   C4B73102  21.309  13.223   7.393
 5782POPC   NC373103  23.146   0.297   5.489
 5782POPC   PO473104  22.744   0.878   5.485
 5782POPC   GL173105  22.649   0.648   5.838
 5782POPC   GL273106  22.787   0.291   5.900
 5782POPC   C1A73107  22.756   0.706   6.254
 5782POPC   D2A73108  22.960   0.542   6.594
 5782POPC   C3A73109  22.650   0.402   6.886
 5782POPC   C4A73110  22.681   0.432   7.342
 5782POPC   C1B73111  23.185   0.318   6.164
 5782POPC   C2B73112  23.314   0.164   6.589
 5782POPC   C3B73113  23.162   0.332   7.020
 5782POPC   C4B73114  23.149   0.187   7.438
 5783POPC   NC373115  14.043  32.186   5.345
 5783POPC   PO473116  14.631  32.443   5.405
 5783POPC   GL173117  14.319  32.351   5.773
 5783POPC   GL273118  14.197  31.981   5.813
 5783POPC   C1A73119  14.401  32.279   6.242
 5783POPC   D2A73120  14.670  32.499   6.572
 5783POPC   C3A73121  14.653  32.311   6.950
 5783POPC   C4A73122  14.297  32.258   7.181
 5783POPC   C1B73123  14.273  31.790   6.232
 5783POPC   C2B73124  14.223  31.970   6.664
 5783POPC   C3B73125  14.186  31.786   7.075
 5783POPC   C4B73126  13.931  31.874   7.462
 5784POPC   NC373127  10.226  40.289   5.422
 5784POPC   PO473128  10.668  39.774   5.351
 5784POPC   GL173129  10.699  39.944   5.789
 5784POPC   GL273130  10.841  39.650   5.934
 5784POPC   C1A73131  10.486  40.176   6.169
 5784POPC   D2A73132  10.468  40.370   6.615
 5784POPC   C3A73133  10.532  40.084   6.986
 5784POPC   C4A73134  10.314  39.689   7.105
 5784POPC   C1B73135  10.548  39.637   6.235
 5784POPC   C2B73136  10.716  39.868   6.568
 5784POPC   C3B73137  10.896  39.698   6.927
 5784POPC   C4B73138  10.726  39.408   7.191
 5785POPC   NC373139  20.033  32.574   5.120
 5785POPC   PO473140  19.701  33.083   5.456
 5785POPC   GL173141  19.895  33.047   5.856
 5785POPC   GL273142  19.905  32.760   5.953
 5785POPC   C1A73143  19.842  33.140   6.306
 5785POPC   D2A73144  20.121  33.098   6.671
 5785POPC   C3A73145  19.906  32.896   7.020
 5785POPC   C4A73146  19.462  32.877   7.158
 5785POPC   C1B73147  20.189  32.713   6.336
 5785POPC   C2B73148  20.098  32.496   6.743
 5785POPC   C3B73149  19.894  32.407   7.178
 5785POPC   C4B73150  20.016  32.555   7.600
 5786POPC   NC373151  26.286   4.439   5.483
 5786POPC   PO473152  25.629   4.599   5.515
 5786POPC   GL173153  25.923   4.385   5.843
 5786POPC   GL273154  26.190   4.621   5.978
 5786POPC   C1A73155  26.195   4.205   6.247
 5786POPC   D2A73156  26.307   4.012   6.663
 5786POPC   C3A73157  26.083   4.130   7.047
 5786POPC   C4A73158  26.206   4.338   7.418
 5786POPC   C1B73159  25.840   4.586   6.289
 5786POPC   C2B73160  25.940   4.464   6.683
 5786POPC   C3B73161  25.862   4.587   7.090
 5786POPC   C4B73162  25.726   4.485   7.510
 5787POPC   NC373163   0.764  37.628   5.549
 5787POPC   PO473164   1.400  37.474   5.331
 5787POPC   GL173165   1.343  37.601   5.795
 5787POPC   GL273166   1.057  37.792   5.936
 5787POPC   C1A73167   1.527  37.585   6.229
 5787POPC   D2A73168   1.366  37.391   6.606
 5787POPC   C3A73169   1.377  37.527   7.048
 5787POPC   C4A73170   1.166  37.582   7.437
 5787POPC   C1B73171   1.162  37.983   6.326
 5787POPC   C2B73172   1.218  37.935   6.752
 5787POPC   C3B73173   1.232  38.029   7.164
 5787POPC   C4B73174   0.961  38.060   7.492
 5788POPC   NC373175  35.621  18.039   5.191
 5788POPC   PO473176  35.371  17.516   5.458
 5788POPC   GL173177  35.404  17.417   5.856
 5788POPC   GL273178  35.721  17.272   5.803
 5788POPC   C1A73179  35.313  17.605   6.254
 5788POPC   D2A73180  35.049  17.759   6.591
 5788POPC   C3A73181  35.234  17.553   6.922
 5788POPC   C4A73182  35.161  17.416   7.344
 5788POPC   C1B73183  35.813  17.451   6.193
 5788POPC   C2B73184  35.616  17.345   6.563
 5788POPC   C3B73185  35.789  17.435   6.932
 5788POPC   C4B73186  35.671  17.432   7.327
 5789POPC   NC373187  22.387   6.252   5.651
 5789POPC   PO473188  21.911   6.657   5.277
 5789POPC   GL173189  21.931   6.567   5.745
 5789POPC   GL273190  21.974   6.872   5.943
 5789POPC   C1A73191  22.048   6.428   6.212
 5789POPC   D2A73192  22.342   6.527   6.569
 5789POPC   C3A73193  22.223   6.473   7.009
 5789POPC   C4A73194  22.374   6.534   7.449
 5789POPC   C1B73195  22.206   6.937   6.286
 5789POPC   C2B73196  22.123   6.956   6.704
 5789POPC   C3B73197  22.028   6.967   7.116
 5789POPC   C4B73198  22.296   7.161   7.429
 5790POPC   NC373199  23.177  23.759   5.358
 5790POPC   PO473200  22.732  23.368   5.429
 5790POPC   GL173201  22.872  23.625   5.788
 5790POPC   GL273202  23.110  23.922   5.843
 5790POPC   C1A73203  22.664  23.779   6.177
 5790POPC   D2A73204  22.417  23.661   6.549
 5790POPC   C3A73205  22.595  23.741   6.961
 5790POPC   C4A73206  22.579  23.938   7.388
 5790POPC   C1B73207  23.159  23.637   6.202
 5790POPC   C2B73208  22.940  23.598   6.598
 5790POPC   C3B73209  23.086  23.607   7.022
 5790POPC   C4B73210  23.068  23.855   7.383
 5791POPC   NC373211  38.718   6.894   5.570
 5791POPC   PO473212  38.103   6.458   5.429
 5791POPC   GL173213  38.354   6.577   5.807
 5791POPC   GL273214  38.250   6.920   5.846
 5791POPC   C1A73215  38.613   6.581   6.205
 5791POPC   D2A73216  38.507   6.454   6.618
 5791POPC   C3A73217  38.760   6.434   6.998
 5791POPC   C4A73218  38.589   6.409   7.409
 5791POPC   C1B73219  38.185   6.845   6.259
 5791POPC   C2B73220  38.222   6.863   6.693
 5791POPC   C3B73221  38.350   6.748   7.094
 5791POPC   C4B73222  38.096   6.998   7.382
 5792POPC   NC373223  10.686  16.044   5.441
 5792POPC   PO473224  10.218  15.521   5.480
 5792POPC   GL173225  10.313  15.823   5.801
 5792POPC   GL273226  10.655  15.757   5.854
 5792POPC   C1A73227  10.422  15.989   6.243
 5792POPC   D2A73228  10.438  16.304   6.579
 5792POPC   C3A73229  10.599  16.160   6.964
 5792POPC   C4A73230  10.324  16.036   7.325
 5792POPC   C1B73231  10.524  15.479   6.176
 5792POPC   C2B73232  10.617  15.616   6.576
 5792POPC   C3B73233  10.431  15.685   6.942
 5792POPC   C4B73234  10.717  15.733   7.296
 5793POPC   NC373235  18.451  12.572   5.104
 5793POPC   PO473236  18.056  12.960   5.449
 5793POPC   GL173237  18.213  12.911   5.843
 5793POPC   GL273238  17.917  12.800   5.948
 5793POPC   C1A73239  18.482  12.933   6.200
 5793POPC   D2A73240  18.653  12.617   6.471
 5793POPC   C3A73241  18.447  12.592   6.867
 5793POPC   C4A73242  18.474  12.748   7.283
 5793POPC   C1B73243  17.979  13.076   6.288
 5793POPC   C2B73244  18.138  12.972   6.683
 5793POPC   C3B73245  18.175  13.120   7.104
 5793POPC   C4B73246  18.172  13.291   7.541
 5794POPC   NC373247  29.414  20.612   5.063
 5794POPC   PO473248  30.028  20.412   5.396
 5794POPC   GL173249  30.183  20.539   5.836
 5794POPC   GL273250  29.925  20.770   5.941
 5794POPC   C1A73251  30.126  20.455   6.297
 5794POPC   D2A73252  29.798  20.438   6.611
 5794POPC   C3A73253  29.992  20.319   6.955
 5794POPC   C4A73254  30.044  20.489   7.350
 5794POPC   C1B73255  29.764  21.035   6.246
 5794POPC   C2B73256  29.531  20.907   6.649
 5794POPC   C3B73257  29.695  20.752   7.037
 5794POPC   C4B73258  29.836  20.946   7.411
 5795POPC   NC373259  20.474  28.640   5.355
 5795POPC   PO473260  21.034  28.359   5.245
 5795POPC   GL173261  20.748  28.430   5.708
 5795POPC   GL273262  20.536  28.140   5.860
 5795POPC   C1A73263  20.596  28.622   6.102
 5795POPC   D2A73264  20.511  28.425   6.541
 5795POPC   C3A73265  20.542  28.597   6.967
 5795POPC   C4A73266  20.389  28.664   7.383
 5795POPC   C1B73267  20.822  28.194   6.192
 5795POPC   C2B73268  21.044  28.475   6.450
 5795POPC   C3B73269  20.999  28.400   6.879
 5795POPC   C4B73270  21.007  28.499   7.319
 5796POPC   NC373271  19.750  29.282   5.322
 5796POPC   PO473272  19.887  29.785   5.572
 5796POPC   GL173273  19.996  29.347   5.812
 5796POPC   GL273274  19.834  28.993   5.803
 5796POPC   C1A73275  19.891  29.198   6.270
 5796POPC   D2A73276  19.519  29.202   6.568
 5796POPC   C3A73277  19.606  29.136   7.006
 5796POPC   C4A73278  19.979  28.878   7.133
 5796POPC   C1B73279  19.644  28.759   6.170
 5796POPC   C2B73280  19.772  28.746   6.607
 5796POPC   C3B73281  19.564  28.639   6.974
 5796POPC   C4B73282  19.461  28.771   7.380
 5797POPC   NC373283  34.611  28.255   5.185
 5797POPC   PO473284  34.148  28.743   5.121
 5797POPC   GL173285  34.297  28.540   5.596
 5797POPC   GL273286  34.412  28.168   5.729
 5797POPC   C1A73287  34.552  28.514   6.036
 5797POPC   D2A73288  34.578  28.252   6.429
 5797POPC   C3A73289  34.595  28.403   6.870
 5797POPC   C4A73290  34.857  28.278   7.234
 5797POPC   C1B73291  34.297  27.922   6.136
 5797POPC   C2B73292  34.159  27.981   6.574
 5797POPC   C3B73293  34.393  27.939   6.947
 5797POPC   C4B73294  34.224  27.979   7.325
 5798POPC   NC373295  39.284  22.376   5.318
 5798POPC   PO473296  39.374  23.057   5.285
 5798POPC   GL173297  39.331  22.819   5.642
 5798POPC   GL273298  39.569  23.041   5.779
 5798POPC   C1A73299  39.283  22.731   6.099
 5798POPC   D2A73300  38.941  22.746   6.402
 5798POPC   C3A73301  39.003  22.781   6.855
 5798POPC   C4A73302  39.279  22.743   7.227
 5798POPC   C1B73303  39.448  23.217   6.171
 5798POPC   C2B73304  39.289  23.081   6.552
 5798POPC   C3B73305  39.370  23.183   6.981
 5798POPC   C4B73306  39.303  23.299   7.383
 5799POPC   NC373307  43.467  44.871   5.329
 5799POPC   PO473308  42.794  44.774   5.374
 5799POPC   GL173309  43.069  44.648   5.720
 5799POPC   GL273310  42.855  44.372   5.855
 5799POPC   C1A73311  43.272  44.759   6.123
 5799POPC   D2A73312  43.097  44.822   6.531
 5799POPC   C3A73313  43.159  44.621   6.921
 5799POPC   C4A73314  43.074  44.814   7.301
 5799POPC   C1B73315  42.867  44.388   6.332
 5799POPC   C2B73316  42.703  44.442   6.744
 5799POPC   C3B73317  42.787  44.364   7.175
 5799POPC   C4B73318  42.813  44.524   7.601
 5800POPC   NC373319  13.433  39.225   5.346
 5800POPC   PO473320  14.070  38.864   5.428
 5800POPC   GL173321  13.928  39.020   5.819
 5800POPC   GL273322  13.585  39.138   5.828
 5800POPC   C1A73323  13.718  38.886   6.242
 5800POPC   D2A73324  13.443  39.135   6.554
 5800POPC   C3A73325  13.469  39.112   7.013
 5800POPC   C4A73326  13.735  38.858   7.278
 5800POPC   C1B73327  13.769  39.492   6.044
 5800POPC   C2B73328  13.772  39.726   6.423
 5800POPC   C3B73329  13.706  39.588   6.824
 5800POPC   C4B73330  13.485  39.597   7.164
 5801POPC   NC373331   4.858   8.977   5.481
 5801POPC   PO473332   5.545   8.945   5.441
 5801POPC   GL173333   5.391   9.048   5.859
 5801POPC   GL273334   5.134   8.832   5.908
 5801POPC   C1A73335   5.277   9.198   6.283
 5801POPC   D2A73336   4.897   9.194   6.540
 5801POPC   C3A73337   4.915   9.149   6.978
 5801POPC   C4A73338   5.138   9.202   7.380
 5801POPC   C1B73339   4.985   8.734   6.333
 5801POPC   C2B73340   4.806   8.688   6.762
 5801POPC   C3B73341   4.993   8.676   7.184
 5801POPC   C4B73342   5.018   8.745   7.619
 5802POPC   NC373343   7.883  39.917   5.362
 5802POPC   PO473344   8.332  40.403   5.408
 5802POPC   GL173345   8.175  40.183   5.760
 5802POPC   GL273346   8.380  39.881   5.750
 5802POPC   C1A73347   8.073  40.076   6.210
 5802POPC   D2A73348   8.248  39.965   6.630
 5802POPC   C3A73349   8.129  40.109   7.047
 5802POPC   C4A73350   7.998  39.764   7.316
 5802POPC   C1B73351   8.529  39.802   6.203
 5802POPC   C2B73352   8.534  39.548   6.602
 5802POPC   C3B73353   8.444  39.615   7.018
 5802POPC   C4B73354   8.536  39.907   7.310
 5803POPC   NC373355  27.013  21.952   5.366
 5803POPC   PO473356  26.774  22.567   5.457
 5803POPC   GL173357  26.890  22.316   5.839
 5803POPC   GL273358  26.806  21.971   5.896
 5803POPC   C1A73359  27.010  22.307   6.300
 5803POPC   D2A73360  27.058  22.024   6.668
 5803POPC   C3A73361  27.042  22.077   7.119
 5803POPC   C4A73362  27.261  22.378   7.319
 5803POPC   C1B73363  26.667  21.921   6.352
 5803POPC   C2B73364  26.599  22.242   6.720
 5803POPC   C3B73365  26.556  22.198   7.171
 5803POPC   C4B73366  26.619  21.830   7.461
 5804POPC   NC373367  44.990  41.680   5.600
 5804POPC   PO473368   0.546  41.461   5.317
 5804POPC   GL173369   0.501  41.617   5.768
 5804POPC   GL273370   0.806  41.776   5.903
 5804POPC   C1A73371   0.364  41.728   6.226
 5804POPC   D2A73372   0.514  41.749   6.687
 5804POPC   C3A73373   0.264  41.551   7.039
 5804POPC   C4A73374   0.264  41.150   7.240
 5804POPC   C1B73375   0.844  41.572   6.315
 5804POPC   C2B73376   0.944  41.392   6.709
 5804POPC   C3B73377   0.792  41.462   7.077
 5804POPC   C4B73378   0.678  41.872   7.166
 5805POPC   NC373379  11.199  34.070   5.258
 5805POPC   PO473380  11.648  33.562   5.398
 5805POPC   GL173381  11.459  33.503   5.853
 5805POPC   GL273382  11.179  33.765   5.855
 5805POPC   C1A73383  11.332  33.597   6.320
 5805POPC   D2A73384  11.153  33.841   6.684
 5805POPC   C3A73385  11.217  33.761   7.127
 5805POPC   C4A73386  11.520  33.468   7.319
 5805POPC   C1B73387  10.972  33.987   6.216
 5805POPC   C2B73388  11.053  34.332   6.548
 5805POPC   C3B73389  11.193  34.263   6.985
 5805POPC   C4B73390  11.017  34.186   7.365
 5806POPC   NC373391  13.117  33.721   5.446
 5806POPC   PO473392  12.487  34.106   5.382
 5806POPC   GL173393  12.703  33.937   5.754
 5806POPC   GL273394  12.644  33.575   5.719
 5806POPC   C1A73395  12.747  34.089   6.205
 5806POPC   D2A73396  13.056  34.115   6.556
 5806POPC   C3A73397  12.852  34.007   6.952
 5806POPC   C4A73398  12.423  33.874   7.122
 5806POPC   C1B73399  12.866  33.597   6.126
 5806POPC   C2B73400  12.699  33.667   6.570
 5806POPC   C3B73401  12.752  33.500   7.005
 5806POPC   C4B73402  13.155  33.587   7.186
 5807POPC   NC373403  36.462   1.757   5.495
 5807POPC   PO473404  35.962   2.149   5.478
 5807POPC   GL173405  36.075   1.957   5.818
 5807POPC   GL273406  36.352   2.139   5.831
 5807POPC   C1A73407  36.011   2.066   6.262
 5807POPC   D2A73408  36.168   1.835   6.628
 5807POPC   C3A73409  36.127   1.986   7.067
 5807POPC   C4A73410  36.100   1.756   7.470
 5807POPC   C1B73411  36.445   1.830   6.156
 5807POPC   C2B73412  36.656   2.017   6.493
 5807POPC   C3B73413  36.595   2.043   6.905
 5807POPC   C4B73414  36.594   1.892   7.330
 5808POPC   NC373415  22.026  17.737   5.627
 5808POPC   PO473416  22.449  17.153   5.572
 5808POPC   GL173417  22.317  17.449   5.948
 5808POPC   GL273418  22.463  17.798   5.848
 5808POPC   C1A73419  21.972  17.605   6.287
 5808POPC   D2A73420  21.803  17.623   6.744
 5808POPC   C3A73421  22.119  17.583   7.075
 5808POPC   C4A73422  22.147  17.555   7.524
 5808POPC   C1B73423  22.412  17.877   6.259
 5808POPC   C2B73424  22.360  17.697   6.636
 5808POPC   C3B73425  22.438  17.963   6.968
 5808POPC   C4B73426  22.299  18.034   7.360
 5809POPC   NC373427  34.876  36.834   5.419
 5809POPC   PO473428  34.407  37.207   5.667
 5809POPC   GL173429  34.426  36.886   5.959
 5809POPC   GL273430  34.739  36.721   5.900
 5809POPC   C1A73431  34.330  36.989   6.388
 5809POPC   D2A73432  34.139  37.173   6.757
 5809POPC   C3A73433  34.374  37.003   7.101
 5809POPC   C4A73434  34.784  37.089   7.218
 5809POPC   C1B73435  34.842  36.945   6.287
 5809POPC   C2B73436  34.714  36.962   6.710
 5809POPC   C3B73437  34.752  36.617   6.979
 5809POPC   C4B73438  35.056  36.591   7.295
 5810POPC   NC373439  32.135  29.200   5.289
 5810POPC   PO473440  32.558  28.829   5.643
 5810POPC   GL173441  32.274  29.054   5.840
 5810POPC   GL273442  31.960  28.979   5.726
 5810POPC   C1A73443  32.413  29.238   6.229
 5810POPC   D2A73444  32.289  29.089   6.618
 5810POPC   C3A73445  32.473  29.205   6.957
 5810POPC   C4A73446  32.605  28.918   7.290
 5810POPC   C1B73447  31.905  29.271   6.104
 5810POPC   C2B73448  31.943  29.453   6.516
 5810POPC   C3B73449  31.863  29.379   6.958
 5810POPC   C4B73450  32.073  29.155   7.248
 5811POPC   NC373451  27.278  12.335   5.577
 5811POPC   PO473452  27.757  11.954   5.525
 5811POPC   GL173453  27.566  12.032   5.928
 5811POPC   GL273454  27.218  11.997   5.993
 5811POPC   C1A73455  27.519  11.856   6.369
 5811POPC   D2A73456  27.602  11.640   6.752
 5811POPC   C3A73457  27.806  11.977   6.981
 5811POPC   C4A73458  27.846  12.246   7.334
 5811POPC   C1B73459  27.293  12.336   6.272
 5811POPC   C2B73460  27.213  12.224   6.677
 5811POPC   C3B73461  27.232  11.922   6.978
 5811POPC   C4B73462  27.431  11.914   7.336
 5812POPC   NC373463  19.185   3.486   5.457
 5812POPC   PO473464  18.795   4.017   5.549
 5812POPC   GL173465  18.905   3.701   5.896
 5812POPC   GL273466  19.252   3.538   5.950
 5812POPC   C1A73467  19.016   3.705   6.361
 5812POPC   D2A73468  19.284   3.441   6.616
 5812POPC   C3A73469  19.326   3.646   7.020
 5812POPC   C4A73470  18.932   3.912   7.091
 5812POPC   C1B73471  19.021   3.216   6.199
 5812POPC   C2B73472  18.795   3.259   6.614
 5812POPC   C3B73473  18.891   3.338   7.070
 5812POPC   C4B73474  18.738   3.223   7.516
 5813POPC   NC373475   0.956  21.157   5.631
 5813POPC   PO473476   1.517  21.318   5.250
 5813POPC   GL173477   1.402  21.481   5.779
 5813POPC   GL273478   1.062  21.540   5.963
 5813POPC   C1A73479   1.479  21.333   6.216
 5813POPC   D2A73480   1.363  21.147   6.639
 5813POPC   C3A73481   1.234  21.398   6.994
 5813POPC   C4A73482   1.482  21.627   7.290
 5813POPC   C1B73483   1.000  21.160   6.259
 5813POPC   C2B73484   0.890  20.930   6.624
 5813POPC   C3B73485   1.030  20.927   7.050
 5813POPC   C4B73486   0.785  21.037   7.414
 5814POPC   NC373487  37.986  29.245   5.447
 5814POPC   PO473488  37.342  28.882   5.424
 5814POPC   GL173489  37.369  28.941   5.896
 5814POPC   GL273490  37.536  29.271   5.868
 5814POPC   C1A73491  37.528  29.032   6.349
 5814POPC   D2A73492  37.835  29.315   6.561
 5814POPC   C3A73493  37.858  29.208   7.001
 5814POPC   C4A73494  37.531  28.980   7.190
 5814POPC   C1B73495  37.454  29.595   6.188
 5814POPC   C2B73496  37.538  29.726   6.611
 5814POPC   C3B73497  37.418  29.456   6.949
 5814POPC   C4B73498  37.533  29.432   7.386
 5815POPC   NC373499  29.298   7.852   5.411
 5815POPC   PO473500  28.705   8.255   5.443
 5815POPC   GL173501  28.937   8.314   5.817
 5815POPC   GL273502  29.003   8.002   5.812
 5815POPC   C1A73503  29.039   8.368   6.256
 5815POPC   D2A73504  29.122   8.248   6.696
 5815POPC   C3A73505  29.011   8.520   7.041
 5815POPC   C4A73506  28.761   8.448   7.396
 5815POPC   C1B73507  29.096   7.873   6.217
 5815POPC   C2B73508  29.390   7.860   6.522
 5815POPC   C3B73509  29.297   7.811   6.950
 5815POPC   C4B73510  28.981   8.011   7.160
 5816POPC   NC373511  38.351   0.513   5.444
 5816POPC   PO473512  38.632   0.085   5.559
 5816POPC   GL173513  38.543   0.345   5.943
 5816POPC   GL273514  38.199   0.493   5.933
 5816POPC   C1A73515  38.561   0.468   6.399
 5816POPC   D2A73516  38.209   0.465   6.681
 5816POPC   C3A73517  38.324   0.295   7.058
 5816POPC   C4A73518  38.748   0.245   7.092
 5816POPC   C1B73519  38.341   0.846   6.166
 5816POPC   C2B73520  38.405   0.946   6.597
 5816POPC   C3B73521  38.621   0.713   6.888
 5816POPC   C4B73522  38.558   0.693   7.297
 5817POPC   NC373523  28.729  15.595   5.233
 5817POPC   PO473524  28.983  15.132   5.619
 5817POPC   GL173525  29.187  15.086   5.970
 5817POPC   GL273526  29.414  14.823   5.988
 5817POPC   C1A73527  28.985  15.029   6.377
 5817POPC   D2A73528  28.854  14.813   6.740
 5817POPC   C3A73529  28.902  15.139   7.042
 5817POPC   C4A73530  29.042  15.422   7.393
 5817POPC   C1B73531  29.487  15.028   6.371
 5817POPC   C2B73532  29.435  15.285   6.719
 5817POPC   C3B73533  29.415  15.198   7.141
 5817POPC   C4B73534  29.441  14.940   7.532
 5818POPC   NC373535   6.789  33.513   5.625
 5818POPC   PO473536   6.788  32.937   5.295
 5818POPC   GL173537   6.535  33.044   5.689
 5818POPC   GL273538   6.769  33.141   5.971
 5818POPC   C1A73539   6.332  32.948   6.123
 5818POPC   D2A73540   6.477  32.846   6.559
 5818POPC   C3A73541   6.344  33.095   6.922
 5818POPC   C4A73542   6.418  33.019   7.361
 5818POPC   C1B73543   6.605  33.348   6.353
 5818POPC   C2B73544   6.773  33.343   6.787
 5818POPC   C3B73545   6.883  32.999   7.074
 5818POPC   C4B73546   6.854  32.762   7.444
 5819POPC   NC373547   9.400  25.598   5.393
 5819POPC   PO473548   9.209  26.266   5.365
 5819POPC   GL173549   9.099  26.130   5.787
 5819POPC   GL273550   9.279  26.433   5.843
 5819POPC   C1A73551   8.973  25.861   6.171
 5819POPC   D2A73552   8.695  25.710   6.535
 5819POPC   C3A73553   8.768  25.843   6.984
 5819POPC   C4A73554   8.826  26.080   7.393
 5819POPC   C1B73555   9.016  26.379   6.219
 5819POPC   C2B73556   8.950  26.170   6.610
 5819POPC   C3B73557   8.955  26.375   6.982
 5819POPC   C4B73558   9.273  26.562   7.231
 5820POPC   NC373559  17.254  34.683   5.383
 5820POPC   PO473560  17.587  34.117   5.283
 5820POPC   GL173561  17.500  34.355   5.698
 5820POPC   GL273562  17.653  34.699   5.726
 5820POPC   C1A73563  17.567  34.408   6.157
 5820POPC   D2A73564  17.486  34.626   6.556
 5820POPC   C3A73565  17.429  34.405   6.923
 5820POPC   C4A73566  17.478  34.233   7.344
 5820POPC   C1B73567  17.951  34.740   6.096
 5820POPC   C2B73568  18.014  34.799   6.533
 5820POPC   C3B73569  17.846  34.726   6.950
 5820POPC   C4B73570  17.564  34.725   7.293
 5821POPC   NC373571  44.443  10.540   5.546
 5821POPC   PO473572   0.104  10.725   5.523
 5821POPC   GL173573  44.859  10.433   5.815
 5821POPC   GL273574  44.995  10.141   5.992
 5821POPC   C1A73575  44.585  10.385   6.195
 5821POPC   D2A73576  44.639  10.560   6.597
 5821POPC   C3A73577  44.365  10.434   6.918
 5821POPC   C4A73578  44.501  10.603   7.251
 5821POPC   C1B73579   0.071  10.536   6.260
 5821POPC   C2B73580   0.088  10.889   6.574
 5821POPC   C3B73581   0.027  10.774   7.001
 5821POPC   C4B73582  44.971  10.585   7.422
 5822POPC   NC373583  14.676  43.481   5.506
 5822POPC   PO473584  14.551  44.157   5.451
 5822POPC   GL173585  14.520  43.922   5.816
 5822POPC   GL273586  14.199  43.761   5.844
 5822POPC   C1A73587  14.404  44.004   6.228
 5822POPC   D2A73588  14.372  43.826   6.589
 5822POPC   C3A73589  14.455  44.093   6.931
 5822POPC   C4A73590  14.478  43.972   7.330
 5822POPC   C1B73591  13.978  43.663   6.242
 5822POPC   C2B73592  13.869  43.656   6.689
 5822POPC   C3B73593  14.197  43.658   7.022
 5822POPC   C4B73594  14.256  43.518   7.411
 5823POPC   NC373595  38.299   8.600   5.690
 5823POPC   PO473596  38.307   8.014   5.327
 5823POPC   GL173597  38.328   8.120   5.791
 5823POPC   GL273598  38.633   8.241   5.816
 5823POPC   C1A73599  38.294   8.267   6.244
 5823POPC   D2A73600  38.134   8.151   6.642
 5823POPC   C3A73601  38.273   8.336   7.017
 5823POPC   C4A73602  38.253   8.101   7.362
 5823POPC   C1B73603  38.791   8.406   6.214
 5823POPC   C2B73604  38.623   8.425   6.641
 5823POPC   C3B73605  38.810   8.376   7.053
 5823POPC   C4B73606  38.689   8.318   7.499
 5824POPC   NC373607   8.656  13.436   5.528
 5824POPC   PO473608   8.155  13.921   5.506
 5824POPC   GL173609   8.288  13.718   5.831
 5824POPC   GL273610   8.179  13.367   5.766
 5824POPC   C1A73611   8.476  13.828   6.220
 5824POPC   D2A73612   8.255  13.758   6.584
 5824POPC   C3A73613   8.373  13.954   6.949
 5824POPC   C4A73614   8.265  13.773   7.328
 5824POPC   C1B73615   7.968  13.483   6.158
 5824POPC   C2B73616   7.791  13.370   6.527
 5824POPC   C3B73617   7.932  13.519   6.902
 5824POPC   C4B73618   7.764  13.567   7.258
 5825POPC   NC373619  17.261  24.208   5.544
 5825POPC   PO473620  17.361  24.858   5.375
 5825POPC   GL173621  17.524  24.826   5.816
 5825POPC   GL273622  17.549  24.488   5.890
 5825POPC   C1A73623  17.412  24.796   6.255
 5825POPC   D2A73624  17.215  24.623   6.592
 5825POPC   C3A73625  17.418  24.696   6.960
 5825POPC   C4A73626  17.556  24.612   7.381
 5825POPC   C1B73627  17.656  24.334   6.313
 5825POPC   C2B73628  17.713  24.270   6.776
 5825POPC   C3B73629  17.646  24.115   7.211
 5825POPC   C4B73630  17.595  24.162   7.657
 5826POPC   NC373631  43.085  18.526   5.480
 5826POPC   PO473632  43.235  17.769   5.563
 5826POPC   GL173633  43.265  18.124   5.866
 5826POPC   GL273634  43.007  18.327   5.922
 5826POPC   C1A73635  43.354  18.351   6.280
 5826POPC   D2A73636  43.121  18.263   6.672
 5826POPC   C3A73637  43.248  18.408   7.061
 5826POPC   C4A73638  43.201  18.236   7.458
 5826POPC   C1B73639  42.800  18.334   6.283
 5826POPC   C2B73640  42.716  18.632   6.589
 5826POPC   C3B73641  42.551  18.668   6.989
 5826POPC   C4B73642  42.830  18.595   7.322
 5827POPC   NC373643  30.895  43.210   5.211
 5827POPC   PO473644  30.411  42.881   5.574
 5827POPC   GL173645  30.636  43.223   5.760
 5827POPC   GL273646  30.977  43.227   5.716
 5827POPC   C1A73647  30.529  43.363   6.181
 5827POPC   D2A73648  30.619  43.096   6.547
 5827POPC   C3A73649  30.362  43.020   6.934
 5827POPC   C4A73650  30.297  42.653   7.185
 5827POPC   C1B73651  31.005  43.159   6.156
 5827POPC   C2B73652  31.140  42.947   6.515
 5827POPC   C3B73653  31.030  42.778   6.891
 5827POPC   C4B73654  30.784  42.827   7.239
 5828POPC   NC373655  14.073  15.429   5.453
 5828POPC   PO473656  14.652  15.105   5.605
 5828POPC   GL173657  14.495  15.164   6.024
 5828POPC   GL273658  14.137  15.283   5.944
 5828POPC   C1A73659  14.306  15.266   6.426
 5828POPC   D2A73660  14.231  15.397   6.831
 5828POPC   C3A73661  14.588  15.283   7.048
 5828POPC   C4A73662  14.921  15.450   7.276
 5828POPC   C1B73663  13.952  14.920   6.210
 5828POPC   C2B73664  14.191  14.777   6.553
 5828POPC   C3B73665  14.168  14.918   6.968
 5828POPC   C4B73666  14.209  15.139   7.351
 5829POPC   NC373667  36.225   0.110   5.654
 5829POPC   PO473668  35.835   0.598   5.435
 5829POPC   GL173669  35.947   0.585   5.858
 5829POPC   GL273670  36.319   0.582   5.867
 5829POPC   C1A73671  35.947   0.332   6.238
 5829POPC   D2A73672  36.145   0.196   6.634
 5829POPC   C3A73673  35.809   0.197   6.930
 5829POPC   C4A73674  35.611   0.488   7.155
 5829POPC   C1B73675  36.423   0.516   6.286
 5829POPC   C2B73676  36.391   0.681   6.686
 5829POPC   C3B73677  36.212   0.501   7.066
 5829POPC   C4B73678  36.296   0.080   7.151
 5830POPC   NC373679   7.251  27.492   5.451
 5830POPC   PO473680   7.821  27.718   5.489
 5830POPC   GL173681   7.642  27.746   5.874
 5830POPC   GL273682   7.324  27.714   5.893
 5830POPC   C1A73683   7.587  27.364   6.147
 5830POPC   D2A73684   7.397  27.265   6.531
 5830POPC   C3A73685   7.652  27.151   6.873
 5830POPC   C4A73686   7.475  27.304   7.219
 5830POPC   C1B73687   7.084  27.470   6.181
 5830POPC   C2B73688   6.912  27.487   6.583
 5830POPC   C3B73689   7.161  27.564   6.921
 5830POPC   C4B73690   7.169  27.755   7.279
 5831POPC   NC373691   3.017  42.649   5.469
 5831POPC   PO473692   2.723  41.976   5.537
 5831POPC   GL173693   2.782  42.342   5.804
 5831POPC   GL273694   2.480  42.414   5.977
 5831POPC   C1A73695   2.950  42.549   6.172
 5831POPC   D2A73696   2.771  42.567   6.597
 5831POPC   C3A73697   2.993  42.401   6.970
 5831POPC   C4A73698   2.833  42.556   7.403
 5831POPC   C1B73699   2.684  42.098   6.257
 5831POPC   C2B73700   2.677  42.073   6.702
 5831POPC   C3B73701   2.520  42.271   7.069
 5831POPC   C4B73702   2.535  41.911   7.281
 5832POPC   NC373703  35.222  16.324   5.388
 5832POPC   PO473704  35.559  15.808   5.578
 5832POPC   GL173705  35.397  15.887   5.944
 5832POPC   GL273706  35.363  16.206   5.856
 5832POPC   C1A73707  35.567  16.008   6.343
 5832POPC   D2A73708  35.748  15.748   6.657
 5832POPC   C3A73709  35.486  15.599   6.933
 5832POPC   C4A73710  35.357  15.696   7.282
 5832POPC   C1B73711  35.118  16.253   6.211
 5832POPC   C2B73712  35.269  16.337   6.620
 5832POPC   C3B73713  35.340  16.090   6.940
 5832POPC   C4B73714  35.024  16.088   7.233
 5833POPC   NC373715  24.916  23.640   5.618
 5833POPC   PO473716  24.354  23.848   5.578
 5833POPC   GL173717  24.409  23.631   5.913
 5833POPC   GL273718  24.059  23.723   5.978
 5833POPC   C1A73719  24.690  23.573   6.257
 5833POPC   D2A73720  24.826  23.324   6.609
 5833POPC   C3A73721  24.722  23.498   6.998
 5833POPC   C4A73722  24.756  23.991   7.044
 5833POPC   C1B73723  24.178  23.640   6.371
 5833POPC   C2B73724  24.431  23.788   6.667
 5833POPC   C3B73725  24.300  23.770   7.055
 5833POPC   C4B73726  24.255  23.368   7.204
 5834POPC   NC373727   8.945   5.351   5.648
 5834POPC   PO473728   8.830   4.745   5.386
 5834POPC   GL173729   8.618   4.891   5.794
 5834POPC   GL273730   8.469   5.241   5.799
 5834POPC   C1A73731   8.738   4.855   6.240
 5834POPC   D2A73732   9.081   4.812   6.548
 5834POPC   C3A73733   8.938   4.819   6.960
 5834POPC   C4A73734   8.986   5.057   7.342
 5834POPC   C1B73735   8.657   5.359   6.235
 5834POPC   C2B73736   8.839   5.258   6.649
 5834POPC   C3B73737   8.601   5.225   7.032
 5834POPC   C4B73738   8.561   5.308   7.504
 5835POPC   NC373739  17.656  23.599   5.390
 5835POPC   PO473740  17.795  24.262   5.518
 5835POPC   GL173741  17.672  23.968   5.877
 5835POPC   GL273742  17.444  23.668   5.858
 5835POPC   C1A73743  17.602  23.804   6.328
 5835POPC   D2A73744  17.375  23.678   6.749
 5835POPC   C3A73745  17.597  23.494   7.132
 5835POPC   C4A73746  17.599  23.653   7.562
 5835POPC   C1B73747  17.206  23.456   6.205
 5835POPC   C2B73748  17.181  23.212   6.618
 5835POPC   C3B73749  17.038  23.360   7.035
 5835POPC   C4B73750  17.196  23.385   7.478
 5836POPC   NC373751  31.597   1.495   5.402
 5836POPC   PO473752  31.142   1.050   5.496
 5836POPC   GL173753  31.494   1.143   5.786
 5836POPC   GL273754  31.844   1.037   5.698
 5836POPC   C1A73755  31.679   1.342   6.142
 5836POPC   D2A73756  31.736   1.230   6.560
 5836POPC   C3A73757  31.509   1.407   6.904
 5836POPC   C4A73758  31.510   1.639   7.293
 5836POPC   C1B73759  31.822   0.777   6.082
 5836POPC   C2B73760  31.793   0.708   6.531
 5836POPC   C3B73761  31.800   0.791   6.991
 5836POPC   C4B73762  31.856   1.195   7.215
 5837POPC   NC373763   7.929  17.930   5.290
 5837POPC   PO473764   8.369  17.338   5.337
 5837POPC   GL173765   8.133  17.430   5.705
 5837POPC   GL273766   8.098  17.779   5.742
 5837POPC   C1A73767   8.158  17.422   6.164
 5837POPC   D2A73768   8.310  17.566   6.576
 5837POPC   C3A73769   8.229  17.336   6.949
 5837POPC   C4A73770   8.495  17.119   7.236
 5837POPC   C1B73771   7.810  17.796   6.064
 5837POPC   C2B73772   7.958  17.912   6.458
 5837POPC   C3B73773   7.906  17.754   6.849
 5837POPC   C4B73774   8.159  17.774   7.196
 5838POPC   NC373775  17.226   6.156   5.172
 5838POPC   PO473776  17.668   5.786   5.568
 5838POPC   GL173777  17.517   5.848   5.931
 5838POPC   GL273778  17.186   5.808   5.774
 5838POPC   C1A73779  17.660   5.921   6.356
 5838POPC   D2A73780  17.748   6.010   6.778
 5838POPC   C3A73781  17.646   5.825   7.147
 5838POPC   C4A73782  17.388   5.851   7.503
 5838POPC   C1B73783  17.092   5.876   6.204
 5838POPC   C2B73784  17.220   5.800   6.627
 5838POPC   C3B73785  17.252   6.129   6.900
 5838POPC   C4B73786  17.049   6.159   7.254
 5839POPC   NC373787  23.253  13.493   5.599
 5839POPC   PO473788  22.651  13.736   5.344
 5839POPC   GL173789  22.858  13.757   5.789
 5839POPC   GL273790  22.885  13.425   5.913
 5839POPC   C1A73791  22.895  13.789   6.267
 5839POPC   D2A73792  22.971  13.904   6.714
 5839POPC   C3A73793  22.675  13.844   7.030
 5839POPC   C4A73794  22.792  13.706   7.455
 5839POPC   C1B73795  23.147  13.308   6.262
 5839POPC   C2B73796  23.201  13.454   6.667
 5839POPC   C3B73797  23.057  13.457   7.095
 5839POPC   C4B73798  23.115  13.199   7.489
 5840POPC   NC373799  41.998   7.134   5.422
 5840POPC   PO473800  42.686   7.142   5.383
 5840POPC   GL173801  42.423   7.381   5.636
 5840POPC   GL273802  42.670   7.392   5.871
 5840POPC   C1A73803  42.196   7.477   6.023
 5840POPC   D2A73804  42.265   7.369   6.463
 5840POPC   C3A73805  42.112   7.628   6.826
 5840POPC   C4A73806  42.140   7.606   7.298
 5840POPC   C1B73807  42.702   7.637   6.230
 5840POPC   C2B73808  42.580   7.749   6.646
 5840POPC   C3B73809  42.691   7.616   7.063
 5840POPC   C4B73810  42.822   7.337   7.397
 5841POPC   NC373811  40.509  26.318   5.522
 5841POPC   PO473812  40.917  25.801   5.236
 5841POPC   GL173813  40.843  25.906   5.717
 5841POPC   GL273814  40.853  26.251   5.882
 5841POPC   C1A73815  40.895  25.848   6.171
 5841POPC   D2A73816  40.993  26.235   6.412
 5841POPC   C3A73817  41.077  26.169   6.836
 5841POPC   C4A73818  40.936  25.814   7.099
 5841POPC   C1B73819  40.521  26.199   6.240
 5841POPC   C2B73820  40.576  26.094   6.705
 5841POPC   C3B73821  40.679  26.250   7.138
 5841POPC   C4B73822  40.421  26.270   7.468
 5842POPC   NC373823  25.842  39.070   5.344
 5842POPC   PO473824  26.355  39.527   5.268
 5842POPC   GL173825  26.081  39.436   5.668
 5842POPC   GL273826  26.086  39.088   5.841
 5842POPC   C1A73827  25.923  39.500   6.108
 5842POPC   D2A73828  25.972  39.544   6.571
 5842POPC   C3A73829  26.106  39.310   6.905
 5842POPC   C4A73830  26.248  39.483   7.285
 5842POPC   C1B73831  25.888  39.034   6.289
 5842POPC   C2B73832  25.641  39.133   6.666
 5842POPC   C3B73833  25.662  39.169   7.115
 5842POPC   C4B73834  25.903  39.160   7.511
 5843POPC   NC373835  35.101  29.433   5.351
 5843POPC   PO473836  35.137  28.709   5.265
 5843POPC   GL173837  35.302  28.995   5.673
 5843POPC   GL273838  35.506  29.321   5.715
 5843POPC   C1A73839  35.332  28.889   6.158
 5843POPC   D2A73840  35.501  28.858   6.629
 5843POPC   C3A73841  35.286  29.057   7.031
 5843POPC   C4A73842  35.467  29.081   7.456
 5843POPC   C1B73843  35.640  29.294   6.186
 5843POPC   C2B73844  35.486  29.375   6.643
 5843POPC   C3B73845  35.710  29.344   7.070
 5843POPC   C4B73846  35.670  29.528   7.544
 5844POPC   NC373847  16.286  38.227   5.357
 5844POPC   PO473848  16.758  38.663   5.565
 5844POPC   GL173849  16.727  38.302   5.796
 5844POPC   GL273850  16.396  38.290   5.838
 5844POPC   C1A73851  16.845  38.373   6.209
 5844POPC   D2A73852  16.918  38.692   6.516
 5844POPC   C3A73853  16.878  38.513   6.913
 5844POPC   C4A73854  16.800  38.363   7.302
 5844POPC   C1B73855  16.354  38.170   6.220
 5844POPC   C2B73856  16.528  38.308   6.598
 5844POPC   C3B73857  16.404  38.299   6.994
 5844POPC   C4B73858  16.183  38.230   7.381
 5845POPC   NC373859  38.986  27.864   5.413
 5845POPC   PO473860  39.492  27.312   5.441
 5845POPC   GL173861  39.223  27.475   5.759
 5845POPC   GL273862  39.340  27.842   5.816
 5845POPC   C1A73863  39.139  27.385   6.206
 5845POPC   D2A73864  39.349  27.313   6.605
 5845POPC   C3A73865  39.329  27.526   6.986
 5845POPC   C4A73866  39.241  27.216   7.270
 5845POPC   C1B73867  39.328  27.855   6.286
 5845POPC   C2B73868  39.007  27.721   6.581
 5845POPC   C3B73869  38.879  27.773   6.979
 5845POPC   C4B73870  39.053  27.770   7.377
 5846POPC   NC373871  13.321  40.924   5.245
 5846POPC   PO473872  13.794  40.521   5.456
 5846POPC   GL173873  13.709  40.614   5.863
 5846POPC   GL273874  13.771  40.957   5.812
 5846POPC   C1A73875  13.902  40.612   6.298
 5846POPC   D2A73876  13.887  40.585   6.765
 5846POPC   C3A73877  13.443  40.493   6.893
 5846POPC   C4A73878  13.281  40.580   7.297
 5846POPC   C1B73879  13.715  41.107   6.222
 5846POPC   C2B73880  13.563  40.971   6.651
 5846POPC   C3B73881  13.633  40.917   7.092
 5846POPC   C4B73882  13.388  41.081   7.404
 5847POPC   NC373883  28.768  44.950   5.389
 5847POPC   PO473884  29.430  44.551   5.399
 5847POPC   GL173885  29.296  44.650   5.825
 5847POPC   GL273886  28.971  44.821   5.831
 5847POPC   C1A73887  29.035  44.467   6.185
 5847POPC   D2A73888  28.938  44.672   6.590
 5847POPC   C3A73889  29.234  44.648   6.951
 5847POPC   C4A73890  29.118  44.716   7.375
 5847POPC   C1B73891  29.134  44.975   6.216
 5847POPC   C2B73892  29.129   0.186   6.609
 5847POPC   C3B73893  29.261   0.138   7.020
 5847POPC   C4B73894  29.475   0.085   7.414
 5848POPC   NC373895  42.085   5.440   5.409
 5848POPC   PO473896  42.497   4.816   5.485
 5848POPC   GL173897  42.366   5.155   5.789
 5848POPC   GL273898  41.990   5.205   5.843
 5848POPC   C1A73899  42.502   5.179   6.231
 5848POPC   D2A73900  42.657   5.345   6.617
 5848POPC   C3A73901  42.563   5.023   6.929
 5848POPC   C4A73902  42.505   4.823   7.327
 5848POPC   C1B73903  41.988   5.022   6.256
 5848POPC   C2B73904  42.115   5.129   6.674
 5848POPC   C3B73905  42.086   4.842   6.982
 5848POPC   C4B73906  41.985   4.647   7.322
 5849POPC   NC373907   2.722  37.513   5.404
 5849POPC   PO473908   2.796  38.216   5.487
 5849POPC   GL173909   2.872  37.869   5.784
 5849POPC   GL273910   2.586  37.680   5.898
 5849POPC   C1A73911   2.920  37.893   6.245
 5849POPC   D2A73912   3.040  37.803   6.680
 5849POPC   C3A73913   3.081  38.044   7.060
 5849POPC   C4A73914   2.865  38.075   7.441
 5849POPC   C1B73915   2.495  37.584   6.350
 5849POPC   C2B73916   2.354  37.647   6.789
 5849POPC   C3B73917   2.704  37.710   7.071
 5849POPC   C4B73918   3.052  37.530   7.265
 5850POPC   NC373919  13.169  12.407   5.135
 5850POPC   PO473920  12.869  11.951   5.604
 5850POPC   GL173921  12.793  12.185   5.958
 5850POPC   GL273922  12.459  12.211   6.076
 5850POPC   C1A73923  12.897  12.181   6.391
 5850POPC   D2A73924  13.228  12.078   6.671
 5850POPC   C3A73925  13.251  12.133   7.123
 5850POPC   C4A73926  13.128  12.500   7.409
 5850POPC   C1B73927  12.626  11.766   6.212
 5850POPC   C2B73928  12.808  11.715   6.590
 5850POPC   C3B73929  12.752  12.026   6.875
 5850POPC   C4B73930  12.767  12.195   7.253
 5851POPC   NC373931   6.125  43.188   5.647
 5851POPC   PO473932   5.611  43.559   5.443
 5851POPC   GL173933   5.710  43.417   5.829
 5851POPC   GL273934   5.611  43.073   5.871
 5851POPC   C1A73935   5.873  43.334   6.247
 5851POPC   D2A73936   6.053  43.130   6.583
 5851POPC   C3A73937   5.820  43.250   6.907
 5851POPC   C4A73938   5.897  43.162   7.307
 5851POPC   C1B73939   5.637  42.831   6.259
 5851POPC   C2B73940   5.689  42.783   6.685
 5851POPC   C3B73941   5.967  42.738   6.992
 5851POPC   C4B73942   5.803  42.668   7.388
 5852POPC   NC373943  28.710  43.508   5.603
 5852POPC   PO473944  28.125  43.325   5.251
 5852POPC   GL173945  28.148  43.242   5.734
 5852POPC   GL273946  28.469  43.144   5.871
 5852POPC   C1A73947  28.078  43.240   6.204
 5852POPC   D2A73948  28.331  43.230   6.624
 5852POPC   C3A73949  28.162  43.123   7.066
 5852POPC   C4A73950  28.020  42.806   7.396
 5852POPC   C1B73951  28.530  43.478   6.212
 5852POPC   C2B73952  28.667  43.685   6.582
 5852POPC   C3B73953  28.478  43.610   6.935
 5852POPC   C4B73954  28.504  43.456   7.319
 5853POPC   NC373955  15.594  18.716   5.451
 5853POPC   PO473956  15.909  19.349   5.447
 5853POPC   GL173957  15.766  19.116   5.810
 5853POPC   GL273958  15.641  18.807   5.947
 5853POPC   C1A73959  15.853  19.176   6.257
 5853POPC   D2A73960  15.766  19.383   6.638
 5853POPC   C3A73961  16.006  19.276   6.990
 5853POPC   C4A73962  15.833  19.231   7.392
 5853POPC   C1B73963  16.091  18.756   6.072
 5853POPC   C2B73964  16.242  18.797   6.485
 5853POPC   C3B73965  16.023  18.748   6.868
 5853POPC   C4B73966  16.176  18.880   7.246
 5854POPC   NC373967  38.925  23.135   5.386
 5854POPC   PO473968  38.718  22.427   5.418
 5854POPC   GL173969  38.443  22.577   5.807
 5854POPC   GL273970  38.219  22.903   5.850
 5854POPC   C1A73971  38.462  22.750   6.261
 5854POPC   D2A73972  38.538  23.005   6.640
 5854POPC   C3A73973  38.519  22.806   7.034
 5854POPC   C4A73974  38.541  22.761   7.466
 5854POPC   C1B73975  38.279  23.233   6.226
 5854POPC   C2B73976  38.103  23.313   6.673
 5854POPC   C3B73977  38.038  23.016   6.992
 5854POPC   C4B73978  37.850  22.677   7.232
 5855POPC   NC373979  33.819   5.603   5.501
 5855POPC   PO473980  33.898   6.110   5.171
 5855POPC   GL173981  33.960   6.114   5.645
 5855POPC   GL273982  33.616   6.042   5.758
 5855POPC   C1A73983  34.029   5.992   6.105
 5855POPC   D2A73984  33.846   5.926   6.537
 5855POPC   C3A73985  33.944   6.035   6.973
 5855POPC   C4A73986  34.165   5.868   7.329
 5855POPC   C1B73987  33.578   5.733   6.123
 5855POPC   C2B73988  33.498   5.557   6.554
 5855POPC   C3B73989  33.662   5.608   6.990
 5855POPC   C4B73990  33.658   5.913   7.388
 5856POPC   NC373991  20.488   4.708   5.552
 5856POPC   PO473992  20.386   4.079   5.601
 5856POPC   GL173993  20.588   4.309   5.917
 5856POPC   GL273994  20.858   4.550   5.880
 5856POPC   C1A73995  20.626   4.326   6.355
 5856POPC   D2A73996  20.300   4.328   6.650
 5856POPC   C3A73997  20.487   4.431   7.007
 5856POPC   C4A73998  20.718   4.464   7.383
 5856POPC   C1B73999  20.910   4.746   6.281
 5856POPC   C2B74000  20.858   4.652   6.708
 5856POPC   C3B74001  20.695   4.892   7.057
 5856POPC   C4B74002  20.740   4.951   7.488
 5857POPC   NC374003  22.468  15.870   5.529
 5857POPC   PO474004  21.821  15.843   5.261
 5857POPC   GL174005  21.960  16.072   5.637
 5857POPC   GL274006  21.711  15.925   5.788
 5857POPC   C1A74007  21.986  16.179   6.121
 5857POPC   D2A74008  22.132  16.027   6.534
 5857POPC   C3A74009  22.031  16.225   6.944
 5857POPC   C4A74010  22.349  16.185   7.285
 5857POPC   C1B74011  21.994  15.652   6.036
 5857POPC   C2B74012  22.040  15.508   6.481
 5857POPC   C3B74013  21.982  15.664   6.895
 5857POPC   C4B74014  21.922  15.856   7.279
 5858POPC   NC374015  10.548  20.653   5.447
 5858POPC   PO474016  10.025  20.226   5.391
 5858POPC   GL174017  10.200  20.475   5.787
 5858POPC   GL274018  10.378  20.871   5.864
 5858POPC   C1A74019  10.515  20.432   6.116
 5858POPC   D2A74020  10.712  20.699   6.413
 5858POPC   C3A74021  10.546  20.637   6.822
 5858POPC   C4A74022  10.522  20.381   7.173
 5858POPC   C1B74023  10.157  20.791   6.215
 5858POPC   C2B74024  10.096  20.551   6.554
 5858POPC   C3B74025  10.027  20.547   6.959
 5858POPC   C4B74026  10.204  20.763   7.268
 5859POPC   NC374027  37.274  34.094   5.484
 5859POPC   PO474028  36.631  33.814   5.411
 5859POPC   GL174029  36.799  33.920   5.791
 5859POPC   GL274030  36.740  33.603   5.923
 5859POPC   C1A74031  37.118  33.965   6.136
 5859POPC   D2A74032  37.240  33.767   6.542
 5859POPC   C3A74033  37.207  33.949   6.933
 5859POPC   C4A74034  37.178  33.993   7.356
 5859POPC   C1B74035  36.746  33.660   6.356
 5859POPC   C2B74036  36.765  33.686   6.793
 5859POPC   C3B74037  36.791  33.657   7.215
 5859POPC   C4B74038  36.672  33.362   7.516
 5860POPC   NC374039   6.943  13.821   5.422
 5860POPC   PO474040   6.301  14.059   5.466
 5860POPC   GL174041   6.541  13.710   5.739
 5860POPC   GL274042   6.921  13.615   5.877
 5860POPC   C1A74043   6.515  13.500   6.158
 5860POPC   D2A74044   6.763  13.526   6.524
 5860POPC   C3A74045   6.509  13.610   6.865
 5860POPC   C4A74046   6.319  13.461   7.240
 5860POPC   C1B74047   7.037  13.908   6.226
 5860POPC   C2B74048   7.050  13.950   6.667
 5860POPC   C3B74049   6.947  13.805   7.044
 5860POPC   C4B74050   6.617  13.858   7.291
 5861POPC   NC374051  28.232  21.009   5.554
 5861POPC   PO474052  28.180  21.652   5.345
 5861POPC   GL174053  28.384  21.528   5.784
 5861POPC   GL274054  28.094  21.337   5.945
 5861POPC   C1A74055  28.748  21.626   6.125
 5861POPC   D2A74056  28.741  21.765   6.568
 5861POPC   C3A74057  28.459  21.526   6.848
 5861POPC   C4A74058  28.522  21.415   7.250
 5861POPC   C1B74059  28.362  21.360   6.307
 5861POPC   C2B74060  28.427  21.082   6.609
 5861POPC   C3B74061  28.382  20.916   7.008
 5861POPC   C4B74062  28.258  21.036   7.432
 5862POPC   NC374063  44.334  26.961   5.420
 5862POPC   PO474064  44.979  27.107   5.663
 5862POPC   GL174065  44.626  26.891   5.840
 5862POPC   GL274066  44.347  27.101   5.927
 5862POPC   C1A74067  44.654  26.800   6.257
 5862POPC   D2A74068  44.674  27.009   6.632
 5862POPC   C3A74069  44.779  26.787   7.023
 5862POPC   C4A74070  44.698  26.927   7.425
 5862POPC   C1B74071  44.183  27.030   6.295
 5862POPC   C2B74072  44.167  27.147   6.690
 5862POPC   C3B74073  44.351  27.091   7.058
 5862POPC   C4B74074  44.194  26.914   7.413
 5863POPC   NC374075  28.487  23.004   5.285
 5863POPC   PO474076  28.057  22.600   5.669
 5863POPC   GL174077  28.434  22.826   5.815
 5863POPC   GL274078  28.526  23.184   5.755
 5863POPC   C1A74079  28.528  22.907   6.260
 5863POPC   D2A74080  28.649  22.749   6.659
 5863POPC   C3A74081  28.367  22.769   7.023
 5863POPC   C4A74082  28.445  22.810   7.482
 5863POPC   C1B74083  28.659  23.378   6.142
 5863POPC   C2B74084  28.707  23.313   6.594
 5863POPC   C3B74085  28.668  23.171   6.986
 5863POPC   C4B74086  28.311  23.251   7.247
 5864POPC   NC374087  25.043  24.657   5.061
 5864POPC   PO474088  25.629  24.659   5.410
 5864POPC   GL174089  25.444  24.759   5.840
 5864POPC   GL274090  25.617  25.017   6.048
 5864POPC   C1A74091  25.296  24.631   6.264
 5864POPC   D2A74092  25.369  24.532   6.698
 5864POPC   C3A74093  25.078  24.495   7.080
 5864POPC   C4A74094  25.105  24.691   7.504
 5864POPC   C1B74095  25.773  24.825   6.441
 5864POPC   C2B74096  25.719  24.881   6.857
 5864POPC   C3B74097  25.526  24.722   7.190
 5864POPC   C4B74098  25.625  24.776   7.605
 5865POPC   NC374099  39.611   7.413   5.327
 5865POPC   PO474100  40.213   7.180   5.286
 5865POPC   GL174101  40.187   7.453   5.703
 5865POPC   GL274102  39.828   7.570   5.759
 5865POPC   C1A74103  40.355   7.496   6.177
 5865POPC   D2A74104  40.164   7.658   6.582
 5865POPC   C3A74105  40.290   7.453   6.958
 5865POPC   C4A74106  40.222   7.197   7.270
 5865POPC   C1B74107  39.856   7.390   6.158
 5865POPC   C2B74108  39.683   7.450   6.573
 5865POPC   C3B74109  39.792   7.577   6.980
 5865POPC   C4B74110  39.669   7.511   7.392
 5866POPC   NC374111  10.198  38.727   5.395
 5866POPC   PO474112  10.593  38.256   5.702
 5866POPC   GL174113  10.443  38.458   6.006
 5866POPC   GL274114  10.637  38.762   5.909
 5866POPC   C1A74115  10.197  38.677   6.305
 5866POPC   D2A74116  10.347  38.733   6.728
 5866POPC   C3A74117  10.242  38.514   7.069
 5866POPC   C4A74118  10.272  38.651   7.429
 5866POPC   C1B74119  10.710  38.703   6.347
 5866POPC   C2B74120  10.596  38.331   6.530
 5866POPC   C3B74121  10.705  38.368   6.925
 5866POPC   C4B74122  10.642  38.255   7.316
 5867POPC   NC374123  39.905  18.584   5.441
 5867POPC   PO474124  40.309  18.032   5.536
 5867POPC   GL174125  40.187  18.348   5.854
 5867POPC   GL274126  39.829  18.449   5.924
 5867POPC   C1A74127  40.171  18.265   6.294
 5867POPC   D2A74128  40.293  17.993   6.631
 5867POPC   C3A74129  40.223  18.103   7.065
 5867POPC   C4A74130  40.165  18.305   7.445
 5867POPC   C1B74131  39.673  18.362   6.332
 5867POPC   C2B74132  39.864  18.297   6.745
 5867POPC   C3B74133  39.795  18.503   7.158
 5867POPC   C4B74134  39.589  18.908   7.292
 5868POPC   NC374135   0.402   8.020   5.413
 5868POPC   PO474136   0.493   8.660   5.341
 5868POPC   GL174137   0.394   8.486   5.801
 5868POPC   GL274138   0.532   8.151   5.872
 5868POPC   C1A74139   0.584   8.471   6.259
 5868POPC   D2A74140   0.841   8.322   6.619
 5868POPC   C3A74141   0.641   8.434   7.014
 5868POPC   C4A74142   0.284   8.568   7.304
 5868POPC   C1B74143   0.167   8.179   6.184
 5868POPC   C2B74144   0.200   8.397   6.592
 5868POPC   C3B74145   0.215   8.191   6.946
 5868POPC   C4B74146   0.389   8.049   7.310
 5869POPC   NC374147  42.715  41.959   5.705
 5869POPC   PO474148  42.437  42.553   5.402
 5869POPC   GL174149  42.319  42.466   5.851
 5869POPC   GL274150  42.285  42.132   5.919
 5869POPC   C1A74151  42.214  42.470   6.311
 5869POPC   D2A74152  42.434  42.574   6.719
 5869POPC   C3A74153  42.308  42.353   7.104
 5869POPC   C4A74154  42.053  41.992   7.231
 5869POPC   C1B74155  42.467  42.013   6.304
 5869POPC   C2B74156  42.317  42.025   6.690
 5869POPC   C3B74157  42.537  41.899   7.009
 5869POPC   C4B74158  42.796  42.033   7.286
 5870POPC   NC374159  39.744  27.888   5.340
 5870POPC   PO474160  40.022  28.558   5.341
 5870POPC   GL174161  40.067  28.368   5.763
 5870POPC   GL274162  39.962  28.024   5.780
 5870POPC   C1A74163  40.068  28.332   6.229
 5870POPC   D2A74164  39.826  28.231   6.586
 5870POPC   C3A74165  40.019  28.470   6.907
 5870POPC   C4A74166  39.904  28.302   7.264
 5870POPC   C1B74167  39.885  27.869   6.186
 5870POPC   C2B74168  40.169  27.830   6.548
 5870POPC   C3B74169  40.232  27.998   6.969
 5870POPC   C4B74170  40.576  28.061   7.274
 5871POPC   NC374171  13.055  16.223   5.318
 5871POPC   PO474172  12.471  16.330   5.673
 5871POPC   GL174173  12.729  16.009   5.940
 5871POPC   GL274174  12.458  15.713   6.000
 5871POPC   C1A74175  13.105  16.028   6.237
 5871POPC   D2A74176  13.343  15.956   6.644
 5871POPC   C3A74177  13.127  15.998   7.017
 5871POPC   C4A74178  13.043  16.350   7.239
 5871POPC   C1B74179  12.743  15.618   6.313
 5871POPC   C2B74180  12.844  15.673   6.724
 5871POPC   C3B74181  12.623  15.655   7.109
 5871POPC   C4B74182  12.714  15.719   7.576
 5872POPC   NC374183  41.338   3.055   5.481
 5872POPC   PO474184  41.587   2.412   5.574
 5872POPC   GL174185  41.484   2.681   5.934
 5872POPC   GL274186  41.398   3.035   5.974
 5872POPC   C1A74187  41.616   2.739   6.345
 5872POPC   D2A74188  41.610   2.824   6.767
 5872POPC   C3A74189  41.764   2.578   7.071
 5872POPC   C4A74190  41.635   2.644   7.476
 5872POPC   C1B74191  41.788   3.179   6.168
 5872POPC   C2B74192  41.970   3.156   6.590
 5872POPC   C3B74193  41.795   3.215   7.037
 5872POPC   C4B74194  41.392   3.050   7.234
 5873POPC   NC374195  32.145  33.441   5.626
 5873POPC   PO474196  32.578  32.930   5.457
 5873POPC   GL174197  32.329  32.999   5.836
 5873POPC   GL274198  31.954  32.982   5.772
 5873POPC   C1A74199  32.228  33.194   6.243
 5873POPC   D2A74200  32.140  32.978   6.634
 5873POPC   C3A74201  31.985  33.237   6.946
 5873POPC   C4A74202  32.235  33.385   7.260
 5873POPC   C1B74203  31.863  32.839   6.185
 5873POPC   C2B74204  31.673  32.769   6.597
 5873POPC   C3B74205  31.786  32.786   7.028
 5873POPC   C4B74206  31.929  32.636   7.437
 5874POPC   NC374207  21.927  15.383   5.133
 5874POPC   PO474208  22.451  15.116   5.414
 5874POPC   GL174209  22.219  15.134   5.756
 5874POPC   GL274210  21.870  15.061   5.662
 5874POPC   C1A74211  22.364  15.250   6.152
 5874POPC   D2A74212  22.360  15.067   6.548
 5874POPC   C3A74213  22.306  15.260   6.920
 5874POPC   C4A74214  22.137  15.396   7.327
 5874POPC   C1B74215  21.855  15.148   6.132
 5874POPC   C2B74216  21.820  15.054   6.576
 5874POPC   C3B74217  21.813  15.158   7.004
 5874POPC   C4B74218  21.722  14.873   7.309
 5875POPC   NC374219  25.394  38.184   5.219
 5875POPC   PO474220  24.956  38.590   5.536
 5875POPC   GL174221  25.115  38.686   5.907
 5875POPC   GL274222  25.461  38.639   5.818
 5875POPC   C1A74223  25.223  38.461   6.291
 5875POPC   D2A74224  25.292  38.513   6.705
 5875POPC   C3A74225  25.238  38.259   7.070
 5875POPC   C4A74226  25.203  38.538   7.438
 5875POPC   C1B74227  25.716  38.527   6.192
 5875POPC   C2B74228  25.773  38.631   6.639
 5875POPC   C3B74229  25.558  38.690   7.085
 5875POPC   C4B74230  25.713  38.657   7.516
 5876POPC   NC374231  39.332  10.171   5.439
 5876POPC   PO474232  39.368   9.536   5.532
 5876POPC   GL174233  39.136   9.799   5.809
 5876POPC   GL274234  38.896  10.071   5.710
 5876POPC   C1A74235  39.335   9.780   6.211
 5876POPC   D2A74236  39.311   9.552   6.595
 5876POPC   C3A74237  39.389   9.736   6.994
 5876POPC   C4A74238  39.070   9.607   7.250
 5876POPC   C1B74239  39.058  10.233   6.099
 5876POPC   C2B74240  39.103  10.115   6.507
 5876POPC   C3B74241  39.086  10.140   6.912
 5876POPC   C4B74242  39.026  10.106   7.331
 5877POPC   NC374243  44.208   1.358   5.595
 5877POPC   PO474244  43.808   0.900   5.339
 5877POPC   GL174245  43.863   0.977   5.769
 5877POPC   GL274246  43.727   1.312   5.820
 5877POPC   C1A74247  43.895   1.015   6.223
 5877POPC   D2A74248  43.704   1.093   6.627
 5877POPC   C3A74249  44.059   1.156   6.882
 5877POPC   C4A74250  44.119   0.973   7.283
 5877POPC   C1B74251  43.857   1.537   6.212
 5877POPC   C2B74252  43.748   1.606   6.641
 5877POPC   C3B74253  43.835   1.634   7.074
 5877POPC   C4B74254  43.838   1.537   7.526
 5878POPC   NC374255  14.761   6.942   5.583
 5878POPC   PO474256  15.406   6.850   5.334
 5878POPC   GL174257  15.309   6.681   5.758
 5878POPC   GL274258  15.406   6.311   5.835
 5878POPC   C1A74259  15.135   6.699   6.189
 5878POPC   D2A74260  15.199   6.518   6.606
 5878POPC   C3A74261  14.956   6.623   6.986
 5878POPC   C4A74262  14.966   6.895   7.360
 5878POPC   C1B74263  15.654   6.594   6.131
 5878POPC   C2B74264  15.578   6.852   6.477
 5878POPC   C3B74265  15.600   6.832   6.906
 5878POPC   C4B74266  15.390   6.600   7.226
 5879POPC   NC374267  28.970   8.652   5.427
 5879POPC   PO474268  29.162   9.307   5.382
 5879POPC   GL174269  29.140   9.044   5.736
 5879POPC   GL274270  28.785   9.005   5.781
 5879POPC   C1A74271  29.279   8.798   6.101
 5879POPC   D2A74272  29.423   8.662   6.532
 5879POPC   C3A74273  29.268   8.953   6.852
 5879POPC   C4A74274  29.289   9.031   7.289
 5879POPC   C1B74275  28.741   8.779   6.156
 5879POPC   C2B74276  28.764   8.633   6.592
 5879POPC   C3B74277  28.553   8.766   6.957
 5879POPC   C4B74278  28.784   8.947   7.259
 5880POPC   NC374279   6.552  21.846   5.630
 5880POPC   PO474280   6.545  21.201   5.400
 5880POPC   GL174281   6.769  21.362   5.786
 5880POPC   GL274282   6.592  21.578   6.057
 5880POPC   C1A74283   6.768  21.122   6.184
 5880POPC   D2A74284   6.627  21.286   6.560
 5880POPC   C3A74285   6.839  21.196   6.949
 5880POPC   C4A74286   7.054  21.491   7.211
 5880POPC   C1B74287   6.251  21.277   6.172
 5880POPC   C2B74288   6.062  21.229   6.592
 5880POPC   C3B74289   6.298  21.322   6.934
 5880POPC   C4B74290   6.546  21.637   7.178
 5881POPC   NC374291   2.116  34.992   5.434
 5881POPC   PO474292   1.769  34.462   5.600
 5881POPC   GL174293   1.872  34.635   5.949
 5881POPC   GL274294   2.199  34.769   5.890
 5881POPC   C1A74295   1.974  34.398   6.311
 5881POPC   D2A74296   2.082  34.338   6.742
 5881POPC   C3A74297   1.795  34.534   7.005
 5881POPC   C4A74298   1.880  34.919   7.173
 5881POPC   C1B74299   2.460  34.433   6.082
 5881POPC   C2B74300   2.569  34.552   6.510
 5881POPC   C3B74301   2.344  34.808   6.814
 5881POPC   C4B74302   2.275  34.610   7.189
 5882POPC   NC374303  42.291  18.622   5.426
 5882POPC   PO474304  42.753  18.189   5.481
 5882POPC   GL174305  42.536  18.140   5.873
 5882POPC   GL274306  42.513  18.518   5.889
 5882POPC   C1A74307  42.293  18.006   6.265
 5882POPC   D2A74308  41.995  17.910   6.613
 5882POPC   C3A74309  42.233  18.022   7.014
 5882POPC   C4A74310  42.663  18.129   7.191
 5882POPC   C1B74311  42.313  18.516   6.291
 5882POPC   C2B74312  42.122  18.431   6.723
 5882POPC   C3B74313  42.119  18.475   7.200
 5882POPC   C4B74314  42.355  18.574   7.584
 5883POPC   NC374315  18.468  17.658   5.420
 5883POPC   PO474316  18.138  17.018   5.482
 5883POPC   GL174317  18.185  17.371   5.734
 5883POPC   GL274318  18.543  17.345   5.811
 5883POPC   C1A74319  18.206  17.636   6.111
 5883POPC   D2A74320  18.323  17.484   6.523
 5883POPC   C3A74321  18.485  17.696   6.854
 5883POPC   C4A74322  18.333  17.730   7.220
 5883POPC   C1B74323  18.700  17.174   6.186
 5883POPC   C2B74324  18.544  17.019   6.570
 5883POPC   C3B74325  18.382  17.169   6.946
 5883POPC   C4B74326  18.636  17.317   7.240
 5884POPC   NC374327  12.539   3.956   5.539
 5884POPC   PO474328  12.658   3.363   5.202
 5884POPC   GL174329  12.868   3.320   5.658
 5884POPC   GL274330  13.138   3.592   5.760
 5884POPC   C1A74331  12.985   3.258   6.126
 5884POPC   D2A74332  12.898   3.099   6.542
 5884POPC   C3A74333  12.993   3.265   6.961
 5884POPC   C4A74334  12.813   3.466   7.342
 5884POPC   C1B74335  12.929   3.772   6.162
 5884POPC   C2B74336  12.981   3.632   6.580
 5884POPC   C3B74337  13.052   3.762   6.991
 5884POPC   C4B74338  13.080   3.914   7.382
 5885POPC   NC374339  20.594  40.401   5.348
 5885POPC   PO474340  20.747  41.097   5.383
 5885POPC   GL174341  20.754  40.951   5.785
 5885POPC   GL274342  20.816  40.630   5.744
 5885POPC   C1A74343  20.458  40.911   6.119
 5885POPC   D2A74344  20.254  41.029   6.513
 5885POPC   C3A74345  20.540  41.111   6.858
 5885POPC   C4A74346  20.524  40.934   7.280
 5885POPC   C1B74347  20.663  40.449   6.091
 5885POPC   C2B74348  20.621  40.619   6.510
 5885POPC   C3B74349  20.401  40.605   6.875
 5885POPC   C4B74350  20.550  40.422   7.245
 5886POPC   NC374351   7.297  11.175   5.346
 5886POPC   PO474352   8.025  11.081   5.336
 5886POPC   GL174353   7.681  11.035   5.704
 5886POPC   GL274354   7.466  11.330   5.810
 5886POPC   C1A74355   7.542  10.997   6.169
 5886POPC   D2A74356   7.524  11.256   6.552
 5886POPC   C3A74357   7.366  11.080   6.920
 5886POPC   C4A74358   7.451  11.196   7.347
 5886POPC   C1B74359   7.278  11.535   6.194
 5886POPC   C2B74360   7.071  11.489   6.618
 5886POPC   C3B74361   7.317  11.591   6.972
 5886POPC   C4B74362   7.374  11.722   7.366
 5887POPC   NC374363   6.479  20.077   5.149
 5887POPC   PO474364   6.648  19.545   5.548
 5887POPC   GL174365   6.540  19.741   5.874
 5887POPC   GL274366   6.853  19.927   5.877
 5887POPC   C1A74367   6.666  19.610   6.259
 5887POPC   D2A74368   6.473  19.609   6.636
 5887POPC   C3A74369   6.677  19.742   6.964
 5887POPC   C4A74370   6.505  19.531   7.289
 5887POPC   C1B74371   6.737  20.113   6.267
 5887POPC   C2B74372   6.546  20.146   6.654
 5887POPC   C3B74373   6.465  20.195   7.087
 5887POPC   C4B74374   6.328  20.144   7.537
 5888POPC   NC374375  10.158  13.673   5.562
 5888POPC   PO474376   9.790  13.099   5.455
 5888POPC   GL174377   9.714  13.420   5.842
 5888POPC   GL274378   9.730  13.812   5.836
 5888POPC   C1A74379   9.592  13.609   6.279
 5888POPC   D2A74380   9.702  13.671   6.732
 5888POPC   C3A74381   9.746  13.487   7.157
 5888POPC   C4A74382   9.839  13.390   7.623
 5888POPC   C1B74383  10.059  13.806   6.200
 5888POPC   C2B74384  10.180  13.897   6.662
 5888POPC   C3B74385   9.960  13.973   7.057
 5888POPC   C4B74386   9.549  13.928   7.292
 5889POPC   NC374387  18.879   6.437   5.368
 5889POPC   PO474388  19.209   6.972   5.602
 5889POPC   GL174389  18.999   6.665   5.803
 5889POPC   GL274390  19.288   6.506   5.789
 5889POPC   C1A74391  18.994   6.468   6.206
 5889POPC   D2A74392  18.862   6.787   6.473
 5889POPC   C3A74393  18.878   6.719   6.896
 5889POPC   C4A74394  18.785   6.519   7.290
 5889POPC   C1B74395  19.522   6.289   6.036
 5889POPC   C2B74396  19.509   6.324   6.458
 5889POPC   C3B74397  19.537   6.263   6.877
 5889POPC   C4B74398  19.275   6.500   7.154
 5890POPC   NC374399   9.349  10.407   5.462
 5890POPC   PO474400   8.710  10.491   5.323
 5890POPC   GL174401   8.872  10.564   5.713
 5890POPC   GL274402   8.962  10.239   5.814
 5890POPC   C1A74403   9.096  10.682   6.106
 5890POPC   D2A74404   9.122  10.561   6.555
 5890POPC   C3A74405   8.776  10.628   6.871
 5890POPC   C4A74406   8.967  10.541   7.273
 5890POPC   C1B74407   8.788  10.277   6.249
 5890POPC   C2B74408   8.653  10.138   6.667
 5890POPC   C3B74409   8.707  10.129   7.140
 5890POPC   C4B74410   8.795  10.133   7.626
 5891POPC   NC374411  38.434  13.131   5.252
 5891POPC   PO474412  38.215  12.564   5.496
 5891POPC   GL174413  38.461  12.650   5.817
 5891POPC   GL274414  38.333  12.986   5.810
 5891POPC   C1A74415  38.576  12.601   6.246
 5891POPC   D2A74416  38.707  12.546   6.674
 5891POPC   C3A74417  38.343  12.683   6.925
 5891POPC   C4A74418  38.270  12.813   7.340
 5891POPC   C1B74419  38.736  13.046   6.019
 5891POPC   C2B74420  38.815  13.030   6.484
 5891POPC   C3B74421  38.644  13.111   6.946
 5891POPC   C4B74422  38.701  13.092   7.428
 5892POPC   NC374423  26.647  26.297   5.441
 5892POPC   PO474424  26.988  25.717   5.378
 5892POPC   GL174425  26.849  25.958   5.780
 5892POPC   GL274426  27.037  26.282   5.749
 5892POPC   C1A74427  26.695  26.021   6.236
 5892POPC   D2A74428  26.768  25.915   6.710
 5892POPC   C3A74429  26.477  26.110   7.041
 5892POPC   C4A74430  26.514  26.262   7.464
 5892POPC   C1B74431  27.223  26.298   6.103
 5892POPC   C2B74432  27.065  26.287   6.516
 5892POPC   C3B74433  27.137  26.217   6.963
 5892POPC   C4B74434  26.928  25.926   7.261
 5893POPC   NC374435  10.031  11.137   5.420
 5893POPC   PO474436   9.468  11.538   5.332
 5893POPC   GL174437   9.583  11.535   5.755
 5893POPC   GL274438   9.912  11.472   5.837
 5893POPC   C1A74439   9.529  11.732   6.160
 5893POPC   D2A74440   9.394  11.567   6.557
 5893POPC   C3A74441   9.605  11.498   6.959
 5893POPC   C4A74442   9.560  11.129   7.212
 5893POPC   C1B74443   9.748  11.277   6.242
 5893POPC   C2B74444   9.932  11.232   6.667
 5893POPC   C3B74445  10.081  11.148   7.092
 5893POPC   C4B74446   9.954  11.402   7.447
 5894POPC   NC374447   2.147  29.003   4.966
 5894POPC   PO474448   1.702  29.230   5.418
 5894POPC   GL174449   1.781  29.147   5.841
 5894POPC   GL274450   2.123  29.093   5.776
 5894POPC   C1A74451   1.869  29.015   6.276
 5894POPC   D2A74452   1.944  28.787   6.676
 5894POPC   C3A74453   1.848  29.009   7.085
 5894POPC   C4A74454   1.757  29.361   7.371
 5894POPC   C1B74455   2.355  29.145   6.143
 5894POPC   C2B74456   2.284  29.195   6.583
 5894POPC   C3B74457   2.376  28.997   6.972
 5894POPC   C4B74458   2.270  29.138   7.366
 5895POPC   NC374459  11.138  19.851   5.538
 5895POPC   PO474460  11.831  19.709   5.532
 5895POPC   GL174461  11.719  19.568   5.923
 5895POPC   GL274462  11.359  19.724   5.981
 5895POPC   C1A74463  11.692  19.686   6.361
 5895POPC   D2A74464  11.334  19.908   6.497
 5895POPC   C3A74465  11.364  19.954   6.914
 5895POPC   C4A74466  11.431  19.831   7.302
 5895POPC   C1B74467  10.990  19.557   6.227
 5895POPC   C2B74468  10.839  19.682   6.616
 5895POPC   C3B74469  11.001  19.614   7.034
 5895POPC   C4B74470  10.986  19.710   7.514
 5896POPC   NC374471   6.900  10.694   5.098
 5896POPC   PO474472   6.574  10.277   5.443
 5896POPC   GL174473   6.430  10.388   5.876
 5896POPC   GL274474   6.306  10.747   5.814
 5896POPC   C1A74475   6.602  10.247   6.287
 5896POPC   D2A74476   6.815  10.439   6.647
 5896POPC   C3A74477   6.687  10.304   7.064
 5896POPC   C4A74478   6.819  10.498   7.442
 5896POPC   C1B74479   6.470  10.762   6.258
 5896POPC   C2B74480   6.350  10.641   6.690
 5896POPC   C3B74481   6.401  10.883   7.083
 5896POPC   C4B74482   6.396  10.723   7.517
 5897POPC   NC374483  17.176  44.803   5.807
 5897POPC   PO474484  16.951  44.316   5.448
 5897POPC   GL174485  16.747  44.563   5.859
 5897POPC   GL274486  16.670  44.967   5.966
 5897POPC   C1A74487  16.809  44.657   6.323
 5897POPC   D2A74488  17.080  44.627   6.657
 5897POPC   C3A74489  16.853  44.389   6.975
 5897POPC   C4A74490  16.741  44.350   7.421
 5897POPC   C1B74491  16.365  44.918   6.374
 5897POPC   C2B74492  16.086  44.806   6.762
 5897POPC   C3B74493  16.066  44.905   7.233
 5897POPC   C4B74494  16.380  44.754   7.597
 5898POPC   NC374495   9.617   2.866   5.309
 5898POPC   PO474496   9.935   2.391   5.338
 5898POPC   GL174497   9.712   2.556   5.686
 5898POPC   GL274498   9.736   2.908   5.785
 5898POPC   C1A74499   9.728   2.463   6.102
 5898POPC   D2A74500   9.933   2.540   6.481
 5898POPC   C3A74501   9.676   2.493   6.846
 5898POPC   C4A74502   9.681   2.601   7.286
 5898POPC   C1B74503   9.556   2.930   6.173
 5898POPC   C2B74504   9.687   2.964   6.578
 5898POPC   C3B74505   9.596   3.009   6.991
 5898POPC   C4B74506   9.531   3.355   7.205
 5899POPC   NC374507  43.578  34.442   5.374
 5899POPC   PO474508  44.170  34.764   5.243
 5899POPC   GL174509  43.926  34.837   5.675
 5899POPC   GL274510  43.534  34.848   5.677
 5899POPC   C1A74511  44.038  34.727   6.138
 5899POPC   D2A74512  44.149  34.749   6.586
 5899POPC   C3A74513  44.133  34.523   6.984
 5899POPC   C4A74514  44.039  34.943   7.196
 5899POPC   C1B74515  43.550  34.651   6.063
 5899POPC   C2B74516  43.632  34.767   6.507
 5899POPC   C3B74517  43.662  34.659   6.955
 5899POPC   C4B74518  43.548  34.264   7.152
 5900POPC   NC374519  29.943   1.662   5.440
 5900POPC   PO474520  29.780   2.360   5.472
 5900POPC   GL174521  29.777   2.005   5.814
 5900POPC   GL274522  30.141   1.984   5.853
 5900POPC   C1A74523  29.915   1.872   6.295
 5900POPC   D2A74524  30.224   1.683   6.617
 5900POPC   C3A74525  30.078   1.629   7.052
 5900POPC   C4A74526  29.667   1.747   7.213
 5900POPC   C1B74527  29.969   2.354   6.105
 5900POPC   C2B74528  29.858   2.379   6.523
 5900POPC   C3B74529  29.921   2.094   6.855
 5900POPC   C4B74530  29.902   2.196   7.282
 5901POPC   NC374531   7.324  16.389   5.461
 5901POPC   PO474532   7.767  15.853   5.595
 5901POPC   GL174533   7.631  16.217   5.856
 5901POPC   GL274534   7.275  16.163   5.907
 5901POPC   C1A74535   7.602  16.366   6.292
 5901POPC   D2A74536   7.442  16.105   6.640
 5901POPC   C3A74537   7.518  16.212   7.076
 5901POPC   C4A74538   7.505  15.913   7.379
 5901POPC   C1B74539   7.155  15.893   6.234
 5901POPC   C2B74540   7.046  15.691   6.606
 5901POPC   C3B74541   7.119  15.893   6.990
 5901POPC   C4B74542   7.043  15.750   7.365
 5902POPC   NC374543  42.603  34.463   5.156
 5902POPC   PO474544  42.215  34.840   5.572
 5902POPC   GL174545  42.121  34.434   5.816
 5902POPC   GL274546  42.412  34.169   5.888
 5902POPC   C1A74547  42.153  34.447   6.283
 5902POPC   D2A74548  42.143  34.681   6.688
 5902POPC   C3A74549  42.333  34.543   7.074
 5902POPC   C4A74550  42.434  34.512   7.516
 5902POPC   C1B74551  42.666  34.250   6.284
 5902POPC   C2B74552  42.697  34.382   6.742
 5902POPC   C3B74553  42.808  34.364   7.223
 5902POPC   C4B74554  42.844  34.134   7.690
 5903POPC   NC374555  32.856  20.932   5.071
 5903POPC   PO474556  32.426  20.409   5.405
 5903POPC   GL174557  32.352  20.562   5.816
 5903POPC   GL274558  32.036  20.752   5.839
 5903POPC   C1A74559  32.471  20.782   6.183
 5903POPC   D2A74560  32.199  20.875   6.536
 5903POPC   C3A74561  32.435  20.807   6.840
 5903POPC   C4A74562  32.668  20.664   7.203
 5903POPC   C1B74563  32.021  20.513   6.223
 5903POPC   C2B74564  31.951  20.470   6.708
 5903POPC   C3B74565  32.123  20.570   7.171
 5903POPC   C4B74566  31.925  20.556   7.628
 5904POPC   NC374567  31.378  32.872   5.289
 5904POPC   PO474568  31.717  33.438   5.471
 5904POPC   GL174569  31.469  33.189   5.768
 5904POPC   GL274570  31.455  32.817   5.808
 5904POPC   C1A74571  31.479  33.178   6.223
 5904POPC   D2A74572  31.288  33.088   6.610
 5904POPC   C3A74573  31.423  33.185   7.035
 5904POPC   C4A74574  31.695  33.184   7.387
 5904POPC   C1B74575  31.151  32.713   6.134
 5904POPC   C2B74576  31.179  32.568   6.560
 5904POPC   C3B74577  31.277  32.688   6.969
 5904POPC   C4B74578  31.439  32.753   7.384
 5905POPC   NC374579  15.633  29.456   5.470
 5905POPC   PO474580  16.266  29.119   5.476
 5905POPC   GL174581  15.937  29.159   5.773
 5905POPC   GL274582  15.788  28.852   5.881
 5905POPC   C1A74583  15.922  29.357   6.148
 5905POPC   D2A74584  16.022  29.264   6.563
 5905POPC   C3A74585  15.897  29.422   6.938
 5905POPC   C4A74586  16.208  29.382   7.256
 5905POPC   C1B74587  16.063  28.871   6.230
 5905POPC   C2B74588  16.176  28.788   6.642
 5905POPC   C3B74589  16.156  28.920   7.050
 5905POPC   C4B74590  16.130  28.624   7.387
 5906POPC   NC374591  40.351   6.772   5.121
 5906POPC   PO474592  39.943   6.352   5.498
 5906POPC   GL174593  39.930   6.616   5.871
 5906POPC   GL274594  40.079   6.941   5.732
 5906POPC   C1A74595  39.895   6.606   6.329
 5906POPC   D2A74596  39.672   6.649   6.711
 5906POPC   C3A74597  39.731   6.324   7.056
 5906POPC   C4A74598  40.145   6.293   7.257
 5906POPC   C1B74599  40.217   6.991   6.138
 5906POPC   C2B74600  40.124   7.149   6.532
 5906POPC   C3B74601  39.890   7.086   6.885
 5906POPC   C4B74602  39.959   6.759   7.124
 5907POPC   NC374603  15.559   1.747   5.482
 5907POPC   PO474604  15.307   2.319   5.374
 5907POPC   GL174605  15.180   2.134   5.755
 5907POPC   GL274606  14.904   1.888   5.727
 5907POPC   C1A74607  15.328   2.073   6.167
 5907POPC   D2A74608  15.149   1.971   6.531
 5907POPC   C3A74609  15.355   2.098   6.851
 5907POPC   C4A74610  15.179   2.104   7.208
 5907POPC   C1B74611  14.774   1.942   6.165
 5907POPC   C2B74612  14.686   1.776   6.610
 5907POPC   C3B74613  14.986   1.664   6.952
 5907POPC   C4B74614  14.906   1.454   7.357
 5908POPC   NC374615  44.146   0.593   5.461
 5908POPC   PO474616  43.922  44.917   5.448
 5908POPC   GL174617  43.679   0.116   5.749
 5908POPC   GL274618  43.628   0.502   5.700
 5908POPC   C1A74619  43.798  44.991   6.155
 5908POPC   D2A74620  44.064   0.143   6.492
 5908POPC   C3A74621  43.882   0.203   6.910
 5908POPC   C4A74622  43.776   0.243   7.350
 5908POPC   C1B74623  43.856   0.503   6.107
 5908POPC   C2B74624  43.813   0.589   6.555
 5908POPC   C3B74625  43.772   0.703   6.989
 5908POPC   C4B74626  43.679   0.743   7.420
 5909POPC   NC374627  28.490  35.532   5.444
 5909POPC   PO474628  28.118  35.007   5.520
 5909POPC   GL174629  28.297  35.247   5.820
 5909POPC   GL274630  28.661  35.168   5.859
 5909POPC   C1A74631  28.337  35.364   6.216
 5909POPC   D2A74632  28.092  35.449   6.536
 5909POPC   C3A74633  28.325  35.459   6.889
 5909POPC   C4A74634  28.250  35.592   7.270
 5909POPC   C1B74635  28.746  35.013   6.320
 5909POPC   C2B74636  28.694  35.117   6.791
 5909POPC   C3B74637  28.463  35.098   7.235
 5909POPC   C4B74638  28.535  34.885   7.653
 5910POPC   NC374639  26.009  35.061   5.152
 5910POPC   PO474640  25.898  34.467   5.464
 5910POPC   GL174641  25.945  34.360   5.873
 5910POPC   GL274642  25.854  34.714   5.919
 5910POPC   C1A74643  26.181  34.454   6.221
 5910POPC   D2A74644  26.308  34.667   6.561
 5910POPC   C3A74645  26.168  34.521   6.902
 5910POPC   C4A74646  26.079  34.770   7.210
 5910POPC   C1B74647  25.859  34.858   6.348
 5910POPC   C2B74648  25.744  34.949   6.782
 5910POPC   C3B74649  25.640  35.002   7.223
 5910POPC   C4B74650  25.795  34.760   7.642
 5911POPC   NC374651  25.299  25.830   5.018
 5911POPC   PO474652  25.537  26.322   5.586
 5911POPC   GL174653  25.332  26.022   5.822
 5911POPC   GL274654  25.003  26.034   5.683
 5911POPC   C1A74655  25.420  26.003   6.262
 5911POPC   D2A74656  25.545  26.193   6.623
 5911POPC   C3A74657  25.455  25.934   6.981
 5911POPC   C4A74658  25.568  26.067   7.423
 5911POPC   C1B74659  24.919  26.094   6.140
 5911POPC   C2B74660  24.940  25.905   6.568
 5911POPC   C3B74661  24.953  25.965   7.036
 5911POPC   C4B74662  25.075  25.909   7.499
 5912POPC   NC374663   7.649  25.403   5.213
 5912POPC   PO474664   7.031  25.288   5.434
 5912POPC   GL174665   7.418  25.153   5.596
 5912POPC   GL274666   7.311  24.964   5.848
 5912POPC   C1A74667   7.626  25.357   5.954
 5912POPC   D2A74668   7.550  25.555   6.360
 5912POPC   C3A74669   7.719  25.446   6.765
 5912POPC   C4A74670   7.610  25.237   7.119
 5912POPC   C1B74671   7.185  25.206   6.219
 5912POPC   C2B74672   7.106  25.335   6.668
 5912POPC   C3B74673   7.101  25.240   7.129
 5912POPC   C4B74674   6.871  24.927   7.356
 5913POPC   NC374675  40.970  33.642   5.363
 5913POPC   PO474676  40.554  34.074   5.396
 5913POPC   GL174677  40.672  34.101   5.822
 5913POPC   GL274678  41.031  34.040   5.773
 5913POPC   C1A74679  40.648  33.918   6.239
 5913POPC   D2A74680  40.894  33.929   6.612
 5913POPC   C3A74681  40.646  33.822   6.968
 5913POPC   C4A74682  40.624  33.633   7.364
 5913POPC   C1B74683  41.101  33.683   6.088
 5913POPC   C2B74684  41.309  33.642   6.500
 5913POPC   C3B74685  41.146  33.590   6.933
 5913POPC   C4B74686  41.069  33.846   7.309
 5914POPC   NC374687  28.152  24.719   5.403
 5914POPC   PO474688  27.934  24.122   5.682
 5914POPC   GL174689  28.337  24.251   5.853
 5914POPC   GL274690  28.344  24.604   5.878
 5914POPC   C1A74691  28.409  24.277   6.282
 5914POPC   D2A74692  28.344  24.571   6.634
 5914POPC   C3A74693  28.436  24.388   7.059
 5914POPC   C4A74694  28.482  24.411   7.497
 5914POPC   C1B74695  28.657  24.705   6.230
 5914POPC   C2B74696  28.653  24.965   6.630
 5914POPC   C3B74697  28.583  24.901   7.073
 5914POPC   C4B74698  28.677  24.874   7.497
 5915POPC   NC374699  28.716  17.329   5.409
 5915POPC   PO474700  28.212  17.790   5.331
 5915POPC   GL174701  28.185  17.572   5.769
 5915POPC   GL274702  28.497  17.371   5.896
 5915POPC   C1A74703  28.141  17.572   6.245
 5915POPC   D2A74704  28.295  17.730   6.657
 5915POPC   C3A74705  28.314  17.475   7.028
 5915POPC   C4A74706  28.192  17.558   7.469
 5915POPC   C1B74707  28.638  17.734   6.182
 5915POPC   C2B74708  28.812  17.847   6.607
 5915POPC   C3B74709  28.790  17.691   7.033
 5915POPC   C4B74710  28.673  17.421   7.384
 5916POPC   NC374711  37.494  27.246   5.334
 5916POPC   PO474712  37.536  27.904   5.337
 5916POPC   GL174713  37.636  27.609   5.710
 5916POPC   GL274714  37.467  27.776   5.999
 5916POPC   C1A74715  37.825  27.386   6.087
 5916POPC   D2A74716  38.033  27.314   6.507
 5916POPC   C3A74717  37.875  27.474   6.891
 5916POPC   C4A74718  37.710  27.342   7.292
 5916POPC   C1B74719  37.606  27.707   6.419
 5916POPC   C2B74720  37.396  27.669   6.786
 5916POPC   C3B74721  37.558  27.796   7.155
 5916POPC   C4B74722  37.952  27.784   7.465
 5917POPC   NC374723  31.344  32.099   5.521
 5917POPC   PO474724  31.729  32.604   5.410
 5917POPC   GL174725  31.772  32.370   5.810
 5917POPC   GL274726  31.603  32.027   5.951
 5917POPC   C1A74727  31.569  32.435   6.213
 5917POPC   D2A74728  31.498  32.170   6.528
 5917POPC   C3A74729  31.628  32.328   6.859
 5917POPC   C4A74730  31.627  32.249   7.254
 5917POPC   C1B74731  31.156  32.105   6.162
 5917POPC   C2B74732  31.006  32.081   6.602
 5917POPC   C3B74733  31.162  32.182   7.038
 5917POPC   C4B74734  31.066  32.436   7.421
 5918POPC   NC374735  41.588  19.034   5.348
 5918POPC   PO474736  40.881  18.849   5.450
 5918POPC   GL174737  41.346  18.930   5.779
 5918POPC   GL274738  41.488  19.296   5.801
 5918POPC   C1A74739  41.510  18.807   6.189
 5918POPC   D2A74740  41.754  18.754   6.571
 5918POPC   C3A74741  41.513  18.715   6.931
 5918POPC   C4A74742  41.404  18.940   7.319
 5918POPC   C1B74743  41.759  19.354   6.128
 5918POPC   C2B74744  41.842  19.261   6.550
 5918POPC   C3B74745  41.631  19.208   6.922
 5918POPC   C4B74746  41.781  19.286   7.323
 5919POPC   NC374747  21.693  32.133   5.451
 5919POPC   PO474748  21.139  32.019   5.240
 5919POPC   GL174749  21.248  32.215   5.704
 5919POPC   GL274750  21.472  32.502   5.779
 5919POPC   C1A74751  21.260  32.278   6.198
 5919POPC   D2A74752  21.465  32.429   6.616
 5919POPC   C3A74753  21.383  32.130   6.976
 5919POPC   C4A74754  21.728  31.904   7.133
 5919POPC   C1B74755  21.498  32.756   6.186
 5919POPC   C2B74756  21.705  32.918   6.568
 5919POPC   C3B74757  21.592  32.854   6.991
 5919POPC   C4B74758  21.244  32.605   7.073
 5920POPC   NC374759  42.457  44.468   5.325
 5920POPC   PO474760  42.103   0.070   5.362
 5920POPC   GL174761  42.324   0.018   5.737
 5920POPC   GL274762  42.463  44.704   5.779
 5920POPC   C1A74763  42.205  44.982   6.166
 5920POPC   D2A74764  42.296  44.625   6.415
 5920POPC   C3A74765  42.273  44.728   6.853
 5920POPC   C4A74766  42.304  44.479   7.199
 5920POPC   C1B74767  42.719  44.843   6.125
 5920POPC   C2B74768  42.616  44.988   6.542
 5920POPC   C3B74769  42.753  44.935   6.931
 5920POPC   C4B74770  42.580  44.905   7.316
 5921POPC   NC374771  23.993  22.490   5.185
 5921POPC   PO474772  23.552  22.063   5.446
 5921POPC   GL174773  23.469  22.088   5.890
 5921POPC   GL274774  23.445  22.409   6.071
 5921POPC   C1A74775  23.689  21.981   6.272
 5921POPC   D2A74776  23.925  21.968   6.667
 5921POPC   C3A74777  23.617  21.967   7.027
 5921POPC   C4A74778  23.533  22.259   7.305
 5921POPC   C1B74779  23.685  22.495   6.360
 5921POPC   C2B74780  23.598  22.362   6.729
 5921POPC   C3B74781  23.929  22.389   7.006
 5921POPC   C4B74782  23.889  22.630   7.342
 5922POPC   NC374783  20.128  12.315   5.388
 5922POPC   PO474784  19.446  12.233   5.516
 5922POPC   GL174785  19.679  12.128   5.902
 5922POPC   GL274786  20.038  12.118   5.854
 5922POPC   C1A74787  19.848  12.033   6.318
 5922POPC   D2A74788  19.918  11.698   6.580
 5922POPC   C3A74789  19.882  11.851   6.991
 5922POPC   C4A74790  19.739  12.116   7.322
 5922POPC   C1B74791  20.229  12.350   6.193
 5922POPC   C2B74792  20.108  12.466   6.618
 5922POPC   C3B74793  20.165  12.296   7.029
 5922POPC   C4B74794  20.307  11.932   7.279
 5923POPC   NC374795  34.432   8.111   5.104
 5923POPC   PO474796  34.908   8.281   5.570
 5923POPC   GL174797  34.598   8.311   5.854
 5923POPC   GL274798  34.458   7.985   5.970
 5923POPC   C1A74799  34.468   8.439   6.247
 5923POPC   D2A74800  34.344   8.308   6.677
 5923POPC   C3A74801  34.656   8.134   6.939
 5923POPC   C4A74802  34.847   7.846   7.221
 5923POPC   C1B74803  34.102   8.079   6.260
 5923POPC   C2B74804  33.903   8.060   6.639
 5923POPC   C3B74805  34.113   7.905   6.967
 5923POPC   C4B74806  34.350   7.986   7.303
 5924POPC   NC374807   1.241  35.486   5.535
 5924POPC   PO474808   0.879  34.904   5.661
 5924POPC   GL174809   1.036  35.248   5.937
 5924POPC   GL274810   0.907  35.620   5.901
 5924POPC   C1A74811   1.374  35.376   6.206
 5924POPC   D2A74812   1.452  35.559   6.605
 5924POPC   C3A74813   1.256  35.331   6.905
 5924POPC   C4A74814   1.092  35.252   7.310
 5924POPC   C1B74815   0.962  35.672   6.343
 5924POPC   C2B74816   0.856  35.623   6.794
 5924POPC   C3B74817   1.031  35.743   7.186
 5924POPC   C4B74818   0.964  35.651   7.630
 5925POPC   NC374819  23.595   5.479   5.353
 5925POPC   PO474820  23.714   6.087   5.320
 5925POPC   GL174821  23.735   6.181   5.787
 5925POPC   GL274822  23.449   5.987   5.922
 5925POPC   C1A74823  23.868   6.069   6.233
 5925POPC   D2A74824  23.901   5.674   6.521
 5925POPC   C3A74825  23.822   5.751   6.977
 5925POPC   C4A74826  23.537   5.975   7.250
 5925POPC   C1B74827  23.429   5.698   6.302
 5925POPC   C2B74828  23.353   5.687   6.741
 5925POPC   C3B74829  23.421   5.475   7.133
 5925POPC   C4B74830  23.226   5.599   7.454
 5926POPC   NC374831  28.917  33.973   5.416
 5926POPC   PO474832  29.388  33.616   5.415
 5926POPC   GL174833  29.258  33.817   5.792
 5926POPC   GL274834  28.914  33.779   5.900
 5926POPC   C1A74835  29.266  33.995   6.215
 5926POPC   D2A74836  29.049  33.930   6.616
 5926POPC   C3A74837  29.274  33.862   6.994
 5926POPC   C4A74838  29.291  33.572   7.323
 5926POPC   C1B74839  28.767  33.605   6.313
 5926POPC   C2B74840  28.716  33.537   6.770
 5926POPC   C3B74841  28.802  33.674   7.188
 5926POPC   C4B74842  28.630  33.922   7.493
 5927POPC   NC374843  11.218  21.613   5.622
 5927POPC   PO474844  10.814  21.023   5.523
 5927POPC   GL174845  11.101  21.050   5.925
 5927POPC   GL274846  11.448  20.902   5.971
 5927POPC   C1A74847  11.314  21.319   6.266
 5927POPC   D2A74848  11.358  21.542   6.672
 5927POPC   C3A74849  11.096  21.375   7.005
 5927POPC   C4A74850  10.857  21.351   7.385
 5927POPC   C1B74851  11.704  20.943   6.315
 5927POPC   C2B74852  11.790  21.241   6.636
 5927POPC   C3B74853  11.627  21.288   7.058
 5927POPC   C4B74854  11.815  21.439   7.427
 5928POPC   NC374855  44.749  36.352   5.430
 5928POPC   PO474856  44.438  35.727   5.238
 5928POPC   GL174857  44.606  35.860   5.694
 5928POPC   GL274858  44.499  36.165   5.840
 5928POPC   C1A74859  44.722  35.853   6.180
 5928POPC   D2A74860  44.695  35.602   6.585
 5928POPC   C3A74861  44.756  35.699   7.019
 5928POPC   C4A74862  44.468  35.914   7.288
 5928POPC   C1B74863  44.511  36.341   6.251
 5928POPC   C2B74864  44.677  36.272   6.666
 5928POPC   C3B74865  44.432  36.377   7.036
 5928POPC   C4B74866  44.583  36.548   7.424
 5929POPC   NC374867  13.842   5.764   5.155
 5929POPC   PO474868  13.294   5.710   5.595
 5929POPC   GL174869  13.550   5.972   5.843
 5929POPC   GL274870  13.933   5.956   5.811
 5929POPC   C1A74871  13.489   5.847   6.250
 5929POPC   D2A74872  13.536   5.445   6.521
 5929POPC   C3A74873  13.477   5.491   6.983
 5929POPC   C4A74874  13.586   5.791   7.308
 5929POPC   C1B74875  13.982   5.887   6.261
 5929POPC   C2B74876  13.751   5.904   6.708
 5929POPC   C3B74877  13.692   6.213   7.083
 5929POPC   C4B74878  13.879   6.148   7.538
 5930POPC   NC374879  20.566  16.045   5.401
 5930POPC   PO474880  20.992  15.575   5.532
 5930POPC   GL174881  20.704  15.837   5.861
 5930POPC   GL274882  20.358  16.039   5.868
 5930POPC   C1A74883  20.549  15.799   6.311
 5930POPC   D2A74884  20.450  15.600   6.721
 5930POPC   C3A74885  20.656  15.802   7.063
 5930POPC   C4A74886  20.658  15.938   7.498
 5930POPC   C1B74887  20.432  16.298   6.263
 5930POPC   C2B74888  20.366  16.204   6.726
 5930POPC   C3B74889  20.401  16.282   7.173
 5930POPC   C4B74890  20.122  16.458   7.481
 5931POPC   NC374891   5.353   0.690   5.517
 5931POPC   PO474892   5.004   0.117   5.318
 5931POPC   GL174893   4.831   0.304   5.720
 5931POPC   GL274894   5.150   0.370   5.869
 5931POPC   C1A74895   4.743   0.370   6.188
 5931POPC   D2A74896   4.903   0.617   6.543
 5931POPC   C3A74897   4.980   0.451   6.941
 5931POPC   C4A74898   4.805   0.302   7.298
 5931POPC   C1B74899   5.339   0.566   6.267
 5931POPC   C2B74900   5.438   0.598   6.725
 5931POPC   C3B74901   5.450   0.634   7.213
 5931POPC   C4B74902   5.566   0.791   7.681
 5932POPC   NC374903  23.193  34.336   5.505
 5932POPC   PO474904  22.696  34.794   5.390
 5932POPC   GL174905  22.902  34.732   5.770
 5932POPC   GL274906  22.771  34.440   5.815
 5932POPC   C1A74907  23.089  34.574   6.188
 5932POPC   D2A74908  23.217  34.336   6.587
 5932POPC   C3A74909  23.082  34.531   7.004
 5932POPC   C4A74910  22.940  34.684   7.431
 5932POPC   C1B74911  22.587  34.644   6.199
 5932POPC   C2B74912  22.694  34.693   6.630
 5932POPC   C3B74913  22.569  34.590   7.048
 5932POPC   C4B74914  22.599  34.313   7.391
 5933POPC   NC374915  41.015  26.822   5.497
 5933POPC   PO474916  40.391  26.651   5.202
 5933POPC   GL174917  40.552  26.854   5.656
 5933POPC   GL274918  40.484  27.208   5.645
 5933POPC   C1A74919  40.670  26.679   6.113
 5933POPC   D2A74920  40.629  26.589   6.584
 5933POPC   C3A74921  40.851  26.731   6.965
 5933POPC   C4A74922  40.818  27.119   7.225
 5933POPC   C1B74923  40.550  27.163   6.090
 5933POPC   C2B74924  40.556  27.150   6.551
 5933POPC   C3B74925  40.377  26.964   6.929
 5933POPC   C4B74926  40.138  27.149   7.273
 5934POPC   NC374927  21.110  21.309   5.423
 5934POPC   PO474928  21.660  21.734   5.589
 5934POPC   GL174929  21.443  21.407   5.831
 5934POPC   GL274930  21.595  21.074   5.817
 5934POPC   C1A74931  21.289  21.323   6.248
 5934POPC   D2A74932  21.367  21.526   6.614
 5934POPC   C3A74933  21.164  21.352   6.968
 5934POPC   C4A74934  21.263  21.609   7.316
 5934POPC   C1B74935  21.767  20.912   6.210
 5934POPC   C2B74936  21.655  21.054   6.604
 5934POPC   C3B74937  21.833  21.059   6.995
 5934POPC   C4B74938  21.554  21.198   7.300
 5935POPC   NC374939   8.200  30.149   5.625
 5935POPC   PO474940   7.793  29.592   5.437
 5935POPC   GL174941   8.007  29.651   5.864
 5935POPC   GL274942   8.384  29.628   5.903
 5935POPC   C1A74943   8.085  29.823   6.327
 5935POPC   D2A74944   7.992  30.070   6.740
 5935POPC   C3A74945   8.014  29.773   7.090
 5935POPC   C4A74946   8.267  29.771   7.442
 5935POPC   C1B74947   8.558  29.961   6.193
 5935POPC   C2B74948   8.477  30.231   6.554
 5935POPC   C3B74949   8.449  30.083   6.979
 5935POPC   C4B74950   8.546  30.175   7.390
 5936POPC   NC374951   5.146  19.460   5.558
 5936POPC   PO474952   4.876  18.905   5.153
 5936POPC   GL174953   4.955  18.957   5.664
 5936POPC   GL274954   5.271  19.036   5.852
 5936POPC   C1A74955   4.824  19.103   6.116
 5936POPC   D2A74956   5.024  19.352   6.466
 5936POPC   C3A74957   5.108  19.090   6.839
 5936POPC   C4A74958   4.802  19.072   7.180
 5936POPC   C1B74959   5.332  18.959   6.320
 5936POPC   C2B74960   5.564  18.785   6.691
 5936POPC   C3B74961   5.511  18.828   7.139
 5936POPC   C4B74962   5.546  19.184   7.389
 5937POPC   NC374963  14.146  28.590   5.455
 5937POPC   PO474964  13.460  28.549   5.354
 5937POPC   GL174965  13.527  28.293   5.714
 5937POPC   GL274966  13.542  28.579   5.939
 5937POPC   C1A74967  13.350  28.167   6.124
 5937POPC   D2A74968  13.362  28.461   6.463
 5937POPC   C3A74969  13.593  28.331   6.829
 5937POPC   C4A74970  13.390  28.150   7.174
 5937POPC   C1B74971  13.854  28.561   6.247
 5937POPC   C2B74972  14.058  28.504   6.630
 5937POPC   C3B74973  14.008  28.665   7.031
 5937POPC   C4B74974  13.631  28.646   7.280
 5938POPC   NC374975  13.342  17.862   5.377
 5938POPC   PO474976  13.869  17.501   5.548
 5938POPC   GL174977  13.475  17.563   5.831
 5938POPC   GL274978  13.395  17.244   5.987
 5938POPC   C1A74979  13.193  17.687   6.212
 5938POPC   D2A74980  13.092  17.831   6.650
 5938POPC   C3A74981  13.272  17.511   6.941
 5938POPC   C4A74982  13.372  17.208   7.278
 5938POPC   C1B74983  13.550  17.377   6.390
 5938POPC   C2B74984  13.642  17.147   6.756
 5938POPC   C3B74985  13.823  17.322   7.093
 5938POPC   C4B74986  13.743  17.654   7.360
 5939POPC   NC374987   0.002  26.638   5.579
 5939POPC   PO474988   0.206  27.166   5.192
 5939POPC   GL174989   0.441  26.908   5.651
 5939POPC   GL274990   0.567  26.563   5.730
 5939POPC   C1A74991   0.322  26.771   6.136
 5939POPC   D2A74992   0.178  26.925   6.541
 5939POPC   C3A74993   0.329  26.813   6.930
 5939POPC   C4A74994   0.209  26.955   7.320
 5939POPC   C1B74995   0.822  26.717   6.119
 5939POPC   C2B74996   0.712  26.748   6.538
 5939POPC   C3B74997   0.871  26.659   6.937
 5939POPC   C4B74998   0.725  26.909   7.259
 5940POPC   NC374999   0.059  34.040   5.294
 5940POPC   PO475000   0.734  33.770   5.299
 5940POPC   GL175001   0.713  33.804   5.764
 5940POPC   GL275002   0.333  33.850   5.779
 5940POPC   C1A75003   0.632  33.522   6.141
 5940POPC   D2A75004   0.559  33.463   6.585
 5940POPC   C3A75005   0.425  33.786   6.830
 5940POPC   C4A75006   0.239  33.748   7.211
 5940POPC   C1B75007   0.391  33.961   6.207
 5940POPC   C2B75008   0.737  33.955   6.448
 5940POPC   C3B75009   0.733  34.208   6.782
 5940POPC   C4B75010   0.725  34.075   7.191
 5941POPC   NC375011  10.634   5.448   5.424
 5941POPC   PO475012  10.852   4.878   5.382
 5941POPC   GL175013  10.506   5.003   5.716
 5941POPC   GL275014  10.145   4.921   5.801
 5941POPC   C1A75015  10.471   4.909   6.199
 5941POPC   D2A75016  10.648   4.800   6.622
 5941POPC   C3A75017  10.604   4.978   7.011
 5941POPC   C4A75018  10.592   5.338   7.296
 5941POPC   C1B75019  10.001   5.083   6.240
 5941POPC   C2B75020  10.205   5.067   6.658
 5941POPC   C3B75021  10.131   5.140   7.097
 5941POPC   C4B75022   9.903   5.198   7.468
 5942POPC   NC375023  10.468  26.260   5.407
 5942POPC   PO475024  10.829  25.657   5.420
 5942POPC   GL175025  10.698  25.968   5.770
 5942POPC   GL275026  10.422  26.234   5.893
 5942POPC   C1A75027  10.824  26.117   6.189
 5942POPC   D2A75028  10.729  25.922   6.585
 5942POPC   C3A75029  10.795  26.124   6.995
 5942POPC   C4A75030  10.681  25.864   7.352
 5942POPC   C1B75031  10.360  25.886   6.170
 5942POPC   C2B75032  10.322  25.614   6.543
 5942POPC   C3B75033  10.341  25.866   6.935
 5942POPC   C4B75034  10.170  26.004   7.316
 5943POPC   NC375035  41.085  13.696   5.516
 5943POPC   PO475036  40.472  13.568   5.445
 5943POPC   GL175037  40.706  13.596   5.864
 5943POPC   GL275038  40.845  13.939   5.894
 5943POPC   C1A75039  40.808  13.378   6.287
 5943POPC   D2A75040  40.883  13.579   6.702
 5943POPC   C3A75041  40.985  13.375   7.087
 5943POPC   C4A75042  40.685  13.153   7.354
 5943POPC   C1B75043  40.746  13.906   6.307
 5943POPC   C2B75044  41.039  14.058   6.619
 5943POPC   C3B75045  41.008  13.951   7.065
 5943POPC   C4B75046  41.164  13.737   7.414
 5944POPC   NC375047  15.792  14.292   5.514
 5944POPC   PO475048  16.196  14.821   5.493
 5944POPC   GL175049  16.012  14.631   5.824
 5944POPC   GL275050  15.600  14.674   5.782
 5944POPC   C1A75051  16.196  14.567   6.247
 5944POPC   D2A75052  16.074  14.660   6.669
 5944POPC   C3A75053  16.025  14.400   7.022
 5944POPC   C4A75054  16.393  14.287   7.215
 5944POPC   C1B75055  15.690  14.459   6.210
 5944POPC   C2B75056  15.601  14.460   6.668
 5944POPC   C3B75057  15.475  14.281   7.073
 5944POPC   C4B75058  15.573  14.377   7.516
 5945POPC   NC375059  22.283   3.843   5.013
 5945POPC   PO475060  22.496   3.451   5.531
 5945POPC   GL175061  22.263   3.478   5.912
 5945POPC   GL275062  21.996   3.248   5.929
 5945POPC   C1A75063  22.219   3.444   6.371
 5945POPC   D2A75064  21.988   3.735   6.672
 5945POPC   C3A75065  21.966   3.670   7.096
 5945POPC   C4A75066  22.376   3.614   7.258
 5945POPC   C1B75067  21.732   3.330   6.254
 5945POPC   C2B75068  21.822   3.247   6.667
 5945POPC   C3B75069  22.201   3.240   6.889
 5945POPC   C4B75070  22.091   3.179   7.294
 5946POPC   NC375071  30.535  44.191   5.496
 5946POPC   PO475072  30.835  43.642   5.404
 5946POPC   GL175073  30.597  43.743   5.758
 5946POPC   GL275074  30.875  43.662   5.939
 5946POPC   C1A75075  30.499  43.882   6.187
 5946POPC   D2A75076  30.525  43.682   6.585
 5946POPC   C3A75077  30.626  43.882   6.949
 5946POPC   C4A75078  30.633  43.697   7.372
 5946POPC   C1B75079  30.991  43.655   6.322
 5946POPC   C2B75080  30.980  43.433   6.654
 5946POPC   C3B75081  30.733  43.371   6.971
 5946POPC   C4B75082  30.979  43.326   7.260
 5947POPC   NC375083  26.377  42.018   5.296
 5947POPC   PO475084  26.826  42.534   5.405
 5947POPC   GL175085  26.773  42.339   5.772
 5947POPC   GL275086  26.517  42.552   5.913
 5947POPC   C1A75087  26.955  42.386   6.167
 5947POPC   D2A75088  27.038  42.493   6.584
 5947POPC   C3A75089  26.872  42.229   6.952
 5947POPC   C4A75090  26.620  42.342   7.344
 5947POPC   C1B75091  26.464  42.277   6.254
 5947POPC   C2B75092  26.481  41.990   6.594
 5947POPC   C3B75093  26.330  42.056   7.024
 5947POPC   C4B75094  26.321  41.903   7.478
 5948POPC   NC375095  25.622  16.250   5.329
 5948POPC   PO475096  25.412  15.649   5.251
 5948POPC   GL175097  25.397  15.625   5.723
 5948POPC   GL275098  25.507  15.931   5.733
 5948POPC   C1A75099  25.118  15.747   6.124
 5948POPC   D2A75100  24.915  16.074   6.386
 5948POPC   C3A75101  25.101  16.067   6.795
 5948POPC   C4A75102  25.252  15.989   7.195
 5948POPC   C1B75103  25.606  15.917   6.167
 5948POPC   C2B75104  25.551  16.232   6.477
 5948POPC   C3B75105  25.593  16.223   6.903
 5948POPC   C4B75106  25.691  16.246   7.328
 5949POPC   NC375107   1.431   7.034   5.403
 5949POPC   PO475108   1.442   6.351   5.442
 5949POPC   GL175109   1.297   6.664   5.750
 5949POPC   GL275110   0.962   6.569   5.732
 5949POPC   C1A75111   1.264   6.867   6.169
 5949POPC   D2A75112   1.469   6.748   6.557
 5949POPC   C3A75113   1.277   6.983   6.858
 5949POPC   C4A75114   1.177   7.012   7.264
 5949POPC   C1B75115   1.099   6.380   6.153
 5949POPC   C2B75116   1.106   6.390   6.620
 5949POPC   C3B75117   1.244   6.485   7.047
 5949POPC   C4B75118   0.961   6.569   7.391
 5950POPC   NC375119   8.856  44.832   5.202
 5950POPC   PO475120   9.422  44.438   5.267
 5950POPC   GL175121   9.145  44.402   5.670
 5950POPC   GL275122   8.787  44.564   5.683
 5950POPC   C1A75123   9.241  44.507   6.103
 5950POPC   D2A75124   9.192  44.890   6.411
 5950POPC   C3A75125   8.888  44.850   6.744
 5950POPC   C4A75126   8.817  44.777   7.184
 5950POPC   C1B75127   8.761  44.727   6.133
 5950POPC   C2B75128   8.911  44.432   6.462
 5950POPC   C3B75129   8.852  44.346   6.884
 5950POPC   C4B75130   8.575  44.327   7.244
 5951POPC   NC375131   5.879   3.141   5.344
 5951POPC   PO475132   5.618   2.595   5.214
 5951POPC   GL175133   5.736   2.835   5.712
 5951POPC   GL275134   6.082   3.013   5.789
 5951POPC   C1A75135   5.866   2.742   6.175
 5951POPC   D2A75136   5.734   2.594   6.583
 5951POPC   C3A75137   5.696   2.795   6.953
 5951POPC   C4A75138   5.862   2.506   7.222
 5951POPC   C1B75139   6.229   3.105   6.210
 5951POPC   C2B75140   6.131   2.915   6.641
 5951POPC   C3B75141   6.205   2.874   7.095
 5951POPC   C4B75142   6.132   2.785   7.564
 5952POPC   NC375143  40.815   4.109   5.416
 5952POPC   PO475144  40.389   4.662   5.428
 5952POPC   GL175145  40.523   4.381   5.770
 5952POPC   GL275146  40.908   4.442   5.786
 5952POPC   C1A75147  40.622   4.434   6.216
 5952POPC   D2A75148  40.725   4.608   6.623
 5952POPC   C3A75149  40.650   4.299   6.921
 5952POPC   C4A75150  40.504   4.249   7.318
 5952POPC   C1B75151  41.214   4.427   6.095
 5952POPC   C2B75152  41.312   4.392   6.510
 5952POPC   C3B75153  41.171   4.371   6.894
 5952POPC   C4B75154  40.988   4.423   7.270
 5953POPC   NC375155   7.395  31.629   5.377
 5953POPC   PO475156   7.155  30.971   5.493
 5953POPC   GL175157   7.177  31.198   5.893
 5953POPC   GL275158   7.344  31.498   5.858
 5953POPC   C1A75159   7.195  31.401   6.334
 5953POPC   D2A75160   7.407  31.690   6.637
 5953POPC   C3A75161   7.217  31.628   7.065
 5953POPC   C4A75162   7.236  31.375   7.459
 5953POPC   C1B75163   7.664  31.595   6.149
 5953POPC   C2B75164   7.976  31.637   6.450
 5953POPC   C3B75165   7.912  31.532   6.867
 5953POPC   C4B75166   7.695  31.573   7.237
 5954POPC   NC375167  32.942  12.650   5.515
 5954POPC   PO475168  33.559  12.891   5.607
 5954POPC   GL175169  33.200  12.886   5.906
 5954POPC   GL275170  32.872  13.077   5.862
 5954POPC   C1A75171  33.004  12.734   6.293
 5954POPC   D2A75172  32.837  12.711   6.717
 5954POPC   C3A75173  33.061  12.957   7.018
 5954POPC   C4A75174  33.209  13.290   7.297
 5954POPC   C1B75175  32.577  13.040   6.221
 5954POPC   C2B75176  32.641  13.186   6.648
 5954POPC   C3B75177  32.539  13.022   7.036
 5954POPC   C4B75178  32.656  12.636   7.200
 5955POPC   NC375179  23.450   2.505   5.535
 5955POPC   PO475180  23.940   2.978   5.395
 5955POPC   GL175181  23.880   2.710   5.735
 5955POPC   GL275182  23.619   2.941   5.907
 5955POPC   C1A75183  23.802   2.531   6.140
 5955POPC   D2A75184  23.656   2.806   6.438
 5955POPC   C3A75185  23.727   2.720   6.850
 5955POPC   C4A75186  23.679   2.571   7.269
 5955POPC   C1B75187  23.315   3.129   6.242
 5955POPC   C2B75188  23.229   2.980   6.669
 5955POPC   C3B75189  23.433   3.034   7.085
 5955POPC   C4B75190  23.287   3.232   7.427
 5956POPC   NC375191  33.602   1.851   5.437
 5956POPC   PO475192  33.033   1.582   5.586
 5956POPC   GL175193  33.096   1.929   5.882
 5956POPC   GL275194  33.254   2.290   5.815
 5956POPC   C1A75195  33.080   1.997   6.331
 5956POPC   D2A75196  32.915   2.356   6.534
 5956POPC   C3A75197  32.703   2.239   6.930
 5956POPC   C4A75198  32.723   1.800   7.085
 5956POPC   C1B75199  33.478   2.363   6.222
 5956POPC   C2B75200  33.453   2.201   6.652
 5956POPC   C3B75201  33.188   2.075   6.971
 5956POPC   C4B75202  33.213   1.788   7.301
 5957POPC   NC375203  42.940   5.183   5.433
 5957POPC   PO475204  43.495   4.876   5.479
 5957POPC   GL175205  43.195   5.012   5.840
 5957POPC   GL275206  42.893   5.282   5.909
 5957POPC   C1A75207  43.034   4.936   6.219
 5957POPC   D2A75208  42.891   4.889   6.564
 5957POPC   C3A75209  43.072   5.118   6.873
 5957POPC   C4A75210  43.156   4.936   7.239
 5957POPC   C1B75211  42.942   5.537   6.240
 5957POPC   C2B75212  43.116   5.613   6.636
 5957POPC   C3B75213  42.976   5.631   7.043
 5957POPC   C4B75214  43.314   5.425   7.241
 5958POPC   NC375215  25.115  26.566   5.654
 5958POPC   PO475216  25.455  27.230   5.569
 5958POPC   GL175217  25.449  26.973   5.914
 5958POPC   GL275218  25.085  26.895   6.033
 5958POPC   C1A75219  25.434  27.052   6.341
 5958POPC   D2A75220  25.031  26.883   6.568
 5958POPC   C3A75221  25.114  26.902   6.997
 5958POPC   C4A75222  25.479  26.888   7.255
 5958POPC   C1B75223  25.207  26.503   6.287
 5958POPC   C2B75224  25.087  26.382   6.702
 5958POPC   C3B75225  25.339  26.419   7.064
 5958POPC   C4B75226  25.082  26.386   7.352
 5959POPC   NC375227  42.372  38.043   5.443
 5959POPC   PO475228  42.631  38.641   5.624
 5959POPC   GL175229  42.432  38.360   5.880
 5959POPC   GL275230  42.660  38.149   5.874
 5959POPC   C1A75231  42.364  38.456   6.276
 5959POPC   D2A75232  42.499  38.746   6.602
 5959POPC   C3A75233  42.416  38.529   6.994
 5959POPC   C4A75234  42.533  38.429   7.391
 5959POPC   C1B75235  42.585  37.983   6.274
 5959POPC   C2B75236  42.426  38.058   6.701
 5959POPC   C3B75237  42.691  37.999   7.119
 5959POPC   C4B75238  42.587  37.983   7.608
 5960POPC   NC375239  43.718  31.937   5.467
 5960POPC   PO475240  43.954  31.309   5.233
 5960POPC   GL175241  43.906  31.458   5.674
 5960POPC   GL275242  44.184  31.642   5.736
 5960POPC   C1A75243  43.804  31.507   6.153
 5960POPC   D2A75244  43.743  31.572   6.628
 5960POPC   C3A75245  43.639  31.410   7.058
 5960POPC   C4A75246  43.604  31.562   7.480
 5960POPC   C1B75247  44.288  31.679   6.151
 5960POPC   C2B75248  44.259  31.463   6.513
 5960POPC   C3B75249  44.144  31.452   6.943
 5960POPC   C4B75250  44.389  31.735   7.209
 5961POPC   NC375251  35.810  14.577   5.386
 5961POPC   PO475252  36.455  14.416   5.420
 5961POPC   GL175253  36.197  14.437   5.778
 5961POPC   GL275254  35.948  14.688   5.885
 5961POPC   C1A75255  36.240  14.390   6.215
 5961POPC   D2A75256  36.151  14.686   6.518
 5961POPC   C3A75257  36.370  14.565   6.884
 5961POPC   C4A75258  36.236  14.409   7.273
 5961POPC   C1B75259  35.744  14.451   6.261
 5961POPC   C2B75260  35.758  14.384   6.720
 5961POPC   C3B75261  35.665  14.317   7.180
 5961POPC   C4B75262  35.674  14.139   7.640
 5962POPC   NC375263  18.467  41.906   5.606
 5962POPC   PO475264  18.172  41.256   5.586
 5962POPC   GL175265  18.386  41.460   5.865
 5962POPC   GL275266  18.699  41.459   5.725
 5962POPC   C1A75267  18.252  41.615   6.244
 5962POPC   D2A75268  18.155  41.381   6.595
 5962POPC   C3A75269  18.295  41.563   6.948
 5962POPC   C4A75270  18.070  41.428   7.274
 5962POPC   C1B75271  18.789  41.577   6.150
 5962POPC   C2B75272  18.655  41.690   6.558
 5962POPC   C3B75273  18.821  41.633   6.960
 5962POPC   C4B75274  18.601  41.813   7.264
 5963POPC   NC375275  10.372  25.560   5.463
 5963POPC   PO475276  10.821  24.977   5.382
 5963POPC   GL175277  10.703  25.064   5.840
 5963POPC   GL275278  10.640  25.409   5.855
 5963POPC   C1A75279  10.476  25.124   6.265
 5963POPC   D2A75280  10.310  25.071   6.684
 5963POPC   C3A75281  10.496  24.936   7.094
 5963POPC   C4A75282  10.368  25.160   7.470
 5963POPC   C1B75283  10.747  25.554   6.229
 5963POPC   C2B75284  10.780  25.379   6.644
 5963POPC   C3B75285  10.585  25.430   7.065
 5963POPC   C4B75286  10.810  25.385   7.483
 5964POPC   NC375287  30.414  37.903   5.367
 5964POPC   PO475288  31.100  37.951   5.487
 5964POPC   GL175289  30.827  37.726   5.759
 5964POPC   GL275290  30.570  37.934   5.887
 5964POPC   C1A75291  30.763  37.545   6.169
 5964POPC   D2A75292  30.577  37.527   6.574
 5964POPC   C3A75293  30.757  37.605   6.964
 5964POPC   C4A75294  30.710  37.362   7.284
 5964POPC   C1B75295  30.473  37.964   6.357
 5964POPC   C2B75296  30.373  37.922   6.844
 5964POPC   C3B75297  30.317  37.812   7.295
 5964POPC   C4B75298  30.325  37.917   7.793
 5965POPC   NC375299  15.114  17.728   5.509
 5965POPC   PO475300  15.714  17.548   5.495
 5965POPC   GL175301  15.520  17.360   5.856
 5965POPC   GL275302  15.134  17.322   5.860
 5965POPC   C1A75303  15.655  17.389   6.280
 5965POPC   D2A75304  15.478  17.526   6.658
 5965POPC   C3A75305  15.328  17.304   6.986
 5965POPC   C4A75306  15.456  17.519   7.342
 5965POPC   C1B75307  15.174  17.614   6.232
 5965POPC   C2B75308  14.978  17.768   6.633
 5965POPC   C3B75309  15.097  17.765   7.080
 5965POPC   C4B75310  15.033  17.621   7.581
 5966POPC   NC375311  37.108  41.292   5.380
 5966POPC   PO475312  36.704  41.870   5.361
 5966POPC   GL175313  36.720  41.715   5.780
 5966POPC   GL275314  37.049  41.568   5.808
 5966POPC   C1A75315  36.835  41.811   6.226
 5966POPC   D2A75316  36.918  41.528   6.569
 5966POPC   C3A75317  37.060  41.619   6.980
 5966POPC   C4A75318  36.902  41.994   7.184
 5966POPC   C1B75319  37.099  41.276   6.163
 5966POPC   C2B75320  37.328  41.191   6.582
 5966POPC   C3B75321  37.270  41.147   7.057
 5966POPC   C4B75322  37.299  41.138   7.546
 5967POPC   NC375323   8.253   3.736   5.482
 5967POPC   PO475324   7.918   3.088   5.426
 5967POPC   GL175325   8.010   3.349   5.810
 5967POPC   GL275326   8.355   3.429   5.848
 5967POPC   C1A75327   8.005   3.394   6.286
 5967POPC   D2A75328   8.190   3.615   6.649
 5967POPC   C3A75329   7.912   3.629   6.968
 5967POPC   C4A75330   7.884   3.382   7.311
 5967POPC   C1B75331   8.491   3.541   6.226
 5967POPC   C2B75332   8.597   3.302   6.565
 5967POPC   C3B75333   8.583   3.462   6.948
 5967POPC   C4B75334   8.342   3.636   7.203
 5968POPC   NC375335  37.140  36.918   5.205
 5968POPC   PO475336  37.697  37.222   5.482
 5968POPC   GL175337  37.696  36.859   5.753
 5968POPC   GL275338  38.008  36.777   5.894
 5968POPC   C1A75339  37.582  36.700   6.173
 5968POPC   D2A75340  37.405  36.813   6.577
 5968POPC   C3A75341  37.519  36.627   6.979
 5968POPC   C4A75342  37.896  36.644   7.207
 5968POPC   C1B75343  37.859  37.148   6.163
 5968POPC   C2B75344  37.764  37.305   6.605
 5968POPC   C3B75345  37.700  37.136   7.042
 5968POPC   C4B75346  37.956  37.084   7.449
 5969POPC   NC375347  31.535  22.027   5.754
 5969POPC   PO475348  31.709  22.675   5.368
 5969POPC   GL175349  31.845  22.438   5.827
 5969POPC   GL275350  31.628  22.467   6.105
 5969POPC   C1A75351  31.897  22.099   6.269
 5969POPC   D2A75352  31.591  21.880   6.555
 5969POPC   C3A75353  31.459  22.172   6.840
 5969POPC   C4A75354  31.418  22.327   7.254
 5969POPC   C1B75355  31.211  22.426   6.284
 5969POPC   C2B75356  31.009  22.212   6.575
 5969POPC   C3B75357  31.049  22.454   6.922
 5969POPC   C4B75358  30.933  22.447   7.304
 5970POPC   NC375359  17.928  38.552   5.391
 5970POPC   PO475360  18.504  38.286   5.425
 5970POPC   GL175361  18.274  38.453   5.774
 5970POPC   GL275362  18.261  38.796   5.688
 5970POPC   C1A75363  18.273  38.357   6.207
 5970POPC   D2A75364  18.552  38.342   6.558
 5970POPC   C3A75365  18.355  38.368   6.962
 5970POPC   C4A75366  18.386  38.353   7.407
 5970POPC   C1B75367  18.188  38.866   6.116
 5970POPC   C2B75368  18.330  38.804   6.504
 5970POPC   C3B75369  18.189  38.853   6.902
 5970POPC   C4B75370  18.055  38.764   7.330
 5971POPC   NC375371  40.643  39.458   5.444
 5971POPC   PO475372  40.245  38.988   5.248
 5971POPC   GL175373  40.587  39.030   5.671
 5971POPC   GL275374  40.905  39.276   5.822
 5971POPC   C1A75375  40.585  39.086   6.141
 5971POPC   D2A75376  40.753  38.942   6.520
 5971POPC   C3A75377  40.465  38.992   6.846
 5971POPC   C4A75378  40.577  39.000   7.252
 5971POPC   C1B75379  41.107  39.170   6.214
 5971POPC   C2B75380  41.025  39.369   6.577
 5971POPC   C3B75381  40.983  39.221   6.972
 5971POPC   C4B75382  40.828  39.432   7.314
 5972POPC   NC375383   5.752   8.637   5.189
 5972POPC   PO475384   6.191   9.014   5.555
 5972POPC   GL175385   5.869   8.844   5.867
 5972POPC   GL275386   5.615   8.567   5.781
 5972POPC   C1A75387   5.833   9.004   6.309
 5972POPC   D2A75388   6.092   8.933   6.707
 5972POPC   C3A75389   5.811   8.980   7.054
 5972POPC   C4A75390   5.418   9.137   6.945
 5972POPC   C1B75391   5.508   8.573   6.219
 5972POPC   C2B75392   5.634   8.652   6.663
 5972POPC   C3B75393   5.506   8.504   7.087
 5972POPC   C4B75394   5.479   8.578   7.532
 5973POPC   NC375395  24.535  26.459   5.157
 5973POPC   PO475396  24.731  26.893   5.659
 5973POPC   GL175397  24.431  26.703   5.850
 5973POPC   GL275398  24.601  26.390   5.832
 5973POPC   C1A75399  24.188  26.826   6.176
 5973POPC   D2A75400  24.342  27.021   6.542
 5973POPC   C3A75401  24.266  26.906   6.963
 5973POPC   C4A75402  24.660  26.839   7.209
 5973POPC   C1B75403  24.676  26.549   6.283
 5973POPC   C2B75404  24.618  26.608   6.733
 5973POPC   C3B75405  24.639  26.348   7.110
 5973POPC   C4B75406  24.639  26.315   7.589
 5974POPC   NC375407  26.515  18.456   5.584
 5974POPC   PO475408  25.949  18.074   5.466
 5974POPC   GL175409  25.981  17.985   5.891
 5974POPC   GL275410  26.181  18.303   5.941
 5974POPC   C1A75411  25.863  18.122   6.302
 5974POPC   D2A75412  26.053  18.475   6.538
 5974POPC   C3A75413  26.066  18.441   6.986
 5974POPC   C4A75414  25.779  18.232   7.278
 5974POPC   C1B75415  26.355  18.040   6.264
 5974POPC   C2B75416  26.163  17.961   6.678
 5974POPC   C3B75417  26.224  17.964   7.128
 5974POPC   C4B75418  26.323  18.311   7.417
 5975POPC   NC375419  38.212   3.730   5.345
 5975POPC   PO475420  38.677   3.321   5.559
 5975POPC   GL175421  38.501   3.584   5.797
 5975POPC   GL275422  38.805   3.697   5.897
 5975POPC   C1A75423  38.377   3.610   6.217
 5975POPC   D2A75424  38.449   3.455   6.620
 5975POPC   C3A75425  38.359   3.590   7.000
 5975POPC   C4A75426  38.199   3.429   7.366
 5975POPC   C1B75427  38.822   3.879   6.285
 5975POPC   C2B75428  38.876   3.726   6.681
 5975POPC   C3B75429  38.846   3.406   6.978
 5975POPC   C4B75430  38.703   3.556   7.378
 5976POPC   NC375431  44.642   6.490   5.378
 5976POPC   PO475432   0.078   6.949   5.581
 5976POPC   GL175433  44.875   6.673   5.831
 5976POPC   GL275434  44.979   6.377   5.764
 5976POPC   C1A75435  44.557   6.554   6.107
 5976POPC   D2A75436  44.279   6.768   6.394
 5976POPC   C3A75437  44.511   6.867   6.785
 5976POPC   C4A75438  44.566   6.840   7.242
 5976POPC   C1B75439  44.976   6.256   6.204
 5976POPC   C2B75440  44.782   6.452   6.578
 5976POPC   C3B75441  44.620   6.382   7.001
 5976POPC   C4B75442  44.829   6.072   7.257
 5977POPC   NC375443  25.488  18.129   5.463
 5977POPC   PO475444  25.127  18.555   5.770
 5977POPC   GL175445  25.525  18.501   5.957
 5977POPC   GL275446  25.479  18.135   5.978
 5977POPC   C1A75447  25.493  18.442   6.405
 5977POPC   D2A75448  25.284  18.063   6.592
 5977POPC   C3A75449  25.309  18.135   7.020
 5977POPC   C4A75450  25.137  18.545   7.145
 5977POPC   C1B75451  25.118  17.863   6.122
 5977POPC   C2B75452  24.762  17.876   6.444
 5977POPC   C3B75453  24.817  18.058   6.864
 5977POPC   C4B75454  24.844  18.145   7.299
 5978POPC   NC375455  38.587  33.417   5.374
 5978POPC   PO475456  38.337  34.068   5.455
 5978POPC   GL175457  38.554  33.856   5.802
 5978POPC   GL275458  38.449  33.514   5.847
 5978POPC   C1A75459  38.683  33.992   6.217
 5978POPC   D2A75460  38.478  34.092   6.617
 5978POPC   C3A75461  38.626  34.087   7.049
 5978POPC   C4A75462  38.466  33.910   7.450
 5978POPC   C1B75463  38.658  33.453   6.233
 5978POPC   C2B75464  38.730  33.630   6.619
 5978POPC   C3B75465  38.560  33.583   7.019
 5978POPC   C4B75466  38.572  33.364   7.389
 5979POPC   NC375467  24.356  27.213   5.583
 5979POPC   PO475468  24.366  27.815   5.315
 5979POPC   GL175469  24.387  27.736   5.754
 5979POPC   GL275470  24.150  28.000   5.806
 5979POPC   C1A75471  24.540  27.548   6.158
 5979POPC   D2A75472  24.683  27.632   6.596
 5979POPC   C3A75473  24.651  27.276   6.876
 5979POPC   C4A75474  24.422  27.295   7.238
 5979POPC   C1B75475  24.137  27.859   6.236
 5979POPC   C2B75476  24.144  27.838   6.681
 5979POPC   C3B75477  24.399  27.754   7.020
 5979POPC   C4B75478  24.783  27.923   7.098
 5980POPC   NC375479  44.279  34.083   5.804
 5980POPC   PO475480  43.731  33.906   5.324
 5980POPC   GL175481  43.759  33.725   5.766
 5980POPC   GL275482  43.547  33.963   6.007
 5980POPC   C1A75483  43.958  33.606   6.174
 5980POPC   D2A75484  43.766  33.821   6.549
 5980POPC   C3A75485  43.948  33.982   6.942
 5980POPC   C4A75486  44.239  34.055   7.269
 5980POPC   C1B75487  43.459  33.557   6.203
 5980POPC   C2B75488  43.680  33.316   6.546
 5980POPC   C3B75489  43.540  33.328   6.966
 5980POPC   C4B75490  43.524  33.734   7.133
 5981POPC   NC375491   8.702   0.738   5.597
 5981POPC   PO475492   9.010   0.271   5.251
 5981POPC   GL175493   9.041   0.385   5.758
 5981POPC   GL275494   8.988   0.701   6.027
 5981POPC   C1A75495   8.887   0.237   6.174
 5981POPC   D2A75496   8.967   0.463   6.560
 5981POPC   C3A75497   9.168   0.267   6.893
 5981POPC   C4A75498   8.950   0.256   7.272
 5981POPC   C1B75499   8.587   0.665   6.269
 5981POPC   C2B75500   8.521   0.704   6.710
 5981POPC   C3B75501   8.749   0.705   7.104
 5981POPC   C4B75502   9.220   0.707   7.211
 5982POPC   NC375503  13.125   6.143   5.570
 5982POPC   PO475504  13.734   6.205   5.295
 5982POPC   GL175505  13.794   6.447   5.760
 5982POPC   GL275506  14.068   6.748   5.759
 5982POPC   C1A75507  13.656   6.345   6.211
 5982POPC   D2A75508  13.435   6.319   6.636
 5982POPC   C3A75509  13.468   6.662   6.988
 5982POPC   C4A75510  13.575   6.576   7.448
 5982POPC   C1B75511  13.870   6.824   6.152
 5982POPC   C2B75512  13.759   6.726   6.561
 5982POPC   C3B75513  13.952   6.794   6.948
 5982POPC   C4B75514  13.766   6.996   7.266
 5983POPC   NC375515  29.132  22.528   5.373
 5983POPC   PO475516  29.025  21.844   5.433
 5983POPC   GL175517  29.099  22.022   5.859
 5983POPC   GL275518  29.203  22.378   5.869
 5983POPC   C1A75519  28.922  22.144   6.270
 5983POPC   D2A75520  29.037  22.391   6.650
 5983POPC   C3A75521  29.002  22.158   7.028
 5983POPC   C4A75522  28.901  21.729   7.071
 5983POPC   C1B75523  29.425  22.238   6.264
 5983POPC   C2B75524  29.576  22.313   6.688
 5983POPC   C3B75525  29.404  22.479   7.047
 5983POPC   C4B75526  29.195  22.447   7.453
 5984POPC   NC375527  23.241  44.095   5.184
 5984POPC   PO475528  22.740  43.780   5.438
 5984POPC   GL175529  22.956  43.915   5.822
 5984POPC   GL275530  23.267  44.020   5.701
 5984POPC   C1A75531  22.849  43.811   6.283
 5984POPC   D2A75532  22.737  43.501   6.617
 5984POPC   C3A75533  22.674  43.733   7.024
 5984POPC   C4A75534  22.781  44.223   7.080
 5984POPC   C1B75535  23.341  43.955   6.159
 5984POPC   C2B75536  23.440  43.756   6.546
 5984POPC   C3B75537  23.145  43.725   6.856
 5984POPC   C4B75538  23.124  43.652   7.303
 5985POPC   NC375539  11.072  27.535   5.330
 5985POPC   PO475540  11.755  27.628   5.178
 5985POPC   GL175541  11.484  27.667   5.609
 5985POPC   GL275542  11.201  27.904   5.691
 5985POPC   C1A75543  11.395  27.520   6.057
 5985POPC   D2A75544  11.657  27.460   6.449
 5985POPC   C3A75545  11.568  27.534   6.873
 5985POPC   C4A75546  11.472  27.344   7.249
 5985POPC   C1B75547  11.086  27.926   6.126
 5985POPC   C2B75548  11.222  27.751   6.533
 5985POPC   C3B75549  11.078  27.658   6.979
 5985POPC   C4B75550  10.990  27.995   7.283
 5986POPC   NC375551   2.885  40.856   5.433
 5986POPC   PO475552   2.202  41.126   5.612
 5986POPC   GL175553   2.523  40.976   5.802
 5986POPC   GL275554   2.566  40.625   5.771
 5986POPC   C1A75555   2.609  40.974   6.233
 5986POPC   D2A75556   2.483  40.794   6.613
 5986POPC   C3A75557   2.680  40.975   6.983
 5986POPC   C4A75558   2.625  40.979   7.433
 5986POPC   C1B75559   2.712  40.476   6.182
 5986POPC   C2B75560   2.648  40.308   6.603
 5986POPC   C3B75561   2.606  40.468   6.998
 5986POPC   C4B75562   2.885  40.574   7.284
 5987POPC   NC375563   7.687  15.383   5.613
 5987POPC   PO475564   7.081  15.163   5.363
 5987POPC   GL175565   7.294  15.074   5.759
 5987POPC   GL275566   7.135  15.343   5.935
 5987POPC   C1A75567   7.471  14.972   6.199
 5987POPC   D2A75568   7.483  15.066   6.630
 5987POPC   C3A75569   7.446  14.906   7.041
 5987POPC   C4A75570   7.790  15.073   7.254
 5987POPC   C1B75571   7.442  15.476   6.260
 5987POPC   C2B75572   7.526  15.569   6.690
 5987POPC   C3B75573   7.429  15.459   7.109
 5987POPC   C4B75574   7.427  15.441   7.558
 5988POPC   NC375575   5.301   9.873   5.481
 5988POPC   PO475576   4.879   9.437   5.522
 5988POPC   GL175577   5.054   9.569   5.924
 5988POPC   GL275578   5.109   9.925   5.937
 5988POPC   C1A75579   4.997   9.677   6.381
 5988POPC   D2A75580   5.312   9.619   6.731
 5988POPC   C3A75581   5.165   9.679   7.161
 5988POPC   C4A75582   4.896   9.892   7.481
 5988POPC   C1B75583   5.403   9.967   6.261
 5988POPC   C2B75584   5.314  10.159   6.679
 5988POPC   C3B75585   5.379  10.145   7.118
 5988POPC   C4B75586   5.371  10.078   7.557
 5989POPC   NC375587  19.489  14.677   5.416
 5989POPC   PO475588  20.155  14.269   5.454
 5989POPC   GL175589  19.887  14.247   5.790
 5989POPC   GL275590  19.838  14.602   5.799
 5989POPC   C1A75591  19.981  14.291   6.234
 5989POPC   D2A75592  20.224  14.265   6.627
 5989POPC   C3A75593  19.994  14.530   6.923
 5989POPC   C4A75594  19.801  14.498   7.319
 5989POPC   C1B75595  19.564  14.643   6.130
 5989POPC   C2B75596  19.602  14.464   6.545
 5989POPC   C3B75597  19.475  14.366   6.955
 5989POPC   C4B75598  19.307  14.447   7.382
 5990POPC   NC375599   2.286  27.235   5.667
 5990POPC   PO475600   2.461  26.648   5.640
 5990POPC   GL175601   2.211  26.809   5.984
 5990POPC   GL275602   2.381  27.087   6.162
 5990POPC   C1A75603   1.955  26.582   6.313
 5990POPC   D2A75604   2.038  26.289   6.634
 5990POPC   C3A75605   1.996  26.465   7.018
 5990POPC   C4A75606   1.760  26.740   7.282
 5990POPC   C1B75607   1.984  27.102   6.384
 5990POPC   C2B75608   1.895  26.904   6.770
 5990POPC   C3B75609   2.195  26.954   7.101
 5990POPC   C4B75610   2.128  27.191   7.423
 5991POPC   NC375611  33.255  25.265   5.333
 5991POPC   PO475612  32.780  25.521   5.591
 5991POPC   GL175613  32.948  25.350   5.929
 5991POPC   GL275614  32.861  25.006   5.785
 5991POPC   C1A75615  33.103  25.417   6.376
 5991POPC   D2A75616  33.339  25.498   6.756
 5991POPC   C3A75617  33.164  25.260   7.085
 5991POPC   C4A75618  32.782  25.352   7.258
 5991POPC   C1B75619  33.015  24.948   6.226
 5991POPC   C2B75620  32.953  25.013   6.684
 5991POPC   C3B75621  32.843  24.845   7.111
 5991POPC   C4B75622  33.096  24.894   7.470
 5992POPC   NC375623   4.905  17.802   5.048
 5992POPC   PO475624   5.174  17.225   5.371
 5992POPC   GL175625   4.980  17.211   5.790
 5992POPC   GL275626   5.309  17.409   5.846
 5992POPC   C1A75627   4.937  17.378   6.217
 5992POPC   D2A75628   5.192  17.385   6.618
 5992POPC   C3A75629   5.073  17.163   6.983
 5992POPC   C4A75630   5.127  17.221   7.407
 5992POPC   C1B75631   5.373  17.656   6.216
 5992POPC   C2B75632   5.416  17.848   6.644
 5992POPC   C3B75633   5.316  17.683   7.065
 5992POPC   C4B75634   5.507  17.564   7.461
 5993POPC   NC375635  34.216  25.503   5.474
 5993POPC   PO475636  34.534  24.911   5.399
 5993POPC   GL175637  34.365  25.105   5.794
 5993POPC   GL275638  34.605  25.379   5.819
 5993POPC   C1A75639  34.316  25.274   6.221
 5993POPC   D2A75640  34.534  25.420   6.550
 5993POPC   C3A75641  34.446  25.257   6.935
 5993POPC   C4A75642  34.370  25.166   7.347
 5993POPC   C1B75643  34.885  25.300   6.197
 5993POPC   C2B75644  34.989  25.230   6.679
 5993POPC   C3B75645  34.928  25.332   7.151
 5993POPC   C4B75646  35.153  25.262   7.575
 5994POPC   NC375647  19.577  40.816   5.486
 5994POPC   PO475648  20.107  40.328   5.367
 5994POPC   GL175649  19.939  40.581   5.745
 5994POPC   GL275650  19.915  40.975   5.826
 5994POPC   C1A75651  19.731  40.530   6.157
 5994POPC   D2A75652  19.943  40.564   6.551
 5994POPC   C3A75653  19.746  40.552   6.944
 5994POPC   C4A75654  20.054  40.543   7.247
 5994POPC   C1B75655  19.537  41.009   6.122
 5994POPC   C2B75656  19.502  40.860   6.557
 5994POPC   C3B75657  19.551  41.036   6.972
 5994POPC   C4B75658  19.674  40.873   7.367
 5995POPC   NC375659  27.917   3.520   5.539
 5995POPC   PO475660  27.319   3.445   5.253
 5995POPC   GL175661  27.405   3.576   5.673
 5995POPC   GL275662  27.393   3.217   5.783
 5995POPC   C1A75663  27.497   3.692   6.126
 5995POPC   D2A75664  27.680   3.559   6.532
 5995POPC   C3A75665  27.531   3.691   6.939
 5995POPC   C4A75666  27.162   3.875   7.136
 5995POPC   C1B75667  27.354   3.051   6.214
 5995POPC   C2B75668  27.480   3.062   6.659
 5995POPC   C3B75669  27.500   3.200   7.083
 5995POPC   C4B75670  27.352   3.480   7.396
 5996POPC   NC375671   8.243  29.585   5.358
 5996POPC   PO475672   8.646  29.072   5.392
 5996POPC   GL175673   8.260  29.165   5.681
 5996POPC   GL275674   8.108  28.846   5.798
 5996POPC   C1A75675   8.174  29.225   6.145
 5996POPC   D2A75676   8.177  29.048   6.574
 5996POPC   C3A75677   8.302  29.317   6.904
 5996POPC   C4A75678   8.287  29.298   7.313
 5996POPC   C1B75679   7.922  28.741   6.207
 5996POPC   C2B75680   8.005  28.568   6.611
 5996POPC   C3B75681   7.927  28.768   6.990
 5996POPC   C4B75682   7.981  28.892   7.407
 5997POPC   NC375683   2.237  36.717   5.041
 5997POPC   PO475684   1.725  36.547   5.516
 5997POPC   GL175685   1.791  36.875   5.861
 5997POPC   GL275686   2.144  37.017   5.859
 5997POPC   C1A75687   1.659  37.059   6.279
 5997POPC   D2A75688   1.777  36.882   6.697
 5997POPC   C3A75689   1.708  37.054   7.113
 5997POPC   C4A75690   2.049  37.086   7.469
 5997POPC   C1B75691   2.125  36.829   6.287
 5997POPC   C2B75692   2.318  36.800   6.702
 5997POPC   C3B75693   2.297  36.746   7.148
 5997POPC   C4B75694   2.446  36.739   7.611
 5998POPC   NC375695  23.049  22.095   5.387
 5998POPC   PO475696  23.353  22.643   5.640
 5998POPC   GL175697  23.023  22.343   5.814
 5998POPC   GL275698  22.664  22.227   5.816
 5998POPC   C1A75699  23.039  22.127   6.183
 5998POPC   D2A75700  22.874  22.137   6.578
 5998POPC   C3A75701  23.128  22.219   6.940
 5998POPC   C4A75702  22.812  22.308   7.240
 5998POPC   C1B75703  22.565  21.904   6.181
 5998POPC   C2B75704  22.618  21.705   6.624
 5998POPC   C3B75705  22.750  21.852   7.028
 5998POPC   C4B75706  22.661  21.877   7.488
 5999POPC   NC375707  39.441  11.795   5.498
 5999POPC   PO475708  38.958  11.292   5.493
 5999POPC   GL175709  39.162  11.354   5.856
 5999POPC   GL275710  39.421  11.579   5.945
 5999POPC   C1A75711  39.185  11.240   6.252
 5999POPC   D2A75712  39.329  10.994   6.558
 5999POPC   C3A75713  39.104  11.109   6.896
 5999POPC   C4A75714  39.018  11.004   7.297
 5999POPC   C1B75715  39.400  11.742   6.342
 5999POPC   C2B75716  39.132  11.570   6.630
 5999POPC   C3B75717  38.958  11.607   7.002
 5999POPC   C4B75718  39.250  11.478   7.263
 6000POPC   NC375719   0.843  44.492   5.535
 6000POPC   PO475720   0.189  44.514   5.373
 6000POPC   GL175721   0.403  44.821   5.657
 6000POPC   GL275722   0.420  44.535   5.852
 6000POPC   C1A75723   0.485  44.938   6.126
 6000POPC   D2A75724   0.560  44.656   6.489
 6000POPC   C3A75725   0.336  44.681   6.868
 6000POPC   C4A75726   0.565  44.760   7.224
 6000POPC   C1B75727   0.160  44.484   6.211
 6000POPC   C2B75728   0.236  44.267   6.578
 6000POPC   C3B75729   0.072  44.197   6.928
 6000POPC   C4B75730   0.215  44.328   7.271
 6001POPC   NC375731   5.214  12.281   5.522
 6001POPC   PO475732   4.645  11.898   5.540
 6001POPC   GL175733   4.827  12.145   5.827
 6001POPC   GL275734   5.090  11.897   5.867
 6001POPC   C1A75735   4.861  12.402   6.196
 6001POPC   D2A75736   4.843  12.120   6.542
 6001POPC   C3A75737   4.855  12.291   6.938
 6001POPC   C4A75738   4.833  12.090   7.324
 6001POPC   C1B75739   5.275  12.091   6.223
 6001POPC   C2B75740   5.345  12.130   6.667
 6001POPC   C3B75741   5.125  11.865   6.960
 6001POPC   C4B75742   5.290  11.858   7.368
 6002POPC   NC375743  22.622  39.494   5.032
 6002POPC   PO475744  23.096  39.202   5.418
 6002POPC   GL175745  22.951  39.115   5.846
 6002POPC   GL275746  23.010  39.474   5.930
 6002POPC   C1A75747  22.743  39.204   6.269
 6002POPC   D2A75748  22.867  39.366   6.682
 6002POPC   C3A75749  22.951  39.084   7.024
 6002POPC   C4A75750  22.929  39.213   7.473
 6002POPC   C1B75751  23.249  39.378   6.330
 6002POPC   C2B75752  23.377  39.354   6.773
 6002POPC   C3B75753  23.127  39.551   7.100
 6002POPC   C4B75754  23.167  39.924   7.240
 6003POPC   NC375755  31.807   6.133   5.164
 6003POPC   PO475756  31.285   5.653   5.335
 6003POPC   GL175757  31.331   5.709   5.773
 6003POPC   GL275758  31.642   5.505   5.834
 6003POPC   C1A75759  31.190   5.942   6.179
 6003POPC   D2A75760  31.438   6.122   6.536
 6003POPC   C3A75761  31.215   6.025   6.938
 6003POPC   C4A75762  31.408   6.008   7.307
 6003POPC   C1B75763  31.356   5.462   6.207
 6003POPC   C2B75764  31.297   5.627   6.628
 6003POPC   C3B75765  31.470   5.577   7.074
 6003POPC   C4B75766  31.318   5.572   7.534
 6004POPC   NC375767  11.840  27.320   5.496
 6004POPC   PO475768  12.215  26.762   5.405
 6004POPC   GL175769  12.000  26.682   5.746
 6004POPC   GL275770  11.704  26.863   5.694
 6004POPC   C1A75771  12.126  26.810   6.156
 6004POPC   D2A75772  12.290  27.003   6.534
 6004POPC   C3A75773  12.100  26.868   6.893
 6004POPC   C4A75774  12.204  26.983   7.289
 6004POPC   C1B75775  11.713  27.102   6.085
 6004POPC   C2B75776  11.758  26.963   6.514
 6004POPC   C3B75777  11.608  26.998   6.915
 6004POPC   C4B75778  11.724  26.744   7.240
 6005POPC   NC375779  42.072  31.332   5.382
 6005POPC   PO475780  42.647  31.696   5.303
 6005POPC   GL175781  42.372  31.724   5.659
 6005POPC   GL275782  42.415  31.413   5.766
 6005POPC   C1A75783  42.288  31.743   6.128
 6005POPC   D2A75784  42.442  31.787   6.542
 6005POPC   C3A75785  42.321  31.612   6.935
 6005POPC   C4A75786  42.415  31.674   7.388
 6005POPC   C1B75787  42.366  31.230   6.179
 6005POPC   C2B75788  42.273  31.029   6.561
 6005POPC   C3B75789  42.377  31.093   6.949
 6005POPC   C4B75790  42.424  30.982   7.338
 6006POPC   NC375791  14.944  36.125   5.594
 6006POPC   PO475792  14.364  35.871   5.241
 6006POPC   GL175793  14.404  35.962   5.718
 6006POPC   GL275794  14.210  36.247   5.820
 6006POPC   C1A75795  14.589  36.119   6.148
 6006POPC   D2A75796  14.839  36.040   6.524
 6006POPC   C3A75797  14.691  36.197   6.936
 6006POPC   C4A75798  14.564  36.067   7.357
 6006POPC   C1B75799  14.092  35.999   6.202
 6006POPC   C2B75800  14.273  36.056   6.593
 6006POPC   C3B75801  14.168  35.974   6.995
 6006POPC   C4B75802  14.042  36.091   7.402
 6007POPC   NC375803  41.744  10.726   5.683
 6007POPC   PO475804  41.320  10.232   5.600
 6007POPC   GL175805  41.396  10.425   5.957
 6007POPC   GL275806  41.233  10.727   5.871
 6007POPC   C1A75807  41.718  10.393   6.262
 6007POPC   D2A75808  41.798  10.650   6.606
 6007POPC   C3A75809  41.718  10.412   6.971
 6007POPC   C4A75810  41.867  10.434   7.383
 6007POPC   C1B75811  41.299  10.878   6.286
 6007POPC   C2B75812  41.185  11.021   6.714
 6007POPC   C3B75813  41.396  10.819   7.058
 6007POPC   C4B75814  41.568  10.835   7.454
 6008POPC   NC375815  22.014  25.544   5.263
 6008POPC   PO475816  22.275  24.911   5.317
 6008POPC   GL175817  22.099  25.168   5.655
 6008POPC   GL275818  21.919  25.484   5.765
 6008POPC   C1A75819  22.088  25.067   6.079
 6008POPC   D2A75820  22.202  25.131   6.516
 6008POPC   C3A75821  21.901  24.979   6.801
 6008POPC   C4A75822  21.943  24.863   7.228
 6008POPC   C1B75823  22.028  25.554   6.208
 6008POPC   C2B75824  21.824  25.488   6.603
 6008POPC   C3B75825  21.973  25.498   7.026
 6008POPC   C4B75826  22.117  25.773   7.366
 6009POPC   NC375827  39.050  15.427   5.339
 6009POPC   PO475828  39.440  14.934   5.506
 6009POPC   GL175829  39.272  15.212   5.837
 6009POPC   GL275830  38.919  15.222   5.868
 6009POPC   C1A75831  39.198  15.261   6.299
 6009POPC   D2A75832  39.272  15.094   6.696
 6009POPC   C3A75833  39.066  15.391   6.935
 6009POPC   C4A75834  39.163  15.557   7.319
 6009POPC   C1B75835  38.942  14.848   6.222
 6009POPC   C2B75836  38.781  14.915   6.651
 6009POPC   C3B75837  38.933  14.911   7.068
 6009POPC   C4B75838  39.276  15.060   7.348
 6010POPC   NC375839   7.126  23.987   5.403
 6010POPC   PO475840   7.377  24.664   5.432
 6010POPC   GL175841   7.499  24.291   5.681
 6010POPC   GL275842   7.609  24.535   5.929
 6010POPC   C1A75843   7.344  24.180   6.132
 6010POPC   D2A75844   7.503  24.447   6.468
 6010POPC   C3A75845   7.444  24.316   6.867
 6010POPC   C4A75846   7.634  24.348   7.221
 6010POPC   C1B75847   7.659  24.871   6.198
 6010POPC   C2B75848   7.520  25.005   6.576
 6010POPC   C3B75849   7.308  24.816   6.901
 6010POPC   C4B75850   7.367  24.834   7.330
 6011POPC   NC375851  25.836  15.475   5.317
 6011POPC   PO475852  26.481  15.208   5.458
 6011POPC   GL175853  26.273  15.304   5.830
 6011POPC   GL275854  25.908  15.226   5.795
 6011POPC   C1A75855  26.213  15.113   6.221
 6011POPC   D2A75856  25.863  14.997   6.458
 6011POPC   C3A75857  26.039  15.068   6.833
 6011POPC   C4A75858  26.304  15.087   7.197
 6011POPC   C1B75859  25.805  15.441   6.186
 6011POPC   C2B75860  25.683  15.488   6.619
 6011POPC   C3B75861  25.573  15.221   6.958
 6011POPC   C4B75862  25.795  15.007   7.277
 6012POPC   NC375863   1.445  32.025   5.442
 6012POPC   PO475864   1.114  32.503   5.164
 6012POPC   GL175865   1.209  32.560   5.680
 6012POPC   GL275866   1.193  32.232   5.833
 6012POPC   C1A75867   0.983  32.557   6.143
 6012POPC   D2A75868   1.156  32.316   6.526
 6012POPC   C3A75869   1.009  32.468   6.934
 6012POPC   C4A75870   0.926  32.451   7.378
 6012POPC   C1B75871   1.508  32.156   6.133
 6012POPC   C2B75872   1.539  31.953   6.531
 6012POPC   C3B75873   1.386  32.024   6.950
 6012POPC   C4B75874   1.437  32.395   7.218
 6013POPC   NC375875  27.887  14.585   5.422
 6013POPC   PO475876  27.222  14.509   5.372
 6013POPC   GL175877  27.461  14.399   5.789
 6013POPC   GL275878  27.291  14.120   6.006
 6013POPC   C1A75879  27.633  14.498   6.198
 6013POPC   D2A75880  27.761  14.366   6.634
 6013POPC   C3A75881  27.490  14.282   6.961
 6013POPC   C4A75882  27.646  14.545   7.270
 6013POPC   C1B75883  27.323  14.148   6.440
 6013POPC   C2B75884  27.303  14.582   6.584
 6013POPC   C3B75885  27.270  14.746   7.006
 6013POPC   C4B75886  27.211  14.732   7.482
 6014POPC   NC375887  37.730  14.540   5.365
 6014POPC   PO475888  37.359  13.985   5.173
 6014POPC   GL175889  37.559  14.155   5.661
 6014POPC   GL275890  37.894  14.366   5.789
 6014POPC   C1A75891  37.690  14.153   6.178
 6014POPC   D2A75892  37.802  14.340   6.612
 6014POPC   C3A75893  37.708  14.104   6.988
 6014POPC   C4A75894  37.498  14.068   7.357
 6014POPC   C1B75895  37.541  14.616   6.039
 6014POPC   C2B75896  37.386  14.615   6.495
 6014POPC   C3B75897  37.417  14.524   6.943
 6014POPC   C4B75898  37.573  14.579   7.361
 6015POPC   NC375899  25.158  11.681   5.487
 6015POPC   PO475900  25.651  11.283   5.162
 6015POPC   GL175901  25.588  11.398   5.677
 6015POPC   GL275902  25.267  11.425   5.902
 6015POPC   C1A75903  25.694  11.429   6.172
 6015POPC   D2A75904  25.483  11.570   6.591
 6015POPC   C3A75905  25.361  11.328   6.990
 6015POPC   C4A75906  25.313  10.905   7.190
 6015POPC   C1B75907  25.146  11.759   6.224
 6015POPC   C2B75908  25.043  11.872   6.665
 6015POPC   C3B75909  25.080  11.733   7.094
 6015POPC   C4B75910  25.251  11.582   7.468
 6016POPC   NC375911  30.492  10.934   5.605
 6016POPC   PO475912  30.966  11.411   5.434
 6016POPC   GL175913  30.944  11.335   5.860
 6016POPC   GL275914  30.937  10.993   5.891
 6016POPC   C1A75915  30.768  11.352   6.296
 6016POPC   D2A75916  30.866  11.575   6.661
 6016POPC   C3A75917  30.956  11.403   7.058
 6016POPC   C4A75918  30.526  11.426   7.154
 6016POPC   C1B75919  31.142  11.032   6.296
 6016POPC   C2B75920  30.891  11.048   6.689
 6016POPC   C3B75921  30.676  10.955   7.064
 6016POPC   C4B75922  31.020  10.830   7.252
 6017POPC   NC375923   1.026  23.400   5.404
 6017POPC   PO475924   1.452  22.943   5.498
 6017POPC   GL175925   1.299  22.749   5.840
 6017POPC   GL275926   0.987  22.572   5.797
 6017POPC   C1A75927   1.401  23.035   6.170
 6017POPC   D2A75928   1.400  23.275   6.530
 6017POPC   C3A75929   1.581  23.107   6.889
 6017POPC   C4A75930   1.387  23.194   7.277
 6017POPC   C1B75931   0.960  22.805   6.187
 6017POPC   C2B75932   1.221  22.769   6.568
 6017POPC   C3B75933   1.116  22.900   6.959
 6017POPC   C4B75934   0.902  23.017   7.315
 6018POPC   NC375935  37.777  13.783   5.208
 6018POPC   PO475936  37.512  13.375   5.646
 6018POPC   GL175937  37.628  13.702   5.877
 6018POPC   GL275938  37.976  13.840   5.716
 6018POPC   C1A75939  37.388  13.767   6.274
 6018POPC   D2A75940  37.324  14.085   6.612
 6018POPC   C3A75941  37.236  13.841   6.979
 6018POPC   C4A75942  37.497  13.548   7.181
 6018POPC   C1B75943  38.020  13.762   6.170
 6018POPC   C2B75944  37.827  13.819   6.565
 6018POPC   C3B75945  37.949  13.651   6.942
 6018POPC   C4B75946  37.933  13.776   7.336
 6019POPC   NC375947  14.960  32.219   5.621
 6019POPC   PO475948  15.550  32.352   5.389
 6019POPC   GL175949  15.356  32.472   5.814
 6019POPC   GL275950  15.345  32.141   5.994
 6019POPC   C1A75951  15.473  32.581   6.247
 6019POPC   D2A75952  15.517  32.231   6.537
 6019POPC   C3A75953  15.176  32.229   6.863
 6019POPC   C4A75954  15.092  32.510   7.191
 6019POPC   C1B75955  15.036  32.234   6.325
 6019POPC   C2B75956  14.724  31.961   6.539
 6019POPC   C3B75957  14.674  31.809   6.959
 6019POPC   C4B75958  14.933  32.026   7.290
 6020POPC   NC375959  10.234  28.705   5.230
 6020POPC   PO475960  10.655  28.160   5.043
 6020POPC   GL175961  10.592  28.257   5.535
 6020POPC   GL275962  10.514  28.580   5.710
 6020POPC   C1A75963  10.530  28.138   6.032
 6020POPC   D2A75964  10.742  28.095   6.481
 6020POPC   C3A75965  10.508  28.251   6.876
 6020POPC   C4A75966  10.510  28.203   7.344
 6020POPC   C1B75967  10.302  28.612   6.125
 6020POPC   C2B75968  10.264  28.664   6.577
 6020POPC   C3B75969  10.145  28.858   6.963
 6020POPC   C4B75970  10.183  28.618   7.354
 6021POPC   NC375971  16.237  22.946   5.499
 6021POPC   PO475972  15.611  22.826   5.424
 6021POPC   GL175973  15.885  22.701   5.763
 6021POPC   GL275974  15.946  23.011   5.927
 6021POPC   C1A75975  15.893  22.574   6.190
 6021POPC   D2A75976  15.805  22.650   6.616
 6021POPC   C3A75977  16.071  22.858   6.854
 6021POPC   C4A75978  16.039  22.832   7.258
 6021POPC   C1B75979  16.017  23.296   6.274
 6021POPC   C2B75980  15.944  23.352   6.708
 6021POPC   C3B75981  16.034  23.321   7.123
 6021POPC   C4B75982  15.822  23.427   7.523
 6022POPC   NC375983   2.267  27.905   5.446
 6022POPC   PO475984   1.849  27.438   5.613
 6022POPC   GL175985   2.107  27.707   5.886
 6022POPC   GL275986   2.017  28.093   5.858
 6022POPC   C1A75987   2.144  27.609   6.310
 6022POPC   D2A75988   2.200  27.729   6.695
 6022POPC   C3A75989   1.993  27.476   7.001
 6022POPC   C4A75990   2.179  27.696   7.343
 6022POPC   C1B75991   1.769  27.940   6.195
 6022POPC   C2B75992   1.709  27.889   6.608
 6022POPC   C3B75993   1.870  27.974   6.988
 6022POPC   C4B75994   1.681  27.764   7.330
 6023POPC   NC375995  37.286  40.312   5.466
 6023POPC   PO475996  36.866  40.883   5.391
 6023POPC   GL175997  37.005  40.967   5.772
 6023POPC   GL275998  36.715  41.185   5.796
 6023POPC   C1A75999  37.094  40.727   6.134
 6023POPC   D2A76000  37.191  40.662   6.547
 6023POPC   C3A76001  36.897  40.690   6.908
 6023POPC   C4A76002  37.111  40.707   7.281
 6023POPC   C1B76003  36.636  40.953   6.152
 6023POPC   C2B76004  36.835  41.025   6.528
 6023POPC   C3B76005  36.748  41.194   6.923
 6023POPC   C4B76006  36.833  41.126   7.349
 6024POPC   NC376007   3.474  30.719   5.282
 6024POPC   PO476008   4.134  30.646   5.405
 6024POPC   GL176009   3.770  30.632   5.742
 6024POPC   GL276010   3.382  30.561   5.754
 6024POPC   C1A76011   3.577  30.741   6.170
 6024POPC   D2A76012   3.625  30.542   6.565
 6024POPC   C3A76013   3.720  30.835   6.930
 6024POPC   C4A76014   3.697  30.835   7.392
 6024POPC   C1B76015   3.286  30.325   6.158
 6024POPC   C2B76016   3.111  30.441   6.566
 6024POPC   C3B76017   3.289  30.533   6.925
 6024POPC   C4B76018   3.239  30.734   7.246
 6025POPC   NC376019  42.732  12.209   5.392
 6025POPC   PO476020  43.254  11.801   5.464
 6025POPC   GL176021  43.197  11.891   5.893
 6025POPC   GL276022  42.892  12.082   5.861
 6025POPC   C1A76023  43.191  11.991   6.336
 6025POPC   D2A76024  43.086  12.357   6.556
 6025POPC   C3A76025  43.269  12.236   6.921
 6025POPC   C4A76026  43.441  11.826   7.059
 6025POPC   C1B76027  42.722  11.895   6.205
 6025POPC   C2B76028  42.661  12.083   6.573
 6025POPC   C3B76029  42.710  11.936   6.952
 6025POPC   C4B76030  42.984  11.986   7.252
 6026POPC   NC376031  31.584   5.259   5.294
 6026POPC   PO476032  31.450   4.680   5.495
 6026POPC   GL176033  31.631   4.967   5.773
 6026POPC   GL276034  31.316   5.107   5.829
 6026POPC   C1A76035  31.719   5.127   6.214
 6026POPC   D2A76036  31.445   5.145   6.620
 6026POPC   C3A76037  31.562   5.091   7.053
 6026POPC   C4A76038  31.652   5.206   7.473
 6026POPC   C1B76039  31.180   4.951   6.225
 6026POPC   C2B76040  31.106   4.738   6.618
 6026POPC   C3B76041  31.113   4.851   7.031
 6026POPC   C4B76042  31.202   4.952   7.451
 6027POPC   NC376043   3.369  11.647   5.430
 6027POPC   PO476044   3.774  12.213   5.539
 6027POPC   GL176045   3.640  12.087   5.902
 6027POPC   GL276046   3.740  11.752   5.882
 6027POPC   C1A76047   3.875  12.067   6.279
 6027POPC   D2A76048   3.981  12.116   6.689
 6027POPC   C3A76049   3.634  12.168   6.939
 6027POPC   C4A76050   3.432  12.326   7.283
 6027POPC   C1B76051   3.413  11.775   6.227
 6027POPC   C2B76052   3.334  11.698   6.678
 6027POPC   C3B76053   3.665  11.668   6.998
 6027POPC   C4B76054   3.651  11.878   7.399
 6028POPC   NC376055  13.475   3.760   5.380
 6028POPC   PO476056  14.043   4.031   5.682
 6028POPC   GL176057  13.675   3.782   5.859
 6028POPC   GL276058  13.670   3.451   5.766
 6028POPC   C1A76059  13.435   3.749   6.248
 6028POPC   D2A76060  13.682   3.735   6.634
 6028POPC   C3A76061  13.567   3.914   7.033
 6028POPC   C4A76062  13.687   3.739   7.412
 6028POPC   C1B76063  13.616   3.266   6.169
 6028POPC   C2B76064  13.384   3.301   6.570
 6028POPC   C3B76065  13.471   3.425   7.001
 6028POPC   C4B76066  13.297   3.377   7.414
 6029POPC   NC376067  25.119  39.020   5.470
 6029POPC   PO476068  25.587  39.448   5.371
 6029POPC   GL176069  25.345  39.423   5.730
 6029POPC   GL276070  25.567  39.164   5.847
 6029POPC   C1A76071  25.071  39.357   6.089
 6029POPC   D2A76072  25.233  39.418   6.503
 6029POPC   C3A76073  25.018  39.569   6.858
 6029POPC   C4A76074  25.214  39.421   7.208
 6029POPC   C1B76075  25.388  38.967   6.218
 6029POPC   C2B76076  25.062  38.922   6.500
 6029POPC   C3B76077  25.191  38.994   6.915
 6029POPC   C4B76078  24.974  38.955   7.293
 6030POPC   NC376079  29.645  31.296   5.267
 6030POPC   PO476080  30.256  31.318   5.410
 6030POPC   GL176081  30.052  31.576   5.744
 6030POPC   GL276082  29.672  31.608   5.711
 6030POPC   C1A76083  29.933  31.747   6.177
 6030POPC   D2A76084  29.685  31.782   6.586
 6030POPC   C3A76085  29.827  31.517   6.933
 6030POPC   C4A76086  30.047  31.226   7.207
 6030POPC   C1B76087  29.418  31.602   6.143
 6030POPC   C2B76088  29.180  31.636   6.562
 6030POPC   C3B76089  29.316  31.595   7.006
 6030POPC   C4B76090  29.525  31.298   7.285
 6031POPC   NC376091  29.012  26.448   5.483
 6031POPC   PO476092  29.285  25.824   5.406
 6031POPC   GL176093  29.049  25.875   5.799
 6031POPC   GL276094  29.215  26.172   5.888
 6031POPC   C1A76095  28.996  25.896   6.285
 6031POPC   D2A76096  29.345  26.007   6.571
 6031POPC   C3A76097  29.326  26.115   6.999
 6031POPC   C4A76098  28.937  26.080   7.232
 6031POPC   C1B76099  29.115  26.391   6.255
 6031POPC   C2B76100  28.903  26.304   6.645
 6031POPC   C3B76101  28.865  26.545   7.019
 6031POPC   C4B76102  29.218  26.551   7.259
 6032POPC   NC376103   5.295   4.473   5.579
 6032POPC   PO476104   4.970   3.852   5.532
 6032POPC   GL176105   4.936   4.207   5.894
 6032POPC   GL276106   5.271   4.361   6.062
 6032POPC   C1A76107   4.861   4.411   6.346
 6032POPC   D2A76108   4.840   4.615   6.785
 6032POPC   C3A76109   5.081   4.389   7.157
 6032POPC   C4A76110   5.360   4.044   7.211
 6032POPC   C1B76111   5.246   4.775   6.328
 6032POPC   C2B76112   5.387   4.891   6.767
 6032POPC   C3B76113   5.545   4.596   7.116
 6032POPC   C4B76114   5.470   4.434   7.552
 6033POPC   NC376115   4.232  25.910   5.241
 6033POPC   PO476116   4.580  25.431   5.637
 6033POPC   GL176117   4.445  25.280   5.975
 6033POPC   GL276118   4.081  25.229   5.944
 6033POPC   C1A76119   4.338  25.354   6.371
 6033POPC   D2A76120   4.033  25.167   6.603
 6033POPC   C3A76121   4.216  25.252   6.987
 6033POPC   C4A76122   4.586  25.244   7.241
 6033POPC   C1B76123   3.893  25.548   6.274
 6033POPC   C2B76124   4.130  25.755   6.613
 6033POPC   C3B76125   4.059  25.899   7.023
 6033POPC   C4B76126   4.011  25.659   7.334
 6034POPC   NC376127  24.916  39.944   5.144
 6034POPC   PO476128  25.577  40.153   5.313
 6034POPC   GL176129  25.233  39.986   5.639
 6034POPC   GL276130  25.117  40.281   5.823
 6034POPC   C1A76131  25.152  39.878   6.118
 6034POPC   D2A76132  25.231  40.224   6.463
 6034POPC   C3A76133  25.250  40.045   6.868
 6034POPC   C4A76134  25.331  39.921   7.278
 6034POPC   C1B76135  24.818  40.282   6.196
 6034POPC   C2B76136  24.755  40.122   6.648
 6034POPC   C3B76137  24.830  40.206   7.124
 6034POPC   C4B76138  24.844  40.310   7.590
 6035POPC   NC376139  34.545  19.548   5.539
 6035POPC   PO476140  34.251  20.117   5.403
 6035POPC   GL176141  34.491  19.965   5.826
 6035POPC   GL276142  34.327  19.631   5.977
 6035POPC   C1A76143  34.745  20.062   6.237
 6035POPC   D2A76144  34.979  20.035   6.661
 6035POPC   C3A76145  34.701  20.006   7.033
 6035POPC   C4A76146  34.513  19.981   7.457
 6035POPC   C1B76147  34.640  19.559   6.261
 6035POPC   C2B76148  34.517  19.761   6.623
 6035POPC   C3B76149  34.370  19.628   7.017
 6035POPC   C4B76150  34.692  19.434   7.240
 6036POPC   NC376151  26.484   5.305   5.528
 6036POPC   PO476152  27.022   5.016   5.341
 6036POPC   GL176153  26.786   4.936   5.736
 6036POPC   GL276154  26.934   5.235   5.814
 6036POPC   C1A76155  26.580   5.161   6.158
 6036POPC   D2A76156  26.446   5.337   6.577
 6036POPC   C3A76157  26.634   5.053   6.878
 6036POPC   C4A76158  26.763   5.113   7.281
 6036POPC   C1B76159  27.059   4.923   6.170
 6036POPC   C2B76160  26.991   4.771   6.612
 6036POPC   C3B76161  27.203   4.768   7.020
 6036POPC   C4B76162  27.221   4.864   7.483
 6037POPC   NC376163   7.881   0.900   5.476
 6037POPC   PO476164   8.329   1.450   5.401
 6037POPC   GL176165   8.387   1.266   5.850
 6037POPC   GL276166   8.731   1.137   5.928
 6037POPC   C1A76167   8.142   1.068   6.227
 6037POPC   D2A76168   8.082   0.931   6.670
 6037POPC   C3A76169   7.880   1.140   6.995
 6037POPC   C4A76170   7.837   1.469   7.304
 6037POPC   C1B76171   8.624   1.182   6.342
 6037POPC   C2B76172   8.463   1.297   6.719
 6037POPC   C3B76173   8.413   1.141   7.102
 6037POPC   C4B76174   8.495   0.969   7.496
 6038POPC   NC376175  14.387   7.003   5.107
 6038POPC   PO476176  14.518   7.580   5.166
 6038POPC   GL176177  14.399   7.582   5.708
 6038POPC   GL276178  14.315   7.218   5.632
 6038POPC   C1A76179  14.585   7.565   6.174
 6038POPC   D2A76180  14.618   7.359   6.623
 6038POPC   C3A76181  14.613   7.608   7.027
 6038POPC   C4A76182  14.527   7.556   7.474
 6038POPC   C1B76183  14.259   7.165   6.094
 6038POPC   C2B76184  14.219   7.026   6.560
 6038POPC   C3B76185  14.300   7.177   7.028
 6038POPC   C4B76186  14.161   7.201   7.476
 6039POPC   NC376187  41.403  17.094   5.513
 6039POPC   PO476188  41.790  16.572   5.427
 6039POPC   GL176189  41.620  16.769   5.831
 6039POPC   GL276190  41.249  16.734   5.875
 6039POPC   C1A76191  41.588  16.845   6.273
 6039POPC   D2A76192  41.648  16.947   6.703
 6039POPC   C3A76193  41.392  16.651   6.954
 6039POPC   C4A76194  41.505  16.445   7.330
 6039POPC   C1B76195  41.187  17.144   6.133
 6039POPC   C2B76196  41.223  17.293   6.564
 6039POPC   C3B76197  41.333  17.214   7.000
 6039POPC   C4B76198  41.466  16.967   7.348
 6040POPC   NC376199  24.505  38.648   5.383
 6040POPC   PO476200  24.761  38.056   5.504
 6040POPC   GL176201  24.503  38.311   5.809
 6040POPC   GL276202  24.609  38.612   5.883
 6040POPC   C1A76203  24.274  38.558   6.215
 6040POPC   D2A76204  24.508  38.709   6.579
 6040POPC   C3A76205  24.364  38.409   6.858
 6040POPC   C4A76206  24.289  38.319   7.268
 6040POPC   C1B76207  24.737  38.336   6.252
 6040POPC   C2B76208  24.853  38.273   6.680
 6040POPC   C3B76209  24.835  38.581   6.988
 6040POPC   C4B76210  24.472  38.822   7.141
 6041POPC   NC376211  44.430  25.089   5.515
 6041POPC   PO476212  44.847  25.492   5.256
 6041POPC   GL176213  44.801  25.403   5.720
 6041POPC   GL276214  44.788  25.043   5.845
 6041POPC   C1A76215  44.549  25.430   6.115
 6041POPC   D2A76216  44.696  25.422   6.561
 6041POPC   C3A76217  44.432  25.506   6.917
 6041POPC   C4A76218  44.554  25.593   7.354
 6041POPC   C1B76219  44.554  24.922   6.229
 6041POPC   C2B76220  44.528  24.964   6.678
 6041POPC   C3B76221  44.720  25.116   7.085
 6041POPC   C4B76222  44.617  24.812   7.414
 6042POPC   NC376223  39.223   2.061   5.399
 6042POPC   PO476224  39.369   1.479   5.331
 6042POPC   GL176225  39.367   1.796   5.787
 6042POPC   GL276226  39.296   2.202   5.871
 6042POPC   C1A76227  39.136   1.874   6.206
 6042POPC   D2A76228  39.032   1.953   6.615
 6042POPC   C3A76229  39.263   1.903   6.988
 6042POPC   C4A76230  39.075   1.974   7.385
 6042POPC   C1B76231  39.312   2.380   6.305
 6042POPC   C2B76232  39.317   2.379   6.763
 6042POPC   C3B76233  39.362   2.375   7.222
 6042POPC   C4B76234  39.420   2.292   7.685
 6043POPC   NC376235   8.062  20.235   5.347
 6043POPC   PO476236   8.397  20.750   5.618
 6043POPC   GL176237   8.201  20.642   5.931
 6043POPC   GL276238   8.179  20.297   5.861
 6043POPC   C1A76239   8.214  20.823   6.321
 6043POPC   D2A76240   8.040  21.067   6.627
 6043POPC   C3A76241   8.229  20.914   6.982
 6043POPC   C4A76242   8.292  21.032   7.369
 6043POPC   C1B76243   8.055  20.314   6.306
 6043POPC   C2B76244   7.991  20.534   6.710
 6043POPC   C3B76245   8.022  20.452   7.154
 6043POPC   C4B76246   8.341  20.331   7.426
 6044POPC   NC376247  13.030  30.480   5.448
 6044POPC   PO476248  12.511  30.930   5.449
 6044POPC   GL176249  12.622  30.687   5.837
 6044POPC   GL276250  12.902  30.447   5.931
 6044POPC   C1A76251  12.584  30.621   6.304
 6044POPC   D2A76252  12.545  30.822   6.707
 6044POPC   C3A76253  12.729  30.587   7.063
 6044POPC   C4A76254  12.997  30.361   7.355
 6044POPC   C1B76255  13.019  30.847   6.151
 6044POPC   C2B76256  13.046  30.750   6.596
 6044POPC   C3B76257  13.092  30.940   6.994
 6044POPC   C4B76258  13.011  30.883   7.428
 6045POPC   NC376259  32.149  42.199   5.330
 6045POPC   PO476260  32.659  42.668   5.521
 6045POPC   GL176261  32.391  42.379   5.796
 6045POPC   GL276262  31.986  42.392   5.779
 6045POPC   C1A76263  32.520  42.393   6.234
 6045POPC   D2A76264  32.538  42.223   6.669
 6045POPC   C3A76265  32.415  42.274   7.102
 6045POPC   C4A76266  32.005  42.124   7.268
 6045POPC   C1B76267  32.024  42.584   6.161
 6045POPC   C2B76268  32.180  42.567   6.569
 6045POPC   C3B76269  32.031  42.549   6.966
 6045POPC   C4B76270  32.113  42.678   7.363
 6046POPC   NC376271  23.027   6.542   5.355
 6046POPC   PO476272  22.441   6.719   5.653
 6046POPC   GL176273  22.769   6.706   5.952
 6046POPC   GL276274  22.976   6.387   5.874
 6046POPC   C1A76275  22.724   6.857   6.420
 6046POPC   D2A76276  22.596   6.875   6.887
 6046POPC   C3A76277  22.981   6.858   7.151
 6046POPC   C4A76278  23.452   6.910   7.189
 6046POPC   C1B76279  22.735   6.347   6.295
 6046POPC   C2B76280  22.837   6.443   6.725
 6046POPC   C3B76281  22.753   6.402   7.154
 6046POPC   C4B76282  22.912   6.510   7.574
 6047POPC   NC376283  42.296  22.648   5.309
 6047POPC   PO476284  42.099  23.349   5.314
 6047POPC   GL176285  42.193  23.105   5.749
 6047POPC   GL276286  42.536  23.031   5.931
 6047POPC   C1A76287  42.117  23.094   6.226
 6047POPC   D2A76288  42.185  22.808   6.613
 6047POPC   C3A76289  42.337  22.998   7.023
 6047POPC   C4A76290  42.416  23.430   7.186
 6047POPC   C1B76291  42.412  22.655   6.137
 6047POPC   C2B76292  42.503  22.403   6.519
 6047POPC   C3B76293  42.559  22.526   6.940
 6047POPC   C4B76294  42.392  22.556   7.353
 6048POPC   NC376295  41.638  39.367   5.394
 6048POPC   PO476296  41.136  38.997   5.482
 6048POPC   GL176297  41.428  39.154   5.802
 6048POPC   GL276298  41.731  38.940   5.777
 6048POPC   C1A76299  41.689  39.263   6.177
 6048POPC   D2A76300  41.527  39.254   6.596
 6048POPC   C3A76301  41.594  39.449   7.006
 6048POPC   C4A76302  41.282  39.627   7.278
 6048POPC   C1B76303  41.464  38.782   6.142
 6048POPC   C2B76304  41.292  38.793   6.570
 6048POPC   C3B76305  41.437  38.918   6.982
 6048POPC   C4B76306  41.721  39.002   7.307
 6049POPC   NC376307   0.536   2.713   5.315
 6049POPC   PO476308   0.458   3.310   5.659
 6049POPC   GL176309   0.581   2.981   5.861
 6049POPC   GL276310   0.287   2.792   5.759
 6049POPC   C1A76311   0.559   3.011   6.312
 6049POPC   D2A76312   0.298   2.937   6.700
 6049POPC   C3A76313   0.539   2.743   7.038
 6049POPC   C4A76314   0.793   2.886   7.405
 6049POPC   C1B76315   0.333   2.599   6.153
 6049POPC   C2B76316   0.424   2.454   6.556
 6049POPC   C3B76317   0.143   2.444   6.881
 6049POPC   C4B76318   0.026   2.338   7.273
 6050POPC   NC376319  21.319  35.851   5.451
 6050POPC   PO476320  21.615  36.382   5.711
 6050POPC   GL176321  21.507  36.006   5.962
 6050POPC   GL276322  21.156  35.794   5.923
 6050POPC   C1A76323  21.621  36.015   6.430
 6050POPC   D2A76324  21.609  36.347   6.773
 6050POPC   C3A76325  21.605  36.253   7.209
 6050POPC   C4A76326  21.701  36.240   7.648
 6050POPC   C1B76327  21.083  36.156   6.162
 6050POPC   C2B76328  21.162  36.265   6.567
 6050POPC   C3B76329  21.223  36.067   6.940
 6050POPC   C4B76330  21.022  36.118   7.313
 6051POPC   NC376331  15.625  41.777   5.446
 6051POPC   PO476332  15.056  41.367   5.421
 6051POPC   GL176333  15.054  41.447   5.857
 6051POPC   GL276334  15.296  41.715   5.834
 6051POPC   C1A76335  15.073  41.629   6.286
 6051POPC   D2A76336  14.854  41.622   6.680
 6051POPC   C3A76337  15.083  41.600   7.075
 6051POPC   C4A76338  15.094  41.477   7.483
 6051POPC   C1B76339  15.531  41.899   6.176
 6051POPC   C2B76340  15.472  41.757   6.581
 6051POPC   C3B76341  15.560  41.804   6.983
 6051POPC   C4B76342  15.454  41.873   7.423
 6052POPC   NC376343   3.169  15.050   5.268
 6052POPC   PO476344   2.562  15.020   5.487
 6052POPC   GL176345   2.672  15.225   5.822
 6052POPC   GL276346   3.014  15.234   5.767
 6052POPC   C1A76347   2.514  15.175   6.232
 6052POPC   D2A76348   2.413  15.486   6.532
 6052POPC   C3A76349   2.622  15.420   6.939
 6052POPC   C4A76350   2.679  15.510   7.369
 6052POPC   C1B76351   2.956  15.460   6.183
 6052POPC   C2B76352   3.010  15.362   6.597
 6052POPC   C3B76353   3.142  15.201   6.987
 6052POPC   C4B76354   3.082  15.203   7.416
 6053POPC   NC376355  28.337  25.766   5.222
 6053POPC   PO476356  28.561  26.415   5.363
 6053POPC   GL176357  28.621  26.178   5.764
 6053POPC   GL276358  28.515  25.803   5.759
 6053POPC   C1A76359  28.547  26.114   6.214
 6053POPC   D2A76360  28.531  25.919   6.627
 6053POPC   C3A76361  28.253  26.150   6.862
 6053POPC   C4A76362  28.414  26.361   7.174
 6053POPC   C1B76363  28.292  25.665   6.166
 6053POPC   C2B76364  28.033  25.761   6.555
 6053POPC   C3B76365  28.115  25.686   7.018
 6053POPC   C4B76366  28.496  25.838   7.206
 6054POPC   NC376367   7.152   0.658   5.530
 6054POPC   PO476368   7.721   0.367   5.295
 6054POPC   GL176369   7.584   0.424   5.702
 6054POPC   GL276370   7.432   0.101   5.806
 6054POPC   C1A76371   7.516   0.520   6.147
 6054POPC   D2A76372   7.644   0.308   6.525
 6054POPC   C3A76373   7.538   0.521   6.902
 6054POPC   C4A76374   7.282   0.633   7.257
 6054POPC   C1B76375   7.211   0.074   6.226
 6054POPC   C2B76376   7.017   0.055   6.649
 6054POPC   C3B76377   7.209   0.156   7.051
 6054POPC   C4B76378   7.442   0.187   7.460
 6055POPC   NC376379   6.119  21.384   5.399
 6055POPC   PO476380   5.614  20.957   5.356
 6055POPC   GL176381   5.747  21.197   5.757
 6055POPC   GL276382   5.761  21.572   5.776
 6055POPC   C1A76383   5.690  21.289   6.223
 6055POPC   D2A76384   5.522  21.191   6.652
 6055POPC   C3A76385   5.761  21.362   7.020
 6055POPC   C4A76386   6.118  21.361   7.383
 6055POPC   C1B76387   5.982  21.718   6.172
 6055POPC   C2B76388   5.865  21.718   6.623
 6055POPC   C3B76389   6.047  21.775   7.045
 6055POPC   C4B76390   5.832  21.757   7.455
 6056POPC   NC376391  37.202   6.190   5.486
 6056POPC   PO476392  36.549   5.890   5.405
 6056POPC   GL176393  36.735   6.091   5.723
 6056POPC   GL276394  36.986   5.903   5.834
 6056POPC   C1A76395  36.659   6.063   6.180
 6056POPC   D2A76396  36.902   6.038   6.549
 6056POPC   C3A76397  36.814   5.950   6.982
 6056POPC   C4A76398  37.121   6.096   7.247
 6056POPC   C1B76399  37.207   5.841   6.186
 6056POPC   C2B76400  37.100   5.552   6.492
 6056POPC   C3B76401  37.164   5.573   6.917
 6056POPC   C4B76402  36.901   5.519   7.244
 6057POPC   NC376403   6.380  40.796   5.132
 6057POPC   PO476404   5.740  40.627   5.338
 6057POPC   GL176405   5.844  40.922   5.734
 6057POPC   GL276406   5.835  40.681   5.927
 6057POPC   C1A76407   6.065  40.984   6.225
 6057POPC   D2A76408   6.164  40.693   6.592
 6057POPC   C3A76409   6.106  40.885   7.011
 6057POPC   C4A76410   6.040  40.748   7.460
 6057POPC   C1B76411   5.556  40.894   6.230
 6057POPC   C2B76412   5.699  40.911   6.646
 6057POPC   C3B76413   5.623  40.716   7.039
 6057POPC   C4B76414   5.594  40.994   7.384
 6058POPC   NC376415   1.456  37.035   5.149
 6058POPC   PO476416   0.782  36.848   5.240
 6058POPC   GL176417   1.004  36.984   5.657
 6058POPC   GL276418   1.292  36.740   5.746
 6058POPC   C1A76419   1.168  37.119   6.099
 6058POPC   D2A76420   1.237  36.887   6.524
 6058POPC   C3A76421   1.149  37.062   6.944
 6058POPC   C4A76422   1.260  37.086   7.388
 6058POPC   C1B76423   1.073  36.599   6.118
 6058POPC   C2B76424   0.936  36.447   6.507
 6058POPC   C3B76425   1.010  36.529   6.921
 6058POPC   C4B76426   1.336  36.642   7.169
 6059POPC   NC376427  40.408  29.194   5.568
 6059POPC   PO476428  40.885  28.773   5.405
 6059POPC   GL176429  40.761  28.943   5.839
 6059POPC   GL276430  40.747  29.328   5.931
 6059POPC   C1A76431  40.749  28.993   6.313
 6059POPC   D2A76432  41.092  28.967   6.624
 6059POPC   C3A76433  41.000  28.992   7.092
 6059POPC   C4A76434  40.782  28.963   7.506
 6059POPC   C1B76435  40.464  29.549   6.258
 6059POPC   C2B76436  40.452  29.697   6.705
 6059POPC   C3B76437  40.687  29.443   7.025
 6059POPC   C4B76438  41.135  29.500   7.134
 6060POPC   NC376439  14.932  44.176   5.194
 6060POPC   PO476440  15.100  43.610   5.329
 6060POPC   GL176441  15.021  43.832   5.724
 6060POPC   GL276442  15.120  44.188   5.707
 6060POPC   C1A76443  14.924  43.757   6.163
 6060POPC   D2A76444  15.126  43.753   6.567
 6060POPC   C3A76445  14.854  43.776   6.907
 6060POPC   C4A76446  14.912  43.707   7.306
 6060POPC   C1B76447  15.285  44.130   6.174
 6060POPC   C2B76448  15.355  44.222   6.632
 6060POPC   C3B76449  15.300  44.002   7.037
 6060POPC   C4B76450  15.358  44.033   7.526
 6061POPC   NC376451  10.951  39.392   5.371
 6061POPC   PO476452  11.604  39.481   5.547
 6061POPC   GL176453  11.256  39.312   5.823
 6061POPC   GL276454  11.089  38.989   5.727
 6061POPC   C1A76455  11.316  39.222   6.266
 6061POPC   D2A76456  11.300  39.461   6.633
 6061POPC   C3A76457  11.381  39.357   7.034
 6061POPC   C4A76458  11.113  39.110   7.278
 6061POPC   C1B76459  11.167  38.750   6.120
 6061POPC   C2B76460  11.151  38.841   6.578
 6061POPC   C3B76461  11.360  38.798   6.957
 6061POPC   C4B76462  11.610  38.965   7.263
 6062POPC   NC376463  15.776  14.954   5.355
 6062POPC   PO476464  16.200  15.475   5.523
 6062POPC   GL176465  15.920  15.221   5.748
 6062POPC   GL276466  15.573  15.316   5.740
 6062POPC   C1A76467  15.809  14.986   6.110
 6062POPC   D2A76468  16.072  15.104   6.396
 6062POPC   C3A76469  15.913  15.132   6.781
 6062POPC   C4A76470  16.014  14.900   7.141
 6062POPC   C1B76471  15.724  15.475   6.138
 6062POPC   C2B76472  15.726  15.570   6.537
 6062POPC   C3B76473  15.684  15.548   6.959
 6062POPC   C4B76474  15.990  15.396   7.210
 6063POPC   NC376475  43.339   8.326   5.616
 6063POPC   PO476476  43.998   8.206   5.405
 6063POPC   GL176477  43.813   8.360   5.819
 6063POPC   GL276478  43.667   8.027   5.890
 6063POPC   C1A76479  43.611   8.332   6.291
 6063POPC   D2A76480  43.851   8.218   6.675
 6063POPC   C3A76481  43.741   8.271   7.105
 6063POPC   C4A76482  43.495   8.044   7.381
 6063POPC   C1B76483  43.709   7.828   6.307
 6063POPC   C2B76484  43.805   7.647   6.698
 6063POPC   C3B76485  43.836   7.728   7.121
 6063POPC   C4B76486  44.091   7.764   7.450
 6064POPC   NC376487  26.594   8.462   5.362
 6064POPC   PO476488  27.185   8.043   5.379
 6064POPC   GL176489  27.146   8.238   5.781
 6064POPC   GL276490  26.846   8.446   5.812
 6064POPC   C1A76491  26.960   8.124   6.187
 6064POPC   D2A76492  26.608   8.104   6.464
 6064POPC   C3A76493  26.804   7.925   6.803
 6064POPC   C4A76494  26.807   7.897   7.220
 6064POPC   C1B76495  26.637   8.546   6.198
 6064POPC   C2B76496  26.495   8.555   6.669
 6064POPC   C3B76497  26.584   8.346   7.127
 6064POPC   C4B76498  26.454   8.059   7.531
 6065POPC   NC376499  25.074   0.734   5.365
 6065POPC   PO476500  25.498   0.293   5.281
 6065POPC   GL176501  25.265   0.378   5.696
 6065POPC   GL276502  25.232   0.735   5.843
 6065POPC   C1A76503  25.299   0.274   6.126
 6065POPC   D2A76504  25.263   0.447   6.530
 6065POPC   C3A76505  25.363   0.220   6.921
 6065POPC   C4A76506  25.481   0.484   7.253
 6065POPC   C1B76507  24.897   0.612   6.108
 6065POPC   C2B76508  24.756   0.645   6.525
 6065POPC   C3B76509  24.948   0.540   6.928
 6065POPC   C4B76510  24.998   0.374   7.378
 6066POPC   NC376511  21.791  11.876   5.607
 6066POPC   PO476512  21.139  11.735   5.463
 6066POPC   GL176513  21.253  12.037   5.774
 6066POPC   GL276514  21.443  11.807   5.978
 6066POPC   C1A76515  21.437  12.287   6.137
 6066POPC   D2A76516  21.385  12.216   6.586
 6066POPC   C3A76517  21.633  12.059   6.933
 6066POPC   C4A76518  21.524  12.200   7.347
 6066POPC   C1B76519  21.096  11.912   6.259
 6066POPC   C2B76520  21.056  11.826   6.686
 6066POPC   C3B76521  21.136  11.997   7.101
 6066POPC   C4B76522  21.185  11.826   7.554
 6067POPC   NC376523   7.216  22.251   5.132
 6067POPC   PO476524   7.564  22.835   5.248
 6067POPC   GL176525   7.423  22.991   5.698
 6067POPC   GL276526   7.187  22.762   5.915
 6067POPC   C1A76527   7.545  23.044   6.139
 6067POPC   D2A76528   7.263  22.893   6.484
 6067POPC   C3A76529   7.425  23.049   6.849
 6067POPC   C4A76530   7.742  23.063   7.160
 6067POPC   C1B76531   7.169  22.406   6.214
 6067POPC   C2B76532   7.071  22.335   6.657
 6067POPC   C3B76533   6.989  22.633   6.993
 6067POPC   C4B76534   7.311  22.787   7.257
 6068POPC   NC376535  16.537  36.074   5.076
 6068POPC   PO476536  16.868  36.677   5.178
 6068POPC   GL176537  16.795  36.469   5.634
 6068POPC   GL276538  16.500  36.254   5.666
 6068POPC   C1A76539  16.948  36.340   6.073
 6068POPC   D2A76540  17.096  36.084   6.452
 6068POPC   C3A76541  17.056  36.080   6.911
 6068POPC   C4A76542  17.092  35.801   7.265
 6068POPC   C1B76543  16.446  36.420   6.080
 6068POPC   C2B76544  16.622  36.350   6.489
 6068POPC   C3B76545  16.661  36.425   6.926
 6068POPC   C4B76546  16.656  36.129   7.263
 6069POPC   NC376547   9.870  15.847   5.478
 6069POPC   PO476548   9.285  16.183   5.313
 6069POPC   GL176549   9.580  16.159   5.735
 6069POPC   GL276550   9.659  15.788   5.927
 6069POPC   C1A76551   9.662  16.333   6.158
 6069POPC   D2A76552   9.859  16.425   6.583
 6069POPC   C3A76553   9.660  16.319   7.040
 6069POPC   C4A76554   9.838  16.132   7.476
 6069POPC   C1B76555   9.912  15.916   6.309
 6069POPC   C2B76556  10.023  15.965   6.761
 6069POPC   C3B76557   9.715  15.820   7.056
 6069POPC   C4B76558   9.675  15.626   7.447
 6070POPC   NC376559   1.642   3.738   5.608
 6070POPC   PO476560   2.281   3.377   5.691
 6070POPC   GL176561   1.875   3.447   5.959
 6070POPC   GL276562   1.839   3.805   6.059
 6070POPC   C1A76563   1.591   3.326   6.347
 6070POPC   D2A76564   1.637   3.351   6.815
 6070POPC   C3A76565   2.091   3.450   6.973
 6070POPC   C4A76566   2.228   3.607   7.381
 6070POPC   C1B76567   2.193   3.872   6.285
 6070POPC   C2B76568   2.077   3.883   6.701
 6070POPC   C3B76569   1.885   3.896   7.079
 6070POPC   C4B76570   1.805   3.912   7.501
 6071POPC   NC376571  21.705  39.155   5.243
 6071POPC   PO476572  21.050  39.158   5.535
 6071POPC   GL176573  21.373  39.220   5.826
 6071POPC   GL276574  21.131  39.347   6.043
 6071POPC   C1A76575  21.586  39.246   6.239
 6071POPC   D2A76576  21.330  39.409   6.542
 6071POPC   C3A76577  21.520  39.576   6.891
 6071POPC   C4A76578  21.343  39.302   7.199
 6071POPC   C1B76579  21.199  38.906   6.231
 6071POPC   C2B76580  21.320  38.715   6.623
 6071POPC   C3B76581  21.156  38.643   7.017
 6071POPC   C4B76582  21.108  38.881   7.329
 6072POPC   NC376583   7.089  32.395   5.444
 6072POPC   PO476584   7.639  32.024   5.305
 6072POPC   GL176585   7.364  32.033   5.708
 6072POPC   GL276586   7.351  32.361   5.930
 6072POPC   C1A76587   7.243  31.918   6.143
 6072POPC   D2A76588   7.297  32.217   6.491
 6072POPC   C3A76589   7.182  32.100   6.903
 6072POPC   C4A76590   7.506  32.043   7.204
 6072POPC   C1B76591   7.649  32.618   6.239
 6072POPC   C2B76592   7.780  32.675   6.667
 6072POPC   C3B76593   7.436  32.531   6.914
 6072POPC   C4B76594   7.216  32.440   7.304
 6073POPC   NC376595  15.916  37.558   5.425
 6073POPC   PO476596  15.579  38.166   5.465
 6073POPC   GL176597  15.695  37.894   5.802
 6073POPC   GL276598  16.059  37.894   5.836
 6073POPC   C1A76599  15.779  37.773   6.255
 6073POPC   D2A76600  15.729  37.476   6.576
 6073POPC   C3A76601  15.728  37.637   6.987
 6073POPC   C4A76602  15.807  37.877   7.354
 6073POPC   C1B76603  16.275  37.662   6.196
 6073POPC   C2B76604  16.437  37.811   6.595
 6073POPC   C3B76605  16.210  37.843   6.958
 6073POPC   C4B76606  16.203  37.548   7.221
 6074POPC   NC376607  30.863   2.179   5.490
 6074POPC   PO476608  30.411   1.707   5.501
 6074POPC   GL176609  30.660   1.866   5.874
 6074POPC   GL276610  30.606   2.235   5.927
 6074POPC   C1A76611  30.682   1.803   6.337
 6074POPC   D2A76612  30.711   1.654   6.779
 6074POPC   C3A76613  30.752   1.950   7.066
 6074POPC   C4A76614  30.372   2.068   7.174
 6074POPC   C1B76615  30.841   2.303   6.320
 6074POPC   C2B76616  30.946   2.325   6.750
 6074POPC   C3B76617  30.726   2.463   7.107
 6074POPC   C4B76618  30.909   2.299   7.452
 6075POPC   NC376619  12.273  10.298   5.534
 6075POPC   PO476620  12.029  10.868   5.445
 6075POPC   GL176621  11.979  10.628   5.772
 6075POPC   GL276622  11.693  10.607   5.858
 6075POPC   C1A76623  12.151  10.576   6.176
 6075POPC   D2A76624  12.433  10.575   6.525
 6075POPC   C3A76625  12.179  10.534   6.863
 6075POPC   C4A76626  11.972  10.499   7.254
 6075POPC   C1B76627  11.726  10.866   6.206
 6075POPC   C2B76628  12.017  10.937   6.524
 6075POPC   C3B76629  11.803  10.867   6.899
 6075POPC   C4B76630  11.872  11.020   7.283
 6076POPC   NC376631  30.396   4.078   5.531
 6076POPC   PO476632  30.088   4.604   5.256
 6076POPC   GL176633  30.037   4.451   5.712
 6076POPC   GL276634  29.698   4.536   5.890
 6076POPC   C1A76635  30.027   4.198   6.095
 6076POPC   D2A76636  30.190   4.217   6.496
 6076POPC   C3A76637  29.885   4.359   6.794
 6076POPC   C4A76638  29.850   4.394   7.238
 6076POPC   C1B76639  29.885   4.670   6.306
 6076POPC   C2B76640  29.717   4.827   6.728
 6076POPC   C3B76641  29.522   4.769   7.165
 6076POPC   C4B76642  29.648   4.687   7.625
 6077POPC   NC376643   3.269  15.655   5.646
 6077POPC   PO476644   3.626  15.094   5.396
 6077POPC   GL176645   3.544  15.234   5.773
 6077POPC   GL276646   3.796  15.469   5.726
 6077POPC   C1A76647   3.375  15.171   6.186
 6077POPC   D2A76648   3.504  15.179   6.602
 6077POPC   C3A76649   3.504  14.839   6.851
 6077POPC   C4A76650   3.232  14.694   7.115
 6077POPC   C1B76651   3.862  15.332   6.166
 6077POPC   C2B76652   4.031  15.412   6.578
 6077POPC   C3B76653   3.905  15.192   6.918
 6077POPC   C4B76654   3.595  15.188   7.239
 6078POPC   NC376655  32.180  32.644   5.457
 6078POPC   PO476656  32.614  32.142   5.347
 6078POPC   GL176657  32.372  32.241   5.728
 6078POPC   GL276658  32.494  31.907   5.812
 6078POPC   C1A76659  32.258  32.523   6.104
 6078POPC   D2A76660  32.009  32.379   6.498
 6078POPC   C3A76661  32.152  32.444   6.948
 6078POPC   C4A76662  32.297  32.867   7.145
 6078POPC   C1B76663  32.313  32.038   6.204
 6078POPC   C2B76664  32.409  31.921   6.600
 6078POPC   C3B76665  32.383  31.691   6.936
 6078POPC   C4B76666  32.408  32.020   7.208
 6079POPC   NC376667   7.141  42.347   5.444
 6079POPC   PO476668   7.794  42.044   5.564
 6079POPC   GL176669   7.448  42.099   5.806
 6079POPC   GL276670   7.364  42.455   5.872
 6079POPC   C1A76671   7.479  41.926   6.202
 6079POPC   D2A76672   7.372  42.096   6.564
 6079POPC   C3A76673   7.486  41.956   6.955
 6079POPC   C4A76674   7.591  42.341   7.141
 6079POPC   C1B76675   7.389  42.547   6.296
 6079POPC   C2B76676   7.314  42.763   6.662
 6079POPC   C3B76677   7.334  42.787   7.066
 6079POPC   C4B76678   7.092  42.902   7.377
 6080POPC   NC376679  24.013  12.899   5.334
 6080POPC   PO476680  24.626  12.683   5.471
 6080POPC   GL176681  24.322  12.840   5.758
 6080POPC   GL276682  24.456  13.145   5.857
 6080POPC   C1A76683  24.228  12.857   6.196
 6080POPC   D2A76684  24.441  12.704   6.563
 6080POPC   C3A76685  24.314  12.835   6.958
 6080POPC   C4A76686  24.386  12.706   7.351
 6080POPC   C1B76687  24.626  13.173   6.284
 6080POPC   C2B76688  24.687  13.105   6.731
 6080POPC   C3B76689  24.605  13.236   7.153
 6080POPC   C4B76690  24.616  13.099   7.580
 6081POPC   NC376691  41.221  38.465   5.507
 6081POPC   PO476692  41.925  38.332   5.477
 6081POPC   GL176693  41.702  38.417   5.818
 6081POPC   GL276694  41.510  38.115   5.789
 6081POPC   C1A76695  41.844  38.455   6.248
 6081POPC   D2A76696  42.039  38.454   6.652
 6081POPC   C3A76697  41.856  38.560   7.036
 6081POPC   C4A76698  41.783  38.286   7.386
 6081POPC   C1B76699  41.388  38.269   6.205
 6081POPC   C2B76700  41.513  38.303   6.644
 6081POPC   C3B76701  41.371  38.406   7.052
 6081POPC   C4B76702  41.407  38.626   7.470
 6082POPC   NC376703   6.356  20.651   5.364
 6082POPC   PO476704   6.910  20.245   5.239
 6082POPC   GL176705   6.706  20.379   5.650
 6082POPC   GL276706   6.455  20.252   5.895
 6082POPC   C1A76707   6.780  20.613   6.051
 6082POPC   D2A76708   6.814  20.580   6.491
 6082POPC   C3A76709   7.076  20.729   6.809
 6082POPC   C4A76710   6.822  20.629   7.145
 6082POPC   C1B76711   6.297  20.441   6.275
 6082POPC   C2B76712   6.382  20.829   6.497
 6082POPC   C3B76713   6.434  20.818   6.905
 6082POPC   C4B76714   6.355  20.610   7.344
 6083POPC   NC376715  16.225  31.606   5.326
 6083POPC   PO476716  15.639  31.357   5.427
 6083POPC   GL176717  15.942  31.498   5.790
 6083POPC   GL276718  16.245  31.736   5.839
 6083POPC   C1A76719  15.982  31.536   6.278
 6083POPC   D2A76720  15.762  31.761   6.667
 6083POPC   C3A76721  15.663  31.508   7.033
 6083POPC   C4A76722  15.973  31.201   7.150
 6083POPC   C1B76723  16.456  31.788   6.274
 6083POPC   C2B76724  16.319  31.724   6.721
 6083POPC   C3B76725  16.112  31.729   7.122
 6083POPC   C4B76726  16.281  31.802   7.562
 6084POPC   NC376727  42.068   4.732   5.625
 6084POPC   PO476728  41.989   4.158   5.268
 6084POPC   GL176729  42.223   4.237   5.706
 6084POPC   GL276730  42.579   4.206   5.841
 6084POPC   C1A76731  42.190   4.281   6.176
 6084POPC   D2A76732  42.098   4.561   6.541
 6084POPC   C3A76733  42.189   4.326   6.934
 6084POPC   C4A76734  42.444   4.337   7.301
 6084POPC   C1B76735  42.662   4.482   6.225
 6084POPC   C2B76736  42.580   4.522   6.673
 6084POPC   C3B76737  42.849   4.579   7.001
 6084POPC   C4B76738  42.941   4.458   7.392
 6085POPC   NC376739  21.173   4.817   5.384
 6085POPC   PO476740  21.336   5.443   5.529
 6085POPC   GL176741  21.479   5.241   5.869
 6085POPC   GL276742  21.663   5.512   6.035
 6085POPC   C1A76743  21.379   4.829   6.080
 6085POPC   D2A76744  21.376   4.684   6.521
 6085POPC   C3A76745  21.203   5.031   6.768
 6085POPC   C4A76746  21.082   5.227   7.175
 6085POPC   C1B76747  21.571   5.208   6.364
 6085POPC   C2B76748  21.759   5.199   6.732
 6085POPC   C3B76749  21.600   5.115   7.075
 6085POPC   C4B76750  21.536   5.307   7.400
 6086POPC   NC376751  24.415  43.371   5.471
 6086POPC   PO476752  24.654  42.829   5.520
 6086POPC   GL176753  24.597  43.070   5.851
 6086POPC   GL276754  24.256  43.072   5.885
 6086POPC   C1A76755  24.625  43.080   6.269
 6086POPC   D2A76756  24.886  43.131   6.589
 6086POPC   C3A76757  24.728  42.971   6.941
 6086POPC   C4A76758  24.591  43.064   7.336
 6086POPC   C1B76759  24.120  42.947   6.264
 6086POPC   C2B76760  24.293  43.045   6.660
 6086POPC   C3B76761  24.206  42.935   7.049
 6086POPC   C4B76762  24.036  43.046   7.435
 6087POPC   NC376763  42.546   8.606   5.577
 6087POPC   PO476764  42.118   9.187   5.463
 6087POPC   GL176765  42.113   9.126   5.926
 6087POPC   GL276766  42.472   9.134   5.983
 6087POPC   C1A76767  42.167   8.939   6.376
 6087POPC   D2A76768  42.465   8.893   6.770
 6087POPC   C3A76769  42.259   8.689   7.146
 6087POPC   C4A76770  41.972   8.845   7.495
 6087POPC   C1B76771  42.495   9.315   6.418
 6087POPC   C2B76772  42.196   9.460   6.697
 6087POPC   C3B76773  42.086   9.198   7.019
 6087POPC   C4B76774  42.476   9.148   7.256
 6088POPC   NC376775  31.892  13.050   5.339
 6088POPC   PO476776  32.545  12.900   5.501
 6088POPC   GL176777  32.276  12.715   5.826
 6088POPC   GL276778  32.146  13.027   5.821
 6088POPC   C1A76779  32.209  12.647   6.300
 6088POPC   D2A76780  32.314  12.638   6.763
 6088POPC   C3A76781  32.036  12.560   7.143
 6088POPC   C4A76782  32.127  12.682   7.574
 6088POPC   C1B76783  32.000  13.140   6.204
 6088POPC   C2B76784  32.149  13.116   6.587
 6088POPC   C3B76785  32.008  13.024   6.958
 6088POPC   C4B76786  32.118  13.129   7.335
 6089POPC   NC376787  29.737  25.937   5.370
 6089POPC   PO476788  30.308  26.120   5.573
 6089POPC   GL176789  30.037  26.064   5.903
 6089POPC   GL276790  29.724  26.186   5.827
 6089POPC   C1A76791  30.053  26.069   6.354
 6089POPC   D2A76792  29.849  26.188   6.720
 6089POPC   C3A76793  30.021  25.889   6.976
 6089POPC   C4A76794  29.817  25.692   7.300
 6089POPC   C1B76795  29.609  26.312   6.265
 6089POPC   C2B76796  29.430  26.530   6.647
 6089POPC   C3B76797  29.658  26.621   7.014
 6089POPC   C4B76798  29.932  26.332   7.225
 6090POPC   NC376799  33.552  23.067   5.494
 6090POPC   PO476800  34.131  22.713   5.438
 6090POPC   GL176801  33.874  22.697   5.798
 6090POPC   GL276802  33.508  22.607   5.744
 6090POPC   C1A76803  34.007  22.887   6.209
 6090POPC   D2A76804  33.812  23.002   6.615
 6090POPC   C3A76805  34.008  22.946   7.015
 6090POPC   C4A76806  33.977  22.531   7.177
 6090POPC   C1B76807  33.459  22.833   6.158
 6090POPC   C2B76808  33.335  22.831   6.615
 6090POPC   C3B76809  33.507  22.799   7.022
 6090POPC   C4B76810  33.597  23.229   7.105
 6091POPC   NC376811  23.468  11.904   5.314
 6091POPC   PO476812  23.881  12.450   5.415
 6091POPC   GL176813  23.778  12.195   5.808
 6091POPC   GL276814  23.558  11.886   5.844
 6091POPC   C1A76815  23.923  12.028   6.236
 6091POPC   D2A76816  23.878  11.883   6.684
 6091POPC   C3A76817  23.796  12.134   7.054
 6091POPC   C4A76818  23.440  12.260   7.292
 6091POPC   C1B76819  23.427  11.993   6.298
 6091POPC   C2B76820  23.352  12.042   6.767
 6091POPC   C3B76821  23.461  11.740   7.100
 6091POPC   C4B76822  23.744  11.475   7.335
 6092POPC   NC376823  17.264  15.226   5.562
 6092POPC   PO476824  17.764  14.854   5.653
 6092POPC   GL176825  17.609  15.133   5.936
 6092POPC   GL276826  17.774  15.394   5.924
 6092POPC   C1A76827  17.389  15.181   6.317
 6092POPC   D2A76828  17.306  14.868   6.658
 6092POPC   C3A76829  17.472  14.934   7.082
 6092POPC   C4A76830  17.851  15.089   7.280
 6092POPC   C1B76831  17.893  15.658   6.176
 6092POPC   C2B76832  17.768  15.479   6.532
 6092POPC   C3B76833  17.799  15.492   6.945
 6092POPC   C4B76834  17.537  15.495   7.314
 6093POPC   NC376835   1.923  41.212   5.256
 6093POPC   PO476836   2.111  41.904   5.404
 6093POPC   GL176837   1.892  41.707   5.775
 6093POPC   GL276838   2.120  41.487   5.964
 6093POPC   C1A76839   1.709  41.665   6.174
 6093POPC   D2A76840   2.014  41.569   6.487
 6093POPC   C3A76841   1.846  41.522   6.887
 6093POPC   C4A76842   2.076  41.617   7.244
 6093POPC   C1B76843   1.871  41.165   6.179
 6093POPC   C2B76844   1.998  40.934   6.527
 6093POPC   C3B76845   2.147  41.087   6.925
 6093POPC   C4B76846   1.892  41.158   7.267
 6094POPC   NC376847   7.236   9.180   5.408
 6094POPC   PO476848   7.860   8.994   5.590
 6094POPC   GL176849   7.462   8.838   5.833
 6094POPC   GL276850   7.116   8.974   5.889
 6094POPC   C1A76851   7.351   8.789   6.306
 6094POPC   D2A76852   7.612   8.989   6.645
 6094POPC   C3A76853   7.473   8.904   7.068
 6094POPC   C4A76854   7.607   8.685   7.461
 6094POPC   C1B76855   6.988   9.183   6.310
 6094POPC   C2B76856   7.049   9.126   6.738
 6094POPC   C3B76857   7.089   9.243   7.145
 6094POPC   C4B76858   7.179   8.954   7.504
 6095POPC   NC376859  14.795  28.500   5.698
 6095POPC   PO476860  14.349  28.186   5.291
 6095POPC   GL176861  14.333  28.254   5.789
 6095POPC   GL276862  14.285  28.589   5.955
 6095POPC   C1A76863  14.261  28.161   6.255
 6095POPC   D2A76864  14.502  28.214   6.652
 6095POPC   C3A76865  14.329  28.243   7.085
 6095POPC   C4A76866  13.902  28.183   7.234
 6095POPC   C1B76867  14.461  28.670   6.349
 6095POPC   C2B76868  14.499  28.712   6.794
 6095POPC   C3B76869  14.647  28.678   7.194
 6095POPC   C4B76870  14.522  28.454   7.542
 6096POPC   NC376871   9.795  30.371   5.304
 6096POPC   PO476872   9.404  30.954   5.373
 6096POPC   GL176873   9.611  30.803   5.742
 6096POPC   GL276874   9.562  30.448   5.750
 6096POPC   C1A76875   9.675  30.723   6.185
 6096POPC   D2A76876   9.936  30.853   6.488
 6096POPC   C3A76877   9.796  30.757   6.889
 6096POPC   C4A76878  10.030  30.725   7.268
 6096POPC   C1B76879   9.475  30.240   6.138
 6096POPC   C2B76880   9.373  30.415   6.526
 6096POPC   C3B76881   9.352  30.286   6.944
 6096POPC   C4B76882   9.547  30.489   7.260
 6097POPC   NC376883  38.747  28.588   5.425
 6097POPC   PO476884  39.344  28.197   5.331
 6097POPC   GL176885  39.546  28.333   5.694
 6097POPC   GL276886  39.303  28.604   5.765
 6097POPC   C1A76887  39.555  28.304   6.138
 6097POPC   D2A76888  39.280  28.350   6.495
 6097POPC   C3A76889  39.368  28.046   6.814
 6097POPC   C4A76890  39.374  28.174   7.238
 6097POPC   C1B76891  39.292  28.775   6.180
 6097POPC   C2B76892  39.034  28.841   6.548
 6097POPC   C3B76893  39.074  28.764   7.013
 6097POPC   C4B76894  39.066  28.855   7.492
 6098POPC   NC376895  29.182  24.428   5.392
 6098POPC   PO476896  28.507  24.420   5.368
 6098POPC   GL176897  28.833  24.579   5.752
 6098POPC   GL276898  29.013  24.327   5.861
 6098POPC   C1A76899  29.174  24.655   6.172
 6098POPC   D2A76900  29.222  24.441   6.604
 6098POPC   C3A76901  28.967  24.623   6.885
 6098POPC   C4A76902  29.097  24.745   7.234
 6098POPC   C1B76903  28.940  24.210   6.275
 6098POPC   C2B76904  28.740  24.232   6.671
 6098POPC   C3B76905  28.899  24.153   7.075
 6098POPC   C4B76906  28.968  24.326   7.462
 6099POPC   NC376907  35.130   3.381   5.364
 6099POPC   PO476908  35.744   3.645   5.331
 6099POPC   GL176909  35.513   3.559   5.728
 6099POPC   GL276910  35.697   3.312   5.862
 6099POPC   C1A76911  35.332   3.489   6.186
 6099POPC   D2A76912  35.061   3.608   6.568
 6099POPC   C3A76913  35.053   3.418   7.011
 6099POPC   C4A76914  35.153   3.680   7.412
 6099POPC   C1B76915  35.998   3.265   6.203
 6099POPC   C2B76916  35.887   3.146   6.631
 6099POPC   C3B76917  35.532   3.302   6.853
 6099POPC   C4B76918  35.471   3.308   7.284
 6100POPC   NC376919  25.130   0.012   5.358
 6100POPC   PO476920  25.329  44.410   5.476
 6100POPC   GL176921  25.074  44.525   5.814
 6100POPC   GL276922  25.017  44.887   5.873
 6100POPC   C1A76923  24.961  44.446   6.248
 6100POPC   D2A76924  25.168  44.549   6.638
 6100POPC   C3A76925  24.965  44.617   7.049
 6100POPC   C4A76926  25.180  44.397   7.381
 6100POPC   C1B76927  25.374  44.763   6.188
 6100POPC   C2B76928  25.606  44.856   6.604
 6100POPC   C3B76929  25.488  44.713   7.021
 6100POPC   C4B76930  25.371  44.909   7.389
 6101POPC   NC376931   0.085  25.071   5.371
 6101POPC   PO476932   0.686  25.170   5.453
 6101POPC   GL176933   0.625  25.167   5.877
 6101POPC   GL276934   0.278  25.165   5.853
 6101POPC   C1A76935   0.499  25.374   6.278
 6101POPC   D2A76936   0.333  25.452   6.698
 6101POPC   C3A76937   0.618  25.346   7.059
 6101POPC   C4A76938   0.489  25.212   7.471
 6101POPC   C1B76939   0.026  25.204   6.238
 6101POPC   C2B76940   0.040  24.983   6.610
 6101POPC   C3B76941   0.221  25.021   6.997
 6101POPC   C4B76942   0.220  24.792   7.357
 6102POPC   NC376943  38.185  21.253   5.439
 6102POPC   PO476944  37.495  21.248   5.453
 6102POPC   GL176945  37.726  21.348   5.825
 6102POPC   GL276946  38.001  21.618   5.777
 6102POPC   C1A76947  37.628  21.318   6.290
 6102POPC   D2A76948  37.485  21.155   6.709
 6102POPC   C3A76949  37.512  21.381   7.121
 6102POPC   C4A76950  37.644  21.812   7.268
 6102POPC   C1B76951  38.131  21.337   6.132
 6102POPC   C2B76952  38.085  21.117   6.500
 6102POPC   C3B76953  38.027  21.162   6.920
 6102POPC   C4B76954  38.006  21.435   7.253
 6103POPC   NC376955  33.461   2.593   5.388
 6103POPC   PO476956  32.843   2.784   5.215
 6103POPC   GL176957  33.002   2.744   5.668
 6103POPC   GL276958  32.672   2.811   5.794
 6103POPC   C1A76959  33.155   2.772   6.137
 6103POPC   D2A76960  33.308   2.695   6.584
 6103POPC   C3A76961  33.043   2.623   6.940
 6103POPC   C4A76962  33.096   2.446   7.315
 6103POPC   C1B76963  32.664   2.722   6.253
 6103POPC   C2B76964  32.887   2.982   6.595
 6103POPC   C3B76965  32.969   3.110   7.053
 6103POPC   C4B76966  32.617   2.953   7.305
 6104POPC   NC376967  26.012   0.185   5.294
 6104POPC   PO476968  26.374   0.700   5.540
 6104POPC   GL176969  26.053   0.422   5.763
 6104POPC   GL276970  26.109   0.066   5.797
 6104POPC   C1A76971  25.822   0.367   6.167
 6104POPC   D2A76972  25.764   0.645   6.548
 6104POPC   C3A76973  26.083   0.622   6.869
 6104POPC   C4A76974  26.029   0.638   7.289
 6104POPC   C1B76975  26.282   0.109   6.222
 6104POPC   C2B76976  26.034   0.171   6.601
 6104POPC   C3B76977  25.887   0.166   7.016
 6104POPC   C4B76978  26.235   0.155   7.311
 6105POPC   NC376979   4.713  34.646   5.386
 6105POPC   PO476980   5.414  34.748   5.366
 6105POPC   GL176981   5.202  34.559   5.748
 6105POPC   GL276982   4.973  34.817   5.799
 6105POPC   C1A76983   5.213  34.562   6.231
 6105POPC   D2A76984   5.156  34.364   6.665
 6105POPC   C3A76985   5.230  34.591   7.051
 6105POPC   C4A76986   5.158  34.513   7.486
 6105POPC   C1B76987   4.749  34.825   6.177
 6105POPC   C2B76988   4.766  34.693   6.585
 6105POPC   C3B76989   4.804  34.887   6.974
 6105POPC   C4B76990   4.769  34.821   7.398
 6106POPC   NC376991  38.129  41.753   5.373
 6106POPC   PO476992  37.764  41.132   5.369
 6106POPC   GL176993  37.583  41.456   5.695
 6106POPC   GL276994  37.739  41.771   5.815
 6106POPC   C1A76995  37.579  41.441   6.169
 6106POPC   D2A76996  37.664  41.735   6.510
 6106POPC   C3A76997  37.596  41.520   6.901
 6106POPC   C4A76998  37.720  41.352   7.326
 6106POPC   C1B76999  37.329  41.862   6.092
 6106POPC   C2B77000  37.208  41.980   6.541
 6106POPC   C3B77001  37.369  42.014   6.946
 6106POPC   C4B77002  37.489  41.799   7.298
 6107POPC   NC377003   0.315  36.795   5.224
 6107POPC   PO477004   0.499  37.268   5.713
 6107POPC   GL177005   0.548  36.880   5.916
 6107POPC   GL277006   0.263  36.690   5.843
 6107POPC   C1A77007   0.510  36.655   6.313
 6107POPC   D2A77008   0.486  36.954   6.653
 6107POPC   C3A77009   0.657  36.903   7.054
 6107POPC   C4A77010   0.469  36.890   7.435
 6107POPC   C1B77011   0.148  37.013   6.212
 6107POPC   C2B77012  44.991  37.128   6.607
 6107POPC   C3B77013   0.141  37.100   7.031
 6107POPC   C4B77014   0.014  37.093   7.465
 6108POPC   NC377015  17.996  36.181   5.502
 6108POPC   PO477016  18.575  36.529   5.519
 6108POPC   GL177017  18.398  36.167   5.808
 6108POPC   GL277018  18.029  36.189   6.003
 6108POPC   C1A77019  18.395  35.943   6.225
 6108POPC   D2A77020  18.024  35.956   6.485
 6108POPC   C3A77021  18.087  36.186   6.844
 6108POPC   C4A77022  18.274  35.924   7.171
 6108POPC   C1B77023  17.905  36.469   6.370
 6108POPC   C2B77024  17.770  36.626   6.802
 6108POPC   C3B77025  17.950  36.517   7.222
 6108POPC   C4B77026  17.992  36.173   7.531
 6109POPC   NC377027  35.099   0.563   5.228
 6109POPC   PO477028  34.409   0.648   5.122
 6109POPC   GL177029  34.385   0.601   5.621
 6109POPC   GL277030  34.548   0.289   5.649
 6109POPC   C1A77031  34.468   0.605   6.097
 6109POPC   D2A77032  34.735   0.629   6.464
 6109POPC   C3A77033  34.765   0.465   6.881
 6109POPC   C4A77034  34.516   0.650   7.183
 6109POPC   C1B77035  34.312   0.133   5.990
 6109POPC   C2B77036  34.436   0.167   6.432
 6109POPC   C3B77037  34.250   0.338   6.822
 6109POPC   C4B77038  34.326   0.161   7.244
 6110POPC   NC377039  13.313   9.044   5.404
 6110POPC   PO477040  13.798   8.711   5.415
 6110POPC   GL177041  13.657   8.959   5.767
 6110POPC   GL277042  13.377   8.730   5.834
 6110POPC   C1A77043  13.474   9.097   6.186
 6110POPC   D2A77044  13.212   9.187   6.570
 6110POPC   C3A77045  13.464   9.330   6.927
 6110POPC   C4A77046  13.799   9.211   7.229
 6110POPC   C1B77047  13.733   8.635   6.143
 6110POPC   C2B77048  13.830   8.837   6.530
 6110POPC   C3B77049  13.672   8.806   6.968
 6110POPC   C4B77050  13.753   8.553   7.356
 6111POPC   NC377051  24.063   5.873   5.552
 6111POPC   PO477052  24.571   5.579   5.241
 6111POPC   GL177053  24.549   5.753   5.763
 6111POPC   GL277054  24.540   6.125   5.822
 6111POPC   C1A77055  24.334   5.800   6.236
 6111POPC   D2A77056  24.185   6.058   6.649
 6111POPC   C3A77057  24.327   5.780   6.956
 6111POPC   C4A77058  24.596   5.744   7.271
 6111POPC   C1B77059  24.424   6.287   6.253
 6111POPC   C2B77060  24.667   6.130   6.579
 6111POPC   C3B77061  24.684   6.185   6.992
 6111POPC   C4B77062  24.370   6.205   7.270
 6112POPC   NC377063  38.959  35.908   5.489
 6112POPC   PO477064  39.539  36.186   5.197
 6112POPC   GL177065  39.365  36.311   5.681
 6112POPC   GL277066  39.043  36.224   5.898
 6112POPC   C1A77067  39.409  36.446   6.161
 6112POPC   D2A77068  39.221  36.249   6.527
 6112POPC   C3A77069  39.390  36.141   6.926
 6112POPC   C4A77070  39.206  36.350   7.276
 6112POPC   C1B77071  39.163  35.862   6.180
 6112POPC   C2B77072  39.263  35.749   6.606
 6112POPC   C3B77073  39.026  35.741   6.986
 6112POPC   C4B77074  39.108  35.870   7.400
 6113POPC   NC377075   2.199  30.564   5.564
 6113POPC   PO477076   1.660  30.957   5.475
 6113POPC   GL177077   1.787  30.708   5.836
 6113POPC   GL277078   2.059  30.952   5.921
 6113POPC   C1A77079   1.966  30.572   6.261
 6113POPC   D2A77080   1.806  30.528   6.693
 6113POPC   C3A77081   2.010  30.595   7.119
 6113POPC   C4A77082   1.905  30.398   7.523
 6113POPC   C1B77083   1.675  31.033   6.216
 6113POPC   C2B77084   1.557  30.991   6.660
 6113POPC   C3B77085   1.818  31.100   7.042
 6113POPC   C4B77086   2.263  31.104   7.231
 6114POPC   NC377087  44.571  42.365   5.313
 6114POPC   PO477088  44.618  41.707   5.335
 6114POPC   GL177089  44.662  42.065   5.711
 6114POPC   GL277090  44.438  42.382   5.812
 6114POPC   C1A77091  44.773  42.235   6.153
 6114POPC   D2A77092  44.499  42.398   6.500
 6114POPC   C3A77093  44.527  42.189   6.917
 6114POPC   C4A77094  44.868  42.197   7.212
 6114POPC   C1B77095  44.591  42.728   6.101
 6114POPC   C2B77096  44.637  42.919   6.510
 6114POPC   C3B77097  44.620  42.712   6.900
 6114POPC   C4B77098  44.491  42.541   7.289
 6115POPC   NC377099   2.135   7.190   5.614
 6115POPC   PO477100   2.211   6.550   5.480
 6115POPC   GL177101   2.071   6.443   5.866
 6115POPC   GL277102   2.040   6.789   5.955
 6115POPC   C1A77103   1.854   6.443   6.258
 6115POPC   D2A77104   2.029   6.696   6.580
 6115POPC   C3A77105   2.011   6.490   6.979
 6115POPC   C4A77106   2.045   6.651   7.384
 6115POPC   C1B77107   2.269   7.053   6.236
 6115POPC   C2B77108   2.254   7.231   6.638
 6115POPC   C3B77109   2.244   6.963   6.992
 6115POPC   C4B77110   2.427   7.006   7.392
 6116POPC   NC377111   8.842  39.701   5.542
 6116POPC   PO477112   8.990  40.341   5.303
 6116POPC   GL177113   9.120  40.305   5.796
 6116POPC   GL277114   8.834  40.096   5.873
 6116POPC   C1A77115   8.957  40.365   6.276
 6116POPC   D2A77116   8.741  40.112   6.606
 6116POPC   C3A77117   8.731  40.280   7.049
 6116POPC   C4A77118   9.011  40.075   7.418
 6116POPC   C1B77119   9.044  39.820   6.192
 6116POPC   C2B77120   9.027  39.636   6.594
 6116POPC   C3B77121   8.937  39.794   7.005
 6116POPC   C4B77122   8.890  39.570   7.461
 6117POPC   NC377123  23.125  13.037   5.018
 6117POPC   PO477124  22.661  12.766   5.420
 6117POPC   GL177125  22.834  12.942   5.786
 6117POPC   GL277126  23.209  12.966   5.781
 6117POPC   C1A77127  22.711  13.057   6.215
 6117POPC   D2A77128  22.944  12.986   6.611
 6117POPC   C3A77129  22.878  12.972   7.045
 6117POPC   C4A77130  22.775  12.783   7.439
 6117POPC   C1B77131  23.317  12.802   6.205
 6117POPC   C2B77132  23.449  12.998   6.598
 6117POPC   C3B77133  23.363  13.058   7.004
 6117POPC   C4B77134  23.306  12.759   7.315
 6118POPC   NC377135   6.612   1.489   5.400
 6118POPC   PO477136   6.439   0.846   5.460
 6118POPC   GL177137   6.487   1.162   5.819
 6118POPC   GL277138   6.307   1.505   5.796
 6118POPC   C1A77139   6.849   1.106   6.143
 6118POPC   D2A77140   6.990   0.864   6.533
 6118POPC   C3A77141   6.872   1.016   6.954
 6118POPC   C4A77142   6.950   1.390   7.204
 6118POPC   C1B77143   6.555   1.511   6.194
 6118POPC   C2B77144   6.610   1.251   6.568
 6118POPC   C3B77145   6.466   1.333   6.984
 6118POPC   C4B77146   6.530   1.714   7.215
 6119POPC   NC377147  34.483  43.538   5.446
 6119POPC   PO477148  35.088  43.414   5.642
 6119POPC   GL177149  34.775  43.669   5.842
 6119POPC   GL277150  34.717  44.031   5.755
 6119POPC   C1A77151  34.580  43.534   6.205
 6119POPC   D2A77152  34.345  43.619   6.572
 6119POPC   C3A77153  34.534  43.823   6.926
 6119POPC   C4A77154  34.588  43.650   7.290
 6119POPC   C1B77155  34.420  43.995   6.134
 6119POPC   C2B77156  34.349  44.136   6.547
 6119POPC   C3B77157  34.332  44.291   6.976
 6119POPC   C4B77158  34.561  44.168   7.379
 6120POPC   NC377159  19.237   8.527   5.421
 6120POPC   PO477160  19.368   7.824   5.415
 6120POPC   GL177161  19.224   8.116   5.778
 6120POPC   GL277162  18.987   8.365   5.876
 6120POPC   C1A77163  19.146   8.017   6.227
 6120POPC   D2A77164  19.104   7.729   6.573
 6120POPC   C3A77165  19.073   7.978   6.929
 6120POPC   C4A77166  19.040   7.899   7.348
 6120POPC   C1B77167  19.380   8.488   6.105
 6120POPC   C2B77168  19.671   8.492   6.459
 6120POPC   C3B77169  19.402   8.358   6.791
 6120POPC   C4B77170  19.194   8.430   7.190
 6121POPC   NC377171  12.287   6.105   5.412
 6121POPC   PO477172  11.896   5.539   5.338
 6121POPC   GL177173  11.858   5.602   5.782
 6121POPC   GL277174  11.878   5.964   5.735
 6121POPC   C1A77175  12.121   5.674   6.160
 6121POPC   D2A77176  12.263   5.965   6.513
 6121POPC   C3A77177  12.207   5.896   6.947
 6121POPC   C4A77178  12.047   5.578   7.183
 6121POPC   C1B77179  11.807   6.056   6.167
 6121POPC   C2B77180  11.797   6.125   6.624
 6121POPC   C3B77181  11.706   6.047   7.070
 6121POPC   C4B77182  11.801   6.034   7.514
 6122POPC   NC377183  15.843  26.370   5.281
 6122POPC   PO477184  16.016  25.699   5.325
 6122POPC   GL177185  16.026  25.815   5.770
 6122POPC   GL277186  15.861  26.140   5.750
 6122POPC   C1A77187  15.782  25.780   6.163
 6122POPC   D2A77188  15.942  25.694   6.548
 6122POPC   C3A77189  15.765  25.733   6.931
 6122POPC   C4A77190  15.995  25.678   7.282
 6122POPC   C1B77191  15.748  26.313   6.140
 6122POPC   C2B77192  15.785  26.169   6.549
 6122POPC   C3B77193  16.050  26.138   6.909
 6122POPC   C4B77194  15.768  26.134   7.289
 6123POPC   NC377195  17.226   4.127   5.588
 6123POPC   PO477196  17.863   4.114   5.532
 6123POPC   GL177197  17.619   4.111   5.915
 6123POPC   GL277198  17.523   4.418   5.884
 6123POPC   C1A77199  17.299   4.121   6.301
 6123POPC   D2A77200  17.227   4.031   6.780
 6123POPC   C3A77201  17.125   4.165   7.182
 6123POPC   C4A77202  17.126   4.397   7.591
 6123POPC   C1B77203  17.558   4.547   6.277
 6123POPC   C2B77204  17.630   4.314   6.668
 6123POPC   C3B77205  17.534   4.482   7.097
 6123POPC   C4B77206  17.583   4.636   7.528
 6124POPC   NC377207  12.058  21.017   5.430
 6124POPC   PO477208  11.489  21.244   5.600
 6124POPC   GL177209  11.868  21.233   5.867
 6124POPC   GL277210  12.033  21.565   5.850
 6124POPC   C1A77211  12.135  21.217   6.239
 6124POPC   D2A77212  12.299  21.391   6.634
 6124POPC   C3A77213  12.151  21.369   7.056
 6124POPC   C4A77214  12.354  21.570   7.452
 6124POPC   C1B77215  11.895  21.649   6.315
 6124POPC   C2B77216  11.830  21.733   6.782
 6124POPC   C3B77217  12.034  21.876   7.172
 6124POPC   C4B77218  12.167  22.187   7.504
 6125POPC   NC377219   3.826   5.266   5.022
 6125POPC   PO477220   3.532   4.864   5.469
 6125POPC   GL177221   3.751   5.032   5.873
 6125POPC   GL277222   3.871   5.430   5.866
 6125POPC   C1A77223   3.625   4.852   6.278
 6125POPC   D2A77224   3.364   4.655   6.586
 6125POPC   C3A77225   3.429   4.869   6.927
 6125POPC   C4A77226   3.287   5.007   7.289
 6125POPC   C1B77227   3.588   5.369   6.224
 6125POPC   C2B77228   3.660   5.226   6.636
 6125POPC   C3B77229   3.600   5.345   7.055
 6125POPC   C4B77230   3.765   5.190   7.434
 6126POPC   NC377231  31.769  44.444   5.504
 6126POPC   PO477232  32.462  44.476   5.493
 6126POPC   GL177233  32.145  44.537   5.830
 6126POPC   GL277234  32.061  44.868   5.929
 6126POPC   C1A77235  32.027  44.474   6.261
 6126POPC   D2A77236  32.366  44.406   6.527
 6126POPC   C3A77237  32.413  44.555   6.947
 6126POPC   C4A77238  32.356  44.527   7.377
 6126POPC   C1B77239  32.348  44.886   6.280
 6126POPC   C2B77240  32.134  44.878   6.645
 6126POPC   C3B77241  32.016  44.889   7.044
 6126POPC   C4B77242  32.114  44.949   7.453
 6127POPC   NC377243   4.010  27.574   5.253
 6127POPC   PO477244   4.648  27.804   5.418
 6127POPC   GL177245   4.380  27.503   5.719
 6127POPC   GL277246   4.023  27.304   5.790
 6127POPC   C1A77247   4.441  27.583   6.165
 6127POPC   D2A77248   4.335  27.490   6.573
 6127POPC   C3A77249   4.533  27.605   6.923
 6127POPC   C4A77250   4.539  27.756   7.326
 6127POPC   C1B77251   3.918  27.431   6.279
 6127POPC   C2B77252   3.936  27.772   6.652
 6127POPC   C3B77253   4.047  27.634   7.081
 6127POPC   C4B77254   3.908  27.695   7.504
 6128POPC   NC377255  31.271  19.848   5.429
 6128POPC   PO477256  31.851  20.090   5.393
 6128POPC   GL177257  31.584  20.002   5.811
 6128POPC   GL277258  31.490  19.627   5.864
 6128POPC   C1A77259  31.403  19.950   6.256
 6128POPC   D2A77260  31.585  20.066   6.703
 6128POPC   C3A77261  31.602  19.803   7.094
 6128POPC   C4A77262  31.596  19.681   7.549
 6128POPC   C1B77263  31.253  19.477   6.277
 6128POPC   C2B77264  31.141  19.739   6.667
 6128POPC   C3B77265  31.118  19.635   7.113
 6128POPC   C4B77266  31.254  19.313   7.428
 6129POPC   NC377267  43.743  38.470   5.435
 6129POPC   PO477268  44.269  38.837   5.298
 6129POPC   GL177269  44.061  38.674   5.764
 6129POPC   GL277270  44.061  38.285   5.788
 6129POPC   C1A77271  43.818  38.650   6.210
 6129POPC   D2A77272  43.632  38.689   6.671
 6129POPC   C3A77273  43.931  38.708   7.046
 6129POPC   C4A77274  43.793  38.682   7.513
 6129POPC   C1B77275  43.962  38.108   6.187
 6129POPC   C2B77276  43.654  38.203   6.491
 6129POPC   C3B77277  43.747  38.211   6.925
 6129POPC   C4B77278  44.132  38.101   7.116
 6130POPC   NC377279  39.127   7.807   5.574
 6130POPC   PO477280  39.219   7.189   5.399
 6130POPC   GL177281  39.323   7.376   5.784
 6130POPC   GL277282  38.980   7.354   5.844
 6130POPC   C1A77283  39.364   7.264   6.216
 6130POPC   D2A77284  39.328   7.041   6.608
 6130POPC   C3A77285  39.401   7.234   7.014
 6130POPC   C4A77286  39.237   7.213   7.429
 6130POPC   C1B77287  38.916   7.497   6.261
 6130POPC   C2B77288  39.090   7.503   6.682
 6130POPC   C3B77289  38.914   7.454   7.103
 6130POPC   C4B77290  38.835   7.494   7.588
 6131POPC   NC377291  12.909  21.688   5.375
 6131POPC   PO477292  12.334  21.391   5.423
 6131POPC   GL177293  12.480  21.275   5.837
 6131POPC   GL277294  12.832  21.417   5.849
 6131POPC   C1A77295  12.644  21.166   6.264
 6131POPC   D2A77296  12.816  21.266   6.680
 6131POPC   C3A77297  12.622  21.164   7.077
 6131POPC   C4A77298  12.723  21.182   7.520
 6131POPC   C1B77299  12.933  21.619   6.272
 6131POPC   C2B77300  13.115  21.682   6.698
 6131POPC   C3B77301  13.018  21.527   7.129
 6131POPC   C4B77302  13.108  21.655   7.567
 6132POPC   NC377303   2.572  29.901   5.069
 6132POPC   PO477304   3.030  29.702   5.475
 6132POPC   GL177305   2.730  29.784   5.817
 6132POPC   GL277306   2.904  30.039   5.962
 6132POPC   C1A77307   2.505  29.779   6.236
 6132POPC   D2A77308   2.395  29.691   6.666
 6132POPC   C3A77309   2.503  29.972   7.026
 6132POPC   C4A77310   2.732  29.874   7.430
 6132POPC   C1B77311   3.020  29.854   6.267
 6132POPC   C2B77312   2.838  29.988   6.626
 6132POPC   C3B77313   3.015  29.929   7.010
 6132POPC   C4B77314   3.154  30.233   7.309
 6133POPC   NC377315  17.127  39.475   5.472
 6133POPC   PO477316  17.637  38.923   5.434
 6133POPC   GL177317  17.508  39.142   5.769
 6133POPC   GL277318  17.150  39.052   5.776
 6133POPC   C1A77319  17.685  39.208   6.188
 6133POPC   D2A77320  17.823  38.973   6.564
 6133POPC   C3A77321  17.741  39.102   6.990
 6133POPC   C4A77322  17.441  39.069   7.290
 6133POPC   C1B77323  17.175  39.301   6.144
 6133POPC   C2B77324  17.311  39.188   6.561
 6133POPC   C3B77325  17.284  39.378   6.937
 6133POPC   C4B77326  17.036  39.390   7.327
 6134POPC   NC377327   5.351  35.223   5.252
 6134POPC   PO477328   4.688  35.114   5.260
 6134POPC   GL177329   4.896  35.307   5.693
 6134POPC   GL277330   5.246  35.404   5.720
 6134POPC   C1A77331   5.115  35.163   6.162
 6134POPC   D2A77332   5.210  34.939   6.595
 6134POPC   C3A77333   5.242  35.124   7.025
 6134POPC   C4A77334   5.231  35.039   7.481
 6134POPC   C1B77335   5.064  35.656   6.078
 6134POPC   C2B77336   4.833  35.717   6.455
 6134POPC   C3B77337   4.994  35.559   6.845
 6134POPC   C4B77338   5.057  35.751   7.222
 6135POPC   NC377339   0.565  42.399   5.208
 6135POPC   PO477340  44.992  42.065   5.296
 6135POPC   GL177341   0.162  42.323   5.676
 6135POPC   GL277342   0.512  42.491   5.704
 6135POPC   C1A77343   0.225  42.492   6.122
 6135POPC   D2A77344  44.999  42.565   6.528
 6135POPC   C3A77345   0.220  42.390   6.883
 6135POPC   C4A77346   0.386  42.255   7.284
 6135POPC   C1B77347   0.755  42.545   6.101
 6135POPC   C2B77348   0.852  42.325   6.469
 6135POPC   C3B77349   0.740  42.320   6.890
 6135POPC   C4B77350   0.816  42.520   7.265
 6136POPC   NC377351  32.487   4.829   5.282
 6136POPC   PO477352  32.351   4.256   5.539
 6136POPC   GL177353  32.239   4.330   5.936
 6136POPC   GL277354  31.889   4.246   5.994
 6136POPC   C1A77355  32.542   4.390   6.263
 6136POPC   D2A77356  32.667   4.354   6.701
 6136POPC   C3A77357  32.308   4.390   7.006
 6136POPC   C4A77358  32.336   4.526   7.445
 6136POPC   C1B77359  32.031   3.954   6.244
 6136POPC   C2B77360  32.216   4.096   6.581
 6136POPC   C3B77361  32.108   3.897   6.948
 6136POPC   C4B77362  32.027   4.112   7.345
 6137POPC   NC377363  13.236  28.836   5.644
 6137POPC   PO477364  12.764  29.265   5.396
 6137POPC   GL177365  12.867  29.129   5.829
 6137POPC   GL277366  12.763  28.774   5.846
 6137POPC   C1A77367  12.945  29.203   6.269
 6137POPC   D2A77368  12.897  29.535   6.558
 6137POPC   C3A77369  12.970  29.330   6.910
 6137POPC   C4A77370  12.854  29.483   7.255
 6137POPC   C1B77371  12.577  28.854   6.230
 6137POPC   C2B77372  12.676  28.936   6.652
 6137POPC   C3B77373  12.565  29.050   7.075
 6137POPC   C4B77374  12.957  28.892   7.222
 6138POPC   NC377375   5.800   9.276   5.627
 6138POPC   PO477376   5.756   9.915   5.560
 6138POPC   GL177377   6.102   9.868   5.885
 6138POPC   GL277378   6.237   9.503   5.873
 6138POPC   C1A77379   6.068  10.066   6.297
 6138POPC   D2A77380   5.761   9.916   6.613
 6138POPC   C3A77381   5.783   9.800   7.030
 6138POPC   C4A77382   5.628   9.467   7.283
 6138POPC   C1B77383   5.989   9.527   6.273
 6138POPC   C2B77384   5.850   9.401   6.688
 6138POPC   C3B77385   6.105   9.398   7.047
 6138POPC   C4B77386   6.073   9.225   7.452
 6139POPC   NC377387  11.979  38.217   5.467
 6139POPC   PO477388  12.422  37.743   5.176
 6139POPC   GL177389  12.430  37.938   5.648
 6139POPC   GL277390  12.098  37.854   5.789
 6139POPC   C1A77391  12.389  37.868   6.177
 6139POPC   D2A77392  12.376  37.955   6.633
 6139POPC   C3A77393  12.303  37.653   6.956
 6139POPC   C4A77394  12.037  37.512   7.296
 6139POPC   C1B77395  11.864  38.000   6.119
 6139POPC   C2B77396  11.856  38.067   6.568
 6139POPC   C3B77397  11.844  37.881   6.955
 6139POPC   C4B77398  11.577  37.984   7.293
 6140POPC   NC377399  29.496  41.768   5.197
 6140POPC   PO477400  28.993  41.393   5.370
 6140POPC   GL177401  29.144  41.359   5.761
 6140POPC   GL277402  29.016  41.649   5.890
 6140POPC   C1A77403  29.200  41.309   6.204
 6140POPC   D2A77404  29.072  41.539   6.535
 6140POPC   C3A77405  29.303  41.372   6.864
 6140POPC   C4A77406  29.176  41.485   7.232
 6140POPC   C1B77407  28.796  41.927   6.144
 6140POPC   C2B77408  28.689  41.946   6.582
 6140POPC   C3B77409  28.966  41.875   6.936
 6140POPC   C4B77410  29.027  41.955   7.382
 6141POPC   NC377411  38.015   9.652   5.524
 6141POPC   PO477412  38.682   9.669   5.357
 6141POPC   GL177413  38.505   9.758   5.773
 6141POPC   GL277414  38.395   9.434   5.758
 6141POPC   C1A77415  38.683   9.891   6.206
 6141POPC   D2A77416  38.793   9.689   6.626
 6141POPC   C3A77417  38.668   9.852   7.053
 6141POPC   C4A77418  38.303   9.821   7.310
 6141POPC   C1B77419  38.559   9.402   6.150
 6141POPC   C2B77420  38.458   9.234   6.540
 6141POPC   C3B77421  38.467   9.390   6.945
 6141POPC   C4B77422  38.606   9.370   7.330
 6142POPC   NC377423  38.681  12.416   5.383
 6142POPC   PO477424  38.364  11.938   5.013
 6142POPC   GL177425  38.456  11.944   5.533
 6142POPC   GL277426  38.779  11.759   5.722
 6142POPC   C1A77427  38.487  12.103   6.001
 6142POPC   D2A77428  38.289  12.208   6.438
 6142POPC   C3A77429  38.402  12.170   6.876
 6142POPC   C4A77430  38.463  11.805   7.182
 6142POPC   C1B77431  38.884  11.737   6.193
 6142POPC   C2B77432  38.724  11.882   6.627
 6142POPC   C3B77433  38.854  12.111   7.076
 6142POPC   C4B77434  38.528  12.270   7.388
 6143POPC   NC377435  44.812  25.943   5.379
 6143POPC   PO477436  44.512  26.508   5.486
 6143POPC   GL177437  44.495  26.281   5.851
 6143POPC   GL277438  44.653  25.925   5.852
 6143POPC   C1A77439  44.680  26.287   6.259
 6143POPC   D2A77440  44.822  26.457   6.641
 6143POPC   C3A77441  44.563  26.307   6.989
 6143POPC   C4A77442  44.637  26.157   7.391
 6143POPC   C1B77443  44.859  25.812   6.243
 6143POPC   C2B77444  44.692  25.930   6.660
 6143POPC   C3B77445  44.891  25.851   7.059
 6143POPC   C4B77446   0.116  25.497   7.247
 6144POPC   NC377447  36.926  39.651   5.523
 6144POPC   PO477448  36.776  40.260   5.330
 6144POPC   GL177449  36.668  40.063   5.723
 6144POPC   GL277450  36.989  40.049   5.826
 6144POPC   C1A77451  36.655  39.769   6.116
 6144POPC   D2A77452  36.895  39.675   6.520
 6144POPC   C3A77453  36.753  39.793   6.943
 6144POPC   C4A77454  36.767  40.229   7.154
 6144POPC   C1B77455  36.918  40.193   6.250
 6144POPC   C2B77456  37.000  40.192   6.690
 6144POPC   C3B77457  37.317  40.395   6.948
 6144POPC   C4B77458  37.496  40.304   7.313
 6145POPC   NC377459  28.616   7.778   5.510
 6145POPC   PO477460  29.134   7.367   5.282
 6145POPC   GL177461  29.136   7.496   5.729
 6145POPC   GL277462  28.860   7.522   5.912
 6145POPC   C1A77463  29.312   7.418   6.139
 6145POPC   D2A77464  29.145   7.432   6.570
 6145POPC   C3A77465  29.042   7.378   7.010
 6145POPC   C4A77466  29.296   7.234   7.347
 6145POPC   C1B77467  28.684   7.591   6.294
 6145POPC   C2B77468  28.801   7.796   6.664
 6145POPC   C3B77469  28.624   7.679   7.033
 6145POPC   C4B77470  28.760   7.580   7.413
 6146POPC   NC377471  32.225  37.117   5.371
 6146POPC   PO477472  32.070  36.444   5.361
 6146POPC   GL177473  32.174  36.714   5.743
 6146POPC   GL277474  32.420  37.027   5.824
 6146POPC   C1A77475  32.157  36.581   6.160
 6146POPC   D2A77476  32.315  36.585   6.592
 6146POPC   C3A77477  32.078  36.736   6.959
 6146POPC   C4A77478  32.167  36.625   7.350
 6146POPC   C1B77479  32.260  37.085   6.227
 6146POPC   C2B77480  32.172  37.113   6.645
 6146POPC   C3B77481  32.145  37.251   7.058
 6146POPC   C4B77482  32.310  37.166   7.442
 6147POPC   NC377483   3.075   8.388   5.388
 6147POPC   PO477484   2.574   7.926   5.190
 6147POPC   GL177485   2.806   8.039   5.657
 6147POPC   GL277486   2.893   8.355   5.856
 6147POPC   C1A77487   2.840   7.922   6.109
 6147POPC   D2A77488   3.043   7.945   6.536
 6147POPC   C3A77489   2.730   8.032   6.871
 6147POPC   C4A77490   2.714   8.002   7.318
 6147POPC   C1B77491   2.891   8.410   6.294
 6147POPC   C2B77492   2.692   8.513   6.690
 6147POPC   C3B77493   2.857   8.486   7.130
 6147POPC   C4B77494   2.928   8.734   7.514
 6148POPC   NC377495  35.733  26.625   5.468
 6148POPC   PO477496  35.128  26.817   5.381
 6148POPC   GL177497  35.300  26.777   5.815
 6148POPC   GL277498  35.638  26.735   5.949
 6148POPC   C1A77499  35.206  26.668   6.245
 6148POPC   D2A77500  35.300  26.906   6.597
 6148POPC   C3A77501  35.224  26.728   6.951
 6148POPC   C4A77502  35.133  26.904   7.310
 6148POPC   C1B77503  35.652  27.038   6.263
 6148POPC   C2B77504  35.807  27.083   6.706
 6148POPC   C3B77505  35.539  27.105   7.075
 6148POPC   C4B77506  35.548  27.062   7.555
 6149POPC   NC377507  33.754  41.863   5.087
 6149POPC   PO477508  34.272  42.232   5.344
 6149POPC   GL177509  34.061  42.389   5.780
 6149POPC   GL277510  33.758  42.299   5.853
 6149POPC   C1A77511  34.115  42.324   6.225
 6149POPC   D2A77512  33.916  42.036   6.491
 6149POPC   C3A77513  33.929  42.227   6.884
 6149POPC   C4A77514  33.715  42.281   7.229
 6149POPC   C1B77515  33.524  42.498   6.172
 6149POPC   C2B77516  33.502  42.331   6.582
 6149POPC   C3B77517  33.335  42.473   6.954
 6149POPC   C4B77518  33.527  42.742   7.216
 6150POPC   NC377519  42.512  29.775   5.650
 6150POPC   PO477520  41.978  30.153   5.362
 6150POPC   GL177521  42.181  30.193   5.785
 6150POPC   GL277522  42.143  29.864   5.980
 6150POPC   C1A77523  42.473  30.198   6.162
 6150POPC   D2A77524  42.394  29.918   6.486
 6150POPC   C3A77525  42.492  30.040   6.881
 6150POPC   C4A77526  42.605  29.738   7.188
 6150POPC   C1B77527  41.903  29.966   6.334
 6150POPC   C2B77528  41.936  30.046   6.777
 6150POPC   C3B77529  42.097  29.822   7.138
 6150POPC   C4B77530  42.038  29.886   7.578
 6151POPC   NC377531  13.105  43.600   5.039
 6151POPC   PO477532  12.681  44.046   5.423
 6151POPC   GL177533  12.781  43.814   5.787
 6151POPC   GL277534  12.540  43.543   5.850
 6151POPC   C1A77535  12.751  43.962   6.221
 6151POPC   D2A77536  13.012  44.076   6.561
 6151POPC   C3A77537  12.964  43.899   6.924
 6151POPC   C4A77538  12.582  43.893   7.114
 6151POPC   C1B77539  12.418  43.558   6.269
 6151POPC   C2B77540  12.577  43.525   6.713
 6151POPC   C3B77541  12.334  43.441   7.093
 6151POPC   C4B77542  12.323  43.357   7.562
 6152POPC   NC377543  14.077  12.709   5.425
 6152POPC   PO477544  13.382  12.722   5.434
 6152POPC   GL177545  13.569  12.700   5.815
 6152POPC   GL277546  13.830  12.943   5.822
 6152POPC   C1A77547  13.453  12.889   6.189
 6152POPC   D2A77548  13.393  13.210   6.494
 6152POPC   C3A77549  13.187  13.034   6.810
 6152POPC   C4A77550  13.400  12.862   7.150
 6152POPC   C1B77551  13.957  12.726   6.191
 6152POPC   C2B77552  13.780  12.814   6.586
 6152POPC   C3B77553  13.905  12.768   7.004
 6152POPC   C4B77554  14.004  13.122   7.210
 6153POPC   NC377555  22.460  23.801   5.526
 6153POPC   PO477556  21.933  23.393   5.337
 6153POPC   GL177557  22.066  23.538   5.725
 6153POPC   GL277558  21.769  23.538   5.899
 6153POPC   C1A77559  22.231  23.400   6.130
 6153POPC   D2A77560  21.993  23.352   6.512
 6153POPC   C3A77561  22.209  23.326   6.881
 6153POPC   C4A77562  22.186  23.531   7.246
 6153POPC   C1B77563  21.899  23.807   6.275
 6153POPC   C2B77564  21.941  23.810   6.747
 6153POPC   C3B77565  22.180  24.000   7.055
 6153POPC   C4B77566  22.096  23.973   7.510
 6154POPC   NC377567   0.775  17.302   5.300
 6154POPC   PO477568   0.171  17.522   5.109
 6154POPC   GL177569   0.400  17.525   5.604
 6154POPC   GL277570   0.601  17.248   5.807
 6154POPC   C1A77571   0.611  17.721   6.032
 6154POPC   D2A77572   0.819  17.628   6.471
 6154POPC   C3A77573   0.587  17.594   6.880
 6154POPC   C4A77574   0.631  17.448   7.307
 6154POPC   C1B77575   0.246  17.380   6.131
 6154POPC   C2B77576   0.110  17.451   6.592
 6154POPC   C3B77577   0.131  17.291   7.040
 6154POPC   C4B77578   0.076  17.370   7.508
 6155POPC   NC377579  20.309  35.721   5.469
 6155POPC   PO477580  20.743  35.176   5.418
 6155POPC   GL177581  20.619  35.405   5.787
 6155POPC   GL277582  20.260  35.380   5.833
 6155POPC   C1A77583  20.562  35.354   6.246
 6155POPC   D2A77584  20.773  35.470   6.612
 6155POPC   C3A77585  20.520  35.423   6.983
 6155POPC   C4A77586  20.485  35.293   7.427
 6155POPC   C1B77587  20.188  35.694   6.165
 6155POPC   C2B77588  20.318  35.714   6.571
 6155POPC   C3B77589  20.214  35.841   6.949
 6155POPC   C4B77590  20.120  35.597   7.287
 6156POPC   NC377591   3.280   9.837   5.326
 6156POPC   PO477592   3.949   9.632   5.501
 6156POPC   GL177593   3.673   9.821   5.745
 6156POPC   GL277594   3.429   9.573   5.737
 6156POPC   C1A77595   3.735   9.945   6.153
 6156POPC   D2A77596   3.931   9.814   6.526
 6156POPC   C3A77597   3.716   9.880   6.923
 6156POPC   C4A77598   3.852   9.825   7.346
 6156POPC   C1B77599   3.249   9.849   6.042
 6156POPC   C2B77600   3.327   9.907   6.480
 6156POPC   C3B77601   3.198   9.957   6.881
 6156POPC   C4B77602   3.333  10.017   7.294
 6157POPC   NC377603  11.294  31.658   5.203
 6157POPC   PO477604  10.882  31.245   5.517
 6157POPC   GL177605  11.105  31.520   5.798
 6157POPC   GL277606  11.392  31.752   5.756
 6157POPC   C1A77607  11.223  31.347   6.212
 6157POPC   D2A77608  11.278  31.547   6.599
 6157POPC   C3A77609  11.078  31.404   6.955
 6157POPC   C4A77610  11.350  31.232   7.219
 6157POPC   C1B77611  11.171  31.861   6.178
 6157POPC   C2B77612  10.932  31.918   6.566
 6157POPC   C3B77613  11.172  31.907   6.975
 6157POPC   C4B77614  11.199  31.687   7.409
 6158POPC   NC377615  29.577  35.628   5.541
 6158POPC   PO477616  28.956  35.547   5.438
 6158POPC   GL177617  28.850  35.690   5.819
 6158POPC   GL277618  29.199  35.654   5.904
 6158POPC   C1A77619  28.840  35.514   6.236
 6158POPC   D2A77620  29.151  35.329   6.518
 6158POPC   C3A77621  29.090  35.571   6.874
 6158POPC   C4A77622  28.822  35.455   7.188
 6158POPC   C1B77623  29.541  35.545   6.210
 6158POPC   C2B77624  29.545  35.687   6.621
 6158POPC   C3B77625  29.574  35.460   7.001
 6158POPC   C4B77626  29.349  35.399   7.358
 6159POPC   NC377627   4.721  39.657   5.312
 6159POPC   PO477628   4.282  39.016   5.376
 6159POPC   GL177629   4.384  39.230   5.754
 6159POPC   GL277630   4.103  39.248   5.893
 6159POPC   C1A77631   4.510  39.496   6.143
 6159POPC   D2A77632   4.384  39.294   6.540
 6159POPC   C3A77633   4.584  39.362   6.928
 6159POPC   C4A77634   4.633  39.295   7.372
 6159POPC   C1B77635   3.906  39.057   6.236
 6159POPC   C2B77636   4.014  38.928   6.641
 6159POPC   C3B77637   3.925  39.056   7.056
 6159POPC   C4B77638   4.139  39.355   7.257
 6160POPC   NC377639  23.786  25.152   5.463
 6160POPC   PO477640  23.296  25.617   5.437
 6160POPC   GL177641  23.463  25.380   5.832
 6160POPC   GL277642  23.480  24.993   5.850
 6160POPC   C1A77643  23.686  25.481   6.244
 6160POPC   D2A77644  23.585  25.645   6.671
 6160POPC   C3A77645  23.928  25.537   6.956
 6160POPC   C4A77646  23.882  25.337   7.324
 6160POPC   C1B77647  23.674  24.968   6.274
 6160POPC   C2B77648  23.736  25.135   6.693
 6160POPC   C3B77649  23.691  24.906   7.081
 6160POPC   C4B77650  23.951  24.586   7.217
 6161POPC   NC377651  23.876   6.507   5.277
 6161POPC   PO477652  23.364   6.920   5.325
 6161POPC   GL177653  23.482   6.613   5.650
 6161POPC   GL277654  23.819   6.699   5.747
 6161POPC   C1A77655  23.476   6.500   6.113
 6161POPC   D2A77656  23.309   6.636   6.541
 6161POPC   C3A77657  23.506   6.450   6.919
 6161POPC   C4A77658  23.917   6.264   7.039
 6161POPC   C1B77659  24.003   6.580   6.150
 6161POPC   C2B77660  23.901   6.567   6.589
 6161POPC   C3B77661  23.920   6.782   6.991
 6161POPC   C4B77662  23.970   6.996   7.362
 6162POPC   NC377663  15.768  32.689   5.640
 6162POPC   PO477664  16.234  33.076   5.302
 6162POPC   GL177665  16.067  33.116   5.755
 6162POPC   GL277666  16.195  32.825   5.912
 6162POPC   C1A77667  15.839  33.026   6.193
 6162POPC   D2A77668  15.988  32.928   6.620
 6162POPC   C3A77669  16.090  33.176   6.957
 6162POPC   C4A77670  15.996  33.083   7.410
 6162POPC   C1B77671  16.345  33.147   6.247
 6162POPC   C2B77672  16.507  33.040   6.666
 6162POPC   C3B77673  16.354  32.667   6.859
 6162POPC   C4B77674  16.094  32.633   7.205
 6163POPC   NC377675  14.205  40.709   5.604
 6163POPC   PO477676  14.781  40.605   5.243
 6163POPC   GL177677  14.796  40.820   5.696
 6163POPC   GL277678  14.574  41.108   5.787
 6163POPC   C1A77679  14.775  40.772   6.184
 6163POPC   D2A77680  14.427  40.626   6.509
 6163POPC   C3A77681  14.379  40.818   6.924
 6163POPC   C4A77682  14.100  40.747   7.266
 6163POPC   C1B77683  14.275  41.012   6.169
 6163POPC   C2B77684  14.064  41.035   6.586
 6163POPC   C3B77685  14.045  41.195   7.029
 6163POPC   C4B77686  13.905  41.168   7.485
 6164POPC   NC377687  44.377  11.533   5.454
 6164POPC   PO477688  43.777  11.300   5.144
 6164POPC   GL177689  43.892  11.283   5.595
 6164POPC   GL277690  44.020  11.556   5.810
 6164POPC   C1A77691  43.760  11.151   6.024
 6164POPC   D2A77692  43.831  11.170   6.459
 6164POPC   C3A77693  43.687  10.901   6.781
 6164POPC   C4A77694  43.672  10.962   7.245
 6164POPC   C1B77695  44.206  11.445   6.232
 6164POPC   C2B77696  44.021  11.593   6.667
 6164POPC   C3B77697  43.905  11.546   7.132
 6164POPC   C4B77698  44.214  11.669   7.488
 6165POPC   NC377699  23.157  41.658   5.092
 6165POPC   PO477700  23.346  41.092   5.314
 6165POPC   GL177701  23.023  41.241   5.620
 6165POPC   GL277702  22.801  41.567   5.602
 6165POPC   C1A77703  22.937  41.369   6.072
 6165POPC   D2A77704  23.175  41.351   6.473
 6165POPC   C3A77705  23.002  41.211   6.861
 6165POPC   C4A77706  22.797  41.384   7.212
 6165POPC   C1B77707  22.870  41.876   5.967
 6165POPC   C2B77708  22.985  41.861   6.421
 6165POPC   C3B77709  22.981  41.759   6.882
 6165POPC   C4B77710  22.791  41.892   7.289
 6166POPC   NC377711  14.221  35.415   5.408
 6166POPC   PO477712  14.687  35.001   5.612
 6166POPC   GL177713  14.378  35.265   5.863
 6166POPC   GL277714  14.005  35.180   5.827
 6166POPC   C1A77715  14.437  35.607   6.172
 6166POPC   D2A77716  14.623  35.578   6.585
 6166POPC   C3A77717  14.580  35.675   7.009
 6166POPC   C4A77718  14.643  35.559   7.445
 6166POPC   C1B77719  13.995  35.345   6.233
 6166POPC   C2B77720  14.091  35.571   6.560
 6166POPC   C3B77721  14.085  35.390   6.921
 6166POPC   C4B77722  14.157  35.566   7.294
 6167POPC   NC377723  18.457   4.950   5.209
 6167POPC   PO477724  17.891   5.086   5.383
 6167POPC   GL177725  18.211   5.115   5.730
 6167POPC   GL277726  18.471   4.855   5.710
 6167POPC   C1A77727  18.232   5.268   6.187
 6167POPC   D2A77728  18.226   5.095   6.627
 6167POPC   C3A77729  18.382   5.262   7.026
 6167POPC   C4A77730  18.312   5.477   7.421
 6167POPC   C1B77731  18.607   4.892   6.132
 6167POPC   C2B77732  18.681   4.809   6.571
 6167POPC   C3B77733  18.444   4.736   6.938
 6167POPC   C4B77734  18.584   4.867   7.330
 6168POPC   NC377735   2.953  31.131   5.497
 6168POPC   PO477736   2.560  31.683   5.339
 6168POPC   GL177737   2.789  31.599   5.706
 6168POPC   GL277738   2.535  31.371   5.835
 6168POPC   C1A77739   2.997  31.454   6.092
 6168POPC   D2A77740   3.177  31.461   6.505
 6168POPC   C3A77741   2.906  31.420   6.851
 6168POPC   C4A77742   2.714  31.343   7.238
 6168POPC   C1B77743   2.558  31.739   6.138
 6168POPC   C2B77744   2.534  31.843   6.580
 6168POPC   C3B77745   2.376  31.572   6.912
 6168POPC   C4B77746   2.290  31.610   7.340
 6169POPC   NC377747  26.610  27.464   5.584
 6169POPC   PO477748  26.977  27.940   5.518
 6169POPC   GL177749  26.921  27.731   5.896
 6169POPC   GL277750  27.071  27.404   5.823
 6169POPC   C1A77751  26.746  27.531   6.276
 6169POPC   D2A77752  26.516  27.649   6.651
 6169POPC   C3A77753  26.761  27.951   6.873
 6169POPC   C4A77754  26.937  27.756   7.222
 6169POPC   C1B77755  26.944  27.090   6.125
 6169POPC   C2B77756  27.011  27.170   6.582
 6169POPC   C3B77757  26.791  27.295   6.964
 6169POPC   C4B77758  26.868  27.187   7.394
 6170POPC   NC377759  13.327  27.250   5.341
 6170POPC   PO477760  13.861  26.752   5.286
 6170POPC   GL177761  13.667  26.704   5.720
 6170POPC   GL277762  13.349  26.558   5.803
 6170POPC   C1A77763  13.576  26.813   6.179
 6170POPC   D2A77764  13.682  27.015   6.579
 6170POPC   C3A77765  13.584  26.783   6.957
 6170POPC   C4A77766  13.778  26.870   7.347
 6170POPC   C1B77767  13.367  26.351   6.220
 6170POPC   C2B77768  13.222  26.347   6.667
 6170POPC   C3B77769  13.235  26.422   7.114
 6170POPC   C4B77770  13.355  26.637   7.519
 6171POPC   NC377771  12.516  36.993   5.575
 6171POPC   PO477772  13.146  37.097   5.417
 6171POPC   GL177773  12.962  37.032   5.817
 6171POPC   GL277774  12.947  36.722   5.880
 6171POPC   C1A77775  12.765  37.127   6.215
 6171POPC   D2A77776  12.535  37.321   6.573
 6171POPC   C3A77777  12.687  37.102   6.940
 6171POPC   C4A77778  12.997  37.210   7.256
 6171POPC   C1B77779  12.687  36.562   6.195
 6171POPC   C2B77780  12.549  36.634   6.617
 6171POPC   C3B77781  12.806  36.493   6.922
 6171POPC   C4B77782  12.899  36.719   7.223
 6172POPC   NC377783  24.595  28.184   5.590
 6172POPC   PO477784  25.218  28.124   5.190
 6172POPC   GL177785  25.124  28.308   5.662
 6172POPC   GL277786  24.847  28.588   5.749
 6172POPC   C1A77787  25.302  28.485   6.098
 6172POPC   D2A77788  25.490  28.639   6.529
 6172POPC   C3A77789  25.465  28.450   6.978
 6172POPC   C4A77790  25.559  28.362   7.439
 6172POPC   C1B77791  24.799  28.636   6.204
 6172POPC   C2B77792  25.000  28.472   6.585
 6172POPC   C3B77793  24.960  28.386   7.017
 6172POPC   C4B77794  25.104  28.562   7.392
 6173POPC   NC377795  17.497  12.954   5.262
 6173POPC   PO477796  17.782  12.416   5.167
 6173POPC   GL177797  17.573  12.578   5.625
 6173POPC   GL277798  17.464  12.960   5.758
 6173POPC   C1A77799  17.496  12.580   6.106
 6173POPC   D2A77800  17.269  12.700   6.504
 6173POPC   C3A77801  17.407  12.579   6.943
 6173POPC   C4A77802  17.503  12.651   7.408
 6173POPC   C1B77803  17.453  13.093   6.205
 6173POPC   C2B77804  17.607  13.067   6.655
 6173POPC   C3B77805  17.668  13.039   7.106
 6173POPC   C4B77806  17.580  13.191   7.526
 6174POPC   NC377807  15.489  12.789   5.484
 6174POPC   PO477808  16.120  12.993   5.485
 6174POPC   GL177809  15.993  12.898   5.876
 6174POPC   GL277810  15.675  12.734   5.929
 6174POPC   C1A77811  15.854  13.019   6.273
 6174POPC   D2A77812  15.720  12.871   6.620
 6174POPC   C3A77813  16.073  12.791   6.845
 6174POPC   C4A77814  15.995  12.941   7.230
 6174POPC   C1B77815  15.635  12.487   6.290
 6174POPC   C2B77816  15.816  12.352   6.685
 6174POPC   C3B77817  15.631  12.429   7.099
 6174POPC   C4B77818  15.728  12.568   7.547
 6175POPC   NC377819   4.956  29.052   5.388
 6175POPC   PO477820   5.364  29.519   5.310
 6175POPC   GL177821   5.217  29.322   5.757
 6175POPC   GL277822   5.089  28.959   5.854
 6175POPC   C1A77823   5.309  29.192   6.212
 6175POPC   D2A77824   5.170  28.867   6.550
 6175POPC   C3A77825   5.144  29.011   6.959
 6175POPC   C4A77826   5.392  29.239   7.225
 6175POPC   C1B77827   4.821  28.893   6.181
 6175POPC   C2B77828   4.655  28.985   6.567
 6175POPC   C3B77829   4.650  28.927   7.003
 6175POPC   C4B77830   4.827  29.039   7.395
 6176POPC   NC377831  12.307  13.748   5.493
 6176POPC   PO477832  11.664  14.010   5.564
 6176POPC   GL177833  12.007  13.918   5.877
 6176POPC   GL277834  12.055  13.554   5.911
 6176POPC   C1A77835  12.193  13.844   6.307
 6176POPC   D2A77836  12.030  13.699   6.708
 6176POPC   C3A77837  11.826  13.859   7.060
 6176POPC   C4A77838  12.091  13.894   7.397
 6176POPC   C1B77839  12.014  13.343   6.314
 6176POPC   C2B77840  12.165  13.217   6.730
 6176POPC   C3B77841  12.207  13.434   7.149
 6176POPC   C4B77842  12.129  13.434   7.609
 6177POPC   NC377843   1.454  21.757   5.373
 6177POPC   PO477844   1.180  22.308   5.362
 6177POPC   GL177845   1.275  22.118   5.764
 6177POPC   GL277846   0.921  22.044   5.850
 6177POPC   C1A77847   1.428  21.909   6.161
 6177POPC   D2A77848   1.304  21.686   6.540
 6177POPC   C3A77849   1.273  21.902   6.918
 6177POPC   C4A77850   1.017  21.821   7.249
 6177POPC   C1B77851   1.062  22.294   6.211
 6177POPC   C2B77852   1.315  22.270   6.576
 6177POPC   C3B77853   1.225  22.401   7.011
 6177POPC   C4B77854   1.245  22.653   7.400
 6178POPC   NC377855   3.000   3.902   5.454
 6178POPC   PO477856   2.775   3.329   5.169
 6178POPC   GL177857   2.776   3.488   5.671
 6178POPC   GL277858   3.021   3.369   5.905
 6178POPC   C1A77859   2.676   3.643   6.166
 6178POPC   D2A77860   2.489   3.576   6.617
 6178POPC   C3A77861   2.548   3.807   7.048
 6178POPC   C4A77862   2.625   3.856   7.577
 6178POPC   C1B77863   3.146   3.479   6.314
 6178POPC   C2B77864   2.960   3.373   6.725
 6178POPC   C3B77865   2.638   3.287   7.026
 6178POPC   C4B77866   2.847   3.495   7.334
 6179POPC   NC377867  32.572  38.721   5.634
 6179POPC   PO477868  32.046  39.111   5.422
 6179POPC   GL177869  32.069  39.151   5.856
 6179POPC   GL277870  32.037  38.777   5.851
 6179POPC   C1A77871  32.282  39.321   6.248
 6179POPC   D2A77872  32.528  39.393   6.647
 6179POPC   C3A77873  32.257  39.451   7.003
 6179POPC   C4A77874  32.355  39.521   7.430
 6179POPC   C1B77875  32.194  38.818   6.254
 6179POPC   C2B77876  32.148  39.024   6.640
 6179POPC   C3B77877  32.321  38.954   7.004
 6179POPC   C4B77878  32.130  39.055   7.419
 6180POPC   NC377879  44.575  28.693   5.409
 6180POPC   PO477880  44.708  28.013   5.378
 6180POPC   GL177881  44.612  28.247   5.753
 6180POPC   GL277882  44.313  28.136   5.940
 6180POPC   C1A77883  44.683  28.505   6.095
 6180POPC   D2A77884  44.866  28.363   6.457
 6180POPC   C3A77885  44.746  28.433   6.875
 6180POPC   C4A77886  44.850  28.355   7.304
 6180POPC   C1B77887  44.279  28.280   6.355
 6180POPC   C2B77888  44.241  28.347   6.795
 6180POPC   C3B77889  44.353  28.442   7.196
 6180POPC   C4B77890  44.403  28.302   7.625
 6181POPC   NC377891  22.256  28.929   5.587
 6181POPC   PO477892  22.065  29.555   5.426
 6181POPC   GL177893  22.148  29.376   5.838
 6181POPC   GL277894  21.860  29.137   5.847
 6181POPC   C1A77895  22.358  29.182   6.218
 6181POPC   D2A77896  22.326  28.916   6.639
 6181POPC   C3A77897  22.295  29.123   7.065
 6181POPC   C4A77898  21.977  29.180   7.397
 6181POPC   C1B77899  21.917  28.933   6.240
 6181POPC   C2B77900  21.818  29.107   6.629
 6181POPC   C3B77901  21.825  28.906   7.002
 6181POPC   C4B77902  21.859  28.691   7.387
 6182POPC   NC377903  20.246  27.667   5.305
 6182POPC   PO477904  19.658  27.461   5.489
 6182POPC   GL177905  19.850  27.738   5.799
 6182POPC   GL277906  20.161  27.621   5.815
 6182POPC   C1A77907  19.976  27.843   6.226
 6182POPC   D2A77908  19.751  27.791   6.601
 6182POPC   C3A77909  19.967  27.820   6.998
 6182POPC   C4A77910  19.623  27.801   7.322
 6182POPC   C1B77911  19.895  27.340   6.121
 6182POPC   C2B77912  19.875  27.088   6.522
 6182POPC   C3B77913  19.829  27.292   6.916
 6182POPC   C4B77914  19.956  27.414   7.314
 6183POPC   NC377915   0.216   6.115   5.070
 6183POPC   PO477916   0.664   5.779   5.479
 6183POPC   GL177917   0.498   5.626   5.875
 6183POPC   GL277918   0.800   5.521   5.968
 6183POPC   C1A77919   0.287   5.787   6.267
 6183POPC   D2A77920   0.344   5.761   6.713
 6183POPC   C3A77921   0.219   6.141   6.923
 6183POPC   C4A77922   0.320   6.223   7.350
 6183POPC   C1B77923   0.702   5.512   6.382
 6183POPC   C2B77924   0.860   5.687   6.709
 6183POPC   C3B77925   0.726   5.715   7.094
 6183POPC   C4B77926   0.657   5.810   7.485
 6184POPC   NC377927  18.290   8.036   5.248
 6184POPC   PO477928  18.758   8.422   5.437
 6184POPC   GL177929  18.439   8.272   5.736
 6184POPC   GL277930  18.578   7.971   5.843
 6184POPC   C1A77931  18.170   8.274   6.146
 6184POPC   D2A77932  18.316   8.356   6.571
 6184POPC   C3A77933  18.082   8.277   6.957
 6184POPC   C4A77934  18.119   8.502   7.336
 6184POPC   C1B77935  18.661   8.165   6.212
 6184POPC   C2B77936  18.679   8.000   6.589
 6184POPC   C3B77937  18.585   8.148   6.993
 6184POPC   C4B77938  18.542   8.043   7.404
 6185POPC   NC377939  17.653  21.925   5.410
 6185POPC   PO477940  18.009  22.528   5.547
 6185POPC   GL177941  17.658  22.319   5.802
 6185POPC   GL277942  17.504  21.971   5.888
 6185POPC   C1A77943  17.465  22.388   6.221
 6185POPC   D2A77944  17.602  22.245   6.655
 6185POPC   C3A77945  17.411  22.398   7.030
 6185POPC   C4A77946  17.704  22.236   7.300
 6185POPC   C1B77947  17.488  21.894   6.308
 6185POPC   C2B77948  17.256  21.801   6.663
 6185POPC   C3B77949  17.394  21.865   7.088
 6185POPC   C4B77950  17.254  22.073   7.461
 6186POPC   NC377951  19.503  37.513   5.526
 6186POPC   PO477952  19.970  38.062   5.351
 6186POPC   GL177953  19.785  37.907   5.765
 6186POPC   GL277954  19.889  37.551   5.866
 6186POPC   C1A77955  19.823  37.906   6.262
 6186POPC   D2A77956  19.723  37.821   6.721
 6186POPC   C3A77957  19.941  37.505   6.995
 6186POPC   C4A77958  19.999  37.514   7.489
 6186POPC   C1B77959  19.548  37.458   6.186
 6186POPC   C2B77960  19.442  37.397   6.612
 6186POPC   C3B77961  19.428  37.477   7.033
 6186POPC   C4B77962  19.443  37.416   7.471
 6187POPC   NC377963  42.510  10.280   5.309
 6187POPC   PO477964  42.184  10.826   5.593
 6187POPC   GL177965  42.212  10.443   5.752
 6187POPC   GL277966  42.551  10.401   5.806
 6187POPC   C1A77967  42.242  10.438   6.209
 6187POPC   D2A77968  42.127  10.253   6.589
 6187POPC   C3A77969  42.235  10.445   6.986
 6187POPC   C4A77970  42.364  10.361   7.414
 6187POPC   C1B77971  42.769  10.457   6.183
 6187POPC   C2B77972  42.609  10.468   6.608
 6187POPC   C3B77973  42.767  10.463   7.036
 6187POPC   C4B77974  42.739  10.712   7.396
 6188POPC   NC377975  15.187  37.066   5.358
 6188POPC   PO477976  15.175  36.452   5.181
 6188POPC   GL177977  15.098  36.638   5.644
 6188POPC   GL277978  15.465  36.758   5.708
 6188POPC   C1A77979  15.103  36.600   6.149
 6188POPC   D2A77980  15.005  36.559   6.641
 6188POPC   C3A77981  14.972  36.887   6.978
 6188POPC   C4A77982  15.091  36.807   7.395
 6188POPC   C1B77983  15.567  36.852   6.146
 6188POPC   C2B77984  15.558  36.682   6.576
 6188POPC   C3B77985  15.461  36.754   7.009
 6188POPC   C4B77986  15.487  37.082   7.325
 6189POPC   NC377987  19.935  13.793   5.500
 6189POPC   PO477988  19.460  13.225   5.393
 6189POPC   GL177989  19.623  13.438   5.773
 6189POPC   GL277990  19.978  13.450   5.875
 6189POPC   C1A77991  19.521  13.489   6.221
 6189POPC   D2A77992  19.674  13.323   6.632
 6189POPC   C3A77993  19.847  13.523   7.014
 6189POPC   C4A77994  19.662  13.640   7.427
 6189POPC   C1B77995  19.939  13.774   6.212
 6189POPC   C2B77996  19.806  13.933   6.656
 6189POPC   C3B77997  19.839  14.026   7.124
 6189POPC   C4B77998  20.113  13.846   7.475
 6190POPC   NC377999  12.227   9.566   5.522
 6190POPC   PO478000  11.819  10.172   5.487
 6190POPC   GL178001  11.963  10.147   5.936
 6190POPC   GL278002  12.094   9.828   5.945
 6190POPC   C1A78003  12.111  10.107   6.386
 6190POPC   D2A78004  12.373  10.077   6.756
 6190POPC   C3A78005  12.058   9.991   7.104
 6190POPC   C4A78006  12.009   9.660   7.446
 6190POPC   C1B78007  12.079   9.534   6.292
 6190POPC   C2B78008  12.115   9.652   6.717
 6190POPC   C3B78009  12.403   9.612   7.087
 6190POPC   C4B78010  12.396   9.358   7.484
 6191POPC   NC378011  34.956  31.312   5.605
 6191POPC   PO478012  34.343  31.282   5.393
 6191POPC   GL178013  34.469  31.498   5.816
 6191POPC   GL278014  34.686  31.778   5.899
 6191POPC   C1A78015  34.399  31.578   6.287
 6191POPC   D2A78016  34.254  31.422   6.698
 6191POPC   C3A78017  34.532  31.481   7.003
 6191POPC   C4A78018  34.433  31.686   7.367
 6191POPC   C1B78019  34.910  31.680   6.270
 6191POPC   C2B78020  34.949  31.449   6.638
 6191POPC   C3B78021  35.013  31.616   7.046
 6191POPC   C4B78022  34.842  31.395   7.429
 6192POPC   NC378023  29.310  14.833   5.451
 6192POPC   PO478024  29.040  14.153   5.423
 6192POPC   GL178025  29.008  14.264   5.823
 6192POPC   GL278026  28.979  14.618   5.804
 6192POPC   C1A78027  29.289  14.362   6.148
 6192POPC   D2A78028  29.263  14.581   6.538
 6192POPC   C3A78029  29.439  14.307   6.849
 6192POPC   C4A78030  29.380  14.229   7.272
 6192POPC   C1B78031  28.846  14.565   6.231
 6192POPC   C2B78032  28.862  14.254   6.604
 6192POPC   C3B78033  28.955  14.385   7.017
 6192POPC   C4B78034  29.207  14.722   7.128
 6193POPC   NC378035  28.984  16.429   5.190
 6193POPC   PO478036  29.660  16.567   5.277
 6193POPC   GL178037  29.343  16.524   5.650
 6193POPC   GL278038  28.980  16.448   5.690
 6193POPC   C1A78039  29.255  16.644   6.095
 6193POPC   D2A78040  29.408  16.549   6.510
 6193POPC   C3A78041  29.211  16.594   6.878
 6193POPC   C4A78042  29.319  16.673   7.302
 6193POPC   C1B78043  28.852  16.312   6.076
 6193POPC   C2B78044  28.892  16.461   6.465
 6193POPC   C3B78045  28.685  16.653   6.786
 6193POPC   C4B78046  28.824  16.649   7.194
 6194POPC   NC378047  30.242  14.043   5.618
 6194POPC   PO478048  29.818  14.597   5.485
 6194POPC   GL178049  29.739  14.445   5.918
 6194POPC   GL278050  30.045  14.375   5.973
 6194POPC   C1A78051  29.728  14.403   6.427
 6194POPC   D2A78052  29.663  14.791   6.774
 6194POPC   C3A78053  29.715  14.675   7.179
 6194POPC   C4A78054  29.883  14.303   7.140
 6194POPC   C1B78055  30.221  14.219   6.337
 6194POPC   C2B78056  30.097  14.032   6.729
 6194POPC   C3B78057  30.312  14.042   7.107
 6194POPC   C4B78058  30.370  14.489   7.192
 6195POPC   NC378059  21.631  23.122   5.573
 6195POPC   PO478060  21.104  22.597   5.442
 6195POPC   GL178061  21.319  22.779   5.774
 6195POPC   GL278062  21.218  23.131   5.867
 6195POPC   C1A78063  21.409  22.752   6.198
 6195POPC   D2A78064  21.196  22.714   6.573
 6195POPC   C3A78065  21.420  22.782   6.925
 6195POPC   C4A78066  21.499  22.587   7.278
 6195POPC   C1B78067  21.443  23.268   6.195
 6195POPC   C2B78068  21.545  23.119   6.571
 6195POPC   C3B78069  21.689  23.308   6.937
 6195POPC   C4B78070  21.641  23.094   7.294
 6196POPC   NC378071   0.056   8.724   5.468
 6196POPC   PO478072  44.455   9.081   5.477
 6196POPC   GL178073  44.613   8.839   5.823
 6196POPC   GL278074  44.866   8.577   5.931
 6196POPC   C1A78075  44.456   8.785   6.238
 6196POPC   D2A78076  44.511   8.766   6.697
 6196POPC   C3A78077  44.250   9.029   6.934
 6196POPC   C4A78078  44.248   9.084   7.372
 6196POPC   C1B78079  44.966   8.957   6.197
 6196POPC   C2B78080   0.104   9.019   6.636
 6196POPC   C3B78081  44.966   8.738   6.945
 6196POPC   C4B78082  44.676   8.821   7.273
 6197POPC   NC378083   5.223  41.718   5.323
 6197POPC   PO478084   4.980  41.079   5.181
 6197POPC   GL178085   5.022  41.282   5.640
 6197POPC   GL278086   5.087  41.637   5.803
 6197POPC   C1A78087   5.182  41.238   6.090
 6197POPC   D2A78088   5.040  41.297   6.525
 6197POPC   C3A78089   5.317  41.450   6.863
 6197POPC   C4A78090   5.223  41.402   7.303
 6197POPC   C1B78091   5.171  41.754   6.251
 6197POPC   C2B78092   4.989  41.805   6.670
 6197POPC   C3B78093   5.032  41.975   7.070
 6197POPC   C4B78094   5.387  41.900   7.282
 6198POPC   NC378095  12.210  43.789   5.427
 6198POPC   PO478096  12.170  44.367   5.641
 6198POPC   GL178097  11.989  44.050   5.852
 6198POPC   GL278098  12.308  43.971   5.947
 6198POPC   C1A78099  11.946  43.829   6.261
 6198POPC   D2A78100  12.212  43.877   6.622
 6198POPC   C3A78101  12.036  43.871   7.002
 6198POPC   C4A78102  12.166  43.812   7.381
 6198POPC   C1B78103  12.198  44.272   6.283
 6198POPC   C2B78104  12.155  44.545   6.637
 6198POPC   C3B78105  12.067  44.383   7.061
 6198POPC   C4B78106  11.903  44.229   7.457
 6199POPC   NC378107  44.445   2.854   5.107
 6199POPC   PO478108  44.979   2.730   5.292
 6199POPC   GL178109  44.786   2.838   5.663
 6199POPC   GL278110  44.786   2.512   5.841
 6199POPC   C1A78111  44.878   2.939   6.109
 6199POPC   D2A78112  44.895   2.618   6.443
 6199POPC   C3A78113  44.733   2.752   6.843
 6199POPC   C4A78114  44.847   2.963   7.227
 6199POPC   C1B78115  44.587   2.258   6.181
 6199POPC   C2B78116  44.456   2.348   6.582
 6199POPC   C3B78117  44.619   2.260   6.975
 6199POPC   C4B78118  44.329   2.344   7.271
 6200POPC   NC378119   9.494   9.685   5.422
 6200POPC   PO478120  10.133   9.967   5.415
 6200POPC   GL178121  10.076   9.858   5.869
 6200POPC   GL278122   9.750   9.685   5.903
 6200POPC   C1A78123  10.095   9.862   6.351
 6200POPC   D2A78124  10.115  10.028   6.806
 6200POPC   C3A78125   9.872   9.816   7.154
 6200POPC   C4A78126   9.566   9.999   7.442
 6200POPC   C1B78127   9.547   9.808   6.321
 6200POPC   C2B78128   9.543   9.753   6.777
 6200POPC   C3B78129   9.434   9.552   7.173
 6200POPC   C4B78130   9.402   9.283   7.519
 6201POPC   NC378131  37.301  34.621   5.299
 6201POPC   PO478132  37.874  35.016   5.349
 6201POPC   GL178133  37.716  34.878   5.784
 6201POPC   GL278134  37.377  34.717   5.838
 6201POPC   C1A78135  37.587  34.895   6.248
 6201POPC   D2A78136  37.474  34.690   6.588
 6201POPC   C3A78137  37.655  34.755   6.994
 6201POPC   C4A78138  37.853  34.789   7.404
 6201POPC   C1B78139  37.582  34.381   6.173
 6201POPC   C2B78140  37.503  34.190   6.572
 6201POPC   C3B78141  37.671  34.197   6.990
 6201POPC   C4B78142  37.543  34.377   7.374
 6202POPC   NC378143   4.379  31.102   5.331
 6202POPC   PO478144   4.168  31.745   5.216
 6202POPC   GL178145   4.289  31.538   5.647
 6202POPC   GL278146   4.593  31.682   5.811
 6202POPC   C1A78147   4.297  31.377   6.113
 6202POPC   D2A78148   4.214  31.506   6.571
 6202POPC   C3A78149   4.300  31.254   6.969
 6202POPC   C4A78150   4.088  31.357   7.383
 6202POPC   C1B78151   4.550  31.853   6.232
 6202POPC   C2B78152   4.463  31.982   6.634
 6202POPC   C3B78153   4.376  31.754   7.010
 6202POPC   C4B78154   4.550  31.535   7.376
 6203POPC   NC378155  19.688  27.002   5.461
 6203POPC   PO478156  20.286  26.715   5.265
 6203POPC   GL178157  20.093  26.768   5.692
 6203POPC   GL278158  20.164  27.109   5.740
 6203POPC   C1A78159  19.798  26.777   6.101
 6203POPC   D2A78160  19.688  26.593   6.533
 6203POPC   C3A78161  19.737  26.779   6.932
 6203POPC   C4A78162  19.717  26.645   7.382
 6203POPC   C1B78163  20.248  26.991   6.181
 6203POPC   C2B78164  20.196  26.598   6.445
 6203POPC   C3B78165  20.200  26.572   6.916
 6203POPC   C4B78166  20.109  26.942   7.225
 6204POPC   NC378167  24.053  33.605   5.428
 6204POPC   PO478168  23.542  34.058   5.305
 6204POPC   GL178169  23.377  33.862   5.672
 6204POPC   GL278170  23.622  33.612   5.769
 6204POPC   C1A78171  23.441  33.943   6.122
 6204POPC   D2A78172  23.500  33.660   6.436
 6204POPC   C3A78173  23.470  33.720   6.876
 6204POPC   C4A78174  23.506  33.870   7.297
 6204POPC   C1B78175  23.911  33.588   6.128
 6204POPC   C2B78176  24.068  33.755   6.528
 6204POPC   C3B78177  24.201  33.644   6.926
 6204POPC   C4B78178  23.994  33.708   7.353
 6205POPC   NC378179  31.704  42.668   5.439
 6205POPC   PO478180  31.751  42.003   5.502
 6205POPC   GL178181  31.528  42.084   5.838
 6205POPC   GL278182  31.430  42.426   5.783
 6205POPC   C1A78183  31.627  42.259   6.222
 6205POPC   D2A78184  31.729  42.355   6.612
 6205POPC   C3A78185  31.560  42.699   6.852
 6205POPC   C4A78186  31.626  42.531   7.265
 6205POPC   C1B78187  31.220  42.547   6.149
 6205POPC   C2B78188  31.222  42.435   6.545
 6205POPC   C3B78189  31.290  42.295   6.928
 6205POPC   C4B78190  31.131  42.444   7.276
 6206POPC   NC378191   6.825   4.885   5.390
 6206POPC   PO478192   6.545   5.407   5.634
 6206POPC   GL178193   6.829   5.227   5.920
 6206POPC   GL278194   6.894   4.834   5.890
 6206POPC   C1A78195   6.695   5.297   6.332
 6206POPC   D2A78196   6.498   5.067   6.668
 6206POPC   C3A78197   6.661   5.279   6.995
 6206POPC   C4A78198   6.815   5.343   7.399
 6206POPC   C1B78199   6.759   4.798   6.307
 6206POPC   C2B78200   6.989   4.898   6.713
 6206POPC   C3B78201   6.932   4.889   7.153
 6206POPC   C4B78202   6.522   4.828   7.404
 6207POPC   NC378203  17.748  41.073   5.500
 6207POPC   PO478204  17.580  40.460   5.714
 6207POPC   GL178205  17.484  40.812   5.881
 6207POPC   GL278206  17.195  40.784   6.083
 6207POPC   C1A78207  17.599  41.041   6.237
 6207POPC   D2A78208  17.389  41.003   6.646
 6207POPC   C3A78209  17.632  41.157   7.015
 6207POPC   C4A78210  17.432  40.983   7.356
 6207POPC   C1B78211  17.489  40.541   6.363
 6207POPC   C2B78212  17.446  40.297   6.738
 6207POPC   C3B78213  17.467  40.548   7.100
 6207POPC   C4B78214  17.870  40.766   7.283
 6208POPC   NC378215   8.314  38.264   5.367
 6208POPC   PO478216   7.926  38.722   5.390
 6208POPC   GL178217   8.103  38.560   5.831
 6208POPC   GL278218   8.401  38.352   5.887
 6208POPC   C1A78219   8.251  38.615   6.308
 6208POPC   D2A78220   8.340  38.552   6.775
 6208POPC   C3A78221   8.230  38.762   7.179
 6208POPC   C4A78222   8.029  38.551   7.567
 6208POPC   C1B78223   8.341  38.082   6.310
 6208POPC   C2B78224   8.349  38.047   6.801
 6208POPC   C3B78225   8.297  38.232   7.242
 6208POPC   C4B78226   8.295  38.141   7.709
 6209POPC   NC378227  38.693   6.068   5.316
 6209POPC   PO478228  39.355   5.993   5.322
 6209POPC   GL178229  39.158   6.026   5.708
 6209POPC   GL278230  39.424   5.829   5.828
 6209POPC   C1A78231  39.059   5.945   6.161
 6209POPC   D2A78232  38.936   6.170   6.551
 6209POPC   C3A78233  38.752   5.927   6.897
 6209POPC   C4A78234  38.895   6.002   7.323
 6209POPC   C1B78235  39.540   5.687   6.252
 6209POPC   C2B78236  39.289   5.805   6.622
 6209POPC   C3B78237  39.251   6.103   6.973
 6209POPC   C4B78238  39.386   5.911   7.370
 6210POPC   NC378239  28.132  26.511   5.504
 6210POPC   PO478240  28.473  27.075   5.581
 6210POPC   GL178241  28.513  26.685   5.826
 6210POPC   GL278242  28.237  26.494   6.004
 6210POPC   C1A78243  28.670  26.602   6.256
 6210POPC   D2A78244  28.451  26.562   6.631
 6210POPC   C3A78245  28.446  26.862   6.944
 6210POPC   C4A78246  28.476  26.823   7.370
 6210POPC   C1B78247  28.268  26.896   6.231
 6210POPC   C2B78248  28.100  27.045   6.590
 6210POPC   C3B78249  27.957  26.684   6.798
 6210POPC   C4B78250  28.015  26.704   7.218
 6211POPC   NC378251   4.476  16.899   5.059
 6211POPC   PO478252   4.231  16.541   5.526
 6211POPC   GL178253   4.104  16.835   5.838
 6211POPC   GL278254   4.438  17.005   5.803
 6211POPC   C1A78255   4.081  16.760   6.293
 6211POPC   D2A78256   4.317  16.863   6.676
 6211POPC   C3A78257   4.276  16.748   7.110
 6211POPC   C4A78258   4.153  17.017   7.484
 6211POPC   C1B78259   4.455  17.144   6.234
 6211POPC   C2B78260   4.707  17.177   6.617
 6211POPC   C3B78261   4.531  17.192   7.023
 6211POPC   C4B78262   4.643  17.021   7.386
 6212POPC   NC378263  22.362  27.137   5.432
 6212POPC   PO478264  21.940  27.676   5.416
 6212POPC   GL178265  22.271  27.728   5.735
 6212POPC   GL278266  22.257  27.393   5.861
 6212POPC   C1A78267  22.193  27.802   6.183
 6212POPC   D2A78268  22.223  27.643   6.598
 6212POPC   C3A78269  22.102  27.837   6.981
 6212POPC   C4A78270  22.266  27.731   7.359
 6212POPC   C1B78271  22.438  27.170   6.198
 6212POPC   C2B78272  22.237  27.132   6.601
 6212POPC   C3B78273  22.282  27.307   7.005
 6212POPC   C4B78274  22.159  27.246   7.440
 6213POPC   NC378275  42.180  38.703   5.607
 6213POPC   PO478276  42.082  39.320   5.479
 6213POPC   GL178277  42.197  39.154   5.860
 6213POPC   GL278278  42.418  38.897   6.012
 6213POPC   C1A78279  42.243  39.369   6.207
 6213POPC   D2A78280  42.372  39.272   6.581
 6213POPC   C3A78281  42.120  39.460   6.871
 6213POPC   C4A78282  42.093  39.546   7.285
 6213POPC   C1B78283  42.065  38.902   6.307
 6213POPC   C2B78284  41.955  38.979   6.736
 6213POPC   C3B78285  42.184  38.976   7.128
 6213POPC   C4B78286  42.087  38.687   7.484
 6214POPC   NC378287   7.225  34.172   5.416
 6214POPC   PO478288   7.549  33.580   5.378
 6214POPC   GL178289   7.474  33.632   5.828
 6214POPC   GL278290   7.351  33.954   5.875
 6214POPC   C1A78291   7.700  33.634   6.239
 6214POPC   D2A78292   7.954  33.628   6.650
 6214POPC   C3A78293   7.644  33.529   6.972
 6214POPC   C4A78294   7.432  33.832   7.271
 6214POPC   C1B78295   7.273  33.941   6.336
 6214POPC   C2B78296   7.269  33.984   6.809
 6214POPC   C3B78297   7.154  34.255   7.199
 6214POPC   C4B78298   6.978  34.206   7.616
 6215POPC   NC378299  39.702  30.473   5.406
 6215POPC   PO478300  40.357  30.465   5.458
 6215POPC   GL178301  40.028  30.541   5.828
 6215POPC   GL278302  39.711  30.782   5.836
 6215POPC   C1A78303  39.856  30.537   6.274
 6215POPC   D2A78304  39.754  30.653   6.704
 6215POPC   C3A78305  39.917  30.386   7.059
 6215POPC   C4A78306  40.135  30.414   7.497
 6215POPC   C1B78307  40.013  30.996   6.138
 6215POPC   C2B78308  40.160  30.990   6.614
 6215POPC   C3B78309  40.183  30.834   7.088
 6215POPC   C4B78310  40.269  30.921   7.574
 6216POPC   NC378311  41.195  31.812   5.412
 6216POPC   PO478312  40.568  32.169   5.300
 6216POPC   GL178313  40.651  32.166   5.764
 6216POPC   GL278314  40.859  32.430   5.928
 6216POPC   C1A78315  40.501  32.213   6.205
 6216POPC   D2A78316  40.732  32.409   6.546
 6216POPC   C3A78317  40.617  32.250   6.952
 6216POPC   C4A78318  40.470  32.125   7.379
 6216POPC   C1B78319  41.143  32.540   6.262
 6216POPC   C2B78320  41.119  32.723   6.640
 6216POPC   C3B78321  41.085  32.497   6.997
 6216POPC   C4B78322  41.214  32.542   7.402
 6217POPC   NC378323  18.320   3.987   5.440
 6217POPC   PO478324  18.113   3.317   5.426
 6217POPC   GL178325  18.267   3.497   5.827
 6217POPC   GL278326  18.195   3.858   5.916
 6217POPC   C1A78327  18.556   3.493   6.187
 6217POPC   D2A78328  18.538   3.821   6.507
 6217POPC   C3A78329  18.488   3.629   6.892
 6217POPC   C4A78330  18.387   3.226   7.099
 6217POPC   C1B78331  18.091   3.625   6.305
 6217POPC   C2B78332  18.077   3.403   6.687
 6217POPC   C3B78333  17.977   3.555   7.073
 6217POPC   C4B78334  18.167   3.905   7.209
 6218POPC   NC378335   3.633  43.433   5.388
 6218POPC   PO478336   3.375  42.835   5.237
 6218POPC   GL178337   3.398  42.839   5.739
 6218POPC   GL278338   3.700  43.036   5.783
 6218POPC   C1A78339   3.341  42.961   6.202
 6218POPC   D2A78340   3.542  43.105   6.610
 6218POPC   C3A78341   3.309  43.229   7.007
 6218POPC   C4A78342   3.511  43.030   7.336
 6218POPC   C1B78343   3.825  43.238   6.189
 6218POPC   C2B78344   3.951  43.446   6.586
 6218POPC   C3B78345   3.765  43.439   7.000
 6218POPC   C4B78346   3.837  43.512   7.430
 6219POPC   NC378347   6.117  41.272   5.361
 6219POPC   PO478348   5.695  41.756   5.343
 6219POPC   GL178349   5.782  41.456   5.731
 6219POPC   GL278350   6.133  41.340   5.860
 6219POPC   C1A78351   5.661  41.459   6.186
 6219POPC   D2A78352   5.752  41.820   6.471
 6219POPC   C3A78353   5.717  41.784   6.918
 6219POPC   C4A78354   5.892  41.930   7.312
 6219POPC   C1B78355   6.168  41.482   6.283
 6219POPC   C2B78356   5.964  41.378   6.661
 6219POPC   C3B78357   6.091  41.476   7.071
 6219POPC   C4B78358   6.137  41.228   7.399
 6220POPC   NC378359  34.905  39.545   5.508
 6220POPC   PO478360  34.480  39.041   5.475
 6220POPC   GL178361  34.470  38.941   5.869
 6220POPC   GL278362  34.798  39.128   5.883
 6220POPC   C1A78363  34.454  39.123   6.261
 6220POPC   D2A78364  34.758  39.159   6.563
 6220POPC   C3A78365  34.651  38.885   6.836
 6220POPC   C4A78366  34.313  38.868   7.106
 6220POPC   C1B78367  34.907  39.468   6.171
 6220POPC   C2B78368  35.039  39.591   6.591
 6220POPC   C3B78369  34.820  39.559   6.961
 6220POPC   C4B78370  34.655  39.243   7.200
 6221POPC   NC378371  43.865  20.087   5.039
 6221POPC   PO478372  43.635  19.724   5.543
 6221POPC   GL178373  43.837  19.782   5.885
 6221POPC   GL278374  44.091  20.032   5.822
 6221POPC   C1A78375  43.975  19.538   6.214
 6221POPC   D2A78376  43.946  19.280   6.573
 6221POPC   C3A78377  44.098  19.488   6.917
 6221POPC   C4A78378  44.053  19.746   7.276
 6221POPC   C1B78379  43.927  20.126   6.238
 6221POPC   C2B78380  44.022  20.199   6.644
 6221POPC   C3B78381  43.901  20.169   7.035
 6221POPC   C4B78382  43.665  20.463   7.195
 6222POPC   NC378383   2.234  38.649   5.193
 6222POPC   PO478384   1.801  38.314   5.504
 6222POPC   GL178385   2.063  38.623   5.708
 6222POPC   GL278386   1.778  38.713   5.886
 6222POPC   C1A78387   2.238  38.588   6.143
 6222POPC   D2A78388   2.118  38.354   6.547
 6222POPC   C3A78389   2.158  38.549   6.949
 6222POPC   C4A78390   2.205  38.689   7.377
 6222POPC   C1B78391   1.737  38.646   6.329
 6222POPC   C2B78392   1.722  38.869   6.715
 6222POPC   C3B78393   1.728  38.755   7.129
 6222POPC   C4B78394   1.626  38.343   7.194
 6223POPC   NC378395  27.995   7.201   4.979
 6223POPC   PO478396  27.525   7.407   5.397
 6223POPC   GL178397  27.565   7.411   5.830
 6223POPC   GL278398  27.794   7.696   5.887
 6223POPC   C1A78399  27.637   7.419   6.279
 6223POPC   D2A78400  27.751   7.565   6.680
 6223POPC   C3A78401  27.972   7.246   6.939
 6223POPC   C4A78402  27.849   7.103   7.366
 6223POPC   C1B78403  27.388   7.830   6.084
 6223POPC   C2B78404  27.214   7.684   6.475
 6223POPC   C3B78405  27.317   7.798   6.908
 6223POPC   C4B78406  27.251   7.698   7.309
 6224POPC   NC378407   0.360   4.437   5.372
 6224POPC   PO478408   0.770   3.964   5.564
 6224POPC   GL178409   0.415   4.273   5.855
 6224POPC   GL278410   0.303   4.641   5.830
 6224POPC   C1A78411   0.169   4.434   6.264
 6224POPC   D2A78412   0.373   4.496   6.663
 6224POPC   C3A78413   0.290   4.231   7.000
 6224POPC   C4A78414   0.063   3.909   7.197
 6224POPC   C1B78415   0.642   4.599   6.165
 6224POPC   C2B78416   0.857   4.606   6.570
 6224POPC   C3B78417   0.703   4.706   7.006
 6224POPC   C4B78418   0.543   4.515   7.363
 6225POPC   NC378419  28.324  15.205   5.482
 6225POPC   PO478420  28.595  14.776   5.021
 6225POPC   GL178421  28.570  14.765   5.547
 6225POPC   GL278422  28.252  14.756   5.723
 6225POPC   C1A78423  28.563  14.956   6.060
 6225POPC   D2A78424  28.458  15.050   6.520
 6225POPC   C3A78425  28.479  15.405   6.857
 6225POPC   C4A78426  28.525  15.349   7.322
 6225POPC   C1B78427  28.094  14.764   6.160
 6225POPC   C2B78428  27.988  14.832   6.600
 6225POPC   C3B78429  28.177  15.001   6.973
 6225POPC   C4B78430  28.009  15.155   7.347
 6226POPC   NC378431  29.503  14.019   5.445
 6226POPC   PO478432  30.022  13.623   5.551
 6226POPC   GL178433  29.717  13.622   5.833
 6226POPC   GL278434  29.754  13.945   5.882
 6226POPC   C1A78435  29.879  13.567   6.240
 6226POPC   D2A78436  29.968  13.354   6.593
 6226POPC   C3A78437  30.055  13.571   6.957
 6226POPC   C4A78438  30.034  13.455   7.372
 6226POPC   C1B78439  29.539  13.938   6.254
 6226POPC   C2B78440  29.639  13.780   6.652
 6226POPC   C3B78441  29.632  13.832   7.073
 6226POPC   C4B78442  29.790  13.933   7.465
 6227POPC   NC378443  37.346  25.649   5.464
 6227POPC   PO478444  37.735  26.134   5.463
 6227POPC   GL178445  37.742  26.126   5.877
 6227POPC   GL278446  37.748  26.491   5.850
 6227POPC   C1A78447  37.514  25.966   6.266
 6227POPC   D2A78448  37.405  25.778   6.689
 6227POPC   C3A78449  37.523  26.012   7.064
 6227POPC   C4A78450  37.867  25.948   7.341
 6227POPC   C1B78451  37.781  26.412   6.293
 6227POPC   C2B78452  37.703  26.286   6.686
 6227POPC   C3B78453  37.843  26.420   7.082
 6227POPC   C4B78454  37.836  26.471   7.508
 6228POPC   NC378455  11.736  33.135   5.548
 6228POPC   PO478456  12.330  33.281   5.397
 6228POPC   GL178457  12.153  33.361   5.801
 6228POPC   GL278458  12.154  32.991   5.820
 6228POPC   C1A78459  12.015  33.247   6.240
 6228POPC   D2A78460  12.227  33.085   6.624
 6228POPC   C3A78461  12.089  32.921   7.013
 6228POPC   C4A78462  11.960  33.111   7.385
 6228POPC   C1B78463  12.262  32.797   6.208
 6228POPC   C2B78464  12.301  32.564   6.602
 6228POPC   C3B78465  12.464  32.523   7.035
 6228POPC   C4B78466  12.287  32.685   7.431
 6229POPC   NC378467  38.647   7.763   5.153
 6229POPC   PO478468  38.322   7.294   5.514
 6229POPC   GL178469  38.474   7.417   5.866
 6229POPC   GL278470  38.641   7.720   5.709
 6229POPC   C1A78471  38.441   7.309   6.289
 6229POPC   D2A78472  38.573   7.472   6.673
 6229POPC   C3A78473  38.361   7.261   6.990
 6229POPC   C4A78474  38.601   7.119   7.333
 6229POPC   C1B78475  38.560   7.837   6.149
 6229POPC   C2B78476  38.782   7.946   6.521
 6229POPC   C3B78477  38.576   7.930   6.925
 6229POPC   C4B78478  38.484   7.659   7.261
 6230POPC   NC378479  33.384  35.797   5.510
 6230POPC   PO478480  34.022  35.758   5.434
 6230POPC   GL178481  33.832  35.790   5.833
 6230POPC   GL278482  33.623  36.099   5.841
 6230POPC   C1A78483  33.962  36.012   6.209
 6230POPC   D2A78484  33.849  36.254   6.563
 6230POPC   C3A78485  33.980  36.058   6.935
 6230POPC   C4A78486  34.078  35.965   7.360
 6230POPC   C1B78487  33.431  36.038   6.247
 6230POPC   C2B78488  33.332  36.291   6.606
 6230POPC   C3B78489  33.526  36.560   6.850
 6230POPC   C4B78490  33.744  36.392   7.227
 6231POPC   NC378491   0.893  28.171   5.686
 6231POPC   PO478492   0.529  28.566   5.235
 6231POPC   GL178493   0.455  28.493   5.711
 6231POPC   GL278494   0.716  28.560   5.951
 6231POPC   C1A78495   0.322  28.303   6.153
 6231POPC   D2A78496   0.347  28.490   6.586
 6231POPC   C3A78497   0.223  28.236   6.937
 6231POPC   C4A78498   0.412  28.284   7.328
 6231POPC   C1B78499   0.668  28.821   6.316
 6231POPC   C2B78500   0.829  28.851   6.744
 6231POPC   C3B78501   0.639  28.684   7.131
 6231POPC   C4B78502   0.634  28.685   7.613
 6232POPC   NC378503  24.285  18.631   5.452
 6232POPC   PO478504  24.657  19.252   5.405
 6232POPC   GL178505  24.583  19.059   5.808
 6232POPC   GL278506  24.380  18.785   5.926
 6232POPC   C1A78507  24.617  19.087   6.256
 6232POPC   D2A78508  24.400  19.160   6.631
 6232POPC   C3A78509  24.675  19.312   6.920
 6232POPC   C4A78510  24.834  19.000   7.161
 6232POPC   C1B78511  24.075  18.938   6.237
 6232POPC   C2B78512  23.910  18.942   6.657
 6232POPC   C3B78513  24.065  18.679   6.996
 6232POPC   C4B78514  24.331  18.884   7.292
 6233POPC   NC378515  19.569  38.440   5.582
 6233POPC   PO478516  20.185  38.677   5.396
 6233POPC   GL178517  19.959  38.665   5.884
 6233POPC   GL278518  19.737  38.353   6.029
 6233POPC   C1A78519  19.883  38.629   6.398
 6233POPC   D2A78520  19.572  38.318   6.570
 6233POPC   C3A78521  19.705  38.281   6.993
 6233POPC   C4A78522  20.093  38.484   7.139
 6233POPC   C1B78523  19.481  38.740   6.146
 6233POPC   C2B78524  19.419  38.822   6.603
 6233POPC   C3B78525  19.591  38.781   7.061
 6233POPC   C4B78526  19.362  38.763   7.516
 6234POPC   NC378527  10.041  43.614   5.584
 6234POPC   PO478528  10.626  43.635   5.217
 6234POPC   GL178529  10.574  43.713   5.672
 6234POPC   GL278530  10.326  43.961   5.819
 6234POPC   C1A78531  10.779  43.867   6.071
 6234POPC   D2A78532  10.715  44.119   6.455
 6234POPC   C3A78533  10.748  43.976   6.860
 6234POPC   C4A78534  10.661  43.924   7.292
 6234POPC   C1B78535  10.211  44.079   6.227
 6234POPC   C2B78536  10.207  43.862   6.609
 6234POPC   C3B78537  10.238  43.953   7.027
 6234POPC   C4B78538  10.205  44.009   7.491
 6235POPC   NC378539   4.082   5.881   5.419
 6235POPC   PO478540   4.537   6.313   5.484
 6235POPC   GL178541   4.515   5.920   5.781
 6235POPC   GL278542   4.171   5.868   5.920
 6235POPC   C1A78543   4.515   5.716   6.234
 6235POPC   D2A78544   4.257   5.881   6.546
 6235POPC   C3A78545   4.299   5.844   6.964
 6235POPC   C4A78546   4.312   5.979   7.392
 6235POPC   C1B78547   3.863   5.784   6.258
 6235POPC   C2B78548   3.804   5.709   6.715
 6235POPC   C3B78549   3.842   5.770   7.163
 6235POPC   C4B78550   3.991   5.629   7.560
 6236POPC   NC378551  16.893  24.922   5.482
 6236POPC   PO478552  16.797  24.287   5.587
 6236POPC   GL178553  16.719  24.629   5.893
 6236POPC   GL278554  17.015  24.800   5.961
 6236POPC   C1A78555  16.711  24.613   6.360
 6236POPC   D2A78556  16.793  24.272   6.641
 6236POPC   C3A78557  16.736  24.368   7.066
 6236POPC   C4A78558  16.471  24.715   7.191
 6236POPC   C1B78559  17.123  24.368   6.160
 6236POPC   C2B78560  17.245  24.111   6.515
 6236POPC   C3B78561  17.226  24.232   6.940
 6236POPC   C4B78562  17.157  24.295   7.389
 6237POPC   NC378563  37.237  30.558   5.165
 6237POPC   PO478564  36.715  30.544   5.666
 6237POPC   GL178565  36.889  30.398   6.051
 6237POPC   GL278566  36.722  30.325   6.342
 6237POPC   C1A78567  37.228  30.531   6.343
 6237POPC   D2A78568  37.026  30.508   6.721
 6237POPC   C3A78569  36.997  30.759   7.030
 6237POPC   C4A78570  37.284  30.664   7.299
 6237POPC   C1B78571  36.785  30.809   6.350
 6237POPC   C2B78572  36.604  31.040   6.688
 6237POPC   C3B78573  36.495  30.695   6.940
 6237POPC   C4B78574  36.590  30.579   7.350
 6238POPC   NC378575  22.234  41.060   5.311
 6238POPC   PO478576  21.950  40.449   5.580
 6238POPC   GL178577  22.121  40.794   5.765
 6238POPC   GL278578  22.385  40.672   5.894
 6238POPC   C1A78579  22.061  40.927   6.205
 6238POPC   D2A78580  22.285  40.809   6.563
 6238POPC   C3A78581  22.060  40.828   6.975
 6238POPC   C4A78582  21.809  41.176   7.115
 6238POPC   C1B78583  22.598  40.513   6.204
 6238POPC   C2B78584  22.520  40.347   6.586
 6238POPC   C3B78585  22.501  40.551   6.959
 6238POPC   C4B78586  22.370  40.623   7.350
 6239POPC   NC378587  14.857  18.644   5.540
 6239POPC   PO478588  14.249  18.424   5.497
 6239POPC   GL178589  14.424  18.341   5.866
 6239POPC   GL278590  14.526  18.659   5.932
 6239POPC   C1A78591  14.259  18.367   6.273
 6239POPC   D2A78592  14.107  18.071   6.551
 6239POPC   C3A78593  14.130  18.231   6.951
 6239POPC   C4A78594  14.384  18.117   7.277
 6239POPC   C1B78595  14.690  18.665   6.356
 6239POPC   C2B78596  14.401  18.656   6.702
 6239POPC   C3B78597  14.467  18.586   7.128
 6239POPC   C4B78598  14.561  18.521   7.540
 6240POPC   NC378599  35.304  30.411   5.402
 6240POPC   PO478600  35.325  31.099   5.441
 6240POPC   GL178601  35.176  30.791   5.742
 6240POPC   GL278602  35.520  30.671   5.785
 6240POPC   C1A78603  35.154  30.557   6.163
 6240POPC   D2A78604  35.023  30.762   6.560
 6240POPC   C3A78605  35.066  30.621   6.986
 6240POPC   C4A78606  35.010  30.891   7.333
 6240POPC   C1B78607  35.619  30.790   6.192
 6240POPC   C2B78608  35.524  30.587   6.566
 6240POPC   C3B78609  35.569  30.743   6.940
 6240POPC   C4B78610  35.562  30.914   7.288
 6241POPC   NC378611   3.104   8.984   5.563
 6241POPC   PO478612   2.622   8.528   5.459
 6241POPC   GL178613   2.674   8.825   5.783
 6241POPC   GL278614   2.592   9.166   5.733
 6241POPC   C1A78615   2.905   8.904   6.163
 6241POPC   D2A78616   2.795   9.058   6.511
 6241POPC   C3A78617   2.930   8.931   6.875
 6241POPC   C4A78618   3.005   9.139   7.210
 6241POPC   C1B78619   2.522   9.331   6.142
 6241POPC   C2B78620   2.598   9.521   6.542
 6241POPC   C3B78621   2.562   9.321   6.902
 6241POPC   C4B78622   2.525   9.257   7.292
 6242POPC   NC378623   5.320  10.732   5.575
 6242POPC   PO478624   4.957  10.192   5.463
 6242POPC   GL178625   4.976  10.412   5.855
 6242POPC   GL278626   4.759  10.694   5.921
 6242POPC   C1A78627   4.989  10.283   6.294
 6242POPC   D2A78628   4.856  10.449   6.698
 6242POPC   C3A78629   4.868  10.248   7.130
 6242POPC   C4A78630   4.587  10.330   7.523
 6242POPC   C1B78631   5.097  10.783   6.223
 6242POPC   C2B78632   5.322  10.688   6.626
 6242POPC   C3B78633   5.183  10.653   7.042
 6242POPC   C4B78634   5.088  10.916   7.384
 6243POPC   NC378635   2.280   0.469   5.736
 6243POPC   PO478636   2.047   1.021   5.410
 6243POPC   GL178637   1.919   1.023   5.829
 6243POPC   GL278638   2.142   1.266   5.995
 6243POPC   C1A78639   1.645   1.250   6.138
 6243POPC   D2A78640   1.897   1.501   6.423
 6243POPC   C3A78641   2.135   1.250   6.745
 6243POPC   C4A78642   1.982   1.133   7.180
 6243POPC   C1B78643   2.031   0.940   6.322
 6243POPC   C2B78644   2.159   0.721   6.686
 6243POPC   C3B78645   2.406   0.893   7.011
 6243POPC   C4B78646   2.342   0.894   7.472
 6244POPC   NC378647  37.600   5.343   5.502
 6244POPC   PO478648  38.031   4.816   5.414
 6244POPC   GL178649  37.786   4.884   5.816
 6244POPC   GL278650  37.493   5.100   5.934
 6244POPC   C1A78651  37.854   4.900   6.260
 6244POPC   D2A78652  38.002   5.280   6.561
 6244POPC   C3A78653  37.852   5.313   6.995
 6244POPC   C4A78654  37.892   5.099   7.420
 6244POPC   C1B78655  37.532   5.268   6.371
 6244POPC   C2B78656  37.631   4.924   6.711
 6244POPC   C3B78657  37.520   4.946   7.118
 6244POPC   C4B78658  37.405   5.320   7.307
 6245POPC   NC378659  15.903  24.841   5.373
 6245POPC   PO478660  15.997  24.194   5.261
 6245POPC   GL178661  15.896  24.430   5.680
 6245POPC   GL278662  15.590  24.641   5.761
 6245POPC   C1A78663  16.058  24.727   6.029
 6245POPC   D2A78664  15.920  24.850   6.447
 6245POPC   C3A78665  16.064  24.700   6.858
 6245POPC   C4A78666  15.971  24.773   7.275
 6245POPC   C1B78667  15.597  24.537   6.223
 6245POPC   C2B78668  15.621  24.482   6.713
 6245POPC   C3B78669  15.752  24.276   7.148
 6245POPC   C4B78670  15.849  23.955   7.504
 6246W        W78671   8.119  38.927  10.695
 6247W        W78672   0.359   6.635   3.244
 6248W        W78673  25.951  36.797  11.537
 6249W        W78674  29.203   0.133  13.414
 6250W        W78675  42.980  38.302   3.679
 6251W        W78676  22.234  11.791  13.492
 6252W        W78677  26.532  41.451  11.604
 6253W        W78678   6.275  26.117  12.427
 6254W        W78679  15.459  36.479  14.528
 6255W        W78680  18.959  39.451   0.802
 6256W        W78681  18.715   3.450   2.848
 6257W        W78682  12.565  38.222  12.958
 6258W        W78683  33.572  11.795   4.514
 6259W        W78684   4.694  19.445  13.954
 6260W        W78685   5.402  26.927   1.701
 6261W        W78686  44.378  42.759  10.593
 6262W        W78687   5.683   9.455   1.840
 6263W        W78688   1.423   8.177   4.525
 6264W        W78689  15.239   5.837  10.441
 6265W        W78690   8.714  11.323   2.346
 6266W        W78691  40.029   5.842   0.381
 6267W        W78692  15.663   5.328  14.340
 6268W        W78693   3.516   7.184  11.658
 6269W        W78694  10.086   6.662  13.407
 6270W        W78695  13.046  21.062  14.504
 6271W        W78696  26.065  44.225   0.520
 6272W        W78697   5.822  34.102   2.308
 6273W        W78698  29.145  34.427  13.885
 6274W        W78699  41.774  14.386  12.974
 6275W        W78700  14.893  28.219   1.112
 6276W        W78701  31.434  40.961   0.477
 6277W        W78702  18.636  39.365   4.346
 6278W        W78703  17.562  43.210  13.559
 6279W        W78704   2.047  11.594   4.233
 6280W        W78705  11.161  18.584  14.388
 6281W        W78706   7.050   2.501  11.675
 6282W        W78707  19.986  16.115   3.387
 6283W        W78708  12.147   5.704   2.509
 6284W        W78709   0.774  24.991  13.462
 6285W        W78710  10.411  12.642   3.918
 6286W        W78711  29.054   4.473  14.306
 6287W        W78712  10.354  22.634   3.053
 6288W        W78713   0.058  42.628   5.264
 6289W        W78714  38.958  20.572  12.939
 6290W        W78715  41.407   3.685   4.762
 6291W        W78716  42.324  31.906   2.675
 6292W        W78717  10.137  35.680  12.261
 6293W        W78718  42.187   9.374   3.166
 6294W        W78719   3.386  20.255   3.308
 6295W        W78720  32.690  42.875  12.525
 6296W        W78721  41.461  12.729   3.649
 6297W        W78722   2.863  27.732   3.810
 6298W        W78723  29.386  23.101   4.248
 6299W        W78724  14.833  17.199   1.978
 6300W        W78725  44.787  18.708   1.728
 6301W        W78726  44.205  14.011   4.770
 6302W        W78727  10.549  26.652   0.468
 6303W        W78728  16.656  33.636  14.792
 6304W        W78729   7.967  13.259  13.749
 6305W        W78730  37.854  26.142  11.151
 6306W        W78731  12.083  30.045   3.844
 6307W        W78732  30.386  20.260  13.482
 6308W        W78733  24.463  28.442  12.433
 6309W        W78734   1.834  30.097   3.191
 6310W        W78735  28.834  17.733  12.500
 6311W        W78736  24.890   4.630   4.530
 6312W        W78737  23.723  37.869   0.025
 6313W        W78738  29.404  25.982   1.314
 6314W        W78739  44.951  41.995   1.770
 6315W        W78740  35.283  35.829   1.938
 6316W        W78741   1.186   9.679  10.911
 6317W        W78742  34.619  19.692  10.774
 6318W        W78743  42.677   8.517   5.069
 6319W        W78744  14.838   3.612  14.992
 6320W        W78745  38.408   9.338   3.785
 6321W        W78746  40.301  31.453   0.417
 6322W        W78747  32.962  26.654   1.355
 6323W        W78748   4.833  30.380   3.337
 6324W        W78749   3.959  27.483  13.383
 6325W        W78750   0.653  38.276   0.467
 6326W        W78751  20.540   1.717  12.872
 6327W        W78752  25.918  33.121  13.207
 6328W        W78753  31.665  21.103   1.312
 6329W        W78754  20.352  32.152   2.395
 6330W        W78755  38.884  19.067  11.463
 6331W        W78756  40.268  38.581   4.633
 6332W        W78757   5.957  12.458   3.364
 6333W        W78758   8.612  14.255   2.533
 6334W        W78759   1.833  21.312   0.544
 6335W        W78760   2.737  14.064  14.783
 6336W        W78761  27.072  17.699   3.372
 6337W        W78762  40.460   3.710   1.053
 6338W        W78763  25.187  32.470   4.420
 6339W        W78764  36.984  18.666   2.676
 6340W        W78765  37.241  32.083  11.877
 6341W        W78766  38.694  17.749  14.555
 6342W        W78767  15.251  13.994  14.931
 6343W        W78768  26.124   5.989   0.204
 6344W        W78769  42.050  30.904   0.937
 6345W        W78770  44.431  14.265   2.921
 6346W        W78771  22.016  15.757   2.148
 6347W        W78772  36.378  32.798  10.598
 6348W        W78773  38.544  31.835   2.309
 6349W        W78774   4.922  14.525   1.415
 6350W        W78775  35.505  20.580   3.730
 6351W        W78776   3.364  22.614  12.085
 6352W        W78777  42.872   4.218   1.890
 6353W        W78778  28.617   5.718   1.887
 6354W        W78779  24.840   8.245   2.829
 6355W        W78780   7.363  30.201   1.887
 6356W        W78781  40.768  43.324  14.595
 6357W        W78782   6.966  36.386   0.719
 6358W        W78783  31.112  38.109  14.337
 6359W        W78784  23.679  34.420  10.575
 6360W        W78785   8.452  12.793   3.677
 6361W        W78786  21.140   4.948   3.686
 6362W        W78787  33.182  21.381  12.394
 6363W        W78788   3.464  37.427   4.534
 6364W        W78789  37.038   0.125  13.932
 6365W        W78790  16.915   4.833   2.435
 6366W        W78791  41.380  43.044   3.234
 6367W        W78792  10.084  14.833  14.869
 6368W        W78793  41.470  23.405  11.139
 6369W        W78794  19.218  22.265  12.769
 6370W        W78795   9.122  24.286   1.324
 6371W        W78796   8.957   3.834   3.727
 6372W        W78797  23.637  21.296  13.410
 6373W        W78798  31.904  16.873  11.635
 6374W        W78799  44.054  22.514   0.840
 6375W        W78800   9.837  43.913  12.891
 6376W        W78801  27.677  22.625  13.476
 6377W        W78802   2.256  40.545  14.505
 6378W        W78803  27.921  19.212   0.545
 6379W        W78804   8.013   6.691   3.199
 6380W        W78805   8.822  34.090  12.113
 6381W        W78806  21.095  18.585   4.097
 6382W        W78807   1.722  32.571  10.636
 6383W        W78808  31.827  31.184   3.103
 6384W        W78809  23.344  16.967   3.180
 6385W        W78810  10.907  41.965  12.481
 6386W        W78811  43.684  23.086   2.239
 6387W        W78812   7.835   8.203  10.000
 6388W        W78813  39.908  26.636  14.842
 6389W        W78814  21.201  32.476   5.001
 6390W        W78815  12.429  37.849  14.337
 6391W        W78816   8.796  35.476   5.489
 6392W        W78817  38.556  15.646  11.533
 6393W        W78818  29.083  13.869  13.967
 6394W        W78819  40.251  39.901  11.185
 6395W        W78820   4.876  28.508  13.821
 6396W        W78821  14.586  24.687   9.872
 6397W        W78822  25.176  14.290  13.359
 6398W        W78823  41.460   7.395   4.472
 6399W        W78824  21.044  27.372   2.306
 6400W        W78825  20.138   3.858  13.845
 6401W        W78826  27.389  23.124   1.800
 6402W        W78827  44.496  21.192  14.995
 6403W        W78828  40.923  29.380  13.903
 6404W        W78829  14.477  21.388  11.631
 6405W        W78830  28.602   0.967   0.128
 6406W        W78831  37.481   3.656  12.020
 6407W        W78832  43.889  23.256  14.133
 6408W        W78833   6.852  29.965   4.963
 6409W        W78834  17.145  43.092   1.633
 6410W        W78835  33.454  38.849   4.474
 6411W        W78836   4.467  15.652  11.131
 6412W        W78837   7.315  43.919  11.693
 6413W        W78838  15.221  41.103  12.802
 6414W        W78839  41.491   2.922   0.966
 6415W        W78840  38.941  26.138  13.908
 6416W        W78841  27.116  11.232  13.706
 6417W        W78842  38.163   0.733  14.689
 6418W        W78843  10.401  27.492   0.695
 6419W        W78844  20.322  17.736  11.705
 6420W        W78845   9.739   3.482  10.713
 6421W        W78846  40.345  35.329  14.320
 6422W        W78847   9.925  37.600   2.194
 6423W        W78848  25.702  14.138   3.968
 6424W        W78849   7.172  16.739   0.414
 6425W        W78850  26.811  31.975   4.512
 6426W        W78851   4.603  38.962   1.222
 6427W        W78852  34.882  16.642   2.821
 6428W        W78853  33.503  25.692  11.182
 6429W        W78854  38.535  15.536   1.320
 6430W        W78855  14.789  14.176  14.785
 6431W        W78856  21.125  19.265   3.248
 6432W        W78857  43.114  24.018  11.607
 6433W        W78858  41.874  32.179   1.255
 6434W        W78859  42.730  37.393  14.282
 6435W        W78860   4.184  15.542  10.237
 6436W        W78861  21.051  36.488  13.927
 6437W        W78862  20.485   8.937  11.831
 6438W        W78863  21.186  25.250   1.844
 6439W        W78864  32.394   7.403  11.479
 6440W        W78865  10.673  29.194   1.665
 6441W        W78866  32.832  34.441  13.789
 6442W        W78867  11.697  30.180   0.422
 6443W        W78868   8.945  35.136   1.793
 6444W        W78869  27.887  39.502   5.121
 6445W        W78870  11.170  16.028   4.552
 6446W        W78871  31.567   8.389  12.898
 6447W        W78872  14.088   9.577   0.893
 6448W        W78873  20.065  42.085   1.834
 6449W        W78874  28.010  30.498  12.866
 6450W        W78875   9.806   3.496  12.028
 6451W        W78876  26.959  43.396   1.134
 6452W        W78877   1.415  41.763  12.483
 6453W        W78878  44.262  26.562   5.029
 6454W        W78879   9.863   3.583   1.302
 6455W        W78880   0.617  33.899  13.824
 6456W        W78881  43.759  30.871   3.328
 6457W        W78882   7.520  21.491   3.254
 6458W        W78883  16.820   1.770   1.812
 6459W        W78884  20.003  22.964  14.739
 6460W        W78885   8.567   9.117   0.754
 6461W        W78886  25.730  36.517  14.235
 6462W        W78887  33.299  33.557   2.691
 6463W        W78888  23.057  10.573  13.528
 6464W        W78889  20.501  25.876  14.345
 6465W        W78890  34.763  37.316  10.748
 6466W        W78891  40.459  25.473   3.181
 6467W        W78892   5.254  13.761   2.149
 6468W        W78893  43.516  26.321   4.560
 6469W        W78894  22.748  39.844  12.822
 6470W        W78895   4.602  14.248   2.576
 6471W        W78896  29.218  19.634  12.878
 6472W        W78897  25.516  11.293   2.351
 6473W        W78898  30.203   5.740  11.440
 6474W        W78899  36.001   3.118  13.849
 6475W        W78900  16.776  24.851  14.782
 6476W        W78901  25.384   6.365   1.730
 6477W        W78902   0.161   6.692  14.663
 6478W        W78903  26.566  34.638  14.049
 6479W        W78904  27.068  37.927   4.505
 6480W        W78905  12.603  21.241   3.105
 6481W        W78906  29.009  19.194  11.694
 6482W        W78907  23.124  17.437   3.235
 6483W        W78908   6.480  32.523  14.529
 6484W        W78909  24.605  44.006   3.996
 6485W        W78910  42.370  36.484  14.067
 6486W        W78911  29.294   0.491  11.549
 6487W        W78912  18.502  33.515  12.958
 6488W        W78913  18.687  32.061   9.855
 6489W        W78914  34.490  27.062   0.291
 6490W        W78915   0.864  16.739   0.348
 6491W        W78916  37.372  43.544  13.390
 6492W        W78917  37.551  30.559  14.590
 6493W        W78918  29.919  44.410  12.633
 6494W        W78919  32.935  25.273  14.209
 6495W        W78920  44.163  26.092   2.223
 6496W        W78921   2.744   0.459  12.594
 6497W        W78922  20.246  12.684   9.863
 6498W        W78923  41.304   2.999  14.410
 6499W        W78924   6.622  23.927  12.086
 6500W        W78925  43.214  10.573   3.855
 6501W        W78926  17.564  34.532   2.275
 6502W        W78927  17.466  37.180   2.801
 6503W        W78928  34.721  40.460   1.203
 6504W        W78929  17.676   7.637   3.912
 6505W        W78930  43.896  23.545  11.042
 6506W        W78931  22.182  43.567  11.411
 6507W        W78932  42.695  18.638   2.002
 6508W        W78933  39.024  11.975   2.252
 6509W        W78934  14.039  17.137  11.193
 6510W        W78935  43.422  10.593  12.891
 6511W        W78936   5.896   5.831   1.756
 6512W        W78937  42.386  24.646  10.464
 6513W        W78938  27.416  15.987  13.421
 6514W        W78939   1.724  39.620   3.724
 6515W        W78940  11.160   8.830   4.530
 6516W        W78941  36.909  22.007   0.780
 6517W        W78942  17.215   9.669   4.382
 6518W        W78943  16.170  38.612  10.990
 6519W        W78944  20.882  41.530  10.250
 6520W        W78945  12.693  42.754  13.474
 6521W        W78946  34.250  13.601   3.159
 6522W        W78947   7.644  32.936   1.477
 6523W        W78948  40.438  16.823   1.796
 6524W        W78949  13.303  39.963  13.920
 6525W        W78950   8.741  24.456   2.172
 6526W        W78951  40.020  43.308   3.399
 6527W        W78952  37.867  25.592   0.384
 6528W        W78953   7.436  28.092   4.100
 6529W        W78954  30.980  11.438   2.721
 6530W        W78955  12.701   4.765   2.786
 6531W        W78956  43.383  20.066  14.226
 6532W        W78957  39.399  31.082   0.747
 6533W        W78958  37.758  43.239  14.274
 6534W        W78959  13.842  15.113   3.221
 6535W        W78960  28.054   8.802   4.565
 6536W        W78961  15.597  15.589   4.276
 6537W        W78962  35.560   4.352  13.944
 6538W        W78963   3.984  39.578   2.238
 6539W        W78964  32.810  22.489  13.959
 6540W        W78965  19.519  11.313  11.563
 6541W        W78966  17.507  27.415  10.558
 6542W        W78967  25.748  34.847   0.662
 6543W        W78968   4.149  16.772  13.513
 6544W        W78969  11.099  20.949   3.040
 6545W        W78970   1.408  36.580  14.093
 6546W        W78971  13.610  43.325  10.388
 6547W        W78972   7.877  44.434   0.486
 6548W        W78973  35.605  31.606  14.863
 6549W        W78974  20.730  41.825   2.108
 6550W        W78975  40.728   4.748  14.884
 6551W        W78976  26.217  36.316  13.336
 6552W        W78977  22.416  36.841   4.415
 6553W        W78978   2.166  12.805  11.912
 6554W        W78979  24.460  20.657   0.433
 6555W        W78980  10.939   9.589  12.518
 6556W        W78981   7.099  34.689   4.194
 6557W        W78982   2.758  22.794   2.756
 6558W        W78983  44.631  12.767   1.589
 6559W        W78984  42.012  43.077  14.373
 6560W        W78985  15.631   0.036  12.061
 6561W        W78986  44.668   9.792  12.755
 6562W        W78987   5.684   2.294   4.422
 6563W        W78988  18.382  29.474   3.627
 6564W        W78989  34.440   1.299   4.950
 6565W        W78990  44.431  40.064   1.711
 6566W        W78991   6.988  26.008   0.403
 6567W        W78992  11.627  36.067   4.203
 6568W        W78993   2.954   9.644   2.375
 6569W        W78994   8.374  39.423  10.643
 6570W        W78995   6.128   4.005   2.739
 6571W        W78996   0.478  41.341  14.301
 6572W        W78997  25.705   6.337   2.114
 6573W        W78998   4.860  12.558  10.540
 6574W        W78999   2.050  18.106  11.490
 6575W        W79000  19.746  36.504  12.688
 6576W        W79001   0.957  17.820  14.814
 6577W        W79002  37.434  13.874   3.761
 6578W        W79003  34.055  21.837   4.357
 6579W        W79004  11.152  16.543   0.454
 6580W        W79005  28.216  11.185   2.383
 6581W        W79006  23.825   4.335  10.567
 6582W        W79007  16.044  29.197   3.824
 6583W        W79008  29.637  18.186   5.023
 6584W        W79009  23.173  28.227   3.835
 6585W        W79010   8.266  15.204  11.613
 6586W        W79011  28.362  28.601   1.017
 6587W        W79012   7.346  37.030   2.304
 6588W        W79013  20.568  35.598  12.063
 6589W        W79014  10.479   5.173  13.304
 6590W        W79015  37.290   8.416   0.793
 6591W        W79016  40.554  15.057   4.059
 6592W        W79017  43.636  16.644  14.793
 6593W        W79018  42.885  27.984   0.213
 6594W        W79019   0.203  26.546  12.593
 6595W        W79020  21.431  22.758  12.437
 6596W        W79021  20.328  30.054  11.473
 6597W        W79022  43.012  19.300  10.733
 6598W        W79023  22.932  28.713   2.373
 6599W        W79024   0.433  13.592   1.221
 6600W        W79025  29.120  23.528   4.088
 6601W        W79026  11.373  16.266  12.171
 6602W        W79027  37.348  37.991  14.047
 6603W        W79028  27.928  21.235  12.667
 6604W        W79029   9.462   4.368   1.729
 6605W        W79030  39.042  14.185  13.055
 6606W        W79031  19.407  10.651   0.990
 6607W        W79032  19.297  23.508  14.567
 6608W        W79033   7.409  12.702  13.885
 6609W        W79034  44.184  43.737  13.938
 6610W        W79035  20.568   6.269  12.944
 6611W        W79036  27.612   5.196   2.799
 6612W        W79037  11.690   9.423  14.811
 6613W        W79038  32.896  11.371  11.126
 6614W        W79039  35.962  10.948  13.494
 6615W        W79040  41.297  31.369   4.616
 6616W        W79041  31.967  31.935  13.147
 6617W        W79042  42.608  35.397  12.441
 6618W        W79043  44.729  21.677   2.676
 6619W        W79044  35.018  12.807  12.572
 6620W        W79045  14.809  37.837  12.890
 6621W        W79046  29.917  32.929  11.399
 6622W        W79047   7.887  11.136  11.581
 6623W        W79048   1.725  17.869  11.877
 6624W        W79049  38.806  12.794   4.108
 6625W        W79050  42.313  32.565  12.834
 6626W        W79051   0.518  41.225   2.510
 6627W        W79052  23.968  21.585   4.121
 6628W        W79053   3.426  26.031  11.031
 6629W        W79054   0.211  18.558  13.884
 6630W        W79055   5.706  15.288   0.368
 6631W        W79056  27.204  31.515  13.805
 6632W        W79057  29.126  35.100   1.148
 6633W        W79058  34.922  21.248   1.372
 6634W        W79059  33.637  20.799   0.395
 6635W        W79060   3.563  20.170  11.667
 6636W        W79061  30.926  14.419  13.112
 6637W        W79062  10.772  21.269   4.705
 6638W        W79063   0.689   5.347   4.265
 6639W        W79064  37.326  37.545   4.573
 6640W        W79065   2.748  16.783  14.961
 6641W        W79066  18.890  14.821   2.014
 6642W        W79067   2.778  23.049  14.707
 6643W        W79068  16.378  30.990   3.762
 6644W        W79069   9.502  30.952   1.805
 6645W        W79070  15.572   4.260   3.754
 6646W        W79071  18.372   9.195   4.122
 6647W        W79072  31.741   9.376  13.604
 6648W        W79073  14.190  32.181   4.203
 6649W        W79074  10.298   6.644   1.042
 6650W        W79075  38.941  12.585  11.867
 6651W        W79076  12.657  33.648  13.895
 6652W        W79077  27.601  18.161   0.045
 6653W        W79078   5.504  21.514   1.644
 6654W        W79079  34.962  24.921   0.410
 6655W        W79080  13.605   1.923  11.265
 6656W        W79081  43.324  33.417   4.170
 6657W        W79082   6.218  35.680   1.897
 6658W        W79083  43.246  17.996   2.716
 6659W        W79084  12.542  26.466  11.203
 6660W        W79085  13.086  21.278  11.906
 6661W        W79086   0.764   5.316  14.317
 6662W        W79087  15.723  13.525  12.433
 6663W        W79088  13.191  21.541   3.831
 6664W        W79089  42.894  12.728  14.720
 6665W        W79090  30.062  38.390   0.553
 6666W        W79091  41.844   8.366  13.906
 6667W        W79092  32.951  10.174   3.353
 6668W        W79093  42.645  30.889  12.090
 6669W        W79094   3.127  36.497   0.398
 6670W        W79095  39.259  35.224  12.904
 6671W        W79096  27.557  34.390   1.617
 6672W        W79097   3.959  18.161   5.032
 6673W        W79098   8.061  25.090  14.457
 6674W        W79099  32.354   9.789  11.635
 6675W        W79100   9.286  39.058  13.000
 6676W        W79101  12.004  39.525  12.032
 6677W        W79102  43.249  35.374   1.260
 6678W        W79103   4.503  18.290   2.673
 6679W        W79104   4.634  43.172   3.131
 6680W        W79105  15.125  39.981   3.265
 6681W        W79106  38.835  21.301   4.210
 6682W        W79107  17.549  23.092   1.899
 6683W        W79108  34.118   9.646   0.362
 6684W        W79109  16.007  41.211   1.274
 6685W        W79110  18.787  11.837  10.768
 6686W        W79111  29.167  18.125   4.668
 6687W        W79112   3.029  29.177  10.577
 6688W        W79113  28.694  18.128   0.711
 6689W        W79114  14.121  16.788   4.465
 6690W        W79115  43.980  43.262   2.336
 6691W        W79116   2.677  40.813  14.174
 6692W        W79117  31.223  13.407  13.376
 6693W        W79118  30.084  44.023   4.653
 6694W        W79119  41.812   8.520   4.474
 6695W        W79120  26.445   3.242  10.577
 6696W        W79121  14.045  20.682   4.555
 6697W        W79122  14.554   5.610   4.238
 6698W        W79123  27.733  42.450   1.956
 6699W        W79124  21.993  13.513  12.813
 6700W        W79125   9.639  43.893   4.489
 6701W        W79126  33.662  16.805  12.541
 6702W        W79127  38.480  28.665   0.855
 6703W        W79128   0.852  12.302   0.991
 6704W        W79129  26.107  15.159  10.755
 6705W        W79130  43.140   9.846   0.362
 6706W        W79131  32.398  22.740  10.084
 6707W        W79132  14.872  43.949  11.195
 6708W        W79133   8.516  37.943   0.718
 6709W        W79134   7.869  12.716   1.416
 6710W        W79135  41.574  16.895   4.511
 6711W        W79136   3.206  24.088  11.351
 6712W        W79137  33.383  13.430   4.851
 6713W        W79138  37.789  41.012  14.452
 6714W        W79139   3.774  44.934   0.883
 6715W        W79140  12.852   9.625   2.801
 6716W        W79141  25.883  14.721   3.649
 6717W        W79142  22.274   8.888  13.572
 6718W        W79143  15.751  11.714  14.868
 6719W        W79144  39.256  17.434  14.505
 6720W        W79145  14.142  13.697   3.148
 6721W        W79146   0.464  44.561   3.741
 6722W        W79147  27.458  13.152   1.827
 6723W        W79148  10.505  32.068   3.887
 6724W        W79149   2.435   7.759  13.390
 6725W        W79150  40.250   1.011   1.337
 6726W        W79151  34.440  43.952  14.823
 6727W        W79152  25.633  35.551  12.440
 6728W        W79153  43.770  22.624   1.313
 6729W        W79154  35.561  17.708   4.095
 6730W        W79155  43.839  20.161   1.477
 6731W        W79156  15.165  37.746   4.732
 6732W        W79157  20.009  16.892   5.050
 6733W        W79158   5.748  40.792   4.342
 6734W        W79159  27.279  32.448   2.542
 6735W        W79160  21.776   7.861  14.365
 6736W        W79161  32.869  32.951   0.167
 6737W        W79162  36.288   1.933   4.183
 6738W        W79163  28.010  37.343   0.225
 6739W        W79164  17.107   6.591   1.650
 6740W        W79165  18.293  14.839  11.437
 6741W        W79166  32.260  24.539  13.361
 6742W        W79167  12.179  26.716  12.655
 6743W        W79168  44.379  29.964  13.830
 6744W        W79169   8.220  38.276  12.932
 6745W        W79170  20.070  33.017  14.375
 6746W        W79171  14.813   4.000   3.925
 6747W        W79172  12.290   0.261  13.956
 6748W        W79173  44.031  42.436   0.816
 6749W        W79174  16.024  38.526   4.558
 6750W        W79175  14.855  27.530  10.686
 6751W        W79176  21.650  36.639   2.264
 6752W        W79177  41.512  17.099  14.734
 6753W        W79178   1.213  40.505   0.309
 6754W        W79179  36.231  18.855  10.734
 6755W        W79180  14.717  21.985   3.150
 6756W        W79181  14.932  43.273  14.485
 6757W        W79182   9.301  17.748  14.716
 6758W        W79183   7.823  41.784   1.686
 6759W        W79184  16.391   8.529   3.347
 6760W        W79185  14.099  29.659  13.597
 6761W        W79186  30.360  42.280  11.474
 6762W        W79187   4.190  21.699  12.865
 6763W        W79188  43.344   3.744  10.301
 6764W        W79189  26.897  20.037   2.650
 6765W        W79190   1.433  35.319   1.250
 6766W        W79191  14.701  15.030  11.167
 6767W        W79192  22.584  39.130  12.475
 6768W        W79193  41.988  21.475   4.275
 6769W        W79194  29.710  18.704   0.324
 6770W        W79195  21.682  17.048   0.781
 6771W        W79196   2.253  40.624   1.897
 6772W        W79197  16.251  29.107   1.779
 6773W        W79198  19.554  38.952   3.876
 6774W        W79199  18.114  44.044  14.546
 6775W        W79200   8.834   7.703   0.076
 6776W        W79201  22.737  35.899   3.229
 6777W        W79202  40.136  30.990   1.226
 6778W        W79203  39.823  36.094  14.207
 6779W        W79204  28.664   4.747  11.652
 6780W        W79205  34.341  44.227  13.814
 6781W        W79206  36.867  43.263   3.255
 6782W        W79207  39.985   3.132   1.867
 6783W        W79208   8.675   9.155  14.799
 6784W        W79209  23.914  40.176   1.702
 6785W        W79210   2.744  12.729   0.203
 6786W        W79211  29.129  13.355   3.691
 6787W        W79212  17.536   6.965   0.817
 6788W        W79213  21.896  16.556   3.975
 6789W        W79214   8.161   8.422  10.686
 6790W        W79215  11.161  23.104   0.963
 6791W        W79216  40.724  24.600   0.257
 6792W        W79217  25.715  42.886  12.558
 6793W        W79218   3.455  22.296  10.977
 6794W        W79219  20.212  31.496  11.178
 6795W        W79220  25.529   2.434  13.435
 6796W        W79221   1.273  15.760   1.257
 6797W        W79222   0.757  30.135   4.172
 6798W        W79223  19.471   6.891   3.035
 6799W        W79224  44.485  39.376   2.041
 6800W        W79225   0.644  37.241   4.086
 6801W        W79226  24.677  12.744   2.406
 6802W        W79227  26.447  15.149  12.982
 6803W        W79228   4.238  12.125  14.441
 6804W        W79229  37.064  41.578   1.744
 6805W        W79230  20.171  42.460  10.625
 6806W        W79231  19.236   8.815   3.851
 6807W        W79232  15.844  34.045   0.782
 6808W        W79233  17.860  34.884   0.347
 6809W        W79234   4.641  34.905  12.453
 6810W        W79235  15.418  34.009  13.004
 6811W        W79236   0.926  35.391   2.329
 6812W        W79237  44.314  20.085   1.692
 6813W        W79238  11.396  23.631  13.850
 6814W        W79239  25.731   5.175   4.431
 6815W        W79240  21.312  42.734  10.688
 6816W        W79241  42.092  32.327   2.098
 6817W        W79242  42.812  33.193  12.446
 6818W        W79243  29.503  20.041  13.019
 6819W        W79244  17.610  11.221   1.342
 6820W        W79245  41.537   3.812  14.999
 6821W        W79246   9.352  26.370   4.375
 6822W        W79247  37.273  11.251   2.318
 6823W        W79248  39.375  11.141  11.759
 6824W        W79249  17.512  34.739  14.932
 6825W        W79250  32.615  16.597   2.883
 6826W        W79251   4.960  39.828   1.640
 6827W        W79252  44.698  30.565  14.753
 6828W        W79253  39.121  43.907  12.543
 6829W        W79254  13.845  37.066  13.779
 6830W        W79255  41.567  17.891   1.734
 6831W        W79256  16.766  41.438   4.113
 6832W        W79257   7.350   8.208  14.372
 6833W        W79258  35.353   4.985  13.548
 6834W        W79259   5.981   4.949   1.681
 6835W        W79260  19.551   5.748   1.828
 6836W        W79261  23.126  16.540   1.261
 6837W        W79262  34.869  30.825   3.736
 6838W        W79263  33.414   9.866   3.822
 6839W        W79264  27.278   9.238  11.531
 6840W        W79265   1.776  12.733  14.112
 6841W        W79266  13.265  28.411   1.397
 6842W        W79267   4.238  16.000   4.331
 6843W        W79268   3.231  28.864   1.930
 6844W        W79269  22.517  12.662   2.879
 6845W        W79270   8.489  28.398   4.818
 6846W        W79271  32.525   8.510   5.010
 6847W        W79272  38.800  14.539   2.483
 6848W        W79273  11.415  26.898   0.115
 6849W        W79274  21.175  41.360   5.202
 6850W        W79275  39.317  26.994   3.933
 6851W        W79276   9.469  15.404   3.630
 6852W        W79277  30.636  13.379  12.011
 6853W        W79278  32.097  43.379   3.546
 6854W        W79279  25.968  44.858   1.776
 6855W        W79280  18.995  19.670  14.014
 6856W        W79281   9.090   5.188   4.028
 6857W        W79282  14.567  30.755   4.579
 6858W        W79283  23.423  34.092  11.883
 6859W        W79284  40.475  34.994  14.703
 6860W        W79285  20.695  15.926   4.434
 6861W        W79286  32.806   5.637  12.876
 6862W        W79287  13.998  37.854  13.973
 6863W        W79288  21.097   6.188   4.704
 6864W        W79289  28.475  21.790   0.744
 6865W        W79290   5.919  42.279   2.352
 6866W        W79291  34.778  36.049   2.758
 6867W        W79292  10.894  35.457   2.030
 6868W        W79293  22.750  21.217  14.944
 6869W        W79294  43.205  31.042   1.939
 6870W        W79295  27.162  22.777   2.436
 6871W        W79296  33.122  25.201  10.744
 6872W        W79297   1.077  42.472   2.559
 6873W        W79298  24.681   8.723   1.014
 6874W        W79299  29.440  22.995  11.988
 6875W        W79300  39.676   3.293   0.772
 6876W        W79301  40.809  31.493   4.396
 6877W        W79302  25.784  27.054  13.426
 6878W        W79303   3.338  38.878  11.735
 6879W        W79304  22.308  22.593  12.866
 6880W        W79305  10.995  15.037   3.783
 6881W        W79306   7.250  34.784  11.502
 6882W        W79307  24.383  38.948   1.578
 6883W        W79308   4.872   2.446  10.528
 6884W        W79309  41.400  14.422   2.684
 6885W        W79310   2.269  33.716  11.028
 6886W        W79311  39.187  38.528  10.082
 6887W        W79312   1.113  30.542   4.181
 6888W        W79313  41.085  20.956  13.367
 6889W        W79314  15.097  25.580   2.204
 6890W        W79315  32.522  34.057   0.534
 6891W        W79316  18.757   3.298   2.351
 6892W        W79317  30.120  12.830  13.458
 6893W        W79318  19.202  24.027   1.841
 6894W        W79319  21.159   3.373   5.042
 6895W        W79320   0.288  11.785  11.584
 6896W        W79321  38.911  15.291   3.936
 6897W        W79322  17.565  39.366   2.294
 6898W        W79323   2.998  29.930  14.805
 6899W        W79324  27.216  32.012   4.132
 6900W        W79325  27.545  38.547  14.195
 6901W        W79326  15.372  40.548  13.434
 6902W        W79327  19.671   3.509  11.271
 6903W        W79328   1.284   2.808  13.447
 6904W        W79329  35.102  20.927  12.039
 6905W        W79330  13.331  14.508  14.269
 6906W        W79331  36.731  12.179  12.438
 6907W        W79332  16.341  29.549   3.594
 6908W        W79333  10.839  19.645   4.585
 6909W        W79334  23.790   2.572   4.012
 6910W        W79335  39.965  26.650   3.225
 6911W        W79336   6.288  36.937  10.534
 6912W        W79337  37.495  13.048   1.645
 6913W        W79338  33.960  17.541  14.731
 6914W        W79339  27.301   9.371  13.633
 6915W        W79340  40.496  37.131   3.142
 6916W        W79341  39.535   2.297   4.486
 6917W        W79342   2.368  19.972   2.030
 6918W        W79343  31.441  28.196  14.574
 6919W        W79344   4.186  33.631   4.599
 6920W        W79345  40.327  29.166  11.169
 6921W        W79346   7.109   6.666   4.552
 6922W        W79347   7.753  30.115   3.372
 6923W        W79348  30.966  30.614  14.496
 6924W        W79349  18.682  23.257   3.060
 6925W        W79350   1.434  23.494   4.124
 6926W        W79351  43.402   7.750  13.451
 6927W        W79352  19.983  29.934  11.988
 6928W        W79353  22.184   1.921   3.718
 6929W        W79354  20.695  40.756   0.911
 6930W        W79355  16.417  40.952   2.691
 6931W        W79356  17.603  19.300  13.433
 6932W        W79357  10.703  17.007   3.629
 6933W        W79358  31.223  16.669   0.808
 6934W        W79359   8.242  14.940   1.122
 6935W        W79360  38.874  32.084   3.436
 6936W        W79361   8.726  40.140   0.228
 6937W        W79362  22.236  38.364  14.803
 6938W        W79363  11.548   3.299   3.792
 6939W        W79364   7.994  36.981   3.735
 6940W        W79365   2.841  34.923  11.696
 6941W        W79366   2.684  42.367   0.213
 6942W        W79367  15.150   6.600   1.683
 6943W        W79368   5.890  19.565  11.294
 6944W        W79369  28.500  33.110  10.804
 6945W        W79370  14.749   8.383  10.708
 6946W        W79371  40.931  31.367   0.901
 6947W        W79372  22.171  27.445  13.805
 6948W        W79373  25.045  14.318   1.413
 6949W        W79374   8.713  43.782  10.487
 6950W        W79375  35.915   0.769  10.665
 6951W        W79376  28.148  31.267  10.726
 6952W        W79377  17.566  13.768  11.986
 6953W        W79378  16.825  44.536  10.401
 6954W        W79379  16.096   5.931  10.535
 6955W        W79380  41.809  16.716   0.764
 6956W        W79381  23.620  23.565  11.208
 6957W        W79382  10.764  12.318  11.143
 6958W        W79383  25.846  41.381  10.700
 6959W        W79384  35.903  17.715   3.606
 6960W        W79385  14.067  19.405  14.735
 6961W        W79386  20.387  43.016   4.231
 6962W        W79387  18.830   9.422   4.147
 6963W        W79388  20.064  38.396  12.480
 6964W        W79389  21.127  40.100   3.939
 6965W        W79390   8.438   1.863  12.036
 6966W        W79391  19.586  17.358   1.484
 6967W        W79392  20.688  41.401   1.812
 6968W        W79393  19.147  24.783   2.731
 6969W        W79394  31.062  23.469  11.910
 6970W        W79395  38.879  22.099   0.131
 6971W        W79396   5.366  39.860  11.175
 6972W        W79397  36.028  17.813   2.607
 6973W        W79398  18.752   7.666  13.851
 6974W        W79399  25.141  26.143  12.584
 6975W        W79400  20.210   2.183  13.355
 6976W        W79401  18.444   6.681   2.711
 6977W        W79402   9.340  14.095   1.257
 6978W        W79403  37.844   3.375  13.399
 6979W        W79404   9.752   7.436   0.027
 6980W        W79405  13.113  37.536   1.831
 6981W        W79406  33.948  12.595  14.241
 6982W        W79407   1.470   7.367  13.864
 6983W        W79408   3.177  33.563   3.047
 6984W        W79409  25.484  31.031  13.478
 6985W        W79410  39.883  44.224  11.058
 6986W        W79411  24.431  11.593  12.226
 6987W        W79412  23.468   0.559   2.880
 6988W        W79413  35.863  11.415   3.551
 6989W        W79414  14.774   5.690   2.950
 6990W        W79415   6.980  25.538   4.186
 6991W        W79416  15.700  38.890   0.706
 6992W        W79417  23.992  30.423   1.327
 6993W        W79418  33.972  23.244  13.823
 6994W        W79419   0.378  42.462   3.149
 6995W        W79420  14.225  25.103  14.356
 6996W        W79421   4.248  34.510   3.137
 6997W        W79422  41.831  35.623   2.667
 6998W        W79423  34.685   7.984   3.668
 6999W        W79424   2.405  43.033  14.553
 7000W        W79425  25.704  38.548   2.286
 7001W        W79426  39.417  42.035   3.212
 7002W        W79427   6.839  12.572   3.509
 7003W        W79428  21.760  22.725   2.400
 7004W        W79429  29.102   9.453   0.139
 7005W        W79430  43.867   1.125  14.825
 7006W        W79431  27.065  20.447   4.288
 7007W        W79432   0.828  13.643  13.049
 7008W        W79433   1.695  39.026   1.812
 7009W        W79434  43.000   0.347   1.842
 7010W        W79435   0.103  10.840  13.396
 7011W        W79436  30.319  14.938   4.884
 7012W        W79437  22.521  21.603   0.205
 7013W        W79438  37.862  14.208   3.899
 7014W        W79439  15.087  44.459   2.468
 7015W        W79440  29.980  14.851  11.614
 7016W        W79441  23.491  14.802  11.413
 7017W        W79442   5.770  37.982   2.282
 7018W        W79443  16.136  24.073   0.711
 7019W        W79444  13.436   7.384  14.448
 7020W        W79445  33.352   8.659   4.499
 7021W        W79446  43.512  27.084   1.933
 7022W        W79447  36.279  12.653   4.265
 7023W        W79448  40.291  20.551  12.896
 7024W        W79449  40.254   9.794  12.613
 7025W        W79450  30.930  12.234  11.533
 7026W        W79451  21.656  41.025   2.650
 7027W        W79452  40.800  39.437  12.991
 7028W        W79453  31.608  40.947  14.978
 7029W        W79454  27.706  37.875  14.580
 7030W        W79455  33.341  30.499   0.826
 7031W        W79456  33.039  13.038   3.347
 7032W        W79457  44.202  26.309  14.334
 7033W        W79458  12.610   6.185   3.307
 7034W        W79459   1.454  24.876   5.069
 7035W        W79460  36.523   6.716  14.048
 7036W        W79461  20.985   4.180  11.226
 7037W        W79462   2.698  40.740  12.735
 7038W        W79463  14.157  30.142   3.676
 7039W        W79464  42.879  16.470   1.173
 7040W        W79465  34.287  37.948   4.031
 7041W        W79466  40.790   4.481   0.792
 7042W        W79467   4.398  33.300  14.446
 7043W        W79468   1.384   1.733   2.937
 7044W        W79469   1.373  10.066  13.516
 7045W        W79470  29.915   3.827   4.154
 7046W        W79471  44.527   4.359   1.411
 7047W        W79472  37.996   4.227   2.353
 7048W        W79473  42.745  29.410  13.073
 7049W        W79474   5.406   7.490   0.668
 7050W        W79475  21.148  33.883   3.318
 7051W        W79476  10.294   5.490   1.815
 7052W        W79477  43.112  12.631  12.196
 7053W        W79478  16.480  10.754   4.333
 7054W        W79479  26.468  10.675   3.134
 7055W        W79480  34.817   1.300   3.367
 7056W        W79481  35.888  27.578   3.613
 7057W        W79482  41.002  27.514   1.628
 7058W        W79483  11.066  36.591   2.168
 7059W        W79484   0.867   5.010   2.808
 7060W        W79485  30.250  41.241   4.113
 7061W        W79486  13.582  10.165  11.850
 7062W        W79487   8.056  22.709  12.004
 7063W        W79488  13.229  10.349   2.521
 7064W        W79489   7.045  25.626   3.551
 7065W        W79490  42.004  17.538   3.694
 7066W        W79491  16.735   1.719  13.556
 7067W        W79492  20.509   7.180   1.714
 7068W        W79493   7.486   9.534  13.345
 7069W        W79494   8.213  11.758   1.230
 7070W        W79495  38.862  39.542  14.827
 7071W        W79496   6.267  10.267  14.100
 7072W        W79497  10.077  20.894   1.217
 7073W        W79498  18.595  20.935   0.774
 7074W        W79499   2.624   3.766   4.029
 7075W        W79500  11.120   3.055   0.260
 7076W        W79501   8.268  30.921  13.926
 7077W        W79502   5.362  29.210   3.562
 7078W        W79503  28.491  16.277   0.004
 7079W        W79504   3.276  26.807   2.907
 7080W        W79505   3.232  37.228   0.876
 7081W        W79506  27.594  39.894   4.983
 7082W        W79507   9.347   2.202   3.691
 7083W        W79508  29.154  29.948  13.496
 7084W        W79509   6.273   1.483   2.365
 7085W        W79510  22.045  13.663   4.225
 7086W        W79511  38.403   5.808   4.191
 7087W        W79512  42.610   6.526  13.040
 7088W        W79513  22.568  30.894   1.053
 7089W        W79514  22.419  43.673   3.660
 7090W        W79515  12.618  20.601  10.669
 7091W        W79516  41.420  30.533  11.908
 7092W        W79517  31.018   2.225  12.454
 7093W        W79518   3.024  25.673   2.323
 7094W        W79519  19.612  30.095   3.362
 7095W        W79520  37.326  42.404   1.627
 7096W        W79521   1.517  43.386   2.137
 7097W        W79522  11.132  30.757  13.656
 7098W        W79523  20.229   3.736   2.753
 7099W        W79524  29.022  28.550   3.792
 7100W        W79525  26.322  36.371   0.242
 7101W        W79526  41.634  23.791   2.018
 7102W        W79527  18.662  23.716  10.761
 7103W        W79528  38.932  44.384   5.105
 7104W        W79529  35.410  16.997  13.999
 7105W        W79530  10.276  17.892  10.284
 7106W        W79531  14.424  24.039   0.990
 7107W        W79532  27.750  18.962  13.360
 7108W        W79533  43.545  18.619  11.133
 7109W        W79534  19.273  43.771  12.141
 7110W        W79535  11.762  23.601   0.358
 7111W        W79536  27.921  24.321   0.396
 7112W        W79537   5.900  13.802   4.707
 7113W        W79538  21.888  36.560   0.975
 7114W        W79539  18.549  26.086   3.914
 7115W        W79540  42.271  26.183  13.817
 7116W        W79541  26.913  43.614   4.640
 7117W        W79542  12.817  40.367   0.902
 7118W        W79543  24.842  14.264   3.359
 7119W        W79544   7.515  30.779  13.126
 7120W        W79545  12.275   4.309  10.370
 7121W        W79546  27.713  11.753   1.447
 7122W        W79547  37.633  11.452   4.087
 7123W        W79548  43.038   0.260  11.680
 7124W        W79549  36.645  30.471   2.645
 7125W        W79550  29.008  28.712  12.849
 7126W        W79551   6.813  39.280   1.458
 7127W        W79552  16.201  20.521   3.391
 7128W        W79553  22.001  44.905   2.874
 7129W        W79554  40.700  32.615   1.909
 7130W        W79555  12.531  20.318  11.099
 7131W        W79556  17.143  34.697  13.531
 7132W        W79557   6.509  38.007   0.889
 7133W        W79558   4.042  36.049   0.551
 7134W        W79559  20.978  21.147  13.341
 7135W        W79560  39.665   0.401   3.207
 7136W        W79561  15.199   9.383   2.304
 7137W        W79562  16.670  27.967  12.000
 7138W        W79563   9.704  12.689  12.491
 7139W        W79564  32.607  35.133   3.617
 7140W        W79565  44.549  14.706  11.579
 7141W        W79566  41.355  27.519  11.987
 7142W        W79567  37.568  35.862  10.582
 7143W        W79568  23.279   5.863   0.821
 7144W        W79569  37.882  28.178   1.346
 7145W        W79570  23.502   6.104  11.703
 7146W        W79571  39.908  11.231  13.277
 7147W        W79572  13.316  34.144   0.747
 7148W        W79573   8.150  10.125  11.928
 7149W        W79574   2.765  20.377  11.247
 7150W        W79575  38.546  16.328   3.702
 7151W        W79576  32.640  10.600   1.171
 7152W        W79577  10.134  20.504   3.744
 7153W        W79578  37.240  31.110  11.064
 7154W        W79579  18.104   1.791  10.593
 7155W        W79580  17.090  31.994   5.151
 7156W        W79581  42.911  35.233   4.133
 7157W        W79582   7.195  20.259  11.524
 7158W        W79583  15.629  40.477  13.890
 7159W        W79584   9.693   6.358   5.054
 7160W        W79585  33.132  18.183  12.931
 7161W        W79586  21.213  25.159   0.497
 7162W        W79587  27.442   1.978   2.519
 7163W        W79588  42.045   6.840  10.963
 7164W        W79589  17.336  23.228   3.164
 7165W        W79590  16.852   7.740   4.546
 7166W        W79591  42.772   6.432  10.722
 7167W        W79592  11.649  43.000   2.280
 7168W        W79593  25.533  15.775   3.568
 7169W        W79594  33.176   8.772   3.649
 7170W        W79595  12.177  14.675  12.428
 7171W        W79596   0.309  23.400  12.987
 7172W        W79597  31.022   4.719   4.917
 7173W        W79598  44.447  32.948  11.991
 7174W        W79599   5.831  43.793  11.137
 7175W        W79600  40.043  35.893  12.013
 7176W        W79601   3.113  23.477  13.478
 7177W        W79602   5.855  14.333  12.324
 7178W        W79603  34.567  25.838   4.533
 7179W        W79604  37.704   7.983  11.109
 7180W        W79605  23.742  39.397   3.681
 7181W        W79606   0.934  27.610  13.473
 7182W        W79607  36.806  38.298  11.853
 7183W        W79608   7.771  37.615   3.276
 7184W        W79609  20.253  23.559   3.120
 7185W        W79610  10.184  28.098  14.795
 7186W        W79611  40.536   8.654   4.575
 7187W        W79612  40.465  21.083  14.653
 7188W        W79613  21.192  43.926   0.784
 7189W        W79614  39.361   6.812   1.843
 7190W        W79615  16.225   8.827   1.023
 7191W        W79616  30.874  38.291  12.928
 7192W        W79617   9.690  28.695  11.888
 7193W        W79618  20.488  39.036   3.701
 7194W        W79619  42.772  35.899   1.880
 7195W        W79620  15.488  12.633  12.600
 7196W        W79621  19.114  12.881   4.707
 7197W        W79622  17.453  37.707   0.743
 7198W        W79623  24.940  20.060  10.695
 7199W        W79624  26.406  36.177   2.668
 7200W        W79625  16.897  28.646   3.640
 7201W        W79626  24.041  36.066  12.020
 7202W        W79627  32.336  20.816  12.945
 7203W        W79628  33.133  41.451  14.190
 7204W        W79629  37.901  34.457  11.402
 7205W        W79630  23.012   5.414  14.442
 7206W        W79631   3.838  20.105   0.872
 7207W        W79632  15.727   6.732  13.060
 7208W        W79633  11.620  40.260  10.902
 7209W        W79634  39.625  23.197   4.851
 7210W        W79635  27.985  18.258  12.906
 7211W        W79636  44.440   5.326  10.832
 7212W        W79637  37.101  39.565   0.671
 7213W        W79638  12.773  13.370   0.150
 7214W        W79639  27.833  38.017  14.068
 7215W        W79640  26.950  36.880  13.986
 7216W        W79641  43.908  24.279  13.262
 7217W        W79642   1.789  23.763  10.556
 7218W        W79643  19.134   7.452  12.097
 7219W        W79644  30.601  31.993  14.863
 7220W        W79645  28.269   6.100   4.091
 7221W        W79646  19.492  38.848  14.162
 7222W        W79647  39.294  21.232   4.740
 7223W        W79648  21.443   3.705  11.900
 7224W        W79649  24.543  19.333   4.184
 7225W        W79650  20.142  29.987   0.259
 7226W        W79651  30.630  30.924   2.706
 7227W        W79652  42.817  10.113   3.247
 7228W        W79653  16.292   0.965   2.714
 7229W        W79654  29.711   2.848  14.937
 7230W        W79655  32.093  11.314  14.806
 7231W        W79656   5.241  19.076  13.416
 7232W        W79657   8.346   9.258   3.909
 7233W        W79658  44.539  25.987   1.252
 7234W        W79659  10.864  41.640  11.578
 7235W        W79660   6.343  32.522   0.040
 7236W        W79661   8.780  27.638   4.583
 7237W        W79662  20.769  20.018   0.232
 7238W        W79663   9.714   6.303  11.528
 7239W        W79664  16.822  20.233  11.981
 7240W        W79665   4.274  42.430  10.755
 7241W        W79666   9.332  39.612   0.703
 7242W        W79667  25.735  20.013  10.310
 7243W        W79668   3.131  22.618   4.523
 7244W        W79669   9.733   0.959  11.755
 7245W        W79670  15.048  12.799   3.187
 7246W        W79671  17.783  15.233   1.297
 7247W        W79672  15.987   2.712  11.684
 7248W        W79673   9.791   2.663  12.891
 7249W        W79674  34.846  31.111  12.969
 7250W        W79675  23.506  18.622   2.818
 7251W        W79676  40.528  44.074   4.178
 7252W        W79677  17.616  22.590   4.175
 7253W        W79678  38.001  37.480  12.993
 7254W        W79679  31.019  27.087   2.421
 7255W        W79680  21.733  14.829  13.062
 7256W        W79681  38.402  42.015  14.558
 7257W        W79682  42.601  28.809   4.063
 7258W        W79683  22.746  18.191  14.398
 7259W        W79684  36.968  38.518   2.875
 7260W        W79685  20.150  25.122   1.385
 7261W        W79686   1.899  18.699  11.142
 7262W        W79687  42.776  24.508   4.617
 7263W        W79688  30.921  13.307   4.473
 7264W        W79689  28.979  15.670   0.436
 7265W        W79690  40.255  25.980   3.129
 7266W        W79691  29.635  17.503  11.395
 7267W        W79692  16.433  14.930  11.664
 7268W        W79693   0.580  12.900  11.107
 7269W        W79694   6.925   1.879  14.977
 7270W        W79695   4.399  30.054  11.805
 7271W        W79696   6.195  39.078  11.825
 7272W        W79697   2.752   8.134   3.354
 7273W        W79698  28.158  21.689  12.644
 7274W        W79699  20.660  25.214   1.717
 7275W        W79700   7.372   6.446  12.932
 7276W        W79701  20.212  19.372   2.672
 7277W        W79702  23.341  19.598   4.969
 7278W        W79703  12.874  12.831  12.361
 7279W        W79704  21.720  36.042   4.146
 7280W        W79705  36.681  26.725   4.545
 7281W        W79706   3.017  27.175  12.136
 7282W        W79707  16.872  40.161  11.458
 7283W        W79708  40.835  11.609  13.455
 7284W        W79709  23.698  21.521   1.506
 7285W        W79710   6.226  36.584  11.093
 7286W        W79711  38.743   1.020   4.664
 7287W        W79712  42.047  39.757  13.564
 7288W        W79713  31.870  28.541   4.619
 7289W        W79714  12.166  36.269  13.126
 7290W        W79715  27.430  38.345  13.297
 7291W        W79716   1.816  11.625  10.734
 7292W        W79717  43.757  10.722   0.326
 7293W        W79718  26.173  26.461   3.893
 7294W        W79719   7.313  13.642   1.318
 7295W        W79720   2.501  34.701  12.064
 7296W        W79721  24.250  39.296  13.356
 7297W        W79722   1.401  15.522   1.835
 7298W        W79723  28.998  34.251   3.972
 7299W        W79724   3.675   4.446   1.801
 7300W        W79725  27.472  33.632  11.875
 7301W        W79726  20.992  27.815  11.630
 7302W        W79727  24.516   6.202   0.728
 7303W        W79728  32.997  36.340  11.106
 7304W        W79729  40.320   8.225   2.912
 7305W        W79730  23.187  19.289   0.563
 7306W        W79731  11.829  14.438   0.267
 7307W        W79732  32.491  40.101  11.180
 7308W        W79733  36.863  10.397  11.202
 7309W        W79734  26.479  19.411   3.154
 7310W        W79735   3.717  41.825   2.736
 7311W        W79736  38.922  33.122   3.186
 7312W        W79737  10.656   4.887  12.063
 7313W        W79738  36.333  12.783   3.379
 7314W        W79739   6.248  29.130  11.147
 7315W        W79740  32.836   6.904  12.557
 7316W        W79741  26.992  21.957   0.507
 7317W        W79742   3.417   1.207  14.382
 7318W        W79743   5.376  36.328   3.828
 7319W        W79744  27.667  20.164  11.964
 7320W        W79745  36.061  34.332  12.972
 7321W        W79746  37.288  32.129   4.238
 7322W        W79747  39.995  42.331  10.799
 7323W        W79748  18.297   4.956   3.154
 7324W        W79749  26.576  24.193  12.488
 7325W        W79750  38.150  27.146  11.877
 7326W        W79751  19.006   5.902  11.073
 7327W        W79752  24.913  44.556  11.077
 7328W        W79753  25.342  36.372   1.931
 7329W        W79754  43.394   4.460  13.453
 7330W        W79755  27.954  34.673   1.448
 7331W        W79756  18.652  38.250  11.229
 7332W        W79757   7.874  21.123   4.980
 7333W        W79758  31.990  35.637   3.254
 7334W        W79759  11.779  12.878   2.847
 7335W        W79760  27.093  10.270   4.711
 7336W        W79761  44.441   4.523  10.266
 7337W        W79762  42.911  14.165   3.627
 7338W        W79763  26.008  11.848  10.392
 7339W        W79764  11.560   5.312  14.354
 7340W        W79765   1.906  19.739  12.906
 7341W        W79766  22.736  12.051   0.477
 7342W        W79767   8.688   0.354   3.308
 7343W        W79768  20.507  44.881   1.798
 7344W        W79769  33.720   9.712   3.443
 7345W        W79770  30.509   2.933   1.234
 7346W        W79771  37.432  15.442   5.107
 7347W        W79772  14.167   7.896  13.076
 7348W        W79773   7.265   5.952  10.741
 7349W        W79774  15.398   7.939   2.912
 7350W        W79775   5.917  24.600  13.326
 7351W        W79776  44.001  25.614  13.961
 7352W        W79777   8.929  31.977   0.826
 7353W        W79778   3.812  25.452  12.558
 7354W        W79779  18.851  30.429   3.710
 7355W        W79780   4.330  18.734   2.470
 7356W        W79781   9.617   1.229   1.771
 7357W        W79782  43.983   9.417   4.156
 7358W        W79783  15.035  42.191  13.536
 7359W        W79784  22.258  38.141   0.367
 7360W        W79785  27.259  31.183   2.108
 7361W        W79786  15.328  25.437   1.737
 7362W        W79787  18.648   2.303   4.083
 7363W        W79788  27.214  25.572   2.764
 7364W        W79789  31.151   3.324   3.992
 7365W        W79790   3.964  38.802   4.762
 7366W        W79791  27.880  35.647   4.079
 7367W        W79792  19.425  34.931   1.207
 7368W        W79793  17.578  13.569  11.504
 7369W        W79794  35.327  25.225   2.165
 7370W        W79795  17.622   5.170  13.014
 7371W        W79796  44.966  28.023  12.888
 7372W        W79797  19.501  36.384   2.328
 7373W        W79798  23.494  27.897   1.395
 7374W        W79799   8.842  37.864   9.928
 7375W        W79800  15.765  42.809   4.357
 7376W        W79801  42.279  35.558   4.746
 7377W        W79802  16.298  27.061   3.773
 7378W        W79803  42.975  20.222   4.108
 7379W        W79804  37.233  38.972  12.956
 7380W        W79805   7.344  32.622  14.750
 7381W        W79806  40.820  20.172  13.735
 7382W        W79807   8.887   3.286   3.111
 7383W        W79808   1.946  15.022  14.895
 7384W        W79809  24.211  25.907   1.182
 7385W        W79810  38.611  17.908  12.661
 7386W        W79811  36.158  37.119  10.761
 7387W        W79812  31.155  16.841  13.747
 7388W        W79813   3.190   3.926   1.371
 7389W        W79814  29.845  30.025  14.759
 7390W        W79815  14.861   3.672   2.057
 7391W        W79816  34.324  38.190  12.040
 7392W        W79817   2.702  15.255   3.571
 7393W        W79818  29.990  17.211   0.011
 7394W        W79819  32.090   0.397  11.702
 7395W        W79820  17.042  10.296  14.813
 7396W        W79821  24.279  19.466  10.095
 7397W        W79822  19.570  12.860   4.467
 7398W        W79823  36.560   6.967   2.825
 7399W        W79824  30.978   7.817  11.893
 7400W        W79825  32.973  40.426   4.550
 7401W        W79826  19.612  35.798  10.823
 7402W        W79827   2.483   2.898  12.628
 7403W        W79828  14.215  32.641   0.501
 7404W        W79829  21.232  31.688  14.989
 7405W        W79830  40.752  42.941  13.789
 7406W        W79831  17.000  28.589  14.614
 7407W        W79832   0.552  25.549   1.907
 7408W        W79833  28.713   5.800   4.935
 7409W        W79834  33.989  42.319  14.374
 7410W        W79835  39.211  13.110   1.695
 7411W        W79836  27.490   6.663  13.052
 7412W        W79837  41.441  26.036   4.511
 7413W        W79838  12.775  13.388   4.144
 7414W        W79839   1.047  33.022   2.384
 7415W        W79840  24.709  16.734  14.058
 7416W        W79841  25.595   1.207  10.750
 7417W        W79842  21.923  19.555   3.181
 7418W        W79843   3.212  37.520   3.709
 7419W        W79844  23.083  10.049   5.096
 7420W        W79845  37.766   5.253   4.493
 7421W        W79846   1.210   9.307  14.038
 7422W        W79847   8.881  14.608   2.824
 7423W        W79848  34.369  13.935  12.240
 7424W        W79849  40.595  12.332  10.735
 7425W        W79850  36.800  16.700   1.874
 7426W        W79851   8.495   7.286   5.053
 7427W        W79852   3.399  44.567   4.264
 7428W        W79853   9.954  24.723   1.384
 7429W        W79854  37.611  22.178   2.680
 7430W        W79855  37.063  24.730  14.262
 7431W        W79856  20.676  37.394   1.277
 7432W        W79857  39.745  17.831   3.087
 7433W        W79858   2.903  26.031  10.910
 7434W        W79859   3.158  10.022  11.445
 7435W        W79860  18.779  19.735   5.116
 7436W        W79861  19.290  22.670   2.863
 7437W        W79862  31.169  27.513   1.809
 7438W        W79863   5.160  33.019   4.227
 7439W        W79864  23.746  22.785  13.144
 7440W        W79865   4.646   4.679  11.012
 7441W        W79866  26.564  15.182   0.326
 7442W        W79867  13.032  22.290   2.228
 7443W        W79868  43.855  38.610   3.250
 7444W        W79869  18.200  31.036   3.730
 7445W        W79870   9.387   8.376   5.110
 7446W        W79871  16.180   2.376   3.888
 7447W        W79872  15.182  23.185   0.850
 7448W        W79873  24.000  12.110   1.869
 7449W        W79874  42.834  13.235   0.477
 7450W        W79875  25.684  37.883  13.392
 7451W        W79876   1.249  32.631  10.849
 7452W        W79877  25.591  11.759   2.119
 7453W        W79878  27.998  21.042   3.246
 7454W        W79879  30.933  43.022   1.757
 7455W        W79880   0.439  12.687   3.507
 7456W        W79881  21.707  26.015   0.923
 7457W        W79882   6.945   0.719   4.405
 7458W        W79883  42.473  17.782   3.778
 7459W        W79884  32.380  24.621  10.653
 7460W        W79885  21.523   4.987  13.556
 7461W        W79886  31.123  34.150  11.876
 7462W        W79887  11.381  16.743  12.401
 7463W        W79888  43.778   2.307   1.607
 7464W        W79889  16.826  12.585  13.810
 7465W        W79890  42.203   9.654   3.863
 7466W        W79891  15.117  43.995   4.142
 7467W        W79892  37.856  26.934  10.657
 7468W        W79893  21.009  37.009   1.756
 7469W        W79894  34.799  17.309  13.034
 7470W        W79895  20.847  12.410  11.550
 7471W        W79896  37.005  23.867  14.782
 7472W        W79897   3.941  37.469  12.613
 7473W        W79898  25.243  10.220   1.814
 7474W        W79899  41.973  10.944  10.711
 7475W        W79900   1.959   4.917   0.191
 7476W        W79901  41.867  20.567  10.686
 7477W        W79902  35.355  14.956  11.229
 7478W        W79903  18.443  18.320  11.446
 7479W        W79904  21.239  13.254   4.254
 7480W        W79905  40.932  39.067  12.014
 7481W        W79906  36.019  44.229   4.111
 7482W        W79907  30.156  27.358  13.061
 7483W        W79908   0.371  11.222  14.752
 7484W        W79909  39.589  26.939  12.191
 7485W        W79910  31.750  43.050   2.686
 7486W        W79911  17.584  23.643  12.906
 7487W        W79912  13.088  39.699   1.975
 7488W        W79913  29.145  35.415   3.161
 7489W        W79914  14.852  44.368  10.666
 7490W        W79915   2.559  22.179  11.149
 7491W        W79916  20.607  19.041   2.729
 7492W        W79917   3.119  15.608  14.930
 7493W        W79918  13.225  39.287  12.006
 7494W        W79919  41.373  36.031   2.005
 7495W        W79920  31.703  35.880  11.032
 7496W        W79921  24.562   9.758   4.567
 7497W        W79922   4.884  13.562   0.350
 7498W        W79923  33.606   1.471  13.281
 7499W        W79924  35.691  42.764   2.922
 7500W        W79925  16.477  35.496  13.534
 7501W        W79926   1.486  26.904   3.567
 7502W        W79927  40.586  16.332   1.840
 7503W        W79928  30.360  31.617   2.307
 7504W        W79929  35.791  22.203   2.481
 7505W        W79930  31.150  22.563   2.623
 7506W        W79931  22.518  36.753  13.569
 7507W        W79932  39.134  16.205  13.555
 7508W        W79933  18.565  19.781  11.074
 7509W        W79934  39.577  39.661  11.842
 7510W        W79935  10.860   2.291   2.191
 7511W        W79936  15.250  41.595   3.408
 7512W        W79937   9.633  27.226   0.485
 7513W        W79938  19.306   9.821  12.036
 7514W        W79939  36.345  28.505  11.411
 7515W        W79940  40.403  15.045  14.206
 7516W        W79941  24.044  26.056  14.934
 7517W        W79942  26.876  35.946   2.680
 7518W        W79943   5.940   1.286  13.327
 7519W        W79944  34.004  29.388  14.533
 7520W        W79945  39.913   8.382   1.189
 7521W        W79946  32.649  35.618  10.801
 7522W        W79947  31.921  33.142  13.834
 7523W        W79948  25.200  35.807  11.172
 7524W        W79949  29.394  16.277   4.383
 7525W        W79950   0.948  38.918  14.843
 7526W        W79951  27.953  40.806  13.291
 7527W        W79952  33.105   7.097  13.857
 7528W        W79953  34.784  39.846  11.506
 7529W        W79954  39.323   9.862   4.557
 7530W        W79955   1.683  13.807   0.874
 7531W        W79956  16.236  23.104  10.378
 7532W        W79957  31.696  20.619   0.349
 7533W        W79958  10.334  34.466  14.895
 7534W        W79959  31.500  33.538   4.526
 7535W        W79960  20.072  37.111  14.767
 7536W        W79961  38.348   2.336   3.383
 7537W        W79962  27.100  37.455   1.540
 7538W        W79963  39.074  29.086   4.591
 7539W        W79964   1.536  31.957   1.713
 7540W        W79965  11.893   3.488   4.127
 7541W        W79966   4.786  15.362  14.069
 7542W        W79967  37.837  15.596   2.614
 7543W        W79968  34.296  29.548   2.625
 7544W        W79969  18.376  37.456  14.348
 7545W        W79970  13.721  44.978  11.669
 7546W        W79971  26.887  11.734   4.585
 7547W        W79972  10.376  27.977   2.694
 7548W        W79973  22.104  29.622  11.651
 7549W        W79974  22.474   1.215  14.437
 7550W        W79975  42.974  39.796  12.008
 7551W        W79976  10.885   9.750   3.833
 7552W        W79977  20.461  31.932   1.922
 7553W        W79978  30.120  16.816  14.034
 7554W        W79979   7.731  27.931   3.675
 7555W        W79980   4.722  26.904  12.491
 7556W        W79981   0.385  13.835   0.290
 7557W        W79982   7.449  10.855   2.690
 7558W        W79983  16.089  13.077  11.594
 7559W        W79984  34.892  17.955  11.652
 7560W        W79985  27.650  32.992   9.759
 7561W        W79986   7.237  40.601   4.591
 7562W        W79987  22.616   8.836  11.911
 7563W        W79988  41.202  40.378   4.201
 7564W        W79989   2.826   8.328  12.038
 7565W        W79990  36.459  29.944   0.825
 7566W        W79991  41.475  10.597   0.512
 7567W        W79992  31.841  43.894   2.811
 7568W        W79993  44.180  33.435  14.995
 7569W        W79994  43.834   9.118   2.673
 7570W        W79995  24.007  20.771   0.128
 7571W        W79996   4.031  23.715  11.620
 7572W        W79997  26.967  19.029   1.543
 7573W        W79998   5.808  41.946   1.014
 7574W        W79999  25.881  29.612  13.254
 7575W        W80000  28.959  35.330  13.909
 7576W        W80001   2.436  39.112   5.359
 7577W        W80002  33.866  18.578  10.642
 7578W        W80003  12.668  24.100   0.318
 7579W        W80004   8.861  17.558   0.674
 7580W        W80005   5.610   4.643   4.891
 7581W        W80006  23.718  28.564   2.859
 7582W        W80007  39.461  11.476   0.665
 7583W        W80008  27.331  39.612  11.160
 7584W        W80009  15.387  30.818   2.815
 7585W        W80010  10.677   7.282   4.604
 7586W        W80011  40.023  40.742  14.822
 7587W        W80012   9.650  22.227  12.276
 7588W        W80013  18.698  29.408  12.478
 7589W        W80014  43.980  22.332  13.335
 7590W        W80015  44.365  19.791  12.937
 7591W        W80016  22.011  11.240   2.851
 7592W        W80017  21.958  10.916   4.197
 7593W        W80018  31.456   5.375  14.847
 7594W        W80019   9.245  11.629  13.415
 7595W        W80020  20.228  31.613   5.507
 7596W        W80021   7.339  13.727  14.007
 7597W        W80022  33.824  12.543  11.404
 7598W        W80023  39.637  39.408   1.720
 7599W        W80024  42.984  30.102   0.412
 7600W        W80025  11.396  37.816   4.233
 7601W        W80026  15.358  16.236  12.392
 7602W        W80027  38.708  19.632   1.134
 7603W        W80028  42.983  41.153   0.860
 7604W        W80029  29.550  36.457  13.072
 7605W        W80030  18.945  28.603  14.471
 7606W        W80031   0.156  20.872   4.102
 7607W        W80032  17.165  35.864  12.638
 7608W        W80033  16.603  41.341   0.402
 7609W        W80034  15.846   7.830   4.323
 7610W        W80035  18.299  27.247   4.186
 7611W        W80036  20.760  30.040   4.858
 7612W        W80037  42.401  12.072   0.370
 7613W        W80038  11.825  24.120  14.584
 7614W        W80039  10.178  20.319  10.610
 7615W        W80040  43.660  39.919  13.006
 7616W        W80041   8.799  44.478   1.923
 7617W        W80042  18.691  40.859   4.157
 7618W        W80043  20.989  35.945  10.413
 7619W        W80044  30.748  31.306  14.512
 7620W        W80045  14.482  11.803  13.592
 7621W        W80046  21.550   4.484  10.403
 7622W        W80047  23.901  30.373   3.600
 7623W        W80048   0.017  40.325   2.435
 7624W        W80049  33.321   6.840  11.145
 7625W        W80050  43.371  39.391   4.104
 7626W        W80051  25.598   7.549   4.565
 7627W        W80052  30.258  38.429   1.495
 7628W        W80053  23.679  29.064  14.425
 7629W        W80054  14.541  31.029  12.657
 7630W        W80055  18.829   8.436   3.153
 7631W        W80056  15.185  32.197  10.625
 7632W        W80057  40.990  10.303  12.784
 7633W        W80058  37.910  25.467   4.706
 7634W        W80059  27.501  42.073   0.494
 7635W        W80060   1.504   2.181   1.201
 7636W        W80061  16.305   4.507   1.865
 7637W        W80062  37.957   0.707   4.175
 7638W        W80063  29.987   7.647   4.243
 7639W        W80064   6.458  41.914  12.496
 7640W        W80065  39.546  24.633  14.370
 7641W        W80066  14.134  36.435  10.881
 7642W        W80067  30.534  39.553   3.186
 7643W        W80068  39.795  41.414   1.369
 7644W        W80069  40.727   0.790  10.952
 7645W        W80070  19.608   4.554   2.883
 7646W        W80071  28.119  40.322   2.268
 7647W        W80072  40.325  18.801  14.819
 7648W        W80073  12.353  38.631   1.824
 7649W        W80074   6.006  41.842   3.217
 7650W        W80075  12.082   5.674  12.471
 7651W        W80076  14.686  42.006  13.884
 7652W        W80077  23.987   1.264   1.884
 7653W        W80078  38.731  32.817   2.317
 7654W        W80079  29.553  24.913  12.014
 7655W        W80080  37.474  24.220  14.876
 7656W        W80081   3.271  17.809   4.564
 7657W        W80082  12.976  22.998   2.823
 7658W        W80083  25.434  31.633   1.906
 7659W        W80084   3.199   2.249  11.504
 7660W        W80085  41.738  20.187   3.899
 7661W        W80086  27.586   1.842   1.154
 7662W        W80087  41.717  39.127   0.751
 7663W        W80088  31.266   0.726  11.610
 7664W        W80089  15.813   7.723   3.314
 7665W        W80090  13.339  24.309  11.573
 7666W        W80091   1.791  40.151  11.887
 7667W        W80092  43.007  26.155   2.826
 7668W        W80093  23.940  26.570  14.835
 7669W        W80094  15.773  36.806  13.842
 7670W        W80095  17.274  43.233   1.116
 7671W        W80096   4.638  22.972   2.379
 7672W        W80097   6.738   9.353   2.960
 7673W        W80098  41.495  34.572  14.666
 7674W        W80099  33.903   6.292  12.399
 7675W        W80100  32.058  18.657  14.549
 7676W        W80101  19.206  24.777   1.360
 7677W        W80102  22.304  25.647  11.600
 7678W        W80103  10.957  11.494  12.355
 7679W        W80104  43.879  19.752   4.157
 7680W        W80105   6.090   3.362  11.970
 7681W        W80106  30.513  12.290  10.925
 7682W        W80107  33.020  24.061  10.726
 7683W        W80108   1.873  39.309   0.996
 7684W        W80109   1.744   1.875  13.506
 7685W        W80110  13.126  40.373   2.559
 7686W        W80111  17.101   5.864   1.743
 7687W        W80112  24.682  30.073  12.068
 7688W        W80113  16.239   4.960   3.860
 7689W        W80114  26.517  21.163   0.946
 7690W        W80115  17.849  44.333   4.201
 7691W        W80116  32.233  35.609   1.121
 7692W        W80117   9.404  23.644   3.281
 7693W        W80118   2.867  35.167  11.157
 7694W        W80119  15.558  44.454  12.578
 7695W        W80120  21.482  26.506  11.146
 7696W        W80121  27.615  22.930  14.767
 7697W        W80122  19.604  36.504  13.997
 7698W        W80123  39.025  44.406  12.267
 7699W        W80124  12.685  31.602   4.063
 7700W        W80125  27.607  24.272  10.747
 7701W        W80126  13.118  15.975  12.565
 7702W        W80127   1.713  21.534   3.763
 7703W        W80128  17.627  33.071   3.109
 7704W        W80129  36.488   9.782  13.829
 7705W        W80130   3.422  10.215  14.950
 7706W        W80131  38.019  12.426   1.168
 7707W        W80132  11.313  10.086   4.612
 7708W        W80133  24.253  30.785   4.246
 7709W        W80134  16.454   3.280   5.022
 7710W        W80135  27.559  32.586   4.615
 7711W        W80136  21.741   8.623   2.700
 7712W        W80137  24.572  21.803   2.381
 7713W        W80138  23.980  26.741  13.572
 7714W        W80139  41.859  26.564   3.783
 7715W        W80140  31.874   8.189   2.683
 7716W        W80141   8.343  34.978   1.613
 7717W        W80142  33.989  12.810  14.709
 7718W        W80143  10.233  24.464  14.583
 7719W        W80144  28.578  43.802   3.344
 7720W        W80145  39.969   2.954   0.518
 7721W        W80146   1.310  17.383   2.433
 7722W        W80147  16.269   0.941   0.772
 7723W        W80148  17.199  15.114   3.696
 7724W        W80149  38.823  10.254  11.468
 7725W        W80150   9.577  41.498  12.960
 7726W        W80151  14.567  29.180   1.416
 7727W        W80152   2.281  18.185  14.050
 7728W        W80153  21.897   5.173  10.931
 7729W        W80154   3.325  44.198  10.368
 7730W        W80155  16.142   0.148  14.008
 7731W        W80156   3.918  31.398   3.657
 7732W        W80157  13.248   0.422  14.550
 7733W        W80158   6.887  42.828  12.778
 7734W        W80159  19.819   3.289   4.692
 7735W        W80160  34.386  41.358  11.645
 7736W        W80161   1.235   7.752  11.518
 7737W        W80162  12.274  44.723  12.622
 7738W        W80163   3.336   4.176   2.309
 7739W        W80164  23.026  36.455   1.926
 7740W        W80165  36.554   9.248   4.039
 7741W        W80166  16.079  18.233  12.046
 7742W        W80167   4.833   8.800  12.439
 7743W        W80168  15.653   8.475  12.602
 7744W        W80169   5.899  28.376  12.937
 7745W        W80170  15.790  34.570   5.036
 7746W        W80171  31.158  38.455   2.810
 7747W        W80172  13.125  15.254   2.109
 7748W        W80173  27.082   1.316   0.731
 7749W        W80174  23.000  29.416  11.133
 7750W        W80175  14.314  32.891   2.626
 7751W        W80176   2.963   5.896   3.206
 7752W        W80177  17.105   3.655  10.560
 7753W        W80178  19.505  21.963   1.494
 7754W        W80179  29.070  10.345   3.803
 7755W        W80180  15.169  13.087  11.601
 7756W        W80181   5.429  20.080  12.904
 7757W        W80182  30.238   5.706  11.958
 7758W        W80183  25.934  23.718  14.324
 7759W        W80184  30.498  30.115  12.948
 7760W        W80185  21.325  27.709   3.669
 7761W        W80186  44.287   8.497  12.196
 7762W        W80187  25.746  12.607  13.109
 7763W        W80188   3.978  43.248   0.334
 7764W        W80189  14.132  30.515  13.481
 7765W        W80190   8.933  32.156   0.319
 7766W        W80191   9.433  42.529   4.577
 7767W        W80192  41.244  29.981   4.190
 7768W        W80193  42.352  40.901   4.226
 7769W        W80194  22.519  11.211  10.159
 7770W        W80195  42.848  12.755   3.179
 7771W        W80196  34.868  27.485  11.986
 7772W        W80197  19.272  18.301   4.034
 7773W        W80198   6.773  26.757  14.812
 7774W        W80199   1.448  40.555  13.164
 7775W        W80200  13.711  22.469   1.176
 7776W        W80201   2.459  43.769   3.233
 7777W        W80202  17.766  20.071   0.880
 7778W        W80203   4.239  12.736   1.842
 7779W        W80204  28.732   9.785   3.715
 7780W        W80205  10.156  14.345  11.087
 7781W        W80206  22.910  19.103  11.244
 7782W        W80207  39.060   0.711  14.378
 7783W        W80208  32.711  43.005   4.265
 7784W        W80209  14.109  41.466   1.508
 7785W        W80210  40.845  37.327   4.901
 7786W        W80211  37.035  42.866  11.967
 7787W        W80212   7.636   4.821  13.844
 7788W        W80213   9.868  22.453   3.753
 7789W        W80214  15.994   2.590   2.661
 7790W        W80215  38.070   0.544   2.670
 7791W        W80216   1.976  10.379   0.851
 7792W        W80217  15.719  11.357   2.853
 7793W        W80218  38.385  28.175  13.966
 7794W        W80219  40.463  22.737  14.277
 7795W        W80220  42.843  32.188   4.650
 7796W        W80221  25.943  31.981   0.344
 7797W        W80222   7.112  11.658   0.188
 7798W        W80223   2.306  22.963   3.618
 7799W        W80224  37.988  32.636  11.875
 7800W        W80225  25.071  22.796   0.845
 7801W        W80226  15.107  43.690  12.036
 7802W        W80227   4.553  34.300   0.517
 7803W        W80228   7.517   7.267   3.734
 7804W        W80229  40.947  10.090   1.776
 7805W        W80230  31.168  17.125  10.228
 7806W        W80231  14.631  31.947   4.028
 7807W        W80232   9.446  34.778  11.829
 7808W        W80233  26.202   9.311   3.452
 7809W        W80234  23.286  29.984  12.827
 7810W        W80235  34.148   8.480   1.210
 7811W        W80236  17.367  27.133  11.495
 7812W        W80237  18.741   4.994  12.947
 7813W        W80238  44.121   1.999   1.012
 7814W        W80239   6.647  26.197   2.922
 7815W        W80240  43.728  19.251  12.027
 7816W        W80241  40.015  14.412  11.410
 7817W        W80242  16.235  32.039  14.875
 7818W        W80243  11.892  44.991   1.543
 7819W        W80244  21.119  35.965  12.637
 7820W        W80245  43.653   8.737  14.935
 7821W        W80246  21.954  33.608  14.426
 7822W        W80247  40.636  23.160   3.744
 7823W        W80248  26.646  23.001   2.269
 7824W        W80249  35.893  18.174  11.500
 7825W        W80250  21.144  21.955  14.866
 7826W        W80251   4.448  14.583   3.547
 7827W        W80252   7.300  26.790  12.989
 7828W        W80253  34.465  40.638  12.788
 7829W        W80254  34.349  29.708   4.253
 7830W        W80255  19.611   9.523   3.134
 7831W        W80256   1.738  43.860   2.119
 7832W        W80257  13.348   2.257  14.400
 7833W        W80258  44.832  19.732   4.096
 7834W        W80259  26.581   0.755  12.558
 7835W        W80260  10.200   4.654  14.427
 7836W        W80261  24.411  17.760   3.759
 7837W        W80262  28.611  42.407  11.868
 7838W        W80263  16.282  29.844   0.396
 7839W        W80264  30.610  39.557   3.684
 7840W        W80265   2.869  18.977   2.630
 7841W        W80266  29.195  33.199  12.056
 7842W        W80267  22.037  23.885  11.074
 7843W        W80268  21.256  28.739  14.342
 7844W        W80269   5.693  27.770   2.323
 7845W        W80270  40.087  21.595  14.811
 7846W        W80271  20.492  20.705  11.996
 7847W        W80272   4.366  20.860   4.653
 7848W        W80273  41.942  42.485  13.493
 7849W        W80274  24.842   3.630   0.369
 7850W        W80275   3.030   5.907   0.500
 7851W        W80276  44.651  31.646  11.874
 7852W        W80277  23.659  43.548  10.513
 7853W        W80278   7.592  38.855   1.734
 7854W        W80279   8.384  29.361   4.527
 7855W        W80280  24.923   9.682   4.939
 7856W        W80281   4.637  15.850  10.257
 7857W        W80282  19.180  27.128  12.633
 7858W        W80283  24.560   0.327   0.990
 7859W        W80284  25.020  23.815   4.591
 7860W        W80285  35.980  43.910   1.379
 7861W        W80286  20.019  42.819   2.649
 7862W        W80287   2.296  15.517   3.734
 7863W        W80288  35.438  10.388  10.242
 7864W        W80289  31.385  43.823  12.158
 7865W        W80290  26.189   1.040  12.423
 7866W        W80291   7.799  13.304   2.033
 7867W        W80292  22.512  11.204   0.804
 7868W        W80293  16.711  44.789  11.324
 7869W        W80294  37.410  19.678   3.835
 7870W        W80295  16.167  31.046  13.089
 7871W        W80296  14.223  14.882   4.268
 7872W        W80297  21.630  12.719   3.371
 7873W        W80298  34.057  14.159   1.304
 7874W        W80299  35.883  19.561  12.548
 7875W        W80300  14.302  17.292   4.497
 7876W        W80301  15.384   6.617  10.995
 7877W        W80302  32.103  37.039  11.613
 7878W        W80303  44.462   1.330  14.835
 7879W        W80304   8.096  28.125  11.666
 7880W        W80305  44.384  11.247   3.418
 7881W        W80306   9.329   6.114   0.549
 7882W        W80307  29.207  29.475  14.343
 7883W        W80308  26.176   0.080   3.157
 7884W        W80309  19.147  22.743   1.332
 7885W        W80310   3.362  14.623  14.722
 7886W        W80311  11.877  14.793   3.750
 7887W        W80312  40.074  40.032   0.531
 7888W        W80313  12.664  31.088  12.762
 7889W        W80314   0.063  31.087  11.304
 7890W        W80315   4.006  39.488   0.430
 7891W        W80316   4.848  24.667  14.061
 7892W        W80317   6.737  41.343   4.676
 7893W        W80318  17.026  10.746  10.627
 7894W        W80319   8.170  43.642   0.986
 7895W        W80320   5.395   0.560   2.299
 7896W        W80321  18.069  42.554   3.340
 7897W        W80322  16.867  23.619   3.780
 7898W        W80323  41.725  26.011  12.008
 7899W        W80324  22.213  18.194   0.475
 7900W        W80325  22.032  42.538   1.703
 7901W        W80326  43.016  21.767   1.281
 7902W        W80327   9.825  25.009  10.268
 7903W        W80328  34.554  40.860  11.809
 7904W        W80329  44.689  44.494  10.697
 7905W        W80330  19.620  35.489  14.214
 7906W        W80331  43.049  33.168   2.555
 7907W        W80332   1.841  13.673  13.973
 7908W        W80333  36.980  28.966   2.890
 7909W        W80334  33.841  42.953  13.078
 7910W        W80335  17.806  17.078   3.201
 7911W        W80336  41.188   5.221   2.602
 7912W        W80337   9.489  17.016   0.967
 7913W        W80338  34.676  44.936  11.221
 7914W        W80339  12.750  41.139  14.494
 7915W        W80340  44.721  16.268   2.114
 7916W        W80341  30.903  13.723  11.606
 7917W        W80342  16.655  14.308   1.278
 7918W        W80343  19.227   2.869  12.837
 7919W        W80344  44.523  27.306  13.638
 7920W        W80345  34.660  40.445  11.511
 7921W        W80346  26.984  25.085  11.991
 7922W        W80347  25.508  27.947   4.613
 7923W        W80348  35.912  39.585  11.503
 7924W        W80349  40.549   0.453   4.924
 7925W        W80350  32.663  19.400   5.138
 7926W        W80351   8.959  12.738   2.383
 7927W        W80352  12.644  22.649  13.641
 7928W        W80353   3.700  29.508   4.896
 7929W        W80354  43.474  14.673   1.333
 7930W        W80355  29.570  25.490   4.378
 7931W        W80356  28.439   8.048  10.706
 7932W        W80357   4.284   9.399   1.768
 7933W        W80358  13.896   1.003   0.550
 7934W        W80359  14.191  41.730   3.834
 7935W        W80360  26.496  35.999   3.816
 7936W        W80361  43.935   5.417  12.078
 7937W        W80362  28.271  35.784   3.762
 7938W        W80363  11.310  40.849  14.312
 7939W        W80364  27.916  29.518   4.233
 7940W        W80365   6.498  44.844   3.599
 7941W        W80366   8.099  41.949   4.339
 7942W        W80367  17.683  42.820   4.915
 7943W        W80368  33.088  37.647  14.434
 7944W        W80369   1.470  34.000  10.608
 7945W        W80370  18.714  17.708   1.398
 7946W        W80371  43.863  40.674   1.400
 7947W        W80372  13.619   3.218   4.435
 7948W        W80373  37.793   2.013   1.808
 7949W        W80374  22.521  35.220   4.870
 7950W        W80375  21.088  32.612   4.051
 7951W        W80376   4.350  22.232  13.969
 7952W        W80377   2.549  10.575  10.265
 7953W        W80378  33.232  19.854   2.342
 7954W        W80379  21.907  43.310  14.747
 7955W        W80380  32.423   0.246  12.084
 7956W        W80381  32.947   9.261   1.414
 7957W        W80382  35.366   6.672  12.373
 7958W        W80383  36.489  26.176   2.734
 7959W        W80384  41.906  17.164   0.544
 7960W        W80385  23.748  42.653  11.399
 7961W        W80386  14.965   0.687  10.750
 7962W        W80387  36.129  43.097  12.649
 7963W        W80388  14.280  39.390   3.585
 7964W        W80389  19.035  35.261  12.430
 7965W        W80390  22.039  17.726   2.379
 7966W        W80391  11.259  36.076   2.696
 7967W        W80392  25.087   8.882  13.864
 7968W        W80393  43.219  28.906  12.478
 7969W        W80394  26.203  27.484  13.519
 7970W        W80395  42.265   6.263   2.352
 7971W        W80396   4.200   5.203   3.222
 7972W        W80397  14.713  25.111   3.933
 7973W        W80398  30.588  31.582   1.345
 7974W        W80399  28.990   0.960   0.451
 7975W        W80400  37.954  38.349  13.414
 7976W        W80401  17.598  37.746   4.461
 7977W        W80402  11.824  44.571   3.276
 7978W        W80403   1.102  18.657   2.844
 7979W        W80404  10.606  40.418   3.730
 7980W        W80405  31.062  26.450  12.608
 7981W        W80406   9.442  40.017   3.375
 7982W        W80407  27.427  24.626  13.328
 7983W        W80408   9.127  25.070  14.445
 7984W        W80409  27.198   4.830  13.168
 7985W        W80410  36.461  23.751  11.323
 7986W        W80411  13.207  38.519  10.656
 7987W        W80412   3.449  19.043   0.964
 7988W        W80413  23.012  21.046   1.761
 7989W        W80414   5.275  23.240   0.931
 7990W        W80415  36.903   7.838   4.391
 7991W        W80416  10.873  43.268   2.719
 7992W        W80417  42.580   2.813   2.952
 7993W        W80418  27.162   7.714  14.777
 7994W        W80419  41.645   7.096   4.087
 7995W        W80420  29.944  19.273   1.153
 7996W        W80421  18.299   6.400  12.584
 7997W        W80422  17.634  42.969   2.365
 7998W        W80423  25.522  42.118  12.088
 7999W        W80424  32.591  36.841   4.195
 8000W        W80425   7.719   9.835  13.908
 8001W        W80426   4.986  33.596  11.161
 8002W        W80427  11.380  40.058   4.202
 8003W        W80428   5.293  20.582  12.934
 8004W        W80429   3.836  20.983  12.950
 8005W        W80430  12.805  31.366  11.458
 8006W        W80431  38.122  29.088   2.265
 8007W        W80432  11.718  32.908   1.927
 8008W        W80433  21.148   2.273   3.411
 8009W        W80434  35.017  42.470   4.001
 8010W        W80435   0.921  44.857   2.787
 8011W        W80436  20.191  18.774  14.284
 8012W        W80437   4.076   0.319   3.478
 8013W        W80438   0.341  27.219  13.118
 8014W        W80439   9.950   3.901   3.506
 8015W        W80440  35.033  15.359   0.301
 8016W        W80441   5.634   5.680   0.864
 8017W        W80442  34.584   5.691  12.546
 8018W        W80443  37.314  10.278  11.863
 8019W        W80444  11.329   6.954  13.904
 8020W        W80445  44.907   5.692   3.775
 8021W        W80446  35.470  26.557   0.704
 8022W        W80447   7.713  37.966   2.208
 8023W        W80448  28.991  12.621   1.251
 8024W        W80449   4.265  13.656   1.926
 8025W        W80450   2.436  25.068   1.166
 8026W        W80451  16.597  36.664  13.080
 8027W        W80452  13.336   8.926  13.017
 8028W        W80453  20.170  38.491  10.596
 8029W        W80454   9.422  37.240  10.976
 8030W        W80455  18.728  14.652   4.140
 8031W        W80456  36.738  21.024  13.323
 8032W        W80457   1.631  21.550  14.047
 8033W        W80458  16.636  20.229   3.747
 8034W        W80459  19.764  43.806  12.526
 8035W        W80460  28.135  15.121  11.907
 8036W        W80461  38.623  22.062   4.592
 8037W        W80462  34.326  34.607   3.464
 8038W        W80463  26.917  20.464  11.310
 8039W        W80464  12.118  23.271  12.460
 8040W        W80465  21.783  25.600  11.582
 8041W        W80466  16.610  10.893   3.305
 8042W        W80467  39.873  33.477   1.393
 8043W        W80468  22.614  30.538   2.384
 8044W        W80469  22.701  37.849   1.165
 8045W        W80470   7.288  19.560  13.309
 8046W        W80471  26.199  40.389  13.932
 8047W        W80472  10.353  28.222  13.919
 8048W        W80473  27.256  10.729   3.724
 8049W        W80474  42.894  24.706   3.662
 8050W        W80475  15.588  33.496   4.273
 8051W        W80476  43.523  14.728   2.715
 8052W        W80477   7.682  30.068  13.845
 8053W        W80478  35.482  20.820  12.874
 8054W        W80479   8.918  37.488  13.273
 8055W        W80480  35.832  28.513   3.240
 8056W        W80481  31.188  44.550  10.284
 8057W        W80482   1.642  41.325  10.713
 8058W        W80483  25.316  24.892   3.317
 8059W        W80484  23.125  21.243   4.168
 8060W        W80485  18.594   7.407  12.064
 8061W        W80486  29.079   2.190   2.124
 8062W        W80487  19.096  18.077  11.954
 8063W        W80488  14.618  35.204   1.575
 8064W        W80489   5.863  38.505  11.153
 8065W        W80490   3.544   7.574   4.643
 8066W        W80491  31.049  10.346  11.501
 8067W        W80492  21.972  29.678  12.141
 8068W        W80493  14.811  15.523  12.013
 8069W        W80494  38.876   8.240   1.806
 8070W        W80495  37.977   9.264   0.686
 8071W        W80496  21.161  40.278  14.692
 8072W        W80497   8.683  18.579   2.089
 8073W        W80498  22.010   8.198  13.467
 8074W        W80499   6.147  40.833  10.182
 8075W        W80500  38.448  11.844  12.822
 8076W        W80501  32.674  36.598   1.315
 8077W        W80502  24.004  43.440  12.860
 8078W        W80503   3.664  17.023  13.816
 8079W        W80504  43.962   4.804   4.572
 8080W        W80505  13.612  30.474  14.354
 8081W        W80506  18.836  25.715   2.783
 8082W        W80507  18.683   5.129   4.775
 8083W        W80508  22.307   5.718  12.916
 8084W        W80509   4.912   7.948   1.167
 8085W        W80510  20.727  15.854   1.844
 8086W        W80511  11.267   7.937   2.706
 8087W        W80512  16.054   2.291  13.363
 8088W        W80513   6.144  24.081  12.005
 8089W        W80514  43.672   3.169   1.836
 8090W        W80515  32.921  32.890   1.834
 8091W        W80516  33.320  28.973  14.435
 8092W        W80517  40.081  14.085  13.897
 8093W        W80518   4.117  27.612  10.688
 8094W        W80519   8.650  22.526   0.085
 8095W        W80520  19.899  35.080  10.393
 8096W        W80521   1.724  13.780  11.428
 8097W        W80522  33.358  10.654   2.615
 8098W        W80523  34.734   9.352  10.739
 8099W        W80524  35.692   8.365  10.792
 8100W        W80525   5.997  41.316  10.053
 8101W        W80526  18.090  42.510  13.037
 8102W        W80527   8.766  44.438   0.313
 8103W        W80528  28.224  25.551  14.544
 8104W        W80529  32.364   6.204   0.290
 8105W        W80530  13.784  14.657  12.974
 8106W        W80531   3.274   9.654  12.331
 8107W        W80532  29.212  33.498  10.562
 8108W        W80533  44.452   1.735   0.711
 8109W        W80534  29.370  37.057  12.152
 8110W        W80535  18.157  25.165  10.757
 8111W        W80536  15.081   2.768   2.804
 8112W        W80537   6.977  23.038   3.536
 8113W        W80538  19.125   6.370   1.416
 8114W        W80539   5.660   4.230   4.555
 8115W        W80540   5.217  35.834   4.727
 8116W        W80541  23.243   7.939   4.535
 8117W        W80542  44.546   2.582   3.704
 8118W        W80543   0.549  40.242  14.478
 8119W        W80544   9.678   4.007  14.633
 8120W        W80545  39.734   7.324  11.317
 8121W        W80546   9.256   7.853   4.586
 8122W        W80547  25.394   2.361   1.799
 8123W        W80548   6.708  32.507   4.653
 8124W        W80549   0.246   8.274   4.095
 8125W        W80550  32.802  23.333   2.736
 8126W        W80551  15.123  32.554  11.935
 8127W        W80552   5.231  36.384   2.982
 8128W        W80553  27.865   4.225  14.815
 8129W        W80554  13.130  33.161  13.322
 8130W        W80555   1.570  13.134  12.823
 8131W        W80556  21.700  30.131  12.092
 8132W        W80557  27.676  17.432   0.529
 8133W        W80558   7.038  22.433   4.128
 8134W        W80559   9.582  19.116  14.309
 8135W        W80560  10.241  26.774   3.406
 8136W        W80561  31.406  28.445  11.344
 8137W        W80562  20.185   4.398  13.849
 8138W        W80563  40.750  17.114   2.591
 8139W        W80564  38.947  20.021  13.036
 8140W        W80565   4.797  18.761  10.683
 8141W        W80566  12.845  42.346  13.024
 8142W        W80567   7.173  34.041   3.116
 8143W        W80568  29.962  22.016   2.722
 8144W        W80569  38.640  41.267   0.252
 8145W        W80570  40.456  33.893   2.325
 8146W        W80571  40.769  38.840  14.951
 8147W        W80572  10.631  16.730  11.101
 8148W        W80573  44.314  18.113  11.252
 8149W        W80574  19.432  34.082   2.293
 8150W        W80575   2.834  42.878   2.939
 8151W        W80576  22.761   3.805   1.806
 8152W        W80577  29.984   8.251   1.839
 8153W        W80578   4.746  43.389  10.889
 8154W        W80579  14.450  10.711   2.802
 8155W        W80580  41.577   9.615  12.765
 8156W        W80581  17.189  13.248   2.620
 8157W        W80582  34.459  17.296   3.739
 8158W        W80583  32.464   0.920   2.259
 8159W        W80584  24.067  22.823  11.873
 8160W        W80585  24.984   4.359   2.173
 8161W        W80586  15.888   2.799   4.906
 8162W        W80587  35.833  37.489  13.770
 8163W        W80588   3.667  42.715  14.441
 8164W        W80589  20.776   2.592  11.678
 8165W        W80590  18.481  21.877  11.051
 8166W        W80591  24.612  29.044  11.038
 8167W        W80592   0.378  12.518   0.916
 8168W        W80593  22.673  13.794   3.804
 8169W        W80594  24.614  13.704   4.220
 8170W        W80595  24.650  32.420   4.680
 8171W        W80596  42.939  42.004   1.962
 8172W        W80597  14.704  16.761   2.266
 8173W        W80598  35.096  42.151   4.386
 8174W        W80599  19.329  14.975  14.823
 8175W        W80600   5.680  42.898  14.355
 8176W        W80601  20.682  13.324  13.044
 8177W        W80602   1.815   3.336  12.217
 8178W        W80603  27.515  25.654  11.085
 8179W        W80604  35.939  17.604   4.588
 8180W        W80605  15.251  38.384  13.496
 8181W        W80606   0.209  33.129  12.450
 8182W        W80607  21.541   2.305   0.824
 8183W        W80608  25.667   6.218  11.575
 8184W        W80609  35.149  36.949  11.600
 8185W        W80610   0.982  11.576   3.311
 8186W        W80611   5.229  29.883  12.487
 8187W        W80612  15.380  26.845  13.507
 8188W        W80613  24.048  17.839   2.284
 8189W        W80614   2.935   8.228   4.358
 8190W        W80615  22.188  17.553  10.699
 8191W        W80616  25.084  38.845  12.573
 8192W        W80617  43.513  19.000   0.442
 8193W        W80618  36.562  19.651  12.159
 8194W        W80619  14.010  36.390  11.383
 8195W        W80620  30.106   7.435  11.255
 8196W        W80621  13.393  27.903   4.672
 8197W        W80622  21.719  17.019   4.144
 8198W        W80623  20.719  40.826  10.722
 8199W        W80624  32.305  29.972  14.852
 8200W        W80625   4.430  25.012   2.245
 8201W        W80626  13.700  11.220   3.773
 8202W        W80627  35.762   8.801  11.757
 8203W        W80628  27.113  40.050   2.350
 8204W        W80629  16.748   8.919   3.205
 8205W        W80630  20.008  16.491   1.926
 8206W        W80631  34.839  38.814   0.302
 8207W        W80632  16.407  41.672  11.957
 8208W        W80633  31.506  26.113  11.550
 8209W        W80634  37.365  21.547  14.278
 8210W        W80635   0.822   9.041  11.203
 8211W        W80636  11.660   3.181  13.654
 8212W        W80637  24.515   6.468   2.720
 8213W        W80638  33.020  15.630  14.513
 8214W        W80639  25.424  32.675   1.978
 8215W        W80640  44.536  13.303  13.330
 8216W        W80641  35.885  40.106   3.901
 8217W        W80642   4.229   2.373  11.763
 8218W        W80643  18.716  32.094   2.730
 8219W        W80644  26.786  38.743   5.156
 8220W        W80645  37.725  30.733   3.147
 8221W        W80646  33.888  14.336  14.048
 8222W        W80647  24.412   6.324   1.466
 8223W        W80648  14.932  16.386  11.870
 8224W        W80649  15.466  35.695  13.603
 8225W        W80650  19.255  13.179   3.796
 8226W        W80651  33.699  35.885   0.843
 8227W        W80652  31.016   5.690   4.559
 8228W        W80653  11.305  40.061  11.243
 8229W        W80654  29.455  37.117  13.746
 8230W        W80655  43.522  22.752   1.805
 8231W        W80656   0.883  19.577   0.907
 8232W        W80657  14.047  43.364  14.778
 8233W        W80658   4.717   9.661  10.734
 8234W        W80659  41.614  27.853  13.459
 8235W        W80660  28.957  26.935   2.853
 8236W        W80661   3.282  41.983  12.419
 8237W        W80662  21.121   4.722   4.139
 8238W        W80663  36.515  14.696   2.115
 8239W        W80664  42.086  22.552   1.073
 8240W        W80665  44.193   1.279   0.744
 8241W        W80666  37.855  30.405  12.464
 8242W        W80667  34.630  23.602  14.892
 8243W        W80668  23.982  28.535  12.570
 8244W        W80669  12.150  27.001   1.066
 8245W        W80670  31.108  39.287  14.489
 8246W        W80671  19.731   3.003  12.088
 8247W        W80672  27.237  12.584   2.633
 8248W        W80673   2.521   5.593   4.032
 8249W        W80674  31.287  40.900  14.526
 8250W        W80675  16.387  25.837   3.537
 8251W        W80676  29.111   3.409   0.458
 8252W        W80677  19.452  11.629   4.593
 8253W        W80678   9.267  33.712   1.390
 8254W        W80679   8.673  31.077  12.064
 8255W        W80680  24.601  14.355  13.338
 8256W        W80681   5.294  22.450  11.777
 8257W        W80682   6.744  33.926  13.483
 8258W        W80683  34.563  24.970   3.397
 8259W        W80684  40.951  32.688   0.519
 8260W        W80685  36.634  12.672   2.881
 8261W        W80686   1.538  30.486  13.040
 8262W        W80687   4.503  27.443  11.947
 8263W        W80688  15.083  27.580   0.837
 8264W        W80689  39.037  22.159  11.313
 8265W        W80690   2.250  19.637   0.492
 8266W        W80691  34.423  20.739   3.271
 8267W        W80692   9.449  28.129  13.832
 8268W        W80693  12.778  11.641   3.635
 8269W        W80694  17.530   7.406  12.003
 8270W        W80695   1.481  28.136  11.062
 8271W        W80696  20.753  24.908  12.351
 8272W        W80697  43.687  12.072   2.534
 8273W        W80698   4.426  25.874   4.414
 8274W        W80699  35.960  41.033  11.195
 8275W        W80700  29.136  37.393   0.962
 8276W        W80701  41.259  17.263  13.750
 8277W        W80702  15.691  40.021  14.754
 8278W        W80703  20.720   3.770   1.829
 8279W        W80704  13.810  22.271  10.533
 8280W        W80705  27.558  20.448   0.503
 8281W        W80706  31.025  43.442  10.648
 8282W        W80707  14.033  15.877  13.068
 8283W        W80708   1.957  34.468   0.660
 8284W        W80709  30.537  24.963   1.830
 8285W        W80710  30.516  16.758  10.677
 8286W        W80711  15.281  23.499  11.554
 8287W        W80712  17.426  12.817  12.045
 8288W        W80713  40.939  13.765  14.292
 8289W        W80714  17.046  39.850  13.453
 8290W        W80715   4.366  18.735   0.926
 8291W        W80716  17.244   2.492  13.583
 8292W        W80717  15.705   8.360   2.967
 8293W        W80718  28.695   7.110  12.917
 8294W        W80719  19.356  33.484   3.304
 8295W        W80720  44.338  13.260  11.983
 8296W        W80721  35.266  43.972   2.317
 8297W        W80722  15.619  30.025   1.228
 8298W        W80723  10.327  18.263  10.817
 8299W        W80724  15.508  15.074   4.930
 8300W        W80725  25.487   0.736  12.542
 8301W        W80726  44.443  18.848   4.143
 8302W        W80727  24.491   7.877   2.726
 8303W        W80728  29.126   2.330  13.966
 8304W        W80729  36.672  12.628  10.758
 8305W        W80730  44.531   6.832   3.723
 8306W        W80731   7.307   4.225  12.166
 8307W        W80732  31.361  13.710  10.568
 8308W        W80733  13.211  18.570   2.370
 8309W        W80734  17.368  41.894  12.204
 8310W        W80735  24.639  38.282  14.790
 8311W        W80736  27.941  34.881   4.723
 8312W        W80737  29.427   7.880  12.846
 8313W        W80738   8.447  29.947  12.328
 8314W        W80739  44.817  18.587   2.701
 8315W        W80740   8.112   4.256  13.426
 8316W        W80741  20.898   8.780   5.023
 8317W        W80742  15.359  29.819   5.130
 8318W        W80743   7.922  17.688  14.572
 8319W        W80744  22.480   6.622   2.832
 8320W        W80745   6.130  12.561   4.139
 8321W        W80746  35.816  36.757  11.168
 8322W        W80747   6.731   6.884  14.812
 8323W        W80748  17.131  16.065   3.655
 8324W        W80749  15.045   6.019   0.049
 8325W        W80750  39.459   5.782   1.307
 8326W        W80751  31.984  34.551  11.385
 8327W        W80752   5.484  23.218  12.507
 8328W        W80753  18.347  32.170  13.438
 8329W        W80754  40.366  44.208  11.590
 8330W        W80755  42.847  40.277  12.530
 8331W        W80756   5.920   0.904   3.339
 8332W        W80757  35.799  17.762  13.603
 8333W        W80758  43.509  17.773  11.203
 8334W        W80759  43.950  28.944  14.966
 8335W        W80760  13.310   3.568   9.765
 8336W        W80761  23.644  43.318   1.373
 8337W        W80762  10.215  20.928  11.066
 8338W        W80763  18.608  40.810   0.792
 8339W        W80764  18.822  38.541   2.447
 8340W        W80765  24.915  16.405   4.577
 8341W        W80766   2.592  36.479  10.389
 8342W        W80767  35.446  25.418   1.704
 8343W        W80768  36.186  37.605  10.474
 8344W        W80769  23.682  40.042   4.152
 8345W        W80770  37.342   2.859   3.103
 8346W        W80771   2.804  15.199   2.597
 8347W        W80772  36.154  26.544  11.088
 8348W        W80773  31.380  22.129   1.791
 8349W        W80774  18.653  35.968  13.022
 8350W        W80775  38.491   4.779  11.914
 8351W        W80776  37.465  15.824   2.350
 8352W        W80777  31.017  44.357   4.826
 8353W        W80778   1.968  29.896   2.703
 8354W        W80779  42.270  39.538  11.250
 8355W        W80780  22.516  39.350   4.058
 8356W        W80781  31.006  36.856  13.976
 8357W        W80782  38.459  15.545  12.386
 8358W        W80783  25.587   2.895  14.724
 8359W        W80784  40.080  42.046   1.688
 8360W        W80785   7.340   7.437   4.180
 8361W        W80786  39.391  16.378  12.104
 8362W        W80787  25.704  36.059  12.570
 8363W        W80788   7.541  38.369  13.835
 8364W        W80789  41.369  11.433  12.098
 8365W        W80790   7.529   1.058  10.723
 8366W        W80791  34.205  42.732   1.794
 8367W        W80792  27.039  32.576   1.702
 8368W        W80793   3.397  28.376   1.894
 8369W        W80794  35.416  38.747  13.945
 8370W        W80795  25.691   0.232  11.506
 8371W        W80796  11.831  41.086  14.446
 8372W        W80797  29.148  25.935   2.641
 8373W        W80798  20.486   2.363  12.066
 8374W        W80799  16.364   2.202  12.423
 8375W        W80800   5.866  26.298  14.774
 8376W        W80801  15.231  26.482   1.966
 8377W        W80802  27.302  36.094   2.371
 8378W        W80803   6.684  15.848  10.765
 8379W        W80804  32.929   4.753   4.192
 8380W        W80805  20.980  20.910  14.778
 8381W        W80806   6.530   7.393  10.264
 8382W        W80807  25.504  41.730   4.224
 8383W        W80808   8.617  16.212  10.703
 8384W        W80809  17.851   2.070  11.151
 8385W        W80810  18.616   0.671  14.772
 8386W        W80811  30.445  41.093  10.893
 8387W        W80812   9.453   3.555  13.842
 8388W        W80813  14.209  25.224   0.344
 8389W        W80814   2.293  26.044   2.176
 8390W        W80815  14.176   0.910   4.277
 8391W        W80816   1.284  28.573   0.732
 8392W        W80817  39.718  22.106   2.188
 8393W        W80818  12.740  37.082  12.275
 8394W        W80819   3.944  34.041  13.520
 8395W        W80820  21.307  27.104   1.804
 8396W        W80821  38.486   3.313   3.135
 8397W        W80822  18.517  25.650  10.963
 8398W        W80823   6.343  37.653   1.646
 8399W        W80824  35.161  28.667   4.724
 8400W        W80825  29.110  36.496  10.704
 8401W        W80826  12.274   2.229   0.249
 8402W        W80827  21.404  26.576  11.999
 8403W        W80828  19.557  14.556  10.423
 8404W        W80829  29.272  32.340   4.218
 8405W        W80830   6.145  40.431   3.287
 8406W        W80831  17.622   0.023  11.379
 8407W        W80832   1.036   9.531   3.308
 8408W        W80833  34.177  32.589   4.822
 8409W        W80834  10.309   5.118   3.828
 8410W        W80835   6.416   7.632  12.867
 8411W        W80836  11.253  29.897  12.446
 8412W        W80837  34.686  13.989   0.614
 8413W        W80838  20.614   5.458  13.403
 8414W        W80839  34.076  17.841  11.126
 8415W        W80840  38.971   8.241   2.821
 8416W        W80841  18.098   0.898  14.123
 8417W        W80842  34.540  37.975   1.727
 8418W        W80843  13.633  41.721  13.060
 8419W        W80844  35.511  28.366   4.194
 8420W        W80845  25.732  14.887  11.171
 8421W        W80846  15.684  17.797   3.540
 8422W        W80847  40.957  21.427   1.204
 8423W        W80848   7.760  14.719  13.742
 8424W        W80849  21.112   5.639   4.309
 8425W        W80850  35.825  11.928   0.424
 8426W        W80851  13.078  24.012   4.759
 8427W        W80852  22.943  15.401  14.864
 8428W        W80853   2.501   7.329   4.647
 8429W        W80854  10.656   4.858   1.796
 8430W        W80855  23.836   7.656  14.269
 8431W        W80856  18.800  20.659  12.525
 8432W        W80857  13.808  29.915   3.380
 8433W        W80858   9.791  35.618  13.350
 8434W        W80859  35.326  42.301  11.238
 8435W        W80860  40.407   9.130   0.706
 8436W        W80861  37.504  13.252  10.708
 8437W        W80862  11.399  14.851  11.192
 8438W        W80863  15.150   0.756  14.731
 8439W        W80864  13.388  26.197  14.047
 8440W        W80865  43.810  41.042  12.484
 8441W        W80866   3.825  34.528   4.065
 8442W        W80867  13.106  16.284  12.141
 8443W        W80868  19.087  10.441  13.800
 8444W        W80869  43.103   1.730  14.327
 8445W        W80870  11.432  11.528  12.552
 8446W        W80871  21.175  33.355   3.247
 8447W        W80872  23.062   7.722  11.017
 8448W        W80873   3.017  38.814  13.274
 8449W        W80874  41.276  39.523  14.730
 8450W        W80875   1.286  40.062  13.617
 8451W        W80876  40.348  30.176   4.983
 8452W        W80877  14.157   9.709   4.077
 8453W        W80878  15.359  12.259  11.867
 8454W        W80879  28.764  14.685   1.928
 8455W        W80880  33.254  16.976   3.156
 8456W        W80881  13.250  29.395   1.157
 8457W        W80882  36.876  36.370   4.408
 8458W        W80883  36.928   2.722  14.989
 8459W        W80884   3.706  24.722   3.232
 8460W        W80885  25.178  29.742  11.582
 8461W        W80886   4.457  36.935   3.135
 8462W        W80887  38.390  29.091   4.090
 8463W        W80888  33.127  37.457  12.027
 8464W        W80889  20.334  35.030  14.812
 8465W        W80890   9.241  41.371   3.198
 8466W        W80891  34.461  35.439   3.651
 8467W        W80892  10.536  36.164   1.394
 8468W        W80893   3.978  10.259   2.619
 8469W        W80894  27.108  16.755   0.217
 8470W        W80895   7.466  27.487  11.943
 8471W        W80896  22.955  11.254   9.879
 8472W        W80897  27.131  44.290   2.910
 8473W        W80898   3.485  42.397  14.050
 8474W        W80899   9.356  32.930   0.897
 8475W        W80900  41.153  27.531   2.132
 8476W        W80901  34.513  29.172  11.491
 8477W        W80902  27.515  32.530  10.038
 8478W        W80903   8.584   4.641  13.921
 8479W        W80904  41.871  29.246  12.899
 8480W        W80905  34.608  28.386  13.838
 8481W        W80906  30.117   4.317   1.282
 8482W        W80907  13.602   3.228   2.722
 8483W        W80908  10.589   0.494   3.752
 8484W        W80909  35.459  37.886  10.775
 8485W        W80910  43.578  27.932   4.605
 8486W        W80911  39.133  13.852  11.456
 8487W        W80912  27.077  39.380   4.603
 8488W        W80913   7.152   0.793   3.130
 8489W        W80914  22.724  10.699   4.610
 8490W        W80915  10.918   0.451   2.303
 8491W        W80916  29.447  24.738  12.492
 8492W        W80917  34.783  42.343   0.472
 8493W        W80918  26.066  14.529  13.443
 8494W        W80919  34.591  20.558   3.743
 8495W        W80920  21.231  26.153  10.832
 8496W        W80921   5.282  23.949   1.807
 8497W        W80922  20.590  26.626  13.458
 8498W        W80923  17.269  27.380   3.927
 8499W        W80924  24.302  22.043   0.113
 8500W        W80925  12.208  26.575   3.155
 8501W        W80926   5.283  15.098   3.554
 8502W        W80927  13.127   4.307  13.330
 8503W        W80928  14.327  18.252  12.620
 8504W        W80929  35.108  14.122   4.549
 8505W        W80930  44.241  26.971   0.774
 8506W        W80931  43.603  19.910  12.662
 8507W        W80932  20.742  37.345  13.873
 8508W        W80933  33.026   5.927  14.785
 8509W        W80934  43.428  23.626   0.459
 8510W        W80935   7.376   8.761  11.894
 8511W        W80936  20.617  23.274  13.983
 8512W        W80937   7.125   2.775   2.849
 8513W        W80938  13.322  40.307  12.139
 8514W        W80939  20.991  10.672   5.059
 8515W        W80940  39.318   7.385   0.828
 8516W        W80941   0.241  24.408   1.325
 8517W        W80942  12.422  16.650   4.536
 8518W        W80943  18.019   1.445   2.794
 8519W        W80944  34.590  40.497   4.641
 8520W        W80945  11.531  43.004  11.616
 8521W        W80946  27.156  37.777   0.317
 8522W        W80947  10.709   0.240  10.976
 8523W        W80948  27.562  33.437   0.689
 8524W        W80949  34.913  40.486  11.956
 8525W        W80950  18.798  31.170   3.161
 8526W        W80951   7.165  42.111  14.727
 8527W        W80952  15.986  14.262   4.157
 8528W        W80953  33.636  40.930  14.946
 8529W        W80954  32.994   9.380   1.917
 8530W        W80955  18.132   5.837  14.777
 8531W        W80956   5.317  38.581  11.659
 8532W        W80957  33.418   1.565   3.128
 8533W        W80958  13.242  35.813  14.290
 8534W        W80959   3.538  16.596   3.323
 8535W        W80960  38.597  35.458  13.425
 8536W        W80961   8.873  20.172  13.132
 8537W        W80962  44.518  23.420   3.657
 8538W        W80963  28.520  15.030  11.575
 8539W        W80964  12.919  30.973   1.413
 8540W        W80965  16.123  26.956  10.726
 8541W        W80966  26.107  15.300  11.514
 8542W        W80967   7.232   8.080   0.491
 8543W        W80968  32.095  32.320  11.970
 8544W        W80969  13.656  22.439  13.393
 8545W        W80970  35.096  11.361   3.151
 8546W        W80971  38.633   1.905  12.375
 8547W        W80972  35.656  12.573   1.702
 8548W        W80973  12.135  23.025  12.943
 8549W        W80974  27.008  32.146  10.607
 8550W        W80975  13.328  31.123   3.575
 8551W        W80976  23.238  18.292   0.383
 8552W        W80977  44.395   2.661  11.902
 8553W        W80978  39.523  15.095  12.948
 8554W        W80979  36.777  31.596   3.755
 8555W        W80980  19.792  33.834   0.413
 8556W        W80981   1.458  29.969  14.926
 8557W        W80982  30.796   7.269   2.556
 8558W        W80983  12.527  14.624   2.923
 8559W        W80984  32.416  36.570   1.754
 8560W        W80985   5.296  44.047  13.541
 8561W        W80986  23.836  18.733   4.263
 8562W        W80987   6.487  32.378   1.935
 8563W        W80988  10.951   4.908   0.692
 8564W        W80989  14.529  25.634   0.414
 8565W        W80990  34.144  19.136  14.350
 8566W        W80991   6.353  37.429  10.732
 8567W        W80992  25.781  36.639  14.741
 8568W        W80993  35.608  40.149  12.572
 8569W        W80994  26.851  43.861   1.377
 8570W        W80995  36.316   4.773  11.097
 8571W        W80996  22.197  23.835  12.108
 8572W        W80997  32.074  20.580   2.360
 8573W        W80998   0.982  14.211   4.080
 8574W        W80999  18.485  29.121  10.234
 8575W        W81000  32.584  34.820   4.599
 8576W        W81001  37.922  27.000   0.431
 8577W        W81002  42.004  44.099   4.658
 8578W        W81003  16.589  39.393  11.243
 8579W        W81004   6.501  20.626  11.573
 8580W        W81005  24.998  28.957  12.008
 8581W        W81006  33.441   8.273  12.514
 8582W        W81007  41.879   9.348   4.137
 8583W        W81008  34.645  30.489  11.307
 8584W        W81009  26.277  14.090   2.433
 8585W        W81010  24.238  13.141  10.159
 8586W        W81011   9.586   4.863  12.054
 8587W        W81012  25.118  37.278   0.491
 8588W        W81013   6.379   4.340   0.885
 8589W        W81014  42.268  18.017   0.811
 8590W        W81015  39.287  22.619  10.648
 8591W        W81016  18.057   5.878   3.621
 8592W        W81017  38.680  37.572   2.684
 8593W        W81018   0.559  37.179  13.852
 8594W        W81019  38.455  38.348  14.857
 8595W        W81020  14.449  27.550   3.729
 8596W        W81021   6.305  12.543   0.813
 8597W        W81022  13.124  29.508   3.205
 8598W        W81023  22.001  24.696   0.437
 8599W        W81024   2.883  12.069   1.555
 8600W        W81025   4.896   3.954  10.506
 8601W        W81026   0.758  26.474  10.233
 8602W        W81027   4.581   9.431   0.885
 8603W        W81028  10.932  29.417   4.310
 8604W        W81029  38.658  34.069  11.616
 8605W        W81030  40.597  18.306  13.014
 8606W        W81031  39.330  21.128  14.009
 8607W        W81032  39.090  18.579  10.880
 8608W        W81033  30.380  21.335   2.722
 8609W        W81034   6.654  13.626  14.410
 8610W        W81035  10.369   6.178  12.001
 8611W        W81036   2.221   8.112   1.676
 8612W        W81037  34.470  34.105   2.123
 8613W        W81038  22.281  35.427   1.345
 8614W        W81039  23.211   6.657  11.945
 8615W        W81040  40.850   7.791  12.564
 8616W        W81041  18.925  17.099  10.976
 8617W        W81042  30.892  15.688   3.975
 8618W        W81043  26.506  41.771   1.901
 8619W        W81044   7.697  18.311  12.348
 8620W        W81045  24.092  17.716   4.188
 8621W        W81046  33.129  26.648  12.540
 8622W        W81047   3.313  24.353  13.024
 8623W        W81048   2.808  32.059   0.004
 8624W        W81049  31.113  44.523  13.943
 8625W        W81050  17.616  28.393   4.257
 8626W        W81051   3.052  18.043  11.400
 8627W        W81052  31.939   8.011  14.738
 8628W        W81053   5.419  34.864  11.129
 8629W        W81054   7.274  16.280  12.947
 8630W        W81055  44.893  19.228   1.646
 8631W        W81056   0.981   6.935   2.338
 8632W        W81057   5.858   7.901  10.693
 8633W        W81058  11.785  22.546  14.599
 8634W        W81059  28.576  25.661   4.394
 8635W        W81060   7.373  28.373  14.512
 8636W        W81061  13.120  23.163  12.526
 8637W        W81062   0.199  26.857   1.432
 8638W        W81063  11.161  33.031  14.473
 8639W        W81064  25.726  21.943  12.470
 8640W        W81065  44.444   3.803  13.875
 8641W        W81066  10.145  18.352  12.086
 8642W        W81067   4.815   7.198  11.144
 8643W        W81068   3.836   5.140  13.342
 8644W        W81069  43.075   5.471   2.378
 8645W        W81070  18.395  42.832   1.774
 8646W        W81071  10.665  27.089   3.350
 8647W        W81072   5.206  44.348   3.617
 8648W        W81073  31.974  39.632   2.441
 8649W        W81074  37.985   7.864  13.012
 8650W        W81075  39.664  17.152  11.575
 8651W        W81076   4.302  29.090  11.600
 8652W        W81077   5.260  41.845   4.816
 8653W        W81078   9.327  40.729  13.372
 8654W        W81079  39.113   5.713   3.764
 8655W        W81080  36.479  24.049   0.969
 8656W        W81081  25.464  12.208  11.784
 8657W        W81082  17.755  18.066   0.726
 8658W        W81083  28.461  21.083   3.659
 8659W        W81084   6.866  23.962   3.959
 8660W        W81085   7.056  17.151   1.869
 8661W        W81086  41.092  33.069  12.587
 8662W        W81087   8.830   9.466   4.008
 8663W        W81088  28.772   7.660   3.861
 8664W        W81089   5.932  21.355   2.640
 8665W        W81090   4.451  29.145  12.083
 8666W        W81091   6.387  35.315  13.759
 8667W        W81092  26.610  24.700   3.719
 8668W        W81093  27.566  33.821  13.398
 8669W        W81094  29.696  26.743   0.903
 8670W        W81095  28.963  44.969   0.490
 8671W        W81096   1.782  15.629  14.802
 8672W        W81097  38.419  13.820   0.038
 8673W        W81098  25.947  25.050  11.891
 8674W        W81099  21.527   9.880   3.201
 8675W        W81100   9.752   7.152  11.606
 8676W        W81101  35.688  30.454  11.034
 8677W        W81102  41.288   8.866  13.340
 8678W        W81103  12.353  42.041   2.383
 8679W        W81104  33.352  29.576  11.249
 8680W        W81105  31.973  43.233  12.721
 8681W        W81106  42.952  23.181  14.480
 8682W        W81107  34.605  13.176  11.935
 8683W        W81108   9.525   8.233   4.284
 8684W        W81109  34.306  21.865  11.971
 8685W        W81110  20.071   9.880  13.118
 8686W        W81111  26.614  15.665  12.180
 8687W        W81112  20.287   8.783  10.498
 8688W        W81113  20.530   7.241   4.882
 8689W        W81114  10.048   9.650  13.811
 8690W        W81115  26.155  22.231  10.665
 8691W        W81116   9.725  40.271   2.733
 8692W        W81117  33.363  29.564   1.655
 8693W        W81118   8.932  11.758   0.445
 8694W        W81119  42.389   3.056   3.796
 8695W        W81120  33.397  15.784   4.553
 8696W        W81121  16.829   3.810  12.961
 8697W        W81122  13.850  35.306  14.911
 8698W        W81123  27.609  17.711   4.068
 8699W        W81124  24.796   8.775  11.616
 8700W        W81125  16.651   3.570   0.656
 8701W        W81126  24.849   4.171  11.335
 8702W        W81127  31.100  38.827   4.196
 8703W        W81128  29.167  28.165  14.499
 8704W        W81129  36.033  42.790  11.181
 8705W        W81130  10.910   5.331  10.936
 8706W        W81131  15.271  28.093   2.771
 8707W        W81132   4.712  39.106   2.266
 8708W        W81133  17.742  25.972  14.865
 8709W        W81134  19.374  11.304  10.602
 8710W        W81135  33.556  18.487  12.989
 8711W        W81136  22.133  20.961   3.224
 8712W        W81137  43.471   3.272   5.021
 8713W        W81138  44.412  10.717   4.790
 8714W        W81139  36.586   9.053   2.159
 8715W        W81140   9.742  32.102  11.983
 8716W        W81141  16.227  38.134   2.727
 8717W        W81142  41.894  41.200   4.231
 8718W        W81143  12.195  11.383   2.598
 8719W        W81144  19.557  32.411  12.604
 8720W        W81145  44.875  15.546   0.511
 8721W        W81146  15.160  22.175  10.887
 8722W        W81147  20.554  18.007   2.021
 8723W        W81148  10.692   7.886  12.162
 8724W        W81149  38.641  27.244  14.125
 8725W        W81150  16.675  12.765   4.742
 8726W        W81151  27.904  33.998   0.283
 8727W        W81152  13.248  13.768   0.724
 8728W        W81153  31.896  44.326   4.698
 8729W        W81154   8.528   8.396  12.511
 8730W        W81155  27.414  27.045   4.338
 8731W        W81156  43.403   2.031   1.308
 8732W        W81157  25.637  24.258   4.451
 8733W        W81158  22.929  16.468  14.866
 8734W        W81159  18.533  27.691   4.040
 8735W        W81160  40.191  33.886   2.774
 8736W        W81161  26.441  17.544  12.347
 8737W        W81162  42.890  31.369   0.762
 8738W        W81163  34.570  12.219   3.134
 8739W        W81164   7.845  12.744  11.653
 8740W        W81165  25.668  15.807  11.774
 8741W        W81166  41.839  18.621  13.133
 8742W        W81167  10.186  32.831   2.756
 8743W        W81168   9.189   6.349  11.497
 8744W        W81169   2.473  18.281   0.963
 8745W        W81170  18.208  30.844  13.988
 8746W        W81171  41.411  14.855   4.113
 8747W        W81172   9.448   2.183  14.027
 8748W        W81173  23.777  20.964  12.017
 8749W        W81174  37.956  10.825  14.334
 8750W        W81175   2.285  20.087   4.566
 8751W        W81176  20.393   1.279  11.092
 8752W        W81177  43.354   8.547  14.524
 8753W        W81178  20.683  21.072  11.470
 8754W        W81179   9.587   3.794   3.121
 8755W        W81180   6.711  19.061   4.206
 8756W        W81181   4.793  28.670  14.821
 8757W        W81182  27.034  13.259  14.910
 8758W        W81183  30.051   8.967  14.344
 8759W        W81184   0.311  39.780  13.883
 8760W        W81185  31.547  25.567   4.155
 8761W        W81186  31.003  40.021  13.833
 8762W        W81187  31.904   2.443   5.044
 8763W        W81188  36.146   5.841   2.692
 8764W        W81189  40.363  16.321   2.319
 8765W        W81190   8.268  37.776  14.942
 8766W        W81191  27.719  36.584   4.882
 8767W        W81192  44.756  21.096   1.894
 8768W        W81193   9.161   4.500   3.638
 8769W        W81194  23.195  18.502  14.411
 8770W        W81195  34.901  30.851   4.586
 8771W        W81196  23.514  26.734   2.994
 8772W        W81197  44.927  12.670   0.716
 8773W        W81198   1.494  26.050  12.450
 8774W        W81199  14.361  31.643   4.337
 8775W        W81200   5.845   0.110   4.578
 8776W        W81201  37.241  42.057   2.030
 8777W        W81202  35.203  17.228   2.407
 8778W        W81203  25.560  32.737  13.109
 8779W        W81204  36.251  26.477   0.293
 8780W        W81205   5.891  41.938  11.260
 8781W        W81206   3.767  13.346  10.705
 8782W        W81207  14.848  38.335  12.511
 8783W        W81208  14.848  41.379  13.188
 8784W        W81209  25.717  17.875  14.023
 8785W        W81210  42.289  13.439  14.482
 8786W        W81211  15.889  10.442  13.355
 8787W        W81212  29.219  28.579   1.386
 8788W        W81213  22.157  23.954  14.805
 8789W        W81214   7.637  10.099  14.344
 8790W        W81215  31.458  32.503  10.980
 8791W        W81216   3.746   9.335   1.240
 8792W        W81217  27.180  25.532   3.897
 8793W        W81218  25.008  20.588  10.701
 8794W        W81219  12.174   7.463   1.497
 8795W        W81220  25.126  26.283   5.200
 8796W        W81221  23.974  35.832   0.077
 8797W        W81222   4.862   8.986   0.986
 8798W        W81223  25.935  17.186   1.402
 8799W        W81224  26.434  13.252  12.875
 8800W        W81225  39.858  23.394   2.340
 8801W        W81226  15.165  23.284  13.974
 8802W        W81227   9.697   4.934  10.711
 8803W        W81228  16.359   2.828  11.318
 8804W        W81229  32.170  12.592   0.667
 8805W        W81230  23.690  21.456   0.996
 8806W        W81231   2.914  23.393  11.985
 8807W        W81232  12.275  28.185  12.641
 8808W        W81233  32.762  31.474  10.536
 8809W        W81234  27.491  26.683  10.403
 8810W        W81235  26.703   5.011   2.676
 8811W        W81236  31.454  15.255   1.798
 8812W        W81237   8.187  39.380  14.558
 8813W        W81238  11.358   5.992  14.780
 8814W        W81239  35.003  40.811  13.002
 8815W        W81240  30.865  14.087   0.845
 8816W        W81241  15.352  21.238  11.133
 8817W        W81242   1.438   8.007  11.098
 8818W        W81243   1.781  40.590  13.660
 8819W        W81244  26.264  36.032  13.967
 8820W        W81245   1.898   2.950   3.167
 8821W        W81246  21.647  24.700  10.636
 8822W        W81247  37.864  23.217   4.932
 8823W        W81248  37.011  17.287  12.150
 8824W        W81249  38.480  37.480  10.201
 8825W        W81250  28.013  16.054   2.452
 8826W        W81251  13.915  12.899  11.472
 8827W        W81252   1.785  44.026   1.626
 8828W        W81253  15.398   0.961  10.675
 8829W        W81254  11.840  24.274   3.311
 8830W        W81255   0.458  28.133  10.028
 8831W        W81256   7.251  26.929  14.435
 8832W        W81257  18.498  12.868   2.263
 8833W        W81258   6.506  41.936   3.125
 8834W        W81259   6.766  13.349   0.234
 8835W        W81260  42.749  39.827   3.508
 8836W        W81261  39.532  35.208  13.328
 8837W        W81262   3.330  10.619  12.783
 8838W        W81263   5.119  30.380   0.367
 8839W        W81264  18.344  32.119  10.225
 8840W        W81265  32.878  39.826  11.447
 8841W        W81266  37.973  35.434  11.444
 8842W        W81267  22.611  13.356   4.611
 8843W        W81268  33.046  37.354   0.986
 8844W        W81269  33.957   3.414  14.386
 8845W        W81270  44.727  39.065   1.168
 8846W        W81271  12.315  21.262  14.038
 8847W        W81272  25.529   5.025  10.644
 8848W        W81273  25.135  40.335  14.320
 8849W        W81274  37.144  38.608   0.832
 8850W        W81275  10.592  14.212   3.901
 8851W        W81276  29.698  40.387  14.323
 8852W        W81277  31.391  11.843   1.365
 8853W        W81278  22.938  18.225  11.963
 8854W        W81279  18.817  26.937  10.435
 8855W        W81280  24.861  29.046   3.674
 8856W        W81281  19.265  18.387  14.373
 8857W        W81282   6.390  10.206  13.140
 8858W        W81283   1.388  25.747   1.412
 8859W        W81284   3.271   6.725   2.674
 8860W        W81285  44.801  35.217   4.574
 8861W        W81286  35.783  35.527   3.358
 8862W        W81287  34.915  10.611  11.559
 8863W        W81288  12.800  20.064   2.669
 8864W        W81289  42.486  37.853   4.078
 8865W        W81290  23.052  44.459   1.186
 8866W        W81291  33.990  37.066   4.402
 8867W        W81292  35.890  22.595  14.032
 8868W        W81293   2.817  29.820   4.314
 8869W        W81294   5.686   6.586  11.009
 8870W        W81295  18.057  17.215   2.762
 8871W        W81296  16.804  33.051  10.584
 8872W        W81297  37.006   5.297  10.985
 8873W        W81298  29.212  21.225   1.791
 8874W        W81299   6.813  11.229  13.536
 8875W        W81300  21.245  19.341  13.322
 8876W        W81301  29.398  43.081  10.227
 8877W        W81302  38.075  22.048  11.013
 8878W        W81303  28.091  34.037  12.063
 8879W        W81304  34.138  36.798  11.508
 8880W        W81305   0.814  43.681  14.666
 8881W        W81306  20.637  31.084  10.684
 8882W        W81307  14.537  31.963   1.819
 8883W        W81308   9.139  41.787   1.434
 8884W        W81309  21.011  36.947  13.536
 8885W        W81310  38.603  38.145   5.294
 8886W        W81311  38.582  29.305   4.541
 8887W        W81312  20.644  34.127   1.713
 8888W        W81313  44.708  15.340  13.987
 8889W        W81314  39.784   0.569   9.833
 8890W        W81315  32.058  13.210  11.938
 8891W        W81316  16.661  28.481  11.970
 8892W        W81317  26.653  21.493   3.396
 8893W        W81318  39.641  40.129   2.718
 8894W        W81319  29.869  18.021   2.788
 8895W        W81320  10.853  37.441   0.816
 8896W        W81321  27.595  39.003  13.215
 8897W        W81322   1.697   6.279  14.319
 8898W        W81323  16.127  15.517  13.027
 8899W        W81324  18.012  12.951  14.992
 8900W        W81325  37.388  16.603  13.419
 8901W        W81326  32.878  22.695   3.028
 8902W        W81327   0.628  17.691  14.445
 8903W        W81328  26.584   7.966   3.666
 8904W        W81329   1.733   5.516  13.344
 8905W        W81330  35.274   5.664  12.060
 8906W        W81331  36.580   4.787   0.770
 8907W        W81332  33.577   9.797   1.012
 8908W        W81333   7.262  39.202  11.618
 8909W        W81334  28.933  12.925  10.820
 8910W        W81335  39.401  19.325  11.361
 8911W        W81336  36.116  10.715   3.323
 8912W        W81337  27.922  25.171  14.759
 8913W        W81338  41.444   8.132  14.141
 8914W        W81339  15.590  17.365   0.399
 8915W        W81340   5.630  13.280   4.580
 8916W        W81341   7.842   7.225  14.506
 8917W        W81342  14.217   6.748  13.408
 8918W        W81343  27.497  25.876   3.138
 8919W        W81344   1.301  24.459   4.118
 8920W        W81345  18.911  43.027  13.485
 8921W        W81346  39.081  21.177  12.204
 8922W        W81347  27.387   2.964  12.686
 8923W        W81348  17.067  32.188  13.706
 8924W        W81349   1.800  12.410  11.248
 8925W        W81350  34.937  25.454   1.667
 8926W        W81351  43.761  30.354   3.364
 8927W        W81352  44.304  18.800  10.456
 8928W        W81353   4.296  25.489  10.408
 8929W        W81354  25.172  16.606   3.213
 8930W        W81355  44.628  38.434   1.444
 8931W        W81356  37.621   6.332  12.584
 8932W        W81357  29.975  32.630   5.558
 8933W        W81358  42.799  27.086  14.309
 8934W        W81359  25.478  11.652  14.421
 8935W        W81360  15.839  24.412   3.658
 8936W        W81361  15.052  19.495  11.123
 8937W        W81362  37.160  18.244   0.772
 8938W        W81363  12.350   0.264   4.205
 8939W        W81364  24.049   2.220   1.975
 8940W        W81365  44.305  11.982   0.204
 8941W        W81366  14.267  35.862   1.017
 8942W        W81367  29.994  16.692   4.472
 8943W        W81368  39.046  41.794  11.888
 8944W        W81369   5.447  12.682  14.687
 8945W        W81370  22.640  19.739   2.425
 8946W        W81371  41.703  27.772   0.826
 8947W        W81372  28.756  42.943  12.635
 8948W        W81373  33.530  15.344   4.277
 8949W        W81374  43.798  30.243  12.685
 8950W        W81375  10.277  10.336  12.104
 8951W        W81376   4.738  44.994  14.045
 8952W        W81377  11.394  10.730  11.580
 8953W        W81378   4.968  43.385  13.067
 8954W        W81379  16.695  15.612  13.363
 8955W        W81380   7.985  44.888   2.243
 8956W        W81381  26.968  42.336  13.581
 8957W        W81382  32.856   9.967  12.552
 8958W        W81383   4.713  38.398  11.384
 8959W        W81384  33.606  21.304   0.385
 8960W        W81385  30.634  39.972   2.914
 8961W        W81386  15.654  38.952   1.239
 8962W        W81387  12.879  12.831  13.948
 8963W        W81388  38.367  20.042   0.909
 8964W        W81389  21.173   8.290  13.107
 8965W        W81390  27.023  34.936   2.926
 8966W        W81391  15.664  38.467  14.875
 8967W        W81392  34.625  39.458  12.043
 8968W        W81393  17.826  33.372  14.203
 8969W        W81394  19.657  10.709   2.127
 8970W        W81395  34.836   8.466  13.986
 8971W        W81396  41.248  29.526   4.448
 8972W        W81397  36.247  36.825  12.844
 8973W        W81398  14.317  14.059   4.383
 8974W        W81399  32.654  18.889   5.097
 8975W        W81400  35.944  44.468  12.447
 8976W        W81401  28.721  24.712   0.718
 8977W        W81402   2.477  43.184   4.537
 8978W        W81403   5.425  23.001   0.447
 8979W        W81404  41.186   7.331   1.777
 8980W        W81405  31.077  35.247   1.619
 8981W        W81406  32.571  10.021   1.195
 8982W        W81407   1.768  19.021   0.926
 8983W        W81408  31.682  29.659   4.342
 8984W        W81409  27.639  14.239   4.045
 8985W        W81410   8.706  28.494   0.001
 8986W        W81411   6.878  35.795  14.332
 8987W        W81412  33.410  32.534  12.084
 8988W        W81413  38.581  18.663  14.353
 8989W        W81414  33.426   6.278  12.579
 8990W        W81415  34.139  31.586  12.054
 8991W        W81416   6.717  22.696  12.994
 8992W        W81417  10.143  32.387  10.596
 8993W        W81418  22.112  27.569  12.365
 8994W        W81419  42.700  15.229  10.688
 8995W        W81420  42.015  17.594   1.766
 8996W        W81421  15.210  26.505  14.232
 8997W        W81422  34.747  43.945   0.819
 8998W        W81423  43.511  43.150  10.975
 8999W        W81424  30.990  17.102  12.837
 9000W        W81425   6.813  37.410  11.564
 9001W        W81426  19.020   6.093   0.989
 9002W        W81427  11.657  19.316   4.850
 9003W        W81428  11.091  39.146   1.262
 9004W        W81429  43.821  32.584   2.688
 9005W        W81430  31.600  33.399  14.144
 9006W        W81431   1.962   5.014  10.983
 9007W        W81432  26.367  21.689  13.491
 9008W        W81433   3.027  20.667  13.067
 9009W        W81434  24.682  34.211   1.907
 9010W        W81435   3.020  18.103   2.861
 9011W        W81436  20.190  34.215  13.334
 9012W        W81437  26.567  29.156  11.533
 9013W        W81438  30.387   7.243  13.721
 9014W        W81439  11.383   0.638   1.400
 9015W        W81440  14.515  27.120  12.616
 9016W        W81441  43.943  33.910   3.362
 9017W        W81442  40.847   6.847  12.098
 9018W        W81443  26.621  36.128   3.148
 9019W        W81444   5.301  26.222  10.672
 9020W        W81445  42.204   1.977  11.454
 9021W        W81446   1.156  27.568  10.930
 9022W        W81447  40.296   5.827   4.526
 9023W        W81448  27.556  24.441  14.815
 9024W        W81449   5.112  27.965  13.027
 9025W        W81450  43.401  44.533  14.413
 9026W        W81451  21.100  31.068  11.414
 9027W        W81452  21.731  36.761  11.082
 9028W        W81453  30.567  41.407   2.307
 9029W        W81454  25.344  23.423   4.701
 9030W        W81455  37.106  39.900   0.287
 9031W        W81456  23.634  40.524   4.349
 9032W        W81457  10.863  12.914   2.662
 9033W        W81458  39.534  44.436   1.231
 9034W        W81459   3.695  25.627  13.564
 9035W        W81460  14.898  17.258   0.967
 9036W        W81461  13.195  12.411  10.732
 9037W        W81462  36.086  12.366  13.280
 9038W        W81463  32.740  39.540   2.777
 9039W        W81464  21.061  37.442  14.684
 9040W        W81465  23.155   0.326   1.227
 9041W        W81466  29.260  12.112  13.765
 9042W        W81467  43.866  30.714   0.209
 9043W        W81468  14.129  21.143   3.331
 9044W        W81469  28.024   7.685  11.135
 9045W        W81470  25.475  18.339   3.817
 9046W        W81471  13.784  24.646   2.583
 9047W        W81472  19.246  25.605  14.597
 9048W        W81473  38.328  11.453  10.849
 9049W        W81474  26.645   4.746  14.463
 9050W        W81475  44.367  30.561  10.144
 9051W        W81476  42.237   5.300  12.427
 9052W        W81477  43.062  42.355  14.909
 9053W        W81478  34.272  38.136  11.126
 9054W        W81479  13.300  36.559  14.981
 9055W        W81480   6.308  11.887   3.695
 9056W        W81481   3.750  43.988  13.768
 9057W        W81482  33.035   1.193   2.292
 9058W        W81483  14.665  41.360   2.201
 9059W        W81484  35.046  21.111  14.909
 9060W        W81485  14.700  39.431   2.906
 9061W        W81486   0.094  18.094  13.064
 9062W        W81487  23.262  28.284   0.719
 9063W        W81488  41.511  34.872  13.821
 9064W        W81489  23.050  43.994   4.249
 9065W        W81490   4.452   0.405  10.636
 9066W        W81491  20.569  43.169   1.886
 9067W        W81492  32.521  21.181   0.273
 9068W        W81493   1.377  12.674  11.010
 9069W        W81494  41.818   2.856  12.938
 9070W        W81495   0.847  44.238   4.633
 9071W        W81496   3.888   2.557  11.083
 9072W        W81497   4.358  42.106  11.164
 9073W        W81498   2.703  43.829  11.650
 9074W        W81499  43.885  42.012  11.611
 9075W        W81500  19.730  12.368   4.471
 9076W        W81501   7.057  43.009  12.321
 9077W        W81502  11.847  33.310   0.015
 9078W        W81503   0.684  14.679   0.035
 9079W        W81504  15.318  44.231  10.468
 9080W        W81505  25.367  11.795   0.755
 9081W        W81506   9.019  27.831  13.867
 9082W        W81507  38.970   2.288  11.508
 9083W        W81508  40.083  10.781   1.503
 9084W        W81509  28.165  34.096   0.778
 9085W        W81510  20.227  13.630  13.744
 9086W        W81511   2.332  31.515   0.257
 9087W        W81512  17.204  34.480  11.152
 9088W        W81513  41.820  24.714   1.191
 9089W        W81514  21.300  42.906   4.925
 9090W        W81515  32.473  33.188   2.552
 9091W        W81516  35.103  24.004  12.508
 9092W        W81517  36.168  11.770  10.564
 9093W        W81518  21.171  18.693   0.951
 9094W        W81519  26.624   1.177   4.159
 9095W        W81520   8.677   5.661  14.069
 9096W        W81521  18.167   3.169  12.017
 9097W        W81522  33.595   4.940  12.938
 9098W        W81523  44.282   9.953  11.936
 9099W        W81524  24.153  34.498   4.088
 9100W        W81525  18.089   2.556  11.171
 9101W        W81526  44.816  25.670  14.845
 9102W        W81527  16.332  36.062  12.859
 9103W        W81528   5.443   7.158  11.977
 9104W        W81529  19.247  34.498   4.476
 9105W        W81530   0.331  34.508   4.645
 9106W        W81531  40.055  29.200  10.734
 9107W        W81532  34.522  31.694   3.737
 9108W        W81533  29.998   4.690   4.118
 9109W        W81534  41.898  42.798  12.981
 9110W        W81535  36.551  35.385  13.904
 9111W        W81536  16.990   5.117  13.811
 9112W        W81537  38.886  11.233  13.825
 9113W        W81538   5.379  20.646  13.447
 9114W        W81539  32.076   9.058  13.386
 9115W        W81540  40.685  41.373   2.920
 9116W        W81541   7.096  10.772  11.474
 9117W        W81542  27.986   2.771   4.130
 9118W        W81543  27.935   8.732  13.792
 9119W        W81544  37.484  17.275   0.240
 9120W        W81545  23.504  38.290  12.980
 9121W        W81546  28.247  43.316   2.352
 9122W        W81547   1.410  37.350  13.353
 9123W        W81548  21.349  18.242  14.360
 9124W        W81549   4.649  26.148  11.878
 9125W        W81550   2.989  10.418   2.664
 9126W        W81551  21.758  15.181  11.549
 9127W        W81552  14.022  44.314  11.430
 9128W        W81553  33.191  10.715  11.587
 9129W        W81554  30.537   0.236   1.879
 9130W        W81555  11.657  11.914   4.130
 9131W        W81556   1.233  37.539   0.945
 9132W        W81557  32.788  20.981  11.434
 9133W        W81558  35.640  25.734   3.780
 9134W        W81559  34.845  32.646   2.329
 9135W        W81560  30.720  27.430  14.489
 9136W        W81561  26.862  41.001  12.527
 9137W        W81562   3.193  36.919   2.400
 9138W        W81563  40.787   1.631  14.401
 9139W        W81564  37.909  41.714  13.383
 9140W        W81565  23.274  43.935   0.851
 9141W        W81566   3.814  33.925  14.424
 9142W        W81567   2.923   8.903  10.611
 9143W        W81568  19.152  38.049  12.601
 9144W        W81569   4.741  30.836  11.936
 9145W        W81570  15.039  24.780   4.698
 9146W        W81571  26.918  12.830   3.606
 9147W        W81572   5.882   2.808   0.366
 9148W        W81573  22.690  40.430   1.719
 9149W        W81574  34.969  43.363   0.531
 9150W        W81575  21.306  38.538   2.940
 9151W        W81576  25.823  30.762  10.040
 9152W        W81577  41.786  32.546   1.685
 9153W        W81578   3.839  11.130  13.803
 9154W        W81579  29.437  30.910  13.495
 9155W        W81580  10.001  35.466   3.670
 9156W        W81581  30.591   0.603  10.576
 9157W        W81582  23.531  44.027  10.669
 9158W        W81583   9.648  20.698  13.057
 9159W        W81584  21.660   3.260  12.024
 9160W        W81585  21.559   7.214   4.627
 9161W        W81586  20.269  21.694  13.277
 9162W        W81587   5.792   4.365   2.814
 9163W        W81588  30.947  12.954  10.964
 9164W        W81589   6.459  21.681  14.949
 9165W        W81590   0.873  38.909  13.962
 9166W        W81591  40.156  26.956  10.977
 9167W        W81592  21.319  33.930  12.071
 9168W        W81593  16.038  40.892   3.083
 9169W        W81594  32.102  40.348  11.437
 9170W        W81595  39.399  18.487  11.628
 9171W        W81596  35.628   5.474   3.310
 9172W        W81597  40.838  39.241  11.519
 9173W        W81598  16.156  36.542   4.431
 9174W        W81599  20.112  30.974  11.214
 9175W        W81600   8.844  43.545   4.259
 9176W        W81601  34.580   3.770  13.070
 9177W        W81602  12.392  24.212   5.662
 9178W        W81603   4.659  24.980  12.319
 9179W        W81604  25.248   6.686  13.391
 9180W        W81605  19.437   7.689   0.982
 9181W        W81606  41.985  37.358   2.106
 9182W        W81607  12.169  10.194   1.860
 9183W        W81608  33.884   1.319  11.523
 9184W        W81609  31.747  31.903  12.568
 9185W        W81610   6.663  37.164   0.920
 9186W        W81611   8.910  36.950   3.290
 9187W        W81612  16.717   9.276   0.744
 9188W        W81613   5.539  25.585  10.850
 9189W        W81614  35.463  17.224  12.430
 9190W        W81615  37.360   2.646  13.094
 9191W        W81616  10.736  37.318   4.989
 9192W        W81617   0.449  42.868   2.697
 9193W        W81618  33.110  27.736   4.757
 9194W        W81619  28.918  10.286   0.821
 9195W        W81620  28.528   3.025  13.514
 9196W        W81621  35.404   2.856  12.975
 9197W        W81622  19.535   0.929  12.987
 9198W        W81623  22.640  26.075  11.256
 9199W        W81624   7.142  26.972   1.818
 9200W        W81625  17.684  43.978  11.872
 9201W        W81626  44.700  12.594   3.202
 9202W        W81627  37.377  23.177  12.079
 9203W        W81628  14.204  16.588   2.263
 9204W        W81629  20.653  42.734  12.160
 9205W        W81630  10.090  43.245   4.204
 9206W        W81631  32.077  29.173   1.395
 9207W        W81632  12.681  15.375   3.436
 9208W        W81633  18.810   6.621  12.060
 9209W        W81634  28.648  32.041   2.365
 9210W        W81635   5.975  26.491   3.835
 9211W        W81636   3.469  27.105  13.854
 9212W        W81637  22.054   5.477   1.151
 9213W        W81638  19.492  31.523  10.703
 9214W        W81639  18.832  42.522  13.434
 9215W        W81640   6.155  20.133   1.383
 9216W        W81641  34.265  35.098  13.474
 9217W        W81642   0.232   8.768  10.542
 9218W        W81643  29.345  33.618  12.955
 9219W        W81644  27.711  28.332  11.587
 9220W        W81645   1.083  26.152  12.775
 9221W        W81646   6.725  21.677  11.618
 9222W        W81647  37.582  13.182   2.588
 9223W        W81648  19.141  29.031  13.434
 9224W        W81649  20.266   8.149   2.811
 9225W        W81650   3.259  20.995  10.629
 9226W        W81651  11.591  38.960  13.919
 9227W        W81652  12.633  37.873  13.871
 9228W        W81653   7.972   6.112   2.440
 9229W        W81654  36.748  43.957   1.255
 9230W        W81655  43.165  17.843  12.103
 9231W        W81656   7.322  29.755  12.868
 9232W        W81657  38.842   0.738   1.340
 9233W        W81658  30.140   2.492   3.730
 9234W        W81659  21.066  25.058   3.749
 9235W        W81660  37.046  44.981   4.646
 9236W        W81661  43.598  24.404  10.288
 9237W        W81662  43.893  35.625   4.596
 9238W        W81663   0.819  20.317   4.645
 9239W        W81664  10.184  38.332  11.608
 9240W        W81665  21.844  16.817  13.711
 9241W        W81666  14.650  25.524   3.283
 9242W        W81667  31.956  21.841   2.959
 9243W        W81668  28.317  15.409  14.985
 9244W        W81669  37.481  43.672  11.981
 9245W        W81670  21.506  32.033   1.663
 9246W        W81671  41.684   6.306  13.449
 9247W        W81672  10.765  14.108  13.541
 9248W        W81673  32.451  25.172   4.792
 9249W        W81674  43.089   9.398  14.594
 9250W        W81675   3.133   8.751  12.040
 9251W        W81676  21.025  10.181  14.943
 9252W        W81677  17.233   5.610   0.190
 9253W        W81678  44.004   6.822  14.305
 9254W        W81679   6.438  42.797   4.697
 9255W        W81680  23.954  21.765  11.652
 9256W        W81681  23.759  35.916   1.025
 9257W        W81682  36.446   6.201  11.038
 9258W        W81683  38.844   6.169   1.909
 9259W        W81684  13.357   2.980   4.924
 9260W        W81685  44.946  13.564   0.149
 9261W        W81686  43.838   2.038  12.684
 9262W        W81687  36.367  42.254  14.333
 9263W        W81688   5.657  14.389  13.568
 9264W        W81689  25.666  33.470  13.637
 9265W        W81690   7.695   6.654  11.022
 9266W        W81691  39.713  28.120  12.944
 9267W        W81692   1.947  34.313  14.299
 9268W        W81693   5.849  36.075   3.642
 9269W        W81694  15.713  41.517   2.145
 9270W        W81695  16.321  17.009   4.541
 9271W        W81696  14.722   4.882  13.910
 9272W        W81697  44.862  28.947  14.417
 9273W        W81698   3.676   5.125   3.401
 9274W        W81699   3.265  24.285   4.949
 9275W        W81700  36.518  30.882  12.313
 9276W        W81701  18.131  41.619  14.903
 9277W        W81702  41.497   2.201   2.136
 9278W        W81703  32.922   3.896   4.644
 9279W        W81704  33.291  25.895   0.787
 9280W        W81705  27.678  22.147   1.844
 9281W        W81706  12.704  39.012   4.250
 9282W        W81707  13.089  42.910   4.012
 9283W        W81708   3.797  24.953  11.826
 9284W        W81709   4.378  32.838   1.008
 9285W        W81710  17.659  36.835   0.374
 9286W        W81711   3.483  28.009   2.668
 9287W        W81712  13.924  16.765  11.951
 9288W        W81713  35.653   1.323   1.795
 9289W        W81714  42.610  39.106   3.880
 9290W        W81715  28.569  20.782   4.858
 9291W        W81716  22.083  23.742   2.656
 9292W        W81717   8.664  26.240  10.774
 9293W        W81718  10.163   9.270  11.088
 9294W        W81719  17.890  32.680   2.839
 9295W        W81720  43.826  19.098  12.513
 9296W        W81721  26.501   7.365  13.559
 9297W        W81722  28.694  22.166   4.615
 9298W        W81723  38.358  11.158   0.010
 9299W        W81724  37.491  17.726  11.742
 9300W        W81725   9.087  10.782  11.754
 9301W        W81726   4.059  32.450   3.027
 9302W        W81727  36.061  34.408   2.689
 9303W        W81728   4.248   5.267   0.624
 9304W        W81729  32.295  23.436   4.772
 9305W        W81730  23.015  20.475  11.542
 9306W        W81731  12.861   0.860   2.172
 9307W        W81732   9.414  23.256   4.558
 9308W        W81733  12.275   0.698  14.247
 9309W        W81734  41.808  19.385   0.321
 9310W        W81735  19.364  35.067  11.185
 9311W        W81736  36.500   0.346  13.996
 9312W        W81737  33.675   3.237  13.979
 9313W        W81738  35.496   6.610   2.404
 9314W        W81739  28.169  28.562  11.518
 9315W        W81740  44.750  28.871  11.398
 9316W        W81741  17.539  22.809  12.478
 9317W        W81742   8.325  27.843  14.503
 9318W        W81743  11.407  34.768   1.919
 9319W        W81744  35.283  11.704   2.771
 9320W        W81745  36.217   8.926  13.440
 9321W        W81746  28.211  29.073   3.404
 9322W        W81747  25.721  41.795  13.490
 9323W        W81748  24.114  43.306  10.546
 9324W        W81749  38.481  36.509   0.251
 9325W        W81750  11.230  42.089   3.741
 9326W        W81751   7.615  33.458  13.052
 9327W        W81752  33.487  17.396   0.680
 9328W        W81753  17.289   5.208   0.499
 9329W        W81754   8.147  40.451   3.335
 9330W        W81755   8.798   2.178  13.377
 9331W        W81756  16.245  22.117   1.293
 9332W        W81757  11.891   7.198  10.516
 9333W        W81758  30.083  18.534   3.667
 9334W        W81759   1.979  29.060  13.947
 9335W        W81760  23.326  16.690  13.903
 9336W        W81761  42.433  19.569   0.425
 9337W        W81762   2.047   8.821  12.062
 9338W        W81763  13.369  17.085  13.883
 9339W        W81764  29.605   8.112  12.431
 9340W        W81765   8.411  41.991   4.810
 9341W        W81766   2.766  19.465   2.835
 9342W        W81767  28.509  23.913   1.234
 9343W        W81768  44.713  24.919  12.498
 9344W        W81769  35.359  11.866   3.242
 9345W        W81770  33.713  17.713   4.355
 9346W        W81771   7.932  41.071   2.213
 9347W        W81772  10.547  37.043  11.874
 9348W        W81773  21.600  31.481  14.010
 9349W        W81774   5.781  23.397  13.901
 9350W        W81775  32.390  26.967  13.561
 9351W        W81776  23.969  25.451   4.077
 9352W        W81777  32.433  19.621   2.445
 9353W        W81778  18.203  17.908   1.446
 9354W        W81779   9.346   6.679   4.114
 9355W        W81780   0.335   3.253   4.689
 9356W        W81781  12.825  37.550   1.367
 9357W        W81782  26.554   5.664  14.307
 9358W        W81783  19.222   0.020   4.154
 9359W        W81784  34.796  44.519   4.083
 9360W        W81785  37.829  22.807  10.816
 9361W        W81786  37.881  29.053   4.118
 9362W        W81787  29.038  10.095  14.461
 9363W        W81788  24.774  33.609  12.526
 9364W        W81789  24.430   6.088  13.372
 9365W        W81790  14.398  12.169  12.069
 9366W        W81791  28.229  23.399   2.869
 9367W        W81792  10.221  39.291   0.722
 9368W        W81793  33.112  39.317  10.605
 9369W        W81794   1.677  10.691  11.260
 9370W        W81795   0.476  20.226  14.824
 9371W        W81796  33.017  40.663   0.451
 9372W        W81797   2.236   1.805  14.904
 9373W        W81798  10.731  41.037  12.567
 9374W        W81799  20.107   1.788   1.451
 9375W        W81800  32.364  23.590  10.624
 9376W        W81801  17.397   8.569  12.932
 9377W        W81802   3.347  23.637   2.903
 9378W        W81803  15.353   1.699  11.945
 9379W        W81804  39.676  32.032   3.141
 9380W        W81805  26.836  36.390   0.209
 9381W        W81806  26.401  25.168   3.720
 9382W        W81807  24.141   0.767   4.095
 9383W        W81808  44.329  17.614  13.464
 9384W        W81809   9.812   2.017   3.550
 9385W        W81810  11.342  38.161   3.791
 9386W        W81811   7.765   5.055   2.683
 9387W        W81812  13.048  10.417  10.114
 9388W        W81813  32.792  39.304  13.803
 9389W        W81814  22.131  43.364  13.272
 9390W        W81815  32.823  28.399   2.841
 9391W        W81816   0.792  11.613  11.535
 9392W        W81817  19.700  27.608   2.451
 9393W        W81818  28.212  19.157   3.743
 9394W        W81819  25.337  18.212   2.708
 9395W        W81820  24.778   5.027   1.797
 9396W        W81821  32.723  26.064  11.962
 9397W        W81822  21.507  23.037  10.945
 9398W        W81823  43.645  13.296   3.445
 9399W        W81824  11.331  17.208  11.600
 9400W        W81825  44.748   6.514   2.787
 9401W        W81826   5.315  16.760   3.065
 9402W        W81827  42.843  29.150   4.415
 9403W        W81828  13.161   1.910   0.339
 9404W        W81829  19.148   8.735   1.876
 9405W        W81830  21.692  33.915  10.758
 9406W        W81831  36.084  42.577  12.485
 9407W        W81832   3.888  14.845   2.481
 9408W        W81833  37.375  27.481  13.403
 9409W        W81834  26.535  33.524   0.867
 9410W        W81835  24.746  42.554   1.852
 9411W        W81836  22.513  23.788   2.953
 9412W        W81837   8.407  31.149  10.766
 9413W        W81838  17.324  42.931  14.249
 9414W        W81839  21.475  38.616  14.429
 9415W        W81840  24.380  14.181  11.973
 9416W        W81841   8.946  14.875   1.448
 9417W        W81842  35.627  15.460   3.543
 9418W        W81843  38.415  29.944  12.992
 9419W        W81844  12.002  43.899  13.491
 9420W        W81845  30.889  23.599   2.742
 9421W        W81846  20.420   7.511  10.576
 9422W        W81847  36.229  43.758   3.999
 9423W        W81848  11.729  10.636  13.590
 9424W        W81849  38.867  27.521  11.275
 9425W        W81850   4.253  23.561   1.863
 9426W        W81851   4.806   0.035  10.699
 9427W        W81852  24.006  43.792  10.840
 9428W        W81853  29.617  10.810  10.658
 9429W        W81854   3.960  43.955  11.751
 9430W        W81855   5.328   3.519   3.068
 9431W        W81856  14.326  39.941   0.462
 9432W        W81857  33.965  24.689   4.735
 9433W        W81858  37.699   1.863   4.993
 9434W        W81859  23.402  39.636   2.411
 9435W        W81860  22.666  35.488  14.819
 9436W        W81861   9.384  31.650  13.011
 9437W        W81862  44.793  13.691   4.620
 9438W        W81863  17.635  16.239  10.928
 9439W        W81864  34.010  22.877   4.240
 9440W        W81865  16.634  18.624  11.604
 9441W        W81866  14.687   5.089  14.942
 9442W        W81867  17.218  25.898   4.656
 9443W        W81868   8.298  29.165   3.128
 9444W        W81869  37.652  24.256   3.089
 9445W        W81870  23.711  19.107   3.641
 9446W        W81871  40.413  18.007   4.063
 9447W        W81872  42.139   7.161  12.181
 9448W        W81873  23.001   5.840  14.129
 9449W        W81874  27.066  10.279   2.701
 9450W        W81875  12.725   8.115  10.937
 9451W        W81876   2.769   1.371  12.932
 9452W        W81877   9.321  43.297   1.706
 9453W        W81878   7.840  13.756  14.075
 9454W        W81879  14.745  39.972   4.101
 9455W        W81880  22.968  22.753  10.417
 9456W        W81881   1.457  31.643  12.167
 9457W        W81882  25.883   9.377  11.097
 9458W        W81883  20.795   3.449   3.712
 9459W        W81884  41.200  36.920  12.639
 9460W        W81885  30.485  29.365  11.294
 9461W        W81886   9.494   4.492   2.782
 9462W        W81887  11.642  39.627   4.164
 9463W        W81888  10.267  26.558  12.228
 9464W        W81889  20.574  18.144  12.910
 9465W        W81890  21.364  18.446  13.080
 9466W        W81891   1.988  34.888  13.583
 9467W        W81892   7.527   4.805   4.525
 9468W        W81893  16.320  25.396  14.955
 9469W        W81894  34.219  36.324   3.354
 9470W        W81895  30.966  28.013   4.603
 9471W        W81896  29.889  27.129   4.604
 9472W        W81897  39.490  13.307   2.992
 9473W        W81898  17.311   9.365   0.073
 9474W        W81899  40.024   7.983   2.108
 9475W        W81900   7.713  30.748   4.218
 9476W        W81901  34.031  35.185   2.244
 9477W        W81902  10.062  25.217   3.773
 9478W        W81903  11.936   5.325  12.090
 9479W        W81904  23.060   0.264  13.246
 9480W        W81905  30.335  31.658  11.044
 9481W        W81906  38.077   2.382  14.251
 9482W        W81907  16.308   8.386   0.729
 9483W        W81908  37.056  32.058  13.797
 9484W        W81909   4.722  37.035   3.574
 9485W        W81910  33.599  34.582  11.874
 9486W        W81911  37.036  11.724   4.026
 9487W        W81912   8.186   4.741  12.031
 9488W        W81913  21.064   3.385   4.209
 9489W        W81914  37.257  44.511   4.592
 9490W        W81915  23.154   5.750  10.592
 9491W        W81916  37.620   2.846   2.677
 9492W        W81917  34.184  44.711   1.004
 9493W        W81918  17.359  39.346   3.817
 9494W        W81919   7.786  43.441   4.680
 9495W        W81920   6.269  23.094   2.119
 9496W        W81921  29.061  21.137   0.845
 9497W        W81922  13.769  28.321   1.513
 9498W        W81923  11.227   9.891   0.934
 9499W        W81924  18.170   2.586  13.548
 9500W        W81925   4.025   2.804  12.382
 9501W        W81926  39.460  25.885   0.784
 9502W        W81927   3.127   8.290   0.002
 9503W        W81928  43.749  10.228  11.139
 9504W        W81929  24.992   8.229  10.920
 9505W        W81930   1.785  33.603   3.244
 9506W        W81931   7.843  34.922   3.619
 9507W        W81932  12.410  17.629  14.460
 9508W        W81933  44.871  22.203  13.378
 9509W        W81934  35.371  11.357   1.413
 9510W        W81935   4.229  43.712  10.307
 9511W        W81936  34.848  30.129  10.769
 9512W        W81937  16.188  24.575  14.211
 9513W        W81938  22.043   0.170  11.569
 9514W        W81939  29.487  44.268  11.909
 9515W        W81940  31.993  34.335  14.416
 9516W        W81941  30.306   1.676  10.856
 9517W        W81942  29.179  40.071   0.578
 9518W        W81943  28.170  34.358   4.143
 9519W        W81944  11.648  26.715  12.906
 9520W        W81945  38.835  15.796   1.674
 9521W        W81946  13.923  17.535   0.968
 9522W        W81947  31.421  18.705  12.415
 9523W        W81948  34.082  16.329   4.937
 9524W        W81949  42.935  30.671   2.161
 9525W        W81950  35.495   7.057  13.223
 9526W        W81951  11.116  36.354   4.485
 9527W        W81952  11.647  23.697   1.831
 9528W        W81953  26.500  26.756   1.752
 9529W        W81954  19.292  36.064   1.341
 9530W        W81955  44.088  37.468   1.941
 9531W        W81956   8.639  11.339   0.366
 9532W        W81957  40.966  30.408  11.707
 9533W        W81958   6.215  24.568   3.686
 9534W        W81959  29.269  36.128   3.811
 9535W        W81960   1.435  19.410   0.473
 9536W        W81961   7.833  14.787  12.894
 9537W        W81962  44.238   8.165  11.396
 9538W        W81963  35.150  39.918  11.149
 9539W        W81964   2.232  20.675  12.630
 9540W        W81965  29.408   5.944  11.112
 9541W        W81966   7.263  11.424   3.376
 9542W        W81967  26.711  32.929   2.040
 9543W        W81968  39.943  27.938  11.554
 9544W        W81969  43.286  19.388   1.344
 9545W        W81970  11.243  15.642  10.953
 9546W        W81971  25.463  12.129  12.303
 9547W        W81972  33.791  44.430   4.154
 9548W        W81973  37.260   4.867   2.146
 9549W        W81974  14.251  40.774   2.145
 9550W        W81975  42.238   2.487  11.518
 9551W        W81976  42.564  33.955  14.450
 9552W        W81977  22.646   6.265   0.354
 9553W        W81978  36.122  24.298  14.045
 9554W        W81979  22.723  31.515   3.509
 9555W        W81980  19.864  43.047   5.021
 9556W        W81981  27.053  35.965  12.411
 9557W        W81982  39.576   1.843  12.562
 9558W        W81983  31.675  40.229  13.252
 9559W        W81984  44.372  34.400   2.728
 9560W        W81985  36.383  20.321  12.414
 9561W        W81986   2.098   5.339  11.386
 9562W        W81987   6.695   9.140   1.579
 9563W        W81988  37.020  19.799  14.414
 9564W        W81989  21.641   5.449  14.959
 9565W        W81990  33.910  17.316   4.714
 9566W        W81991  12.222   1.763  11.435
 9567W        W81992  30.422  26.457   4.187
 9568W        W81993  21.649  36.444  10.660
 9569W        W81994  41.941   5.537  14.377
 9570W        W81995  31.339  29.927   3.502
 9571W        W81996  35.012   0.261   3.701
 9572W        W81997  27.094  24.984  10.465
 9573W        W81998   2.716  31.610  12.017
 9574W        W81999  25.191  40.624  10.790
 9575W        W82000  25.320  22.481   4.509
 9576W        W82001  44.463  42.893  14.155
 9577W        W82002   0.631  25.910   1.248
 9578W        W82003  42.890  44.253   3.177
 9579W        W82004  35.803  26.028  12.153
 9580W        W82005  18.684  39.580  13.503
 9581W        W82006   2.955  10.738  10.696
 9582W        W82007  36.562   2.822  14.591
 9583W        W82008  34.462  34.691  13.875
 9584W        W82009  11.923  13.262  14.752
 9585W        W82010   4.564  12.049   1.345
 9586W        W82011   3.905  10.710  10.972
 9587W        W82012  13.188  38.576   2.752
 9588W        W82013  22.298  17.064   3.353
 9589W        W82014  12.951   0.831  14.461
 9590W        W82015  17.417  21.685   4.898
 9591W        W82016  10.382  20.949   0.762
 9592W        W82017  28.409  20.469  11.136
 9593W        W82018  43.834  21.134   4.098
 9594W        W82019  35.614  12.085   2.805
 9595W        W82020  40.574  26.433   4.100
 9596W        W82021  39.029  22.854  13.948
 9597W        W82022   2.857  23.961  13.684
 9598W        W82023  26.096  22.285  11.186
 9599W        W82024  17.332  36.315  11.932
 9600W        W82025  35.877   2.236  13.502
 9601W        W82026  24.106  32.883  13.277
 9602W        W82027  24.493  20.947  13.109
 9603W        W82028  24.113  29.819  10.208
 9604W        W82029   3.498  40.539   1.466
 9605W        W82030   4.764   4.744  12.682
 9606W        W82031  32.678   8.142   2.476
 9607W        W82032  22.491  10.436  10.780
 9608W        W82033  32.925  22.093  13.096
 9609W        W82034  34.956  12.634   1.080
 9610W        W82035  36.346  26.507  14.437
 9611W        W82036  43.219  18.256   4.189
 9612W        W82037  12.842  30.103  10.681
 9613W        W82038  32.412  35.904   3.420
 9614W        W82039   0.707  30.194  11.554
 9615W        W82040  44.978  20.586   2.179
 9616W        W82041   1.245  23.446  13.971
 9617W        W82042  27.564   3.817  14.939
 9618W        W82043   7.143  33.120  14.754
 9619W        W82044  38.702  29.155  14.666
 9620W        W82045  28.386  36.872   1.020
 9621W        W82046  34.848  36.385  10.438
 9622W        W82047  11.868  36.558  12.082
 9623W        W82048  26.504  16.848  12.847
 9624W        W82049  20.493  44.960   3.435
 9625W        W82050   5.151  42.765  12.478
 9626W        W82051  18.726  29.775   2.302
 9627W        W82052  41.916   6.255   3.934
 9628W        W82053  41.618  16.249  13.100
 9629W        W82054  44.387   8.899   1.386
 9630W        W82055   9.760  42.463   4.973
 9631W        W82056  41.772  33.523   0.737
 9632W        W82057   1.389  19.239   1.929
 9633W        W82058  24.299  36.476  14.785
 9634W        W82059  12.310   2.990  11.557
 9635W        W82060  16.554  22.504   3.246
 9636W        W82061  28.696  39.355  14.695
 9637W        W82062   0.999   8.833  13.092
 9638W        W82063   7.327  38.946  11.147
 9639W        W82064  40.694  31.412   3.623
 9640W        W82065  19.117  10.657   4.644
 9641W        W82066  18.533   5.708   1.915
 9642W        W82067  20.009  17.816   3.811
 9643W        W82068   9.499  29.304  12.912
 9644W        W82069  24.172  10.325  11.932
 9645W        W82070   5.448   2.032  11.170
 9646W        W82071  21.818  33.394   1.786
 9647W        W82072   1.972  13.875   0.455
 9648W        W82073  11.612   2.799  14.860
 9649W        W82074   7.825  36.149   3.236
 9650W        W82075  26.501  33.220   4.058
 9651W        W82076  12.198  30.369  12.367
 9652W        W82077  15.636  11.813   4.109
 9653W        W82078  30.650   7.936   0.954
 9654W        W82079   0.982  29.934   2.741
 9655W        W82080  38.926   9.161   0.670
 9656W        W82081  11.715  20.593   4.315
 9657W        W82082  28.505   7.140   3.647
 9658W        W82083  17.189  44.333   1.961
 9659W        W82084  26.190   7.898  12.390
 9660W        W82085  38.973  33.460  14.890
 9661W        W82086  41.101  23.246  12.966
 9662W        W82087   9.543  22.288   1.288
 9663W        W82088  20.028  34.305  14.569
 9664W        W82089  32.740  43.005  10.758
 9665W        W82090  38.835  36.524   3.720
 9666W        W82091  32.568  21.489   1.442
 9667W        W82092  11.740  15.375  12.023
 9668W        W82093  23.116   7.175  12.726
 9669W        W82094   5.145  16.564  13.469
 9670W        W82095  42.099   8.954  11.549
 9671W        W82096   0.508  17.888   0.816
 9672W        W82097  25.012  18.275   4.547
 9673W        W82098  43.354   6.788  10.746
 9674W        W82099   0.966   9.753  13.922
 9675W        W82100   0.770  27.540   3.690
 9676W        W82101   6.332  27.430  13.449
 9677W        W82102   1.119  21.475   2.343
 9678W        W82103  35.921  34.033   1.756
 9679W        W82104  41.997  10.067   3.563
 9680W        W82105  43.671  39.018  14.660
 9681W        W82106  36.865  30.154  12.490
 9682W        W82107   7.834  13.136   0.800
 9683W        W82108  37.466  44.824   2.693
 9684W        W82109  32.862  43.755  12.031
 9685W        W82110  40.951   2.911   0.965
 9686W        W82111   3.354   0.319  14.854
 9687W        W82112  13.603  24.754  14.374
 9688W        W82113  39.949  15.767  10.660
 9689W        W82114  17.774  20.761   3.311
 9690W        W82115  10.647  44.476  13.110
 9691W        W82116  28.685  35.412  13.421
 9692W        W82117  31.916  41.771  13.852
 9693W        W82118  39.973  21.662   2.370
 9694W        W82119  19.647   3.467   1.013
 9695W        W82120  37.382  18.333   4.187
 9696W        W82121  32.872  16.063  10.495
 9697W        W82122  40.010   5.966  12.305
 9698W        W82123  43.352   1.507   3.357
 9699W        W82124   6.170  20.276  12.488
 9700W        W82125  14.973  10.234   5.033
 9701W        W82126  22.498  27.396   2.441
 9702W        W82127  14.800   1.098   0.399
 9703W        W82128  15.196  40.565   3.118
 9704W        W82129  30.492  10.333  12.105
 9705W        W82130  41.288  26.218  11.863
 9706W        W82131  28.001  42.986  11.992
 9707W        W82132  24.241  37.376   1.284
 9708W        W82133  23.575  17.735   4.262
 9709W        W82134  18.611   6.235  13.829
 9710W        W82135   0.064  25.608   4.026
 9711W        W82136  14.658  37.129  11.065
 9712W        W82137  38.279  16.471  11.169
 9713W        W82138  35.189   1.958   0.207
 9714W        W82139  13.670  27.583   3.178
 9715W        W82140  11.268  20.734   1.167
 9716W        W82141   7.304   7.194  14.304
 9717W        W82142  21.608  31.203   1.753
 9718W        W82143  36.345  17.521   0.042
 9719W        W82144   6.187  21.221   1.708
 9720W        W82145   3.862  32.969   1.322
 9721W        W82146  19.810  31.732   1.762
 9722W        W82147  44.286   1.051   1.191
 9723W        W82148  20.185  42.927   2.135
 9724W        W82149  40.943  33.195   0.374
 9725W        W82150  31.169  38.400   3.914
 9726W        W82151   0.291  38.534  13.503
 9727W        W82152  19.755  32.631   1.768
 9728W        W82153  17.613  29.663  12.079
 9729W        W82154  42.462  34.564   1.695
 9730W        W82155   2.882  15.647   3.891
 9731W        W82156  15.717   2.554   4.463
 9732W        W82157  20.813  17.848  11.612
 9733W        W82158  20.048   8.888  14.001
 9734W        W82159  37.855  44.828  13.776
 9735W        W82160  23.168   3.703   0.125
 9736W        W82161  24.145  25.752   4.510
 9737W        W82162  18.181   2.830   2.689
 9738W        W82163  36.600  12.173  13.365
 9739W        W82164  33.490  23.272   0.314
 9740W        W82165  19.654   0.225  10.615
 9741W        W82166  18.200  19.748  14.672
 9742W        W82167  13.679  19.996   0.859
 9743W        W82168   0.024  12.443   1.718
 9744W        W82169  33.429   3.502   3.272
 9745W        W82170  32.206   8.306   2.274
 9746W        W82171   0.339  41.431   2.975
 9747W        W82172  33.494  25.354  10.403
 9748W        W82173   1.809  32.074  13.948
 9749W        W82174  38.454  32.415   3.363
 9750W        W82175   4.708  11.929   3.242
 9751W        W82176   7.192   5.941  12.962
 9752W        W82177  17.631  41.794  12.620
 9753W        W82178  13.527  14.964  14.436
 9754W        W82179   8.306   6.398  13.100
 9755W        W82180  10.871  23.558  11.946
 9756W        W82181  29.868  12.703  13.019
 9757W        W82182  44.251  14.978   4.496
 9758W        W82183  36.152  21.743   4.200
 9759W        W82184   9.230   9.839   2.157
 9760W        W82185  16.197   2.959   1.870
 9761W        W82186   5.490  38.840  11.242
 9762W        W82187  11.206  42.357   1.640
 9763W        W82188  39.641   1.476  12.054
 9764W        W82189  33.888   6.378  13.820
 9765W        W82190  16.524  39.097   2.762
 9766W        W82191  39.873  42.409  14.477
 9767W        W82192  13.728   9.692   4.923
 9768W        W82193  13.892  19.277  13.041
 9769W        W82194  29.917  28.392   3.340
 9770W        W82195  39.122  23.106   4.823
 9771W        W82196  44.709  35.147  14.453
 9772W        W82197   8.372  11.192  13.386
 9773W        W82198  41.877  34.409   0.008
 9774W        W82199  44.640   2.762   3.200
 9775W        W82200  30.900   7.586   4.315
 9776W        W82201  28.511   1.056   4.476
 9777W        W82202  26.063  38.055   1.246
 9778W        W82203  12.301  24.028  10.142
 9779W        W82204  44.062  25.514  13.058
 9780W        W82205  30.380   1.882  12.582
 9781W        W82206  41.269   6.184  10.746
 9782W        W82207  42.412  18.262   1.253
 9783W        W82208   2.291  14.740  10.968
 9784W        W82209  12.543  38.931  11.526
 9785W        W82210  19.639  30.003   0.020
 9786W        W82211   6.257  42.058   0.130
 9787W        W82212  14.123   1.412   0.316
 9788W        W82213  44.797  41.370  12.559
 9789W        W82214  28.514   0.476   2.726
 9790W        W82215  12.205  18.299   2.767
 9791W        W82216  39.520  36.994   4.565
 9792W        W82217  23.621  41.422   4.234
 9793W        W82218  10.804   2.216   3.610
 9794W        W82219   6.188  34.083   1.339
 9795W        W82220  40.776  20.513  10.718
 9796W        W82221  11.264  11.823  10.743
 9797W        W82222   9.620  35.680   2.287
 9798W        W82223  26.963  42.881   4.227
 9799W        W82224  35.606  19.162   4.687
 9800W        W82225   2.994   1.887   2.198
 9801W        W82226  42.855  39.778   1.405
 9802W        W82227   0.350   8.143  11.159
 9803W        W82228  36.500  31.646  11.179
 9804W        W82229  35.383  25.403  12.495
 9805W        W82230  40.953  24.868  11.847
 9806W        W82231  27.568  44.921   1.717
 9807W        W82232  36.412  32.567  12.363
 9808W        W82233  42.532  34.031  10.724
 9809W        W82234  26.112  41.530   3.171
 9810W        W82235  44.264  34.168   1.164
 9811W        W82236   5.778   5.231   3.419
 9812W        W82237  16.822  11.486   0.872
 9813W        W82238  41.088  38.760   3.630
 9814W        W82239  28.494  16.265   1.021
 9815W        W82240   9.603   5.744  11.039
 9816W        W82241  28.056  24.616  10.418
 9817W        W82242   9.809   0.392  10.799
 9818W        W82243  39.958  41.019  13.767
 9819W        W82244  29.739  21.152  14.074
 9820W        W82245   9.808  38.121  13.759
 9821W        W82246   3.506   3.806   3.174
 9822W        W82247  18.442  25.874   1.848
 9823W        W82248  37.454  15.327  10.249
 9824W        W82249  30.332  29.840  11.155
 9825W        W82250  19.800  40.291  12.131
 9826W        W82251  31.843   0.941  14.946
 9827W        W82252  24.985  23.805  11.222
 9828W        W82253  15.805  43.344  12.908
 9829W        W82254  42.711   4.370  12.472
 9830W        W82255  40.223  32.177   0.814
 9831W        W82256  12.666  11.455   2.309
 9832W        W82257  26.696  33.556   4.655
 9833W        W82258  15.332  23.051  10.448
 9834W        W82259  18.591  16.647  14.789
 9835W        W82260  20.487  26.132  12.849
 9836W        W82261   6.926  14.115   0.530
 9837W        W82262   1.487  24.583  11.069
 9838W        W82263  10.008  14.233   2.371
 9839W        W82264  44.412  27.651  12.382
 9840W        W82265  40.932  12.241  11.591
 9841W        W82266  15.081  28.722   3.290
 9842W        W82267  25.526  27.522   3.679
 9843W        W82268  25.366   2.505  12.483
 9844W        W82269   1.954  25.066  10.987
 9845W        W82270   3.757  16.123   1.415
 9846W        W82271   9.314  27.770  14.313
 9847W        W82272  44.963  38.594  14.781
 9848W        W82273  26.880  21.699  13.617
 9849W        W82274   2.750  42.020   3.657
 9850W        W82275  29.552  35.997  10.941
 9851W        W82276  23.314  43.036  14.877
 9852W        W82277  31.068  43.094   3.375
 9853W        W82278   9.342   3.565   3.997
 9854W        W82279  22.538  42.731   1.433
 9855W        W82280  19.715   4.245  13.573
 9856W        W82281   8.266  41.735  12.987
 9857W        W82282  42.796  19.279   1.346
 9858W        W82283   4.800  16.163  13.370
 9859W        W82284  19.315  28.559   1.714
 9860W        W82285   5.185   1.568  10.446
 9861W        W82286  37.354  43.054   3.240
 9862W        W82287  26.531  12.292   1.426
 9863W        W82288  40.189   3.350   0.821
 9864W        W82289  17.058  41.214   1.211
 9865W        W82290   0.745  19.760   2.779
 9866W        W82291  25.159  14.359  14.292
 9867W        W82292  37.622   4.850  11.894
 9868W        W82293  27.839  27.305   1.065
 9869W        W82294  11.793  27.650  14.865
 9870W        W82295  37.489  43.877  10.008
 9871W        W82296  19.244  27.482  13.524
 9872W        W82297  43.726   1.128  13.888
 9873W        W82298  25.295   8.029  14.476
 9874W        W82299  26.033  42.266  13.474
 9875W        W82300   6.088   2.010   4.865
 9876W        W82301  17.123  24.517   3.282
 9877W        W82302  23.801   8.868   1.199
 9878W        W82303   2.926  21.696   4.051
 9879W        W82304  24.323  38.518  13.977
 9880W        W82305  11.094  41.871  13.813
 9881W        W82306  31.913  31.079   4.559
 9882W        W82307   9.817   6.317   2.562
 9883W        W82308  39.849   8.622   3.898
 9884W        W82309  17.445  26.652  13.340
 9885W        W82310  14.201  18.456   0.930
 9886W        W82311  38.935  28.100   3.694
 9887W        W82312  39.536  17.138  14.907
 9888W        W82313  14.151  40.177  13.794
 9889W        W82314  35.663  21.499   1.833
 9890W        W82315  32.629  42.307  14.802
 9891W        W82316  23.276   7.723   4.993
 9892W        W82317  26.694   1.752   3.267
 9893W        W82318   9.595  42.435  10.431
 9894W        W82319  29.127  23.520   3.095
 9895W        W82320   7.297  29.237  12.866
 9896W        W82321  22.639  19.660  14.407
 9897W        W82322  36.910  40.232  10.712
 9898W        W82323  11.909  14.774  12.014
 9899W        W82324   1.701  30.021  11.040
 9900W        W82325  32.658  41.640   0.393
 9901W        W82326  20.294   5.804   3.374
 9902W        W82327  29.829  16.083   2.907
 9903W        W82328  32.109   0.242   2.790
 9904W        W82329   1.041  19.625   3.248
 9905W        W82330  35.867   3.470  12.853
 9906W        W82331  20.345  41.066   1.628
 9907W        W82332  39.567  21.713   4.030
 9908W        W82333   0.367   8.965   1.996
 9909W        W82334   8.842  15.517  11.424
 9910W        W82335   5.402   4.914   0.247
 9911W        W82336  29.417  15.744   1.388
 9912W        W82337  34.536  12.104  14.882
 9913W        W82338  10.425  43.013   4.509
 9914W        W82339  43.382  37.926  14.044
 9915W        W82340  29.924  30.652  12.491
 9916W        W82341  43.297  43.070   1.183
 9917W        W82342  43.949  29.104  14.050
 9918W        W82343  24.934   8.712   3.086
 9919W        W82344  21.626  42.230   3.771
 9920W        W82345  19.533  41.886  11.556
 9921W        W82346   9.317   8.584   0.877
 9922W        W82347  21.218  12.867  14.946
 9923W        W82348  14.786  22.528  11.514
 9924W        W82349  41.830  13.530  11.234
 9925W        W82350  34.845  44.953  14.051
 9926W        W82351  38.260  29.037   3.190
 9927W        W82352   0.276  20.052  12.157
 9928W        W82353   1.533  29.405  12.082
 9929W        W82354   8.703  22.458  14.537
 9930W        W82355  28.647  17.816   2.815
 9931W        W82356   1.242  28.912   1.344
 9932W        W82357   6.774  40.782  11.647
 9933W        W82358  19.751  21.236  10.007
 9934W        W82359  36.383   0.354  13.059
 9935W        W82360  11.653  33.925   2.441
 9936W        W82361  35.963  31.515  10.936
 9937W        W82362   1.865  30.859  13.160
 9938W        W82363  32.023   1.488  13.639
 9939W        W82364  16.838  39.359   3.081
 9940W        W82365   2.660  19.831   4.830
 9941W        W82366  23.562  38.819  12.831
 9942W        W82367  23.720  17.055   0.723
 9943W        W82368   2.542  33.568  11.461
 9944W        W82369  22.143  12.882   1.348
 9945W        W82370  25.076  23.239  12.008
 9946W        W82371  36.860  25.643  10.290
 9947W        W82372  20.629  41.703  12.404
 9948W        W82373  10.820  27.151   1.766
 9949W        W82374  13.381   9.164   1.807
 9950W        W82375  33.424  29.055   1.712
 9951W        W82376  38.930  35.431  11.668
 9952W        W82377   4.400   1.342   3.753
 9953W        W82378   1.283   9.055  12.587
 9954W        W82379  26.706  20.036  11.504
 9955W        W82380   4.392   1.944  11.988
 9956W        W82381   4.591  36.816   4.068
 9957W        W82382  41.737  11.159   2.206
 9958W        W82383  21.070  44.264   3.171
 9959W        W82384   5.783  30.156  13.529
 9960W        W82385   6.199  29.856   1.790
 9961W        W82386   7.092   0.697  13.552
 9962W        W82387   3.875  27.146  14.759
 9963W        W82388  36.307  23.274  13.559
 9964W        W82389  22.122  27.741  14.238
 9965W        W82390  18.969  24.883  14.910
 9966W        W82391  12.747  22.261  12.851
 9967W        W82392   1.747  23.129  13.298
 9968W        W82393  28.383  27.117   4.589
 9969W        W82394  36.691   4.864   4.076
 9970W        W82395   7.091  33.180  13.315
 9971W        W82396  27.940  24.700   3.158
 9972W        W82397   6.623  44.536  11.643
 9973W        W82398  31.123  28.114  13.358
 9974W        W82399  15.610  43.786  11.998
 9975W        W82400  23.619  24.173  14.796
 9976W        W82401  44.823  40.808  13.470
 9977W        W82402   3.468   6.845  10.883
 9978W        W82403  17.304  29.553  10.287
 9979W        W82404  37.593  18.625  11.997
 9980W        W82405  30.475  22.259   4.551
 9981W        W82406   8.975   3.240  12.712
 9982W        W82407  44.378   3.774  10.679
 9983W        W82408  20.070  16.564   3.674
 9984W        W82409  13.717  23.866  12.431
 9985W        W82410  24.368  22.543   1.329
 9986W        W82411  19.785  17.494   1.966
 9987W        W82412   9.259  34.223  10.739
 9988W        W82413  30.513   2.267  11.613
 9989W        W82414  23.132  43.417   2.706
 9990W        W82415  18.334  33.465   3.567
 9991W        W82416  17.757  18.849  14.828
 9992W        W82417  35.185  34.763   1.282
 9993W        W82418  17.666  29.441   4.164
 9994W        W82419  33.354  28.262   2.707
 9995W        W82420   9.588  20.657  11.415
 9996W        W82421  43.616  19.612   2.922
 9997W        W82422  22.146  33.374  11.991
 9998W        W82423  44.854  40.894  11.240
 9999W        W82424  41.862   8.635  10.702
10000W        W82425  24.206  29.943   0.219
10001W        W82426  15.738  26.011  12.401
10002W        W82427  39.072  38.073   2.262
10003W        W82428   2.528   1.052  10.947
10004W        W82429  33.094  16.794   9.811
10005W        W82430   7.462  29.981   2.370
10006W        W82431  10.718   0.514   4.582
10007W        W82432  22.888   2.802   4.228
10008W        W82433  26.766  22.489   1.374
10009W        W82434   1.776  11.867   1.936
10010W        W82435  28.604  43.268   3.310
10011W        W82436  20.639  23.058  13.036
10012W        W82437  22.499  11.173  11.496
10013W        W82438   6.929  35.918   1.433
10014W        W82439  28.174  41.443   1.443
10015W        W82440  12.234  27.508   2.913
10016W        W82441   4.256  20.544  11.250
10017W        W82442  32.507  27.552   2.352
10018W        W82443  17.527  42.823  11.854
10019W        W82444  35.158  44.800  13.664
10020W        W82445  44.919  12.199   4.748
10021W        W82446  31.658   5.545   2.261
10022W        W82447  39.611   2.212   0.617
10023W        W82448  11.818  32.608  14.414
10024W        W82449   4.675   3.180   3.740
10025W        W82450  33.851  25.910  13.983
10026W        W82451  17.020   5.760  13.181
10027W        W82452   6.114  30.619  12.927
10028W        W82453  20.684  14.017  12.571
10029W        W82454   1.472  34.346  11.002
10030W        W82455  37.025  42.607  12.562
10031W        W82456  40.425  35.031   3.795
10032W        W82457  17.588  43.442   3.065
10033W        W82458  26.507  35.604  10.576
10034W        W82459  36.557  19.625   2.286
10035W        W82460  13.160   1.578   4.722
10036W        W82461   8.132  28.358  10.778
10037W        W82462   0.467  21.524  10.576
10038W        W82463  33.443  24.044   1.353
10039W        W82464   1.586  35.813  12.507
10040W        W82465  34.152   5.886  11.659
10041W        W82466  18.121  23.284   4.412
10042W        W82467  33.617   3.138  12.497
10043W        W82468  38.753  26.543   2.241
10044W        W82469   5.424   5.764   1.403
10045W        W82470   1.327  22.636   4.530
10046W        W82471  35.554  27.691   1.868
10047W        W82472  31.085   0.266  11.512
10048W        W82473  34.036  19.622  14.505
10049W        W82474   5.358  27.874   2.699
10050W        W82475   9.261  20.462  12.023
10051W        W82476  16.571  36.396   3.407
10052W        W82477  30.705  35.578   1.420
10053W        W82478   9.865  29.395  11.547
10054W        W82479  39.756  28.103   1.626
10055W        W82480  34.670  23.031   1.863
10056W        W82481  33.665   0.371   4.448
10057W        W82482   2.895  39.533   4.704
10058W        W82483   9.660  30.163   1.671
10059W        W82484   7.466   8.411   0.824
10060W        W82485   8.225   6.194  11.102
10061W        W82486  36.924  13.436  13.241
10062W        W82487  19.811   3.719  12.409
10063W        W82488  22.075  43.523   4.621
10064W        W82489  11.242  27.953   1.417
10065W        W82490  40.770  10.645  13.720
10066W        W82491  28.014  16.292   3.423
10067W        W82492  30.177  23.113   1.265
10068W        W82493  30.011  38.050  11.631
10069W        W82494  24.485  21.993   0.608
10070W        W82495   6.303   7.838   4.580
10071W        W82496  11.604  27.946   4.569
10072W        W82497  16.006   6.042   2.226
10073W        W82498  39.300  39.535  12.607
10074W        W82499  30.455  13.070   4.490
10075W        W82500  23.682  21.976   0.124
10076W        W82501  43.467  23.430  12.140
10077W        W82502  41.803  19.587  12.986
10078W        W82503  40.494  10.182   0.856
10079W        W82504  43.064  12.944   4.178
10080W        W82505  14.568   0.798   2.757
10081W        W82506   4.200  25.302   1.317
10082W        W82507   6.787  40.376  13.656
10083W        W82508  15.235   2.498   0.260
10084W        W82509  15.053  42.844  12.969
10085W        W82510  24.611   1.243  12.978
10086W        W82511  44.169  40.264  10.674
10087W        W82512  25.332  42.966   1.798
10088W        W82513   4.484  14.760  12.463
10089W        W82514  11.044  33.402  13.167
10090W        W82515  26.056   9.659   1.386
10091W        W82516  17.013  40.524   0.824
10092W        W82517  37.329  21.576  13.747
10093W        W82518  20.029  36.704  10.980
10094W        W82519  36.288  13.144  11.391
10095W        W82520  39.730  32.078   0.899
10096W        W82521  16.081  26.057  11.088
10097W        W82522  18.137  43.490   4.391
10098W        W82523  17.779   8.392   0.754
10099W        W82524  30.507  13.171  12.934
10100W        W82525  18.822  16.516   2.360
10101W        W82526  29.823  32.152  12.838
10102W        W82527  30.168  27.637  12.633
10103W        W82528  40.853  24.396  13.274
10104W        W82529  38.054  25.229   4.273
10105W        W82530  26.250   9.845   0.923
10106W        W82531  34.995  37.956  14.081
10107W        W82532  43.595  33.881   4.057
10108W        W82533  11.579  14.199   3.687
10109W        W82534  15.281  43.069   1.776
10110W        W82535   5.838  42.817   0.766
10111W        W82536   3.987  38.852  14.841
10112W        W82537  44.579  10.115   2.019
10113W        W82538  39.043   7.728  12.109
10114W        W82539  37.940  43.035  13.833
10115W        W82540   7.850  42.801  13.760
10116W        W82541   3.639  12.548  11.124
10117W        W82542   1.404  20.782  10.783
10118W        W82543  27.500  21.418   4.701
10119W        W82544  43.370   7.592  14.361
10120W        W82545  37.530  22.082   5.535
10121W        W82546  18.185   9.665   4.116
10122W        W82547   0.039   7.250  14.048
10123W        W82548  41.277   1.290   2.420
10124W        W82549   8.753  37.925  13.634
10125W        W82550  23.266  11.205  13.035
10126W        W82551  39.556  25.226  11.136
10127W        W82552  24.059   3.485  14.200
10128W        W82553  42.966   5.653  13.347
10129W        W82554  40.294  21.639   3.343
10130W        W82555  21.368  13.754   0.562
10131W        W82556   8.915  31.868  12.144
10132W        W82557  17.605   9.178  11.070
10133W        W82558  14.093  26.886  10.170
10134W        W82559  38.834   2.870  14.761
10135W        W82560  36.013  31.958   2.038
10136W        W82561  11.260  37.302   4.153
10137W        W82562  28.465  44.439  10.936
10138W        W82563  11.549  39.524  13.407
10139W        W82564  22.620  15.836   3.708
10140W        W82565  39.499  43.521  13.999
10141W        W82566  35.439  26.789   2.403
10142W        W82567   3.808  13.152  13.787
10143W        W82568  19.825  19.431   0.467
10144W        W82569   7.677  40.929  12.171
10145W        W82570   7.074   5.708  14.409
10146W        W82571  23.002  28.483  13.407
10147W        W82572   6.309  30.160  12.902
10148W        W82573   5.298  11.154  14.625
10149W        W82574   5.302   7.210   1.624
10150W        W82575  39.150  27.509   5.050
10151W        W82576   1.688   0.830   2.374
10152W        W82577  13.129  25.544  11.071
10153W        W82578  25.711  34.147   1.875
10154W        W82579  15.257  27.865  11.942
10155W        W82580  37.197  32.964   3.970
10156W        W82581   0.678  21.996   3.253
10157W        W82582  14.208  36.381  14.740
10158W        W82583  28.262  17.089  11.580
10159W        W82584   1.058  44.647   1.875
10160W        W82585   4.165  44.334  10.725
10161W        W82586  17.127  34.497   0.823
10162W        W82587  31.316  17.564  13.881
10163W        W82588  36.573   8.868   3.170
10164W        W82589  19.108  13.865  10.776
10165W        W82590  14.437  38.792   4.267
10166W        W82591  10.887   3.906  14.710
10167W        W82592   7.798  36.584   9.938
10168W        W82593   8.490  21.045   0.265
10169W        W82594  19.388   7.237   3.909
10170W        W82595  33.358  40.379  12.894
10171W        W82596   6.818  31.440   3.356
10172W        W82597  16.201  25.307  13.625
10173W        W82598  29.421  29.726  14.789
10174W        W82599   6.856  32.480  10.677
10175W        W82600   1.941  27.947  11.236
10176W        W82601  23.635   8.814   5.005
10177W        W82602  40.285   5.028   3.781
10178W        W82603  27.795  38.815  11.296
10179W        W82604  40.717   1.678  11.076
10180W        W82605  44.900  14.446  13.672
10181W        W82606  20.677  10.741  11.632
10182W        W82607  30.018  16.381  10.615
10183W        W82608   2.179  42.844   3.552
10184W        W82609  39.340  39.508  11.423
10185W        W82610  28.481  13.449  14.763
10186W        W82611  38.417   1.776   1.163
10187W        W82612  13.562   0.873  12.458
10188W        W82613   6.195  26.299   4.275
10189W        W82614   0.372  19.377   2.839
10190W        W82615  13.129  21.126   3.124
10191W        W82616  15.280  43.375  14.061
10192W        W82617  12.385  24.259  12.679
10193W        W82618   3.486  42.469  12.451
10194W        W82619  25.369  22.242   1.370
10195W        W82620   8.090   1.414   3.810
10196W        W82621  36.564   2.304   3.888
10197W        W82622  15.519  30.505   1.931
10198W        W82623  36.911  13.760  11.169
10199W        W82624  35.718   9.349  11.522
10200W        W82625   9.423  37.836  11.920
10201W        W82626  22.662  23.484  11.647
10202W        W82627  35.554  39.475  14.728
10203W        W82628  30.652  16.283  12.151
10204W        W82629  14.312  39.068  14.405
10205W        W82630  22.460  18.046  13.491
10206W        W82631   8.673  23.103   3.169
10207W        W82632  17.029  18.876   2.850
10208W        W82633  28.906  41.889  13.749
10209W        W82634  36.791  24.804   2.703
10210W        W82635  31.940  43.781   3.828
10211W        W82636  17.311  28.386  13.123
10212W        W82637  21.210  33.950  13.174
10213W        W82638  37.295  12.681  12.994
10214W        W82639  17.267  13.691  12.501
10215W        W82640  40.821   6.337  10.510
10216W        W82641   7.775  38.478  14.915
10217W        W82642   5.218   8.949  10.783
10218W        W82643  21.186   2.264  11.617
10219W        W82644  27.501   8.697  13.036
10220W        W82645  35.291  30.152  13.053
10221W        W82646  26.656  26.522   4.965
10222W        W82647  42.934  17.216   0.352
10223W        W82648  13.014  23.698  11.082
10224W        W82649  35.836   1.073  11.403
10225W        W82650  23.064  19.578  11.073
10226W        W82651  27.787  35.050   3.419
10227W        W82652  28.516  42.928  11.860
10228W        W82653  23.294  23.515   0.954
10229W        W82654  19.005  36.134  13.390
10230W        W82655  15.100  44.895   0.739
10231W        W82656   1.738  33.098  12.949
10232W        W82657   5.785   7.288   3.414
10233W        W82658  41.239  35.499  11.837
10234W        W82659  21.104   9.321  11.973
10235W        W82660  22.453  35.970   2.746
10236W        W82661  21.798  27.545   4.581
10237W        W82662   6.712  30.822  13.437
10238W        W82663  10.925   6.457   4.052
10239W        W82664   3.700  32.087   1.275
10240W        W82665   2.984  43.567  10.938
10241W        W82666   7.772   3.411   2.049
10242W        W82667  14.396  23.686  14.076
10243W        W82668  24.437  31.568  12.989
10244W        W82669  18.529   2.760   1.572
10245W        W82670  10.097  14.735  12.450
10246W        W82671  34.368   6.263  13.633
10247W        W82672   5.442  16.272   4.335
10248W        W82673  29.228  18.898  10.802
10249W        W82674   8.741  20.572  12.068
10250W        W82675  38.522  38.354   4.044
10251W        W82676  29.044  33.506  14.691
10252W        W82677  23.307   5.228  13.463
10253W        W82678  13.121  11.820   1.360
10254W        W82679  37.638  28.620   1.315
10255W        W82680   0.184  34.119   2.440
10256W        W82681  18.603  29.347  11.889
10257W        W82682  10.153  13.326  13.825
10258W        W82683  31.024  12.940   1.725
10259W        W82684  33.568   7.299  11.043
10260W        W82685  16.272  21.163   2.811
10261W        W82686  23.513  24.935   0.400
10262W        W82687  17.507   9.082  13.831
10263W        W82688   9.813  34.068   3.796
10264W        W82689  44.824  22.033   1.285
10265W        W82690  32.508  18.270   0.295
10266W        W82691  35.172  17.081  11.591
10267W        W82692   8.865  19.985   2.122
10268W        W82693   6.810  31.327  13.375
10269W        W82694  18.126  28.150  11.730
10270W        W82695  43.014  23.135  13.973
10271W        W82696   1.297   0.824   3.779
10272W        W82697   5.597  42.967   0.328
10273W        W82698  28.891  12.536   3.370
10274W        W82699  30.001  42.400  12.208
10275W        W82700  43.921  28.516  12.396
10276W        W82701  11.826  33.616   4.152
10277W        W82702  43.521  22.943  13.872
10278W        W82703  44.930  13.780  11.538
10279W        W82704   0.238  25.099   1.771
10280W        W82705  32.480  11.117  12.544
10281W        W82706   7.748  17.217   4.288
10282W        W82707   7.889  26.612   3.153
10283W        W82708  24.172  16.708   2.625
10284W        W82709  38.124  22.781   2.137
10285W        W82710  35.335  32.954   0.938
10286W        W82711  10.699   1.296   0.725
10287W        W82712  31.611  21.041   3.119
10288W        W82713  25.947  31.550  10.308
10289W        W82714  40.036  41.246  14.941
10290W        W82715   7.117  33.586   0.756
10291W        W82716  20.317   7.011  10.617
10292W        W82717  41.494  16.454   2.795
10293W        W82718  28.209  25.194  12.597
10294W        W82719  38.572  35.044   0.016
10295W        W82720  24.102   9.361  13.943
10296W        W82721  10.934  25.046  14.270
10297W        W82722   9.072  20.002  11.886
10298W        W82723  27.380  14.502   2.715
10299W        W82724  14.068  11.591  12.533
10300W        W82725  10.450  19.692  13.529
10301W        W82726  13.214  42.342   4.680
10302W        W82727  36.863  11.894   1.315
10303W        W82728   9.839   7.238  14.561
10304W        W82729   6.632   2.872  13.984
10305W        W82730  29.497   7.814  12.012
10306W        W82731   1.499  18.901   0.510
10307W        W82732  20.213  32.453   0.392
10308W        W82733  12.247  16.059  10.976
10309W        W82734  41.024  41.396  14.313
10310W        W82735  14.861  11.271   3.287
10311W        W82736  12.164   5.174   4.613
10312W        W82737  34.370  44.328  10.788
10313W        W82738   6.765  21.233   0.927
10314W        W82739  38.779  30.654  11.145
10315W        W82740  17.615   5.466   1.092
10316W        W82741  31.988  43.694   1.389
10317W        W82742  12.525  32.131   4.549
10318W        W82743   1.338   4.632   1.879
10319W        W82744  26.694   3.404  12.876
10320W        W82745  34.557  36.917   2.208
10321W        W82746   2.918   7.351  12.024
10322W        W82747  28.286  30.689  12.032
10323W        W82748  16.067  19.585  11.088
10324W        W82749  33.881  33.627   4.658
10325W        W82750  41.854  36.198   0.473
10326W        W82751  40.199  36.399  10.965
10327W        W82752  23.022  31.495   4.994
10328W        W82753   6.451  25.021  14.976
10329W        W82754  41.553  20.784   0.952
10330W        W82755  26.226  26.062   0.518
10331W        W82756  35.014  17.505  12.586
10332W        W82757  40.898   0.207   5.411
10333W        W82758   2.886  10.628  11.990
10334W        W82759   3.585  24.532  11.616
10335W        W82760  11.321  43.548  10.434
10336W        W82761  24.710  25.573   1.716
10337W        W82762  14.155  19.854  14.963
10338W        W82763  35.404  26.012   4.213
10339W        W82764   5.370   2.947   0.392
10340W        W82765  35.989   0.808   1.164
10341W        W82766  24.217   8.336   0.455
10342W        W82767  17.199  23.445  11.153
10343W        W82768  35.920   3.270  13.341
10344W        W82769  22.548  12.256  14.778
10345W        W82770  28.066  17.687   1.719
10346W        W82771  20.722   6.383   4.360
10347W        W82772   6.241  10.184  14.606
10348W        W82773  39.958  29.018   4.055
10349W        W82774  21.108  20.612   4.940
10350W        W82775  44.000  35.626  12.112
10351W        W82776  16.356   5.152   0.434
10352W        W82777  17.033  38.520  12.803
10353W        W82778   7.230  22.721  12.964
10354W        W82779  17.780  17.399  10.716
10355W        W82780  36.704  25.151  14.135
10356W        W82781  12.020  23.742  14.900
10357W        W82782  42.916  27.083   2.927
10358W        W82783  18.330  27.170   1.970
10359W        W82784   6.070  16.047  14.933
10360W        W82785  23.526  16.875  12.428
10361W        W82786   4.791   8.393   4.215
10362W        W82787  15.218  42.530   1.720
10363W        W82788  11.438   6.263   1.155
10364W        W82789  31.615  11.224  12.150
10365W        W82790  23.586  40.513  13.580
10366W        W82791  11.762  44.940   4.677
10367W        W82792  29.147   4.840  12.572
10368W        W82793  43.837   4.107   2.907
10369W        W82794  30.681  26.566   0.739
10370W        W82795  19.247  15.561   1.176
10371W        W82796  18.991  17.790  13.499
10372W        W82797  21.698   1.488  12.778
10373W        W82798  12.564   3.442   4.691
10374W        W82799  28.862  15.085  11.153
10375W        W82800   0.752   6.464  13.493
10376W        W82801  13.274  19.507   4.615
10377W        W82802   1.859   5.450   1.964
10378W        W82803  28.722  37.555  14.057
10379W        W82804  18.187  24.792   5.020
10380W        W82805  33.052  27.444   0.257
10381W        W82806  42.972  26.270   3.712
10382W        W82807  17.591  24.442   1.598
10383W        W82808   5.705  41.526  13.534
10384W        W82809  38.355  24.511   0.711
10385W        W82810  40.775  15.280   3.407
10386W        W82811  15.948   6.407   5.033
10387W        W82812  34.013   3.831   2.936
10388W        W82813  38.319  39.314  10.639
10389W        W82814   3.523  32.641  11.539
10390W        W82815  24.502   5.614  11.662
10391W        W82816  42.379  26.677  11.429
10392W        W82817  35.388  20.124  14.014
10393W        W82818   7.438   9.228   1.649
10394W        W82819   2.356   3.657  14.409
10395W        W82820  32.458  44.984  10.771
10396W        W82821  38.956  29.871   4.237
10397W        W82822   0.231  35.481   4.520
10398W        W82823   8.799  13.210   1.831
10399W        W82824  32.423   4.402  14.820
10400W        W82825  10.802   5.744   3.331
10401W        W82826  16.092  36.186   4.815
10402W        W82827   2.546  12.610   4.145
10403W        W82828  40.847  38.717  13.398
10404W        W82829  12.869   8.137   0.558
10405W        W82830   6.831  19.621  11.713
10406W        W82831  12.165  39.885  12.669
10407W        W82832  13.823  41.318  13.334
10408W        W82833  21.965  35.448   2.396
10409W        W82834  22.549   9.847  14.812
10410W        W82835  11.772  36.295  13.504
10411W        W82836  29.595  14.160  12.647
10412W        W82837  12.513  12.244   1.492
10413W        W82838  44.848  35.567  12.144
10414W        W82839  35.174  35.218   3.734
10415W        W82840  23.561   8.479  13.937
10416W        W82841  26.316  22.513   3.092
10417W        W82842  12.729   6.222   0.936
10418W        W82843  19.637  23.604  11.165
10419W        W82844  41.522   0.089   9.544
10420W        W82845   1.498  19.330   4.216
10421W        W82846  43.682   7.428   1.239
10422W        W82847  22.490   3.688   2.717
10423W        W82848  31.889  26.846  13.690
10424W        W82849  42.138   3.906  12.790
10425W        W82850  39.799  32.571   0.710
10426W        W82851  38.931  22.978  11.969
10427W        W82852   6.639  36.935  11.519
10428W        W82853  37.773  29.036  13.443
10429W        W82854  14.744  17.625  11.236
10430W        W82855  33.477  25.536  13.356
10431W        W82856  24.105  41.993  10.805
10432W        W82857  43.611  35.899   2.251
10433W        W82858  38.841  15.245   4.907
10434W        W82859  24.704  40.743   1.306
10435W        W82860  38.130  44.961  11.887
10436W        W82861  30.087  13.904   4.583
10437W        W82862  23.051  43.127   4.232
10438W        W82863   2.031  10.872  13.944
10439W        W82864  22.101  21.495  12.535
10440W        W82865  29.118  30.028  14.032
10441W        W82866   6.925  34.830  11.120
10442W        W82867   9.657  31.670  14.254
10443W        W82868  17.762  20.770   1.308
10444W        W82869  22.648  36.370   1.344
10445W        W82870  24.194  13.074  11.188
10446W        W82871  25.042   0.329   0.292
10447W        W82872  32.547  36.449  14.221
10448W        W82873  43.527   4.690  11.614
10449W        W82874  35.564  26.669   3.760
10450W        W82875  42.000   2.714   3.794
10451W        W82876  32.028   6.365   2.362
10452W        W82877  32.547  28.107  10.413
10453W        W82878  17.744  41.494  10.606
10454W        W82879  16.531  25.046   2.770
10455W        W82880  42.849  30.950   3.407
10456W        W82881  38.704  42.437   1.702
10457W        W82882   8.677  32.752  14.312
10458W        W82883  43.047  19.461  14.910
10459W        W82884  12.741  37.583  12.189
10460W        W82885   3.622  25.964  11.965
10461W        W82886  14.257   6.221   2.727
10462W        W82887  26.658  42.794  11.566
10463W        W82888  15.492  32.287   0.625
10464W        W82889  44.298  23.829  14.698
10465W        W82890  34.500  37.062   1.303
10466W        W82891  15.781  36.460   1.964
10467W        W82892  25.725  21.419  11.128
10468W        W82893   5.704   2.736  13.797
10469W        W82894  36.393   8.347   1.821
10470W        W82895  37.061  13.323  11.987
10471W        W82896   4.804  29.473   1.399
10472W        W82897  34.775   2.424   2.013
10473W        W82898  12.014   7.762   0.873
10474W        W82899   5.044  17.667  11.488
10475W        W82900  42.292  44.370  12.948
10476W        W82901  20.773  39.865  11.945
10477W        W82902   4.719  24.644  11.911
10478W        W82903  14.358   1.446  11.915
10479W        W82904  42.714   1.540   0.279
10480W        W82905  37.897   7.901  12.202
10481W        W82906  17.182  23.500   4.504
10482W        W82907  11.471   6.309   2.629
10483W        W82908   4.892  40.506   3.745
10484W        W82909  32.399  13.613  13.403
10485W        W82910  13.438  16.604   3.888
10486W        W82911  42.061  26.945   1.808
10487W        W82912  16.096  15.869   2.906
10488W        W82913  33.421  26.703  12.973
10489W        W82914  17.230   2.610   4.057
10490W        W82915  15.114  40.560  13.918
10491W        W82916  25.638  44.241   2.308
10492W        W82917  25.405  22.182   2.343
10493W        W82918   3.834  25.358  10.616
10494W        W82919  26.044  33.431   2.850
10495W        W82920  11.785   1.778   0.078
10496W        W82921   0.371  13.677  13.959
10497W        W82922  20.129   5.208  11.038
10498W        W82923  12.161  40.603   2.754
10499W        W82924  34.705  14.852  12.076
10500W        W82925  26.442  17.102   3.703
10501W        W82926  15.570  14.819  12.866
10502W        W82927  21.266  42.244  11.626
10503W        W82928  32.798  28.969   4.626
10504W        W82929  41.389  39.349  14.258
10505W        W82930  12.419  23.510  13.023
10506W        W82931   7.307  22.143  12.060
10507W        W82932  25.491  37.911  14.286
10508W        W82933  12.440  14.654   3.828
10509W        W82934  23.635  28.889  14.911
10510W        W82935  24.485   8.306  11.807
10511W        W82936  28.192   0.299  11.944
10512W        W82937  21.380  33.466  11.291
10513W        W82938  39.985   6.598  13.883
10514W        W82939  20.523   5.136   0.470
10515W        W82940   2.830  11.628  11.895
10516W        W82941  33.456  33.311   4.467
10517W        W82942  32.509   1.702  14.858
10518W        W82943   1.801  25.111   1.823
10519W        W82944  10.268  12.450   1.078
10520W        W82945  24.777  36.511   3.485
10521W        W82946  27.396  28.616   4.321
10522W        W82947  16.133   8.555  11.903
10523W        W82948  44.779  37.553   2.848
10524W        W82949  35.486  21.687  10.800
10525W        W82950  12.380  42.146  12.912
10526W        W82951  25.496   0.618   2.759
10527W        W82952  22.594  41.108   2.364
10528W        W82953  19.575  20.616   0.856
10529W        W82954  38.802  15.771   3.686
10530W        W82955  30.386  26.956  12.814
10531W        W82956  37.014  20.693   2.646
10532W        W82957  20.836  33.917   1.258
10533W        W82958  38.082  29.728  13.929
10534W        W82959  44.180  13.791   3.503
10535W        W82960  36.301   7.086   1.473
10536W        W82961  43.772  14.643   2.229
10537W        W82962  27.518   1.871  14.267
10538W        W82963  16.507  27.006   4.315
10539W        W82964  35.156  39.839   0.334
10540W        W82965  21.622   3.902  13.776
10541W        W82966  42.839  30.665  12.552
10542W        W82967   3.794  36.762  10.990
10543W        W82968  24.697  21.581  14.455
10544W        W82969   2.706  15.694  12.458
10545W        W82970  14.699  26.265  10.467
10546W        W82971   4.950  34.063  13.570
10547W        W82972  44.319  14.621  14.066
10548W        W82973  11.954  38.601  13.925
10549W        W82974  17.052  28.509  12.550
10550W        W82975  26.168  21.231  12.879
10551W        W82976  26.600   1.402   0.504
10552W        W82977  15.635  23.978  11.538
10553W        W82978  38.845  18.145  14.235
10554W        W82979  19.302  13.472  13.925
10555W        W82980  35.903  42.298   1.246
10556W        W82981  20.208  40.714   2.373
10557W        W82982  33.115  29.050   1.279
10558W        W82983  35.570  36.369  12.501
10559W        W82984  17.111  21.653  11.461
10560W        W82985  27.872  14.756  13.070
10561W        W82986  40.388  36.621  12.523
10562W        W82987  26.932  26.006   4.348
10563W        W82988  39.121  43.141  14.429
10564W        W82989  28.368  36.191   5.218
10565W        W82990  16.659   7.166   3.633
10566W        W82991  15.712  36.840  11.161
10567W        W82992  44.414  19.095   0.815
10568W        W82993  23.685  12.846  14.407
10569W        W82994   1.836  41.084  14.016
10570W        W82995  28.079  43.953   1.164
10571W        W82996  23.558  30.549   0.263
10572W        W82997  21.466  37.420  11.660
10573W        W82998  10.575  28.723  14.470
10574W        W82999  34.463  29.661  12.778
10575W        W83000  38.939  16.622  11.642
10576W        W83001  43.524   8.791  11.177
10577W        W83002  10.924  20.562  12.433
10578W        W83003  22.067  39.540   0.787
10579W        W83004  19.251  19.992  12.188
10580W        W83005   8.964  13.818  14.890
10581W        W83006   1.665  38.349   1.566
10582W        W83007   6.828  13.031   0.636
10583W        W83008  43.680  25.611   0.448
10584W        W83009  18.739  12.756  13.835
10585W        W83010  17.817  42.707  14.259
10586W        W83011  42.696  29.992   3.860
10587W        W83012  32.991  15.133  10.983
10588W        W83013  34.802  33.177  10.712
10589W        W83014  19.940   5.948  11.417
10590W        W83015   8.297   4.968   4.587
10591W        W83016  12.383  16.032  13.529
10592W        W83017  38.711  31.579  14.095
10593W        W83018  27.423   7.082   4.410
10594W        W83019  43.961  32.663   0.400
10595W        W83020  22.709  22.608   2.284
10596W        W83021   9.887   1.950  13.755
10597W        W83022  19.964  20.119  11.521
10598W        W83023   7.132  24.448  13.880
10599W        W83024  25.219   2.036  13.373
10600W        W83025  18.666  33.136   9.759
10601W        W83026  35.580  10.404  14.820
10602W        W83027  15.773   0.974  13.106
10603W        W83028  29.681  44.545  13.457
10604W        W83029  19.251  14.643   4.184
10605W        W83030  32.976  17.278   5.488
10606W        W83031   3.859   5.967   2.698
10607W        W83032  18.372  41.063   4.542
10608W        W83033  36.388  37.144  12.458
10609W        W83034  13.589  39.291   4.142
10610W        W83035  40.419  14.214  11.680
10611W        W83036  24.705  10.837  10.930
10612W        W83037  10.748  15.793   1.349
10613W        W83038  24.058  12.553   1.113
10614W        W83039  38.854  10.841   4.596
10615W        W83040  41.847   3.636   1.826
10616W        W83041  28.603  17.659  14.485
10617W        W83042  27.117  33.954  11.058
10618W        W83043  17.040   1.869  11.549
10619W        W83044   7.566   4.362   2.159
10620W        W83045   2.289  30.987  11.565
10621W        W83046  16.033  31.572  12.958
10622W        W83047   3.949  28.434  14.546
10623W        W83048   5.448  40.820   0.183
10624W        W83049  11.930  33.045   2.898
10625W        W83050  22.135   2.148  10.719
10626W        W83051  21.554   3.043  12.493
10627W        W83052  40.414   6.174  12.542
10628W        W83053  26.639  43.843  14.006
10629W        W83054  10.089   9.221   2.766
10630W        W83055   0.259  42.306   4.579
10631W        W83056  40.884  19.040   4.714
10632W        W83057  44.235  13.759   4.015
10633W        W83058   8.833  21.497   3.821
10634W        W83059  13.872  43.260  14.303
10635W        W83060  42.270   7.517   4.573
10636W        W83061  21.175  29.012  10.294
10637W        W83062  44.003   1.022  12.544
10638W        W83063  23.207  39.195   9.698
10639W        W83064   2.296  11.852   4.601
10640W        W83065  35.090  37.810  14.561
10641W        W83066  39.830  13.500  14.879
10642W        W83067  37.029   7.338   4.209
10643W        W83068  22.873  34.969  12.897
10644W        W83069  36.066   2.724   2.844
10645W        W83070  28.075  28.063  11.838
10646W        W83071   6.620  27.066   1.852
10647W        W83072   3.982   9.162  11.019
10648W        W83073  12.096  13.190   1.932
10649W        W83074   6.666  12.082   3.388
10650W        W83075  33.372  43.359  11.536
10651W        W83076  32.787  12.736   4.296
10652W        W83077   2.386  34.466   0.984
10653W        W83078   8.819  29.887   3.316
10654W        W83079  26.554  10.283   0.943
10655W        W83080  42.681  41.392   4.241
10656W        W83081  43.183  34.571   2.296
10657W        W83082  27.521  23.929  14.810
10658W        W83083  27.602  15.119   1.219
10659W        W83084  35.948  17.064  13.940
10660W        W83085  44.225  30.596   5.172
10661W        W83086  21.542  13.294   2.077
10662W        W83087   4.236  28.907   1.833
10663W        W83088  36.616  17.699  14.020
10664W        W83089   7.540   4.632  11.993
10665W        W83090  18.819  16.723   3.255
10666W        W83091  18.987   1.939   4.169
10667W        W83092   0.242  37.298  12.044
10668W        W83093  12.798  33.325   1.657
10669W        W83094  32.129  43.381  14.110
10670W        W83095  36.757  42.735   4.988
10671W        W83096   3.728  40.366  14.369
10672W        W83097  17.911  27.004   4.432
10673W        W83098  33.432  44.229   3.277
10674W        W83099  16.581  15.849   1.242
10675W        W83100  27.161   3.180   0.365
10676W        W83101   0.111   9.173   3.317
10677W        W83102   9.087   2.923   1.697
10678W        W83103  44.626  10.394   1.534
10679W        W83104  16.246   5.450   3.673
10680W        W83105  30.714   1.927   3.050
10681W        W83106  34.609  11.810  10.675
10682W        W83107  18.972  42.820  13.007
10683W        W83108  36.863  12.176  10.979
10684W        W83109   1.384  10.272  11.140
10685W        W83110  19.184  32.673   0.412
10686W        W83111  15.346  42.019  13.161
10687W        W83112  21.792  24.648   2.752
10688W        W83113  16.028  12.661  10.489
10689W        W83114   7.465   5.806   4.916
10690W        W83115  10.364  35.451  12.687
10691W        W83116  23.404  28.583   3.282
10692W        W83117  38.595  21.648  11.608
10693W        W83118  14.219  10.181  13.164
10694W        W83119  36.949  10.243  14.848
10695W        W83120   0.402  37.535  11.574
10696W        W83121  27.425  13.773   3.778
10697W        W83122   6.157  29.353   1.873
10698W        W83123  10.411  23.535  13.854
10699W        W83124   6.277  44.465  14.586
10700W        W83125  24.627  17.753  12.130
10701W        W83126  14.837  15.337   3.718
10702W        W83127  42.748  25.702   4.552
10703W        W83128   2.855  43.413  11.911
10704W        W83129   4.993  37.742   0.878
10705W        W83130  25.856  32.715   3.734
10706W        W83131  36.080  16.569   4.672
10707W        W83132   8.679   1.033   1.415
10708W        W83133  29.752  10.586  11.121
10709W        W83134  22.574  29.808   1.673
10710W        W83135   4.308  41.851   3.723
10711W        W83136  31.110  32.127  12.105
10712W        W83137  10.790  27.641   0.395
10713W        W83138  43.404  10.640  10.630
10714W        W83139  33.935   2.255   2.333
10715W        W83140   1.245  37.646  12.062
10716W        W83141   7.917  37.610  14.020
10717W        W83142   3.287   8.221   3.149
10718W        W83143  25.189  20.801  11.144
10719W        W83144  17.781   8.629   4.187
10720W        W83145  19.354  13.075  11.107
10721W        W83146  42.435  31.610  12.832
10722W        W83147  10.999  23.213   4.558
10723W        W83148   7.288   6.386   4.136
10724W        W83149  33.517   1.990   2.196
10725W        W83150   0.451   0.081  13.930
10726W        W83151  32.395  29.031  14.744
10727W        W83152  17.344  39.121   1.891
10728W        W83153  30.992  22.777   3.103
10729W        W83154  38.867  34.064  11.158
10730W        W83155   7.355   9.384   4.374
10731W        W83156  30.145  19.055   2.097
10732W        W83157  16.201  37.927  13.134
10733W        W83158  44.398  40.559   2.621
10734W        W83159   1.245   5.841  12.504
10735W        W83160  43.518  27.735  12.271
10736W        W83161  36.069   1.499  11.595
10737W        W83162  19.252  12.809   2.755
10738W        W83163  38.428  11.747  13.346
10739W        W83164  24.218  20.001  11.237
10740W        W83165  25.475  13.786   0.382
10741W        W83166  33.662  12.825  10.617
10742W        W83167   6.973   8.426   2.454
10743W        W83168  31.848  22.707  13.885
10744W        W83169  22.143  17.225  12.757
10745W        W83170  17.532  33.388   0.281
10746W        W83171  35.364   5.663   3.715
10747W        W83172  12.026  29.203  11.616
10748W        W83173  39.931  11.357   2.789
10749W        W83174  22.001  17.297  13.792
10750W        W83175   8.023  16.750  11.311
10751W        W83176  10.367  43.983   2.882
10752W        W83177  41.530  44.914  13.693
10753W        W83178  18.106  20.674  14.298
10754W        W83179  28.836   5.350   2.212
10755W        W83180   2.895   0.340   1.300
10756W        W83181  29.953  37.064  13.765
10757W        W83182   0.491  27.921   0.835
10758W        W83183  19.917   2.839   3.734
10759W        W83184  27.923  43.259  14.214
10760W        W83185  25.117  15.704   1.789
10761W        W83186   5.308  32.763  10.706
10762W        W83187   9.892  14.911   2.801
10763W        W83188  24.495  26.058   2.434
10764W        W83189  40.389  23.022   4.181
10765W        W83190  33.584  15.183  10.608
10766W        W83191   7.596   8.160  12.511
10767W        W83192  28.102  16.511   0.224
10768W        W83193  37.541  35.990  13.752
10769W        W83194  21.938  33.571  13.528
10770W        W83195  41.215  36.300  14.279
10771W        W83196  22.846  26.994   0.746
10772W        W83197   4.398  13.494   0.194
10773W        W83198  20.941  10.077   4.616
10774W        W83199   1.128  17.458  14.480
10775W        W83200   5.225  35.022  12.555
10776W        W83201  41.388  19.687  12.144
10777W        W83202  32.596  11.869  10.583
10778W        W83203  12.314  42.041   0.229
10779W        W83204   6.758  16.552   3.185
10780W        W83205  18.067  26.548   4.629
10781W        W83206  16.616   7.809   2.020
10782W        W83207  19.172  12.616   0.902
10783W        W83208  26.063  21.973   4.515
10784W        W83209   6.861   1.979   3.655
10785W        W83210  37.079  30.228   2.756
10786W        W83211  10.356  42.312  11.891
10787W        W83212  28.218   6.675   0.255
10788W        W83213   3.893  28.946  13.888
10789W        W83214  33.067   4.829   2.148
10790W        W83215   6.887   8.254  11.248
10791W        W83216  12.205  35.225   0.912
10792W        W83217   0.483  32.120   4.105
10793W        W83218   9.391  17.871  10.476
10794W        W83219  17.090  31.412  10.420
10795W        W83220  17.790  35.647  13.974
10796W        W83221   0.672  21.547   0.315
10797W        W83222  39.328  10.180   1.271
10798W        W83223  10.594  18.431   2.374
10799W        W83224  20.704  20.815   1.460
10800W        W83225  18.160   0.729   0.901
10801W        W83226  14.464   1.772   4.689
10802W        W83227   0.812   4.728  14.694
10803W        W83228  19.568  24.179   4.978
10804W        W83229   3.846   6.925   4.340
10805W        W83230   7.303  39.606  14.398
10806W        W83231   5.517  33.657  10.490
10807W        W83232  28.548  15.888  12.891
10808W        W83233  29.388  25.085  10.314
10809W        W83234  26.554  40.791  12.907
10810W        W83235  25.554  37.024   3.171
10811W        W83236  27.211  33.993  11.575
10812W        W83237   6.491   5.229  11.571
10813W        W83238  41.019  10.756   1.253
10814W        W83239  12.257  29.236  13.512
10815W        W83240  24.430  29.689  10.610
10816W        W83241  22.689  32.606   2.258
10817W        W83242  22.088  34.876  14.582
10818W        W83243  44.416  20.558  13.368
10819W        W83244  43.428  42.342   4.646
10820W        W83245  27.843  44.371  13.977
10821W        W83246  22.076   8.155  11.142
10822W        W83247  35.482  15.720  13.527
10823W        W83248  14.120  13.241   0.405
10824W        W83249  18.320  28.963  13.007
10825W        W83250  27.276  44.225  12.267
10826W        W83251  43.235   3.361  14.750
10827W        W83252   1.053  28.017   4.803
10828W        W83253  15.337  18.535   4.016
10829W        W83254  23.705   9.182   4.637
10830W        W83255  26.824  17.626   0.460
10831W        W83256  39.884  37.648   1.358
10832W        W83257  44.524  38.603   4.557
10833W        W83258   8.830  12.896  13.384
10834W        W83259  37.173  41.377  12.911
10835W        W83260  23.243  19.540   4.105
10836W        W83261  35.895  34.042   4.564
10837W        W83262  19.792  41.593   4.658
10838W        W83263   0.214  16.638  11.186
10839W        W83264   8.210  18.605   3.241
10840W        W83265  29.482   5.999  13.023
10841W        W83266  41.781  27.938   2.767
10842W        W83267  12.254  43.301   0.084
10843W        W83268  24.566  39.424  14.664
10844W        W83269  27.443  17.139  14.776
10845W        W83270   9.181  38.086  14.468
10846W        W83271  42.133   7.902  14.780
10847W        W83272  18.037  43.391  12.962
10848W        W83273   2.659  18.646  14.568
10849W        W83274  17.557   9.802  13.965
10850W        W83275  13.733  11.238  13.878
10851W        W83276  19.502   5.847  11.738
10852W        W83277   5.515   7.435  14.600
10853W        W83278   9.276  16.482  13.130
10854W        W83279  33.353  15.242  14.380
10855W        W83280  44.940  41.366  14.063
10856W        W83281  31.635  15.637   2.781
10857W        W83282  25.080   2.755  12.852
10858W        W83283  21.840  12.542   1.943
10859W        W83284   0.910  33.206   1.929
10860W        W83285  42.455  44.145  14.359
10861W        W83286  32.411  32.041  13.531
10862W        W83287  10.280  26.934  13.159
10863W        W83288  25.268  20.956   0.423
10864W        W83289  33.914  27.654   3.364
10865W        W83290   7.203  15.680   2.462
10866W        W83291  11.682  36.311   0.228
10867W        W83292  20.206   2.851   1.925
10868W        W83293  31.425  44.040  13.984
10869W        W83294  18.808  28.520  10.822
10870W        W83295  28.524  34.908  12.703
10871W        W83296  37.009  10.408   0.335
10872W        W83297  24.271  33.009   0.291
10873W        W83298   8.076  32.227  13.402
10874W        W83299   5.304  38.378  14.893
10875W        W83300  39.926   0.321  13.847
10876W        W83301   1.235  20.834   3.988
10877W        W83302  24.135   7.970  13.468
10878W        W83303  35.579  21.079   3.855
10879W        W83304  29.413   1.680   4.118
10880W        W83305   7.251  29.021  13.325
10881W        W83306  43.758   5.136  11.499
10882W        W83307  24.538  40.940   4.366
10883W        W83308   8.250   4.176   2.167
10884W        W83309  32.434  11.093   0.258
10885W        W83310   1.483  41.910  10.729
10886W        W83311   0.332   8.875  14.355
10887W        W83312   7.945  19.190  10.659
10888W        W83313   7.621  19.319  14.451
10889W        W83314  22.722  16.321  10.711
10890W        W83315   9.188  29.653   2.400
10891W        W83316  39.743  26.687   4.023
10892W        W83317  28.763  32.617  10.739
10893W        W83318   0.732  14.765   1.849
10894W        W83319  13.671  26.788  14.846
10895W        W83320  18.722   0.778  12.425
10896W        W83321   0.551  30.529   3.340
10897W        W83322  41.415   3.337   1.766
10898W        W83323   4.012  42.562  12.415
10899W        W83324  12.853  39.924  11.421
10900W        W83325   6.930  12.238  13.393
10901W        W83326  34.960  40.422   3.604
10902W        W83327  25.226   4.741   1.826
10903W        W83328   0.738   7.871  10.630
10904W        W83329   2.217   4.464   0.904
10905W        W83330   8.680  22.815  11.238
10906W        W83331  21.301   4.645  12.012
10907W        W83332  16.549  37.314   2.756
10908W        W83333  29.006  15.804   3.161
10909W        W83334  12.815  14.124   4.968
10910W        W83335  25.278  29.510   2.373
10911W        W83336  18.670  10.268   3.374
10912W        W83337  17.827  16.826   4.613
10913W        W83338  25.940  23.156  11.010
10914W        W83339  42.417  31.509  14.093
10915W        W83340  24.108  43.691  11.882
10916W        W83341   8.724  20.228   4.109
10917W        W83342  10.790  14.814   2.613
10918W        W83343  13.452   1.501   3.774
10919W        W83344  43.031  21.218  11.548
10920W        W83345   5.114  30.124  10.552
10921W        W83346   7.478  16.771  13.029
10922W        W83347  14.914  26.706   1.346
10923W        W83348   6.749  34.248   5.039
10924W        W83349  18.254  28.551   1.866
10925W        W83350  36.035  30.775   0.937
10926W        W83351  27.120  31.970  13.546
10927W        W83352  38.393  14.186   2.517
10928W        W83353  28.943  44.325   2.594
10929W        W83354  23.771  34.435   1.002
10930W        W83355  41.574  28.023   4.184
10931W        W83356  17.591  30.181   1.310
10932W        W83357  12.925  38.458  11.658
10933W        W83358  10.165   1.310   2.847
10934W        W83359  40.818  26.952   0.192
10935W        W83360  29.311  42.958   4.175
10936W        W83361  13.574   3.518   1.872
10937W        W83362  12.764  44.421   2.376
10938W        W83363   5.806  42.393  14.722
10939W        W83364   0.543  42.416  14.342
10940W        W83365  14.788   5.334   1.978
10941W        W83366  28.056   8.352   3.658
10942W        W83367  14.053   8.951  13.772
10943W        W83368  21.074  31.140   1.247
10944W        W83369  30.447  14.150   1.792
10945W        W83370   0.196  11.430   3.020
10946W        W83371  28.432  38.970  10.656
10947W        W83372  12.934  23.289  13.951
10948W        W83373   0.725  25.215  12.609
10949W        W83374  30.909   9.414  11.058
10950W        W83375  40.971   6.917  14.448
10951W        W83376  25.129   6.198   4.679
10952W        W83377  12.251  29.861  12.273
10953W        W83378  31.946  24.233  14.491
10954W        W83379   7.426  12.409   2.898
10955W        W83380  10.697   8.345  11.927
10956W        W83381   2.726  33.360   0.922
10957W        W83382  22.612  37.732  12.375
10958W        W83383  39.949   7.707  11.854
10959W        W83384   4.895  13.346  14.061
10960W        W83385  19.685  19.801   2.067
10961W        W83386  31.519   9.715   4.344
10962W        W83387  22.168  30.050   4.919
10963W        W83388  24.571  41.840  10.994
10964W        W83389   0.295  35.477  12.918
10965W        W83390   3.281   5.963  12.393
10966W        W83391  33.410   6.971   5.065
10967W        W83392  17.850   3.474   0.750
10968W        W83393  17.359  22.069   4.116
10969W        W83394  34.560  25.221  13.621
10970W        W83395  11.376   9.923  10.130
10971W        W83396  37.367  15.367   3.342
10972W        W83397  20.495   6.795   4.617
10973W        W83398  22.507  30.740   0.175
10974W        W83399  22.129  29.996   3.885
10975W        W83400  21.566  24.256  12.375
10976W        W83401   2.255  17.111   3.372
10977W        W83402  14.696  16.221  11.445
10978W        W83403  12.641  35.345  12.085
10979W        W83404  17.788  35.270   4.008
10980W        W83405  38.898  43.450  12.418
10981W        W83406  24.709  18.555  11.491
10982W        W83407   7.398  42.485   1.372
10983W        W83408   6.010  27.486   2.637
10984W        W83409   9.412  41.623   2.746
10985W        W83410  14.639  31.261   4.555
10986W        W83411  14.299  33.011  12.928
10987W        W83412  24.306   2.686  11.666
10988W        W83413  16.710  39.947   1.659
10989W        W83414  10.121  43.921  13.866
10990W        W83415  35.412   3.874   4.218
10991W        W83416   6.818  27.704  13.565
10992W        W83417  13.668  43.895   2.893
10993W        W83418  24.755  36.265   4.048
10994W        W83419  30.977   4.260  12.537
10995W        W83420   6.656  34.916   4.175
10996W        W83421  29.080  10.204  12.016
10997W        W83422  13.105  28.126  14.409
10998W        W83423  16.840  39.007   1.930
10999W        W83424  36.081  26.645   3.850
11000W        W83425  35.097  22.508  12.513
11001W        W83426   1.905  16.049  12.037
11002W        W83427  15.725  20.316  13.547
11003W        W83428  20.130  29.489   0.391
11004W        W83429  27.201   0.763   0.007
11005W        W83430  18.284  39.235   2.747
11006W        W83431   7.570  32.943   3.910
11007W        W83432  42.498  35.051   3.228
11008W        W83433   7.317  10.231   2.003
11009W        W83434  12.270  42.955  12.092
11010W        W83435  44.475  39.268  10.637
11011W        W83436  18.790  27.589  12.360
11012W        W83437  31.441  39.985  14.125
11013W        W83438  31.084  33.655   4.813
11014W        W83439  30.141  21.740   3.126
11015W        W83440   5.218  31.822  11.094
11016W        W83441  30.738  40.819  12.447
11017W        W83442  25.345  14.519  12.888
11018W        W83443  14.038  27.822   4.104
11019W        W83444  23.243  16.670   4.731
11020W        W83445  25.549  30.447  14.882
11021W        W83446  19.544   4.431   4.066
11022W        W83447  36.469   0.211  10.431
11023W        W83448  30.903  42.077   3.239
11024W        W83449  29.441  40.980  10.888
11025W        W83450   4.274   6.713  12.590
11026W        W83451  18.815   5.287   1.816
11027W        W83452  11.199  23.609  12.475
11028W        W83453  18.742  14.142  13.082
11029W        W83454  37.525   8.110   2.634
11030W        W83455   3.787  37.854  10.728
11031W        W83456  27.911  15.765   3.310
11032W        W83457   5.249  27.418   1.758
11033W        W83458  36.820  39.994   3.698
11034W        W83459   6.317  10.591  11.120
11035W        W83460  19.861   6.626   1.727
11036W        W83461  29.292  11.336   4.114
11037W        W83462  28.422   0.228   1.318
11038W        W83463   5.385  41.855   0.349
11039W        W83464  27.073  11.572   4.122
11040W        W83465   2.487   0.403   3.762
11041W        W83466  10.856  34.593   4.710
11042W        W83467   6.058  29.215  14.636
11043W        W83468   0.256  31.636   4.134
11044W        W83469  39.316  37.054  11.169
11045W        W83470  23.072   7.824   9.706
11046W        W83471  29.344  34.909  13.818
11047W        W83472  23.653  22.571   1.216
11048W        W83473  12.279   9.152  11.425
11049W        W83474  13.162  29.304   3.715
11050W        W83475  12.838   4.619   3.256
11051W        W83476  34.429  13.389   1.568
11052W        W83477  35.483  24.262   0.820
11053W        W83478  18.617  30.968  13.305
11054W        W83479  42.316  15.286  11.655
11055W        W83480  24.964  35.922  13.259
11056W        W83481  34.958  32.158   2.214
11057W        W83482   1.235  24.222   0.370
11058W        W83483  14.791  41.445   4.102
11059W        W83484   8.606  18.328   3.408
11060W        W83485  26.674  33.885  10.327
11061W        W83486  37.409   0.424  13.491
11062W        W83487   7.447  27.478   2.822
11063W        W83488  20.697  40.409   3.741
11064W        W83489  21.263  26.222   3.339
11065W        W83490  37.776  19.766   2.893
11066W        W83491  26.023  32.610  11.424
11067W        W83492  10.377  25.130   4.617
11068W        W83493   4.165  35.582  12.003
11069W        W83494  41.802  42.040  11.133
11070W        W83495  30.075  24.678  11.887
11071W        W83496   9.768  11.266   2.500
11072W        W83497  29.684   3.506   4.553
11073W        W83498  26.475  37.013   3.705
11074W        W83499   6.072  14.296  11.668
11075W        W83500   0.370  17.487  14.035
11076W        W83501   6.929  16.209  13.369
11077W        W83502  22.404  21.463  14.214
11078W        W83503   7.750  31.621   4.031
11079W        W83504  23.444  18.940   3.240
11080W        W83505  11.584  11.089   0.475
11081W        W83506  14.602  40.019  12.629
11082W        W83507  20.825  37.999   3.847
11083W        W83508  23.275  42.996   1.827
11084W        W83509  33.642  41.212  12.528
11085W        W83510  39.643  39.203  13.988
11086W        W83511  30.417  40.412   2.796
11087W        W83512  36.350  22.700  14.265
11088W        W83513  13.094   7.612  12.512
11089W        W83514  36.975  19.865  12.965
11090W        W83515  32.077   4.646   2.400
11091W        W83516  17.065   3.766   0.048
11092W        W83517   6.830  23.407  10.932
11093W        W83518   0.465   5.201   0.990
11094W        W83519  42.017  26.069  13.386
11095W        W83520  14.542  23.744   3.659
11096W        W83521   4.405  25.134  11.477
11097W        W83522   5.349   2.590  13.412
11098W        W83523  22.238  37.723   3.429
11099W        W83524  43.650  15.085   0.589
11100W        W83525  33.308  43.802  12.968
11101W        W83526  10.327  16.243   2.121
11102W        W83527  40.359  40.974   0.784
11103W        W83528   5.909  16.156   4.074
11104W        W83529  44.465  10.278   2.502
11105W        W83530   3.331  12.244   0.889
11106W        W83531   6.187  37.241  13.935
11107W        W83532  23.994  26.084  11.496
11108W        W83533  26.555  27.474   4.635
11109W        W83534  11.739   0.046  11.835
11110W        W83535   1.705   8.211  12.594
11111W        W83536  20.224  11.784   0.913
11112W        W83537   1.570  20.168  13.779
11113W        W83538   1.999  39.742  10.770
11114W        W83539   3.927  34.413  14.262
11115W        W83540  31.725  24.797  11.265
11116W        W83541  14.665   9.918  10.271
11117W        W83542  39.857  31.872  14.511
11118W        W83543  26.914  30.337   3.693
11119W        W83544  36.287  42.984  11.587
11120W        W83545   1.227   1.935  13.431
11121W        W83546  16.260  44.352  14.402
11122W        W83547  14.421  17.348  11.595
11123W        W83548  20.881  16.573   0.263
11124W        W83549  20.020  17.364   4.138
11125W        W83550   6.225  27.458   0.781
11126W        W83551   2.951  22.224  10.800
11127W        W83552  30.421  22.764   2.327
11128W        W83553   4.958  35.963   3.803
11129W        W83554  21.232  36.165   4.166
11130W        W83555  30.164  31.796  14.023
11131W        W83556  31.177  37.439   4.438
11132W        W83557  15.388   4.278   1.431
11133W        W83558  21.592   3.325  14.397
11134W        W83559  39.979  23.464  11.186
11135W        W83560  26.472   4.518   1.220
11136W        W83561   6.968  20.597  13.585
11137W        W83562  40.866  35.311   0.457
11138W        W83563  21.717  19.628  10.595
11139W        W83564  26.121   4.719   2.000
11140W        W83565  12.349  37.774   4.171
11141W        W83566  43.360   9.641  12.222
11142W        W83567   6.856   2.880   4.623
11143W        W83568   3.373   8.276  12.881
11144W        W83569   4.897   0.139  12.038
11145W        W83570  25.042  42.057  14.054
11146W        W83571  38.544  34.033  12.488
11147W        W83572   4.735  14.169   4.697
11148W        W83573  28.552  14.383   3.306
11149W        W83574   6.061  36.465   5.433
11150W        W83575   6.859  23.213  12.902
11151W        W83576  22.548  30.122   2.087
11152W        W83577   3.011  40.804   1.884
11153W        W83578  17.827   8.651   2.404
11154W        W83579   3.234  31.371   2.617
11155W        W83580   7.926   6.716  12.418
11156W        W83581  16.404   2.628  13.552
11157W        W83582  42.064  18.118   0.064
11158W        W83583  25.619  12.590  10.736
11159W        W83584  40.376  21.789   4.609
11160W        W83585   3.812   2.780  13.260
11161W        W83586  21.737  11.718   0.892
11162W        W83587   1.994  17.080   1.899
11163W        W83588  26.009   0.865  13.372
11164W        W83589   2.485  38.230  14.740
11165W        W83590  10.899   7.132   0.658
11166W        W83591  34.054  42.921  10.229
11167W        W83592   6.347   5.577  13.694
11168W        W83593  19.434  33.609  12.977
11169W        W83594   2.351  35.438   0.080
11170W        W83595  33.801  41.868   4.568
11171W        W83596  22.315  15.636  12.866
11172W        W83597  22.771  12.222   3.638
11173W        W83598   0.857  25.731  12.466
11174W        W83599  17.955  42.774  10.389
11175W        W83600  35.349  37.520   2.679
11176W        W83601   7.774  17.019  11.661
11177W        W83602  27.836  18.748   3.220
11178W        W83603  29.751  28.115   2.598
11179W        W83604  33.548   6.091   3.820
11180W        W83605  24.298   5.758   3.134
11181W        W83606  13.961  37.517   2.110
11182W        W83607   5.812  30.153   4.773
11183W        W83608  25.558  44.655   4.247
11184W        W83609  20.052   4.661  11.077
11185W        W83610  15.264  15.067   3.647
11186W        W83611  31.388   3.807   4.804
11187W        W83612   6.630  42.811   4.227
11188W        W83613   0.269  30.976   3.283
11189W        W83614   4.960  12.802  14.421
11190W        W83615  16.726   0.730  13.526
11191W        W83616   1.961  25.115  13.067
11192W        W83617  15.763   3.350   3.217
11193W        W83618  35.014  35.104   2.178
11194W        W83619  25.245   0.349   3.674
11195W        W83620  16.286  15.632  12.155
11196W        W83621   3.490  39.787  11.711
11197W        W83622  17.219   9.227   0.561
11198W        W83623   2.727   1.468  12.431
11199W        W83624  24.046  22.915  14.914
11200W        W83625  16.516  16.738   4.145
11201W        W83626  11.915   0.942  11.430
11202W        W83627  21.330  10.366  10.375
11203W        W83628  10.660  28.985   0.832
11204W        W83629  44.236  40.929  14.261
11205W        W83630  34.019  24.888   1.261
11206W        W83631   0.676   7.861  14.016
11207W        W83632   7.137  35.500  12.106
11208W        W83633  22.455  42.531   0.899
11209W        W83634   1.695   1.801  14.855
11210W        W83635  12.091  15.734   4.210
11211W        W83636  15.266  11.630  14.023
11212W        W83637  17.829   1.441   5.074
11213W        W83638   5.711  41.824   4.195
11214W        W83639  11.030  42.933   5.042
11215W        W83640  18.824  25.048  11.583
11216W        W83641  39.990  35.378   0.927
11217W        W83642   6.481  11.189   2.104
11218W        W83643  11.762  31.324   3.329
11219W        W83644  34.893  13.513  13.003
11220W        W83645   2.848  37.572   0.897
11221W        W83646  43.409  32.383   4.149
11222W        W83647  15.594   0.304  12.936
11223W        W83648  36.624  20.751   1.877
11224W        W83649   0.975  39.995   4.171
11225W        W83650   7.761  23.671  12.430
11226W        W83651  37.196   1.872  11.703
11227W        W83652  42.882  11.641  10.946
11228W        W83653  37.953  36.133  11.221
11229W        W83654  27.251   6.958  13.426
11230W        W83655  37.355  43.967  14.379
11231W        W83656   5.330  10.736   3.332
11232W        W83657  40.908  34.078   0.857
11233W        W83658  20.692  44.985   1.323
11234W        W83659  21.416  16.406  12.771
11235W        W83660  39.840  12.564  11.377
11236W        W83661   3.181  40.409   4.408
11237W        W83662   7.501  43.475  14.223
11238W        W83663  11.631  19.072  13.271
11239W        W83664  40.423  23.174  14.572
11240W        W83665  29.175  39.036  13.319
11241W        W83666  39.239   6.964   0.457
11242W        W83667  31.009  20.364   3.873
11243W        W83668  41.515  24.529   2.381
11244W        W83669  12.763  40.079   1.756
11245W        W83670  33.119  18.150   5.059
11246W        W83671  28.955  12.722  12.629
11247W        W83672   3.360  17.991   3.239
11248W        W83673  12.139  44.763  13.996
11249W        W83674  35.879  24.473  13.075
11250W        W83675  24.106  16.003  13.941
11251W        W83676  31.708  15.685   1.896
11252W        W83677  40.505  37.140  10.685
11253W        W83678  44.759   5.343  14.341
11254W        W83679  22.221  14.329   1.899
11255W        W83680  40.428  22.475  13.825
11256W        W83681  31.133  12.352   4.582
11257W        W83682  21.270  15.682  11.217
11258W        W83683   1.617  29.506   1.463
11259W        W83684   6.887   6.342  13.081
11260W        W83685  15.310   0.540  10.341
11261W        W83686  44.929   4.760   0.954
11262W        W83687   4.868  18.578   0.849
11263W        W83688  14.217  39.693  11.077
11264W        W83689   1.415  39.003  13.903
11265W        W83690  24.275  26.413  11.214
11266W        W83691   6.760   5.933  11.468
11267W        W83692  25.727  14.191  10.666
11268W        W83693  32.465  30.951   4.983
11269W        W83694  29.518   3.738  10.872
11270W        W83695  29.148  37.536  13.769
11271W        W83696  31.618   7.531  13.468
11272W        W83697  30.467  33.137   1.823
11273W        W83698  31.333   6.706   1.189
11274W        W83699  17.659  14.910   3.738
11275W        W83700  36.936  37.236   3.871
11276W        W83701   1.524  14.843   1.372
11277W        W83702  30.428  23.651   3.026
11278W        W83703  23.250  42.877   4.659
11279W        W83704  21.602  25.188  14.716
11280W        W83705  36.443  13.568  11.148
11281W        W83706   5.116  30.470  11.643
11282W        W83707  26.927   4.206  13.367
11283W        W83708  24.819  11.811   4.600
11284W        W83709  36.900  26.921   4.966
11285W        W83710  27.793  15.086   2.181
11286W        W83711  15.539  10.904  11.083
11287W        W83712  28.376  32.140  14.274
11288W        W83713  26.553  44.149  11.583
11289W        W83714  44.173  23.313  13.314
11290W        W83715   2.449  20.556  13.848
11291W        W83716   7.335  31.276  10.662
11292W        W83717  19.239  22.646   1.974
11293W        W83718  32.108   6.365  10.676
11294W        W83719  13.772   6.816   4.819
11295W        W83720  21.365  36.941  11.864
11296W        W83721  29.224  33.444  11.567
11297W        W83722  39.281  30.264  11.591
11298W        W83723  24.010  17.839   0.983
11299W        W83724  22.230  18.062   4.560
11300W        W83725  39.820  40.989  10.576
11301W        W83726   2.726  10.860  14.846
11302W        W83727  32.797  17.821   0.213
11303W        W83728  43.331  44.379   4.145
11304W        W83729  22.255  40.943  12.743
11305W        W83730  15.689  13.999   0.285
11306W        W83731   5.657  18.763  12.072
11307W        W83732   3.452  11.184  14.767
11308W        W83733   4.576  21.152   1.367
11309W        W83734  24.287  23.356  14.745
11310W        W83735   0.264   2.069  11.919
11311W        W83736   1.642  35.141   2.012
11312W        W83737  31.962  30.882   5.022
11313W        W83738  27.992  22.908   3.880
11314W        W83739  12.402  19.322   3.673
11315W        W83740   7.470  29.726   3.605
11316W        W83741  17.077   2.306   3.679
11317W        W83742  11.835  27.059  13.843
11318W        W83743  25.019  18.266   3.548
11319W        W83744  36.623  20.709   0.945
11320W        W83745  44.882   9.535   1.248
11321W        W83746   0.733   4.875  10.467
11322W        W83747   9.257  31.137  10.500
11323W        W83748   0.495  11.390  13.103
11324W        W83749   8.739  11.401   3.188
11325W        W83750  16.593  26.194   2.751
11326W        W83751   5.906  15.545  14.954
11327W        W83752  13.760  30.051  14.045
11328W        W83753  43.098  26.487   4.183
11329W        W83754  14.846  20.632  14.510
11330W        W83755  10.764  27.519  12.436
11331W        W83756  25.608  31.042   0.261
11332W        W83757  34.428   5.458   3.017
11333W        W83758   1.829  16.152   1.585
11334W        W83759  21.701  43.362  13.550
11335W        W83760  30.845  44.301  10.587
11336W        W83761  38.971   4.865   0.815
11337W        W83762  15.735  14.286   3.716
11338W        W83763  21.160  39.644  11.525
11339W        W83764  42.717  11.209  12.060
11340W        W83765  14.847  37.025   0.691
11341W        W83766  28.048  44.409   4.568
11342W        W83767  17.796   8.227   1.267
11343W        W83768  15.156  26.607  12.579
11344W        W83769  33.321  30.645  14.935
11345W        W83770  25.091  30.700  13.806
11346W        W83771  38.515  43.130   4.985
11347W        W83772  42.157  33.104   4.705
11348W        W83773  36.278  11.304   2.566
11349W        W83774   7.310  17.870  13.989
11350W        W83775   8.555  40.120  12.972
11351W        W83776  30.065  32.658  10.157
11352W        W83777  28.734  36.006  11.274
11353W        W83778  10.417   6.011  14.105
11354W        W83779  30.043  12.827   3.713
11355W        W83780  44.336  19.697   3.895
11356W        W83781  43.844  24.288   0.339
11357W        W83782  25.683  37.801   4.555
11358W        W83783  33.428  35.864  11.461
11359W        W83784  29.590  36.951  13.212
11360W        W83785   3.477  28.381  13.219
11361W        W83786  10.743  32.281  14.458
11362W        W83787   9.863  18.638   4.939
11363W        W83788  32.279  26.616  12.769
11364W        W83789  29.830  29.741   3.853
11365W        W83790   7.172   5.784   2.423
11366W        W83791  39.601  16.968  12.106
11367W        W83792  19.566   5.765   2.354
11368W        W83793  35.341  13.557  13.942
11369W        W83794  42.184   7.726   3.690
11370W        W83795   3.256  30.827  12.686
11371W        W83796  27.549  10.171   0.893
11372W        W83797   1.496  34.622   2.898
11373W        W83798  37.114  21.564   0.959
11374W        W83799  22.065  44.375  13.017
11375W        W83800  39.366  20.243   2.334
11376W        W83801   9.303   3.499  11.538
11377W        W83802  33.870  13.090   3.647
11378W        W83803  14.282  21.941   5.604
11379W        W83804  43.358  43.938   0.268
11380W        W83805  42.476  30.391   4.796
11381W        W83806  28.558   5.305   5.029
11382W        W83807  31.476   1.328   0.049
11383W        W83808  34.280  31.428  13.361
11384W        W83809  25.166   9.895   2.567
11385W        W83810  30.552  41.301   0.908
11386W        W83811  10.205   9.730   1.971
11387W        W83812   9.826   8.378  11.941
11388W        W83813  21.091  40.955   2.775
11389W        W83814  29.824  25.139   1.317
11390W        W83815   2.191  44.492   2.782
11391W        W83816  40.981  36.309   0.859
11392W        W83817   2.715   0.423  13.139
11393W        W83818  37.778  39.906   2.639
11394W        W83819  39.054  17.655  13.588
11395W        W83820  41.961  35.000   3.330
11396W        W83821   7.450  31.623   2.718
11397W        W83822   8.668  25.415   4.676
11398W        W83823  23.779   2.359  11.295
11399W        W83824   8.342  13.819   3.703
11400W        W83825  10.707   4.566   4.365
11401W        W83826  13.657  24.003   4.663
11402W        W83827  30.679  41.995   0.958
11403W        W83828  30.528  38.142  14.940
11404W        W83829  20.079  27.382  13.940
11405W        W83830  39.421  43.086  10.589
11406W        W83831  35.391  23.541   5.019
11407W        W83832  23.060  17.725   0.934
11408W        W83833  19.545  29.619   1.831
11409W        W83834  14.298  31.436  14.559
11410W        W83835  41.311  32.433   2.662
11411W        W83836  11.769  37.879   3.685
11412W        W83837  36.607  13.188  12.952
11413W        W83838  16.867  17.048   4.511
11414W        W83839  15.596  36.976   3.794
11415W        W83840  43.889  17.958   3.661
11416W        W83841  17.728  20.562   2.794
11417W        W83842  12.775  34.320  10.585
11418W        W83843   8.412  12.445  14.681
11419W        W83844  21.839  43.277   2.344
11420W        W83845  36.474  38.308   0.403
11421W        W83846  40.425  40.857  11.461
11422W        W83847  36.058   6.483  13.908
11423W        W83848  29.826   1.792  13.503
11424W        W83849   9.098  14.815   2.391
11425W        W83850  44.047   9.492   0.849
11426W        W83851  14.818  20.072  11.683
11427W        W83852  37.936  27.000   1.848
11428W        W83853  14.879  30.088   2.420
11429W        W83854   5.248  34.190  11.837
11430W        W83855  39.289  25.984  11.476
11431W        W83856  25.053  42.442   2.324
11432W        W83857  29.404  34.514   4.145
11433W        W83858   4.828  42.650  13.369
11434W        W83859  31.506  38.065   4.511
11435W        W83860  27.208  27.243  12.299
11436W        W83861  35.758  16.583  13.986
11437W        W83862  23.572   3.870   4.637
11438W        W83863  22.983  27.867   4.177
11439W        W83864  23.573  17.235  12.849
11440W        W83865  11.731  12.413   3.714
11441W        W83866  25.577   6.667   4.182
11442W        W83867  27.083  19.516  12.303
11443W        W83868  36.888  20.158   4.465
11444W        W83869   1.347  40.904  13.993
11445W        W83870   4.644  25.720  10.732
11446W        W83871   8.620  33.545   4.987
11447W        W83872  14.542   0.200  12.931
11448W        W83873  28.891  31.641  11.084
11449W        W83874  17.896   0.885  10.551
11450W        W83875  10.754  25.788   0.495
11451W        W83876  38.997  15.693   3.180
11452W        W83877  41.339  12.258  14.066
11453W        W83878  25.035   4.973  11.270
11454W        W83879   5.706   3.313  10.631
11455W        W83880  23.440  21.777  11.637
11456W        W83881  38.936   9.700  13.108
11457W        W83882  41.962  36.720   2.780
11458W        W83883  44.357  15.354  14.720
11459W        W83884  16.075  30.523  14.087
11460W        W83885   5.152   0.762  14.260
11461W        W83886  37.057  13.751  11.668
11462W        W83887  41.011  30.368   3.324
11463W        W83888  19.170  42.298  13.772
11464W        W83889  19.345  30.519   3.528
11465W        W83890  36.074  32.028   1.520
11466W        W83891  40.656  42.850  10.231
11467W        W83892  44.403   5.672   2.576
11468W        W83893  31.498   1.347   1.903
11469W        W83894   7.387  26.043  10.444
11470W        W83895  36.917  10.367   1.964
11471W        W83896  28.298  26.111   3.691
11472W        W83897  38.861   7.769   4.312
11473W        W83898   8.352  28.747  13.377
11474W        W83899  37.976   5.874   3.045
11475W        W83900  22.642   6.136   1.524
11476W        W83901  35.835  42.352   2.612
11477W        W83902   9.372  22.799   1.373
11478W        W83903  27.696   1.676  14.715
11479W        W83904  26.256  38.904  10.536
11480W        W83905  31.510   9.469   0.487
11481W        W83906  36.005  25.918   2.801
11482W        W83907  38.060  24.695   1.600
11483W        W83908   3.756  40.485  12.616
11484W        W83909  11.135   3.745  13.822
11485W        W83910   1.952  14.386   0.440
11486W        W83911  18.528  36.564   2.413
11487W        W83912   5.291  28.492  12.234
11488W        W83913   9.448  12.218  12.365
11489W        W83914  26.159  28.736   4.693
11490W        W83915   9.684  21.284  10.620
11491W        W83916  13.373   0.266   2.868
11492W        W83917   0.444  14.138  10.742
11493W        W83918  16.685   5.889   0.623
11494W        W83919  36.880  18.838   3.621
11495W        W83920  13.246  13.853   2.767
11496W        W83921   7.366  34.671  13.373
11497W        W83922  11.210  22.898   2.186
11498W        W83923  12.064  37.390  13.947
11499W        W83924  18.127  15.328  14.551
11500W        W83925  11.019  30.986   4.188
11501W        W83926  33.778  21.033   2.790
11502W        W83927  33.474   7.752   4.453
11503W        W83928   5.436  23.994   0.437
11504W        W83929  21.594  15.449  14.025
11505W        W83930  41.192  14.281  12.199
11506W        W83931  38.031   7.431  14.667
11507W        W83932  40.306  35.706  12.896
11508W        W83933   2.320  19.548   4.568
11509W        W83934  27.583  17.887   1.727
11510W        W83935  38.716  37.022  10.038
11511W        W83936  13.316   7.443  12.977
11512W        W83937  12.365  16.525   3.677
11513W        W83938   4.331  37.543   2.011
11514W        W83939  35.259   1.410   3.138
11515W        W83940  44.073  20.552   1.733
11516W        W83941  36.021   5.322  11.016
11517W        W83942   9.371   9.584   3.065
11518W        W83943   2.190  37.286  10.910
11519W        W83944  20.051  19.596  11.649
11520W        W83945   7.580  34.501   4.204
11521W        W83946  23.234   7.556   4.102
11522W        W83947  16.299   7.610  14.451
11523W        W83948  20.499  20.071  14.767
11524W        W83949  34.504  37.145  13.785
11525W        W83950  35.493  39.560  11.161
11526W        W83951   1.007  42.923   1.399
11527W        W83952  27.241  20.241  14.765
11528W        W83953  14.606  42.714   4.835
11529W        W83954  33.496  27.588   0.536
11530W        W83955   2.003  24.419   0.797
11531W        W83956  30.094  11.635   4.310
11532W        W83957  39.901  37.119  14.452
11533W        W83958  14.739   0.416   4.588
11534W        W83959  43.395  32.362  11.561
11535W        W83960  31.931  10.854   3.679
11536W        W83961  33.405   5.586  12.061
11537W        W83962  31.638  17.539  13.437
11538W        W83963  31.482  12.116  12.726
11539W        W83964  39.983   6.458  10.696
11540W        W83965  23.820  14.435  11.156
11541W        W83966  37.780  43.055  12.636
11542W        W83967  18.779  38.868  12.021
11543W        W83968  23.152  38.674  13.117
11544W        W83969  30.466  28.557   4.548
11545W        W83970  20.765  30.628   3.670
11546W        W83971   5.163  36.355   4.676
11547W        W83972  14.352  36.732   2.974
11548W        W83973  33.083  36.139   2.142
11549W        W83974  31.641  42.483  13.204
11550W        W83975  34.808  44.788   1.343
11551W        W83976  42.409   7.802   1.256
11552W        W83977   1.839  33.454  11.071
11553W        W83978  28.541  30.766   5.200
11554W        W83979  16.793  14.297  13.038
11555W        W83980   2.552  13.126   4.869
11556W        W83981  41.879  39.765  12.608
11557W        W83982  31.447  25.771  12.091
11558W        W83983  29.602  41.945  14.366
11559W        W83984  12.239  26.201  12.591
11560W        W83985  29.084  20.479   3.584
11561W        W83986  42.663  19.586  14.023
11562W        W83987  29.801  17.148   4.035
11563W        W83988   8.727  29.360   3.366
11564W        W83989   1.574   1.145  12.023
11565W        W83990  21.285  39.277  12.409
11566W        W83991  13.239  17.304   2.722
11567W        W83992  12.252  21.698  10.857
11568W        W83993  15.752   8.270  14.593
11569W        W83994  14.648  26.244  13.266
11570W        W83995  31.532   0.541  12.466
11571W        W83996  28.021  20.835  10.712
11572W        W83997  24.698  41.780   2.514
11573W        W83998  26.157   1.875   1.323
11574W        W83999   3.295  15.044   1.128
11575W        W84000  30.578  33.387  13.900
11576W        W84001  23.122  20.109   3.279
11577W        W84002  30.053   5.952  14.344
11578W        W84003   6.601  14.499   0.432
11579W        W84004   9.103  14.232  11.591
11580W        W84005  40.827   4.996  11.307
11581W        W84006  30.058  18.752   1.177
11582W        W84007  29.027  17.215  12.977
11583W        W84008  29.451  32.068  10.547
11584W        W84009   0.776   9.793   1.255
11585W        W84010   4.040  41.825   3.216
11586W        W84011   1.545  12.656   4.181
11587W        W84012  33.917  25.557  14.824
11588W        W84013  32.083   4.186  11.502
11589W        W84014   9.437  43.062  12.892
11590W        W84015  18.304  10.904   3.575
11591W        W84016  38.459  28.566   3.265
11592W        W84017  43.405  24.723  12.490
11593W        W84018  18.414  33.573  11.035
11594W        W84019  24.682  10.694  11.430
11595W        W84020   3.009  29.486  14.506
11596W        W84021  38.355  32.485   1.158
11597W        W84022  14.763  28.641  12.753
11598W        W84023   7.333  13.271  12.176
11599W        W84024  15.888  35.589  10.430
11600W        W84025  31.532  28.144   3.240
11601W        W84026  30.076   5.683   1.447
11602W        W84027  40.863  11.292   3.234
11603W        W84028  28.136   5.750  13.321
11604W        W84029  41.923   3.445   4.548
11605W        W84030   6.105  44.893   2.641
11606W        W84031  37.139  44.500  13.615
11607W        W84032  23.438  34.113  11.371
11608W        W84033   0.684  15.212  14.360
11609W        W84034  29.173   0.357  10.706
11610W        W84035  36.628  30.272  14.290
11611W        W84036   9.324  10.624  13.397
11612W        W84037  17.564  42.562  13.061
11613W        W84038  43.511  27.539  11.426
11614W        W84039  10.568  31.228  14.388
11615W        W84040   1.525  16.471   1.863
11616W        W84041  32.223  32.846  14.599
11617W        W84042  21.992  23.203  10.774
11618W        W84043  30.940  19.761   5.032
11619W        W84044   6.909  34.802   0.297
11620W        W84045  14.405  13.166  12.079
11621W        W84046  26.449  40.033   1.681
11622W        W84047   7.685   7.820  12.038
11623W        W84048  41.510  11.464  11.213
11624W        W84049  10.632   4.720  10.319
11625W        W84050  11.316   8.701  10.545
11626W        W84051  20.240  36.484  12.414
11627W        W84052  25.439  25.389   0.327
11628W        W84053  16.910  41.998  13.492
11629W        W84054  43.165  44.368   1.828
11630W        W84055  36.700   1.519   0.915
11631W        W84056  14.014  41.770  12.316
11632W        W84057  10.475   7.832  10.772
11633W        W84058  21.031  34.580  13.996
11634W        W84059   3.073  26.835   4.722
11635W        W84060  21.709  37.858   1.435
11636W        W84061   2.183   6.220   3.239
11637W        W84062  16.649   2.597   3.728
11638W        W84063  11.396  41.445   2.922
11639W        W84064  40.602  30.025  13.384
11640W        W84065   3.302  14.698  12.542
11641W        W84066  35.033  31.377   4.562
11642W        W84067  37.043  12.755   2.536
11643W        W84068   7.600  22.176   2.377
11644W        W84069  25.292   5.203   3.789
11645W        W84070   3.471   7.714  11.044
11646W        W84071  35.171  14.635   4.560
11647W        W84072   9.922   0.794  12.999
11648W        W84073  14.549  34.420  10.682
11649W        W84074  18.046  10.716  14.434
11650W        W84075  18.356  32.471   3.733
11651W        W84076  36.886  11.922   2.710
11652W        W84077  19.635  32.891  13.521
11653W        W84078  35.298   5.434   4.192
11654W        W84079   0.426  10.401  14.337
11655W        W84080   7.131  26.529  11.601
11656W        W84081  26.558   1.543  12.995
11657W        W84082  35.304  40.391  12.918
11658W        W84083   1.468   5.646   2.275
11659W        W84084  44.742  34.092   1.908
11660W        W84085  37.424  43.345   4.117
11661W        W84086  44.060  13.854   0.356
11662W        W84087   9.218  11.650  11.679
11663W        W84088  35.002   3.278   4.179
11664W        W84089  23.144  29.515   4.388
11665W        W84090   3.183  27.157  13.395
11666W        W84091   5.823  14.203  10.962
11667W        W84092   0.212  44.808  14.336
11668W        W84093  11.129   3.350  11.688
11669W        W84094  37.540  20.247   0.409
11670W        W84095  41.178  42.513   1.012
11671W        W84096  15.525  12.236   3.403
11672W        W84097  27.713  30.047  13.595
11673W        W84098  32.843  31.240  11.020
11674W        W84099   9.992  11.663  12.116
11675W        W84100  15.162  14.856  13.166
11676W        W84101  42.849   7.733   3.184
11677W        W84102   5.866  10.283  13.130
11678W        W84103  23.202  30.986  13.422
11679W        W84104   5.233  23.048   4.155
11680W        W84105  12.788   6.170   0.423
11681W        W84106  42.816   9.857  11.564
11682W        W84107  35.401  37.573   0.093
11683W        W84108  17.266  12.547   0.381
11684W        W84109  15.384  24.772  10.980
11685W        W84110  16.991  35.728  11.038
11686W        W84111   5.356  33.906  10.936
11687W        W84112  35.183  15.567  10.162
11688W        W84113  14.097  14.904  14.904
11689W        W84114  19.144  40.211   2.182
11690W        W84115  44.263  41.532   1.286
11691W        W84116  16.024  43.310  14.507
11692W        W84117  14.285  12.873   3.582
11693W        W84118  35.557  22.828  11.362
11694W        W84119  33.040  10.642   0.775
11695W        W84120  20.706  15.799   4.951
11696W        W84121   3.013  10.275  10.156
11697W        W84122  12.767  42.801   1.740
11698W        W84123  29.186  34.842   1.615
11699W        W84124  22.316  38.329   4.210
11700W        W84125  20.681  27.917  12.444
11701W        W84126  20.779  30.041   1.946
11702W        W84127  30.120   3.754  14.971
11703W        W84128  37.079   2.873   1.809
11704W        W84129  36.947   5.841   0.435
11705W        W84130  38.203  19.905   1.956
11706W        W84131  29.670  35.356  12.494
11707W        W84132  28.623  30.204   3.185
11708W        W84133  36.116  37.313   0.310
11709W        W84134  19.470  27.472  10.779
11710W        W84135  11.836   0.875   2.629
11711W        W84136  13.634   4.959   1.347
11712W        W84137  15.283  41.316  10.751
11713W        W84138  26.051  15.446  14.346
11714W        W84139  35.049  26.444  10.121
11715W        W84140  13.386  38.884   2.390
11716W        W84141  12.567  35.274  10.895
11717W        W84142  41.316  23.018   3.178
11718W        W84143  18.529  43.205   2.774
11719W        W84144  30.042  44.405  13.123
11720W        W84145  34.779   3.804  12.028
11721W        W84146  37.654  24.898  14.393
11722W        W84147  26.602  33.359  11.619
11723W        W84148  41.352  35.494   0.752
11724W        W84149  44.990   5.397  12.102
11725W        W84150  19.738  20.998   2.715
11726W        W84151  40.623  36.518   2.345
11727W        W84152  35.332  27.569   0.826
11728W        W84153  12.703  29.078  14.396
11729W        W84154  14.463  12.029  11.249
11730W        W84155  30.959  43.067  11.528
11731W        W84156  17.558   6.793  10.783
11732W        W84157  21.680  23.846   3.214
11733W        W84158  39.877  18.795   1.871
11734W        W84159  21.437   9.246   1.475
11735W        W84160  14.819  15.850  11.094
11736W        W84161  11.677  33.800  14.980
11737W        W84162  17.886  29.839   0.816
11738W        W84163  22.144  36.800   3.180
11739W        W84164  43.947  36.605  11.863
11740W        W84165  40.758  17.620   2.447
11741W        W84166  27.290  24.204  11.140
11742W        W84167  38.641   6.961   2.891
11743W        W84168  33.601  30.126   4.846
11744W        W84169  18.280   2.200   3.296
11745W        W84170  31.869  35.078  14.972
11746W        W84171  14.628  35.871  13.742
11747W        W84172   5.668  24.269  12.047
11748W        W84173  24.888  44.147  13.592
11749W        W84174  29.063  23.181   2.212
11750W        W84175  12.303   8.667  11.558
11751W        W84176  33.061   7.218   2.738
11752W        W84177  26.782  35.067  12.530
11753W        W84178  15.841  28.794   1.907
11754W        W84179  31.684  23.444  13.616
11755W        W84180  25.592  11.095   1.331
11756W        W84181   3.140   5.251  11.563
11757W        W84182  25.518  22.619  14.788
11758W        W84183  23.991  36.972   4.585
11759W        W84184  33.421  44.895   2.647
11760W        W84185  31.671  40.071  11.458
11761W        W84186  34.066   4.927  13.189
11762W        W84187  12.061  38.014   2.477
11763W        W84188  10.632  27.207  12.865
11764W        W84189  35.279  36.527  13.797
11765W        W84190  29.001   1.771  10.633
11766W        W84191  38.591  12.457  14.441
11767W        W84192  15.426  29.572   0.405
11768W        W84193   0.086  14.022  11.989
11769W        W84194  21.497  20.219   4.820
11770W        W84195  29.035  32.939   2.828
11771W        W84196  27.002   2.265   1.221
11772W        W84197  14.072  34.755  12.102
11773W        W84198   8.426  33.604   1.255
11774W        W84199  11.596  16.735   4.150
11775W        W84200  31.016  14.237   4.109
11776W        W84201  16.098  13.614   2.410
11777W        W84202  33.792   9.820  14.976
11778W        W84203  42.438  35.619   0.011
11779W        W84204  10.877   2.870  13.769
11780W        W84205  32.335  33.702  11.286
11781W        W84206  12.606  35.650   1.989
11782W        W84207  22.814  25.182   0.854
11783W        W84208  35.641  34.515   3.620
11784W        W84209  28.626  21.683  12.955
11785W        W84210   5.392   7.592   3.280
11786W        W84211  32.861  10.391  12.286
11787W        W84212  41.381  33.877   0.767
11788W        W84213  25.815  37.112  12.904
11789W        W84214  15.656  39.038  10.468
11790W        W84215   9.883  26.455  10.397
11791W        W84216  20.862  23.142   2.357
11792W        W84217  21.287   3.248   3.662
11793W        W84218  27.603   9.594  13.989
11794W        W84219  36.906  23.018  14.580
11795W        W84220   8.878  23.969   3.160
11796W        W84221  36.674  42.653  14.512
11797W        W84222   1.468   2.685  13.892
11798W        W84223  16.520  20.737  12.615
11799W        W84224   7.321  15.042   4.727
11800W        W84225  43.536  16.508  14.312
11801W        W84226   1.408  12.159  11.029
11802W        W84227  27.526  26.663   0.318
11803W        W84228  12.666  16.643   2.219
11804W        W84229   8.821  19.648   3.240
11805W        W84230  32.380  10.771   3.394
11806W        W84231  31.962   1.182   1.282
11807W        W84232   1.722   0.156   2.230
11808W        W84233   6.560  43.059   9.806
11809W        W84234  13.374  28.554  14.794
11810W        W84235  38.545  11.679   0.217
11811W        W84236  27.047   2.210  14.025
11812W        W84237  40.445  35.620  11.527
11813W        W84238  13.312  35.375   4.339
11814W        W84239  27.104  15.714  14.919
11815W        W84240  23.993  31.544  11.611
11816W        W84241  15.763  35.548  12.391
11817W        W84242  40.475  41.969  12.873
11818W        W84243  12.803  10.199  12.367
11819W        W84244  21.643   4.913  14.069
11820W        W84245   8.103  10.699  11.484
11821W        W84246   4.635  18.102  12.754
11822W        W84247   6.721  20.480  10.730
11823W        W84248  29.952  21.883  11.257
11824W        W84249  43.450  25.166  14.274
11825W        W84250  12.202  21.809   4.701
11826W        W84251   8.162  28.584   0.298
11827W        W84252   4.821  29.278   0.872
11828W        W84253  22.308  44.690  13.592
11829W        W84254  19.524  41.386   0.041
11830W        W84255  30.605  28.504   2.608
11831W        W84256  44.140  37.894  13.034
11832W        W84257  11.247  23.173  14.052
11833W        W84258  20.216  22.212   2.636
11834W        W84259  37.005  44.326  14.098
11835W        W84260  33.827  44.804   0.372
11836W        W84261  13.197  33.719  12.519
11837W        W84262   8.599  13.364   0.529
11838W        W84263   9.911  42.788  12.513
11839W        W84264   8.809  36.874   5.661
11840W        W84265  10.275  32.877  13.757
11841W        W84266  43.245  21.775  12.856
11842W        W84267  22.193   3.086  14.814
11843W        W84268  32.576  26.501  13.744
11844W        W84269  33.365  12.626   1.360
11845W        W84270  23.820  15.792   1.424
11846W        W84271  36.786  37.983  12.626
11847W        W84272   9.607   2.746  13.361
11848W        W84273  30.644  10.758  14.799
11849W        W84274  28.742  23.244   2.637
11850W        W84275  16.119  26.210  12.689
11851W        W84276  30.094  44.581   1.915
11852W        W84277  41.411  14.316   0.987
11853W        W84278  13.988   7.620   0.886
11854W        W84279  26.742  22.197  14.585
11855W        W84280  13.644  27.025   2.396
11856W        W84281  27.952  34.855  14.901
11857W        W84282  37.250   2.446  13.583
11858W        W84283  41.891   5.819  10.794
11859W        W84284  20.496   9.350   3.645
11860W        W84285  11.215  38.455   0.108
11861W        W84286  41.873   0.770   2.282
11862W        W84287  38.847  34.600   0.274
11863W        W84288  16.317  24.967  14.577
11864W        W84289   5.459  15.260   3.098
11865W        W84290  39.137  44.335   0.488
11866W        W84291  44.236  43.951   1.704
11867W        W84292   2.923  18.504   0.795
11868W        W84293  13.557  20.287  14.533
11869W        W84294  10.931   7.442  14.797
11870W        W84295  10.718   2.456  12.018
11871W        W84296  28.238   6.788   4.232
11872W        W84297  22.863  41.833   3.363
11873W        W84298  43.729  15.343  10.656
11874W        W84299  41.457  31.173  14.762
11875W        W84300  11.107  33.433   1.969
11876W        W84301   7.314  36.966   4.912
11877W        W84302   7.650   0.734   3.777
11878W        W84303  43.315  32.345   2.801
11879W        W84304  24.422  10.365   1.539
11880W        W84305  40.475   7.735  11.681
11881W        W84306  34.896  37.084   1.864
11882W        W84307  23.679  17.720  13.954
11883W        W84308  38.844  31.341  14.531
11884W        W84309  38.583  16.765   2.317
11885W        W84310  30.171   1.946  12.086
11886W        W84311  31.605   5.779   3.618
11887W        W84312  23.692  19.777  10.439
11888W        W84313   3.477  35.814  13.844
11889W        W84314  19.021  41.490  11.647
11890W        W84315  19.048  21.088   3.109
11891W        W84316   7.370  36.414   1.660
11892W        W84317  28.998   1.910   1.150
11893W        W84318  40.655  37.829  10.936
11894W        W84319  42.794  25.304   4.909
11895W        W84320  23.227   0.835   4.188
11896W        W84321   4.244  40.882  13.506
11897W        W84322  20.297  27.395  12.142
11898W        W84323  22.102  17.823  11.681
11899W        W84324  38.310  31.503   2.763
11900W        W84325  41.732   9.158  14.325
11901W        W84326   9.867  17.551  10.403
11902W        W84327   0.036  19.133   3.316
11903W        W84328   0.689  15.550  12.337
11904W        W84329  34.794  12.064   3.625
11905W        W84330  29.573  21.164   2.381
11906W        W84331  25.355  28.682  12.539
11907W        W84332  37.815  14.973  12.050
11908W        W84333  25.721  31.045  13.004
11909W        W84334  40.725  40.886  12.024
11910W        W84335  40.253  25.656  14.841
11911W        W84336  29.922  31.316   0.716
11912W        W84337  43.000  21.310  14.062
11913W        W84338  15.346  26.371  13.752
11914W        W84339  14.845  18.116   3.327
11915W        W84340   8.741  33.891   3.718
11916W        W84341  33.466   8.028  14.911
11917W        W84342  39.868   5.124   2.662
11918W        W84343   0.297  33.812   3.796
11919W        W84344  24.120  39.330  11.597
11920W        W84345  44.239  36.546  13.270
11921W        W84346  25.912  21.865  10.955
11922W        W84347   6.044  41.751   2.377
11923W        W84348  14.065   7.659  14.934
11924W        W84349  44.614  17.195   0.720
11925W        W84350   4.356  21.718  14.040
11926W        W84351  40.553   3.746   1.550
11927W        W84352  34.025  41.764  13.461
11928W        W84353  15.233  34.521  11.664
11929W        W84354   6.614  42.415  12.427
11930W        W84355  17.413  32.493   3.854
11931W        W84356  34.550  17.264  14.195
11932W        W84357  30.033  26.416   1.867
11933W        W84358  35.832  21.163  11.569
11934W        W84359  24.994  38.030  14.488
11935W        W84360  13.169   3.384   5.193
11936W        W84361  41.977  17.121  14.514
11937W        W84362  14.412  39.270   1.338
11938W        W84363  10.754  29.149  12.521
11939W        W84364  41.552  33.693  14.987
11940W        W84365  37.880  43.285   4.334
11941W        W84366   7.712  20.338  12.015
11942W        W84367  34.836  41.564  10.296
11943W        W84368  43.936  23.494  14.607
11944W        W84369   1.928  43.057   4.345
11945W        W84370  36.618  12.268   4.167
11946W        W84371  13.623  11.913  13.085
11947W        W84372  29.653   9.580   3.945
11948W        W84373  26.644  26.684   2.696
11949W        W84374  44.938   1.735   0.878
11950W        W84375  29.871  34.110  11.136
11951W        W84376  25.989   3.469  10.457
11952W        W84377  43.977   6.965   1.294
11953W        W84378  30.335  44.904   2.663
11954W        W84379  42.830  22.023   4.129
11955W        W84380   8.883  15.087   0.974
11956W        W84381  35.908   1.029   4.579
11957W        W84382   4.603   5.859   5.254
11958W        W84383   0.449  30.871   1.141
11959W        W84384  10.702  42.450  10.618
11960W        W84385  10.876   6.726   0.250
11961W        W84386  19.067  18.736   4.189
11962W        W84387  24.680  19.058  13.595
11963W        W84388  24.550  32.227  12.634
11964W        W84389   4.787  44.876   0.056
11965W        W84390  37.629  34.496   1.847
11966W        W84391  30.085   9.219   1.482
11967W        W84392   8.211  27.620   1.806
11968W        W84393  10.621   3.213   3.784
11969W        W84394  27.616  26.717  12.147
11970W        W84395  15.706  41.600  13.792
11971W        W84396  13.303  40.814  11.201
11972W        W84397  18.138  19.663   1.528
11973W        W84398  32.947  26.982   3.560
11974W        W84399  12.345  10.697   3.759
11975W        W84400  34.059  33.402  11.717
11976W        W84401  25.143  40.767   4.974
11977W        W84402  12.311  20.561  12.377
11978W        W84403  14.205  39.727  14.999
11979W        W84404  25.151  33.948  13.830
11980W        W84405   1.347  23.200   0.738
11981W        W84406  40.156  33.200   4.304
11982W        W84407  14.203  13.105  11.073
11983W        W84408  26.778  16.738  13.267
11984W        W84409  14.032  24.435  13.020
11985W        W84410  43.457  15.756  12.676
11986W        W84411  11.262  43.488  10.961
11987W        W84412  31.930   1.879   3.668
11988W        W84413   4.521  24.610   3.743
11989W        W84414  27.891  20.179   4.481
11990W        W84415   7.096  20.202  12.435
11991W        W84416   5.962  16.119  10.679
11992W        W84417  27.148   0.417   4.012
11993W        W84418   1.677  23.186  10.687
11994W        W84419  15.164  25.825   1.381
11995W        W84420  20.202  29.285  14.461
11996W        W84421  29.598  23.465   3.308
11997W        W84422  35.113  35.376   4.538
11998W        W84423  41.047   9.003  14.194
11999W        W84424  36.460  30.642   0.710
12000W        W84425  27.909   2.477   3.178
12001W        W84426  23.168   6.418  10.684
12002W        W84427   5.981   3.597  14.089
12003W        W84428  38.559  21.202   0.028
12004W        W84429  20.678   3.418  14.370
12005W        W84430  14.787  37.463  12.023
12006W        W84431   5.303   5.810  14.862
12007W        W84432   7.710   5.669  10.642
12008W        W84433  15.138  26.045   3.769
12009W        W84434  14.602   2.794  13.290
12010W        W84435  28.330  30.503  14.979
12011W        W84436   0.181  11.427  14.294
12012W        W84437  35.007  15.138  13.359
12013W        W84438  11.222  40.547   1.286
12014W        W84439  12.359  28.433   4.438
12015W        W84440   8.631  25.700  12.920
12016W        W84441  13.310  27.605  11.403
12017W        W84442   5.317  19.694  12.565
12018W        W84443   8.128  43.641  14.324
12019W        W84444  39.102  13.883   1.360
12020W        W84445  44.421  35.408  12.369
12021W        W84446   0.325  19.167   3.762
12022W        W84447  18.165  40.791  13.436
12023W        W84448  17.776  18.618  12.097
12024W        W84449  24.506  33.864  13.958
12025W        W84450  21.013  39.405  11.995
12026W        W84451  35.096  43.091  11.203
12027W        W84452  38.496   5.336  11.092
12028W        W84453   0.623  27.550  11.571
12029W        W84454  18.910   6.229  14.249
12030W        W84455  40.807  17.803  12.881
12031W        W84456   6.505  25.587   1.757
12032W        W84457   0.904  19.887  14.256
12033W        W84458  35.780   7.077   1.749
12034W        W84459  25.635  10.366   0.869
12035W        W84460  17.522  36.342   0.301
12036W        W84461  14.263   0.179  11.852
12037W        W84462  43.479  43.064   3.211
12038W        W84463  10.202  23.959   3.554
12039W        W84464  25.483  22.023   0.424
12040W        W84465  26.437   8.252   1.868
12041W        W84466  22.557  40.363   0.725
12042W        W84467   2.978  29.864   3.388
12043W        W84468   5.083   5.463  11.528
12044W        W84469  31.735  43.000  10.713
12045W        W84470   1.367  25.258  11.718
12046W        W84471  39.815  14.555   3.219
12047W        W84472  18.287  38.493   1.200
12048W        W84473  31.940  34.544   0.868
12049W        W84474  37.036  22.725   0.005
12050W        W84475  29.713  34.375  10.709
12051W        W84476  36.853   5.200   1.927
12052W        W84477  10.836  22.158  10.965
12053W        W84478  14.142  16.613  12.389
12054W        W84479   5.980  37.492   2.364
12055W        W84480  41.580  15.728   4.543
12056W        W84481   8.717  25.215  10.414
12057W        W84482  31.703  17.785   0.247
12058W        W84483  37.769  38.863   0.067
12059W        W84484  24.477  27.629   3.876
12060W        W84485   4.368   1.296  13.970
12061W        W84486  23.967  37.044  12.606
12062W        W84487  21.460  11.190  13.319
12063W        W84488  27.992  21.055   2.314
12064W        W84489  41.394   8.294  12.647
12065W        W84490  10.539   1.373  14.693
12066W        W84491  42.098  36.382   2.397
12067W        W84492  37.151  44.342   2.315
12068W        W84493  41.275   4.109   4.154
12069W        W84494   3.185  21.031  11.920
12070W        W84495  42.971  15.610  12.576
12071W        W84496  23.449  24.280  10.341
12072W        W84497   5.624  24.217   0.904
12073W        W84498  33.877  11.043   1.261
12074W        W84499  26.425  18.772   4.612
12075W        W84500   1.834  13.385   1.174
12076W        W84501  34.420  15.298  12.120
12077W        W84502  42.075  38.507  14.864
12078W        W84503  39.046  13.140   0.215
12079W        W84504  26.804  29.216  11.076
12080W        W84505  31.363  28.660  14.202
12081W        W84506   8.331  35.092  11.139
12082W        W84507  18.210  33.681  12.519
12083W        W84508  14.293  36.501   0.750
12084W        W84509  36.913  27.584   2.652
12085W        W84510  10.331  19.137   4.373
12086W        W84511  28.596   2.366  12.399
12087W        W84512   0.545   9.849   2.808
12088W        W84513   8.178  13.894  14.420
12089W        W84514  39.928  16.127   1.021
12090W        W84515   0.030  43.544  14.068
12091W        W84516  44.339  36.916   1.382
12092W        W84517   3.186   7.945   3.856
12093W        W84518  13.054  14.741   0.768
12094W        W84519  43.801  13.634   4.284
12095W        W84520   5.230   6.809   3.889
12096W        W84521  34.110  30.129   4.633
12097W        W84522  11.446  44.704  12.088
12098W        W84523  27.356  22.549  13.877
12099W        W84524  28.512  34.184   9.778
12100W        W84525  23.133   6.329   2.586
12101W        W84526  31.570   3.119  11.933
12102W        W84527   5.275  23.534  13.811
12103W        W84528  31.018   2.729  11.068
12104W        W84529  25.940  33.951   4.116
12105W        W84530   5.529  18.531  12.614
12106W        W84531  29.617  15.125   4.792
12107W        W84532  12.863  36.316   3.723
12108W        W84533  15.178   2.957   3.783
12109W        W84534  31.002  44.782   4.491
12110W        W84535  18.793  24.759  13.321
12111W        W84536   2.207  21.381   9.860
12112W        W84537  21.071  21.530   2.642
12113W        W84538   6.244  15.466  14.034
12114W        W84539  16.148  42.832  11.678
12115W        W84540  23.555   7.462  10.935
12116W        W84541  36.935  31.583  14.476
12117W        W84542  44.402  23.772  11.166
12118W        W84543  23.021  12.401  11.723
12119W        W84544  14.680   0.560   0.067
12120W        W84545   0.839  13.152  13.293
12121W        W84546  17.087  34.222   0.369
12122W        W84547  27.169  41.919  11.157
12123W        W84548   4.959  31.732   2.274
12124W        W84549  36.421  20.677  11.987
12125W        W84550  39.142   3.243  13.957
12126W        W84551   4.400  38.011   2.245
12127W        W84552  42.951  16.339   3.052
12128W        W84553  26.814  14.660  11.945
12129W        W84554  32.930  35.805   3.092
12130W        W84555  18.326   3.186   0.765
12131W        W84556  10.934  28.246   2.790
12132W        W84557  36.881  19.706  13.897
12133W        W84558   0.333  18.539   3.975
12134W        W84559  41.878   9.618   0.712
12135W        W84560  26.574  42.609   3.693
12136W        W84561  16.705  31.187   2.890
12137W        W84562   7.661  25.658   2.784
12138W        W84563  40.128  16.683  11.275
12139W        W84564  32.971  43.285   3.369
12140W        W84565  21.446   7.764  11.544
12141W        W84566  12.679  40.442  12.921
12142W        W84567   0.414  11.335   4.441
12143W        W84568  32.344   4.364  13.567
12144W        W84569  40.756  17.816   0.419
12145W        W84570  38.686  27.619   1.603
12146W        W84571  18.713   2.568   5.182
12147W        W84572  31.096  26.131   3.788
12148W        W84573  12.271  29.301   1.276
12149W        W84574   5.196  29.447   1.812
12150W        W84575   4.209  13.200   1.608
12151W        W84576  36.352  26.602  13.381
12152W        W84577  30.034   1.452   2.585
12153W        W84578   7.235   0.920  13.119
12154W        W84579  17.882   4.125   0.478
12155W        W84580  38.187  30.168  12.127
12156W        W84581  36.290  22.759  11.086
12157W        W84582  27.631  18.612  12.993
12158W        W84583  29.346   9.779   4.769
12159W        W84584  29.512  38.275   0.394
12160W        W84585   8.154  10.878   1.372
12161W        W84586  23.306  27.822   0.502
12162W        W84587  26.153  35.505  13.769
12163W        W84588  10.627  14.612   0.700
12164W        W84589  33.836  33.449   9.950
12165W        W84590  14.969  23.867  12.982
12166W        W84591  44.031   9.588   0.330
12167W        W84592  21.111   0.178  14.936
12168W        W84593   3.406  35.400  14.938
12169W        W84594   0.020   3.324  14.769
12170W        W84595  40.995   1.308  11.590
12171W        W84596   6.841  35.850  10.977
12172W        W84597  13.888  13.563   4.313
12173W        W84598  34.288  32.584   2.517
12174W        W84599  41.792   8.825   0.229
12175W        W84600  34.431  15.683   2.836
12176W        W84601  30.484  32.590  13.476
12177W        W84602  25.423  18.594   4.695
12178W        W84603  28.058  29.484  11.992
12179W        W84604   1.463  27.151   1.628
12180W        W84605   1.332   5.609   3.745
12181W        W84606   6.493  30.026  11.630
12182W        W84607  21.420  10.507  12.105
12183W        W84608  22.235  36.478  12.181
12184W        W84609   0.707   3.983  11.082
12185W        W84610  23.246  15.343   0.836
12186W        W84611   0.351  16.526  14.028
12187W        W84612  10.756   5.773   0.708
12188W        W84613  28.712  29.510  13.869
12189W        W84614  16.170  35.840  10.818
12190W        W84615   2.317   4.501   2.840
12191W        W84616  29.767   7.768  14.038
12192W        W84617   6.325  20.745   3.193
12193W        W84618   8.446  23.621   9.982
12194W        W84619  39.272  44.529   2.739
12195W        W84620  30.591  44.040   4.044
12196W        W84621  25.734  42.924   2.658
12197W        W84622  27.120  15.492   2.871
12198W        W84623  22.925   2.886  11.222
12199W        W84624  30.039  15.857   3.322
12200W        W84625  20.753   2.867  12.105
12201W        W84626  26.036  41.237  12.660
12202W        W84627  15.300   3.629   3.229
12203W        W84628   8.283  39.092  11.917
12204W        W84629   2.879  35.536  13.006
12205W        W84630   0.031   2.366   0.230
12206W        W84631  28.400  34.620  14.023
12207W        W84632  22.939  33.960   4.193
12208W        W84633  32.882  43.880   2.621
12209W        W84634  31.380   3.729   4.294
12210W        W84635  31.629   3.856   0.957
12211W        W84636   8.946  33.462   0.706
12212W        W84637  32.061  13.935   4.486
12213W        W84638  24.382  33.003   4.187
12214W        W84639  24.462  14.804  10.755
12215W        W84640   4.697  29.958   4.855
12216W        W84641   2.431  30.651   2.215
12217W        W84642   3.479  22.814  13.990
12218W        W84643  39.431   8.341   3.697
12219W        W84644   7.495  35.165  13.378
12220W        W84645   7.009   8.777   0.813
12221W        W84646  34.905  33.388  14.729
12222W        W84647  44.097  12.098  14.736
12223W        W84648  32.217   0.715   1.292
12224W        W84649  44.934  24.187  10.607
12225W        W84650  39.077  16.037  11.192
12226W        W84651   6.249  38.883   2.232
12227W        W84652  20.843  18.029  14.337
12228W        W84653  28.510   4.760   1.883
12229W        W84654  20.536  44.289  14.995
12230W        W84655  35.147   0.486   4.141
12231W        W84656   3.475  20.296   4.937
12232W        W84657  43.749  38.784  10.528
12233W        W84658  42.303  34.341   1.236
12234W        W84659  41.548  30.966  12.127
12235W        W84660  36.049  24.973   3.164
12236W        W84661  20.819  37.379  12.481
12237W        W84662  26.616  27.180  13.763
12238W        W84663  31.321  23.167   2.950
12239W        W84664  14.770  34.188  14.060
12240W        W84665  19.542  28.931   3.285
12241W        W84666   4.538   6.229   3.999
12242W        W84667  18.088  26.527  13.964
12243W        W84668  18.081  42.386  11.557
12244W        W84669  11.700  25.683  13.964
12245W        W84670  26.531  36.563   1.886
12246W        W84671  10.577  38.503   2.908
12247W        W84672   1.287   3.636   4.802
12248W        W84673  30.658  27.167   4.280
12249W        W84674  29.799   0.727   0.949
12250W        W84675   2.295  11.277   0.948
12251W        W84676  25.756  18.513  14.933
12252W        W84677   0.321   5.604  13.326
12253W        W84678  21.501   6.116   3.639
12254W        W84679  10.556  14.768  13.914
12255W        W84680  25.527   0.805   2.292
12256W        W84681   8.279   4.499  14.302
12257W        W84682  15.827  16.824   3.246
12258W        W84683  18.284   1.699  11.078
12259W        W84684   9.575  44.282   4.153
12260W        W84685  18.812  36.490   4.070
12261W        W84686   5.619  29.494   1.478
12262W        W84687  42.058   2.635   2.913
12263W        W84688  38.030  13.052   0.471
12264W        W84689  41.773  18.720  14.442
12265W        W84690   7.153  35.322   1.668
12266W        W84691  30.595   0.244  11.708
12267W        W84692  30.943  12.348   0.708
12268W        W84693   8.983   4.784   2.401
12269W        W84694   3.374   9.876  11.884
12270W        W84695  24.041  19.781   4.568
12271W        W84696  43.019  15.793   4.268
12272W        W84697   6.103  36.509   2.848
12273W        W84698  38.348  41.503  10.626
12274W        W84699  25.947  38.917  11.587
12275W        W84700   2.685  32.132  12.048
12276W        W84701  11.133  39.119  13.496
12277W        W84702  32.424   2.578  10.918
12278W        W84703  25.268   9.753   1.647
12279W        W84704  23.489  39.587   0.369
12280W        W84705  33.112  23.023  10.666
12281W        W84706  14.762  24.497   0.925
12282W        W84707   8.588  42.670  12.498
12283W        W84708  34.662   5.922  13.867
12284W        W84709   9.121   6.958  14.877
12285W        W84710   4.769  15.958   4.460
12286W        W84711  18.669  40.381   3.890
12287W        W84712  40.011  41.465   3.744
12288W        W84713  34.122  14.287   0.075
12289W        W84714  23.966   4.139  14.938
12290W        W84715  26.517   2.325  13.404
12291W        W84716   8.663   6.188  13.967
12292W        W84717  17.748  33.776  10.104
12293W        W84718   2.784  26.395  14.275
12294W        W84719   1.299  19.091   4.667
12295W        W84720  19.359  40.894   0.085
12296W        W84721  38.789  26.007  11.553
12297W        W84722  30.903  25.039   0.032
12298W        W84723  41.706  22.685   1.841
12299W        W84724   4.204   0.853  10.717
12300W        W84725  39.030  17.397   4.528
12301W        W84726  19.020  18.376  13.488
12302W        W84727  33.409  34.984   5.070
12303W        W84728  23.081  37.651   3.697
12304W        W84729  33.518  29.844  10.404
12305W        W84730  43.493  28.897   0.265
12306W        W84731  15.325  35.403   3.117
12307W        W84732  27.142  41.899  12.148
12308W        W84733  16.577  25.241  11.561
12309W        W84734  19.341  14.703  12.141
12310W        W84735  25.896  24.094  10.615
12311W        W84736   8.468  19.333  10.583
12312W        W84737  41.301  37.600   5.037
12313W        W84738   5.218  32.337   4.807
12314W        W84739  33.010  21.934   0.891
12315W        W84740  42.270  44.466  11.431
12316W        W84741  41.160  12.232   3.206
12317W        W84742   6.314  21.238  10.792
12318W        W84743   6.446  43.999  12.915
12319W        W84744  25.235  31.595  11.222
12320W        W84745  19.026  25.839   1.424
12321W        W84746   6.972  43.247  13.540
12322W        W84747  12.310   2.043   0.726
12323W        W84748  21.619  36.694  14.639
12324W        W84749  17.889  24.164   1.274
12325W        W84750  43.898  39.812  14.852
12326W        W84751   0.224  33.643  12.506
12327W        W84752  16.101  26.450   2.580
12328W        W84753  23.270  27.126  11.134
12329W        W84754   4.348  42.896   0.011
12330W        W84755  42.051  30.399   2.165
12331W        W84756   7.036  22.590  12.095
12332W        W84757  10.117  37.358  10.628
12333W        W84758  34.827   6.261  14.275
12334W        W84759  37.279  19.580   2.871
12335W        W84760  26.114  31.953  11.992
12336W        W84761   8.587   5.801  10.648
12337W        W84762  40.873   0.951   2.339
12338W        W84763  41.949  17.177   2.098
12339W        W84764  21.458   8.405   4.146
12340W        W84765   3.692  40.048   1.416
12341W        W84766   6.164  31.837   2.726
12342W        W84767   8.971  43.351   0.844
12343W        W84768  23.751  15.863   4.416
12344W        W84769  24.215  25.478  13.573
12345W        W84770   7.341  44.118  13.070
12346W        W84771   0.261  21.924   4.122
12347W        W84772   1.975  20.604   1.750
12348W        W84773  31.445  42.043   2.589
12349W        W84774   6.399   4.259  13.982
12350W        W84775  36.055  13.240   2.651
12351W        W84776  25.199  34.048   1.826
12352W        W84777  16.498  39.902   2.940
12353W        W84778  24.223  16.732   3.198
12354W        W84779  36.973  40.590  12.458
12355W        W84780  16.341   0.999   1.829
12356W        W84781  43.987   3.383   0.359
12357W        W84782  38.058  34.681  13.390
12358W        W84783  43.526  32.869  13.428
12359W        W84784  20.138  34.754  13.119
12360W        W84785   6.077  15.596   3.727
12361W        W84786  14.322   6.435  12.971
12362W        W84787  13.828  42.090  11.920
12363W        W84788  21.055  21.655   0.339
12364W        W84789  10.016  42.749  14.668
12365W        W84790  38.468   8.732  10.856
12366W        W84791  14.048  21.445   5.098
12367W        W84792  33.009  10.370   4.944
12368W        W84793  31.056  33.166   3.592
12369W        W84794  33.969  30.700  13.026
12370W        W84795  18.786  17.240   3.958
12371W        W84796  38.752   7.681   1.004
12372W        W84797   8.955   5.289  13.315
12373W        W84798   0.488  23.284  14.765
12374W        W84799  34.489  35.023   3.144
12375W        W84800  13.161  10.784  11.005
12376W        W84801  33.667  41.703   0.962
12377W        W84802  29.658  39.080  12.418
12378W        W84803  10.574  18.997   3.265
12379W        W84804  33.998   9.353   2.937
12380W        W84805   8.871   8.357  13.443
12381W        W84806  35.651  22.833   0.845
12382W        W84807  14.163  19.160   1.299
12383W        W84808  40.542  27.736   3.627
12384W        W84809  19.665  32.361  13.510
12385W        W84810  41.853  44.075  13.431
12386W        W84811   0.174  16.072  13.881
12387W        W84812   7.564  34.559   5.433
12388W        W84813  15.702  23.912   3.871
12389W        W84814  40.699  17.188   5.134
12390W        W84815  30.727  14.616  11.191
12391W        W84816  42.683  29.745   0.170
12392W        W84817  32.844  14.737   1.077
12393W        W84818  14.869  44.307  10.151
12394W        W84819   6.692  37.122  13.793
12395W        W84820  17.070  42.810  12.143
12396W        W84821  26.317  16.359   1.782
12397W        W84822  42.905   0.724  11.958
12398W        W84823   1.642   8.171  13.578
12399W        W84824  23.019  25.620  14.329
12400W        W84825  42.467   4.746   0.893
12401W        W84826  36.405  32.260   1.848
12402W        W84827  22.280  41.314   0.372
12403W        W84828  41.835  16.294   3.146
12404W        W84829  10.167   8.956   1.892
12405W        W84830  17.059   8.794   3.661
12406W        W84831   9.877  11.014  13.397
12407W        W84832  40.272  30.739   0.761
12408W        W84833  11.382  39.095   3.857
12409W        W84834  44.657  42.486  12.005
12410W        W84835   3.531   5.952   1.476
12411W        W84836  30.077  44.216  13.608
12412W        W84837   8.864  28.143  12.933
12413W        W84838  12.636  15.020  13.319
12414W        W84839   2.905  30.536   0.684
12415W        W84840  25.220  17.802   3.637
12416W        W84841  36.030  25.919   4.797
12417W        W84842   4.944  11.260   4.251
12418W        W84843  10.964  24.611   0.939
12419W        W84844  40.811  13.539  11.921
12420W        W84845  24.911  35.792  11.601
12421W        W84846   1.440  27.331  11.759
12422W        W84847  39.548  29.071   4.390
12423W        W84848  23.307   9.962  14.365
12424W        W84849  17.986  44.319   3.309
12425W        W84850  28.304  16.065  11.530
12426W        W84851  10.866   5.624   9.942
12427W        W84852  31.403   2.477   2.970
12428W        W84853  30.248   9.031   2.483
12429W        W84854  40.812  29.385  12.900
12430W        W84855  23.190  25.077   4.513
12431W        W84856  31.452  43.151   4.161
12432W        W84857  25.207  36.898  13.392
12433W        W84858  12.330  36.668   2.327
12434W        W84859  32.420  40.797  11.413
12435W        W84860  42.280  37.002  12.464
12436W        W84861  31.518   6.627  11.188
12437W        W84862  31.857  33.679  11.933
12438W        W84863  44.039  41.023   1.745
12439W        W84864   7.626   1.361   1.728
12440W        W84865  14.489  18.078  11.349
12441W        W84866  15.255  41.905   1.090
12442W        W84867   1.337  23.667   1.522
12443W        W84868  16.160  39.744   2.114
12444W        W84869   7.926  31.143  14.237
12445W        W84870  13.053  43.011  14.521
12446W        W84871  22.926  26.476  14.953
12447W        W84872   5.009  21.167  12.178
12448W        W84873   5.704  38.097  13.846
12449W        W84874   5.702  22.663   3.728
12450W        W84875  12.700  16.651   3.272
12451W        W84876  27.239  34.029  14.494
12452W        W84877  17.606   0.455   2.370
12453W        W84878  16.538   7.345   1.755
12454W        W84879  42.509  33.836   0.358
12455W        W84880  16.595  27.599   2.102
12456W        W84881  24.497   9.226   0.299
12457W        W84882  14.673  10.296  11.919
12458W        W84883  21.190  34.998   1.740
12459W        W84884  35.549  11.229  11.460
12460W        W84885  34.705  22.047   2.649
12461W        W84886  30.313   7.145   2.591
12462W        W84887   1.259  37.422   4.653
12463W        W84888  40.508  11.289   3.964
12464W        W84889  11.320  41.554   3.907
12465W        W84890  30.060  31.506  12.693
12466W        W84891  27.880   4.742  13.958
12467W        W84892   0.355  21.611   4.532
12468W        W84893  44.448   2.448   4.738
12469W        W84894  31.595  32.178  13.977
12470W        W84895  43.406  26.469  12.890
12471W        W84896  12.526  44.940  12.187
12472W        W84897   6.114  37.616  12.016
12473W        W84898   3.674  35.001   4.687
12474W        W84899  11.734  11.631  13.826
12475W        W84900  42.405   9.236   2.700
12476W        W84901   2.659  22.140   4.231
12477W        W84902   2.973  22.653   3.200
12478W        W84903  36.815  42.521   2.842
12479W        W84904  22.064   0.318  12.614
12480W        W84905  20.763  10.387  14.276
12481W        W84906  29.351  30.908   5.437
12482W        W84907  28.532  25.407   1.917
12483W        W84908  37.358   0.049   2.245
12484W        W84909  19.183  25.295   1.413
12485W        W84910  32.349  30.360   2.092
12486W        W84911  33.974  13.856  10.819
12487W        W84912  17.026  17.969   3.830
12488W        W84913   9.138  16.767   1.300
12489W        W84914  12.565   9.463  11.722
12490W        W84915   9.977  21.022  11.518
12491W        W84916   4.211  13.632   4.342
12492W        W84917  40.454   8.150   0.010
12493W        W84918  10.872  18.012   0.656
12494W        W84919   7.356  16.783   2.321
12495W        W84920  16.678   8.215  12.852
12496W        W84921   9.272  44.911   1.412
12497W        W84922  10.228  41.030   2.613
12498W        W84923  21.121   2.317   5.300
12499W        W84924  10.337  14.732  13.445
12500W        W84925  43.910  41.936   2.732
12501W        W84926  28.044  34.982  12.833
12502W        W84927  12.630  37.309   3.940
12503W        W84928  16.201  27.444   2.865
12504W        W84929   0.458  18.805   0.009
12505W        W84930  12.224  13.968   1.285
12506W        W84931  17.740  27.007  14.832
12507W        W84932   2.822   4.648   4.033
12508W        W84933   0.322  15.581   0.202
12509W        W84934  14.439   0.149   0.306
12510W        W84935  19.830  41.123  10.466
12511W        W84936   2.901  12.957   1.083
12512W        W84937  13.714  25.167   5.434
12513W        W84938  20.703   5.746  13.844
12514W        W84939  25.534  23.443  11.152
12515W        W84940   1.893  31.752   2.771
12516W        W84941  29.372  34.785  11.554
12517W        W84942  43.004  12.451   4.184
12518W        W84943  23.790  16.719  14.284
12519W        W84944  16.267   3.071   4.512
12520W        W84945   0.469  28.367   2.112
12521W        W84946  17.600  37.788  11.109
12522W        W84947  19.671  11.141   3.886
12523W        W84948  38.454   5.718  12.426
12524W        W84949  13.711  23.817  10.290
12525W        W84950  29.577  41.368  14.184
12526W        W84951  35.863  11.442  13.408
12527W        W84952  24.573   1.476   0.401
12528W        W84953  12.686  11.720  14.903
12529W        W84954   2.195  39.692   2.384
12530W        W84955  17.293  19.156   4.359
12531W        W84956  16.353   1.755  12.163
12532W        W84957  29.658  15.304  13.973
12533W        W84958  35.731  44.164  11.601
12534W        W84959  29.117  30.033   3.282
12535W        W84960  18.120   2.734   0.898
12536W        W84961  11.454  31.838  11.545
12537W        W84962  25.573   3.353  14.356
12538W        W84963  18.285  29.082   4.887
12539W        W84964  19.068  32.939   4.149
12540W        W84965  34.004   3.996   4.666
12541W        W84966  22.189   6.631  13.034
12542W        W84967  40.950  26.010  10.680
12543W        W84968  35.150   0.634   2.684
12544W        W84969  39.974  41.548   1.863
12545W        W84970  29.942  26.234   0.958
12546W        W84971  10.875  43.059   0.945
12547W        W84972   0.062  23.365   2.478
12548W        W84973  24.665   8.625  11.063
12549W        W84974  13.772  32.052   0.261
12550W        W84975  44.611   2.154   1.038
12551W        W84976  35.533   3.791   1.322
12552W        W84977  39.441  10.254   4.910
12553W        W84978  21.185  42.615   1.352
12554W        W84979  37.829  36.993   0.638
12555W        W84980   6.678  44.607   1.330
12556W        W84981  12.312  42.904  11.226
12557W        W84982  42.428   4.417  13.871
12558W        W84983  28.137  25.988  14.287
12559W        W84984   5.758  41.273  11.565
12560W        W84985  30.427  20.186  11.400
12561W        W84986  27.409   3.368  10.666
12562W        W84987  39.024   4.912  12.561
12563W        W84988  36.417  36.713   2.642
12564W        W84989  20.100  14.081  13.918
12565W        W84990  11.936   8.404   9.912
12566W        W84991  12.599  33.419  10.803
12567W        W84992  31.631   2.781  13.516
12568W        W84993  10.684  28.706   1.827
12569W        W84994  19.496  42.721   3.558
12570W        W84995  30.030  10.446  13.082
12571W        W84996  42.658  38.743  13.963
12572W        W84997   9.760  38.460   2.479
12573W        W84998  19.654   1.324   4.369
12574W        W84999  28.714  27.199  13.401
12575W        W85000   4.682  43.049   4.703
12576W        W85001   5.158  42.413  11.268
12577W        W85002  29.653  19.469   5.011
12578W        W85003  29.383   5.246  11.524
12579W        W85004   0.295  29.740  14.450
12580W        W85005  25.111  34.628  14.262
12581W        W85006  20.191  40.330  13.068
12582W        W85007  31.379  33.073   3.202
12583W        W85008  13.843  42.457  12.668
12584W        W85009  20.620  37.836  14.763
12585W        W85010  27.604   5.060  14.294
12586W        W85011  27.290  13.184   2.301
12587W        W85012  15.817  29.580  10.355
12588W        W85013  40.449  29.019   2.446
12589W        W85014  37.112   5.590   3.728
12590W        W85015  17.255  11.762   1.486
12591W        W85016  31.172  13.120  14.364
12592W        W85017   7.730  21.005   3.212
12593W        W85018  18.040   1.088   0.527
12594W        W85019   4.323  17.619  12.812
12595W        W85020   3.944  23.116   4.449
12596W        W85021  21.715  36.769   3.702
12597W        W85022  21.503  34.072   2.048
12598W        W85023  42.542  28.513   2.332
12599W        W85024  44.566  15.845  14.717
12600W        W85025   4.855  21.027   0.925
12601W        W85026  41.924  30.895  12.933
12602W        W85027  36.188  22.543   3.341
12603W        W85028  40.178   9.319   4.176
12604W        W85029  11.431   2.871  11.663
12605W        W85030   7.011  32.335   3.325
12606W        W85031  24.475  35.356  11.635
12607W        W85032  23.927  36.845  13.084
12608W        W85033  23.110  14.577  14.538
12609W        W85034   2.034  27.602   0.572
12610W        W85035  41.828   7.288  14.287
12611W        W85036  33.981  27.560  14.962
12612W        W85037  17.244  42.279  10.991
12613W        W85038  35.327  21.827  12.762
12614W        W85039   4.784  23.707   4.543
12615W        W85040   6.158  38.419  13.000
12616W        W85041  44.256   6.539  14.670
12617W        W85042   9.699  17.838  14.378
12618W        W85043  16.683  32.825   0.441
12619W        W85044   7.144   0.358  11.684
12620W        W85045  31.623  32.554  11.981
12621W        W85046  12.099  23.176  10.152
12622W        W85047   9.880  14.555   4.523
12623W        W85048  39.354   2.926  11.962
12624W        W85049  15.183  26.523  10.757
12625W        W85050  22.203  31.427  12.023
12626W        W85051  39.483  29.523   0.911
12627W        W85052  27.689  39.890   2.751
12628W        W85053  28.918  36.535   1.823
12629W        W85054  20.191  25.673  13.568
12630W        W85055   0.484   6.865   0.545
12631W        W85056  24.455  22.460   2.681
12632W        W85057  29.975  13.862  13.908
12633W        W85058  34.916  31.498   2.765
12634W        W85059  21.092  21.204   0.668
12635W        W85060   2.168  42.938  13.513
12636W        W85061  33.821  26.200   3.955
12637W        W85062   6.247   8.938   1.300
12638W        W85063  29.101  28.147   1.035
12639W        W85064  28.516  44.772  12.559
12640W        W85065  22.183   7.963  14.083
12641W        W85066  19.622   7.589   2.987
12642W        W85067   4.664  31.092  12.405
12643W        W85068  34.198  10.170   0.246
12644W        W85069   3.753   1.761  11.170
12645W        W85070  33.031   5.417  13.568
12646W        W85071  27.741  32.959   0.856
12647W        W85072   0.821   6.155   3.595
12648W        W85073  33.901  42.446   0.684
12649W        W85074  33.107  35.798  13.408
12650W        W85075   1.842  30.550   2.628
12651W        W85076   9.343  44.494   4.748
12652W        W85077  24.495  31.516   1.831
12653W        W85078  19.280   0.204   5.060
12654W        W85079   1.926  30.602   2.119
12655W        W85080  33.244  27.664  12.428
12656W        W85081  29.476  26.690  10.669
12657W        W85082  34.108  19.686  10.768
12658W        W85083  11.124   0.357   0.430
12659W        W85084  15.111   4.192  11.590
12660W        W85085  28.933   9.302   3.522
12661W        W85086  39.808  40.108  11.060
12662W        W85087  43.820  37.491   2.367
12663W        W85088  21.223  10.605   4.592
12664W        W85089  30.355  19.908   2.746
12665W        W85090   4.387  19.682  13.599
12666W        W85091  28.927  44.489  10.704
12667W        W85092  31.103  38.419  13.887
12668W        W85093  36.198  41.892   2.682
12669W        W85094  32.322   9.404   4.125
12670W        W85095  30.958  25.528   4.404
12671W        W85096   0.845  38.161   1.394
12672W        W85097  15.365  17.142   2.646
12673W        W85098  28.185   3.323  13.052
12674W        W85099  28.185  22.551  13.451
12675W        W85100  44.495  12.385  14.922
12676W        W85101  35.862   5.265   1.944
12677W        W85102  42.789  29.670   1.691
12678W        W85103  12.050  11.596   4.223
12679W        W85104  33.421  18.606  14.895
12680W        W85105  17.876  44.576  10.632
12681W        W85106  22.288   3.678   0.503
12682W        W85107  18.620  34.915   3.669
12683W        W85108  26.058  42.069   4.722
12684W        W85109  32.303  28.169  14.859
12685W        W85110  29.430   8.193   3.665
12686W        W85111  17.367  42.451  14.439
12687W        W85112   8.426  41.478   0.430
12688W        W85113  41.736   6.805  13.293
12689W        W85114   2.753  25.339  14.469
12690W        W85115  37.122  31.062   1.243
12691W        W85116  28.966  11.753   2.920
12692W        W85117   7.213  40.792   3.202
12693W        W85118  40.021  18.598   2.759
12694W        W85119  30.981  21.158  12.569
12695W        W85120  21.961  32.979  10.677
12696W        W85121  43.960  15.573  13.338
12697W        W85122  15.197   8.764  11.503
12698W        W85123  30.238  39.472  14.115
12699W        W85124  14.366  15.085   3.774
12700W        W85125   2.184  13.548   0.827
12701W        W85126   8.152  10.217   2.723
12702W        W85127  30.591  36.453   0.502
12703W        W85128  38.452  22.568  10.333
12704W        W85129  23.745  42.746   2.713
12705W        W85130   0.666  40.913  12.382
12706W        W85131   5.081  20.147  12.522
12707W        W85132  25.009  31.364   3.046
12708W        W85133  11.709  22.070  11.374
12709W        W85134  20.650   4.665  13.909
12710W        W85135  11.244  24.710   4.534
12711W        W85136  36.478  25.837   9.903
12712W        W85137   7.623   8.833  11.269
12713W        W85138  26.901   8.723  10.505
12714W        W85139   7.358   7.214  12.417
12715W        W85140  13.688   0.791   3.178
12716W        W85141   7.494  20.080  11.066
12717W        W85142  41.121  31.146   3.649
12718W        W85143  25.125   4.503  11.052
12719W        W85144   5.173  38.026   4.355
12720W        W85145  17.345  16.639   0.419
12721W        W85146  20.771  19.738   4.720
12722W        W85147  30.661  38.615   2.707
12723W        W85148   7.520  37.353   1.258
12724W        W85149  15.677   9.297   0.856
12725W        W85150  42.272   0.907  11.557
12726W        W85151  28.379  16.784   4.907
12727W        W85152   8.987  26.258   1.633
12728W        W85153  44.805  13.934   3.210
12729W        W85154  33.182  13.679  11.134
12730W        W85155   7.330  44.827  11.638
12731W        W85156  16.821  16.090   1.791
12732W        W85157  23.096  26.166   4.669
12733W        W85158  22.401   2.008  12.554
12734W        W85159  11.583  19.358  12.176
12735W        W85160  44.038  12.395   3.240
12736W        W85161  23.236  35.564  12.098
12737W        W85162  37.455  36.930  14.800
12738W        W85163   6.651  28.403   1.283
12739W        W85164  22.199  12.671  13.339
12740W        W85165  43.512  23.931   3.097
12741W        W85166  39.068  42.781   0.351
12742W        W85167  44.457  35.438   4.269
12743W        W85168  18.834  34.399  11.483
12744W        W85169  23.482   6.852   0.348
12745W        W85170   0.230   8.911   2.844
12746W        W85171  35.540   1.487   2.709
12747W        W85172  10.882  30.247  14.289
12748W        W85173   2.039   5.695   1.356
12749W        W85174  23.133  24.894   1.862
12750W        W85175  13.741   0.318  14.861
12751W        W85176  27.557   0.853   1.863
12752W        W85177  13.578  14.854   2.830
12753W        W85178  42.312  44.732  12.576
12754W        W85179  16.097  20.974  13.157
12755W        W85180  15.790   4.416  14.304
12756W        W85181   3.522  28.006  13.900
12757W        W85182   0.495  31.710   4.602
12758W        W85183  20.033   4.675   1.737
12759W        W85184  15.309  38.454   1.160
12760W        W85185  14.601  10.590   5.110
12761W        W85186  29.643  14.933   2.473
12762W        W85187  26.214   9.201   1.596
12763W        W85188  20.525   2.255  14.421
12764W        W85189  40.303  21.081   0.665
12765W        W85190   7.150   2.301  13.436
12766W        W85191  30.863   1.784   3.921
12767W        W85192  44.440  29.635  11.134
12768W        W85193   8.749   2.778  12.532
12769W        W85194   8.251  34.956   1.053
12770W        W85195  35.423   7.165  12.736
12771W        W85196  37.029  38.665   3.820
12772W        W85197   2.598  39.899  13.578
12773W        W85198  29.242   3.220   4.042
12774W        W85199  30.056   7.443  13.094
12775W        W85200  42.764  34.141   1.748
12776W        W85201  34.577  41.872   0.270
12777W        W85202  19.661  30.724   4.824
12778W        W85203  15.915  12.535  11.669
12779W        W85204  13.172  26.100   3.931
12780W        W85205   6.157   3.465  14.704
12781W        W85206  22.249  30.523   2.756
12782W        W85207   7.180  22.054   2.977
12783W        W85208   6.401  36.593   4.221
12784W        W85209  18.076   5.709   0.784
12785W        W85210   8.409   6.549   9.820
12786W        W85211   3.078  12.432   0.474
12787W        W85212   6.228  20.010  13.396
12788W        W85213  22.635  15.961   1.762
12789W        W85214  16.256  21.836   3.485
12790W        W85215  32.976  22.656  14.426
12791W        W85216  13.665  16.402   3.021
12792W        W85217   9.148  21.649  12.479
12793W        W85218   7.808   1.181   0.339
12794W        W85219   6.486  15.142  14.807
12795W        W85220  42.369  22.287   2.367
12796W        W85221   9.708  35.098   4.663
12797W        W85222   3.940   7.384  12.889
12798W        W85223  44.372  33.618   3.197
12799W        W85224  35.330   2.427   4.161
12800W        W85225  11.845  20.511  13.639
12801W        W85226  44.283  34.316  14.006
12802W        W85227   9.776  40.423   0.029
12803W        W85228  29.771  30.517  13.485
12804W        W85229  14.040   1.573  11.530
12805W        W85230  15.203  15.254   1.827
12806W        W85231  18.655  38.471   4.422
12807W        W85232   0.398  30.927  11.673
12808W        W85233  31.425  44.925  14.898
12809W        W85234   0.477  43.539   0.964
12810W        W85235  14.722   2.209   2.490
12811W        W85236  24.183  37.553   0.801
12812W        W85237   0.801  31.630   0.832
12813W        W85238  29.437  39.968  10.459
12814W        W85239  36.371   4.400  13.591
12815W        W85240   7.683   6.271  12.344
12816W        W85241   3.426  12.151   4.193
12817W        W85242  42.425  42.338   4.316
12818W        W85243  31.186  36.369   3.577
12819W        W85244  26.136   9.286   4.455
12820W        W85245   4.685  13.756  12.308
12821W        W85246  42.722  27.977   0.682
12822W        W85247  18.570   2.264  13.421
12823W        W85248  29.464  33.126   0.833
12824W        W85249   6.539  26.153   0.729
12825W        W85250  20.275  16.203   0.800
12826W        W85251  13.721  22.078   4.820
12827W        W85252  28.781  32.169  11.116
12828W        W85253  35.457  36.604   1.389
12829W        W85254  37.576  32.579  14.485
12830W        W85255  37.413  22.651   2.753
12831W        W85256  24.492   2.396  13.438
12832W        W85257  22.998  17.141  14.235
12833W        W85258  26.411  16.662  12.130
12834W        W85259   0.731   9.429  10.840
12835W        W85260  40.496  44.483  13.803
12836W        W85261   4.809  20.533  12.714
12837W        W85262  43.988  16.900  10.426
12838W        W85263  40.364   0.831  14.389
12839W        W85264  27.208  38.828  10.723
12840W        W85265  35.982  33.497   4.749
12841W        W85266  36.593  39.463   0.701
12842W        W85267  19.543  24.267  14.529
12843W        W85268  14.534  29.693   2.369
12844W        W85269  19.848   9.003  11.929
12845W        W85270  21.511   1.778   2.321
12846W        W85271  40.535  28.026   0.209
12847W        W85272  29.957  20.674  12.156
12848W        W85273  17.594  28.541   4.749
12849W        W85274  39.535  21.664   2.722
12850W        W85275  16.181  26.184  14.022
12851W        W85276   4.256  18.717   1.444
12852W        W85277  32.318  40.843  14.494
12853W        W85278  12.719  17.298   1.382
12854W        W85279   1.654  14.863   0.853
12855W        W85280  20.329   5.404  10.616
12856W        W85281   0.476  12.418  11.911
12857W        W85282  26.084  41.017   3.133
12858W        W85283  38.417   6.426   2.054
12859W        W85284   9.864  33.939   0.310
12860W        W85285   8.330  37.410  12.604
12861W        W85286  15.388  29.020   0.967
12862W        W85287  35.512  40.830  11.050
12863W        W85288  24.522  10.213  14.059
12864W        W85289  35.354  24.416  12.825
12865W        W85290   9.303  41.761  13.343
12866W        W85291   5.193   3.896   4.500
12867W        W85292   3.927  32.051  10.780
12868W        W85293   5.961  40.310   4.243
12869W        W85294  44.343  33.007   0.270
12870W        W85295  31.977  27.743  12.968
12871W        W85296   6.210  17.916  10.143
12872W        W85297  33.177  34.670   2.067
12873W        W85298  15.168  10.237   1.887
12874W        W85299   6.885  21.069  13.403
12875W        W85300   9.226  13.386  11.941
12876W        W85301  38.569  24.747   5.429
12877W        W85302  18.084   9.320   2.803
12878W        W85303  12.500  31.494  10.696
12879W        W85304  36.749   8.858  10.387
12880W        W85305  10.115  17.656  13.484
12881W        W85306   3.290  44.055   4.253
12882W        W85307  29.528  41.071   0.503
12883W        W85308  34.143  26.664   3.782
12884W        W85309   5.212  16.173   1.349
12885W        W85310   3.264  22.496   4.995
12886W        W85311   8.121  20.040   3.298
12887W        W85312  22.895  42.083  13.070
12888W        W85313   4.360  30.731  11.101
12889W        W85314  28.084  30.869   4.592
12890W        W85315  39.108  35.623   1.707
12891W        W85316  35.424  42.461   2.207
12892W        W85317  12.845  12.166   2.749
12893W        W85318  37.000   0.471  12.424
12894W        W85319  32.580  35.737  13.360
12895W        W85320  23.086   4.785  13.351
12896W        W85321   9.272  37.007   5.445
12897W        W85322  32.622  29.081  13.856
12898W        W85323   7.231  14.805  12.913
12899W        W85324  36.472   2.425  14.923
12900W        W85325   4.171  40.868  10.464
12901W        W85326  11.981  34.310   2.276
12902W        W85327  21.245  19.531   1.431
12903W        W85328  12.671  33.369  12.096
12904W        W85329  24.760  40.562   4.648
12905W        W85330  16.048  33.047   0.811
12906W        W85331  34.395  29.166  12.538
12907W        W85332  29.064  37.003   3.206
12908W        W85333   3.941  21.701   2.138
12909W        W85334  22.197  10.583   2.819
12910W        W85335  12.678  42.481   4.877
12911W        W85336   6.437  18.204   3.705
12912W        W85337  12.188  44.313  11.451
12913W        W85338  14.108  27.071   0.027
12914W        W85339  28.018  19.006  12.376
12915W        W85340  20.623   2.975  13.439
12916W        W85341  43.948   6.684  12.384
12917W        W85342  15.618   4.747  11.117
12918W        W85343  35.458  20.803  14.323
12919W        W85344  21.321  39.934  10.616
12920W        W85345  14.094   2.846  13.297
12921W        W85346  18.226  27.123  12.714
12922W        W85347  37.143  12.758   4.668
12923W        W85348  37.947  18.298  11.182
12924W        W85349  35.584   5.638  11.109
12925W        W85350  43.334  10.786   0.884
12926W        W85351  18.578  41.249   0.524
12927W        W85352  22.738  32.117   0.455
12928W        W85353  44.943  15.899  14.342
12929W        W85354  36.887   9.912  11.069
12930W        W85355   1.546   9.054  13.255
12931W        W85356  11.124  23.391   2.306
12932W        W85357  19.797  22.419   0.847
12933W        W85358  28.390  24.577   3.332
12934W        W85359  33.258  44.710   3.116
12935W        W85360  22.923  10.909  10.260
12936W        W85361  33.036  17.731   2.836
12937W        W85362  37.898  40.843  10.706
12938W        W85363   6.292   5.162   1.287
12939W        W85364  32.102   4.662  13.053
12940W        W85365  17.628  39.781   1.986
12941W        W85366  31.087  12.713   2.196
12942W        W85367  12.278  34.892   1.957
12943W        W85368   0.179  44.031  13.909
12944W        W85369   8.663  20.327  13.922
12945W        W85370   2.483  15.969   3.882
12946W        W85371   0.249  22.560   3.515
12947W        W85372  44.123  12.091   2.829
12948W        W85373   9.396  12.865  12.862
12949W        W85374  25.799  21.643   3.361
12950W        W85375  37.777  16.804   0.961
12951W        W85376  16.086  39.579  11.208
12952W        W85377  44.049  30.593  11.220
12953W        W85378   7.984  16.683  13.984
12954W        W85379   3.943  32.942  11.706
12955W        W85380  40.072  32.488   1.184
12956W        W85381   4.160  26.031  11.989
12957W        W85382  38.079  29.597   1.337
12958W        W85383  35.465  34.558  10.604
12959W        W85384  10.571   7.458  10.403
12960W        W85385  37.502  17.151  13.800
12961W        W85386   4.770  29.243  13.436
12962W        W85387   9.820  23.740   1.181
12963W        W85388   1.714  33.609  12.965
12964W        W85389  44.041   2.324  11.608
12965W        W85390  40.353  40.725   3.340
12966W        W85391  19.300  26.711   0.858
12967W        W85392  32.355  27.363  13.916
12968W        W85393  26.602  12.254   3.774
12969W        W85394   2.077  41.702   1.323
12970W        W85395  22.660   5.923   9.931
12971W        W85396  35.385  21.322  12.855
12972W        W85397  16.287  33.400   2.342
12973W        W85398  41.429  28.986   2.786
12974W        W85399  35.408  28.246  14.283
12975W        W85400  24.983  31.382   1.791
12976W        W85401   7.880  37.704   5.416
12977W        W85402   0.284  40.477  10.615
12978W        W85403  10.933  32.535  12.128
12979W        W85404  31.401  20.501   1.795
12980W        W85405   6.921  24.697  14.738
12981W        W85406  38.094  19.717  12.476
12982W        W85407  38.696  35.022   0.518
12983W        W85408  14.313   5.016  14.183
12984W        W85409  18.562   3.270  11.666
12985W        W85410  43.250  35.825   0.487
12986W        W85411  38.085  28.482   4.723
12987W        W85412  14.737   6.855   4.704
12988W        W85413  15.232  44.206  14.095
12989W        W85414  38.450  11.395   4.899
12990W        W85415   1.161  10.769  11.339
12991W        W85416  30.133  12.634  11.119
12992W        W85417  23.429  21.546   0.006
12993W        W85418  21.225  22.097   2.290
12994W        W85419  26.643  42.860  14.874
12995W        W85420  40.808  35.742  13.095
12996W        W85421   5.834  34.927   1.759
12997W        W85422  11.783  18.407  11.969
12998W        W85423  27.045  16.812   0.805
12999W        W85424  12.370  28.964  13.946
13000W        W85425   5.898   1.182  11.982
13001W        W85426   8.269  43.963  10.313
13002W        W85427  43.552  44.368  10.004
13003W        W85428  13.353  33.952  14.886
13004W        W85429  24.107  10.757  12.170
13005W        W85430  21.810  44.831   2.367
13006W        W85431  41.994   0.113   4.759
13007W        W85432  35.798  13.003   1.399
13008W        W85433  30.578  26.521  14.847
13009W        W85434  22.995  12.157   0.903
13010W        W85435  43.212   6.823  13.866
13011W        W85436  17.653  30.185  13.013
13012W        W85437  29.608  18.066   0.978
13013W        W85438  41.077  38.336   0.893
13014W        W85439  27.799   5.890   4.141
13015W        W85440  29.640  13.120   1.078
13016W        W85441  28.574  40.089   2.253
13017W        W85442  17.030  29.560  11.209
13018W        W85443  13.066  20.370  12.103
13019W        W85444  41.789   2.154  13.413
13020W        W85445  36.022  36.980   2.426
13021W        W85446  15.761  19.417   2.258
13022W        W85447  18.790  22.729  10.529
13023W        W85448  37.542  44.970   4.862
13024W        W85449  44.406  12.815  13.481
13025W        W85450  29.715  13.046  13.892
13026W        W85451  14.926  22.265   3.848
13027W        W85452   0.010  42.857   0.422
13028W        W85453  15.366  21.550   2.296
13029W        W85454  18.733  22.995   3.709
13030W        W85455   9.380  31.130   3.105
13031W        W85456   9.100  29.124   3.956
13032W        W85457  31.483  36.333   3.161
13033W        W85458   7.407  14.242  14.136
13034W        W85459   5.830  17.722   0.145
13035W        W85460  35.464  41.538  13.300
13036W        W85461  37.030  24.524  11.112
13037W        W85462   9.698   9.920  10.496
13038W        W85463  11.343   7.960  10.891
13039W        W85464  41.364  12.000  14.511
13040W        W85465   7.062   9.418  10.314
13041W        W85466  37.300  23.897   2.244
13042W        W85467  23.967  17.062  10.941
13043W        W85468   3.509  33.593  14.738
13044W        W85469  33.938  34.145  12.567
13045W        W85470  22.155  28.390  14.898
13046W        W85471   4.386  40.572  11.947
13047W        W85472  39.836  22.543   3.649
13048W        W85473  29.961  27.898  11.356
13049W        W85474   4.797  42.114   3.706
13050W        W85475  24.339  43.835   0.348
13051W        W85476   5.026  35.442   2.676
13052W        W85477  33.141  42.114  10.515
13053W        W85478  37.022  33.869  14.880
13054W        W85479   5.132   7.762  14.894
13055W        W85480  24.054  17.042  11.661
13056W        W85481  12.286   2.144  10.674
13057W        W85482   0.057  32.011  11.180
13058W        W85483  27.886  24.583  13.072
13059W        W85484  42.972  26.744  12.909
13060W        W85485  32.253  16.253  14.406
13061W        W85486  14.367  38.091   0.325
13062W        W85487  24.941  14.730  13.534
13063W        W85488  11.301  21.741  10.271
13064W        W85489  36.979  15.844  12.975
13065W        W85490  25.158  44.895   2.651
13066W        W85491  15.870  15.673   3.852
13067W        W85492  31.048  42.865   4.243
13068W        W85493  30.123   2.229  14.865
13069W        W85494   2.057  25.454  13.881
13070W        W85495  40.542  17.470   4.088
13071W        W85496  40.483  14.605  10.870
13072W        W85497  44.747  32.798   3.106
13073W        W85498  34.953  30.350   0.441
13074W        W85499  19.346  19.298  13.511
13075W        W85500  13.763  26.955   3.313
13076W        W85501  33.119  31.621  13.977
13077W        W85502  22.975  31.916   4.183
13078W        W85503  19.652  26.425   1.727
13079W        W85504  26.025  29.073   4.348
13080W        W85505   1.380   0.560  14.284
13081W        W85506  41.956  18.440  11.864
13082W        W85507  19.458  30.508   0.027
13083W        W85508  37.840  14.306  12.279
13084W        W85509  22.306  33.434  11.505
13085W        W85510  41.893  37.606  11.133
13086W        W85511  38.288  23.608   0.933
13087W        W85512  28.714   2.854  12.580
13088W        W85513  25.674  17.873   2.935
13089W        W85514  12.928  41.227   0.898
13090W        W85515  33.389  29.946   4.405
13091W        W85516  37.040  20.347  14.408
13092W        W85517  39.442  18.856  14.298
13093W        W85518  37.618  20.588  12.989
13094W        W85519   7.722  28.278   1.206
13095W        W85520   8.704  10.848   1.303
13096W        W85521   6.320  27.680   4.855
13097W        W85522  21.983  35.885   4.540
13098W        W85523  29.613   6.380   3.096
13099W        W85524  16.681  18.625   1.935
13100W        W85525  32.007  42.305   0.449
13101W        W85526  16.784  37.007  12.148
13102W        W85527   8.377  16.304   3.715
13103W        W85528  33.188  23.708   0.254
13104W        W85529   2.249   4.738  12.575
13105W        W85530  12.398  18.459   0.376
13106W        W85531  43.569  15.721  11.664
13107W        W85532   2.492  16.566  11.490
13108W        W85533  34.107   6.765  11.710
13109W        W85534  35.859  25.540  12.840
13110W        W85535  18.092  17.756   0.978
13111W        W85536  26.802   5.817   1.721
13112W        W85537   3.391  41.688   4.576
13113W        W85538   5.261  16.095  13.721
13114W        W85539  21.456  32.601  13.864
13115W        W85540  15.618  22.980   3.347
13116W        W85541  23.531   2.720   1.751
13117W        W85542  26.588  33.448  12.134
13118W        W85543  39.404  23.228   0.219
13119W        W85544  18.810  28.133  12.124
13120W        W85545  29.812  13.820  11.627
13121W        W85546  22.634  37.485  11.557
13122W        W85547  41.089  21.176  11.924
13123W        W85548  28.730   4.471  11.217
13124W        W85549  30.612   9.280   4.884
13125W        W85550  34.233  25.908   3.153
13126W        W85551  36.920   6.853  14.405
13127W        W85552  13.098  26.067   1.263
13128W        W85553  42.804  18.269   4.980
13129W        W85554   6.827   6.194  10.515
13130W        W85555  23.683  36.887   2.258
13131W        W85556  19.634  12.308   0.438
13132W        W85557  35.527   5.829  13.015
13133W        W85558  19.281   2.970  10.684
13134W        W85559  31.575  29.939   0.501
13135W        W85560  24.893  22.076  12.400
13136W        W85561   2.787  20.260   2.187
13137W        W85562   0.763  44.503  14.886
13138W        W85563  41.369  26.383   1.860
13139W        W85564   2.568  39.505   2.793
13140W        W85565  30.073  24.178  13.597
13141W        W85566  44.699  22.045  14.358
13142W        W85567  10.453   0.002  11.782
13143W        W85568  21.185  36.800   0.917
13144W        W85569  42.486  18.616  10.608
13145W        W85570  16.436  38.377   3.626
13146W        W85571  12.842  16.988   0.425
13147W        W85572  15.163  15.418   1.348
13148W        W85573  39.611  32.331   1.361
13149W        W85574  35.271  42.518   0.607
13150W        W85575  34.018  25.983  12.153
13151W        W85576  29.297  17.905  11.456
13152W        W85577  10.722  29.067   2.191
13153W        W85578  24.327  36.082   1.854
13154W        W85579  43.366   5.930  13.863
13155W        W85580  25.011  15.360  12.855
13156W        W85581  30.889  19.189  12.516
13157W        W85582  20.062  14.136   1.793
13158W        W85583  32.200  18.298   0.818
13159W        W85584   4.903  20.733   1.834
13160W        W85585  37.769  27.945   3.074
13161W        W85586   9.245  39.288  11.198
13162W        W85587  16.626  36.618  10.684
13163W        W85588  12.885  12.171   1.891
13164W        W85589   2.457   1.398   1.862
13165W        W85590  34.148  13.525   3.685
13166W        W85591  32.865  33.417  12.006
13167W        W85592  44.484  39.786  10.666
13168W        W85593  10.645   3.570   2.914
13169W        W85594  24.175  15.714  12.400
13170W        W85595  19.087  44.069   0.366
13171W        W85596   4.764  20.725   4.341
13172W        W85597  37.610   4.453   2.108
13173W        W85598  27.658  24.061   1.894
13174W        W85599  35.315  31.702  10.739
13175W        W85600   0.833  30.680  11.587
13176W        W85601   7.834  28.439   2.862
13177W        W85602   6.183  19.645   1.249
13178W        W85603  34.319   9.785  14.906
13179W        W85604   6.971  28.572  13.923
13180W        W85605  31.484   4.328  13.469
13181W        W85606  25.563  37.274   0.798
13182W        W85607   1.126  30.314  13.821
13183W        W85608  16.190  25.173  11.918
13184W        W85609   2.393  14.166   1.494
13185W        W85610   0.113  35.787   1.269
13186W        W85611  22.066  26.167   2.916
13187W        W85612  12.671   9.869   3.236
13188W        W85613  14.255  25.143   2.583
13189W        W85614  42.978   8.904  13.198
13190W        W85615  22.170   6.319   1.625
13191W        W85616  26.986  21.327   4.616
13192W        W85617  41.253  26.689  14.921
13193W        W85618  11.237  43.853  14.539
13194W        W85619   9.468  23.199  12.632
13195W        W85620  17.369  41.681  10.934
13196W        W85621  39.247  22.680   0.256
13197W        W85622  16.600  23.751  12.011
13198W        W85623   9.143  29.036   3.275
13199W        W85624   9.442   8.805  11.960
13200W        W85625  35.000  35.939   3.232
13201W        W85626  29.917   8.466  12.172
13202W        W85627  18.093  36.074   3.638
13203W        W85628  25.475   7.964   1.681
13204W        W85629  26.234   8.912  11.588
13205W        W85630   8.934   3.200  11.374
13206W        W85631  18.079  18.367  14.510
13207W        W85632  28.639   6.965  13.434
13208W        W85633  20.528  35.061   4.422
13209W        W85634   1.855  13.311  11.227
13210W        W85635   7.917  31.033   4.639
13211W        W85636   0.714  42.141  11.035
13212W        W85637   4.873   3.512   0.924
13213W        W85638  43.356   2.925   2.300
13214W        W85639  43.047  43.555   1.926
13215W        W85640  21.265  29.055   0.793
13216W        W85641   1.161  42.364   1.675
13217W        W85642   2.500  28.120   1.964
13218W        W85643  28.481  29.888   1.135
13219W        W85644  14.971  25.280   4.737
13220W        W85645  43.123  16.268   0.750
13221W        W85646   8.351   7.867   1.488
13222W        W85647   3.491   2.043   4.270
13223W        W85648  31.401   2.129  14.451
13224W        W85649  29.775  32.826  10.924
13225W        W85650   3.295  43.246   2.845
13226W        W85651  13.335   8.712  10.701
13227W        W85652  39.807  23.601   4.540
13228W        W85653  35.058   1.478   0.454
13229W        W85654   0.881   3.258  11.661
13230W        W85655  29.101   5.358   1.294
13231W        W85656   5.037  38.673  11.095
13232W        W85657  38.580  18.022   0.725
13233W        W85658  14.329  29.710   3.281
13234W        W85659  25.983   0.883  14.395
13235W        W85660   0.871   1.981   2.718
13236W        W85661   0.354   8.766  11.571
13237W        W85662   4.247  44.961  13.848
13238W        W85663  44.333  31.835  13.898
13239W        W85664  37.481  17.836   3.367
13240W        W85665  41.541  14.069   1.438
13241W        W85666  12.738  36.941  10.919
13242W        W85667  38.916   8.319  10.396
13243W        W85668  37.444  25.678   0.082
13244W        W85669  13.550  33.493  13.412
13245W        W85670  25.546  38.718  13.807
13246W        W85671   6.375  35.888   3.692
13247W        W85672  33.605  42.733  14.318
13248W        W85673  41.251   8.717  12.397
13249W        W85674  20.959  26.619   3.115
13250W        W85675  22.997  38.419  13.545
13251W        W85676  18.070  28.729  12.566
13252W        W85677   1.277   6.295   3.340
13253W        W85678  13.610   6.630   1.761
13254W        W85679  40.701  11.933   5.046
13255W        W85680  21.988  37.209  11.009
13256W        W85681  13.633  21.948  12.905
13257W        W85682   5.513  40.814  13.930
13258W        W85683  22.195  20.749  14.824
13259W        W85684   1.960   5.608  12.516
13260W        W85685  17.143   5.740   1.233
13261W        W85686   5.645  33.051   4.423
13262W        W85687   7.093  16.472   1.260
13263W        W85688  16.240  16.499   3.756
13264W        W85689  23.041  22.096  13.127
13265W        W85690  21.019  24.261   3.260
13266W        W85691  41.208  26.538  12.442
13267W        W85692  29.625  41.932  14.909
13268W        W85693   5.693  19.330  13.331
13269W        W85694  27.515   4.266   0.210
13270W        W85695  12.720  18.081  14.339
13271W        W85696  34.304  25.659   4.105
13272W        W85697   3.191  44.320   3.830
13273W        W85698  28.054  12.811   1.708
13274W        W85699  26.230  29.492   3.313
13275W        W85700  30.644  40.876   2.883
13276W        W85701  20.610  43.976  14.597
13277W        W85702  44.375   7.405  12.413
13278W        W85703   6.814   0.252   0.257
13279W        W85704  27.391  44.381  11.195
13280W        W85705  10.942   2.001  13.568
13281W        W85706  39.543  44.396  10.699
13282W        W85707  29.240  25.497  13.005
13283W        W85708  42.598  24.200  14.852
13284W        W85709  38.057  42.287   2.363
13285W        W85710  26.679  20.279   1.681
13286W        W85711  23.617   4.549  14.844
13287W        W85712  35.220  29.035   0.240
13288W        W85713  35.113  15.271  10.595
13289W        W85714  23.192  32.499   4.081
13290W        W85715  33.879  23.834  14.732
13291W        W85716  37.607  19.211  10.690
13292W        W85717   0.988   6.167  12.898
13293W        W85718   2.651  18.103   1.933
13294W        W85719  32.491  44.405  14.078
13295W        W85720   4.733  22.837   1.524
13296W        W85721  32.531  33.962  14.941
13297W        W85722  36.242   1.238   0.884
13298W        W85723   4.796  44.987   4.633
13299W        W85724  26.513  14.290  13.442
13300W        W85725   6.789  41.913  10.704
13301W        W85726  23.927  34.999  12.008
13302W        W85727  20.333  16.705   2.312
13303W        W85728  14.193  21.060  14.423
13304W        W85729  20.473   3.270  13.040
13305W        W85730  41.838  18.111   0.530
13306W        W85731  30.411  41.895   3.163
13307W        W85732  43.401  20.085   3.226
13308W        W85733  13.712  39.046   2.032
13309W        W85734   8.143  30.546  11.538
13310W        W85735  12.773   3.833   2.862
13311W        W85736  16.089   8.227   2.143
13312W        W85737  17.532  28.236   2.683
13313W        W85738  37.498  41.842  14.916
13314W        W85739  16.318  23.526  14.817
13315W        W85740   0.699  33.893  12.567
13316W        W85741  42.626  40.294  11.134
13317W        W85742  13.408  35.340   3.303
13318W        W85743  25.616  29.645   0.461
13319W        W85744  30.317  29.576   3.847
13320W        W85745   3.512   7.409  13.832
13321W        W85746  17.919   7.001  13.421
13322W        W85747  43.790   8.744   4.552
13323W        W85748  19.192  21.526  12.039
13324W        W85749  10.298  40.798   0.885
13325W        W85750  27.631  13.193   2.675
13326W        W85751  11.274   7.682   0.139
13327W        W85752  10.754   0.334  12.793
13328W        W85753  22.452  39.282  11.202
13329W        W85754   0.321  38.077  12.871
13330W        W85755   5.760  21.684   0.210
13331W        W85756  16.025  24.171  12.437
13332W        W85757  13.526  25.176   1.445
13333W        W85758  22.637  33.495   3.398
13334W        W85759  18.218   9.622   3.245
13335W        W85760  21.333   6.443  13.356
13336W        W85761  14.062  34.509  14.477
13337W        W85762  21.189  29.673  11.568
13338W        W85763  33.307  11.457  10.093
13339W        W85764  42.905  17.311  14.344
13340W        W85765  12.749  18.096   1.735
13341W        W85766  34.843  27.963  14.041
13342W        W85767  36.406   0.176   2.194
13343W        W85768  42.662  31.298   4.136
13344W        W85769  16.228  14.800  14.515
13345W        W85770  22.473  13.118  13.341
13346W        W85771   8.622  40.878   1.475
13347W        W85772  36.452  17.136   1.832
13348W        W85773  38.089  40.442   1.946
13349W        W85774   6.430  37.205   1.398
13350W        W85775  16.403  22.091   1.789
13351W        W85776  11.640   6.723  10.458
13352W        W85777  15.017  24.200  10.883
13353W        W85778  37.472  27.206  12.533
13354W        W85779  13.499  44.972  14.510
13355W        W85780  29.413  37.832   2.917
13356W        W85781   6.223  25.797   3.242
13357W        W85782  39.839  21.011  13.374
13358W        W85783  13.964   9.189   5.347
13359W        W85784  41.974  35.761  14.251
13360W        W85785  39.270   2.021  11.046
13361W        W85786  22.023  13.203  11.981
13362W        W85787  32.523   8.929   4.135
13363W        W85788   9.187  16.067  12.828
13364W        W85789  20.708   8.443  14.002
13365W        W85790   7.295   2.019  12.556
13366W        W85791  31.187  28.719   0.472
13367W        W85792  44.458  27.881  12.875
13368W        W85793   7.696  36.365  13.849
13369W        W85794  39.538  14.660  14.319
13370W        W85795  43.515  15.085   2.323
13371W        W85796  29.992   6.923  12.135
13372W        W85797  33.443   7.968  12.081
13373W        W85798   4.208  17.072   2.203
13374W        W85799  15.507   4.102   0.837
13375W        W85800  17.972   6.420   2.920
13376W        W85801   5.403   0.082   2.446
13377W        W85802  10.252  13.231   3.144
13378W        W85803  24.659   4.351  13.947
13379W        W85804   7.103  14.336  14.552
13380W        W85805  34.161  19.016  13.840
13381W        W85806  13.153   6.858   1.741
13382W        W85807   6.422  30.901   0.588
13383W        W85808  36.301  30.909  14.412
13384W        W85809  15.737  42.329   4.139
13385W        W85810  34.023  12.360  12.105
13386W        W85811  10.946   7.426  11.504
13387W        W85812  40.972   5.968  12.169
13388W        W85813  30.644   3.692  14.941
13389W        W85814   8.624  15.881   1.303
13390W        W85815  12.714  44.747  10.397
13391W        W85816  14.856  44.888   4.925
13392W        W85817  15.554  21.035   5.170
13393W        W85818  20.653  16.132  12.041
13394W        W85819   6.729  43.401   4.604
13395W        W85820  29.650   3.917  12.442
13396W        W85821  15.220   5.136   1.726
13397W        W85822   4.350   4.624   4.504
13398W        W85823   8.242  40.632   2.842
13399W        W85824  35.553  10.736   3.674
13400W        W85825   2.518  10.817   0.316
13401W        W85826  13.607   9.377  12.939
13402W        W85827   8.686   1.887  13.899
13403W        W85828  41.413  34.409   1.272
13404W        W85829  12.902  34.366  12.329
13405W        W85830   8.473   3.425  11.300
13406W        W85831  16.240  31.496   4.613
13407W        W85832   8.627  19.110   2.252
13408W        W85833  30.185  44.255   0.711
13409W        W85834  24.973  23.795   1.441
13410W        W85835  35.791  16.506   1.713
13411W        W85836  24.442  32.996   1.630
13412W        W85837  14.503  44.517   5.058
13413W        W85838  15.258  39.039  11.051
13414W        W85839  30.898  21.494   0.897
13415W        W85840   0.703  18.501  14.033
13416W        W85841  41.745   5.598  13.039
13417W        W85842  23.179  14.684  13.038
13418W        W85843  13.707  21.261  11.890
13419W        W85844  14.586  30.962  12.158
13420W        W85845  40.985  10.084  10.325
13421W        W85846  20.658   0.018  11.470
13422W        W85847  21.454  29.137  14.924
13423W        W85848  11.409  41.113  10.391
13424W        W85849  13.198  10.922  14.715
13425W        W85850  23.892   7.798  11.506
13426W        W85851   5.746   6.882   0.166
13427W        W85852  18.606  44.538   5.221
13428W        W85853   4.961   4.458   1.355
13429W        W85854  17.833  39.295  12.661
13430W        W85855   2.313  23.764   2.739
13431W        W85856   3.227  38.621   3.831
13432W        W85857  27.475  20.519  14.359
13433W        W85858  43.525   1.245   4.908
13434W        W85859  23.742  23.126   2.713
13435W        W85860  38.992  40.971   2.595
13436W        W85861  36.941   3.739  13.892
13437W        W85862  34.462  42.581   2.257
13438W        W85863  41.329  28.931  11.227
13439W        W85864  34.355   7.173   2.814
13440W        W85865   9.891  28.460   4.326
13441W        W85866  27.016  29.956  11.643
13442W        W85867  42.795  21.123   2.963
13443W        W85868  29.441  36.414   3.232
13444W        W85869  19.067  16.828   0.871
13445W        W85870   3.514  23.305  13.818
13446W        W85871  26.113  30.224   5.132
13447W        W85872  23.684  22.683  11.141
13448W        W85873  40.305  12.734   4.213
13449W        W85874   8.970  22.557  11.577
13450W        W85875  20.155  24.722  14.994
13451W        W85876  40.404  10.677   2.404
13452W        W85877  40.578  26.153   3.628
13453W        W85878   7.295  16.294   3.211
13454W        W85879   4.695  15.862  14.218
13455W        W85880  28.302  14.546  13.932
13456W        W85881  34.192  23.688   0.126
13457W        W85882  44.482  38.496  11.998
13458W        W85883  14.865  14.214   5.226
13459W        W85884  12.732  34.025  12.669
13460W        W85885  17.539  22.464  13.992
13461W        W85886   2.465  33.369   4.946
13462W        W85887  23.174  44.801  13.435
13463W        W85888  39.867  39.579   0.477
13464W        W85889   1.088  23.947   4.079
13465W        W85890  31.791  35.661  13.933
13466W        W85891  43.771  41.907  14.449
13467W        W85892   3.444   2.514   0.844
13468W        W85893   5.733  18.914  13.625
13469W        W85894   2.088  21.942  12.677
13470W        W85895  10.009  35.512   4.610
13471W        W85896  34.935  31.841  14.186
13472W        W85897  43.356  34.333   4.082
13473W        W85898  10.684  19.860   2.209
13474W        W85899   9.629  13.295   1.380
13475W        W85900  13.640  41.533   4.111
13476W        W85901   5.991  23.599  14.337
13477W        W85902  40.096  37.785  10.691
13478W        W85903  25.534   7.671  11.132
13479W        W85904   3.676  43.313  13.281
13480W        W85905  42.101  32.393   0.836
13481W        W85906   9.801  27.972  12.523
13482W        W85907  41.567  30.871  14.371
13483W        W85908  30.570  16.312   1.295
13484W        W85909  43.548  23.101   1.335
13485W        W85910  27.828  34.367  14.940
13486W        W85911   1.279   8.353  12.326
13487W        W85912   8.109  33.847   3.158
13488W        W85913  37.874  16.600   4.773
13489W        W85914  33.547  10.832   0.905
13490W        W85915  42.849  37.808   3.715
13491W        W85916  42.911  31.982  11.745
13492W        W85917  38.744  27.458  10.269
13493W        W85918  32.500  28.211   4.160
13494W        W85919  43.466  38.594  13.614
13495W        W85920  23.471  23.368   1.410
13496W        W85921   2.547   4.894   2.245
13497W        W85922   1.823  34.238   4.098
13498W        W85923   2.083  31.501  14.770
13499W        W85924  28.265  33.622   3.058
13500W        W85925  43.796   7.731   3.141
13501W        W85926   5.140  36.924   1.925
13502W        W85927   1.429  22.778  10.955
13503W        W85928  23.634  11.144   2.214
13504W        W85929   9.406  30.272  12.507
13505W        W85930  32.960  26.584  14.930
13506W        W85931  40.935  14.357  11.600
13507W        W85932  29.347  38.432  10.634
13508W        W85933  31.465  31.397   4.612
13509W        W85934  14.266   9.312   1.920
13510W        W85935  18.819  27.594   1.089
13511W        W85936  33.523  14.396  12.198
13512W        W85937  22.277  35.388  13.838
13513W        W85938  21.192   1.212   4.684
13514W        W85939  37.624  32.366  11.642
13515W        W85940  38.796   3.463   0.895
13516W        W85941   5.256   7.745  11.282
13517W        W85942  43.760  40.598   0.417
13518W        W85943  20.718  31.995   9.929
13519W        W85944  24.707  23.627  14.895
13520W        W85945   0.711  40.690  14.619
13521W        W85946  21.086  39.132  11.543
13522W        W85947  14.853  15.253  12.452
13523W        W85948  16.608   8.209   2.838
13524W        W85949  21.748  12.199   3.155
13525W        W85950  37.777  29.595  13.548
13526W        W85951   7.034  30.123  14.976
13527W        W85952  36.553  24.181  12.625
13528W        W85953  20.709  43.744  12.162
13529W        W85954  43.205  18.983  14.081
13530W        W85955  19.544  28.822   2.343
13531W        W85956  17.128  42.816  10.797
13532W        W85957  26.181  40.764   0.261
13533W        W85958  42.326  31.016   0.017
13534W        W85959  39.945   0.771   2.753
13535W        W85960  31.409  22.786  11.617
13536W        W85961   7.834  31.790  14.817
13537W        W85962  34.604  30.632  12.330
13538W        W85963  17.747   1.228   3.183
13539W        W85964  30.947  11.639  13.397
13540W        W85965  20.238  37.096   1.273
13541W        W85966   5.896  28.339   2.463
13542W        W85967  33.726  39.722  14.045
13543W        W85968  24.974  35.071  13.393
13544W        W85969  29.096  16.185   3.898
13545W        W85970  25.475   1.748   3.392
13546W        W85971  24.177  17.084  12.954
13547W        W85972  27.717  28.450  14.003
13548W        W85973   2.877   0.852   1.396
13549W        W85974   3.785  44.953   4.359
13550W        W85975  31.621  19.505  11.583
13551W        W85976   6.196  30.528   2.284
13552W        W85977  36.063   0.755   2.543
13553W        W85978  32.647  12.351  13.834
13554W        W85979  41.710  40.901  13.630
13555W        W85980  34.438  10.764  12.827
13556W        W85981   3.037   6.691   1.384
13557W        W85982   5.154  13.077  12.719
13558W        W85983  12.190  20.250  11.945
13559W        W85984  22.943  23.193   2.235
13560W        W85985  34.548  29.970   2.763
13561W        W85986  37.791  43.738  10.563
13562W        W85987  13.848   4.599  13.527
13563W        W85988   5.813  18.764   3.553
13564W        W85989   5.334  11.122   1.586
13565W        W85990  17.071  16.131  11.568
13566W        W85991  37.916   6.008   4.203
13567W        W85992  35.536   5.181   3.779
13568W        W85993  13.571  14.070  14.414
13569W        W85994  28.471  36.442   2.760
13570W        W85995  37.572   2.957  11.149
13571W        W85996  34.623   2.342  14.462
13572W        W85997  39.791  40.507  13.858
13573W        W85998  28.016  21.416  11.397
13574W        W85999  25.679  34.102  12.505
13575W        W86000  37.629  12.699   4.549
13576W        W86001   6.820  15.363   2.881
13577W        W86002   7.435   5.458   0.712
13578W        W86003  41.353  37.207  10.473
13579W        W86004  33.536   3.253   4.141
13580W        W86005  43.530  30.591  11.239
13581W        W86006  35.336  21.112   1.898
13582W        W86007  25.214  23.398  14.318
13583W        W86008  17.787   2.372   4.642
13584W        W86009  36.543  15.166  10.656
13585W        W86010  25.125  27.796   1.515
13586W        W86011   2.299   0.342  12.373
13587W        W86012  30.969  24.990   0.534
13588W        W86013  38.424  26.591   5.147
13589W        W86014  18.690  24.050   1.704
13590W        W86015  40.713   8.744  13.302
13591W        W86016  12.289   3.807   4.412
13592W        W86017  23.418  20.980  14.266
13593W        W86018  29.973  31.843  13.558
13594W        W86019  30.812  26.430   5.042
13595W        W86020   9.535  18.675  13.834
13596W        W86021  44.732  24.540  14.324
13597W        W86022   3.539  20.972  11.060
13598W        W86023  44.644  12.569  13.023
13599W        W86024   9.373  18.187  13.775
13600W        W86025  15.876  23.444   4.054
13601W        W86026  28.631   4.177  14.305
13602W        W86027  28.622   1.316   1.229
13603W        W86028  15.928  32.497   3.682
13604W        W86029  30.969   4.278  13.480
13605W        W86030  26.274   1.314   4.783
13606W        W86031  38.224  38.154  12.511
13607W        W86032   8.595  32.487  13.035
13608W        W86033  27.321  10.400   4.140
13609W        W86034  10.455   1.764   0.812
13610W        W86035  15.769  22.094   4.176
13611W        W86036  40.932  44.269   0.499
13612W        W86037  23.705  32.160  11.190
13613W        W86038   0.220  19.983  13.517
13614W        W86039  21.446  11.671   2.287
13615W        W86040  31.948   3.480   1.831
13616W        W86041   6.993  22.849  13.415
13617W        W86042   1.391  26.960  13.977
13618W        W86043  11.743  13.769  12.161
13619W        W86044  41.271   9.318  11.246
13620W        W86045   1.330   2.473  13.044
13621W        W86046  16.850   9.498   0.285
13622W        W86047  35.980   6.221   4.043
13623W        W86048   7.783   2.374  12.402
13624W        W86049  44.019  23.252   3.255
13625W        W86050  13.525  27.778   3.900
13626W        W86051  19.176   9.804   3.637
13627W        W86052  14.064  25.054  13.874
13628W        W86053  34.593  36.014   0.401
13629W        W86054  31.601  39.923   2.653
13630W        W86055  40.555  30.219  12.577
13631W        W86056  15.234  26.118  11.684
13632W        W86057  40.838  28.407   0.402
13633W        W86058  34.429   4.700  12.862
13634W        W86059   5.217  37.505  11.561
13635W        W86060   4.410  35.020   3.705
13636W        W86061  30.624  29.624   2.864
13637W        W86062   4.752   1.564  12.111
13638W        W86063  38.919  20.885  14.253
13639W        W86064  18.117  44.102  11.456
13640W        W86065  24.903  29.597   0.427
13641W        W86066   4.837  36.461  12.974
13642W        W86067   2.888   4.179  10.714
13643W        W86068   9.583   5.274   4.136
13644W        W86069   0.986   6.741   0.509
13645W        W86070  13.648  14.530  10.721
13646W        W86071   9.297  22.378  13.622
13647W        W86072   4.209   6.234  13.965
13648W        W86073  29.579  28.505   2.302
13649W        W86074  12.895  11.955   0.630
13650W        W86075  25.528  14.580   2.642
13651W        W86076  33.347  38.585   1.800
13652W        W86077  38.929   0.929   2.721
13653W        W86078  42.396  29.063  12.917
13654W        W86079  39.744  11.098   2.298
13655W        W86080  39.377   1.218  13.881
13656W        W86081  32.939  28.085  13.407
13657W        W86082  30.870  24.476   0.374
13658W        W86083   3.432  30.232   3.311
13659W        W86084  14.026   6.244  13.335
13660W        W86085  31.661  35.347   4.810
13661W        W86086  36.640  20.858  11.403
13662W        W86087  30.555  29.416   1.982
13663W        W86088  23.867  26.861   4.484
13664W        W86089  18.211   2.024   4.208
13665W        W86090  27.566  36.768   1.359
13666W        W86091  32.600  33.398  12.466
13667W        W86092  15.745   2.933  13.912
13668W        W86093  18.556  10.314  13.158
13669W        W86094   2.897   8.584   2.363
13670W        W86095  14.670  26.959   1.754
13671W        W86096  39.410  19.631   3.632
13672W        W86097  44.519  30.800   2.764
13673W        W86098   6.173  44.994  12.467
13674W        W86099   6.937  37.581  10.236
13675W        W86100  17.122  39.650   4.177
13676W        W86101  41.338  24.911   2.727
13677W        W86102  10.696  28.996   4.535
13678W        W86103  37.320  32.382   1.224
13679W        W86104  12.713   0.506  13.689
13680W        W86105  38.017  36.031  14.537
13681W        W86106  28.948  39.182   0.374
13682W        W86107  18.925   2.952  14.427
13683W        W86108  31.335   0.919   0.876
13684W        W86109  20.120  13.334  11.854
13685W        W86110  33.800   1.397   3.416
13686W        W86111   5.591  36.625   2.719
13687W        W86112  44.314  42.022   5.054
13688W        W86113  30.765   1.002  14.443
13689W        W86114   4.312  35.953   3.142
13690W        W86115  12.343  13.621   0.278
13691W        W86116  16.171  43.068   1.430
13692W        W86117  21.557  27.581  14.932
13693W        W86118  43.019  21.614  14.877
13694W        W86119   7.419   2.031   2.365
13695W        W86120   8.477  43.756  11.820
13696W        W86121  37.338   5.804  11.434
13697W        W86122  14.457  20.140  13.518
13698W        W86123  36.993  12.934  13.338
13699W        W86124  44.222  19.742   2.116
13700W        W86125  13.378   9.689   1.919
13701W        W86126  44.501   9.806   4.654
13702W        W86127  29.982   8.882   2.920
13703W        W86128   9.739   0.224   0.696
13704W        W86129  20.466  11.129   1.726
13705W        W86130  33.139  42.408  11.234
13706W        W86131  43.437  34.446   0.910
13707W        W86132  15.287   5.291   1.213
13708W        W86133  12.121  33.968   3.143
13709W        W86134  11.161  36.370  13.575
13710W        W86135   0.377  24.103   4.297
13711W        W86136  40.996   1.188   1.307
13712W        W86137   0.111   2.434   2.363
13713W        W86138  31.559  19.708  13.150
13714W        W86139   5.419  30.943  11.160
13715W        W86140   0.457  31.075   0.191
13716W        W86141  12.616   3.411  14.473
13717W        W86142  43.007  40.313  11.996
13718W        W86143   4.733  35.732   0.105
13719W        W86144  36.996  37.065  14.397
13720W        W86145  37.260  26.675   2.274
13721W        W86146  32.135   1.120  14.576
13722W        W86147   0.701  17.662   0.279
13723W        W86148  11.656  43.994   0.533
13724W        W86149  40.182  35.967   4.615
13725W        W86150   4.141  12.318   1.501
13726W        W86151  33.625  16.692  14.843
13727W        W86152  19.817  10.638  14.796
13728W        W86153  17.555  19.651  10.978
13729W        W86154  44.898   1.255   4.743
13730W        W86155  10.188  10.699   1.274
13731W        W86156  27.535  18.792   0.889
13732W        W86157  30.426  28.209  14.076
13733W        W86158  17.755  39.884   1.412
13734W        W86159  27.493   6.284   0.676
13735W        W86160  10.747  22.809   4.317
13736W        W86161  37.572  12.155   3.585
13737W        W86162  24.669  44.133   3.040
13738W        W86163  17.662  38.998  14.530
13739W        W86164  24.765   3.063   4.183
13740W        W86165  41.323   1.026   0.934
13741W        W86166  20.465  11.316  13.694
13742W        W86167  21.731   6.594  12.060
13743W        W86168  24.736   4.543  10.592
13744W        W86169  41.413  14.340   0.476
13745W        W86170  26.109  26.689   3.432
13746W        W86171   1.318  32.286  12.883
13747W        W86172  29.747   1.707  14.012
13748W        W86173  34.741  10.230   5.172
13749W        W86174  13.836  13.803  14.025
13750W        W86175  24.938  10.354   1.435
13751W        W86176  26.870  32.095   1.759
13752W        W86177  40.835  37.708   4.510
13753W        W86178  29.118  20.153   3.973
13754W        W86179  12.621  17.603   4.470
13755W        W86180  30.183  30.901   5.107
13756W        W86181  35.322  17.808  14.366
13757W        W86182  20.068  30.906   4.495
13758W        W86183  18.523  35.442   1.467
13759W        W86184   5.615  18.221  14.446
13760W        W86185  15.888  22.610  14.922
13761W        W86186  37.597  12.411  12.639
13762W        W86187  12.593  34.982  11.721
13763W        W86188   6.297  10.587   3.127
13764W        W86189  33.005  29.648  12.364
13765W        W86190  28.374  28.567   3.197
13766W        W86191  23.144  16.954  11.506
13767W        W86192   4.855   2.995   0.880
13768W        W86193   1.465  20.301  11.185
13769W        W86194  38.480  10.668  14.281
13770W        W86195   7.422   9.529   2.099
13771W        W86196  26.918   0.041   4.300
13772W        W86197  17.097  10.889   3.143
13773W        W86198  38.596  44.054   1.251
13774W        W86199  41.087   3.801  13.815
13775W        W86200  44.283   7.631   4.432
13776W        W86201  21.865  33.247   0.722
13777W        W86202  31.582  28.217   4.244
13778W        W86203  18.785   3.811  13.508
13779W        W86204  36.213  29.394  12.418
13780W        W86205  33.554  43.711   4.704
13781W        W86206  10.906  22.042  14.372
13782W        W86207  43.662  30.422  13.510
13783W        W86208   7.794  17.269  10.266
13784W        W86209  34.488   9.833  10.492
13785W        W86210  39.648   9.126   4.138
13786W        W86211  40.219   4.866   0.080
13787W        W86212   0.317   6.397   2.783
13788W        W86213  16.821  27.487   0.338
13789W        W86214  31.659  20.732   4.611
13790W        W86215  21.499  44.050  14.377
13791W        W86216  35.459  44.271  11.177
13792W        W86217  44.640  32.451   0.998
13793W        W86218  13.767  28.656   4.073
13794W        W86219  10.028   3.895  14.990
13795W        W86220  31.573  39.558   0.346
13796W        W86221  22.555  34.017   4.571
13797W        W86222  35.867  27.632  11.083
13798W        W86223  14.271   1.866   1.936
13799W        W86224  23.584  29.733   4.501
13800W        W86225   9.346   9.184   5.542
13801W        W86226  10.148  18.214   4.764
13802W        W86227  15.789   5.271   1.385
13803W        W86228  21.137  35.338  14.475
13804W        W86229  26.793  41.425   4.220
13805W        W86230   2.821  17.612  11.522
13806W        W86231  28.492  29.673  14.875
13807W        W86232   5.558  34.487   1.992
13808W        W86233  33.454  39.871   3.049
13809W        W86234  11.965  15.738  13.264
13810W        W86235  26.518  12.830   3.212
13811W        W86236  35.970  36.361   0.681
13812W        W86237  32.500  41.871  14.468
13813W        W86238  40.008  10.652  12.562
13814W        W86239  21.471  20.545  12.028
13815W        W86240  17.979   2.173   3.722
13816W        W86241   8.846  37.105   4.651
13817W        W86242   2.740  21.972   1.388
13818W        W86243  40.738  22.019   4.236
13819W        W86244  39.968  33.482   3.371
13820W        W86245  10.066   4.012  12.926
13821W        W86246  10.188   0.462  14.958
13822W        W86247  28.892  26.593  11.031
13823W        W86248  34.971  15.006  13.862
13824W        W86249  23.624  12.061   4.300
13825W        W86250  38.738  22.557   0.342
13826W        W86251  14.732  40.668  10.331
13827W        W86252  30.345   6.506  10.944
13828W        W86253  11.671   0.229  10.853
13829W        W86254  35.212  33.633  12.429
13830W        W86255  41.854  21.418   1.524
13831W        W86256  12.013  27.614  11.303
13832W        W86257  37.929   8.203   1.754
13833W        W86258  23.080  11.089   0.593
13834W        W86259  13.899   3.918   3.687
13835W        W86260   9.693  11.811  14.932
13836W        W86261  36.448  23.377   4.978
13837W        W86262  38.763  27.831   2.316
13838W        W86263  27.487  12.907  13.684
13839W        W86264  40.478  25.681  10.521
13840W        W86265  24.499  13.777  11.683
13841W        W86266  14.846  20.794   0.243
13842W        W86267   1.796  24.001  11.662
13843W        W86268  43.808  15.271  11.625
13844W        W86269  21.794  38.296   2.817
13845W        W86270   3.279  27.565   1.617
13846W        W86271  15.833  31.180  13.888
13847W        W86272  38.110  32.171   2.382
13848W        W86273  40.941  43.804  14.550
13849W        W86274  23.215   1.859   1.886
13850W        W86275  14.038  12.219  14.367
13851W        W86276  10.631  18.789  12.324
13852W        W86277  34.247  26.392   3.027
13853W        W86278   7.637  19.147  12.456
13854W        W86279  11.812  30.485   3.743
13855W        W86280  27.613  10.302   4.690
13856W        W86281  20.755  29.027  10.611
13857W        W86282  31.193  43.806  14.396
13858W        W86283  41.163  44.921  14.057
13859W        W86284  41.359   5.698   2.764
13860W        W86285  12.268   6.395  12.837
13861W        W86286  44.908   5.135  10.679
13862W        W86287   8.048  44.563   4.947
13863W        W86288  26.161  25.050  14.722
13864W        W86289  13.971  14.812  14.045
13865W        W86290  31.178  29.411   3.340
13866W        W86291   0.945   0.766   4.673
13867W        W86292   7.355  35.134  10.259
13868W        W86293  29.941  31.686  14.471
13869W        W86294  14.289   0.027   2.657
13870W        W86295  36.223   9.125   0.719
13871W        W86296  42.923   7.966  13.454
13872W        W86297  32.379  33.924   4.106
13873W        W86298  33.017  37.429  13.098
13874W        W86299  20.133  29.402   2.967
13875W        W86300  24.025  25.702   0.313
13876W        W86301  36.605  16.664   3.595
13877W        W86302  36.056  30.472  10.664
13878W        W86303  41.276   8.876   2.287
13879W        W86304  26.013  25.471  13.318
13880W        W86305  29.470  35.395  13.925
13881W        W86306   4.571   6.292  14.883
13882W        W86307  28.081  11.369  11.945
13883W        W86308  40.229  38.445   3.395
13884W        W86309  23.676  14.779   3.593
13885W        W86310  36.477  35.598   1.259
13886W        W86311  37.051  37.922  11.612
13887W        W86312  12.633  38.742  10.735
13888W        W86313  32.357   6.438  11.152
13889W        W86314  16.749  36.059   2.172
13890W        W86315  32.387  18.510   9.746
13891W        W86316  25.987   4.426   2.412
13892W        W86317  42.319  43.303   3.498
13893W        W86318  38.942  12.625  12.372
13894W        W86319  33.934  14.223   2.419
13895W        W86320  39.227  31.953   0.864
13896W        W86321  19.020   0.430  11.525
13897W        W86322  24.106  36.866   1.211
13898W        W86323  31.470  12.020   4.395
13899W        W86324  28.780   7.946   2.735
13900W        W86325  20.764  39.857   4.601
13901W        W86326  30.491  24.531  13.552
13902W        W86327  37.320  22.665  14.571
13903W        W86328   2.360  42.535   0.702
13904W        W86329  44.969  37.107   2.684
13905W        W86330  20.731  23.727  14.750
13906W        W86331   6.336   8.887   9.951
13907W        W86332  39.430  13.940  13.715
13908W        W86333   3.400   4.224  14.653
13909W        W86334   3.944  26.525  13.057
13910W        W86335   0.731   5.966   1.084
13911W        W86336  31.488   9.694   1.883
13912W        W86337   2.778  29.447  14.970
13913W        W86338   2.806  20.027   0.795
13914W        W86339  14.377   3.209  10.804
13915W        W86340  11.651  13.853   2.908
13916W        W86341  36.505  13.071  10.513
13917W        W86342  28.048  15.797  13.012
13918W        W86343  21.668  17.291  10.623
13919W        W86344   3.642  14.298   3.832
13920W        W86345  29.574   0.249   0.265
13921W        W86346  16.312  22.093  12.920
13922W        W86347  26.593  30.143  11.395
13923W        W86348  24.163  12.301   2.539
13924W        W86349  43.299  24.973  12.930
13925W        W86350  15.293  30.851  13.268
13926W        W86351   7.392  42.493  14.473
13927W        W86352   8.885  41.196   4.159
13928W        W86353  32.623  39.047  13.362
13929W        W86354   0.351  17.289   2.270
13930W        W86355  44.718   1.638  13.016
13931W        W86356  29.951  39.155  13.803
13932W        W86357   2.909  20.842   2.798
13933W        W86358  21.033  13.227   1.194
13934W        W86359  23.932  38.413   4.690
13935W        W86360  39.401   2.890  10.659
13936W        W86361  26.102  15.562  11.077
13937W        W86362   4.706  21.995  14.331
13938W        W86363  38.433  24.963   0.966
13939W        W86364  35.365  12.413   0.127
13940W        W86365  41.319  27.395   0.791
13941W        W86366  10.252  30.470  10.522
13942W        W86367  44.514  37.344  11.308
13943W        W86368  41.973  19.598   2.729
13944W        W86369   2.282   6.880  12.040
13945W        W86370  18.802  31.722   1.475
13946W        W86371  36.598  41.364   1.960
13947W        W86372  41.634  43.068  12.551
13948W        W86373  31.665  22.216   4.195
13949W        W86374   6.817   2.299   0.741
13950W        W86375  14.831   2.789  12.829
13951W        W86376  17.151  32.885   3.237
13952W        W86377   5.696  37.169  11.567
13953W        W86378  41.256  42.431   3.353
13954W        W86379  16.228   0.392   0.739
13955W        W86380  32.566  19.943  12.305
13956W        W86381  44.120  15.294  14.228
13957W        W86382  20.679   8.752   4.544
13958W        W86383  20.212  33.033   1.440
13959W        W86384  43.454   0.901   4.519
13960W        W86385  10.374  39.543  10.402
13961W        W86386  15.758  35.210   1.524
13962W        W86387  38.682  15.634   4.581
13963W        W86388   5.382  39.799   2.549
13964W        W86389  13.137   9.342  12.758
13965W        W86390  16.146   6.054  14.251
13966W        W86391  29.940  38.990   1.598
13967W        W86392  36.992  30.216  11.192
13968W        W86393   6.379   0.804   3.607
13969W        W86394  22.940   7.333  14.852
13970W        W86395  21.747  19.591  12.461
13971W        W86396  11.736  39.758   0.778
13972W        W86397  12.675  40.400  11.496
13973W        W86398   3.501  10.580   3.120
13974W        W86399  29.511  33.867  11.439
13975W        W86400  33.521  36.312  10.245
13976W        W86401  21.285   4.199  10.765
13977W        W86402  35.532  26.252  10.194
13978W        W86403  35.148  38.860  11.620
13979W        W86404  43.394  28.300  10.407
13980W        W86405   9.201   2.354   0.985
13981W        W86406  22.560  44.358   1.325
13982W        W86407  21.259   3.677   1.902
13983W        W86408  38.475  19.240  13.934
13984W        W86409   9.683   8.883  14.193
13985W        W86410   0.206  38.896   2.098
13986W        W86411  40.541  41.746  14.860
13987W        W86412   7.411  24.433  11.655
13988W        W86413  37.009  10.617  11.636
13989W        W86414  13.720  44.876  10.781
13990W        W86415  29.362  22.752   2.203
13991W        W86416   5.651  38.255  12.975
13992W        W86417   3.159  20.804  12.366
13993W        W86418  20.430  27.969   1.194
13994W        W86419  43.798  26.064   2.597
13995W        W86420  16.254  42.773   1.858
13996W        W86421  20.754  35.892  11.514
13997W        W86422  41.355  34.128  12.042
13998W        W86423   5.980  35.407   2.903
13999W        W86424  44.889  25.025  14.408
14000W        W86425  23.587   2.386  10.815
14001W        W86426  16.040  19.633  12.079
14002W        W86427  20.277  40.046  14.527
14003W        W86428   6.838   4.235  12.916
14004W        W86429  39.584  23.859  11.158
14005W        W86430  38.289  29.898  10.699
14006W        W86431  29.495  16.002  12.905
14007W        W86432   8.742  37.104  14.253
14008W        W86433  25.727   3.145   0.190
14009W        W86434  24.728  26.312   3.372
14010W        W86435   8.770  24.142  11.632
14011W        W86436  11.037  12.307   0.049
14012W        W86437  39.062  24.331   4.775
14013W        W86438  35.560  32.188  11.645
14014W        W86439  25.605   5.204   1.110
14015W        W86440  34.540   1.274  10.962
14016W        W86441  33.442  13.923   4.679
14017W        W86442  10.369   0.042  14.714
14018W        W86443   7.282   3.434   3.382
14019W        W86444   1.540  43.480   4.492
14020W        W86445  19.779  32.859  14.843
14021W        W86446  36.320   7.713   3.260
14022W        W86447  25.819   8.749   1.517
14023W        W86448  40.130   0.053  10.754
14024W        W86449  34.802  14.377   4.221
14025W        W86450  10.238  23.171  11.509
14026W        W86451   5.648  31.092  12.126
14027W        W86452  18.760  36.264   3.205
14028W        W86453  21.569   0.332   2.387
14029W        W86454  30.047  19.357   4.630
14030W        W86455  19.243  34.423  13.745
14031W        W86456  29.096  11.561   1.937
14032W        W86457  15.609  44.028  10.852
14033W        W86458   6.784  43.430   0.498
14034W        W86459  29.632  35.877  13.848
14035W        W86460  16.002  23.475  10.710
14036W        W86461   4.423  10.123   3.794
14037W        W86462  22.227  32.399  13.053
14038W        W86463   2.197   2.723  14.914
14039W        W86464  35.596  38.826   2.676
14040W        W86465  33.766   8.278   3.205
14041W        W86466  41.441  25.497   2.425
14042W        W86467  42.284  24.658   0.966
14043W        W86468  31.405  22.281   0.495
14044W        W86469   4.784   6.148  13.027
14045W        W86470  24.520  38.046  14.257
14046W        W86471  38.617  32.945   1.835
14047W        W86472   6.061  36.994   2.131
14048W        W86473  17.283  16.116  12.593
14049W        W86474  41.803  23.955  13.286
14050W        W86475  40.591  36.880   2.720
14051W        W86476   3.257  10.115  13.051
14052W        W86477  25.135  22.076  10.628
14053W        W86478  28.560  30.855   0.927
14054W        W86479  23.042  31.096   4.659
14055W        W86480  38.516  22.553  12.442
14056W        W86481  19.493   6.749  14.742
14057W        W86482  42.303  15.399  14.132
14058W        W86483   0.663   1.323   2.992
14059W        W86484  43.987  21.677  10.634
14060W        W86485  30.795  22.827   3.614
14061W        W86486  23.461  37.411   3.960
14062W        W86487  27.634  27.521   4.164
14063W        W86488   5.152  40.616   0.969
14064W        W86489   5.431   5.280   1.160
14065W        W86490  34.143  42.755  11.667
14066W        W86491  29.356   4.815   0.369
14067W        W86492  28.575  14.831  12.055
14068W        W86493  41.520   6.314   3.617
14069W        W86494  41.851  37.607   3.182
14070W        W86495   6.246   3.002  10.762
14071W        W86496  23.616   6.951  12.107
14072W        W86497  41.667   3.829   4.332
14073W        W86498  38.481  11.918   0.673
14074W        W86499  20.579  38.171  14.373
14075W        W86500  33.935  22.364   4.371
14076W        W86501  35.424  26.268   2.369
14077W        W86502  35.581  28.580   1.475
14078W        W86503   2.160  35.647   4.146
14079W        W86504  18.002  35.078  11.671
14080W        W86505  31.677  21.655  13.601
14081W        W86506  37.133   9.211   4.849
14082W        W86507  14.679  21.755  11.988
14083W        W86508  10.606  41.291  13.935
14084W        W86509  34.801  34.995   1.676
14085W        W86510  19.129  13.344   2.028
14086W        W86511  31.959  35.854  11.642
14087W        W86512  42.477  38.818  11.087
14088W        W86513  27.045  23.011  11.744
14089W        W86514  35.039  17.821   4.143
14090W        W86515  37.928   4.478   0.803
14091W        W86516  41.684  18.866  11.584
14092W        W86517  28.118  28.479   1.468
14093W        W86518  11.070  39.643  13.521
14094W        W86519  35.182  44.439   1.496
14095W        W86520  34.028  31.684  12.982
14096W        W86521  37.232  28.552  11.369
14097W        W86522  44.216  31.019  13.048
14098W        W86523  23.509  31.171  12.378
14099W        W86524  38.910   5.821  10.526
14100W        W86525  22.229  16.147  13.581
14101W        W86526  24.201  17.275   3.931
14102W        W86527  31.832  38.252   0.934
14103W        W86528  15.155  34.314  10.664
14104W        W86529   5.746   3.557   0.856
14105W        W86530  10.591  25.333   1.404
14106W        W86531  19.193  29.782  11.864
14107W        W86532  30.673  16.376   5.192
14108W        W86533  11.626  25.018   2.806
14109W        W86534   8.114  30.665   1.324
14110W        W86535  17.816  10.423   4.084
14111W        W86536  17.990   3.407   3.395
14112W        W86537  10.563   8.185   1.503
14113W        W86538   1.525  39.838  11.551
14114W        W86539  43.279  24.664  14.218
14115W        W86540  26.153  18.597   3.172
14116W        W86541   2.698  26.068   2.481
14117W        W86542  43.493  32.936  14.508
14118W        W86543  15.273  10.240   4.606
14119W        W86544  23.506  27.238  13.029
14120W        W86545   8.191   1.405   4.793
14121W        W86546  41.099  19.542  13.629
14122W        W86547  30.012  43.228  10.905
14123W        W86548  24.741  21.071  11.015
14124W        W86549   2.376   3.194  11.458
14125W        W86550   1.018   2.393  11.351
14126W        W86551   9.893  20.356   0.387
14127W        W86552   9.552  17.369  14.981
14128W        W86553  16.615  18.250   4.635
14129W        W86554   7.858   5.298   3.631
14130W        W86555  22.752  22.268  10.345
14131W        W86556  25.419  39.035   0.783
14132W        W86557  38.463  33.280  13.577
14133W        W86558  33.475  28.562   2.305
14134W        W86559  43.706  32.004   3.385
14135W        W86560  28.964  12.761  14.564
14136W        W86561  13.254  25.291   2.290
14137W        W86562   4.042  12.857  11.644
14138W        W86563  21.119  19.049  12.889
14139W        W86564  15.665  14.558   5.046
14140W        W86565   0.656  15.108   1.440
14141W        W86566   4.276   6.145   4.435
14142W        W86567   9.793  29.915  13.378
14143W        W86568   4.526  16.782   2.920
14144W        W86569  14.412  32.416   3.766
14145W        W86570  10.561  21.555   2.777
14146W        W86571   5.811  11.449   2.375
14147W        W86572  22.282  25.755   2.338
14148W        W86573  14.859  26.543  11.435
14149W        W86574  33.796  20.679  10.879
14150W        W86575  40.070   3.602   1.684
14151W        W86576  20.539  24.698   1.796
14152W        W86577  28.300   8.455  14.836
14153W        W86578  18.598  26.505   4.577
14154W        W86579  20.586  21.718   2.618
14155W        W86580  39.333  24.160  10.765
14156W        W86581  41.830  36.368   1.070
14157W        W86582  19.025   5.677   3.239
14158W        W86583  17.604  27.200  12.354
14159W        W86584  43.606  27.878  11.796
14160W        W86585  37.129  21.301  14.745
14161W        W86586   4.571  27.982   2.859
14162W        W86587   7.804  33.124  14.522
14163W        W86588  31.633   1.358   0.919
14164W        W86589  36.997   8.909  11.221
14165W        W86590  26.419   4.133   2.320
14166W        W86591  43.297  40.863   2.210
14167W        W86592   5.620  18.728  11.213
14168W        W86593  24.702  15.092  12.036
14169W        W86594  13.045  23.573  14.391
14170W        W86595  10.802  41.414  14.748
14171W        W86596  37.363  19.682  10.759
14172W        W86597  23.780  19.327   0.536
14173W        W86598  43.496  23.563   3.916
14174W        W86599   8.403   0.249  14.374
14175W        W86600  18.785   0.399   5.018
14176W        W86601   4.062  11.313   2.900
14177W        W86602  43.606   8.780  12.572
14178W        W86603  40.190  22.034   0.778
14179W        W86604  14.347  14.329  12.496
14180W        W86605  10.828  26.542  11.504
14181W        W86606  31.840  39.447  12.069
14182W        W86607  40.468  30.685  13.898
14183W        W86608   1.791  43.810  11.383
14184W        W86609  43.395   1.956  10.642
14185W        W86610  32.119  10.211  11.448
14186W        W86611  40.249  42.558   3.028
14187W        W86612  21.610  41.013   1.700
14188W        W86613  20.326   5.620  14.340
14189W        W86614  39.806   8.605  12.340
14190W        W86615  18.825   6.190  11.767
14191W        W86616  34.953  23.167   2.639
14192W        W86617  28.934   7.956  12.822
14193W        W86618  28.555  32.194   2.954
14194W        W86619  25.491  37.064  14.835
14195W        W86620  41.039  35.933   4.091
14196W        W86621  18.580  10.196  11.661
14197W        W86622  33.102   5.859  12.493
14198W        W86623  34.153  34.904   3.883
14199W        W86624  44.355  37.411  12.324
14200W        W86625   6.810   4.268  12.011
14201W        W86626  29.528  16.598   3.211
14202W        W86627   9.116  36.484   3.321
14203W        W86628  38.309   2.222   1.857
14204W        W86629  22.731  15.299   2.818
14205W        W86630  43.563  43.762  14.805
14206W        W86631  24.979   0.768  11.446
14207W        W86632  14.219  12.177  13.893
14208W        W86633  20.959  33.043  14.046
14209W        W86634  35.390  41.012   4.641
14210W        W86635  18.014  43.172   1.711
14211W        W86636  13.383  10.995   1.751
14212W        W86637  18.519  26.399   1.793
14213W        W86638  14.465  43.009  12.538
14214W        W86639  22.986   1.627   2.300
14215W        W86640  33.312   6.698   4.638
14216W        W86641  18.234  17.378   3.243
14217W        W86642  23.810   2.816  11.552
14218W        W86643  11.296  20.474   3.137
14219W        W86644  32.995  40.312  13.846
14220W        W86645  11.917  29.000   0.425
14221W        W86646  12.146  39.488  11.560
14222W        W86647  19.240   9.964  13.919
14223W        W86648  33.723  20.169   2.971
14224W        W86649  16.215  10.757   2.993
14225W        W86650  33.585  27.020  10.356
14226W        W86651   1.423   2.274  14.808
14227W        W86652  13.413  24.394  14.720
14228W        W86653  28.537   1.353  12.479
14229W        W86654  14.881  10.792   3.108
14230W        W86655  11.218   5.275   3.791
14231W        W86656  13.909   7.773   1.552
14232W        W86657   7.791   2.212   1.909
14233W        W86658  23.692  28.875   1.976
14234W        W86659  13.659  35.633   2.708
14235W        W86660  26.322  33.062   9.936
14236W        W86661  43.452   3.295  11.492
14237W        W86662   9.427  27.645   0.307
14238W        W86663  34.115   7.441  12.504
14239W        W86664   5.378  30.608   1.758
14240W        W86665  20.622  34.663   3.606
14241W        W86666  41.062  16.972  12.302
14242W        W86667   2.997   9.055  14.512
14243W        W86668  40.716  17.770   1.455
14244W        W86669  31.479  18.964   1.855
14245W        W86670  37.938  22.119   3.315
14246W        W86671  21.853  18.771   1.497
14247W        W86672  12.811  26.988   1.990
14248W        W86673  27.570  22.489   1.259
14249W        W86674  15.561  40.506   2.577
14250W        W86675  35.115  39.363  14.435
14251W        W86676   3.026  15.887  13.390
14252W        W86677  34.030  43.387  10.480
14253W        W86678   6.524   9.886  11.593
14254W        W86679   5.207  43.675   1.264
14255W        W86680  26.241  21.135   1.382
14256W        W86681   5.067  15.893  14.605
14257W        W86682  30.718  36.574   3.608
14258W        W86683  24.027   2.796   1.895
14259W        W86684  13.712  39.309   3.282
14260W        W86685  36.073  23.114  12.358
14261W        W86686  13.915  37.911  12.771
14262W        W86687  21.704  10.164   0.706
14263W        W86688  11.802  42.885  12.995
14264W        W86689   7.043  32.174   3.822
14265W        W86690  37.782  34.040  12.024
14266W        W86691  23.551  24.427   2.368
14267W        W86692  15.709   0.910  11.107
14268W        W86693  21.502  36.531   0.630
14269W        W86694  10.671  19.110  12.925
14270W        W86695  10.900  17.623  12.014
14271W        W86696  40.394  33.532  14.187
14272W        W86697  31.447  42.515  10.480
14273W        W86698   8.857  25.460  14.239
14274W        W86699   2.294  27.714   3.255
14275W        W86700  10.585  24.214  11.016
14276W        W86701  35.594  43.289  11.176
14277W        W86702  19.690  12.543  12.912
14278W        W86703  12.614   1.825   4.672
14279W        W86704   2.493  21.123  12.490
14280W        W86705   5.300  22.483   0.379
14281W        W86706  15.585  15.107   4.448
14282W        W86707  21.623  32.088  14.847
14283W        W86708  32.674   8.214   4.606
14284W        W86709  40.951   7.222   3.657
14285W        W86710  21.470  31.851  14.417
14286W        W86711   6.749   5.302  13.839
14287W        W86712  44.452  21.950   3.812
14288W        W86713  37.005   5.882   2.197
14289W        W86714  24.060  26.922   3.208
14290W        W86715  44.234   0.021   0.442
14291W        W86716  30.455   5.197  13.462
14292W        W86717   5.331  16.153  13.215
14293W        W86718  32.395  32.790   0.902
14294W        W86719  20.622  13.744   0.707
14295W        W86720  18.490  29.530   4.560
14296W        W86721   1.070  37.426   1.820
14297W        W86722  15.405  44.999  13.318
14298W        W86723  30.052  37.477   0.428
14299W        W86724  40.326   4.455  12.068
14300W        W86725  16.748  43.002   2.806
14301W        W86726  14.548  11.904   2.306
14302W        W86727  42.351  10.290   4.364
14303W        W86728  19.167  31.339  11.120
14304W        W86729  17.536  13.196  11.127
14305W        W86730   5.386  34.406  11.389
14306W        W86731  10.194  16.372   3.084
14307W        W86732  16.236   3.325  12.043
14308W        W86733  43.956  13.640  11.651
14309W        W86734   0.817   7.112  12.514
14310W        W86735  14.966  36.409  11.555
14311W        W86736  27.373   5.262   0.993
14312W        W86737  23.048  25.979  14.876
14313W        W86738  30.879   4.161  14.999
14314W        W86739  35.118  25.924  10.267
14315W        W86740   6.732  19.032  13.413
14316W        W86741  20.695  13.465  12.496
14317W        W86742   1.847  13.690  12.932
14318W        W86743  35.464  23.066  14.094
14319W        W86744  43.953  16.594  13.413
14320W        W86745  38.211  37.945   4.138
14321W        W86746   7.145  34.040  13.808
14322W        W86747  44.014  42.447  13.043
14323W        W86748   4.969  31.864   3.567
14324W        W86749   7.771  24.807  10.804
14325W        W86750  26.094  44.437  11.593
14326W        W86751   2.088  39.169  13.585
14327W        W86752   6.717  33.108   0.063
14328W        W86753  43.071   2.342   0.446
14329W        W86754  27.648   8.022  11.297
14330W        W86755  36.658  12.528   5.096
14331W        W86756   0.672  26.458  12.783
14332W        W86757   1.928   9.402  11.158
14333W        W86758  13.828  40.920   2.963
14334W        W86759  34.281  22.556   2.787
14335W        W86760   8.254   3.448   4.845
14336W        W86761  22.333  23.105  11.561
14337W        W86762  33.073  25.606  12.473
14338W        W86763  16.773  42.474   0.765
14339W        W86764  43.738  18.117   2.812
14340W        W86765   8.708   2.215  12.442
14341W        W86766  22.190  34.043  10.604
14342W        W86767  14.637   6.724   0.691
14343W        W86768   1.187  19.575  11.920
14344W        W86769  13.831  16.563   3.523
14345W        W86770  41.316   0.278  11.116
14346W        W86771  29.192  21.156  12.798
14347W        W86772  15.088  24.935   0.893
14348W        W86773  11.372  35.928   4.676
14349W        W86774  40.607  41.322  10.746
14350W        W86775  32.603  24.857  14.145
14351W        W86776  29.166  35.205  13.434
14352W        W86777  34.600  40.555  13.296
14353W        W86778  12.639  42.072  12.451
14354W        W86779  22.921   3.733  12.162
14355W        W86780  17.025  37.350  12.843
14356W        W86781  36.867   2.816  10.681
14357W        W86782  18.760   7.356   4.106
14358W        W86783  18.343   9.016   2.445
14359W        W86784  25.078  43.611  11.021
14360W        W86785   2.540  18.512   2.190
14361W        W86786  30.110  31.863   2.763
14362W        W86787  17.562  32.313   2.713
14363W        W86788   6.579   5.841   4.016
14364W        W86789  29.998  38.327  11.190
14365W        W86790  33.541  38.842  13.884
14366W        W86791  12.438   4.318   4.719
14367W        W86792  20.581  21.977  11.533
14368W        W86793   8.782   9.178   3.580
14369W        W86794  28.764  14.710   2.436
14370W        W86795   2.435   9.141  13.386
14371W        W86796  16.309  10.299   4.539
14372W        W86797  39.498  38.994  10.688
14373W        W86798  34.751  10.127  10.822
14374W        W86799   7.269   1.393  11.884
14375W        W86800   5.824  37.986  11.213
14376W        W86801  34.028  29.071  11.720
14377W        W86802  23.598  28.346   4.155
14378W        W86803  37.535   9.827   3.341
14379W        W86804  37.925   1.431  14.181
14380W        W86805  25.040   2.485  14.922
14381W        W86806   7.386  27.398  14.275
14382W        W86807  35.835  43.759  14.358
14383W        W86808  41.084  42.754   2.108
14384W        W86809  33.193  21.911   1.898
14385W        W86810  19.753  26.049   3.053
14386W        W86811  11.750  39.962   0.280
14387W        W86812  25.346  35.623  14.945
14388W        W86813   0.248  19.885   2.691
14389W        W86814  42.519  11.497  13.000
14390W        W86815  11.386  13.517   1.475
14391W        W86816  38.362  22.576   4.405
14392W        W86817   0.388  32.415  10.746
14393W        W86818  20.307  32.564   0.889
14394W        W86819  14.716   6.138  12.820
14395W        W86820  30.516  40.755   1.941
14396W        W86821  25.525  28.558  13.906
14397W        W86822  24.939  24.572  12.942
14398W        W86823  24.574   3.000   1.879
14399W        W86824  19.600  32.521   9.935
14400W        W86825  26.034  36.996   3.966
14401W        W86826  42.176  27.655   2.361
14402W        W86827   6.939   8.902   3.254
14403W        W86828   8.956   4.661   4.100
14404W        W86829  33.871  22.614   3.355
14405W        W86830  43.520  18.689   3.417
14406W        W86831  26.224  36.398  14.355
14407W        W86832   0.201  30.088  12.712
14408W        W86833  43.676  17.142  10.778
14409W        W86834  13.697  44.378   2.682
14410W        W86835  34.644   0.400  14.844
14411W        W86836  33.473  22.625   4.299
14412W        W86837  34.401  42.136  10.506
14413W        W86838  25.824  38.756   1.377
14414W        W86839  37.984  23.506   0.416
14415W        W86840  27.200  11.828   3.666
14416W        W86841   0.522  37.292   5.202
14417W        W86842  26.972  28.363   4.141
14418W        W86843  44.597  22.243   0.256
14419W        W86844  19.324  16.648   2.245
14420W        W86845  19.425  35.943   4.190
14421W        W86846  36.399  33.538  12.427
14422W        W86847  36.428   8.771   4.176
14423W        W86848  27.078   6.469  12.396
14424W        W86849  33.482  28.993   3.087
14425W        W86850   1.799  10.222   4.173
14426W        W86851  37.033   0.559   3.765
14427W        W86852   6.937   9.837  12.514
14428W        W86853  26.866  31.243  14.752
14429W        W86854  34.262  34.923   4.505
14430W        W86855  20.091  41.956   0.613
14431W        W86856  27.445  33.376  10.548
14432W        W86857   2.739  42.106   0.938
14433W        W86858  11.567  17.525   0.418
14434W        W86859  35.844  16.246  11.899
14435W        W86860  13.128   3.424   4.651
14436W        W86861  33.653   4.868   5.129
14437W        W86862  21.723   7.373  10.891
14438W        W86863  28.601  20.334   3.298
14439W        W86864  14.673  11.904   1.339
14440W        W86865   9.820  33.092   1.967
14441W        W86866  41.808  40.778  14.583
14442W        W86867  25.218  30.631  13.297
14443W        W86868  20.538  32.399  14.904
14444W        W86869  40.313  37.867   4.694
14445W        W86870   5.418  34.948   3.536
14446W        W86871   6.030  34.699  12.516
14447W        W86872  44.364  27.137   2.308
14448W        W86873  33.444  21.173  13.376
14449W        W86874  39.067   8.872   1.499
14450W        W86875  26.946  12.959  11.176
14451W        W86876  30.911  21.610   4.276
14452W        W86877  25.091   7.388  13.356
14453W        W86878  32.467   0.870   3.259
14454W        W86879  13.664  34.919  11.619
14455W        W86880   9.664   1.565  14.044
14456W        W86881  21.354  18.697   1.442
14457W        W86882  23.139   9.889  14.884
14458W        W86883  42.427  22.825   3.281
14459W        W86884   0.470  28.184  11.058
14460W        W86885   0.355   9.360  11.900
14461W        W86886  36.063   6.405   2.218
14462W        W86887  27.842  23.024  11.163
14463W        W86888  38.809  25.444  10.709
14464W        W86889  25.823   6.799  12.516
14465W        W86890  28.975  13.639  13.498
14466W        W86891   4.310  33.372  13.484
14467W        W86892  43.969  20.140  12.945
14468W        W86893   7.265  30.941   1.331
14469W        W86894  17.323  36.638  11.116
14470W        W86895   1.454  38.807  14.844
14471W        W86896  35.570  32.130  13.445
14472W        W86897  26.980  21.600  14.130
14473W        W86898  24.928  24.710  11.272
14474W        W86899  30.032  37.310  11.098
14475W        W86900  43.238  23.562   4.855
14476W        W86901   2.670  23.992  13.214
14477W        W86902   1.396  44.782  10.628
14478W        W86903  30.429   8.245   3.647
14479W        W86904  26.686  11.306  14.968
14480W        W86905  15.601  28.192   1.942
14481W        W86906  22.294  38.153  12.455
14482W        W86907  31.371   8.711  11.397
14483W        W86908  44.297   6.148  14.263
14484W        W86909  40.958   2.782  13.984
14485W        W86910  27.665  40.976  10.926
14486W        W86911  35.641  14.187   0.483
14487W        W86912  44.726  16.995   3.209
14488W        W86913   5.752  14.564  14.100
14489W        W86914   1.493  24.719   2.813
14490W        W86915  36.017  27.311  10.701
14491W        W86916  12.746  20.581   2.608
14492W        W86917  12.702  33.104   2.221
14493W        W86918  36.548   5.835   1.808
14494W        W86919  41.785   5.875   3.593
14495W        W86920  21.540  39.678  11.075
14496W        W86921  16.209  13.658   3.341
14497W        W86922  28.697   7.711  14.365
14498W        W86923  23.245  23.046   3.909
14499W        W86924   6.026  25.540   4.609
14500W        W86925  28.640  43.834   0.920
14501W        W86926  36.973  24.029  12.910
14502W        W86927  29.023   7.853   1.544
14503W        W86928  34.938  38.075  13.588
14504W        W86929  37.080  15.091   0.390
14505W        W86930   5.770   4.338  12.076
14506W        W86931  42.402  20.501   3.743
14507W        W86932  26.823  20.157   3.563
14508W        W86933  38.875  42.210   0.311
14509W        W86934   4.222  42.823   0.506
14510W        W86935   7.934   9.194  10.390
14511W        W86936  16.319  40.981  12.502
14512W        W86937  12.580  14.703  14.897
14513W        W86938  21.850  23.147  11.771
14514W        W86939  11.855   8.347   2.152
14515W        W86940   2.404  16.094   4.390
14516W        W86941  35.383   5.677  14.537
14517W        W86942  20.196  27.523   1.273
14518W        W86943  22.977  13.669   0.475
14519W        W86944   1.102  15.290  12.135
14520W        W86945   6.694  32.707   0.400
14521W        W86946   7.676  19.859   4.058
14522W        W86947  13.533  31.934   1.578
14523W        W86948  11.496   4.987   2.413
14524W        W86949  24.102  16.294   2.925
14525W        W86950  39.852   7.455   3.224
14526W        W86951  13.547  29.906  12.014
14527W        W86952   9.342  16.436  13.630
14528W        W86953   3.713  15.287   4.432
14529W        W86954  26.987   4.636  11.206
14530W        W86955  27.960  33.522  12.042
14531W        W86956  22.616  42.407  14.015
14532W        W86957  15.759  13.751  10.791
14533W        W86958  21.002  34.884  11.860
14534W        W86959  36.361  28.517  11.902
14535W        W86960   1.060   0.652   0.976
14536W        W86961   0.784  31.453  12.607
14537W        W86962   9.448   9.854   2.630
14538W        W86963  30.463  42.509  10.559
14539W        W86964  41.815  41.746   1.265
14540W        W86965  22.579  12.178  12.873
14541W        W86966  30.532  17.640   2.820
14542W        W86967  26.586  40.482  14.789
14543W        W86968  32.814  43.458  14.814
14544W        W86969  43.966   1.939   1.910
14545W        W86970   2.438  10.219  14.999
14546W        W86971  27.430  21.957   1.426
14547W        W86972  24.286  24.730   0.293
14548W        W86973   1.260   7.930  12.623
14549W        W86974  21.195  32.944   1.453
14550W        W86975  38.449   7.777  10.426
14551W        W86976  20.030  18.876  14.764
14552W        W86977  31.017  44.061   3.303
14553W        W86978  23.168  30.564  11.670
14554W        W86979   6.967  22.610   3.165
14555W        W86980   7.151  22.762   4.929
14556W        W86981  24.033  19.480  12.114
14557W        W86982   9.783  16.171  13.660
14558W        W86983   1.033   8.652   0.260
14559W        W86984  43.017  42.808   2.359
14560W        W86985  35.800  32.969   1.166
14561W        W86986  25.759  44.875  11.133
14562W        W86987  39.743   0.718  14.993
14563W        W86988  31.407   1.315  11.025
14564W        W86989  33.659   1.362   3.978
14565W        W86990  18.409  12.054  13.188
14566W        W86991   2.162  43.300   1.374
14567W        W86992  37.471  11.287  13.964
14568W        W86993  26.159  37.319   2.210
14569W        W86994  37.801   2.823   3.325
14570W        W86995  35.390   4.147   1.705
14571W        W86996  20.743  39.577   0.166
14572W        W86997  21.989  34.459   1.281
14573W        W86998   3.790   0.986  12.821
14574W        W86999  41.478  24.675   0.798
14575W        W87000  21.702  28.962   3.608
14576W        W87001   8.719  40.044  11.162
14577W        W87002  27.941  38.465  13.221
14578W        W87003  43.229  18.758  12.447
14579W        W87004  38.968   0.996   1.777
14580W        W87005  24.490  26.747  10.573
14581W        W87006  37.445  10.334   3.203
14582W        W87007  26.999  33.369  13.977
14583W        W87008  10.884  44.642   3.996
14584W        W87009  38.310  43.715  10.178
14585W        W87010  15.901  18.093  11.242
14586W        W87011   2.746  32.354   0.757
14587W        W87012  36.981   9.712  12.554
14588W        W87013   0.372  27.445   2.394
14589W        W87014  34.798   3.756   0.798
14590W        W87015   9.170  44.131   0.452
14591W        W87016  35.863  20.134   4.591
14592W        W87017   4.486  18.209  13.606
14593W        W87018  40.830  38.737  11.607
14594W        W87019   9.089  12.503   5.061
14595W        W87020  35.534  21.982   1.802
14596W        W87021  21.609  34.032   3.057
14597W        W87022  24.565   5.466  14.067
14598W        W87023   6.923  39.431   4.418
14599W        W87024  39.348  21.015  12.628
14600W        W87025  24.106  17.826  13.413
14601W        W87026  31.531  42.828   4.554
14602W        W87027  17.781   6.643   0.391
14603W        W87028   0.732   5.210   3.266
14604W        W87029   1.230  34.491  13.884
14605W        W87030  20.505   5.215   2.314
14606W        W87031   0.655  11.759   3.717
14607W        W87032   2.382  13.585  13.193
14608W        W87033   6.683   8.670   1.233
14609W        W87034   9.192  19.288   1.520
14610W        W87035   1.876  23.795   3.357
14611W        W87036  17.529   7.886  12.427
14612W        W87037  35.217  42.910   1.772
14613W        W87038  20.523   9.661   3.213
14614W        W87039   7.121  23.301   2.243
14615W        W87040   0.220  34.626  12.402
14616W        W87041  12.374   7.320  11.392
14617W        W87042  29.490   0.249  10.285
14618W        W87043  11.744   2.781  12.851
14619W        W87044  39.140  13.774   2.322
14620W        W87045  28.427   0.189  11.168
14621W        W87046  23.076   4.384  12.296
14622W        W87047   1.911  34.867   2.355
14623W        W87048   9.885  15.633   4.226
14624W        W87049  34.592  32.736  12.491
14625W        W87050   0.980  21.152  11.547
14626W        W87051  43.813   7.023   0.292
14627W        W87052   9.689  23.500  11.467
14628W        W87053   6.548  13.595  12.117
14629W        W87054  10.906  25.612  13.535
14630W        W87055   5.454  38.907   3.931
14631W        W87056   6.790  41.583  13.954
14632W        W87057   6.037  28.996   0.896
14633W        W87058  16.368  15.541   3.997
14634W        W87059   7.618  21.152  10.579
14635W        W87060  24.166  18.378   5.016
14636W        W87061  36.405  30.972  12.820
14637W        W87062  43.859  40.900   0.953
14638W        W87063  43.738  11.267   1.231
14639W        W87064  10.552  36.525   2.189
14640W        W87065  16.352  43.934   1.747
14641W        W87066  15.123  38.462   1.789
14642W        W87067  44.311   9.269  14.983
14643W        W87068  36.538   5.229  11.161
14644W        W87069  12.138  21.516  10.375
14645W        W87070   9.768  27.040  13.014
14646W        W87071   7.918  38.616   3.107
14647W        W87072  35.953  22.237  12.301
14648W        W87073  38.533  16.970  12.860
14649W        W87074  15.233  16.618  14.935
14650W        W87075  39.695  44.871  10.594
14651W        W87076  43.861  34.824  10.961
14652W        W87077   6.769  17.773  10.827
14653W        W87078  27.180  14.021   2.741
14654W        W87079   1.212  25.025   4.181
14655W        W87080  21.643  42.804   1.481
14656W        W87081  39.496   1.370   4.807
14657W        W87082  11.063  29.954   3.514
14658W        W87083  43.740  14.165  13.018
14659W        W87084  38.813   9.827   4.642
14660W        W87085  15.714  21.717  11.974
14661W        W87086   0.682   2.289  13.976
14662W        W87087  12.622  10.394   4.115
14663W        W87088  42.435  25.510  10.713
14664W        W87089   2.308  13.753   3.636
14665W        W87090  18.646  33.117  11.066
14666W        W87091   0.280   5.668  11.123
14667W        W87092   2.723  43.845   1.874
14668W        W87093  10.372  18.923  11.438
14669W        W87094  16.468  36.941   2.423
14670W        W87095   8.380  44.807   1.900
14671W        W87096  15.192  39.762  11.523
14672W        W87097  34.481  26.167   0.792
14673W        W87098   5.774   2.523  13.117
14674W        W87099  41.216  33.675  14.514
14675W        W87100  12.385  44.323  10.373
14676W        W87101  43.509  29.401   0.681
14677W        W87102  13.921  29.071   1.883
14678W        W87103  36.387  15.101  11.154
14679W        W87104  32.059  18.396  11.583
14680W        W87105  23.115   5.765  11.485
14681W        W87106  44.930  17.470   3.223
14682W        W87107  24.639  31.868  14.102
14683W        W87108  30.064  41.596   1.743
14684W        W87109  24.187  29.216  10.755
14685W        W87110  24.969  28.023   4.644
14686W        W87111  13.288  28.524   4.263
14687W        W87112   9.282  38.414  12.529
14688W        W87113  15.267  16.339   1.274
14689W        W87114  12.370  10.146  13.968
14690W        W87115  25.469  44.478   3.757
14691W        W87116  37.823  25.452   3.883
14692W        W87117  23.545   7.786   0.291
14693W        W87118  26.781  29.453   3.355
14694W        W87119  36.512  20.328   1.312
14695W        W87120  16.730  35.286  14.009
14696W        W87121   3.192  26.596  11.717
14697W        W87122  36.450  40.532  13.553
14698W        W87123  16.687   8.381   0.340
14699W        W87124  20.211  44.798   2.271
14700W        W87125   0.261   5.352  14.463
14701W        W87126  38.434  18.818  11.576
14702W        W87127  28.088   8.798   0.151
14703W        W87128  25.803  14.227   2.322
14704W        W87129   9.236  43.432   2.211
14705W        W87130  18.588  26.636  10.782
14706W        W87131   8.967  43.412   2.681
14707W        W87132  30.941   7.107  13.579
14708W        W87133  22.857  17.741  13.274
14709W        W87134  28.210  26.674   1.033
14710W        W87135  15.650  34.993   3.150
14711W        W87136  28.695  44.761   2.420
14712W        W87137  23.637   8.733  12.934
14713W        W87138  26.737  15.752  12.677
14714W        W87139  11.041  40.961   3.113
14715W        W87140  13.903  18.279   3.254
14716W        W87141  15.667   6.437   2.385
14717W        W87142  20.306   6.506   0.409
14718W        W87143  11.742  11.343  12.157
14719W        W87144   3.242  17.033   1.426
14720W        W87145  40.805  29.151   1.586
14721W        W87146  33.097  19.203  13.888
14722W        W87147  25.200  34.172  13.366
14723W        W87148  28.662  37.133  14.372
14724W        W87149  22.602   7.432  11.967
14725W        W87150   2.278  13.629   2.802
14726W        W87151  24.089  18.141   4.570
14727W        W87152  31.797  33.871  13.433
14728W        W87153   7.494   1.928  11.097
14729W        W87154  36.904  25.315   3.923
14730W        W87155  13.593  32.801   3.759
14731W        W87156  14.879  20.352  13.255
14732W        W87157  20.569  36.347   0.416
14733W        W87158  30.602   6.008  12.180
14734W        W87159  41.921  21.634  10.681
14735W        W87160  39.376  13.011   3.398
14736W        W87161  25.189  42.939   3.541
14737W        W87162   7.885  11.912  14.309
14738W        W87163  31.174  29.660  12.476
14739W        W87164   9.399  10.676  14.324
14740W        W87165  23.049  43.683  13.792
14741W        W87166  36.145  12.735  10.707
14742W        W87167  15.811  34.206   2.493
14743W        W87168  23.799  31.565  13.780
14744W        W87169   7.791   4.138   3.789
14745W        W87170   9.261  19.847  10.564
14746W        W87171  26.078  13.078  14.920
14747W        W87172  11.662  20.140   3.237
14748W        W87173   1.846  38.615   2.799
14749W        W87174  37.598  12.254  10.647
14750W        W87175  24.399   7.749  13.065
14751W        W87176  27.050   2.407  13.523
14752W        W87177  16.330   7.198   0.734
14753W        W87178   9.217  25.005  13.486
14754W        W87179  21.119  14.404  12.075
14755W        W87180  14.893  24.077   9.953
14756W        W87181  11.127  33.079   3.671
14757W        W87182  10.643   3.546   0.455
14758W        W87183  41.364  27.628  13.058
14759W        W87184   5.881   6.265  13.935
14760W        W87185  23.121  23.573  11.409
14761W        W87186   7.443   9.611  14.290
14762W        W87187   1.063  42.336  14.290
14763W        W87188  23.636  37.016   1.011
14764W        W87189  38.449  26.778  11.549
14765W        W87190  42.819  13.678  10.802
14766W        W87191  32.862  37.972   1.173
14767W        W87192  27.475  10.843  12.365
14768W        W87193   0.293   4.531  13.377
14769W        W87194  33.962  12.074   2.726
14770W        W87195  43.471  35.056  10.728
14771W        W87196   4.332  15.937   3.229
14772W        W87197  18.123   0.214   0.799
14773W        W87198   0.166  11.654   3.634
14774W        W87199  37.528  39.368  12.136
14775W        W87200  30.609  21.280   2.234
14776W        W87201  43.919   2.075   4.211
14777W        W87202  41.256  16.213  10.697
14778W        W87203  34.070  34.319   1.649
14779W        W87204  18.033  33.697   4.300
14780W        W87205   1.322  16.121   2.846
14781W        W87206  10.715  25.364  12.478
14782W        W87207  32.892  10.161  14.895
14783W        W87208  13.787   5.348   3.706
14784W        W87209   9.170  21.169   1.175
14785W        W87210  39.914   5.622   3.146
14786W        W87211  26.618  29.661  11.561
14787W        W87212  10.450  32.098  13.340
14788W        W87213  22.206  35.986  14.380
14789W        W87214  33.912  32.785  14.083
14790W        W87215  11.380  28.176  11.204
14791W        W87216  10.122  37.560   2.857
14792W        W87217  25.850  38.232  11.179
14793W        W87218  12.468  22.913   0.286
14794W        W87219  11.592  26.692   9.890
14795W        W87220  16.633  43.489   0.984
14796W        W87221  16.081  15.082  13.960
14797W        W87222  17.818  12.778  13.961
14798W        W87223   1.787   6.640  12.582
14799W        W87224  22.176   4.736   3.703
14800W        W87225  15.202   9.705   1.919
14801W        W87226  20.843  16.850   3.238
14802W        W87227  34.086  15.739  14.779
14803W        W87228  29.626   7.774   3.923
14804W        W87229  24.669   9.094   2.230
14805W        W87230  16.182   0.821  11.835
14806W        W87231   4.890  10.347  12.676
14807W        W87232   1.504  17.563  11.180
14808W        W87233  43.503  32.832  11.769
14809W        W87234  14.925  22.145   0.711
14810W        W87235  37.576  13.140  12.041
14811W        W87236  16.623  39.774  11.655
14812W        W87237   8.734  18.666  10.801
14813W        W87238  44.830   0.740   4.690
14814W        W87239  13.801  21.298   0.899
14815W        W87240  44.994  27.520  13.527
14816W        W87241  28.033   5.765  13.825
14817W        W87242  10.364  22.090  13.104
14818W        W87243  20.661   4.333  14.873
14819W        W87244  22.974  42.960   3.291
14820W        W87245  20.252   3.901  14.806
14821W        W87246  37.298  36.978  11.952
14822W        W87247  37.891  31.933   1.921
14823W        W87248   8.177  18.301   3.700
14824W        W87249  21.176  12.393   4.087
14825W        W87250  35.469  31.514   2.844
14826W        W87251  25.417  25.475  11.084
14827W        W87252  13.127  18.158  11.144
14828W        W87253  15.685   4.210  11.146
14829W        W87254   7.831  19.558   0.420
14830W        W87255   1.053  11.576  10.219
14831W        W87256  22.455  17.104   1.133
14832W        W87257  11.417  23.728  10.011
14833W        W87258  17.105  11.695   3.664
14834W        W87259   9.486  19.656   0.111
14835W        W87260  42.900   1.012   2.859
14836W        W87261   9.835  24.566  11.975
14837W        W87262  35.920  17.569  12.924
14838W        W87263  34.316   6.686   2.329
14839W        W87264  26.630  28.446   1.257
14840W        W87265  21.539  39.601   0.907
14841W        W87266  25.094  39.655   2.832
14842W        W87267  32.361  16.750  14.313
14843W        W87268   2.093  19.777  14.824
14844W        W87269   6.796  36.788  10.695
14845W        W87270   8.107  41.151   2.758
14846W        W87271  12.669   0.439   0.234
14847W        W87272  43.989  17.784  12.040
14848W        W87273  43.494  40.773  14.920
14849W        W87274  37.461  27.966   4.461
14850W        W87275  10.813  30.398   3.346
14851W        W87276  40.339  40.984  14.445
14852W        W87277  35.903  28.191   4.857
14853W        W87278  24.138  24.563   0.863
14854W        W87279  18.185  32.827   4.621
14855W        W87280  11.766  26.449  12.479
14856W        W87281   2.872  37.360  11.669
14857W        W87282  11.142  37.522   4.612
14858W        W87283  11.167   0.467   1.831
14859W        W87284  41.547  28.025   3.230
14860W        W87285  20.748  37.314  10.853
14861W        W87286   1.006   8.225  10.878
14862W        W87287   3.965  20.069   1.769
14863W        W87288  14.828  18.031  13.629
14864W        W87289  41.995  18.290   9.567
14865W        W87290  11.521   0.320   3.325
14866W        W87291  43.748  37.289   3.680
14867W        W87292  31.907  37.585  14.771
14868W        W87293  31.500  21.578   3.134
14869W        W87294  23.423  13.821  14.324
14870W        W87295  38.097  20.416  12.177
14871W        W87296  15.741  44.520  12.092
14872W        W87297  17.105  26.986  12.486
14873W        W87298  37.346  23.467   1.965
14874W        W87299  13.203   5.473   4.679
14875W        W87300   4.464  40.183   3.715
14876W        W87301  23.513  16.248  14.363
14877W        W87302  16.644  13.680   2.440
14878W        W87303  39.585  44.469  12.172
14879W        W87304   7.928  25.126  10.397
14880W        W87305   3.202   3.115  11.100
14881W        W87306   1.411  21.260   2.741
14882W        W87307  14.680  25.406   2.778
14883W        W87308  12.973  32.397  12.853
14884W        W87309  31.078   2.839   3.126
14885W        W87310   4.814  27.178   0.737
14886W        W87311  38.001  22.954   4.517
14887W        W87312  12.523  28.688   0.993
14888W        W87313  31.173   2.169  12.953
14889W        W87314  11.401  13.505   0.451
14890W        W87315  21.217  36.464  12.131
14891W        W87316  38.342  15.042   1.339
14892W        W87317  27.207  25.630  11.549
14893W        W87318  44.839  35.894   0.789
14894W        W87319  31.151  22.331  14.559
14895W        W87320  39.884  17.346   2.967
14896W        W87321  23.485  15.302  11.590
14897W        W87322   7.482  42.994  14.972
14898W        W87323  19.846  41.021   0.207
14899W        W87324  19.626   0.042   4.555
14900W        W87325   2.490  36.035   1.238
14901W        W87326  13.607  15.175  13.963
14902W        W87327  37.793  18.609  12.955
14903W        W87328   0.955  33.642   0.766
14904W        W87329  38.868  28.606  12.071
14905W        W87330  20.853   7.565   3.105
14906W        W87331  40.370  38.213   4.287
14907W        W87332  38.940  38.106  14.561
14908W        W87333  43.387  26.261  14.244
14909W        W87334   9.895  23.121   0.431
14910W        W87335  43.281  30.581  10.802
14911W        W87336  38.648  21.639  10.682
14912W        W87337   5.495  10.446   1.624
14913W        W87338  41.771  40.511   1.846
14914W        W87339  23.848   9.880   2.625
14915W        W87340  34.828  12.587   3.644
14916W        W87341  23.115  31.322  14.419
14917W        W87342   4.273  27.534  14.038
14918W        W87343   9.525  31.666  12.495
14919W        W87344   4.764  35.420   3.624
14920W        W87345  15.311   2.206  13.422
14921W        W87346  35.058  11.442   1.847
14922W        W87347  41.770  42.477   0.354
14923W        W87348   4.856   0.746  12.560
14924W        W87349  32.478   2.333  11.917
14925W        W87350   9.903  12.605   1.942
14926W        W87351  20.870   2.942   0.610
14927W        W87352  32.164  25.960  13.613
14928W        W87353  23.011  20.844   0.885
14929W        W87354   9.829  38.248   1.472
14930W        W87355  18.777  26.064   4.384
14931W        W87356  26.050   1.888   4.246
14932W        W87357  35.355   1.471  13.440
14933W        W87358  15.739  18.628  11.992
14934W        W87359  17.129  23.982  13.845
14935W        W87360  39.770   9.925  10.613
14936W        W87361  21.237  26.419  12.815
14937W        W87362  10.953  27.977  12.560
14938W        W87363  21.103   5.382  11.583
14939W        W87364   3.480   2.796  10.396
14940W        W87365   7.907  38.465  13.357
14941W        W87366  14.875  33.628   2.610
14942W        W87367  23.536   1.432  13.153
14943W        W87368  28.162  16.009  13.784
14944W        W87369  22.460  31.399   0.946
14945W        W87370  42.766  18.679  13.992
14946W        W87371  22.766  25.868  11.722
14947W        W87372   0.746   3.355  13.070
14948W        W87373  26.761  26.938  12.009
14949W        W87374  20.786  27.527  14.421
14950W        W87375   5.225  22.064  13.291
14951W        W87376  39.854  35.661  11.140
14952W        W87377  35.638   1.211   4.148
14953W        W87378  32.375  33.441   1.457
14954W        W87379  39.857  18.845   3.164
14955W        W87380   6.291  41.902  12.023
14956W        W87381  44.012  42.076  14.881
14957W        W87382  41.309  26.516   1.332
14958W        W87383   6.110  42.276   1.696
14959W        W87384   4.025  41.827   1.397
14960W        W87385  37.251   5.346   4.579
14961W        W87386  24.380  30.840   0.448
14962W        W87387  13.480   1.284  11.663
14963W        W87388   6.217   8.986  11.858
14964W        W87389   6.295  38.780   3.593
14965W        W87390  16.015  36.071   4.306
14966W        W87391  12.049  13.648   3.322
14967W        W87392   8.354  43.909  11.320
14968W        W87393  30.949  23.687   1.408
14969W        W87394  11.652   7.658   1.868
14970W        W87395  11.281  19.292   0.693
14971W        W87396  15.101  10.622   4.310
14972W        W87397  41.972  34.200  11.093
14973W        W87398  14.690  19.194   1.319
14974W        W87399  38.915  38.362   0.093
14975W        W87400   1.438  19.217   3.427
14976W        W87401  16.051   2.278  12.847
14977W        W87402   8.657   3.725  10.543
14978W        W87403  12.374  19.152   2.289
14979W        W87404   4.260   2.712   1.698
14980W        W87405  21.005  16.112   2.223
14981W        W87406  24.747  44.983  14.021
14982W        W87407  11.796  19.199   2.398
14983W        W87408  14.661  24.437   2.680
14984W        W87409   5.409  42.696  14.927
14985W        W87410  15.696  23.160   0.673
14986W        W87411  41.930  37.936  11.540
14987W        W87412   3.230  27.055   5.183
14988W        W87413  21.954  14.508  12.535
14989W        W87414  37.777  20.115  12.517
14990W        W87415  13.104   5.715  14.724
14991W        W87416  19.220  29.603   0.004
14992W        W87417  18.542  22.762   0.696
14993W        W87418   1.001  23.443  13.487
14994W        W87419  41.936  30.486   3.097
14995W        W87420  27.012  39.006  14.507
14996W        W87421  33.979   5.925  13.551
14997W        W87422  15.939  39.521  14.810
14998W        W87423  12.720  38.535  11.207
14999W        W87424   2.270  33.818  12.195
15000W        W87425   9.420  43.901  13.206
15001W        W87426  38.390  27.725  14.890
15002W        W87427  19.193  12.331   1.732
15003W        W87428  34.433   7.000   3.721
15004W        W87429  33.174  10.189  11.370
15005W        W87430  19.166  21.272  11.592
15006W        W87431   5.246  11.387  10.643
15007W        W87432  37.999  37.349   1.483
15008W        W87433  31.568  37.751   1.772
15009W        W87434  33.901  33.589  14.963
15010W        W87435  31.445  21.740   4.665
15011W        W87436   0.910  20.800  12.139
15012W        W87437  36.006  34.878   3.620
15013W        W87438   3.260  44.777   3.578
15014W        W87439  38.340  15.132   1.848
15015W        W87440  10.010  34.536   3.627
15016W        W87441  41.706  24.134  13.826
15017W        W87442   6.175  23.328  14.954
15018W        W87443   6.173  38.068   0.506
15019W        W87444  10.876  14.625  13.454
15020W        W87445  18.078   0.796  11.011
15021W        W87446  33.647  40.314   3.278
15022W        W87447  16.603   8.688  12.030
15023W        W87448  29.347  15.332   2.349
15024W        W87449  26.128   1.257  14.007
15025W        W87450  19.874  41.039  11.734
15026W        W87451  27.807   6.881  12.660
15027W        W87452  17.124  12.191   2.840
15028W        W87453  41.419  40.901  11.376
15029W        W87454  18.065   3.680  11.955
15030W        W87455  26.048  30.413  12.594
15031W        W87456  15.621  14.219   1.238
15032W        W87457  14.178  19.705  14.315
15033W        W87458  14.274  41.858   5.207
15034W        W87459  43.039  17.678   1.757
15035W        W87460  12.899   4.248  12.866
15036W        W87461  34.136  25.431  13.806
15037W        W87462  13.119  29.008  14.728
15038W        W87463  12.025  39.307  13.310
15039W        W87464  12.309  27.665  12.575
15040W        W87465  39.306  10.421  13.086
15041W        W87466   9.755  35.501   0.433
15042W        W87467  16.009  24.077   2.654
15043W        W87468  16.023   7.187   1.767
15044W        W87469  39.574  44.559   9.757
15045W        W87470  16.295  40.284   0.422
15046W        W87471  36.885  14.153  14.446
15047W        W87472  38.309  25.526  14.191
15048W        W87473  36.527  43.394  13.302
15049W        W87474  24.132  39.684  10.646
15050W        W87475  36.112   2.826   4.575
15051W        W87476   9.742   4.786   0.102
15052W        W87477   5.485  21.943   4.747
15053W        W87478  18.675   7.311   0.703
15054W        W87479  25.503  13.656  13.939
15055W        W87480   4.229  37.080   2.688
15056W        W87481  40.751  44.923   5.024
15057W        W87482  36.544  39.604   4.408
15058W        W87483  44.262  24.426   2.207
15059W        W87484   5.155  27.651  12.583
15060W        W87485  17.857  38.553  11.653
15061W        W87486  22.779  29.976  14.269
15062W        W87487  32.495  19.200   3.670
15063W        W87488  41.009  25.005   0.123
15064W        W87489  33.888  43.287  10.985
15065W        W87490  31.566   6.672  10.666
15066W        W87491  30.142   8.203  10.893
15067W        W87492   0.909   9.748  10.475
15068W        W87493  41.019  42.954   3.604
15069W        W87494  21.061  20.002   2.848
15070W        W87495  10.380  14.411   1.449
15071W        W87496  31.888  34.893   1.819
15072W        W87497  41.228  25.632   4.746
15073W        W87498  36.303  43.624  14.574
15074W        W87499   9.718  43.783  10.903
15075W        W87500  10.822  44.818  12.760
15076W        W87501  42.420  17.675  13.418
15077W        W87502  35.384  36.032   4.564
15078W        W87503  41.930  23.430   4.774
15079W        W87504   4.340   0.385   0.250
15080W        W87505   6.789  40.828   4.435
15081W        W87506  24.449  22.079   3.368
15082W        W87507  38.916  32.124   2.918
15083W        W87508  12.767  36.000  14.461
15084W        W87509  27.704   2.089   0.721
15085W        W87510  28.155  21.340   1.049
15086W        W87511   1.370  23.240   3.673
15087W        W87512   4.254  27.165   0.408
15088W        W87513  23.070  38.793  14.359
15089W        W87514   6.619  36.531   2.910
15090W        W87515   5.365   7.257   3.676
15091W        W87516  17.224  17.605   1.282
15092W        W87517   2.183  42.015  13.853
15093W        W87518  14.820  41.828   4.415
15094W        W87519  43.530  34.612   4.482
15095W        W87520   0.402  12.185   3.607
15096W        W87521  28.016  12.653  13.682
15097W        W87522  17.401  39.549  12.887
15098W        W87523  11.315   1.313  13.594
15099W        W87524  33.126  34.821   0.375
15100W        W87525   6.391   1.937   2.087
15101W        W87526   3.339  12.358   1.903
15102W        W87527  31.950  17.384   0.027
15103W        W87528  36.545  40.843  11.192
15104W        W87529  33.048   9.362   2.427
15105W        W87530  32.856  28.930  12.212
15106W        W87531  12.588   8.388  14.769
15107W        W87532  30.938  37.962   3.685
15108W        W87533  30.566  37.845   1.650
15109W        W87534  22.173  28.904   1.870
15110W        W87535   6.129  28.977  13.734
15111W        W87536  32.667   2.456   1.323
15112W        W87537  11.179  38.826   3.180
15113W        W87538  25.979  29.184  12.002
15114W        W87539  18.231  18.175  14.076
15115W        W87540   5.324  36.334  11.316
15116W        W87541  14.800  37.288   2.235
15117W        W87542  44.239  38.927   1.886
15118W        W87543  11.709  11.804  13.344
15119W        W87544  32.318  18.222  14.439
15120W        W87545  42.974  27.971   4.094
15121W        W87546  23.246   6.918   0.832
15122W        W87547  17.577  36.136   2.753
15123W        W87548   0.306  14.393   1.816
15124W        W87549   4.938  10.524  13.216
15125W        W87550  17.631  34.120   2.591
15126W        W87551  37.612  20.224   5.060
15127W        W87552   8.926  13.081   2.799
15128W        W87553  41.070  26.993  13.629
15129W        W87554  17.152  17.026   2.609
15130W        W87555  26.731  20.941   1.364
15131W        W87556  19.674  22.490  10.890
15132W        W87557  17.604   3.928  13.545
15133W        W87558  11.881  16.743  12.330
15134W        W87559  16.811   8.404  14.200
15135W        W87560  17.651  43.315  12.587
15136W        W87561  36.901  23.546  12.102
15137W        W87562   9.220   8.790  10.219
15138W        W87563  12.722  36.572  12.319
15139W        W87564  14.814  34.119  14.997
15140W        W87565  24.171  32.587   4.475
15141W        W87566  30.125   0.559   1.779
15142W        W87567   0.185   7.771  13.884
15143W        W87568  40.020  37.166  11.451
15144W        W87569  40.594  31.015   0.437
15145W        W87570  36.305  22.084   0.254
15146W        W87571  43.244  21.061   0.239
15147W        W87572  24.381   2.331   2.737
15148W        W87573  22.500  37.395  14.957
15149W        W87574  43.950  32.652  11.580
15150W        W87575  10.630  21.243   3.675
15151W        W87576  14.352  12.331   0.350
15152W        W87577   0.022  35.364  10.762
15153W        W87578  41.778  14.191  14.776
15154W        W87579  14.066  33.538  13.757
15155W        W87580  26.633  14.684   0.319
15156W        W87581   9.978   6.227   5.505
15157W        W87582  19.120   9.522   0.831
15158W        W87583  16.147  19.542  14.852
15159W        W87584  38.997  33.833   4.564
15160W        W87585  26.655  40.822  14.383
15161W        W87586  21.005  32.156   1.682
15162W        W87587  20.500  44.333  13.447
15163W        W87588  36.602  30.022   0.283
15164W        W87589  17.653  34.210  14.841
15165W        W87590  17.028  14.754  14.928
15166W        W87591  12.854  34.669   1.784
15167W        W87592  40.988  33.058  11.237
15168W        W87593   5.160   3.881  11.586
15169W        W87594  30.429  41.791   1.395
15170W        W87595  32.975   8.675   4.147
15171W        W87596  42.463  14.638  13.377
15172W        W87597   7.976   4.701   4.294
15173W        W87598  24.458  38.927   1.071
15174W        W87599   3.220   3.596   3.876
15175W        W87600  10.421  16.488  12.539
15176W        W87601  34.366  23.277  11.548
15177W        W87602  42.378  36.369   1.328
15178W        W87603  42.257  16.309  10.691
15179W        W87604  15.675   4.756   2.959
15180W        W87605   4.802  26.253  11.408
15181W        W87606  10.838  44.251   3.644
15182W        W87607   0.823  20.590  14.985
15183W        W87608  33.334   6.729  14.983
15184W        W87609  43.271  22.122  10.484
15185W        W87610  17.293  37.569   4.053
15186W        W87611   3.111  20.330  12.550
15187W        W87612  11.969  41.544  13.572
15188W        W87613  42.988   1.477  12.467
15189W        W87614  27.479  34.322  13.550
15190W        W87615   7.393  24.206  14.310
15191W        W87616   9.833  33.045  14.375
15192W        W87617  23.187  37.397   1.837
15193W        W87618   5.759  40.393   1.831
15194W        W87619  24.285  32.407  10.522
15195W        W87620  34.983  27.222   0.208
15196W        W87621  20.010  33.317  14.851
15197W        W87622  20.470  10.357  11.936
15198W        W87623  37.604  31.554   2.172
15199W        W87624  19.780  25.058  13.395
15200W        W87625   4.923   7.203  12.890
15201W        W87626   3.129   0.005  12.620
15202W        W87627  28.890   2.207   3.162
15203W        W87628  14.133  39.712  13.553
15204W        W87629  14.422  26.963  14.002
15205W        W87630   8.149  29.858  11.925
15206W        W87631  15.693  33.497  14.953
15207W        W87632  22.148  26.203  11.134
15208W        W87633   2.984  28.113   0.692
15209W        W87634  31.128  22.973  12.012
15210W        W87635  19.015  37.603   4.821
15211W        W87636  25.266  34.666  13.283
15212W        W87637  15.339  10.601  13.298
15213W        W87638  42.362  37.905  12.487
15214W        W87639  10.301   1.534   3.288
15215W        W87640  42.412  33.200  11.987
15216W        W87641  42.781  34.569  14.027
15217W        W87642   3.756  39.565  13.408
15218W        W87643  44.459  27.587  14.979
15219W        W87644  21.493   8.305  13.509
15220W        W87645  42.773  35.464   4.569
15221W        W87646  27.168  34.757   0.376
15222W        W87647  13.807  22.034   5.836
15223W        W87648  19.467  42.610  12.957
15224W        W87649  33.595   0.938  14.446
15225W        W87650  40.296  27.517  10.713
15226W        W87651   9.156   5.115  10.726
15227W        W87652  24.136  19.158   3.913
15228W        W87653   6.234  39.735   0.125
15229W        W87654   4.500  17.478   2.202
15230W        W87655  20.747  41.903   1.122
15231W        W87656   6.890  16.253   1.891
15232W        W87657   2.722  33.532   3.309
15233W        W87658   9.768   2.221  12.631
15234W        W87659  21.750  20.074   0.896
15235W        W87660   9.342  22.430  11.919
15236W        W87661  30.928  43.990  14.810
15237W        W87662  25.421  28.566   2.043
15238W        W87663  15.846  38.047   4.535
15239W        W87664  35.913  42.282  13.527
15240W        W87665   0.917   1.270   0.071
15241W        W87666   0.272  39.065   1.009
15242W        W87667  42.334   3.557   3.763
15243W        W87668  24.385  18.172  11.425
15244W        W87669  40.003  44.501   0.394
15245W        W87670  18.514   8.367  12.017
15246W        W87671  19.962  20.130  12.469
15247W        W87672  21.215  37.893  13.846
15248W        W87673  21.647  17.175   2.347
15249W        W87674  20.805  23.623   4.065
15250W        W87675  11.846  10.612  12.555
15251W        W87676   7.302  40.045   3.933
15252W        W87677  19.884  39.865   3.587
15253W        W87678  14.138  38.767  12.080
15254W        W87679  43.352  43.275   2.250
15255W        W87680  32.414  41.450  12.638
15256W        W87681  39.793  20.571   1.315
15257W        W87682  39.318  38.654  11.045
15258W        W87683   2.870   5.672  12.367
15259W        W87684   3.439  43.367   2.346
15260W        W87685  25.729   1.983   1.680
15261W        W87686  20.083  35.462   3.800
15262W        W87687  21.688  39.082  14.514
15263W        W87688  13.407  37.604   0.842
15264W        W87689  10.654  32.900   2.956
15265W        W87690   7.423  20.363   1.831
15266W        W87691  28.444  27.517   3.677
15267W        W87692  12.234  35.705  10.658
15268W        W87693  31.963  13.379   0.320
15269W        W87694  21.007  23.613   2.192
15270W        W87695  26.022   5.901   3.354
15271W        W87696  36.617  18.227  10.989
15272W        W87697  15.637  36.984  14.326
15273W        W87698  10.379  25.909  13.907
15274W        W87699  20.012  24.976  11.036
15275W        W87700  12.688   5.929  14.987
15276W        W87701  15.077  35.669   0.927
15277W        W87702  19.159   7.342   2.896
15278W        W87703  27.235  13.939   4.239
15279W        W87704  31.471  31.047  12.133
15280W        W87705  10.114  18.238   4.251
15281W        W87706  23.903  25.422  13.999
15282W        W87707  37.377  43.425  12.457
15283W        W87708  44.816  28.038   1.326
15284W        W87709  29.802   1.784   2.273
15285W        W87710   9.466  43.983  14.535
15286W        W87711  42.070  40.382  14.390
15287W        W87712  21.555  30.633   0.314
15288W        W87713  15.342  23.298   0.010
15289W        W87714  27.086   1.511  12.368
15290W        W87715  11.126  40.483  11.528
15291W        W87716  11.209  24.214   2.665
15292W        W87717  42.982   8.886   4.134
15293W        W87718  42.075   0.693   1.295
15294W        W87719  28.145  19.302  14.551
15295W        W87720  19.167  21.449  12.551
15296W        W87721  19.442  20.536  10.954
15297W        W87722  23.494  23.682  14.886
15298W        W87723  35.595  35.079   0.375
15299W        W87724  15.478  32.605  12.784
15300W        W87725  38.058  25.679   1.331
15301W        W87726  38.227  16.071  11.474
15302W        W87727  28.665  31.416  14.818
15303W        W87728   6.226  43.487  12.035
15304W        W87729   0.417  39.449   4.537
15305W        W87730  32.047  11.097  13.396
15306W        W87731   5.417  31.151  14.958
15307W        W87732  13.120  40.322  11.213
15308W        W87733   9.140   5.396  13.847
15309W        W87734   2.718  22.101   3.318
15310W        W87735  44.677  20.212   0.664
15311W        W87736  44.212  36.664  13.886
15312W        W87737  16.328   7.096  14.425
15313W        W87738  13.364  14.681  11.954
15314W        W87739  30.235  37.800  13.324
15315W        W87740   8.202  22.493  10.564
15316W        W87741  10.221  20.627  10.180
15317W        W87742  29.643   2.670   3.270
15318W        W87743  37.096  14.332   0.857
15319W        W87744  15.732  41.292  12.903
15320W        W87745   8.194   2.278  10.686
15321W        W87746  23.731  40.441  10.551
15322W        W87747  30.195  35.479   2.326
15323W        W87748  44.573  22.167  11.164
15324W        W87749  11.628   1.370  11.557
15325W        W87750  17.232  44.553  11.474
15326W        W87751   4.926  35.759   2.274
15327W        W87752   7.191  41.037   2.747
15328W        W87753  41.305  40.955  11.878
15329W        W87754  17.666  42.029  10.723
15330W        W87755   9.774  24.211  13.259
15331W        W87756   2.841  23.168  11.525
15332W        W87757  42.656  16.477  12.155
15333W        W87758  40.747   0.183  13.281
15334W        W87759  35.033   1.841   0.809
15335W        W87760  32.913   8.219  12.524
15336W        W87761  17.739  34.017   4.596
15337W        W87762  35.415  22.078   3.903
15338W        W87763  20.503   6.705  14.836
15339W        W87764  11.547  33.320   1.658
15340W        W87765  27.162  33.902   2.698
15341W        W87766  31.352  19.454   5.076
15342W        W87767  44.849  23.958  13.409
15343W        W87768  34.456  19.262   1.694
15344W        W87769   3.199  26.149   3.704
15345W        W87770  19.596  28.909  11.137
15346W        W87771  10.909  40.057   2.237
15347W        W87772  29.342   1.958  13.369
15348W        W87773  43.346  43.994   2.897
15349W        W87774   7.994   9.742  14.342
15350W        W87775  44.559  15.443  10.156
15351W        W87776   9.701   8.861   1.123
15352W        W87777  10.791  43.043  12.022
15353W        W87778   1.547  18.771   2.141
15354W        W87779  43.378  23.073  12.990
15355W        W87780  11.740  30.574  11.154
15356W        W87781   2.696  37.378  10.809
15357W        W87782  32.192  21.967  13.668
15358W        W87783  41.891  42.806  11.643
15359W        W87784  32.523  37.514   2.235
15360W        W87785  34.522   8.492   4.694
15361W        W87786  33.873   4.463  11.668
15362W        W87787  36.346  10.902   2.885
15363W        W87788   2.313  33.817  14.917
15364W        W87789  35.049  25.435   1.147
15365W        W87790   4.983  37.959  14.818
15366W        W87791  18.437   2.958   3.805
15367W        W87792   2.318  33.056   1.123
15368W        W87793  40.026  36.584  11.417
15369W        W87794  13.850   1.930  14.266
15370W        W87795  20.082  29.703   1.276
15371W        W87796  25.216   1.088   1.903
15372W        W87797  21.975  18.657   0.547
15373W        W87798  24.683  43.040  14.479
15374W        W87799  29.230   9.843   3.797
15375W        W87800  11.238  32.308  12.821
15376W        W87801  34.525   9.250  14.234
15377W        W87802  22.650   6.015  11.412
15378W        W87803  11.151   5.204  12.481
15379W        W87804  12.145   6.724  10.579
15380W        W87805  20.729  15.784  11.128
15381W        W87806  33.794  40.998   4.863
15382W        W87807  14.871  18.608  13.310
15383W        W87808   3.990  38.671   2.172
15384W        W87809  39.908   5.717  13.265
15385W        W87810  28.054  42.868  10.707
15386W        W87811   2.499  21.143   1.435
15387W        W87812  41.476  14.587   1.419
15388W        W87813   2.918  31.467   1.253
15389W        W87814  43.691  35.938   3.981
15390W        W87815  44.707   6.333  11.658
15391W        W87816  29.652  22.600  11.134
15392W        W87817  29.098  22.533   2.619
15393W        W87818  17.512  11.510  11.125
15394W        W87819  12.849  43.808   3.131
15395W        W87820  14.236  22.028  10.752
15396W        W87821  19.885  41.730  14.050
15397W        W87822  12.611  42.787   3.335
15398W        W87823  11.769   9.655   4.574
15399W        W87824   2.384  31.623  12.572
15400W        W87825  42.036  43.102   4.623
15401W        W87826  41.946   9.857   1.161
15402W        W87827   7.451  28.789   2.912
15403W        W87828   5.141  28.490  10.860
15404W        W87829  33.413  41.916   0.087
15405W        W87830  41.365  43.964   0.745
15406W        W87831  20.488  30.656   3.241
15407W        W87832  16.214   0.807  11.054
15408W        W87833  38.309  16.804   3.691
15409W        W87834   4.870  16.085   1.891
15410W        W87835  37.497   0.513   1.350
15411W        W87836  17.088  29.437  12.159
15412W        W87837  13.888  18.955  13.873
15413W        W87838  22.563   8.928  10.114
15414W        W87839  26.655  37.901   3.688
15415W        W87840  34.599  14.695   3.578
15416W        W87841  22.802  13.590   0.964
15417W        W87842  10.028  43.575   2.741
15418W        W87843  42.215  21.767   0.197
15419W        W87844   1.341  36.949   4.139
15420W        W87845  38.817   7.317  11.889
15421W        W87846  41.763  10.308   1.338
15422W        W87847  14.632  22.235  12.831
15423W        W87848  29.553   0.910  14.826
15424W        W87849  16.062   7.148  12.138
15425W        W87850  38.361  34.481   3.728
15426W        W87851  29.110  40.009   3.380
15427W        W87852  36.941  31.464   4.670
15428W        W87853  29.861   9.247  14.776
15429W        W87854   0.723  16.230  11.880
15430W        W87855  44.298   4.185   1.826
15431W        W87856  21.006   8.423   0.784
15432W        W87857   0.186  34.147  12.566
15433W        W87858  29.518   1.923  10.419
15434W        W87859  23.475   5.525  12.947
15435W        W87860  20.491   8.841  13.729
15436W        W87861  21.968  10.178  14.827
15437W        W87862  40.783   2.418   3.216
15438W        W87863  33.647   5.672   4.950
15439W        W87864  34.020  36.325   0.736
15440W        W87865  19.186  21.660   4.780
15441W        W87866  18.663  22.614  11.660
15442W        W87867  30.164   5.227   1.241
15443W        W87868  34.635   8.217  13.289
15444W        W87869  43.903   2.053  11.195
15445W        W87870   8.392  39.562  13.568
15446W        W87871  30.515  43.895  11.625
15447W        W87872  13.136  42.268  14.003
15448W        W87873  13.944  44.795  11.244
15449W        W87874   9.931  22.255  14.939
15450W        W87875  28.927  15.337  11.609
15451W        W87876  40.295   7.329   1.793
15452W        W87877  35.496   9.220   3.496
15453W        W87878  12.272  21.258   3.536
15454W        W87879  22.010  40.937  14.490
15455W        W87880  36.892  10.159   4.854
15456W        W87881   2.562  24.518   3.862
15457W        W87882  39.636  14.734   3.698
15458W        W87883  40.758  14.720   2.224
15459W        W87884  26.916  30.829   3.838
15460W        W87885  23.706  37.397   1.378
15461W        W87886  16.198  42.308  11.635
15462W        W87887  10.132  27.704   2.298
15463W        W87888   2.905  27.211   2.887
15464W        W87889  27.568   7.372   3.497
15465W        W87890  17.258  25.679   1.923
15466W        W87891  36.346  29.193   2.319
15467W        W87892  15.635  39.309   0.372
15468W        W87893  13.831   4.839   3.708
15469W        W87894  12.907  27.924  11.195
15470W        W87895  37.836  37.391  12.459
15471W        W87896   2.508   4.848  13.007
15472W        W87897  39.364   3.399   3.194
15473W        W87898  12.771   5.959  13.570
15474W        W87899  32.355  35.094  10.176
15475W        W87900  39.272   9.593   3.132
15476W        W87901  39.769   5.815   1.773
15477W        W87902  42.797  16.615  11.676
15478W        W87903   4.117   9.692   2.250
15479W        W87904  31.698  23.566   3.142
15480W        W87905  21.756   4.483   0.980
15481W        W87906  29.869   5.279  12.616
15482W        W87907   8.766  21.112   2.950
15483W        W87908  26.992  20.599  10.816
15484W        W87909  23.154  20.487  10.997
15485W        W87910  11.773  39.653   3.264
15486W        W87911  30.840  21.680  11.411
15487W        W87912  41.518  38.387   0.655
15488W        W87913  13.068  44.593   3.792
15489W        W87914  12.611  22.282   3.293
15490W        W87915  25.649  35.542  11.113
15491W        W87916  44.326   7.115   1.763
15492W        W87917   7.365  35.230  14.907
15493W        W87918  44.918  20.108  13.078
15494W        W87919  39.637  39.634   2.869
15495W        W87920  37.726   4.180   3.603
15496W        W87921  22.568  15.766  11.553
15497W        W87922  28.646  29.173   4.114
15498W        W87923  44.319  18.781   5.069
15499W        W87924  37.598   2.932   1.786
15500W        W87925  31.520   9.876   2.874
15501W        W87926  23.917  39.963   3.700
15502W        W87927  19.347  38.578  12.959
15503W        W87928   0.905  25.351  11.508
15504W        W87929  13.976  21.981   3.613
15505W        W87930  43.133  30.939   0.859
15506W        W87931  26.936  33.764  11.934
15507W        W87932   3.964  34.416  10.595
15508W        W87933  43.112  24.495  10.713
15509W        W87934  23.659  37.870   4.531
15510W        W87935  42.774  11.882   4.602
15511W        W87936  27.719  29.074  12.113
15512W        W87937   2.513  24.082   4.172
15513W        W87938  34.542  27.580   0.375
15514W        W87939  32.574  10.742   2.377
15515W        W87940   0.048  10.154   2.307
15516W        W87941  18.709  21.458   4.836
15517W        W87942  32.414  18.729  10.230
15518W        W87943  13.877  16.698  10.749
15519W        W87944   2.106  43.447  11.192
15520W        W87945  10.525  26.850  14.180
15521W        W87946  42.711   1.539  13.371
15522W        W87947  32.549   6.293   1.162
15523W        W87948  12.610  33.042   4.610
15524W        W87949   5.729   3.690   2.778
15525W        W87950   1.702   3.340   2.326
15526W        W87951   5.283  43.713  14.818
15527W        W87952  14.073   1.938   4.405
15528W        W87953  16.743   5.211  10.828
15529W        W87954  17.646  10.328  12.722
15530W        W87955  35.291  17.195  12.908
15531W        W87956  38.875   2.279  12.099
15532W        W87957  20.742  19.732  10.448
15533W        W87958  20.014   2.305   2.767
15534W        W87959  12.065  26.309   4.929
15535W        W87960  13.247  35.366  14.019
15536W        W87961  38.122  43.848   1.380
15537W        W87962  42.152   5.128   0.728
15538W        W87963  15.738  34.996   4.674
15539W        W87964   0.254   1.893   0.040
15540W        W87965  17.113   5.483  11.061
15541W        W87966   0.783   9.635  14.394
15542W        W87967  31.242  18.676   5.352
15543W        W87968   2.869  10.363  13.943
15544W        W87969  43.351   7.415  11.956
15545W        W87970  22.114  38.247   3.330
15546W        W87971  24.949   7.780  13.042
15547W        W87972  33.327  37.371   4.077
15548W        W87973   8.358  15.747   1.730
15549W        W87974  33.728  28.699   2.728
15550W        W87975  12.633   7.363   4.375
15551W        W87976  18.231  33.502  13.871
15552W        W87977  26.117  28.173   3.251
15553W        W87978  10.636  43.012   3.243
15554W        W87979   8.985  14.297  12.917
15555W        W87980  16.189  35.952  11.323
15556W        W87981  14.593  24.446  12.957
15557W        W87982  37.918  41.224   4.138
15558W        W87983  42.492  11.222  11.574
15559W        W87984  23.651  43.858  11.675
15560W        W87985  31.075   0.368  10.658
15561W        W87986  23.202  31.026  14.852
15562W        W87987   2.467  22.649  13.529
15563W        W87988  17.042   6.752   2.905
15564W        W87989  21.663  43.205  14.056
15565W        W87990   3.846  34.947   1.675
15566W        W87991  32.683  13.810   2.949
15567W        W87992  33.150  29.041   4.256
15568W        W87993  32.948   6.296  14.223
15569W        W87994  28.338  41.983  10.412
15570W        W87995  12.784  30.337   1.936
15571W        W87996  26.464  42.651   5.038
15572W        W87997  37.690   1.944   0.915
15573W        W87998  29.978  27.100  12.104
15574W        W87999  43.429  42.906  11.426
15575W        W88000  21.087   9.725  11.637
15576W        W88001  32.286  13.423   2.268
15577W        W88002  22.950  22.295   4.355
15578W        W88003   4.825  44.475   2.857
15579W        W88004  14.644  10.819   0.461
15580W        W88005  20.283  21.240   4.630
15581W        W88006  32.303  35.509  12.443
15582W        W88007   6.107   6.274  12.631
15583W        W88008  14.993  29.086  11.609
15584W        W88009  36.914  35.996  12.860
15585W        W88010  28.386   6.945  11.581
15586W        W88011  40.572  24.033   0.859
15587W        W88012  12.326  36.321  10.910
15588W        W88013  29.757  16.971  12.858
15589W        W88014  39.327  26.230   4.688
15590W        W88015   9.630  20.409   3.758
15591W        W88016  21.040  40.577   2.439
15592W        W88017  35.605   8.170   2.845
15593W        W88018   0.451  37.210  11.167
15594W        W88019   6.006  28.962  11.601
15595W        W88020  42.681  39.344  13.527
15596W        W88021  14.613  14.173  13.656
15597W        W88022  10.733  10.976   3.224
15598W        W88023   2.693  16.370  13.489
15599W        W88024  36.539  42.115  11.634
15600W        W88025  13.419  35.018   4.982
15601W        W88026  29.407  22.267   3.913
15602W        W88027   6.224  44.340   3.257
15603W        W88028   6.928  18.693   0.725
15604W        W88029  30.675   4.715  12.493
15605W        W88030   6.307  17.003   5.066
15606W        W88031  42.739  23.242   3.445
15607W        W88032  17.157  12.652  12.490
15608W        W88033  16.651  37.785  12.327
15609W        W88034  10.278  32.490  14.389
15610W        W88035  41.776  33.825   4.652
15611W        W88036  42.874  42.207  12.555
15612W        W88037  26.707   7.791  12.393
15613W        W88038  15.640  43.471  13.551
15614W        W88039  24.212  11.462  12.677
15615W        W88040  12.547  21.613   5.027
15616W        W88041  10.631   7.220  14.417
15617W        W88042  39.163  11.648  10.177
15618W        W88043  19.613   1.961   5.201
15619W        W88044  42.748   2.497  14.736
15620W        W88045   5.395  36.172  14.851
15621W        W88046  14.832  38.403   0.934
15622W        W88047   8.582  26.187  12.295
15623W        W88048  38.377  42.110   0.428
15624W        W88049  32.829  20.188  13.269
15625W        W88050  33.055  30.174   3.137
15626W        W88051  21.676   9.118   0.869
15627W        W88052  23.071  42.822   3.809
15628W        W88053  32.850  41.579   2.668
15629W        W88054  10.140  39.892  12.112
15630W        W88055  23.015  36.611   2.412
15631W        W88056   9.318  27.498   2.314
15632W        W88057  19.584  42.604   4.973
15633W        W88058  43.415  22.269   1.541
15634W        W88059   9.918   9.784  12.663
15635W        W88060  24.129  37.568  14.837
15636W        W88061  42.823  10.907  10.634
15637W        W88062  15.823   6.199   1.360
15638W        W88063  14.856  29.479   2.699
15639W        W88064   8.791  39.329   4.930
15640W        W88065   6.676   4.761   0.806
15641W        W88066  23.000  29.025  14.988
15642W        W88067  28.583  10.280  11.262
15643W        W88068  26.534  26.989   3.115
15644W        W88069  39.488   0.376   0.772
15645W        W88070  28.443  36.902  13.943
15646W        W88071  16.401  15.600   2.552
15647W        W88072  14.151  35.000   1.796
15648W        W88073  28.719   2.961  14.771
15649W        W88074  35.815  21.653  12.888
15650W        W88075  20.566  28.431  12.438
15651W        W88076  19.525   8.473   4.186
15652W        W88077  14.605  42.301  13.104
15653W        W88078  41.925  30.591  12.513
15654W        W88079  25.031  30.622   1.400
15655W        W88080   9.745  42.009  13.513
15656W        W88081  11.070   7.134   4.954
15657W        W88082  36.805   6.230   4.830
15658W        W88083  12.975  18.061   4.478
15659W        W88084  24.085   1.070   4.903
15660W        W88085  16.728  27.047  11.979
15661W        W88086   8.039  20.989   2.190
15662W        W88087  14.238  44.455  10.964
15663W        W88088  29.007  44.483  11.672
15664W        W88089  42.002   8.171  11.122
15665W        W88090  11.336  27.605   4.895
15666W        W88091   8.598  30.740  11.285
15667W        W88092  35.185   5.352   1.363
15668W        W88093  41.769   3.285   0.708
15669W        W88094   9.957   6.921   3.383
15670W        W88095  44.804  20.027   4.546
15671W        W88096   3.979  28.441   3.766
15672W        W88097  16.607  18.997   3.182
15673W        W88098  12.476  35.804  11.108
15674W        W88099  32.812   5.421   3.509
15675W        W88100  27.069  30.217  11.185
15676W        W88101  33.819  20.092  12.557
15677W        W88102  29.542  26.345  12.378
15678W        W88103  17.587   4.405  12.107
15679W        W88104  37.372   8.833   2.193
15680W        W88105  31.374  24.703  11.633
15681W        W88106  14.808  44.917  12.576
15682W        W88107  18.349  37.573   9.950
15683W        W88108  32.908   1.920   4.082
15684W        W88109   2.349  31.099  13.463
15685W        W88110  28.165  14.736  14.438
15686W        W88111   2.803   5.382  12.887
15687W        W88112  31.348  36.119   0.287
15688W        W88113  11.151  14.067  10.969
15689W        W88114   6.937  35.629   2.557
15690W        W88115  14.387  18.191   3.088
15691W        W88116  27.134  19.934   4.958
15692W        W88117  35.085  34.145  12.378
15693W        W88118  26.511   6.151   3.244
15694W        W88119  12.718   7.184   0.760
15695W        W88120  14.431  29.044   1.901
15696W        W88121  33.124  27.215  11.544
15697W        W88122  17.633  23.585  11.440
15698W        W88123  38.612  16.559  12.506
15699W        W88124  44.265  41.258  10.583
15700W        W88125  12.377  21.888  10.089
15701W        W88126  34.317  34.789   1.608
15702W        W88127  28.223  26.115   1.943
15703W        W88128  20.146  19.095  13.869
15704W        W88129  41.903  16.123   4.474
15705W        W88130   9.174   7.334   1.396
15706W        W88131  33.148   1.482   2.701
15707W        W88132  22.770   1.921  12.165
15708W        W88133  14.287  33.925   4.688
15709W        W88134  37.884   7.875  14.464
15710W        W88135  28.237  18.457   9.957
15711W        W88136   2.265  39.975  13.198
15712W        W88137  16.062  36.489   1.151
15713W        W88138   7.735  32.059   0.860
15714W        W88139  23.674  33.456   4.377
15715W        W88140  21.756  28.227  12.912
15716W        W88141  13.726  25.951  13.763
15717W        W88142   0.391  30.405  10.982
15718W        W88143  43.369   0.892   2.665
15719W        W88144   4.484  29.405  12.899
15720W        W88145  39.879  26.549  11.156
15721W        W88146  43.390  23.981  13.930
15722W        W88147  28.093   2.371   2.219
15723W        W88148  30.087  41.980   0.262
15724W        W88149  35.409  42.008  10.814
15725W        W88150  33.700   1.324  14.778
15726W        W88151  12.082  10.721   3.266
15727W        W88152  19.154  14.780  10.656
15728W        W88153  25.663   1.315   3.851
15729W        W88154  29.983   2.318   1.857
15730W        W88155   5.770  43.720  11.959
15731W        W88156  27.575  41.536  11.074
15732W        W88157   0.163  18.294   0.868
15733W        W88158  41.041  24.212   4.268
15734W        W88159  32.457  41.457  13.162
15735W        W88160  14.764  31.865  11.680
15736W        W88161  12.006  18.724  11.561
15737W        W88162  33.352  44.006   2.328
15738W        W88163  25.676  32.654   9.579
15739W        W88164  22.329  44.865  10.571
15740W        W88165  42.450  40.590   1.481
15741W        W88166  43.640  43.598   3.161
15742W        W88167  19.723  14.235   4.577
15743W        W88168  40.872  13.878   3.293
15744W        W88169  33.885   0.420  12.015
15745W        W88170  32.608  25.075  10.765
15746W        W88171  12.736  36.150   1.926
15747W        W88172  22.047  31.230   3.747
15748W        W88173  41.530  44.574   3.347
15749W        W88174  17.066  44.999  10.583
15750W        W88175  39.494   2.764  12.418
15751W        W88176  13.090   5.194  14.728
15752W        W88177  24.706  24.237  11.329
15753W        W88178  12.652  32.365  10.790
15754W        W88179  33.119  41.489   0.182
15755W        W88180  26.209  10.713  13.057
15756W        W88181   6.226  41.369  12.346
15757W        W88182  29.532  31.979   5.274
15758W        W88183   7.458  23.557   1.942
15759W        W88184   4.783   9.297   0.398
15760W        W88185  13.200   9.379   3.720
15761W        W88186   8.267  35.638  11.131
15762W        W88187   4.781   2.021  12.348
15763W        W88188  19.503   1.807   0.158
15764W        W88189  26.527   8.283   4.103
15765W        W88190  26.496  37.312   4.970
15766W        W88191  26.875  34.776  11.753
15767W        W88192  38.422  17.427  11.357
15768W        W88193  30.772  18.924  11.746
15769W        W88194  40.416  28.805  12.760
15770W        W88195  27.401  34.494  12.408
15771W        W88196   0.368   2.108   2.718
15772W        W88197  19.802  10.726  11.938
15773W        W88198  28.529  32.532   2.259
15774W        W88199  35.601  42.312   4.774
15775W        W88200  28.408  32.813  14.799
15776W        W88201  35.787  23.841   3.689
15777W        W88202  44.270  37.222   2.384
15778W        W88203  43.539  26.433  12.026
15779W        W88204  44.201   3.703  14.944
15780W        W88205   1.464   5.962  13.011
15781W        W88206  43.402  20.160   1.798
15782W        W88207   8.596  40.010   5.229
15783W        W88208  10.680  32.700  13.478
15784W        W88209   8.656   5.690   2.831
15785W        W88210  19.208  35.026   0.341
15786W        W88211  26.696  28.659  11.623
15787W        W88212  31.200  10.428   4.855
15788W        W88213  42.545  43.021  10.874
15789W        W88214  17.133  42.803   2.158
15790W        W88215  37.315  24.127   1.284
15791W        W88216  33.416  26.168  10.990
15792W        W88217  41.994  31.608   0.403
15793W        W88218  22.760   5.702   1.283
15794W        W88219   6.840  12.538  11.665
15795W        W88220  18.640  10.767   0.341
15796W        W88221   3.382  16.347   3.748
15797W        W88222   4.505  40.439   1.182
15798W        W88223  19.199  10.814   2.355
15799W        W88224  32.487  43.074  14.972
15800W        W88225  15.062  13.891  14.457
15801W        W88226  30.672   2.657   3.384
15802W        W88227  26.456  14.525  12.562
15803W        W88228  42.264  23.270   2.372
15804W        W88229  36.898  38.536   4.646
15805W        W88230  28.018   3.801  13.872
15806W        W88231  32.648  34.343   4.881
15807W        W88232  28.350  33.328   1.354
15808W        W88233  35.304  37.662   1.237
15809W        W88234   2.184  14.904  13.439
15810W        W88235  26.016   4.366   0.961
15811W        W88236  11.168  24.120  13.057
15812W        W88237  28.740   9.221  13.368
15813W        W88238   2.712   6.280  13.830
15814W        W88239   3.497  37.937  11.147
15815W        W88240  13.652  24.072  12.909
15816W        W88241  42.719  11.084   0.359
15817W        W88242  13.088  32.003   0.395
15818W        W88243  23.425  28.065  14.266
15819W        W88244  40.491   1.100   4.509
15820W        W88245  40.986   5.086  11.787
15821W        W88246  28.444  32.371   3.795
15822W        W88247   7.165  26.521   0.065
15823W        W88248  28.547  17.229   1.023
15824W        W88249  36.424  40.411  10.530
15825W        W88250  24.090  35.055  10.645
15826W        W88251  36.543  16.998  13.418
15827W        W88252  29.521   1.727   5.109
15828W        W88253  42.552  40.546  12.097
15829W        W88254  29.972  12.511   1.717
15830W        W88255  35.808   9.515  13.921
15831W        W88256   4.174  31.808  14.003
15832W        W88257  27.913  10.335  13.005
15833W        W88258  18.771   2.532  13.025
15834W        W88259   0.273  44.770  11.979
15835W        W88260   1.497  38.179  11.137
15836W        W88261  17.896  20.260   3.245
15837W        W88262  18.214  11.300   4.821
15838W        W88263  39.344  31.740  12.703
15839W        W88264  18.113   8.309  13.923
15840W        W88265   2.247  25.385   2.763
15841W        W88266  32.350  43.832  11.995
15842W        W88267   7.423  11.188  12.519
15843W        W88268  25.989  21.551  13.891
15844W        W88269  21.155   8.874  12.910
15845W        W88270  29.597   8.882  12.901
15846W        W88271  42.099  35.170   2.865
15847W        W88272  27.970  21.964   2.239
15848W        W88273  11.583  26.616  10.411
15849W        W88274   3.572  36.603   3.829
15850W        W88275   8.932  23.059   2.724
15851W        W88276   2.988   8.696   1.468
15852W        W88277  26.943  34.254   2.369
15853W        W88278  31.519  29.494  10.586
15854W        W88279  23.130  18.197   4.499
15855W        W88280  41.723  40.856   3.392
15856W        W88281  44.229  30.979   3.139
15857W        W88282  29.932  11.551   1.269
15858W        W88283  34.372  32.884  10.665
15859W        W88284   1.296  17.081  12.059
15860W        W88285  33.451  29.474   4.198
15861W        W88286  13.149  17.588  13.715
15862W        W88287  44.290  30.053  10.199
15863W        W88288  22.716  34.639  13.579
15864W        W88289  38.992   1.156   3.629
15865W        W88290  40.255  44.442   1.880
15866W        W88291  40.309   3.519   4.153
15867W        W88292  31.113  44.453   2.960
15868W        W88293   4.128  19.631   0.973
15869W        W88294  37.989  31.830  10.244
15870W        W88295  12.281  39.326   1.267
15871W        W88296  29.919  38.555  14.342
15872W        W88297  18.940  38.183   0.181
15873W        W88298   7.745   6.627   4.114
15874W        W88299   3.842  42.834   2.753
15875W        W88300  27.147  31.586   2.847
15876W        W88301  14.317  19.529   0.463
15877W        W88302  39.195  27.385  13.126
15878W        W88303  23.128  24.974  13.094
15879W        W88304   3.848  42.727   1.318
15880W        W88305  20.084  29.721  12.435
15881W        W88306  13.870   3.254  13.504
15882W        W88307  14.697   8.183  12.966
15883W        W88308  29.510  33.138   2.849
15884W        W88309  11.484  44.968   0.357
15885W        W88310   8.299  14.800   1.942
15886W        W88311   2.180  34.831   1.358
15887W        W88312  27.170   0.226  10.700
15888W        W88313  32.510  40.429   4.090
15889W        W88314  34.614   1.331   2.872
15890W        W88315  27.442   7.684  12.225
15891W        W88316  15.197   9.596  13.157
15892W        W88317  41.768  30.841   4.202
15893W        W88318   2.350  24.777  14.871
15894W        W88319   2.426  35.443   2.632
15895W        W88320  26.404  34.170   0.251
15896W        W88321  20.008  33.143   4.189
15897W        W88322  10.639  25.107  10.980
15898W        W88323  29.738  26.548  14.495
15899W        W88324  11.422  30.078  11.994
15900W        W88325  17.156  35.390  12.898
15901W        W88326  41.103  18.703   1.294
15902W        W88327  40.189  37.238   4.057
15903W        W88328  36.876   3.974   0.717
15904W        W88329  19.510  32.499  10.455
15905W        W88330  41.581  13.618   2.793
15906W        W88331  21.240  38.410  14.009
15907W        W88332  26.102  33.439  12.839
15908W        W88333  11.403  40.313  12.202
15909W        W88334   4.855  23.945  12.444
15910W        W88335  24.282  26.962   2.703
15911W        W88336   8.382  26.045  14.428
15912W        W88337  38.265  35.800  12.130
15913W        W88338   2.951  20.655   1.752
15914W        W88339  24.690  34.288  11.711
15915W        W88340   1.767  30.725   1.244
15916W        W88341  25.172  27.406   3.256
15917W        W88342   0.043  22.690  12.642
15918W        W88343  34.051  38.099   2.274
15919W        W88344   6.938  10.131   3.627
15920W        W88345  43.966  43.382   3.713
15921W        W88346  21.985  11.229   4.596
15922W        W88347  11.387  30.140  14.199
15923W        W88348  14.620  27.086  11.425
15924W        W88349  14.801  19.236   2.424
15925W        W88350  19.256  38.476   2.049
15926W        W88351  11.302  35.862  14.155
15927W        W88352  39.769   9.934  14.860
15928W        W88353  38.836  13.112   3.656
15929W        W88354  43.887  34.272   4.326
15930W        W88355   4.545   8.728   1.311
15931W        W88356  44.199  10.729   3.756
15932W        W88357   6.598  42.313   0.841
15933W        W88358  34.960  35.239   5.206
15934W        W88359  41.763  41.712   4.368
15935W        W88360   7.685  18.064   0.602
15936W        W88361  29.884  25.510   3.048
15937W        W88362  12.291  23.201  11.970
15938W        W88363  40.785   3.339   4.067
15939W        W88364   2.361  34.903  13.991
15940W        W88365   6.489  13.840  11.653
15941W        W88366  23.588  26.479  12.883
15942W        W88367  40.723   5.126  13.912
15943W        W88368  12.731   0.728   3.172
15944W        W88369   8.382   8.598  12.963
15945W        W88370  37.987  32.554   4.646
15946W        W88371  10.399  37.602  11.112
15947W        W88372  24.929  21.167  12.948
15948W        W88373  25.641  35.166   4.414
15949W        W88374  35.363  33.002   1.482
15950W        W88375  14.404  19.141   4.232
15951W        W88376  11.634  13.564  13.418
15952W        W88377   7.685  32.423   1.240
15953W        W88378  44.090   7.691  12.089
15954W        W88379  20.770  19.751  12.684
15955W        W88380  24.385  14.666   2.230
15956W        W88381  26.803  10.429   3.877
15957W        W88382  42.522  15.339   4.524
15958W        W88383  18.042  38.047  13.682
15959W        W88384  33.137  16.421   2.917
15960W        W88385  20.733  29.449  11.556
15961W        W88386  16.608  40.989   2.186
15962W        W88387  27.517  27.824   0.932
15963W        W88388  39.628   4.874  12.878
15964W        W88389  17.868  10.492   0.722
15965W        W88390   5.914  40.440  10.411
15966W        W88391  33.013  42.309   1.840
15967W        W88392  10.304   1.235  11.185
15968W        W88393  19.261  21.211  13.904
15969W        W88394  35.107  29.429  14.059
15970W        W88395  13.347  29.955   4.129
15971W        W88396  35.801   7.196   3.747
15972W        W88397  27.424  13.305  13.159
15973W        W88398  27.477  31.153  11.242
15974W        W88399  27.374  21.445   1.400
15975W        W88400   9.055  32.354   1.427
15976W        W88401  41.369  12.056   1.921
15977W        W88402  14.096   7.161   4.523
15978W        W88403  25.515  30.903   1.250
15979W        W88404  30.424  30.559  12.474
15980W        W88405  27.094  29.993   4.963
15981W        W88406   9.725  32.886   4.904
15982W        W88407  16.906  32.917   2.764
15983W        W88408   5.459   9.225   0.392
15984W        W88409   8.880  36.636   1.155
15985W        W88410   6.623  24.178  14.741
15986W        W88411   2.795  36.052  10.603
15987W        W88412  44.753  28.044  12.427
15988W        W88413   3.673  23.298  12.190
15989W        W88414  21.088  15.486  12.960
15990W        W88415   9.463  44.909  14.407
15991W        W88416  20.582   1.790  12.030
15992W        W88417  37.378  36.955  11.053
15993W        W88418  21.065  32.541  11.484
15994W        W88419  31.328  23.665  10.739
15995W        W88420  32.644  20.060  10.558
15996W        W88421   7.380  21.645  10.789
15997W        W88422  30.548  29.887  13.399
15998W        W88423  20.731  11.700   0.919
15999W        W88424   1.329  18.050   4.649
16000W        W88425  38.920   0.482   1.829
16001W        W88426  27.094   8.710  14.359
16002W        W88427  14.028   1.703  11.019
16003W        W88428  26.536   0.783  13.491
16004W        W88429   1.428   6.033   1.384
16005W        W88430   9.124  35.399  12.081
16006W        W88431  44.556  22.276  12.035
16007W        W88432  19.578  10.250   0.230
16008W        W88433  36.144  41.529   2.182
16009W        W88434  22.549   0.430  12.485
16010W        W88435  33.325  27.338  11.070
16011W        W88436  40.012  37.034   1.901
16012W        W88437  29.125  38.517  12.025
16013W        W88438   9.367  16.749   2.177
16014W        W88439   7.093  43.891  13.466
16015W        W88440  35.850  15.909   4.176
16016W        W88441   2.749  42.906  11.523
16017W        W88442   6.639  23.467   2.255
16018W        W88443   6.751  37.258   0.372
16019W        W88444  44.744  37.945   1.657
16020W        W88445  36.314  13.064   1.403
16021W        W88446  23.736  16.450  10.965
16022W        W88447  18.823  21.492  11.194
16023W        W88448  41.247  20.760  14.963
16024W        W88449  37.394  40.927  11.453
16025W        W88450  25.567   5.618   3.230
16026W        W88451  18.575  41.331  14.948
16027W        W88452  31.842  36.985   2.742
16028W        W88453   8.815  26.697  10.584
16029W        W88454  28.033  11.159   4.272
16030W        W88455  38.825  25.843  12.045
16031W        W88456  35.251  16.173   0.033
16032W        W88457  12.282  30.987  14.411
16033W        W88458   9.577  28.569   1.301
16034W        W88459  36.919  12.681  11.217
16035W        W88460  37.408  16.078   2.794
16036W        W88461  16.084   3.211  11.557
16037W        W88462  34.598  41.376   1.090
16038W        W88463  44.763  23.255  10.924
16039W        W88464   2.720  40.923   4.639
16040W        W88465  26.248  40.702  13.523
16041W        W88466  31.306   6.384  12.428
16042W        W88467  43.556  34.697  14.443
16043W        W88468  24.767   2.422  14.349
16044W        W88469  39.872  44.207   5.447
16045W        W88470  17.613   0.836   4.532
16046W        W88471  37.919  17.793  12.071
16047W        W88472  27.546   0.022  14.326
16048W        W88473   0.780  36.415   2.733
16049W        W88474  42.984  28.966   0.468
16050W        W88475  14.340  42.982   1.334
16051W        W88476  12.580  18.314   1.282
16052W        W88477  31.345  25.048  14.767
16053W        W88478  14.131  42.274  12.286
16054W        W88479   9.013  24.623   1.719
16055W        W88480  32.422  36.061   2.423
16056W        W88481   0.536  10.892   3.212
16057W        W88482  10.557  38.383  14.334
16058W        W88483  14.350  33.950  10.775
16059W        W88484  40.767  28.755   0.031
16060W        W88485   9.133  12.788   0.679
16061W        W88486  40.111  42.955   0.182
16062W        W88487  15.596  34.402   1.722
16063W        W88488  24.991  26.212   1.171
16064W        W88489   5.200   3.886  14.251
16065W        W88490  20.589  12.139   1.934
16066W        W88491  13.710  25.004  11.243
16067W        W88492  42.065   9.696  13.000
16068W        W88493  42.943   5.740  12.391
16069W        W88494  31.726  38.554  12.494
16070W        W88495   6.557  37.622  13.823
16071W        W88496  40.795  43.908  10.886
16072W        W88497  31.875  18.702   2.305
16073W        W88498  31.363  44.299  10.696
16074W        W88499  24.148  36.666  10.599
16075W        W88500  29.616  25.005   4.527
16076W        W88501  33.181  10.564   3.106
16077W        W88502  21.335  44.913   1.470
16078W        W88503  39.817  24.552  13.370
16079W        W88504  35.139  13.054   2.768
16080W        W88505   5.127  21.712  12.911
16081W        W88506   5.697  20.050   0.451
16082W        W88507  24.416  43.402  11.492
16083W        W88508   7.879  15.180   0.185
16084W        W88509  23.231  41.445   1.311
16085W        W88510   0.756  14.601   3.740
16086W        W88511  16.776  21.076   1.593
16087W        W88512  43.834  30.069  13.172
16088W        W88513   5.209  18.720   3.183
16089W        W88514   0.252  36.777  14.328
16090W        W88515  22.124   1.991  14.967
16091W        W88516  19.488  40.920   2.835
16092W        W88517   2.941  12.907   4.357
16093W        W88518  16.518  33.402  10.293
16094W        W88519  22.409  24.268   3.642
16095W        W88520  29.532  17.593  10.500
16096W        W88521  35.063  12.718   4.840
16097W        W88522  26.503  41.803   2.416
16098W        W88523   8.749   2.969   3.570
16099W        W88524  35.293  26.152  12.095
16100W        W88525   4.690  16.843  14.387
16101W        W88526   5.613  11.229   0.872
16102W        W88527   4.316  13.403   4.942
16103W        W88528  37.383  10.555   0.003
16104W        W88529  26.730  44.011   4.919
16105W        W88530   6.173  22.566   2.884
16106W        W88531   9.719  29.426   0.000
16107W        W88532  32.059  27.669   1.143
16108W        W88533  28.807  14.805   3.457
16109W        W88534   6.941  20.100  14.360
16110W        W88535  12.840   2.770   0.696
16111W        W88536  36.039  11.041  12.196
16112W        W88537  36.034   1.876   0.374
16113W        W88538   6.343   1.130  13.037
16114W        W88539   8.166  31.398   1.821
16115W        W88540   1.066   3.736  11.864
16116W        W88541  25.751  11.413  14.064
16117W        W88542  19.647   6.045  12.187
16118W        W88543  29.051  23.414   0.765
16119W        W88544  33.545  39.611   1.892
16120W        W88545  29.484  17.142  13.254
16121W        W88546  11.817  32.642   4.552
16122W        W88547   1.714  28.513   1.483
16123W        W88548   3.785  39.249  14.575
16124W        W88549  36.035  43.545   1.734
16125W        W88550   3.278  41.427   1.239
16126W        W88551  13.270  34.468   3.337
16127W        W88552  35.367  21.176  10.739
16128W        W88553  25.249  10.189   0.448
16129W        W88554   0.248   9.601  14.889
16130W        W88555  41.892   7.127  12.850
16131W        W88556  43.273  22.709  12.407
16132W        W88557  43.300  40.988  12.597
16133W        W88558   0.956  44.229  13.952
16134W        W88559  35.949   4.358   3.928
16135W        W88560  37.567   3.760  10.710
16136W        W88561  13.329  18.314   3.344
16137W        W88562  44.981   1.396  13.449
16138W        W88563  31.922   2.110  14.354
16139W        W88564  23.192  23.935   3.663
16140W        W88565  15.573  12.069  14.458
16141W        W88566   4.235  21.190  14.219
16142W        W88567  16.039  27.578   2.403
16143W        W88568   0.009  39.837  10.749
16144W        W88569  20.489  41.215  10.452
16145W        W88570  31.465  34.202  14.482
16146W        W88571  35.622  21.015  12.412
16147W        W88572  37.548  18.034   1.103
16148W        W88573   5.932  33.539  13.944
16149W        W88574  36.341  17.740   2.201
16150W        W88575  42.859  32.332  13.817
16151W        W88576  12.711   0.124  13.333
16152W        W88577  21.751  27.469  11.993
16153W        W88578  23.719  20.246   1.120
16154W        W88579  36.205  21.093   2.645
16155W        W88580  33.357  26.692  10.682
16156W        W88581  41.723  14.498   2.283
16157W        W88582  27.677  32.465  12.847
16158W        W88583  36.407  37.004   1.163
16159W        W88584  24.999   8.840   3.954
16160W        W88585  33.022  43.394   2.865
16161W        W88586  18.225  30.214  12.562
16162W        W88587  33.553  29.664  11.707
16163W        W88588   6.392  35.576   4.135
16164W        W88589   4.784  20.700  12.221
16165W        W88590  32.267  18.478  12.253
16166W        W88591  11.774  39.082  11.949
16167W        W88592  29.475  32.973  11.662
16168W        W88593  32.663   9.693   0.783
16169W        W88594   4.489  34.475  11.919
16170W        W88595  43.806   6.805  14.794
16171W        W88596  31.496  33.424   3.569
16172W        W88597  32.920  18.839   4.477
16173W        W88598  36.867   0.461   0.773
16174W        W88599   3.804   0.194   2.478
16175W        W88600  11.128  21.700  13.068
16176W        W88601  29.026  13.829   1.183
16177W        W88602  40.896   6.739   3.893
16178W        W88603   8.269   7.882  10.675
16179W        W88604  30.478  32.263   2.097
16180W        W88605  27.504   3.978   2.360
16181W        W88606  31.956   8.358   1.813
16182W        W88607  31.707  11.628  14.946
16183W        W88608   5.420  20.732   3.066
16184W        W88609  34.455  28.766   0.930
16185W        W88610   9.474  32.054  13.328
16186W        W88611  32.404  36.550   0.873
16187W        W88612  28.639  35.725   3.333
16188W        W88613  18.805  18.142   0.697
16189W        W88614  33.550  19.613   1.823
16190W        W88615   1.510   1.456  11.006
16191W        W88616  21.648  27.979   3.366
16192W        W88617  22.036  19.350   1.191
16193W        W88618  30.675   5.275   0.365
16194W        W88619  34.051  22.885  13.416
16195W        W88620   6.026  20.624   1.752
16196W        W88621  10.801  41.501   1.657
16197W        W88622  40.623  39.922  13.139
16198W        W88623  24.936  12.003   0.957
16199W        W88624  31.390   0.866   2.312
16200W        W88625  12.945   1.375   2.299
16201W        W88626  24.616   7.956  10.555
16202W        W88627  22.351   0.873  11.107
16203W        W88628   2.725  33.075  14.816
16204W        W88629  30.497  17.758   2.306
16205W        W88630  34.900  18.026  13.477
16206W        W88631  29.430  14.455   2.506
16207W        W88632   5.276  18.807   1.440
16208W        W88633  31.605  42.313   4.617
16209W        W88634  41.774  38.278   4.620
16210W        W88635  39.536  31.608   2.334
16211W        W88636  41.270   3.687  11.106
16212W        W88637  16.824  24.391  14.994
16213W        W88638  11.518  25.843   0.064
16214W        W88639  27.629  43.567   0.530
16215W        W88640  40.274  23.514   4.305
16216W        W88641  32.832  43.702  13.907
16217W        W88642  21.598   1.990  11.513
16218W        W88643   7.784   1.857  12.453
16219W        W88644   9.828  13.588  12.066
16220W        W88645   1.749   0.451   3.175
16221W        W88646  41.741  31.212  11.157
16222W        W88647  14.084  19.556  12.066
16223W        W88648  20.031  44.109  13.399
16224W        W88649  18.783  26.845   0.818
16225W        W88650  37.857  43.986  12.125
16226W        W88651  43.809  41.419   2.645
16227W        W88652  28.471   2.507  13.411
16228W        W88653  21.566   3.743  10.993
16229W        W88654   4.205  20.089  11.989
16230W        W88655   8.004  10.189  13.426
16231W        W88656  13.393  19.181  13.020
16232W        W88657  38.844   8.343  10.895
16233W        W88658  33.769  32.082  11.586
16234W        W88659  18.509  30.044   4.490
16235W        W88660   7.707  39.583  12.558
16236W        W88661  15.144   4.605   1.783
16237W        W88662  27.106  34.970  10.130
16238W        W88663  34.039  25.185  10.470
16239W        W88664  22.507  27.595   1.943
16240W        W88665  33.131  37.047   2.227
16241W        W88666  16.663  26.083   3.887
16242W        W88667  32.500  20.296   3.228
16243W        W88668  12.728  31.129   4.643
16244W        W88669  35.428  37.392  14.098
16245W        W88670   2.460  29.988  10.534
16246W        W88671  42.878  13.151  10.954
16247W        W88672  14.053  18.776   4.166
16248W        W88673  44.143  27.640   0.876
16249W        W88674  38.572  31.885  11.631
16250W        W88675  25.145  29.005  11.165
16251W        W88676  42.422  24.726  11.343
16252W        W88677  33.546  15.084   1.699
16253W        W88678   7.014  43.534  11.504
16254W        W88679   5.703   2.724   4.719
16255W        W88680  40.644  19.681   5.088
16256W        W88681  31.798  16.317   0.296
16257W        W88682  44.009  35.038  10.516
16258W        W88683  32.724   8.307  13.422
16259W        W88684  11.075  28.416   1.577
16260W        W88685  44.899  38.927  11.578
16261W        W88686  44.415  43.021  11.064
16262W        W88687  44.789   2.999   4.632
16263W        W88688   3.881  40.613  14.824
16264W        W88689  37.185   4.380  13.329
16265W        W88690   9.686  40.809  10.746
16266W        W88691   9.753   2.513   3.714
16267W        W88692  35.611  43.247   1.754
16268W        W88693  39.956  25.111   4.879
16269W        W88694   9.410  15.604  12.827
16270W        W88695  25.571  36.036   2.838
16271W        W88696  29.071  29.221  11.110
16272W        W88697  11.247  28.275  13.985
16273W        W88698  22.070   0.202   1.135
16274W        W88699   3.857  40.097  10.860
16275W        W88700  36.498   1.290   1.357
16276W        W88701  33.537  16.803  13.488
16277W        W88702  28.536  20.701  10.683
16278W        W88703  35.284  31.300   4.118
16279W        W88704   8.354   9.915   1.217
16280W        W88705  44.155   1.325   0.237
16281W        W88706   4.926   8.803   3.165
16282W        W88707  15.882  11.286  13.395
16283W        W88708   2.180  42.429   3.243
16284W        W88709  28.170  10.566   0.432
16285W        W88710  42.766  13.288  12.984
16286W        W88711  20.662  12.451   0.435
16287W        W88712  11.926   2.686  14.442
16288W        W88713  19.772   6.163   2.806
16289W        W88714  14.034  24.971   0.751
16290W        W88715  42.439   7.463   0.520
16291W        W88716  32.377  40.857   2.914
16292W        W88717  44.910  21.965  14.962
16293W        W88718  26.663  23.315  14.625
16294W        W88719  35.772  12.302   3.785
16295W        W88720   2.776  39.960   4.972
16296W        W88721  19.997  44.628  13.418
16297W        W88722  43.933  17.339   0.363
16298W        W88723  20.058  32.185   1.664
16299W        W88724   3.867   7.384  11.202
16300W        W88725  22.872   8.345   1.793
16301W        W88726  14.262   4.279  13.447
16302W        W88727  19.722  23.789  14.454
16303W        W88728  10.681  18.598  12.819
16304W        W88729  31.370   1.009  12.613
16305W        W88730  43.267  33.060   1.420
16306W        W88731  31.905  29.068  14.485
16307W        W88732  40.758  44.750   0.936
16308W        W88733  24.583  13.252  13.033
16309W        W88734   1.790  32.085  13.063
16310W        W88735  33.395   7.281   1.422
16311W        W88736  44.812   5.804  14.988
16312W        W88737  21.551  43.707  12.162
16313W        W88738  32.001  28.388   3.253
16314W        W88739  30.627  20.613   4.161
16315W        W88740  44.586  15.002  12.843
16316W        W88741  31.958  38.995   4.527
16317W        W88742  17.763  28.953  11.493
16318W        W88743  14.957  34.011   2.239
16319W        W88744  41.955  15.602   0.855
16320W        W88745  41.672   7.849   3.701
16321W        W88746   3.717  14.903  10.750
16322W        W88747  29.091  27.186   0.511
16323W        W88748  26.658  15.145   0.827
16324W        W88749  41.028  40.501   3.308
16325W        W88750  26.020  17.630   1.149
16326W        W88751  21.762  24.029  11.948
16327W        W88752  26.322  37.941   1.684
16328W        W88753  22.622   5.445   4.843
16329W        W88754   5.909  21.659   4.057
16330W        W88755   3.867   5.446  12.896
16331W        W88756  19.207  10.377   3.415
16332W        W88757   1.475  41.275  14.953
16333W        W88758   5.895   9.390  12.541
16334W        W88759  36.631  33.862   4.137
16335W        W88760  23.687   9.917  14.743
16336W        W88761  11.714  39.329  11.348
16337W        W88762  24.058  14.178   0.436
16338W        W88763  33.452  30.331  10.568
16339W        W88764  41.991  38.080   3.942
16340W        W88765   2.365  35.370   0.606
16341W        W88766  21.061   1.367  12.095
16342W        W88767  20.943   4.650  10.886
16343W        W88768  28.223   9.210  12.163
16344W        W88769  20.041  21.397  12.888
16345W        W88770  22.756   3.698   4.134
16346W        W88771  11.091  11.589   2.809
16347W        W88772  36.914  31.703  12.431
16348W        W88773  41.853  43.309  12.947
16349W        W88774  39.298  44.005   2.843
16350W        W88775  40.819  34.545   0.596
16351W        W88776  28.654  44.466  12.976
16352W        W88777  38.789  39.600   4.992
16353W        W88778  14.885  37.852  12.365
16354W        W88779  29.503  16.170  14.932
16355W        W88780   9.066  44.917   4.615
16356W        W88781  22.881  11.400   1.995
16357W        W88782  31.192  40.337   0.236
16358W        W88783  13.618  22.939   1.384
16359W        W88784  21.007  37.497  10.154
16360W        W88785  26.487  39.718  13.066
16361W        W88786   8.563  41.233   3.760
16362W        W88787  44.369   3.271  10.531
16363W        W88788  42.793  10.569   3.534
16364W        W88789   1.769  28.689  10.745
16365W        W88790  33.368  39.368  13.884
16366W        W88791  13.631   7.237   2.246
16367W        W88792  29.616  35.148   3.401
16368W        W88793  40.409   3.671  12.545
16369W        W88794  11.313  39.339   2.082
16370W        W88795   8.876  16.294  11.144
16371W        W88796  21.322  34.305  10.727
16372W        W88797   8.498  27.823  11.488
16373W        W88798  31.428   7.210  10.440
16374W        W88799   1.869   3.445   3.038
16375W        W88800  31.557  33.672   2.391
16376W        W88801  17.737  43.003   3.298
16377W        W88802  27.986  22.718   4.660
16378W        W88803  32.125  18.848  11.338
16379W        W88804  25.463   1.272   0.238
16380W        W88805   0.189  28.706   1.849
16381W        W88806  34.524  13.062  12.973
16382W        W88807   1.237  34.632  13.380
16383W        W88808  20.268   8.022   1.273
16384W        W88809  23.747  13.495  12.985
16385W        W88810  29.120  43.812   0.239
16386W        W88811   7.103   3.587  13.877
16387W        W88812  30.624  36.982  13.480
16388W        W88813  15.443  36.214  13.558
16389W        W88814  35.688   1.862   4.563
16390W        W88815  32.651  30.186  12.518
16391W        W88816  41.801  14.616   4.713
16392W        W88817  18.135  22.798   4.243
16393W        W88818  24.486  34.839   4.876
16394W        W88819  19.359  35.438  12.830
16395W        W88820   7.161   1.414   4.789
16396W        W88821  35.081  19.305   3.782
16397W        W88822  29.942   3.028  14.119
16398W        W88823  15.466  16.249  13.770
16399W        W88824  26.943   2.715   0.384
16400W        W88825  34.882  38.140  12.590
16401W        W88826  27.415  12.720  12.401
16402W        W88827  15.650  19.552  11.737
16403W        W88828  43.453  41.339   4.649
16404W        W88829   7.752  39.442   2.708
16405W        W88830  38.435   0.396  13.508
16406W        W88831  15.370  30.505   3.235
16407W        W88832  23.984   5.184   0.871
16408W        W88833  17.633   2.849  12.375
16409W        W88834   1.464   2.506  11.127
16410W        W88835  27.569  34.957  11.997
16411W        W88836  40.430  30.874  13.360
16412W        W88837   6.972  16.663  11.144
16413W        W88838  34.132  22.083   3.374
16414W        W88839  35.282  29.529  14.967
16415W        W88840  42.551  29.412   2.210
16416W        W88841  36.470  42.374   4.681
16417W        W88842  37.587  30.878   1.415
16418W        W88843  25.441  19.075   4.212
16419W        W88844   2.864  33.998  12.578
16420W        W88845  11.411  17.048  12.824
16421W        W88846   4.566   8.936   2.622
16422W        W88847  18.820  12.717  13.081
16423W        W88848  42.872  42.644   3.748
16424W        W88849  39.905  18.827  14.525
16425W        W88850  36.988   5.284  12.827
16426W        W88851  26.161  28.593  10.786
16427W        W88852  28.059  12.717  13.166
16428W        W88853  13.087  39.210   2.140
16429W        W88854  23.882   0.239   2.000
16430W        W88855  13.389  23.939  13.339
16431W        W88856  40.340  42.531  14.296
16432W        W88857  20.067   6.311   0.926
16433W        W88858  23.612   7.887   4.171
16434W        W88859  12.252  33.972   4.899
16435W        W88860  15.362  36.127   1.783
16436W        W88861   4.752  40.968   4.687
16437W        W88862  27.586  12.736   1.437
16438W        W88863  17.232  33.578  11.646
16439W        W88864  19.550  42.265  11.961
16440W        W88865  23.808  10.344   0.130
16441W        W88866   8.592   3.140   1.281
16442W        W88867  23.220   7.460  13.142
16443W        W88868  39.567   7.468   2.608
16444W        W88869   4.178  13.164  11.184
16445W        W88870  31.405  43.780   0.419
16446W        W88871  14.720  15.795  12.446
16447W        W88872   1.260  11.502  13.689
16448W        W88873  44.229   6.418   3.671
16449W        W88874   1.781  17.546  12.882
16450W        W88875  42.104   7.277  10.736
16451W        W88876  28.743  39.840  12.901
16452W        W88877   3.879  34.813   2.707
16453W        W88878  25.410  25.020   5.114
16454W        W88879  22.885  39.174   3.146
16455W        W88880   5.178  20.118   2.692
16456W        W88881  26.070  37.604  14.488
16457W        W88882   6.158  29.459  10.748
16458W        W88883   0.739  41.250  10.557
16459W        W88884  30.577  35.271  10.985
16460W        W88885  35.617  32.657  10.704
16461W        W88886   5.340   8.084   3.363
16462W        W88887  42.789  30.203  14.915
16463W        W88888  44.330  36.050   0.885
16464W        W88889  32.596  29.065   1.369
16465W        W88890   8.820  39.169   0.544
16466W        W88891  13.588   5.749  14.923
16467W        W88892  34.453   4.475   3.386
16468W        W88893  33.948   6.471  10.408
16469W        W88894  25.642  31.422  11.459
16470W        W88895  33.353  31.037  12.962
16471W        W88896   1.015  20.125   0.154
16472W        W88897  30.107   4.882  10.426
16473W        W88898   6.652  21.556  12.484
16474W        W88899   2.244  25.138   0.285
16475W        W88900  30.609  39.387   1.315
16476W        W88901  35.379  31.522   1.800
16477W        W88902  41.946  14.150  12.434
16478W        W88903  13.921  24.288  10.308
16479W        W88904  14.183  42.950   4.571
16480W        W88905  44.564  42.857  12.467
16481W        W88906   4.608   3.911  11.748
16482W        W88907   7.664  23.706   0.294
16483W        W88908  13.710  24.553   0.677
16484W        W88909  39.323   9.958   0.785
16485W        W88910  32.693  28.406   4.659
16486W        W88911  28.769  31.393  11.507
16487W        W88912  40.637  11.422  14.345
16488W        W88913  39.004  40.153   4.888
16489W        W88914  10.278   6.813  11.107
16490W        W88915   0.967   9.678  13.411
16491W        W88916   6.315  36.770  13.697
16492W        W88917  10.509  16.235   5.011
16493W        W88918  20.100  41.001  14.364
16494W        W88919  14.350  15.854  14.751
16495W        W88920   8.913  25.541   3.402
16496W        W88921   5.942  28.978  10.740
16497W        W88922  19.396   1.463   5.608
16498W        W88923  41.303  35.508   0.238
16499W        W88924  23.672  16.236   3.198
16500W        W88925  15.096  42.580   0.700
16501W        W88926  36.115  18.041  13.037
16502W        W88927  25.234   0.240  11.722
16503W        W88928   0.995  37.111   2.348
16504W        W88929   2.332  37.401  14.757
16505W        W88930  30.083  37.569  13.779
16506W        W88931  21.136  42.985  11.107
16507W        W88932  33.626  36.793   1.414
16508W        W88933  15.215  42.312  14.741
16509W        W88934  25.525   7.897   0.096
16510W        W88935  31.724  10.692  13.373
16511W        W88936  20.392   9.548   5.032
16512W        W88937  28.880  18.263   1.171
16513W        W88938   7.911  35.210   1.350
16514W        W88939  44.561  26.683  10.699
16515W        W88940   8.137  30.857  11.112
16516W        W88941  20.903  41.353   2.295
16517W        W88942  22.640  37.981   3.658
16518W        W88943   1.810  33.129  10.444
16519W        W88944   6.684  26.183   1.513
16520W        W88945   3.794  24.949  14.932
16521W        W88946   8.145  35.038  10.670
16522W        W88947  19.982  18.227   4.953
16523W        W88948  20.636  36.834  13.914
16524W        W88949   2.852  20.672   1.236
16525W        W88950  28.700  27.404  14.309
16526W        W88951  30.042  27.963   0.492
16527W        W88952  30.456  15.639   4.597
16528W        W88953  41.592  14.259  14.154
16529W        W88954  23.164  15.546  12.639
16530W        W88955   0.355  32.805   1.220
16531W        W88956  30.094  10.587   1.485
16532W        W88957   2.416  29.221   1.935
16533W        W88958  20.133  25.740  13.056
16534W        W88959  16.445  19.775  12.362
16535W        W88960  32.636  15.112   2.706
16536W        W88961   5.358   4.174  10.658
16537W        W88962   9.396  35.991   0.440
16538W        W88963   2.237  29.065  13.481
16539W        W88964  36.671  31.553  14.942
16540W        W88965  14.788  42.348   4.273
16541W        W88966  17.823  39.651  11.583
16542W        W88967   2.806  18.062   4.706
16543W        W88968  13.731   1.254  14.509
16544W        W88969  12.290  11.806  12.659
16545W        W88970   0.924  30.211   3.179
16546W        W88971  41.771  40.406  13.396
16547W        W88972   9.643  17.568   3.251
16548W        W88973  37.536   9.168   0.406
16549W        W88974   1.536  14.214   3.698
16550W        W88975  35.456  25.702  11.036
16551W        W88976  28.618   1.388   4.094
16552W        W88977  41.818  21.884   4.018
16553W        W88978  22.419   3.961   1.408
16554W        W88979  18.340  24.665  10.951
16555W        W88980  25.138  15.838  11.213
16556W        W88981  17.149  32.124  12.824
16557W        W88982   6.217  12.101   2.653
16558W        W88983  10.330  24.926   5.165
16559W        W88984  41.721  36.414   2.045
16560W        W88985   8.635   3.304   1.770
16561W        W88986  12.033  30.509  10.686
16562W        W88987   8.204  24.467  10.810
16563W        W88988  26.908  31.959  14.027
16564W        W88989   3.516   1.517   2.003
16565W        W88990  29.044  14.312   2.203
16566W        W88991  33.969  30.062   3.165
16567W        W88992  27.645   6.349  11.498
16568W        W88993  21.506  15.799   2.887
16569W        W88994  31.863  15.317  14.390
16570W        W88995  22.326  29.932   0.302
16571W        W88996  17.685  18.913  13.948
16572W        W88997  40.470  16.040  11.049
16573W        W88998   6.606   6.737  12.876
16574W        W88999  29.889  24.359  10.924
16575W        W89000  15.678  28.518   4.315
16576W        W89001  20.866  11.268  14.002
16577W        W89002  20.768   7.460  14.561
16578W        W89003  32.660  18.861  12.874
16579W        W89004  31.016  44.025  13.033
16580W        W89005   2.454  13.389   2.331
16581W        W89006  18.685  26.738   2.145
16582W        W89007  38.257  19.725   0.251
16583W        W89008  30.041  13.583   1.708
16584W        W89009   1.399  37.892  10.681
16585W        W89010  14.143  38.832   1.282
16586W        W89011   7.801  38.728  12.082
16587W        W89012  31.111   5.301   1.310
16588W        W89013   4.951  43.367   4.386
16589W        W89014   7.957   3.900  13.887
16590W        W89015  32.147  40.106   2.330
16591W        W89016  42.236  31.641  14.558
16592W        W89017  32.221  33.320   0.954
16593W        W89018  10.114  25.209  11.699
16594W        W89019   4.800  43.322   1.336
16595W        W89020  29.497  23.393   0.544
16596W        W89021  19.098   3.378  12.820
16597W        W89022   0.048   8.748   1.662
16598W        W89023  19.955   4.133   4.136
16599W        W89024  37.953  33.146   3.376
16600W        W89025  39.054  17.277  12.950
16601W        W89026  36.462  15.694  13.024
16602W        W89027  28.424  29.510   0.750
16603W        W89028  35.615  38.790  12.419
16604W        W89029  40.494  15.808   0.827
16605W        W89030  33.880  43.921  12.107
16606W        W89031  21.152  13.946  11.861
16607W        W89032  14.032   0.246  12.804
16608W        W89033  21.699  19.105  10.584
16609W        W89034   6.645  13.123  14.256
16610W        W89035  14.813  42.220  11.148
16611W        W89036  39.578  35.124   0.742
16612W        W89037  23.211  28.609   2.804
16613W        W89038  24.459  12.563  11.922
16614W        W89039  34.809  19.657   1.977
16615W        W89040  41.084  19.964  13.342
16616W        W89041  26.553  42.354  14.761
16617W        W89042  14.974  44.468  13.278
16618W        W89043  24.647  20.135  12.501
16619W        W89044  33.435  16.120  11.767
16620W        W89045  22.057  41.939  14.490
16621W        W89046   5.811  44.236   2.303
16622W        W89047   1.194  21.191  13.412
16623W        W89048   7.354  22.629   1.071
16624W        W89049  24.147  23.361   3.613
16625W        W89050  33.721  10.227  11.245
16626W        W89051  25.671  19.750  13.943
16627W        W89052  18.560  44.172  11.219
16628W        W89053  20.698  40.201   0.919
16629W        W89054  24.953   5.136   4.612
16630W        W89055  38.408   6.152   1.163
16631W        W89056  14.782   9.498  13.467
16632W        W89057   6.867  13.175   3.642
16633W        W89058   4.023  36.471   0.902
16634W        W89059  36.117  33.926  14.846
16635W        W89060  15.011  29.002   2.855
16636W        W89061   6.308  26.012   4.713
16637W        W89062  40.774   3.709  11.285
16638W        W89063  36.434  34.970   2.941
16639W        W89064  26.213  41.599  14.518
16640W        W89065  13.337   4.818   3.513
16641W        W89066  13.144  33.744   2.693
16642W        W89067  42.466  14.262  12.434
16643W        W89068  16.637   7.899  13.316
16644W        W89069  19.569  12.691   2.312
16645W        W89070  25.626  31.086  14.753
16646W        W89071  32.578  15.587   2.912
16647W        W89072  13.218  26.053  11.222
16648W        W89073  36.166  41.298   1.687
16649W        W89074  11.163  23.248  11.460
16650W        W89075  14.077   1.342   3.156
16651W        W89076   8.854  11.820   4.110
16652W        W89077  23.530  20.684   0.332
16653W        W89078  41.443   4.652   0.737
16654W        W89079  17.121  22.750   3.263
16655W        W89080  36.243  35.351   1.673
16656W        W89081  13.640   1.566   3.314
16657W        W89082  10.408  36.532   1.059
16658W        W89083  17.712  17.806  14.750
16659W        W89084  25.093  33.038  10.608
16660W        W89085  15.696  41.346   2.623
16661W        W89086  21.990  31.675  12.429
16662W        W89087  22.728  26.538   4.567
16663W        W89088  41.396  44.820  11.751
16664W        W89089   3.400  29.142  14.589
16665W        W89090  22.995  17.107  12.384
16666W        W89091  34.962  24.870   4.990
16667W        W89092  22.594  18.792   3.504
16668W        W89093   7.363  17.643   2.691
16669W        W89094   1.465  29.620   4.440
16670W        W89095  11.198   8.600   2.139
16671W        W89096  41.828   7.793  13.404
16672W        W89097  36.933  11.465  11.532
16673W        W89098  28.584  32.983   5.538
16674W        W89099   2.574  35.093  14.798
16675W        W89100  23.599  26.490   0.692
16676W        W89101  12.332  21.649   0.316
16677W        W89102  43.743  13.388  14.506
16678W        W89103  29.176  24.146  14.068
16679W        W89104  32.519  26.110  14.555
16680W        W89105  12.144  14.125   4.205
16681W        W89106  33.368  14.122  13.273
16682W        W89107  31.354   2.849   0.858
16683W        W89108  18.041  31.538  11.998
16684W        W89109  18.959  16.560   1.866
16685W        W89110  33.407  11.646   2.587
16686W        W89111  32.643  13.870  12.929
16687W        W89112  12.723  41.429   1.325
16688W        W89113  43.624  30.943  12.091
16689W        W89114   5.006   7.268  14.754
16690W        W89115  42.651  34.446  13.554
16691W        W89116  37.441   9.472  12.449
16692W        W89117   0.930  17.113  10.631
16693W        W89118  41.978  41.473  13.768
16694W        W89119  20.741  41.308  11.939
16695W        W89120  18.050   6.418   2.390
16696W        W89121  42.120  27.908  13.590
16697W        W89122   5.920  37.585   1.322
16698W        W89123  13.039  33.684  13.409
16699W        W89124  41.344  24.271  13.322
16700W        W89125  32.375   8.522   1.223
16701W        W89126  11.920   7.235  13.550
16702W        W89127  12.182  17.843   3.722
16703W        W89128   6.336  30.463  12.483
16704W        W89129  21.489  12.124  12.962
16705W        W89130  37.025   7.669   1.792
16706W        W89131  22.061  32.150  12.623
16707W        W89132  38.579   5.772   4.664
16708W        W89133   1.396   0.862   4.289
16709W        W89134  44.083  41.536  14.794
16710W        W89135  21.017   2.451   2.589
16711W        W89136  37.379  11.450  10.295
16712W        W89137  29.558  17.079  10.455
16713W        W89138  17.225   5.872   2.420
16714W        W89139  29.974  26.130  13.323
16715W        W89140  24.035  34.005   1.830
16716W        W89141  17.707   9.778   0.005
16717W        W89142  21.949  39.675   1.278
16718W        W89143  38.023  27.352  14.810
16719W        W89144  21.378  12.836   0.972
16720W        W89145  37.747  16.334  11.170
16721W        W89146  11.050   5.256  14.378
16722W        W89147  11.208  12.773  10.599
16723W        W89148  26.129  38.926  12.083
16724W        W89149  19.576  35.528  11.286
16725W        W89150  15.115  31.658   2.786
16726W        W89151  37.606  16.828   2.357
16727W        W89152  10.735  36.158   4.170
16728W        W89153  22.978  35.625   4.952
16729W        W89154  13.556   4.980   2.280
16730W        W89155  35.768   2.704   4.181
16731W        W89156  27.524   1.036   0.906
16732W        W89157  11.430   5.840   1.973
16733W        W89158  30.879  16.860   2.518
16734W        W89159   2.719   7.304  13.385
16735W        W89160   8.361  10.685   4.531
16736W        W89161  17.601   6.453   1.754
16737W        W89162  22.126  11.268   0.196
16738W        W89163  41.754  28.202   2.328
16739W        W89164  12.110  22.621   3.504
16740W        W89165  27.464   6.004   0.249
16741W        W89166  32.349  40.378   2.726
16742W        W89167   8.837  21.499  14.420
16743W        W89168   6.247   4.154  14.925
16744W        W89169  29.691   8.343   4.683
16745W        W89170  24.533   5.042  10.596
16746W        W89171  37.663  29.091   4.597
16747W        W89172   1.357  17.677  13.649
16748W        W89173  11.764  26.990  12.472
16749W        W89174  16.662  37.153  10.795
16750W        W89175  40.624  18.182  13.517
16751W        W89176  24.325   7.159   3.263
16752W        W89177  38.185  10.100   4.236
16753W        W89178  37.675  43.521   4.740
16754W        W89179   6.768   1.045  13.328
16755W        W89180   3.867   4.698   1.366
16756W        W89181   4.856  33.265  12.495
16757W        W89182   7.575  38.414   5.144
16758W        W89183  36.041  31.753   0.597
16759W        W89184  34.928  26.324  10.648
16760W        W89185  37.350   8.346  13.820
16761W        W89186  35.149  18.944  13.854
16762W        W89187  23.381  34.326  13.031
16763W        W89188   7.238  10.362   1.013
16764W        W89189  42.109  16.616  13.007
16765W        W89190  23.222   6.257   3.572
16766W        W89191  23.009  39.843   4.713
16767W        W89192  13.816  12.704   0.021
16768W        W89193  30.456  15.918   4.142
16769W        W89194  43.467   4.636  14.450
16770W        W89195  37.600  21.481  14.788
16771W        W89196   3.852  25.994  14.834
16772W        W89197   5.971  12.397   1.304
16773W        W89198  23.544  21.033   1.663
16774W        W89199  43.519  21.780   1.363
16775W        W89200  28.344  33.404   2.070
16776W        W89201  25.917   1.455   2.808
16777W        W89202  29.196   0.376  12.903
16778W        W89203  36.466  30.271   4.423
16779W        W89204   7.753  27.612  13.437
16780W        W89205  43.450  36.407   4.683
16781W        W89206  43.345   8.233  13.763
16782W        W89207  29.111   0.768   1.645
16783W        W89208  33.595  43.737  13.396
16784W        W89209   3.170  32.975  13.355
16785W        W89210  44.022  34.312  11.879
16786W        W89211   9.777   3.668   1.813
16787W        W89212  37.737  41.527  14.441
16788W        W89213   2.770  38.296  11.530
16789W        W89214  22.538  16.042   4.194
16790W        W89215  30.556  18.740   3.595
16791W        W89216  24.972  35.160   2.846
16792W        W89217   7.689   2.969  13.896
16793W        W89218  14.037  11.686   4.254
16794W        W89219  17.737  24.371  13.471
16795W        W89220  16.153  38.879   3.622
16796W        W89221  27.002  41.421  11.387
16797W        W89222  44.074   6.738   2.372
16798W        W89223  31.146   9.103   2.263
16799W        W89224  22.668  42.327   4.415
16800W        W89225  29.082  42.485  11.657
16801W        W89226  35.346  13.820   0.737
16802W        W89227  36.541  37.851  11.728
16803W        W89228  41.047  33.682  12.448
16804W        W89229  39.448   6.443  13.813
16805W        W89230   2.168  12.209  12.972
16806W        W89231  20.658  11.766  13.838
16807W        W89232  17.611  36.102  13.831
16808W        W89233  29.607   7.471  11.057
16809W        W89234  10.801  34.762  12.436
16810W        W89235  43.736  13.919  14.525
16811W        W89236  35.811  41.068  10.696
16812W        W89237  36.255  18.512  11.648
16813W        W89238  35.119  11.601  12.878
16814W        W89239  15.604  17.889   0.487
16815W        W89240  17.643  36.067  12.844
16816W        W89241  43.682  43.456   0.210
16817W        W89242  33.164   4.373  13.733
16818W        W89243   3.818  38.979  11.572
16819W        W89244   1.834  28.989  11.161
16820W        W89245   7.901  28.848   0.980
16821W        W89246  28.641   2.806   1.730
16822W        W89247  10.335  21.648   2.284
16823W        W89248  14.594   3.981  13.703
16824W        W89249  37.671  12.008  11.116
16825W        W89250  22.778   9.413   4.529
16826W        W89251  35.285   7.160  11.476
16827W        W89252  28.146  25.509   0.899
16828W        W89253  12.571  14.573   0.778
16829W        W89254  24.012   9.566   2.221
16830W        W89255   5.775  22.509  12.005
16831W        W89256  19.016  26.648   0.397
16832W        W89257  38.101  18.977   3.823
16833W        W89258  43.884  13.603  14.941
16834W        W89259   5.686  42.761   3.236
16835W        W89260  40.041   9.939  12.019
16836W        W89261   0.890  38.298   2.805
16837W        W89262  21.678  35.888   2.272
16838W        W89263  31.917  10.558   2.782
16839W        W89264   3.388  40.645  11.278
16840W        W89265  37.994  36.434  11.673
16841W        W89266  11.709   2.289   3.713
16842W        W89267  20.757  10.274  13.763
16843W        W89268  10.334   7.838   3.136
16844W        W89269  29.726   1.317   4.875
16845W        W89270  30.625  18.083  11.638
16846W        W89271   5.299  12.402  10.772
16847W        W89272   2.742  33.825   3.754
16848W        W89273  30.985  35.932  11.593
16849W        W89274  39.190  44.454  14.978
16850W        W89275  28.483  32.040  12.022
16851W        W89276   0.806  30.555  12.424
16852W        W89277  12.380  25.924   0.044
16853W        W89278  30.159  36.536   2.368
16854W        W89279  40.548   4.300  13.478
16855W        W89280   3.079  10.260   0.949
16856W        W89281   3.173  38.451   1.294
16857W        W89282  21.048  12.127   1.146
16858W        W89283  18.299  39.350  13.244
16859W        W89284   9.973  15.336   3.715
16860W        W89285  40.307  22.459   1.819
16861W        W89286  24.237  28.019  12.609
16862W        W89287  39.489   6.651   3.387
16863W        W89288  36.861  30.969   4.958
16864W        W89289   7.501  17.836   2.206
16865W        W89290  36.802  36.792   1.800
16866W        W89291  24.115   2.514   0.998
16867W        W89292  39.297   6.481  11.985
16868W        W89293  35.699  28.589  13.135
16869W        W89294  35.373  42.396  14.288
16870W        W89295  18.530  40.137  14.399
16871W        W89296  22.044  34.823   2.164
16872W        W89297   3.526  40.618   3.534
16873W        W89298  16.648  39.771   4.481
16874W        W89299   8.762  42.722   1.553
16875W        W89300   6.185  14.811  14.520
16876W        W89301  17.633  20.107  13.085
16877W        W89302  25.514  26.965   3.144
16878W        W89303  38.614  24.156   4.529
16879W        W89304  26.282  25.073  11.505
16880W        W89305  29.413  40.522  11.110
16881W        W89306   4.762  18.992   3.093
16882W        W89307   2.537  39.888   4.061
16883W        W89308  44.880  30.747  11.661
16884W        W89309   1.017  19.329   2.689
16885W        W89310  14.121  13.830  12.572
16886W        W89311  35.814  26.157   1.426
16887W        W89312  26.962  19.944   4.456
16888W        W89313  37.052  32.455   0.752
16889W        W89314   9.058  15.231  12.919
16890W        W89315   3.765   1.382   0.008
16891W        W89316  10.553  19.302  12.223
16892W        W89317  41.974  41.090  10.686
16893W        W89318  43.241  12.669   1.678
16894W        W89319   3.781  17.639   2.695
16895W        W89320   6.753  34.989   1.669
16896W        W89321  37.022  14.638  14.488
16897W        W89322  20.801  18.213   3.849
16898W        W89323  39.832  33.846   3.724
16899W        W89324  21.461  29.569  10.655
16900W        W89325  12.260   4.526   1.934
16901W        W89326   6.925  16.407  11.592
16902W        W89327  43.815  41.018  14.563
16903W        W89328  37.873  36.607  14.835
16904W        W89329   5.649  22.179  14.421
16905W        W89330   3.232   1.862  12.597
16906W        W89331  33.838  14.359  12.914
16907W        W89332  43.873   9.210  14.727
16908W        W89333  29.984  43.522   3.203
16909W        W89334   2.440  10.746  10.752
16910W        W89335   8.239  11.968  14.787
16911W        W89336   3.642  25.495  14.888
16912W        W89337   4.301  38.491   2.535
16913W        W89338  36.646  24.114   0.481
16914W        W89339  31.234  16.275  14.420
16915W        W89340  30.419  15.750   1.418
16916W        W89341   0.065   0.521  11.588
16917W        W89342   8.146   4.107  12.624
16918W        W89343  37.835  39.352  12.543
16919W        W89344  14.880  29.016   1.014
16920W        W89345   3.937   3.244  12.118
16921W        W89346   6.985   1.502  13.546
16922W        W89347  36.349  40.865  13.945
16923W        W89348  36.170  36.333   3.593
16924W        W89349  32.449  22.689  14.361
16925W        W89350  13.386  20.712  12.993
16926W        W89351  25.103   5.258  12.770
16927W        W89352  41.402  24.371  12.018
16928W        W89353  13.452  34.000  13.092
16929W        W89354  10.089  33.526   1.872
16930W        W89355  21.503   3.729   2.368
16931W        W89356  44.345   0.548   1.365
16932W        W89357  20.328  17.749   0.785
16933W        W89358   5.867  34.364  11.604
16934W        W89359   1.315   9.257   4.371
16935W        W89360   7.417   4.275  11.642
16936W        W89361  19.040  36.965  10.718
16937W        W89362  16.019  17.159  12.608
16938W        W89363  37.990  27.438  12.502
16939W        W89364  17.688  41.045  12.180
16940W        W89365   7.133   2.793   4.191
16941W        W89366   6.217  41.580  14.165
16942W        W89367  24.890  33.984  12.098
16943W        W89368  41.735  39.710  14.908
16944W        W89369  34.913   9.586   2.904
16945W        W89370  40.649  24.006   5.118
16946W        W89371  40.785  13.042  12.039
16947W        W89372  10.544  11.250   4.525
16948W        W89373  15.090  16.710  14.121
16949W        W89374  20.588   0.318  10.689
16950W        W89375  33.502  36.130   0.260
16951W        W89376  37.100  39.535   3.737
16952W        W89377  12.829  15.282  13.771
16953W        W89378  13.226   8.359  13.912
16954W        W89379  39.425  13.329  11.076
16955W        W89380  15.909  42.847  13.793
16956W        W89381   3.817  21.945  11.184
16957W        W89382  40.043   4.215   2.454
16958W        W89383  10.165  19.328  11.675
16959W        W89384  15.815   9.446  11.146
16960W        W89385  29.101  31.081   2.473
16961W        W89386   9.388  17.736  12.923
16962W        W89387  23.634   8.865   0.678
16963W        W89388  24.554  19.588  14.856
16964W        W89389  34.711  26.650   1.895
16965W        W89390  16.882  21.103   3.343
16966W        W89391  30.225   7.818   5.298
16967W        W89392  19.041  43.476   1.055
16968W        W89393   3.341  35.929   4.734
16969W        W89394  39.789  28.617   4.339
16970W        W89395  17.726   2.200   3.259
16971W        W89396  41.676   0.450   1.533
16972W        W89397  30.193  26.687   4.602
16973W        W89398  10.845  14.770  11.215
16974W        W89399  25.679   4.230   0.231
16975W        W89400  31.107  26.662   3.777
16976W        W89401  25.108   6.455   3.347
16977W        W89402  39.063  15.714  11.606
16978W        W89403  29.406  43.238   1.014
16979W        W89404  43.356   7.557  11.449
16980W        W89405   1.007  25.500   1.653
16981W        W89406   7.948   0.789   2.009
16982W        W89407  25.195  13.519   4.653
16983W        W89408   9.021  31.735  12.624
16984W        W89409  26.387  23.727  12.574
16985W        W89410  20.980   7.361   1.854
16986W        W89411  40.267  24.664   3.686
16987W        W89412  19.087   2.429  13.550
16988W        W89413  17.606  23.834   0.511
16989W        W89414  33.566  25.827  12.414
16990W        W89415  21.404  29.388  13.575
16991W        W89416  40.302  32.615  12.385
16992W        W89417  16.589   9.628  10.678
16993W        W89418  10.283  18.528   1.701
16994W        W89419  37.308   9.682  10.866
16995W        W89420  18.305  42.557  14.492
16996W        W89421   4.348  29.179   1.406
16997W        W89422  39.502  11.454  14.867
16998W        W89423   8.348   1.347   3.347
16999W        W89424  11.412  11.601   0.471
17000W        W89425   7.992  11.945   2.385
17001W        W89426   2.476  18.676  13.868
17002W        W89427  41.238  19.206  12.127
17003W        W89428  33.619   6.151  10.144
17004W        W89429  40.377  26.692  13.076
17005W        W89430  34.977  28.055  14.524
17006W        W89431   5.984   8.271  14.842
17007W        W89432  28.385   1.423   1.756
17008W        W89433   6.416  18.787   4.547
17009W        W89434  18.494  16.323   3.170
17010W        W89435  17.913  13.186  11.460
17011W        W89436  23.451  11.929   0.944
17012W        W89437  38.802  23.574  11.530
17013W        W89438  31.486  31.975  10.253
17014W        W89439  28.038   0.370   3.498
17015W        W89440  32.135  30.135  11.625
17016W        W89441  33.872  34.051   1.219
17017W        W89442  26.678  16.618   0.472
17018W        W89443  11.695  42.606  11.224
17019W        W89444   3.423  39.334  12.463
17020W        W89445  37.819  29.493   0.865
17021W        W89446   0.005  32.494  14.835
17022W        W89447  18.246  37.046  11.196
17023W        W89448  30.140  17.104  11.131
17024W        W89449  24.106   2.331   0.514
17025W        W89450  36.524  29.654   2.174
17026W        W89451  28.916  14.770   0.044
17027W        W89452   2.834  33.152  12.147
17028W        W89453   7.291   2.851  10.989
17029W        W89454  22.778  27.243   1.664
17030W        W89455  42.894   0.729   2.406
17031W        W89456  41.134   7.693   0.377
17032W        W89457  27.431  18.127  13.142
17033W        W89458  15.213   3.631  14.245
17034W        W89459   1.268  42.854  13.496
17035W        W89460   9.825  13.223   2.407
17036W        W89461  39.801  20.341  13.065
17037W        W89462   2.402  38.573  11.274
17038W        W89463   4.297  34.082   1.755
17039W        W89464   2.596  41.162  13.546
17040W        W89465  36.919  44.381  12.068
17041W        W89466  13.910  38.887   4.320
17042W        W89467  13.201  19.072   0.767
17043W        W89468  33.630  35.010  11.590
17044W        W89469  27.502  37.403  14.471
17045W        W89470   0.038  44.299   1.541
17046W        W89471   9.399   4.410  14.815
17047W        W89472  33.741  11.690   2.207
17048W        W89473  25.773  20.187   1.761
17049W        W89474  13.704  27.621  13.086
17050W        W89475   4.912  23.634  12.040
17051W        W89476  13.634  44.511   1.260
17052W        W89477   2.620  24.195   2.751
17053W        W89478  41.166  25.434   3.753
17054W        W89479   6.616   2.326   3.356
17055W        W89480  32.865   5.177   0.850
17056W        W89481  16.217  13.151  10.636
17057W        W89482  14.671   9.410  10.424
17058W        W89483  14.319  12.735   4.673
17059W        W89484  18.059  43.532   4.921
17060W        W89485  22.037  43.002  12.482
17061W        W89486  32.039  17.955   1.174
17062W        W89487  37.921  14.575  10.531
17063W        W89488  23.690   1.894   3.801
17064W        W89489   9.815  28.440  12.311
17065W        W89490  30.151   6.873  13.008
17066W        W89491  23.456  11.568   4.578
17067W        W89492  12.253  10.941   1.238
17068W        W89493  13.851  12.841  10.421
17069W        W89494  34.401  10.675   0.949
17070W        W89495  20.605  26.853   4.380
17071W        W89496  21.614  31.715  13.536
17072W        W89497   9.707  20.735  11.896
17073W        W89498  19.235  10.422   1.988
17074W        W89499   1.723  24.206   2.625
17075W        W89500   3.151   9.758  14.908
17076W        W89501  19.042  31.496  12.586
17077W        W89502  13.950  43.194   3.610
17078W        W89503  38.100  21.517  11.613
17079W        W89504  43.342  23.696  12.563
17080W        W89505  31.553  17.299   0.378
17081W        W89506  17.018   5.003   0.132
17082W        W89507  33.172  23.791  10.309
17083W        W89508  38.375  13.822  12.001
17084W        W89509  11.347  16.206  11.666
17085W        W89510  21.211   1.368  10.741
17086W        W89511  19.031  25.233  11.136
17087W        W89512  16.001  41.394  12.468
17088W        W89513   6.247  37.068   9.495
17089W        W89514  12.018   1.247   0.396
17090W        W89515  18.577  30.441  13.338
17091W        W89516  30.376  30.534  14.988
17092W        W89517   2.460  34.357  14.473
17093W        W89518  36.827   8.406  13.962
17094W        W89519  30.190   4.193  11.178
17095W        W89520  44.009  14.881   0.310
17096W        W89521   4.475  25.624  11.776
17097W        W89522   5.236  29.187   1.358
17098W        W89523  18.420  35.109  12.962
17099W        W89524  12.679   8.699  12.881
17100W        W89525   9.283  38.572  14.991
17101W        W89526  38.956  21.806   1.256
17102W        W89527  35.824  33.959   2.834
17103W        W89528  30.631  30.989   0.062
17104W        W89529   7.491  42.299   3.333
17105W        W89530  36.967   2.375   3.518
17106W        W89531  22.361   5.782   3.673
17107W        W89532   9.000  29.455  12.941
17108W        W89533  19.240  15.667   4.734
17109W        W89534  42.830  20.229   2.726
17110W        W89535  36.549  28.938  14.125
17111W        W89536  28.530  24.431  11.109
17112W        W89537  31.584   7.894   2.338
17113W        W89538  38.790  41.246   1.441
17114W        W89539  10.772  22.468   2.800
17115W        W89540  37.335  44.404   0.039
17116W        W89541   8.637  38.803   2.529
17117W        W89542  37.076  12.187   0.694
17118W        W89543  11.849  43.286   0.435
17119W        W89544   2.728  39.930  14.248
17120W        W89545  34.433  32.486   2.039
17121W        W89546  34.336  11.782   2.944
17122W        W89547  28.569  43.858  14.283
17123W        W89548  12.217  19.809   3.787
17124W        W89549  18.951  29.123  13.905
17125W        W89550  39.094  31.632  11.499
17126W        W89551   0.608  25.151  11.135
17127W        W89552  36.974  27.650   3.727
17128W        W89553  32.034   0.248   2.265
17129W        W89554   2.761  42.301   2.196
17130W        W89555   8.657  28.849   3.332
17131W        W89556  37.006   4.438  10.440
17132W        W89557  26.315  14.081   3.069
17133W        W89558  15.374   8.563  14.401
17134W        W89559  20.039  30.637   3.012
17135W        W89560  12.725   4.490   2.326
17136W        W89561  18.559  27.000  14.414
17137W        W89562  42.581   6.925   1.250
17138W        W89563  12.782   2.676  13.892
17139W        W89564   0.406  10.264  11.146
17140W        W89565  37.880  34.012  14.508
17141W        W89566  30.401  26.715  13.277
17142W        W89567  22.596  29.996   4.126
17143W        W89568   6.713  42.771  13.280
17144W        W89569   7.284   5.750   0.314
17145W        W89570  35.624  44.411   1.205
17146W        W89571  24.685  37.887   3.944
17147W        W89572  25.939  33.869   3.187
17148W        W89573   4.259  29.777  10.855
17149W        W89574  32.615  14.747  14.453
17150W        W89575  11.520  43.315  12.704
17151W        W89576   5.415  29.698  12.951
17152W        W89577  12.629  34.017   2.689
17153W        W89578  31.646  20.337  14.911
17154W        W89579   8.284  44.228   0.229
17155W        W89580  17.173  31.580   1.392
17156W        W89581  23.750  14.678   4.612
17157W        W89582  28.778  29.415  11.487
17158W        W89583  25.143   9.950   4.086
17159W        W89584  29.410   9.327  10.691
17160W        W89585   6.548   6.017   5.069
17161W        W89586  21.009  25.940   2.391
17162W        W89587  14.425  38.976   5.056
17163W        W89588   3.860  24.494   1.133
17164W        W89589  36.089  33.641   0.333
17165W        W89590  33.780   4.176  11.218
17166W        W89591  34.956  28.385   4.331
17167W        W89592  35.545  23.508   4.155
17168W        W89593   8.838  44.813   0.712
17169W        W89594  37.799  23.603  13.150
17170W        W89595  32.965  16.256   0.154
17171W        W89596   8.442   5.268  13.437
17172W        W89597  11.407  39.096   4.612
17173W        W89598  12.049  34.850   2.812
17174W        W89599  40.667  14.261   5.071
17175W        W89600  34.439  35.626  14.259
17176W        W89601  11.813  27.669   3.671
17177W        W89602  39.618  11.700  13.955
17178W        W89603   4.883   5.749   4.811
17179W        W89604  37.325   4.201  13.819
17180W        W89605  18.818   8.849  14.777
17181W        W89606  44.986  20.790  12.548
17182W        W89607  40.974   8.366   2.367
17183W        W89608   7.316  19.559  12.348
17184W        W89609  38.762  35.344  12.943
17185W        W89610   9.952  36.010   0.430
17186W        W89611  17.959  10.845   4.882
17187W        W89612  19.519  42.003   1.888
17188W        W89613  18.578  16.458   4.107
17189W        W89614   9.237  13.597   1.140
17190W        W89615  18.241  25.199  13.387
17191W        W89616  11.382  30.983  11.109
17192W        W89617  14.490  43.025   3.619
17193W        W89618  12.796  44.338  14.916
17194W        W89619  38.766  32.098  11.119
17195W        W89620  43.443  24.129  13.335
17196W        W89621  12.811  21.818  11.093
17197W        W89622  37.480  27.994  14.771
17198W        W89623   0.897  30.478   3.722
17199W        W89624  36.528  15.093   4.172
17200W        W89625  38.469  42.205  10.150
17201W        W89626  17.982  24.026  12.852
17202W        W89627  33.479  43.038   0.248
17203W        W89628  20.754   8.716   2.266
17204W        W89629  20.992  22.692   4.517
17205W        W89630  25.370  31.468   0.086
17206W        W89631  18.766  44.764  10.328
17207W        W89632  31.747  35.583  10.611
17208W        W89633  19.095  35.477   0.582
17209W        W89634  26.664  34.024   3.660
17210W        W89635  42.231   3.416   2.132
17211W        W89636  31.039  25.619  11.153
17212W        W89637   8.225   8.747  13.465
17213W        W89638   1.253  21.316  14.377
17214W        W89639  36.529  19.330  13.868
17215W        W89640   0.227  10.936   2.813
17216W        W89641  35.683   4.840   4.139
17217W        W89642  42.784  15.849   0.495
17218W        W89643   0.330   0.026   3.469
17219W        W89644   3.712  25.568   4.192
17220W        W89645  23.727   7.668   1.390
17221W        W89646  22.191  35.506  12.107
17222W        W89647  22.028   2.383   3.921
17223W        W89648  39.868   2.709   0.052
17224W        W89649  17.827   7.768   4.394
17225W        W89650  40.174  16.662  12.592
17226W        W89651   8.624  43.977   4.899
17227W        W89652   7.355  15.583  11.579
17228W        W89653  14.867  16.265   0.116
17229W        W89654  11.333  41.337  14.484
17230W        W89655  42.033  17.608   4.584
17231W        W89656  31.664  42.515   2.699
17232W        W89657   0.948  23.677  10.760
17233W        W89658  20.127  24.260   5.147
17234W        W89659  40.943  40.907   2.703
17235W        W89660  23.765  41.953   2.262
17236W        W89661   9.301  32.637   2.379
17237W        W89662  36.388  26.970   0.291
17238W        W89663  13.222  17.837   2.806
17239W        W89664  36.974  35.451   1.192
17240W        W89665  16.316  12.289  10.688
17241W        W89666   2.865  25.413  12.617
17242W        W89667  22.968  31.482  11.636
17243W        W89668  13.992   8.158   3.266
17244W        W89669   4.747  16.345  10.077
17245W        W89670  22.150  31.376   0.416
17246W        W89671  29.675   7.643  11.539
17247W        W89672  27.958  24.768   4.588
17248W        W89673  37.546  42.108  13.369
17249W        W89674  13.410  23.784   5.074
17250W        W89675   2.791  10.714  14.351
17251W        W89676   8.685  25.939   2.435
17252W        W89677   5.611  17.981   2.413
17253W        W89678   1.058  12.289   0.210
17254W        W89679  17.672  22.295   2.309
17255W        W89680   5.571  25.390   3.645
17256W        W89681  15.797  35.448   2.923
17257W        W89682  42.331  12.249   2.265
17258W        W89683  20.973  36.657  11.701
17259W        W89684  11.153   4.265  12.518
17260W        W89685  12.237   1.916  14.830
17261W        W89686  17.931  43.141   5.246
17262W        W89687  16.023   4.738   1.244
17263W        W89688  14.820   5.828  13.784
17264W        W89689  18.338  15.292   1.327
17265W        W89690  18.678  10.415   4.296
17266W        W89691  37.923  32.553  12.360
17267W        W89692   9.803  37.125   2.900
17268W        W89693  23.751   0.217  14.485
17269W        W89694  20.027  39.933  11.190
17270W        W89695  26.479  37.101   2.668
17271W        W89696  35.562  20.672   0.993
17272W        W89697  44.879   2.277   2.913
17273W        W89698   9.928  43.885  13.396
17274W        W89699   6.928  25.518  12.574
17275W        W89700  25.560  34.564  12.670
17276W        W89701  31.992  44.348  13.320
17277W        W89702   9.327  22.013   0.727
17278W        W89703  19.107  29.512   4.087
17279W        W89704  12.326   7.925   1.306
17280W        W89705  16.125  42.396  10.717
17281W        W89706  37.096   0.953   4.725
17282W        W89707  20.551  39.715   1.228
17283W        W89708  34.544   8.349  14.418
17284W        W89709  14.770  39.992  11.715
17285W        W89710  26.888  32.429  13.167
17286W        W89711  30.213  29.568  13.935
17287W        W89712   1.772   0.882   2.897
17288W        W89713   0.219  31.508  11.024
17289W        W89714  34.059  33.995   2.903
17290W        W89715  10.480  36.070  11.095
17291W        W89716   0.569   2.816  13.107
17292W        W89717  25.099  36.150   3.705
17293W        W89718  25.715  42.033   3.745
17294W        W89719   6.818  10.388   1.625
17295W        W89720  38.547  16.774  14.948
17296W        W89721  11.929  34.929  11.142
17297W        W89722  20.495  10.513   0.284
17298W        W89723  29.024  43.016  11.662
17299W        W89724  43.513   7.298   2.090
17300W        W89725  16.330   2.508  14.433
17301W        W89726  38.503  38.581   0.351
17302W        W89727  24.930  25.249   4.314
17303W        W89728  14.739  36.940   1.806
17304W        W89729  43.071  19.601   3.102
17305W        W89730  15.319  39.020  11.902
17306W        W89731  28.415   4.282  11.597
17307W        W89732  20.056  11.342   0.714
17308W        W89733  42.370  15.357   3.698
17309W        W89734  33.017   2.246   2.219
17310W        W89735  13.094   2.950  12.061
17311W        W89736  22.070  18.389  13.719
17312W        W89737  43.356   9.144  12.932
17313W        W89738   0.685  38.982   1.905
17314W        W89739  16.089  14.748   2.410
17315W        W89740  26.342  16.700  13.534
17316W        W89741  28.265  29.035  12.128
17317W        W89742  42.295  43.907   1.829
17318W        W89743  16.781   6.701   1.260
17319W        W89744  41.207  27.228   2.854
17320W        W89745  30.975  40.575   1.662
17321W        W89746  11.840   9.843  14.461
17322W        W89747  24.243  43.198  11.929
17323W        W89748  13.256  10.250  13.317
17324W        W89749   3.303  30.471  10.315
17325W        W89750  32.445   0.691   4.862
17326W        W89751  33.012   8.244   3.889
17327W        W89752  23.711  30.634   2.597
17328W        W89753  31.904  24.458   0.941
17329W        W89754   6.739  19.487  12.570
17330W        W89755  19.366  40.788   3.685
17331W        W89756   7.933  22.337   5.026
17332W        W89757  31.945  23.739  13.963
17333W        W89758  10.308   6.424   2.791
17334W        W89759   7.810   8.193   2.254
17335W        W89760  39.364  24.436   0.926
17336W        W89761  11.193  43.970   1.822
17337W        W89762  15.289  16.177  10.666
17338W        W89763   2.865  19.115   1.670
17339W        W89764  38.255   5.788   0.802
17340W        W89765  28.101  32.160   0.703
17341W        W89766  44.290  18.153   3.370
17342W        W89767   8.414  44.398  10.057
17343W        W89768  19.809  30.895  11.636
17344W        W89769  26.760  41.251   1.940
17345W        W89770  22.723  37.000  11.668
17346W        W89771  25.130  23.789  14.004
17347W        W89772  20.560  12.263  12.425
17348W        W89773   4.797  37.013   1.034
17349W        W89774  18.251  11.360   3.337
17350W        W89775   9.432  24.159  12.879
17351W        W89776  37.923  29.327  11.046
17352W        W89777  31.653  13.642  11.931
17353W        W89778   9.716  28.346  14.822
17354W        W89779   7.246  31.947  13.307
17355W        W89780  39.694  19.812   4.040
17356W        W89781  35.301  44.915   2.179
17357W        W89782  12.150  19.410   1.860
17358W        W89783  31.991  30.467   1.092
17359W        W89784  19.214  22.195   3.759
17360W        W89785  27.654  29.138  13.520
17361W        W89786  10.274  38.285  10.578
17362W        W89787  36.302   4.866  13.416
17363W        W89788  25.595  10.150   2.475
17364W        W89789  11.720  29.165   3.707
17365W        W89790   5.698  14.131   0.106
17366W        W89791  15.702  43.444  14.963
17367W        W89792  30.895  36.338   4.039
17368W        W89793  40.708   0.883  14.801
17369W        W89794  27.432   0.763  12.480
17370W        W89795   8.315  14.998  11.143
17371W        W89796   5.763   2.305   3.393
17372W        W89797   6.702  20.959   2.296
17373W        W89798  30.005  26.628   1.328
17374W        W89799   4.485   5.206  12.126
17375W        W89800   3.414  14.176  11.986
17376W        W89801  15.487  16.284  12.884
17377W        W89802  17.640  16.140   4.304
17378W        W89803   0.502   4.784   3.131
17379W        W89804   7.878  13.694  11.768
17380W        W89805   7.232  38.155   0.311
17381W        W89806  22.274  39.294   1.398
17382W        W89807  16.241  34.148   3.251
17383W        W89808  22.558  21.232  10.475
17384W        W89809  37.894  26.276   0.813
17385W        W89810  17.176   0.297  13.749
17386W        W89811  41.322  38.787   4.090
17387W        W89812  27.476  11.909   4.133
17388W        W89813  18.701   0.756  14.261
17389W        W89814   1.396  28.325  12.088
17390W        W89815  17.469  15.044  14.910
17391W        W89816  15.527   0.385   0.348
17392W        W89817  38.556  24.982   3.276
17393W        W89818  13.512  30.599   0.340
17394W        W89819  21.023  34.906   3.242
17395W        W89820  23.270  35.606   3.623
17396W        W89821  15.880  42.995  13.291
17397W        W89822   3.527  14.121   2.332
17398W        W89823  10.224  12.789   3.448
17399W        W89824  20.071  35.084  13.952
17400W        W89825  32.065  43.723  10.338
17401W        W89826  18.566  43.822  14.737
17402W        W89827  21.303  15.646  12.480
17403W        W89828  12.624  30.629  12.554
17404W        W89829  32.124  39.479   4.644
17405W        W89830   1.755  29.152   2.304
17406W        W89831  34.879  20.704   4.150
17407W        W89832  41.456  30.448   4.064
17408W        W89833  27.422  10.167  10.705
17409W        W89834  21.950  34.003  13.957
17410W        W89835  41.858  22.390  13.459
17411W        W89836  25.218  12.564  13.062
17412W        W89837  41.911  34.049   3.281
17413W        W89838   3.337  19.130  14.246
17414W        W89839  22.753  31.474   2.274
17415W        W89840   6.376  36.118  10.180
17416W        W89841  38.465  16.234   2.296
17417W        W89842  17.164  21.571   3.352
17418W        W89843  32.970  41.092  12.005
17419W        W89844  12.429  34.873  11.241
17420W        W89845  13.060   3.053  14.845
17421W        W89846  20.120  27.537  13.036
17422W        W89847  25.167  24.625  13.916
17423W        W89848  34.595  10.280   3.803
17424W        W89849  22.733   4.929   1.726
17425W        W89850  37.320  16.030  11.278
17426W        W89851  38.448  29.426  12.906
17427W        W89852  27.964  18.700   3.745
17428W        W89853  40.894  29.905  11.583
17429W        W89854  11.120  14.565  10.845
17430W        W89855   9.705  40.822  14.702
17431W        W89856  39.001  13.949   3.207
17432W        W89857  26.150  17.636   3.122
17433W        W89858   1.019  29.502  12.030
17434W        W89859   6.103   0.412  11.528
17435W        W89860   4.743  33.807   0.450
17436W        W89861   3.764   5.897   3.658
17437W        W89862  42.546  31.188  11.643
17438W        W89863  27.044  39.267  10.923
17439W        W89864  41.384  24.092  10.666
17440W        W89865   1.487  41.604  13.171
17441W        W89866  32.902  32.784   3.657
17442W        W89867  20.762  31.912  10.445
17443W        W89868  16.860  27.380  14.802
17444W        W89869   2.050   8.108  11.686
17445W        W89870   4.397  15.789   1.934
17446W        W89871  43.281   8.133  10.667
17447W        W89872  29.995  15.772  14.282
17448W        W89873  44.924  39.315   3.857
17449W        W89874  32.370  37.041   2.803
17450W        W89875  10.040   4.743   2.447
17451W        W89876   7.172  19.721  12.816
17452W        W89877  38.834  12.080  11.900
17453W        W89878  44.222  17.633   3.879
17454W        W89879  10.168  32.539  13.374
17455W        W89880   1.997  20.302  13.000
17456W        W89881   5.238  17.244   0.653
17457W        W89882  37.633  24.595  10.394
17458W        W89883  34.581  39.530   1.004
17459W        W89884  36.285  29.453   0.786
17460W        W89885  31.074  28.596   2.795
17461W        W89886  16.735  41.756   4.765
17462W        W89887  24.312  38.302   2.203
17463W        W89888  42.490  33.169   1.042
17464W        W89889  20.553  27.772   3.379
17465W        W89890  37.813  39.298  10.671
17466W        W89891  19.608  38.907  12.672
17467W        W89892  11.440  35.331   3.289
17468W        W89893  12.119   5.774  10.668
17469W        W89894  30.310  32.016  12.956
17470W        W89895  22.566  17.665  11.482
17471W        W89896  11.622   7.102  12.713
17472W        W89897  26.145  18.105   0.967
17473W        W89898  28.715  33.525   3.286
17474W        W89899  23.499  31.640  12.532
17475W        W89900  17.394  14.334  11.120
17476W        W89901  24.515   7.234  13.911
17477W        W89902   4.470  37.276  12.657
17478W        W89903  19.361  12.364  14.952
17479W        W89904   5.823   0.275   2.155
17480W        W89905  33.074  23.240   2.280
17481W        W89906  35.459  25.044   5.011
17482W        W89907  33.023   7.415   2.248
17483W        W89908   6.506   4.682  12.099
17484W        W89909  14.775  36.669  13.372
17485W        W89910  24.143  20.105  13.404
17486W        W89911  23.009  32.759  12.486
17487W        W89912  14.929  24.774  11.202
17488W        W89913  22.437  22.438   1.879
17489W        W89914  32.933  27.651   3.233
17490W        W89915   7.196  37.878   2.438
17491W        W89916   0.020  24.530  14.785
17492W        W89917  21.831  19.146   0.737
17493W        W89918  27.862  36.959   3.818
17494W        W89919  15.655  34.592  10.855
17495W        W89920  14.288  39.150   4.596
17496W        W89921  39.387   0.041   1.139
17497W        W89922  13.759  26.228  10.604
17498W        W89923  20.019   4.452   3.182
17499W        W89924  26.110  15.383   0.242
17500W        W89925  39.620  13.213  12.351
17501W        W89926   9.172  21.647   2.489
17502W        W89927  31.986  33.874   2.750
17503W        W89928  22.184  41.068  11.024
17504W        W89929  18.766  30.951  12.410
17505W        W89930  11.680  21.187   5.105
17506W        W89931  15.910  15.376  12.451
17507W        W89932  35.529   5.191  10.848
17508W        W89933  32.940   4.368  14.814
17509W        W89934   1.487  36.101   3.118
17510W        W89935   6.586  38.615   2.670
17511W        W89936  36.923   2.646  12.860
17512W        W89937  44.416  29.774   2.321
17513W        W89938  39.664  19.543  14.990
17514W        W89939  21.596  36.141  11.898
17515W        W89940  39.959   5.232  14.728
17516W        W89941  13.679  35.987  11.513
17517W        W89942  13.602   1.838  10.227
17518W        W89943  26.617  40.661   0.622
17519W        W89944  19.048   4.248  12.678
17520W        W89945  43.925  29.412  12.408
17521W        W89946   6.177  23.793   0.281
17522W        W89947  11.533  32.628   3.051
17523W        W89948  22.541   5.575   2.950
17524W        W89949  39.637  15.556   4.119
17525W        W89950   3.764  15.796   4.384
17526W        W89951  22.076   0.954   0.844
17527W        W89952  26.657  26.394  12.055
17528W        W89953  15.172  11.096   4.502
17529W        W89954  11.862   9.780   3.654
17530W        W89955  34.066  18.512   4.934
17531W        W89956   0.039  42.285  14.430
17532W        W89957  41.864   8.593   1.739
17533W        W89958  13.792   7.186  12.978
17534W        W89959  41.307  20.631  12.043
17535W        W89960   0.987  34.403   2.150
17536W        W89961  13.789  25.984   3.350
17537W        W89962  24.297   7.739  14.488
17538W        W89963  38.431  31.181   1.683
17539W        W89964  22.951  13.618   4.209
17540W        W89965  32.791  37.359   2.655
17541W        W89966  35.157  28.340  13.831
17542W        W89967  40.370   8.384   3.917
17543W        W89968   0.397  39.102  11.396
17544W        W89969  44.128  37.995  10.971
17545W        W89970  13.743  14.294   3.768
17546W        W89971  13.601   6.687   0.841
17547W        W89972   8.359  21.512  10.400
17548W        W89973  34.471  20.082  11.082
17549W        W89974   2.823  19.663  12.939
17550W        W89975  26.714  25.169   0.694
17551W        W89976   8.172  21.662   2.743
17552W        W89977  33.061  36.808  12.653
17553W        W89978  26.972  33.176  12.942
17554W        W89979   9.706  20.983  11.047
17555W        W89980  35.193   6.935  13.886
17556W        W89981  40.318   0.311  13.003
17557W        W89982   5.216   4.747   4.166
17558W        W89983  17.578   2.477  11.997
17559W        W89984   5.663  33.816   0.005
17560W        W89985   7.883  29.213   4.708
17561W        W89986   2.427  10.819  12.161
17562W        W89987  34.942  43.855   0.335
17563W        W89988  11.729   7.444  13.088
17564W        W89989   9.118  13.141   1.392
17565W        W89990   4.883   3.469   1.842
17566W        W89991  30.255  34.986  11.251
17567W        W89992  44.881  26.172  14.998
17568W        W89993   8.106   8.693  11.193
17569W        W89994   7.185   6.216  12.499
17570W        W89995   0.187  21.085  10.703
17571W        W89996  38.466  44.820   2.353
17572W        W89997  44.315  26.921  11.513
17573W        W89998  32.934   3.333   3.046
17574W        W89999   3.032   2.266  13.453
17575W        W90000  11.118  16.544  11.026
17576W        W90001  37.077  14.622  11.683
17577W        W90002  12.641  19.726   4.566
17578W        W90003  43.915  23.280  11.508
17579W        W90004  25.761   1.957  10.256
17580W        W90005  32.533  38.146  11.154
17581W        W90006  41.619   9.516   3.408
17582W        W90007   9.616  10.418   1.761
17583W        W90008  38.000  42.557  11.583
17584W        W90009  16.244   8.777   2.932
17585W        W90010  36.006  19.326   0.720
17586W        W90011  16.555  41.573   0.869
17587W        W90012  10.338  21.743   3.207
17588W        W90013  31.345  19.744   2.869
17589W        W90014  17.563  34.096  11.027
17590W        W90015   7.840   5.785   4.546
17591W        W90016  24.777  32.634   2.736
17592W        W90017  43.078  16.349  12.898
17593W        W90018  43.183   0.600  13.277
17594W        W90019  16.177  11.384  10.627
17595W        W90020  29.543  30.487   9.798
17596W        W90021  25.604  12.140   4.558
17597W        W90022  35.515  15.191   2.039
17598W        W90023  24.673   8.887   4.973
17599W        W90024  35.886   4.733   3.216
17600W        W90025  36.375   7.505  12.867
17601W        W90026  30.033  39.647  13.608
17602W        W90027  20.273  29.136  11.694
17603W        W90028  38.934  26.233   1.383
17604W        W90029  37.113   7.219   3.298
17605W        W90030  41.036  11.703   0.447
17606W        W90031  23.823  36.501   3.755
17607W        W90032  34.939  19.413  13.736
17608W        W90033  37.837  13.403   4.839
17609W        W90034   4.977  32.535   4.260
17610W        W90035  36.947  27.989  14.389
17611W        W90036  19.740  24.962   0.199
17612W        W90037  13.595  30.924   1.946
17613W        W90038   8.072   6.954   4.346
17614W        W90039  16.324  42.713   2.832
17615W        W90040  27.724  19.191  13.841
17616W        W90041  37.536  23.237  11.033
17617W        W90042  10.347  35.587  10.966
17618W        W90043  29.739  17.237   2.080
17619W        W90044  42.031  44.428   5.043
17620W        W90045  37.631  28.951   2.210
17621W        W90046  30.084   1.445  11.853
17622W        W90047  16.124   7.917   0.795
17623W        W90048  29.446  44.377  12.461
17624W        W90049   3.336  15.206   2.537
17625W        W90050   9.910  17.608  13.009
17626W        W90051  28.127  23.329   3.382
17627W        W90052   2.144   2.311   4.126
17628W        W90053  42.718  17.791   2.164
17629W        W90054  19.600  16.002  14.407
17630W        W90055  38.078  20.732   0.692
17631W        W90056  22.163  27.172  13.369
17632W        W90057  19.085  23.964  12.228
17633W        W90058  34.122  32.545  12.395
17634W        W90059  16.017  39.093   2.627
17635W        W90060  28.516  33.718   4.803
17636W        W90061  44.854  17.846  11.134
17637W        W90062  39.486  31.533   3.184
17638W        W90063  43.567   9.242  11.543
17639W        W90064  17.098  18.540   4.602
17640W        W90065  44.251  36.392   2.787
17641W        W90066  10.799  19.157   2.817
17642W        W90067   4.275  33.349   0.836
17643W        W90068  40.059  30.526   2.965
17644W        W90069  44.770  11.635   3.310
17645W        W90070  43.972  27.188   3.617
17646W        W90071  14.161   8.875   1.632
17647W        W90072  17.709   4.741   2.267
17648W        W90073  10.176   5.917   2.681
17649W        W90074  30.634  31.363   0.451
17650W        W90075   7.554  24.003   3.468
17651W        W90076  36.325  27.365  11.196
17652W        W90077   8.793   8.728  10.519
17653W        W90078  13.755  11.065   2.402
17654W        W90079  10.862  17.697   3.209
17655W        W90080   7.000  32.426   1.783
17656W        W90081   3.500  43.374   0.807
17657W        W90082  41.329  17.155   4.143
17658W        W90083  23.007  11.847   2.786
17659W        W90084   6.278  19.018  13.961
17660W        W90085  20.671  39.665   0.736
17661W        W90086  18.328  15.864   3.841
17662W        W90087  32.671  41.907  13.051
17663W        W90088  26.633   7.454   3.798
17664W        W90089  20.607  24.032   0.504
17665W        W90090  33.553  10.365   4.667
17666W        W90091   5.831  30.988   2.577
17667W        W90092  24.510  33.878   0.412
17668W        W90093  36.934  24.009  11.843
17669W        W90094   8.656  35.319   2.411
17670W        W90095  38.817   6.341   2.389
17671W        W90096   3.196   0.074   3.161
17672W        W90097  42.902  19.299  12.500
17673W        W90098  16.369  10.179   1.180
17674W        W90099  20.912  14.400  10.164
17675W        W90100  13.205  22.506   4.496
17676W        W90101  31.896   1.321  11.146
17677W        W90102  17.703  25.154  12.155
17678W        W90103  36.309  23.014   0.405
17679W        W90104  38.468  38.353  14.337
17680W        W90105  10.739  35.073   4.872
17681W        W90106  27.967   7.122  14.519
17682W        W90107  15.765   2.713  12.574
17683W        W90108   4.496  37.136  10.636
17684W        W90109  36.947  44.551  11.192
17685W        W90110  30.116  16.217   2.507
17686W        W90111  10.826  21.529   4.259
17687W        W90112  15.021   0.966  10.310
17688W        W90113   2.793  29.152   2.725
17689W        W90114  37.535  37.496  13.953
17690W        W90115  36.387   2.704   3.307
17691W        W90116  15.819  22.926  10.653
17692W        W90117  23.790  40.483   2.256
17693W        W90118  42.471  17.535   0.781
17694W        W90119  18.274  24.716   4.137
17695W        W90120   3.726  31.234   1.682
17696W        W90121  22.005  28.108   1.188
17697W        W90122  34.007  12.830   3.215
17698W        W90123   2.639  39.723   0.804
17699W        W90124  43.979  16.776   2.142
17700W        W90125   8.869   9.309   4.504
17701W        W90126  22.259  28.033   0.714
17702W        W90127  14.744  41.890   0.434
17703W        W90128   0.891  21.263   2.759
17704W        W90129   4.808  33.461   0.834
17705W        W90130  15.148  42.960   0.346
17706W        W90131   2.404  31.584   2.235
17707W        W90132  24.132  43.483   1.214
17708W        W90133  44.793  12.713  12.506
17709W        W90134   3.725  35.842   2.641
17710W        W90135  28.142  12.691   2.231
17711W        W90136  26.139  42.900  14.746
17712W        W90137  24.752  22.604  14.547
17713W        W90138  16.884  43.781  13.553
17714W        W90139  42.911  15.176   1.705
17715W        W90140  15.015   4.325   0.029
17716W        W90141  35.189  41.873  12.940
17717W        W90142  10.691  41.519  12.332
17718W        W90143   7.585   5.934   2.743
17719W        W90144  16.289  28.048   3.710
17720W        W90145   6.818   4.506  11.063
17721W        W90146  41.453  16.269  11.165
17722W        W90147  42.852  19.995   0.813
17723W        W90148  44.282   0.937  14.546
17724W        W90149  28.561   8.176  14.027
17725W        W90150  19.620  24.265   3.296
17726W        W90151   2.925  34.432   0.894
17727W        W90152  34.387  33.019   4.578
17728W        W90153   1.719  42.116  14.074
17729W        W90154  18.187  22.157   2.298
17730W        W90155  38.311  17.390   2.926
17731W        W90156   3.736  35.434  14.241
17732W        W90157  25.862   9.905  12.822
17733W        W90158  35.800  25.133  11.568
17734W        W90159   2.777  11.640  13.839
17735W        W90160  32.098   7.371   4.383
17736W        W90161   5.458  23.508  10.680
17737W        W90162   6.402  42.310   4.884
17738W        W90163  35.615  11.575  12.972
17739W        W90164  38.313   9.393   2.836
17740W        W90165  41.155  32.853   0.991
17741W        W90166  18.931  19.288  14.413
17742W        W90167  33.932   9.937  12.562
17743W        W90168  25.021  13.659   2.267
17744W        W90169  39.815  22.788  11.610
17745W        W90170   4.399   4.904  11.702
17746W        W90171  37.429  43.361   3.625
17747W        W90172  34.850   2.826  10.691
17748W        W90173  10.727   0.999   3.700
17749W        W90174  23.107  21.627   3.188
17750W        W90175  35.440   2.002   2.658
17751W        W90176  35.947  10.101  12.636
17752W        W90177  35.905  29.394   3.529
17753W        W90178  39.828  21.786  13.834
17754W        W90179   1.735   5.900   0.968
17755W        W90180  13.904  15.569  13.486
17756W        W90181  25.745  16.098   0.740
17757W        W90182  41.191  41.550  13.367
17758W        W90183  29.158  33.712  13.436
17759W        W90184  36.279  20.872   4.237
17760W        W90185  23.276  38.820   3.133
17761W        W90186  17.495  15.865   1.778
17762W        W90187  22.663  41.229  12.637
17763W        W90188  13.655  12.383   0.792
17764W        W90189  21.792  18.326  12.849
17765W        W90190  43.052  16.094   3.813
17766W        W90191  22.828   7.678  11.502
17767W        W90192   8.816  36.469   0.057
17768W        W90193  21.420   4.949  12.430
17769W        W90194   0.044  23.549   1.038
17770W        W90195  16.005  34.223   2.006
17771W        W90196  21.726  31.572  14.856
17772W        W90197  13.221  13.678  11.654
17773W        W90198  18.633   9.882   4.309
17774W        W90199   2.420   1.959   3.832
17775W        W90200  22.738  11.779   3.951
17776W        W90201   3.912  21.524  13.848
17777W        W90202   1.975  27.355   3.444
17778W        W90203  44.238  35.869  11.663
17779W        W90204  31.678  32.542   3.391
17780W        W90205  38.120  31.081   3.059
17781W        W90206   7.087  12.738   1.872
17782W        W90207  39.111  41.410   0.486
17783W        W90208  22.216   6.232   0.662
17784W        W90209   1.431  21.291  10.653
17785W        W90210  20.559  37.811   0.945
17786W        W90211  27.093  19.039   3.847
17787W        W90212  35.402  26.941   4.197
17788W        W90213   6.698   0.451  10.820
17789W        W90214  16.815  21.504  13.805
17790W        W90215  37.618  41.788  11.533
17791W        W90216  36.133  32.614   0.914
17792W        W90217  35.491  16.998  14.914
17793W        W90218  31.476   0.756   4.722
17794W        W90219   1.826   2.243   2.925
17795W        W90220  12.848  20.923  11.612
17796W        W90221  29.281  29.858  12.550
17797W        W90222   5.272  20.614  13.961
17798W        W90223  39.221  38.853  14.919
17799W        W90224  36.395  38.304  11.550
17800W        W90225  26.264  19.693  14.237
17801W        W90226  20.587  42.213   1.818
17802W        W90227  30.938  12.395  14.859
17803W        W90228  24.748  42.106   3.677
17804W        W90229  38.991  30.109  11.197
17805W        W90230   4.136  43.851  14.142
17806W        W90231  18.666  38.597  13.357
17807W        W90232  28.082  32.819   5.615
17808W        W90233  28.244  18.234   0.941
17809W        W90234   1.019  43.357   2.258
17810W        W90235  13.335   1.807  12.542
17811W        W90236  20.453  12.477   2.865
17812W        W90237  41.319  31.537   2.402
17813W        W90238  19.207   9.646  13.394
17814W        W90239  22.734  42.979  14.985
17815W        W90240   9.416  33.231   1.304
17816W        W90241  17.647   8.292   0.261
17817W        W90242  27.999  37.443  14.693
17818W        W90243  32.556  27.476   0.897
17819W        W90244  38.856  17.979   2.315
17820W        W90245  23.575  27.527   0.189
17821W        W90246  41.911  38.919  10.208
17822W        W90247  15.248   0.633   4.712
17823W        W90248   6.251   5.010  12.954
17824W        W90249  40.022   7.134   3.585
17825W        W90250  17.021  42.791   3.632
17826W        W90251  39.877  42.819  10.672
17827W        W90252  32.144  15.246   3.617
17828W        W90253  22.142  25.259   1.645
17829W        W90254  24.660  27.288   2.613
17830W        W90255  19.116  19.185   4.466
17831W        W90256  33.651  32.857   4.305
17832W        W90257  43.367   3.928   3.889
17833W        W90258   2.163  40.751  12.665
17834W        W90259  14.801  38.472  13.779
17835W        W90260  13.386  24.310   4.349
17836W        W90261   8.662  11.217  11.117
17837W        W90262   9.882  21.754   0.767
17838W        W90263  12.780  43.438  10.456
17839W        W90264  17.000   6.243   4.627
17840W        W90265   2.198  34.026   0.807
17841W        W90266  27.425  42.860  13.616
17842W        W90267  29.170   1.305  11.587
17843W        W90268  22.243   6.743   0.832
17844W        W90269  33.186   0.428  11.005
17845W        W90270  34.486  12.165   2.621
17846W        W90271  38.978  23.304  12.354
17847W        W90272  38.323  20.622   0.225
17848W        W90273   8.036  13.095  13.003
17849W        W90274  44.923  17.331  12.976
17850W        W90275  20.669  35.035   4.938
17851W        W90276  13.327   9.434  11.111
17852W        W90277   8.866   0.004   1.940
17853W        W90278  39.966  35.040  14.552
17854W        W90279   9.468  11.683  12.128
17855W        W90280  41.474  20.735   4.229
17856W        W90281  19.722  13.177   4.094
17857W        W90282  16.689  43.990  12.118
17858W        W90283  23.390  14.342  12.108
17859W        W90284  12.748  33.561   3.996
17860W        W90285  29.755   7.119  11.448
17861W        W90286   7.762  30.095  11.007
17862W        W90287  21.994  13.538  14.575
17863W        W90288   0.512  40.309  12.135
17864W        W90289  36.114  27.012  12.330
17865W        W90290   9.851  20.109  13.612
17866W        W90291  40.372   7.339  13.907
17867W        W90292  35.808   9.354   2.368
17868W        W90293  14.707   2.664   3.819
17869W        W90294   0.445  41.845  12.093
17870W        W90295  39.265  36.146   1.058
17871W        W90296  16.147  42.135  11.145
17872W        W90297  23.921   0.918   1.468
17873W        W90298  21.499  27.253  10.623
17874W        W90299  28.331  27.001   2.319
17875W        W90300  29.405   5.923   3.214
17876W        W90301  11.094  22.108  13.868
17877W        W90302  33.767   5.234   3.788
17878W        W90303  16.345  39.329  13.489
17879W        W90304  17.330   8.350   1.040
17880W        W90305  12.735   5.920   3.744
17881W        W90306  35.050  26.346  14.823
17882W        W90307  18.643  26.059  14.066
17883W        W90308  31.828  33.120   4.549
17884W        W90309  23.985  36.096   2.830
17885W        W90310  22.721  35.526   2.715
17886W        W90311  22.669  40.233   2.749
17887W        W90312  18.560   4.397   3.950
17888W        W90313  19.635  23.444   1.067
17889W        W90314  35.459  43.804   2.789
17890W        W90315  35.739  19.690   4.869
17891W        W90316  23.600  41.400   2.175
17892W        W90317  14.695  42.759   1.023
17893W        W90318  20.059   5.682  12.421
17894W        W90319  13.052  28.390   2.310
17895W        W90320   0.855  41.619  11.897
17896W        W90321  16.878  30.002   1.629
17897W        W90322  15.280  22.647   3.672
17898W        W90323   0.322   7.841   0.443
17899W        W90324   9.576   5.800  13.767
17900W        W90325  36.450  31.196   3.627
17901W        W90326  12.187  39.566  14.967
17902W        W90327   0.543  26.409  12.212
17903W        W90328  15.690  42.395   3.276
17904W        W90329  38.934   1.313   0.673
17905W        W90330  19.621   6.238   1.479
17906W        W90331   1.301  26.591  11.917
17907W        W90332   6.887   6.502  11.463
17908W        W90333  14.818  32.042  12.636
17909W        W90334  31.114  27.598   4.892
17910W        W90335  26.037  35.119   0.313
17911W        W90336   8.638  41.104  13.000
17912W        W90337  43.836  27.733  10.995
17913W        W90338  41.381   7.205  14.042
17914W        W90339  37.504  29.217   3.774
17915W        W90340   1.108  12.785  13.035
17916W        W90341  28.178  38.505  12.748
17917W        W90342   3.235   3.224  14.286
17918W        W90343   0.528  29.529   0.962
17919W        W90344  36.010  20.997  12.035
17920W        W90345  27.581  34.419   4.794
17921W        W90346  17.761  25.711  14.430
17922W        W90347  10.625  23.803   1.696
17923W        W90348   4.331  29.600  12.315
17924W        W90349  35.039  33.199   0.242
17925W        W90350  39.324  25.617   1.452
17926W        W90351  14.193  24.619   1.733
17927W        W90352  19.627   9.168  14.861
17928W        W90353  40.021  26.587  13.857
17929W        W90354  16.801  31.418  11.665
17930W        W90355   5.222   8.726   4.516
17931W        W90356  28.606  30.156  14.721
17932W        W90357  23.767   2.632  12.083
17933W        W90358   1.908  33.471  14.821
17934W        W90359  37.617  31.247   3.265
17935W        W90360  13.302  37.356   1.312
17936W        W90361  40.913  23.629   0.737
17937W        W90362  44.077  30.371  12.141
17938W        W90363  15.551   6.326  11.418
17939W        W90364  42.058  36.795  14.700
17940W        W90365  43.286  33.946   3.629
17941W        W90366  37.420   5.449  12.568
17942W        W90367   7.739  22.800  13.049
17943W        W90368  38.511  44.114   5.227
17944W        W90369   5.777  20.604  12.186
17945W        W90370  15.130  39.009   2.464
17946W        W90371  16.674  33.647  14.275
17947W        W90372   8.746  43.223   2.263
17948W        W90373  31.840  37.546  13.938
17949W        W90374  29.525  22.297   2.796
17950W        W90375  19.036  34.406   2.294
17951W        W90376  37.527   5.687   1.907
17952W        W90377  25.429  35.830   0.410
17953W        W90378  39.871   9.774  14.342
17954W        W90379   5.405  28.409  13.521
17955W        W90380  13.147  19.758   2.424
17956W        W90381  20.328  15.720  11.973
17957W        W90382  38.262  24.023   1.259
17958W        W90383   3.924  16.992  10.521
17959W        W90384  32.784  11.934   1.864
17960W        W90385  39.268  32.927   4.915
17961W        W90386  23.108  42.466   3.418
17962W        W90387  44.565  40.973   1.755
17963W        W90388  41.056  23.784  14.786
17964W        W90389  15.076   1.403   3.036
17965W        W90390  32.006  12.669  11.904
17966W        W90391  29.492   3.776  11.413
17967W        W90392  34.656   0.300   2.264
17968W        W90393  39.605  33.723   2.687
17969W        W90394   4.671  37.543   2.389
17970W        W90395  41.952  44.370   3.102
17971W        W90396  25.118  22.559  12.374
17972W        W90397  26.617  26.653  11.259
17973W        W90398  37.319  17.081   2.720
17974W        W90399  44.918   9.652  11.364
17975W        W90400  23.754  44.261  11.994
17976W        W90401   1.359  21.795   0.979
17977W        W90402  23.024  18.728  12.086
17978W        W90403  21.168  33.896  11.057
17979W        W90404  18.363  31.900   4.613
17980W        W90405  16.601   3.947  10.641
17981W        W90406  38.475  32.094   3.765
17982W        W90407  27.542  28.508  14.977
17983W        W90408  14.078  41.276   0.152
17984W        W90409   3.848   1.458  10.649
17985W        W90410  23.658   7.766   0.868
17986W        W90411   7.812  26.184   2.806
17987W        W90412   2.533  15.787   4.812
17988W        W90413  42.381  44.250   3.859
17989W        W90414  35.297  25.019  11.560
17990W        W90415   1.930  23.282   2.005
17991W        W90416  31.613  29.970   4.775
17992W        W90417   9.864  29.688  12.901
17993W        W90418  19.588   6.124   3.665
17994W        W90419   6.245  13.098  12.590
17995W        W90420  37.354  14.208  10.649
17996W        W90421  41.419   3.393  14.722
17997W        W90422  28.461  39.924   1.696
17998W        W90423  21.233  27.600   4.635
17999W        W90424  20.843  40.588   0.049
18000W        W90425  33.401  10.317   1.077
18001W        W90426  39.486  32.545   4.636
18002W        W90427   9.842  36.187  11.929
18003W        W90428  23.414  41.355  12.879
18004W        W90429  19.733  39.380  11.190
18005W        W90430   5.099   4.418  11.036
18006W        W90431  44.858  17.109   1.195
18007W        W90432   8.777  40.000   2.708
18008W        W90433  15.114  26.872  13.019
18009W        W90434  40.814  41.961  13.871
18010W        W90435  43.476   1.345  13.389
18011W        W90436  33.618   1.694  11.199
18012W        W90437  37.842  37.590   3.244
18013W        W90438   8.799  36.602   1.668
18014W        W90439   7.430  25.808   3.880
18015W        W90440  40.823  29.244   2.148
18016W        W90441  28.078  33.983   2.693
18017W        W90442  34.817  13.876   2.402
18018W        W90443  15.581  27.549   4.101
18019W        W90444   0.774  17.808  10.157
18020W        W90445   5.943   4.289   1.376
18021W        W90446  15.880  39.008   4.365
18022W        W90447  10.249  15.313  13.508
18023W        W90448  10.782  38.385   1.847
18024W        W90449   9.965  17.497   1.834
18025W        W90450  16.240  26.549  10.392
18026W        W90451  41.895   0.844   2.785
18027W        W90452  13.338  37.738  11.105
18028W        W90453  41.395  20.667   0.464
18029W        W90454  14.676  42.299   0.776
18030W        W90455  11.408  42.800  12.673
18031W        W90456  34.653  20.233   1.293
18032W        W90457   7.978  25.470  13.982
18033W        W90458  44.688  16.621   1.266
18034W        W90459   6.700  11.166  12.043
18035W        W90460  39.455  30.444   1.243
18036W        W90461   9.903   1.821  11.831
18037W        W90462  15.142  41.582   0.471
18038W        W90463  32.626  42.920  14.497
18039W        W90464  15.680   4.388  13.324
18040W        W90465  39.115  24.961  12.041
18041W        W90466  12.379  22.383  10.260
18042W        W90467  10.139  12.875   0.305
18043W        W90468  39.365  37.905   0.800
18044W        W90469  38.344  27.538  13.351
18045W        W90470   8.801  12.704  13.851
18046W        W90471  13.075  12.826  13.453
18047W        W90472  21.015  19.271   4.689
18048W        W90473   6.157   4.321   2.246
18049W        W90474   8.691  23.919   3.649
18050W        W90475  15.927  21.597   4.202
18051W        W90476   0.914  18.352  11.048
18052W        W90477  21.100  42.284  10.775
18053W        W90478   2.353   0.935  13.087
18054W        W90479   2.204  30.057   0.428
18055W        W90480  40.042  15.141  13.017
18056W        W90481  19.693  14.278  13.046
18057W        W90482  12.137   0.725  12.292
18058W        W90483  25.751  24.247  14.436
18059W        W90484  11.506  36.108  10.961
18060W        W90485  14.098  34.461  12.546
18061W        W90486  40.279  40.882   0.269
18062W        W90487   2.922  17.334  10.655
18063W        W90488  44.291  40.223  12.411
18064W        W90489   1.089  26.626   3.669
18065W        W90490   2.210   6.155  11.760
18066W        W90491   9.184   4.692  14.393
18067W        W90492  21.761  16.257  11.614
18068W        W90493  29.466  13.405   2.496
18069W        W90494  42.522   6.132  11.172
18070W        W90495   9.786   9.011  14.686
18071W        W90496  27.619   0.082   4.269
18072W        W90497  22.585   2.985   2.163
18073W        W90498  17.092   3.896  13.396
18074W        W90499  42.570  19.147   4.093
18075W        W90500   4.389  26.290   2.355
18076W        W90501  13.848  20.294  11.511
18077W        W90502  12.650  15.675   0.142
18078W        W90503  21.774   9.820   2.752
18079W        W90504  15.216   1.272  14.540
18080W        W90505  13.360   6.791   2.215
18081W        W90506   9.270  19.311   4.728
18082W        W90507  36.469  20.140   2.292
18083W        W90508  39.387  42.219  10.225
18084W        W90509  33.924  35.401   0.680
18085W        W90510  24.384  15.703   0.695
18086W        W90511   1.060  41.364  10.132
18087W        W90512   0.270  42.163  12.468
18088W        W90513  21.662  19.685  11.105
18089W        W90514  13.819   8.085   1.953
18090W        W90515  43.105   2.441   3.573
18091W        W90516  23.452  44.557   9.894
18092W        W90517   4.415  22.962  14.907
18093W        W90518  26.258  32.452  11.872
18094W        W90519   1.828  13.645   1.620
18095W        W90520  29.933  33.407   0.810
18096W        W90521  13.817  42.329   1.856
18097W        W90522   9.937  32.066  11.501
18098W        W90523   5.654  29.113  13.897
18099W        W90524  25.109   6.947   4.193
18100W        W90525  36.523  12.172   3.642
18101W        W90526  14.194  44.427   1.326
18102W        W90527  20.483  35.568   4.193
18103W        W90528  28.076  32.471   3.084
18104W        W90529  35.410  43.520  12.491
18105W        W90530   9.920   9.501  10.238
18106W        W90531  15.705   0.320   0.888
18107W        W90532  26.540  27.682  11.657
18108W        W90533  43.429  17.197   1.579
18109W        W90534  27.000  37.313  14.842
18110W        W90535   8.303   1.373  11.058
18111W        W90536  19.691  40.715  10.823
18112W        W90537   7.765  13.166  14.905
18113W        W90538  26.303  32.935   0.373
18114W        W90539  37.270  16.553  11.166
18115W        W90540  19.335   5.142   0.975
18116W        W90541   7.295  34.305   4.581
18117W        W90542  21.674   8.522   9.892
18118W        W90543  40.478  44.896   5.487
18119W        W90544  43.838  37.255  13.518
18120W        W90545  26.205  16.086  12.859
18121W        W90546  44.442  14.247   3.431
18122W        W90547  19.284  11.845  10.581
18123W        W90548  10.693   7.933   1.941
18124W        W90549  38.449  20.362  11.793
18125W        W90550  34.677  12.383  13.532
18126W        W90551  13.772  30.143  13.542
18127W        W90552  39.684  43.962  10.157
18128W        W90553  36.460  13.841  10.632
18129W        W90554  26.421  14.639  13.061
18130W        W90555   7.195  27.181  12.652
18131W        W90556  37.639  28.572   0.384
18132W        W90557  23.177  40.471  12.322
18133W        W90558  25.636  44.659  10.684
18134W        W90559  10.409  39.755   2.215
18135W        W90560   2.346  18.300  12.397
18136W        W90561  15.353  15.742  14.059
18137W        W90562  38.321  28.112  11.653
18138W        W90563  22.579  10.201  13.993
18139W        W90564  10.208  11.761   3.638
18140W        W90565  34.443  26.097   1.322
18141W        W90566   0.961  29.507   4.545
18142W        W90567  22.295  18.775  14.619
18143W        W90568  16.799  32.341   4.905
18144W        W90569  26.080  44.543   2.268
18145W        W90570  24.229  37.122   2.812
18146W        W90571  29.572   7.383  12.908
18147W        W90572  15.758  44.746   2.252
18148W        W90573  36.529  10.410  11.632
18149W        W90574   4.501  33.382  12.951
18150W        W90575  30.903   5.408   0.815
18151W        W90576  22.600  39.390   2.765
18152W        W90577   1.031   8.897   1.218
18153W        W90578   9.555  33.965   1.027
18154W        W90579  39.846  21.607  12.099
18155W        W90580  15.796  32.606   0.956
18156W        W90581   3.323  18.715  13.426
18157W        W90582  42.045  35.399   3.836
18158W        W90583  25.723  42.803   1.042
18159W        W90584  14.290  12.443   3.834
18160W        W90585  11.087  40.950  14.780
18161W        W90586   7.251  24.828   3.658
18162W        W90587  25.941  14.852  13.028
18163W        W90588  30.585  42.481  11.059
18164W        W90589  27.959  28.716  14.395
18165W        W90590  19.422   3.477   3.808
18166W        W90591  44.282   4.915   3.079
18167W        W90592   9.836  21.726   3.282
18168W        W90593  12.333   2.875  10.653
18169W        W90594   6.165  26.060   2.772
18170W        W90595  11.382  16.508   4.579
18171W        W90596  44.445  32.384  13.001
18172W        W90597  42.262   4.193   2.646
18173W        W90598   2.458  10.279  11.032
18174W        W90599  32.880  15.000   3.188
18175W        W90600  33.638  10.626   1.382
18176W        W90601  10.222  28.986   1.787
18177W        W90602  13.121  10.775  10.491
18178W        W90603  21.033  14.076   1.481
18179W        W90604   9.194  14.175   1.800
18180W        W90605  42.405   5.917  10.732
18181W        W90606  34.381  27.253  12.040
18182W        W90607   4.825  30.190  12.539
18183W        W90608  37.072  41.799   4.182
18184W        W90609  22.698  39.902  12.284
18185W        W90610  16.231   6.944   2.398
18186W        W90611  44.976   2.282  13.325
18187W        W90612  37.863  33.662   0.180
18188W        W90613  29.312   3.538  10.410
18189W        W90614  27.419  33.645  12.924
18190W        W90615   4.337   4.387   2.583
18191W        W90616  14.597  16.835  14.468
18192W        W90617  32.400  35.544   3.882
18193W        W90618   0.289   7.381  14.474
18194W        W90619   7.114  19.297   4.491
18195W        W90620  24.628   4.319   1.252
18196W        W90621  11.087  15.253  11.251
18197W        W90622  21.521   6.104  11.982
18198W        W90623  29.806  17.296  14.115
18199W        W90624  33.942  39.468  12.364
18200W        W90625  18.800  31.223   0.298
18201W        W90626  42.664  28.894  12.508
18202W        W90627  19.221  35.784   1.795
18203W        W90628  37.393  44.199  11.916
18204W        W90629  37.762  13.805  12.362
18205W        W90630  10.639  37.553  11.610
18206W        W90631  39.296  13.436  14.874
18207W        W90632  36.545  12.322  14.238
18208W        W90633   4.803  40.227   4.742
18209W        W90634  27.012  11.958  10.943
18210W        W90635  22.994   9.926   1.018
18211W        W90636  24.752  22.474  12.727
18212W        W90637  19.632  13.692   0.040
18213W        W90638  32.905  16.980   2.776
18214W        W90639  44.676  18.750  13.681
18215W        W90640  39.583  35.058   0.234
18216W        W90641  43.972  14.555   1.240
18217W        W90642   0.570  23.165   4.283
18218W        W90643  20.209  31.020   0.257
18219W        W90644   2.708  19.782   2.400
18220W        W90645  21.008  19.202   2.357
18221W        W90646  34.520   4.221  10.810
18222W        W90647  39.389   1.347   4.278
18223W        W90648  13.717   5.362   4.771
18224W        W90649  40.491  44.354   3.730
18225W        W90650  28.147   2.758   2.821
18226W        W90651  44.384  30.397   1.288
18227W        W90652   2.886  23.722  12.424
18228W        W90653  26.442  34.537  14.900
18229W        W90654   7.764   6.392   3.670
18230W        W90655  14.757  40.373   3.329
18231W        W90656  21.243  21.651  12.895
18232W        W90657   5.334  27.182   3.322
18233W        W90658  33.104   3.436  11.481
18234W        W90659  16.251  30.410   1.258
18235W        W90660  10.241  16.746  13.949
18236W        W90661  29.504  43.716  11.407
18237W        W90662  31.396  24.674   3.689
18238W        W90663   1.941  38.332   4.184
18239W        W90664  32.146  30.386  11.067
18240W        W90665  14.063  11.079  12.733
18241W        W90666  28.033  27.227  12.802
18242W        W90667  18.818  19.361  13.511
18243W        W90668  18.994  15.369  12.578
18244W        W90669  40.508   9.138  10.774
18245W        W90670  24.734  16.669   3.522
18246W        W90671  23.948  34.355  11.040
18247W        W90672  20.013  43.938   4.040
18248W        W90673  28.249  21.885   1.186
18249W        W90674  35.389  24.076  14.761
18250W        W90675  15.775  23.962  13.418
18251W        W90676  37.087  36.320   3.185
18252W        W90677  38.204  33.396  14.315
18253W        W90678   6.526  43.499  11.615
18254W        W90679  12.867  40.131  14.547
18255W        W90680  17.102  25.633   4.226
18256W        W90681  23.133   6.561  12.967
18257W        W90682   6.160  10.624  13.348
18258W        W90683  40.611  24.922  12.237
18259W        W90684  23.230  44.797  10.978
18260W        W90685   9.652  31.583  11.544
18261W        W90686  38.455  30.030  11.219
18262W        W90687   7.804   1.479  10.964
18263W        W90688   7.315  30.383   4.273
18264W        W90689   0.352  29.517  10.973
18265W        W90690  35.456   0.478  14.411
18266W        W90691   1.848  22.279  13.101
18267W        W90692  24.011  24.653  14.396
18268W        W90693  33.708  42.802   1.713
18269W        W90694  34.896  18.417  11.417
18270W        W90695  37.281   7.140   4.616
18271W        W90696  43.568  39.993  14.452
18272W        W90697  16.536  33.351   4.567
18273W        W90698  16.583  11.099  11.069
18274W        W90699  37.274  40.986  14.430
18275W        W90700   7.277   0.672   0.805
18276W        W90701   6.366  11.227  10.669
18277W        W90702  31.954   8.226   1.114
18278W        W90703  25.482  36.680  13.801
18279W        W90704  28.618   6.647   1.299
18280W        W90705  38.822  20.788   4.219
18281W        W90706  34.700  44.272   1.282
18282W        W90707  28.462   7.206  14.342
18283W        W90708  43.215   6.171   4.521
18284W        W90709  29.621   5.514   4.193
18285W        W90710  38.103  10.375  14.066
18286W        W90711  22.664  42.076  10.820
18287W        W90712  44.310  32.881  13.818
18288W        W90713   4.640  15.348  11.522
18289W        W90714  40.325  38.016   1.804
18290W        W90715  11.046  37.073  12.448
18291W        W90716  33.333  19.183  13.423
18292W        W90717  20.554  38.399   4.091
18293W        W90718  39.392  25.887  13.920
18294W        W90719   8.137  35.936  11.545
18295W        W90720  30.988   3.830   2.519
18296W        W90721  44.302   5.285  14.021
18297W        W90722  14.289   6.905  12.044
18298W        W90723  37.268  24.730  14.736
18299W        W90724  25.107  26.895   0.417
18300W        W90725  41.639  35.171   0.482
18301W        W90726  13.599  16.672  12.341
18302W        W90727  19.298  28.538  10.966
18303W        W90728  42.429  38.449  14.475
18304W        W90729   6.276  38.570  11.959
18305W        W90730  26.749  22.120  12.216
18306W        W90731  19.153   0.584  10.648
18307W        W90732  21.795  14.146  13.797
18308W        W90733  29.126  27.152   3.300
18309W        W90734  26.593  17.521  11.369
18310W        W90735  13.080  20.210  11.149
18311W        W90736   2.520  44.921   2.744
18312W        W90737   6.232  24.499   4.543
18313W        W90738  35.080  43.429  12.072
18314W        W90739   2.133  43.895   0.273
18315W        W90740  44.240  10.419  11.196
18316W        W90741  17.368  15.557   1.342
18317W        W90742  41.867  10.622  14.779
18318W        W90743  15.204   2.798   0.914
18319W        W90744  18.960   9.598   4.617
18320W        W90745  18.959  29.757   4.521
18321W        W90746  34.179  28.127   2.454
18322W        W90747  29.381  30.439   0.853
18323W        W90748  30.221  24.704  11.105
18324W        W90749  13.689   8.606  14.002
18325W        W90750  33.772  15.802  13.444
18326W        W90751  15.342  27.948   3.850
18327W        W90752   2.706  34.812  14.397
18328W        W90753  22.478  33.210  10.602
18329W        W90754  21.578   0.775   0.917
18330W        W90755  17.857  26.248  12.464
18331W        W90756  41.084  15.606  14.825
18332W        W90757  44.508  17.660   3.455
18333W        W90758  33.667  13.651   3.824
18334W        W90759  13.606  29.621  13.517
18335W        W90760  15.295  37.360  10.674
18336W        W90761  16.805  10.621   1.901
18337W        W90762  16.370  19.541   1.679
18338W        W90763  25.882  19.663  11.542
18339W        W90764   4.766  10.190  10.783
18340W        W90765  12.655  40.135  10.987
18341W        W90766  40.521  17.814   0.897
18342W        W90767  37.124   2.167  11.286
18343W        W90768  37.889  14.610   0.851
18344W        W90769  22.248  23.286   2.819
18345W        W90770  39.376  40.131  12.467
18346W        W90771  29.971  36.286  14.462
18347W        W90772  27.739  36.366   0.478
18348W        W90773  39.989  38.787   0.856
18349W        W90774  15.944  41.935  11.953
18350W        W90775  30.447  28.582   4.030
18351W        W90776  23.930  14.592   0.976
18352W        W90777  43.878   3.971  13.020
18353W        W90778  38.881   1.282   4.132
18354W        W90779   3.330   3.036   0.993
18355W        W90780  42.532   5.743  14.968
18356W        W90781  29.124  10.682  10.688
18357W        W90782  18.578  39.251   4.887
18358W        W90783  15.174   9.635  14.060
18359W        W90784  21.508  16.109   1.358
18360W        W90785   5.680  14.920   2.772
18361W        W90786  31.644   8.703  12.464
18362W        W90787  10.828  24.009   2.950
18363W        W90788  30.822  31.384   2.456
18364W        W90789   2.358  18.761  10.413
18365W        W90790  35.046  44.585  11.288
18366W        W90791   9.404  10.330   1.277
18367W        W90792  39.925  13.094   1.142
18368W        W90793  44.858  19.610  12.923
18369W        W90794   7.769  20.290  14.709
18370W        W90795   1.257  44.696  12.122
18371W        W90796  41.489   4.467  10.665
18372W        W90797   8.130  34.654   2.209
18373W        W90798  32.928   6.120   1.909
18374W        W90799  22.953  23.208  14.261
18375W        W90800  29.400  33.362   4.027
18376W        W90801   8.360  29.616  11.544
18377W        W90802  34.886  37.964  13.076
18378W        W90803  30.467  39.736   4.429
18379W        W90804  31.957   0.047  12.066
18380W        W90805   2.880   2.290   1.469
18381W        W90806  21.677   4.192   3.736
18382W        W90807  40.004  37.373   2.313
18383W        W90808  35.412   9.114  12.006
18384W        W90809  29.543   1.970   0.438
18385W        W90810  42.001  20.569  11.171
18386W        W90811  38.274  30.418   0.817
18387W        W90812  21.920  36.034  14.828
18388W        W90813  21.205  18.396   0.370
18389W        W90814  41.682  15.876  11.468
18390W        W90815  36.667  10.822  14.460
18391W        W90816  33.328   2.927   2.127
18392W        W90817  22.609  34.488   0.432
18393W        W90818   5.861   9.880  11.515
18394W        W90819   2.011  18.010  10.582
18395W        W90820  35.184  30.909   2.355
18396W        W90821  11.597  16.892  11.917
18397W        W90822  26.245  27.010   2.653
18398W        W90823  41.378   0.508   2.875
18399W        W90824  24.131   6.378   1.032
18400W        W90825  19.083  27.033  12.118
18401W        W90826  14.781  27.307  13.025
18402W        W90827  39.450  39.399   0.754
18403W        W90828  16.209  36.562   1.644
18404W        W90829  25.862   2.486   1.620
18405W        W90830  43.857   0.381   2.351
18406W        W90831  38.989  34.887  14.482
18407W        W90832  28.577  20.770  14.336
18408W        W90833  34.531  44.879   4.770
18409W        W90834  36.933  15.606   3.158
18410W        W90835  19.391  43.858  11.174
18411W        W90836  19.599  18.727   2.823
18412W        W90837   7.900  40.575  14.373
18413W        W90838  27.609   8.610   3.683
18414W        W90839   1.795  29.937   4.194
18415W        W90840  27.070  34.881  11.080
18416W        W90841  27.904  11.702  11.613
18417W        W90842  37.961  13.738   3.754
18418W        W90843  34.682   6.631   0.223
18419W        W90844  31.107  24.129  10.622
18420W        W90845  26.244  42.236   1.839
18421W        W90846  37.339  43.543   5.141
18422W        W90847  40.999  13.866  11.531
18423W        W90848  42.145  14.730   2.126
18424W        W90849  11.050   0.268   3.120
18425W        W90850  13.847  38.873  14.458
18426W        W90851  21.489  38.902  10.256
18427W        W90852  13.507  41.213  12.934
18428W        W90853   6.677  13.027  13.070
18429W        W90854  11.669  23.533   1.335
18430W        W90855  24.534  44.606   3.228
18431W        W90856  26.918  40.358  14.388
18432W        W90857  11.085  43.921  10.728
18433W        W90858  13.518  39.813   4.154
18434W        W90859  34.866   5.759   3.634
18435W        W90860  19.862  34.959  11.198
18436W        W90861   9.185  24.131   4.373
18437W        W90862   8.623  37.029   0.931
18438W        W90863  34.387  14.668  11.668
18439W        W90864  42.384  12.880  12.696
18440W        W90865  27.028  34.404  13.903
18441W        W90866  32.580  31.143  12.545
18442W        W90867  15.297   8.809  12.025
18443W        W90868   0.802  22.632  12.749
18444W        W90869  12.671   1.884   1.051
18445W        W90870  40.501  42.364   4.505
18446W        W90871  23.270   2.857   4.571
18447W        W90872   2.637  14.564   0.782
18448W        W90873  29.085  10.438  14.831
18449W        W90874  32.949  32.880   0.688
18450W        W90875  22.816  17.008   3.278
18451W        W90876  30.437   3.285  13.145
18452W        W90877   2.689   5.335   2.615
18453W        W90878   3.309   0.895  13.196
18454W        W90879  23.665  43.447  11.016
18455W        W90880   5.202   5.735   4.014
18456W        W90881  36.460  30.968   2.732
18457W        W90882  41.857  13.329   0.173
18458W        W90883  43.816  20.164  14.520
18459W        W90884  25.148  10.555  13.112
18460W        W90885  19.224  39.189   0.360
18461W        W90886  22.940   0.437  10.505
18462W        W90887  22.432  43.908  10.724
18463W        W90888   8.550  22.704  11.878
18464W        W90889  25.205  11.357   3.327
18465W        W90890  42.860  18.175   1.814
18466W        W90891   1.894  28.516   4.286
18467W        W90892  37.569  33.018  12.360
18468W        W90893  39.742  22.161   2.727
18469W        W90894  24.693  20.555  11.115
18470W        W90895   2.906  35.956  12.684
18471W        W90896  43.834  41.256  12.037
18472W        W90897   5.950  19.062   1.874
18473W        W90898  28.895  25.217   1.286
18474W        W90899  16.397  21.189  12.811
18475W        W90900  25.813   5.146   3.745
18476W        W90901   5.466  32.475   3.196
18477W        W90902  27.724  15.897  10.098
18478W        W90903  13.149  36.016   2.766
18479W        W90904  36.861   0.384  14.373
18480W        W90905  44.365  27.667  11.138
18481W        W90906  42.015  30.571   4.593
18482W        W90907  18.256  32.537  11.719
18483W        W90908  14.235   4.797   2.806
18484W        W90909  33.725  40.114   2.710
18485W        W90910  19.050  35.759  12.481
18486W        W90911  10.629  42.386  12.343
18487W        W90912   1.250   9.594   2.068
18488W        W90913  10.218  13.121   5.150
18489W        W90914  41.697  33.627  13.471
18490W        W90915  19.317  18.160   0.737
18491W        W90916  27.150   6.331  11.601
18492W        W90917   2.480  39.535   1.895
18493W        W90918  30.634  27.921  14.456
18494W        W90919  44.445  18.560   3.673
18495W        W90920  12.130   8.464  13.588
18496W        W90921  43.730  31.417   1.364
18497W        W90922  23.816  38.537  12.005
18498W        W90923   8.435  25.886  13.911
18499W        W90924  23.188  17.009  10.583
18500W        W90925  18.917   7.271  10.835
18501W        W90926  40.702  24.121  14.992
18502W        W90927  23.129   8.196  10.810
18503W        W90928  42.545  36.609   0.839
18504W        W90929  37.943  24.725  12.135
18505W        W90930  25.146   6.827   1.736
18506W        W90931  12.082  41.769   2.003
18507W        W90932  43.294   8.784  12.177
18508W        W90933   4.893  24.265   1.719
18509W        W90934  19.428   1.049  14.827
18510W        W90935  15.142   8.681   0.048
18511W        W90936  20.067  23.910  12.924
18512W        W90937  25.485   9.344   0.363
18513W        W90938  32.459   6.312   3.156
18514W        W90939   3.449  39.845   1.828
18515W        W90940  29.197  13.312   1.300
18516W        W90941  22.472  11.856   2.135
18517W        W90942  26.798  31.896  10.192
18518W        W90943  42.874   8.332  14.531
18519W        W90944  12.056  13.661  12.564
18520W        W90945  16.887   8.745  11.605
18521W        W90946  34.235  33.097   2.314
18522W        W90947  19.806  21.278  10.571
18523W        W90948  40.176  22.298   1.267
18524W        W90949   3.537   5.999  13.470
18525W        W90950   1.583  13.495   4.129
18526W        W90951  31.103   7.158   4.117
18527W        W90952   1.131  36.311   3.934
18528W        W90953  42.923   7.255   0.590
18529W        W90954  17.127   0.278   4.606
18530W        W90955   6.703  22.168   0.799
18531W        W90956  41.120  44.953   2.743
18532W        W90957  11.291  33.422   2.988
18533W        W90958   5.381   3.493   1.698
18534W        W90959  24.052   3.676   1.460
18535W        W90960  40.787   5.687  14.830
18536W        W90961  33.698   7.311   0.573
18537W        W90962  38.411  24.728   2.777
18538W        W90963   0.696  44.379   2.838
18539W        W90964  25.227  23.011  14.650
18540W        W90965   9.753   5.280   2.160
18541W        W90966   7.114  13.349  14.312
18542W        W90967  36.919  44.034   3.667
18543W        W90968  26.934   7.227   4.343
18544W        W90969   6.428  44.864   1.701
18545W        W90970  27.716  39.255  12.525
18546W        W90971  15.498  12.638  10.299
18547W        W90972   4.738   3.175  13.353
18548W        W90973  11.217  34.378  13.313
18549W        W90974   8.141  25.712  14.805
18550W        W90975  12.193   7.800   3.673
18551W        W90976  23.088   8.093  14.455
18552W        W90977   9.219   7.647  14.317
18553W        W90978  44.335  17.600  10.374
18554W        W90979  42.645  19.658  10.790
18555W        W90980  21.482   5.101   2.360
18556W        W90981  11.341  22.152  12.817
18557W        W90982  14.683  33.855   4.310
18558W        W90983  18.806  15.531   4.479
18559W        W90984  17.824  39.759  11.076
18560W        W90985  21.027  35.460  11.393
18561W        W90986  41.344  26.028  12.360
18562W        W90987  32.951   8.141  14.883
18563W        W90988   0.087  17.261   3.773
18564W        W90989   8.819  41.482  13.313
18565W        W90990  12.856  14.246  10.561
18566W        W90991  13.166  15.809   4.208
18567W        W90992   6.197  35.060  10.706
18568W        W90993   2.362  19.014   0.344
18569W        W90994  36.931  14.195  11.931
18570W        W90995  10.266  13.852  12.025
18571W        W90996  17.678   3.779  12.571
18572W        W90997  13.225  35.543  10.653
18573W        W90998  24.735  11.696   5.120
18574W        W90999  24.500  29.539   1.826
18575W        W91000  21.367  38.485   3.965
18576W        W91001  36.415  29.079   2.832
18577W        W91002  16.813   6.156   3.748
18578W        W91003  13.572  17.882   3.247
18579W        W91004  43.752  35.487  10.610
18580W        W91005   3.185  34.000  14.869
18581W        W91006  28.890  27.139  12.568
18582W        W91007  24.188   4.402   0.325
18583W        W91008   2.240  43.363  12.984
18584W        W91009  34.989  34.562   0.813
18585W        W91010  26.442  42.702  14.362
18586W        W91011   6.693  44.788   2.274
18587W        W91012  22.764  20.784  11.186
18588W        W91013  39.285   9.798  10.412
18589W        W91014  12.887  25.200  10.690
18590W        W91015  40.043  22.485   2.339
18591W        W91016  19.662  35.019   4.609
18592W        W91017  36.480  44.145   4.325
18593W        W91018   2.276  15.290   3.254
18594W        W91019  35.937   3.476   2.300
18595W        W91020  26.094  44.180   1.025
18596W        W91021  40.142  44.785  14.871
18597W        W91022  26.627  33.943   1.639
18598W        W91023  18.588  11.599  13.377
18599W        W91024   9.146  34.403   1.896
18600W        W91025  26.930  26.604  11.645
18601W        W91026   3.875  18.811   2.247
18602W        W91027   1.786   2.416  12.317
18603W        W91028   5.513   5.929  14.073
18604W        W91029  24.341  11.941   4.850
18605W        W91030  18.557  44.678   2.664
18606W        W91031  33.416  21.497  14.947
18607W        W91032  19.132  35.588  12.008
18608W        W91033  22.021  35.327  14.301
18609W        W91034  13.109  28.487   3.421
18610W        W91035   1.416  37.349   1.399
18611W        W91036  25.215  22.736  12.864
18612W        W91037  19.633  40.920  14.636
18613W        W91038  40.948  33.129   4.675
18614W        W91039   1.940  21.990   3.733
18615W        W91040  10.308  21.384   1.756
18616W        W91041  31.114   5.853   0.654
18617W        W91042  26.021  25.748   1.362
18618W        W91043  31.445  24.594  12.950
18619W        W91044  44.802   1.281   3.828
18620W        W91045   4.883  34.961  12.947
18621W        W91046  16.352  30.430   3.107
18622W        W91047  34.385   8.964   1.753
18623W        W91048   6.272  11.260  14.471
18624W        W91049  24.955  12.072   2.816
18625W        W91050  18.134  17.677   0.467
18626W        W91051  25.514  19.824   3.222
18627W        W91052  27.745  20.578   3.185
18628W        W91053  23.532  41.709   3.537
18629W        W91054  32.655  21.625  13.176
18630W        W91055   1.719  10.932  14.383
18631W        W91056  33.228  15.305  11.972
18632W        W91057  34.653   0.835  14.512
18633W        W91058  28.546  41.542   4.676
18634W        W91059  14.771  22.073   2.651
18635W        W91060   4.397  22.175  13.079
18636W        W91061   4.711   5.950   9.893
18637W        W91062  42.964   1.050  14.548
18638W        W91063   8.687  42.726   3.264
18639W        W91064  37.086  14.638  11.174
18640W        W91065  34.517  14.283   1.025
18641W        W91066  22.582  35.534   1.774
18642W        W91067  15.588  34.084   4.973
18643W        W91068  28.700   9.069   1.766
18644W        W91069  21.942  22.334   4.113
18645W        W91070  22.703  10.406   5.036
18646W        W91071  37.515  20.649   4.464
18647W        W91072  42.724  34.953  14.365
18648W        W91073  21.958  13.320  13.311
18649W        W91074  17.224  39.944  13.924
18650W        W91075  35.086  29.151   4.553
18651W        W91076   7.410  24.959  14.915
18652W        W91077   2.006  13.239   3.054
18653W        W91078  10.798  18.405   0.979
18654W        W91079  35.876  36.770  14.827
18655W        W91080  19.852  43.581  11.178
18656W        W91081   7.303  36.668  11.224
18657W        W91082   4.978  13.698  11.841
18658W        W91083  42.251  24.240  13.348
18659W        W91084  38.372  44.422   0.926
18660W        W91085  29.169  13.874   0.679
18661W        W91086  29.028  39.690  14.512
18662W        W91087  15.583  23.083   1.914
18663W        W91088  28.161  32.220   5.090
18664W        W91089  27.760   6.431   0.234
18665W        W91090   3.960  13.880   3.551
18666W        W91091  16.022   1.447   9.560
18667W        W91092  23.507  36.090   3.613
18668W        W91093  34.420  27.672   2.517
18669W        W91094  23.506   4.642  11.484
18670W        W91095  11.023  10.894   0.889
18671W        W91096  10.215   3.105  14.839
18672W        W91097   0.893  26.002   1.694
18673W        W91098   8.105  32.519  12.905
18674W        W91099   2.779  40.025  11.137
18675W        W91100  19.548  21.867  11.573
18676W        W91101  10.226  36.465   0.332
18677W        W91102  20.668  15.183  10.602
18678W        W91103  11.535  10.261  12.831
18679W        W91104  34.407  38.764   4.657
18680W        W91105  30.449  20.477  12.191
18681W        W91106  33.424  41.709  11.739
18682W        W91107  42.330  13.560  11.072
18683W        W91108  27.649   3.470   2.398
18684W        W91109  14.533  10.097  12.376
18685W        W91110  11.403  35.906  13.608
18686W        W91111  37.754  28.857  11.032
18687W        W91112  38.976   0.374  13.378
18688W        W91113  21.933  36.840   4.612
18689W        W91114  16.881   9.128   4.941
18690W        W91115   7.071  38.892  12.483
18691W        W91116   5.364  39.033   1.672
18692W        W91117  17.468  21.784  12.542
18693W        W91118  12.762  26.017  14.678
18694W        W91119   8.250  13.697   1.331
18695W        W91120  44.370   9.805  10.570
18696W        W91121  23.644   3.738   1.755
18697W        W91122   8.832  24.795  12.696
18698W        W91123  32.417  31.448  13.784
18699W        W91124  31.148  10.373   3.488
18700W        W91125  30.170  42.925   4.504
18701W        W91126  13.538  32.940  13.553
18702W        W91127  14.846  33.336  10.360
18703W        W91128  14.284  34.048  13.787
18704W        W91129   7.295  11.827  14.730
18705W        W91130   9.238   3.530   2.782
18706W        W91131  19.980  12.129  12.951
18707W        W91132  10.759   2.793   1.749
18708W        W91133  34.553  23.767   4.146
18709W        W91134  44.975  29.588   1.661
18710W        W91135  20.210  19.726  10.341
18711W        W91136  31.423  41.332  12.567
18712W        W91137  32.081  38.760   4.071
18713W        W91138   4.268  35.472   3.887
18714W        W91139  16.885   0.957   5.078
18715W        W91140   7.712   7.765   3.781
18716W        W91141  40.547  10.027   4.107
18717W        W91142  35.181  18.694  11.743
18718W        W91143  20.965  39.674  12.954
18719W        W91144   6.303  15.951   4.339
18720W        W91145  18.474   8.299   9.733
18721W        W91146  12.024  43.320  12.564
18722W        W91147   4.824  32.090   4.515
18723W        W91148  40.929  20.801  14.423
18724W        W91149  34.556  17.800   2.760
18725W        W91150  14.165  41.952  14.829
18726W        W91151  42.752  12.184   0.866
18727W        W91152  44.942  35.975  12.430
18728W        W91153  39.356  10.866  12.816
18729W        W91154  30.588  19.677   1.393
18730W        W91155  15.100  14.158  10.935
18731W        W91156  10.906  32.650  12.624
18732W        W91157   0.872  44.665  10.768
18733W        W91158   3.236  18.737   4.170
18734W        W91159  17.666   7.850   3.111
18735W        W91160  33.121  14.036   3.149
18736W        W91161  36.752  36.273   1.901
18737W        W91162   9.431  10.037  12.605
18738W        W91163   3.864  41.923  11.133
18739W        W91164  18.493  13.101  10.791
18740W        W91165  39.608  31.616   1.826
18741W        W91166   7.465  11.832   3.110
18742W        W91167  35.232  27.930   4.319
18743W        W91168  24.496  43.509   0.838
18744W        W91169  43.295  18.085  14.501
18745W        W91170  37.565   7.477  13.350
18746W        W91171  38.232  41.845  13.001
18747W        W91172   4.720  27.666  13.800
18748W        W91173  44.921  23.858   2.421
18749W        W91174  19.733  21.336   4.556
18750W        W91175  38.935  17.486  11.234
18751W        W91176  14.035  35.989   0.056
18752W        W91177  16.779   2.212  14.385
18753W        W91178  27.266   9.300  12.046
18754W        W91179  39.838  37.446  11.947
18755W        W91180  20.098  16.876   0.664
18756W        W91181  30.539   9.367   4.363
18757W        W91182  11.208  16.677   3.769
18758W        W91183  33.220   8.282   1.227
18759W        W91184  26.482  35.792   1.070
18760W        W91185  13.247   6.350   1.041
18761W        W91186  19.707  38.053  13.973
18762W        W91187   5.734  20.351   4.625
18763W        W91188  20.606  41.962   2.883
18764W        W91189  14.214  43.485  12.685
18765W        W91190  29.640   9.813   1.985
18766W        W91191  14.791  33.580  14.903
18767W        W91192  29.181  20.671   0.590
18768W        W91193  27.984  12.375   1.395
18769W        W91194  10.405   7.659   0.163
18770W        W91195  26.666  37.449   3.451
18771W        W91196  40.462  20.316   3.659
18772W        W91197  16.326  26.496  11.378
18773W        W91198  10.275  11.817  13.523
18774W        W91199  44.757  20.075  12.324
18775W        W91200  41.524   3.507   3.407
18776W        W91201   4.926   5.297   4.578
18777W        W91202  39.323  16.691   3.633
18778W        W91203  19.753  20.825  12.562
18779W        W91204   2.542  26.242   1.090
18780W        W91205  38.327  36.547   0.736
18781W        W91206   2.032  11.566  11.514
18782W        W91207  30.448  25.411  14.336
18783W        W91208  19.481  26.187   2.151
18784W        W91209  24.301  37.760  11.570
18785W        W91210  26.797  23.732   3.636
18786W        W91211   4.959   4.079  13.257
18787W        W91212   4.202  31.784  14.982
18788W        W91213   9.239  28.574  14.986
18789W        W91214  11.142   9.294  12.958
18790W        W91215  22.082   8.507   0.494
18791W        W91216   7.023   7.356  10.411
18792W        W91217  37.833  34.043   2.169
18793W        W91218   8.693  37.851   2.399
18794W        W91219  26.600   4.543  11.538
18795W        W91220  32.870  13.510   1.255
18796W        W91221  31.851   1.720  10.807
18797W        W91222  38.245  23.481  12.898
18798W        W91223  32.321  17.692  11.981
18799W        W91224  35.009   6.250   3.666
18800W        W91225   0.298  40.501   0.441
18801W        W91226  31.651  28.615  13.761
18802W        W91227  39.091  34.153   1.285
18803W        W91228  42.362  41.151   2.331
18804W        W91229  41.439   0.040   3.128
18805W        W91230  23.137  19.758  13.851
18806W        W91231  27.162  10.883  14.534
18807W        W91232  38.848  26.441   4.500
18808W        W91233   5.200  44.685  10.778
18809W        W91234  17.546   1.924   4.506
18810W        W91235  39.103  16.795  12.109
18811W        W91236  37.075  23.271   0.044
18812W        W91237  33.114  18.031   1.016
18813W        W91238  12.361  20.364   1.668
18814W        W91239  44.949  19.567  12.390
18815W        W91240  30.469  24.947   3.501
18816W        W91241  16.051  22.588   4.095
18817W        W91242  36.508  19.166   0.977
18818W        W91243   3.818  31.028  14.881
18819W        W91244   1.850  17.654   1.256
18820W        W91245  35.188  31.881  11.935
18821W        W91246  16.395  25.257   3.233
18822W        W91247  20.430  42.988  13.936
18823W        W91248  11.798  24.724  13.957
18824W        W91249  34.682  44.148  11.663
18825W        W91250  41.384   7.684  12.586
18826W        W91251   2.986   2.932  11.531
18827W        W91252  37.459  37.298  14.417
18828W        W91253  35.838   2.215   2.883
18829W        W91254  17.114  14.285   3.349
18830W        W91255  40.130  34.142  12.595
18831W        W91256  26.440  32.092  13.871
18832W        W91257  27.517  11.141  12.772
18833W        W91258  28.492  17.733  12.047
18834W        W91259  42.364  30.471   0.851
18835W        W91260  34.629   1.249  10.464
18836W        W91261  11.381  33.021  13.973
18837W        W91262  33.610  18.124  13.851
18838W        W91263  36.007   0.472  14.170
18839W        W91264  17.272  31.206   0.106
18840W        W91265  11.148  21.310   0.336
18841W        W91266  37.883  42.051  13.769
18842W        W91267  11.544  44.084  13.664
18843W        W91268  18.848   4.610   5.003
18844W        W91269  30.671   6.862  11.114
18845W        W91270  36.187   4.924  12.366
18846W        W91271  13.928  33.676  14.268
18847W        W91272  30.088   0.870   1.340
18848W        W91273  16.496   1.961  10.746
18849W        W91274  22.726  11.122  13.027
18850W        W91275  25.124  23.941   2.228
18851W        W91276  34.917   3.185   4.699
18852W        W91277  42.618  40.057  13.928
18853W        W91278  24.455  38.633  13.032
18854W        W91279  24.384   6.953   3.751
18855W        W91280   1.298  24.118  12.379
18856W        W91281  11.233  20.574   2.115
18857W        W91282  30.042  12.656   3.179
18858W        W91283  38.317   9.864  12.707
18859W        W91284  16.825   2.632  13.855
18860W        W91285  12.329  41.918  14.330
18861W        W91286  44.266  19.259   1.282
18862W        W91287  20.779  41.273   3.629
18863W        W91288  28.229  36.978   0.541
18864W        W91289  14.573  12.684   4.182
18865W        W91290   3.294  19.208  13.243
18866W        W91291  35.041  39.346   4.698
18867W        W91292  35.076   3.651  13.856
18868W        W91293  26.705   7.180  12.105
18869W        W91294   2.436  16.142   0.955
18870W        W91295  15.341  21.236  11.715
18871W        W91296  20.219  39.989  12.039
18872W        W91297  22.533  31.473  13.282
18873W        W91298  29.082  44.916  10.451
18874W        W91299  36.550  12.674  12.468
18875W        W91300  42.750  41.738  11.501
18876W        W91301   5.484  38.739   2.505
18877W        W91302  31.505  26.245  11.046
18878W        W91303  18.779   0.291  14.477
18879W        W91304  33.013  10.306   2.381
18880W        W91305  32.562  19.680   1.202
18881W        W91306  16.602  37.183  13.084
18882W        W91307  36.865  24.479  13.858
18883W        W91308  27.298  15.495  13.438
18884W        W91309  41.981   4.346  11.540
18885W        W91310   5.200  34.525  13.054
18886W        W91311  35.934  42.320   3.634
18887W        W91312  26.644  36.366   0.819
18888W        W91313  25.437   2.951   3.294
18889W        W91314  25.777   1.906  14.972
18890W        W91315   6.386  25.606   0.865
18891W        W91316  30.553  29.949  10.717
18892W        W91317  14.023  44.996  14.493
18893W        W91318  41.448  17.181   0.256
18894W        W91319  20.540   1.270  12.073
18895W        W91320   7.649  43.437  12.005
18896W        W91321   1.456   3.331   5.232
18897W        W91322  37.629   5.151   3.161
18898W        W91323  21.035  23.404   0.001
18899W        W91324   7.717  41.036   3.997
18900W        W91325  39.923  43.335   1.359
18901W        W91326   3.660  43.790  14.325
18902W        W91327   2.144  20.142   2.807
18903W        W91328  40.358  14.034   2.857
18904W        W91329   7.294  30.471  11.921
18905W        W91330   4.383   9.894   1.832
18906W        W91331  10.873  43.780   0.367
18907W        W91332  31.895   3.864  14.360
18908W        W91333  42.161  27.179   3.229
18909W        W91334  36.851  39.429   0.227
18910W        W91335   4.688  32.954   2.795
18911W        W91336   3.320   9.503   1.482
18912W        W91337  44.735  31.933   1.152
18913W        W91338  12.419  17.290  13.976
18914W        W91339  14.056  29.963   0.866
18915W        W91340  44.550  31.701   2.587
18916W        W91341  41.511  31.696  14.811
18917W        W91342  17.551  40.942   0.017
18918W        W91343  26.446  15.066  12.462
18919W        W91344  39.051  26.674  10.941
18920W        W91345  11.020  21.984   4.173
18921W        W91346  20.116  43.418  11.626
18922W        W91347  36.149  37.417   1.347
18923W        W91348   1.959  12.427  14.917
18924W        W91349  42.148  21.009   2.399
18925W        W91350  31.403  17.471   4.080
18926W        W91351  32.121   2.458   0.703
18927W        W91352  28.661  22.639   4.315
18928W        W91353  27.616  41.889  14.102
18929W        W91354   5.861  16.380   0.775
18930W        W91355  16.365  40.773  13.526
18931W        W91356  36.991  21.585   2.835
18932W        W91357  44.154  27.504   4.705
18933W        W91358  30.141  17.840   1.339
18934W        W91359  33.899   9.212   1.860
18935W        W91360   7.605  37.590  14.422
18936W        W91361   1.094  11.597  14.438
18937W        W91362  28.912  13.126   0.457
18938W        W91363  11.920  10.714  11.613
18939W        W91364  14.137  22.089   0.234
18940W        W91365  13.772  31.855  14.759
18941W        W91366  14.697  39.749   0.175
18942W        W91367  17.182  24.109   3.630
18943W        W91368  24.344  39.141   0.047
18944W        W91369   5.849   9.908  10.673
18945W        W91370  42.008  22.564   3.095
18946W        W91371  11.134  30.696   4.600
18947W        W91372  25.585  43.896  12.016
18948W        W91373   7.832  17.543   1.442
18949W        W91374  23.965   0.720  13.409
18950W        W91375  10.288  19.700  14.406
18951W        W91376   7.511  37.711   4.184
18952W        W91377  14.703  23.977  14.990
18953W        W91378  25.534  24.989   1.209
18954W        W91379  22.494  34.083   2.055
18955W        W91380  35.939   0.716  13.302
18956W        W91381  44.801  10.604   2.221
18957W        W91382  32.605   4.884  12.419
18958W        W91383  18.524  27.970   0.247
18959W        W91384  43.478   1.472   2.246
18960W        W91385  22.554   1.185   2.899
18961W        W91386  30.919  29.079   2.721
18962W        W91387  36.464  17.161  13.900
18963W        W91388  26.166  28.549   1.524
18964W        W91389  39.088   2.421  13.943
18965W        W91390   7.765   0.865  12.988
18966W        W91391  24.419  24.102  13.583
18967W        W91392  27.539   7.415  13.464
18968W        W91393  23.467  31.520  11.640
18969W        W91394   2.145  13.752  11.123
18970W        W91395   2.453  37.332   2.778
18971W        W91396  43.152  39.203  12.650
18972W        W91397   8.866  13.738  12.934
18973W        W91398  27.178  24.556   2.019
18974W        W91399  44.294  34.734  11.579
18975W        W91400   7.302  12.911   2.839
18976W        W91401  26.628  34.644   2.228
18977W        W91402  20.192  27.675   4.659
18978W        W91403   5.215  20.719   4.057
18979W        W91404   5.652  44.312   3.890
18980W        W91405   6.296  27.255  14.338
18981W        W91406  36.350  24.956  14.928
18982W        W91407   2.482  25.656   3.187
18983W        W91408   0.733  35.093  12.956
18984W        W91409  26.494  38.989  14.737
18985W        W91410  13.680  43.237   0.165
18986W        W91411  27.411  24.051   2.772
18987W        W91412   4.402   8.237   1.596
18988W        W91413  43.957  40.662   3.377
18989W        W91414  36.517  15.622   3.699
18990W        W91415  18.263  38.601   3.250
18991W        W91416  38.639  32.528   0.287
18992W        W91417  30.559  32.787   2.202
18993W        W91418  13.076   5.419   4.186
18994W        W91419  32.522  32.642   0.415
18995W        W91420  43.719  14.092   0.027
18996W        W91421  16.622  17.870   1.251
18997W        W91422  19.246  20.018   3.209
18998W        W91423  17.894  11.180  12.927
18999W        W91424  25.937  31.030   1.614
19000W        W91425  44.996  37.014  11.003
19001W        W91426  23.549   0.638  14.276
19002W        W91427  17.992   1.163  12.246
19003W        W91428  37.510   8.377  11.454
19004W        W91429  42.391  24.788  11.858
19005W        W91430  36.420  25.053   0.776
19006W        W91431  14.368  21.986  14.326
19007W        W91432  25.262  11.622  11.825
19008W        W91433  15.712   5.844  10.188
19009W        W91434  43.237  18.698  11.538
19010W        W91435   0.334   6.216   2.305
19011W        W91436  10.244   4.819  14.909
19012W        W91437   7.963  41.045  14.158
19013W        W91438  37.419   3.479  11.154
19014W        W91439  20.557  31.553   3.225
19015W        W91440  31.517  16.165   9.849
19016W        W91441  10.235  19.948  14.843
19017W        W91442  13.824  36.546   3.171
19018W        W91443  30.522  21.741   4.599
19019W        W91444   7.168  43.540   2.781
19020W        W91445   4.803  38.740  10.620
19021W        W91446  32.126  34.462  12.917
19022W        W91447   4.456  13.161  12.186
19023W        W91448  33.596  36.970   3.262
19024W        W91449  43.092   4.268  14.495
19025W        W91450  16.600  42.852   0.432
19026W        W91451   5.795  26.029   4.049
19027W        W91452  17.988  36.851  11.609
19028W        W91453  42.232  18.043  11.180
19029W        W91454  15.721  16.506  12.148
19030W        W91455   4.844  19.523   5.082
19031W        W91456  40.179   1.665  11.958
19032W        W91457  37.414  34.433  12.012
19033W        W91458  20.709   9.836   1.286
19034W        W91459  33.494  33.344  12.510
19035W        W91460   2.022   9.400  14.458
19036W        W91461   3.004  12.869   4.880
19037W        W91462  36.507  40.984   3.195
19038W        W91463  24.747  17.167   0.783
19039W        W91464   8.239  29.120  11.490
19040W        W91465  22.677  24.659  14.930
19041W        W91466  31.647  34.489   4.971
19042W        W91467   7.290  35.957  13.013
19043W        W91468  30.117  22.391  11.187
19044W        W91469  33.526  14.173  10.251
19045W        W91470  42.117  23.880   3.286
19046W        W91471  11.216  31.708   4.691
19047W        W91472  26.062  12.024   3.343
19048W        W91473  26.559  30.593   2.150
19049W        W91474  10.203   3.395   2.724
19050W        W91475  40.916  25.062   4.804
19051W        W91476  19.731  26.885  11.047
19052W        W91477  39.400  27.004   0.782
19053W        W91478  23.549  29.917  14.818
19054W        W91479   0.913  39.727   2.607
19055W        W91480  39.817  15.017   2.397
19056W        W91481   2.404  21.004  14.110
19057W        W91482   3.452  44.417   2.403
19058W        W91483   2.190  14.386   4.413
19059W        W91484   7.362  12.140   1.385
19060W        W91485   6.405  34.545   2.863
19061W        W91486  26.159  42.190   0.458
19062W        W91487   9.773   6.414   3.549
19063W        W91488  10.911  13.310   3.844
19064W        W91489  37.880   9.031  11.898
19065W        W91490   5.343  43.307   0.640
19066W        W91491  40.172  34.853  11.278
19067W        W91492  11.969  40.435   0.261
19068W        W91493  34.398  29.226  10.465
19069W        W91494  25.135  38.064  11.707
19070W        W91495  12.124  23.501  11.056
19071W        W91496   4.737  39.803   0.627
19072W        W91497  44.248  10.317   5.110
19073W        W91498  36.426  21.725  13.391
19074W        W91499  27.675  24.523   2.180
19075W        W91500  34.656  41.966   0.835
19076W        W91501  24.824  25.053   3.435
19077W        W91502  27.950  34.000   3.209
19078W        W91503  42.026  29.514   2.155
19079W        W91504  28.872   6.768   0.834
19080W        W91505  29.197  19.510   2.278
19081W        W91506   7.857  40.444  10.858
19082W        W91507  32.542  33.151   0.532
19083W        W91508  12.263  30.926   2.600
19084W        W91509  16.576  29.945  10.598
19085W        W91510  26.262   3.245   0.116
19086W        W91511   6.220   1.519   0.860
19087W        W91512  30.013  41.266  14.885
19088W        W91513  22.053  27.451  14.827
19089W        W91514  20.310  20.501  10.699
19090W        W91515   4.789   9.635  12.127
19091W        W91516  41.468  18.663   2.612
19092W        W91517  29.711  11.500  14.382
19093W        W91518  30.394  29.116  14.878
19094W        W91519  40.300  33.426  11.261
19095W        W91520  30.471  36.563  14.993
19096W        W91521  16.532  15.636   1.709
19097W        W91522  25.966  29.895  14.102
19098W        W91523  42.122  39.990  14.060
19099W        W91524  11.688  20.750   4.818
19100W        W91525   2.383  25.128  12.651
19101W        W91526  14.146  43.401   1.008
19102W        W91527   5.865  16.910  13.823
19103W        W91528   4.432  39.343  11.154
19104W        W91529  28.056   4.961   1.732
19105W        W91530  24.133   9.858  12.654
19106W        W91531  41.028  32.040  13.945
19107W        W91532  36.851  25.536  12.077
19108W        W91533  22.724  16.699  11.655
19109W        W91534  44.001  27.577  11.477
19110W        W91535   1.363  19.825  10.563
19111W        W91536   8.807  33.163   1.725
19112W        W91537  35.551  11.577   1.862
19113W        W91538  20.666  12.809   2.419
19114W        W91539  27.194  41.288   0.260
19115W        W91540   0.238  33.184  11.117
19116W        W91541   0.329   7.403   1.888
19117W        W91542  39.577  16.067  11.218
19118W        W91543  40.972  22.198  14.657
19119W        W91544  37.888   3.100   3.785
19120W        W91545  23.615  25.717  14.963
19121W        W91546  23.568  15.836   2.882
19122W        W91547   2.556  44.280   3.211
19123W        W91548  10.677  43.713  12.800
19124W        W91549   7.945  24.944  14.969
19125W        W91550   1.050   0.906  12.130
19126W        W91551  15.426  26.562  11.210
19127W        W91552  29.661  24.244  14.237
19128W        W91553  12.799  22.779   3.271
19129W        W91554   3.295  30.899  14.962
19130W        W91555   1.818  27.632   1.065
19131W        W91556   5.960  39.311  13.048
19132W        W91557   4.204  40.468  10.782
19133W        W91558  36.404   5.776  14.334
19134W        W91559  40.448  35.688   2.107
19135W        W91560  31.494   1.417  13.868
19136W        W91561   2.860  21.682  14.499
19137W        W91562   5.302  38.838  12.658
19138W        W91563  40.485  40.474  14.385
19139W        W91564  10.261  32.019   1.710
19140W        W91565  27.423   2.471   0.922
19141W        W91566  35.001  43.843   1.329
19142W        W91567  23.612  11.620  10.475
19143W        W91568  30.995  20.589   1.463
19144W        W91569  17.224   6.254   2.065
19145W        W91570  18.152  19.995  13.398
19146W        W91571  13.732  25.934   0.214
19147W        W91572  17.693  29.685   2.432
19148W        W91573  41.319   8.711  11.889
19149W        W91574  14.189  37.755  11.460
19150W        W91575  44.757  18.571  14.684
19151W        W91576  34.489  41.953  14.318
19152W        W91577  26.808  18.691  11.373
19153W        W91578   7.150  34.973  10.684
19154W        W91579  30.731  42.841  14.398
19155W        W91580   7.270  33.330  14.307
19156W        W91581  25.475  11.636  10.754
19157W        W91582  36.441  27.497  12.122
19158W        W91583  39.539  29.067   4.926
19159W        W91584  31.413  35.361  14.846
19160W        W91585   6.295   9.827  13.833
19161W        W91586  34.103  25.511  14.323
19162W        W91587   9.166  10.577  10.482
19163W        W91588  35.376  18.774  11.286
19164W        W91589  29.767  27.162   2.709
19165W        W91590  30.471  37.326  11.662
19166W        W91591  42.288  34.994  12.535
19167W        W91592  17.173   5.387   3.620
19168W        W91593   2.477  43.051   0.064
19169W        W91594  36.655   5.861   0.847
19170W        W91595  19.780  41.445   1.808
19171W        W91596  42.386  42.342  14.481
19172W        W91597  18.170  16.773  11.928
19173W        W91598  21.369  30.210   1.324
19174W        W91599  27.651  10.882   2.716
19175W        W91600  23.629   2.626   0.822
19176W        W91601  32.598   5.392  14.383
19177W        W91602  35.094  11.969   1.840
19178W        W91603  12.723  34.371   2.211
19179W        W91604  16.570  32.997  13.762
19180W        W91605  22.245  38.302  11.009
19181W        W91606  33.497  39.972  11.968
19182W        W91607  27.840  23.067   3.015
19183W        W91608  20.577  27.921   0.201
19184W        W91609  19.447  11.937  13.560
19185W        W91610  25.748  36.585   2.169
19186W        W91611  34.464  43.521  13.367
19187W        W91612  19.465  34.604  12.840
19188W        W91613  34.622  20.259   0.312
19189W        W91614   4.699   4.334   3.362
19190W        W91615  39.035   8.287  12.925
19191W        W91616  26.823  38.404  12.566
19192W        W91617  36.362  29.920  13.981
19193W        W91618  22.230  44.828   3.349
19194W        W91619   8.221  41.537   4.617
19195W        W91620   9.544  42.488  13.441
19196W        W91621   9.198   8.429  11.712
19197W        W91622  10.407  14.462   4.375
19198W        W91623  17.015   0.949   1.307
19199W        W91624  36.644   0.859  11.163
19200W        W91625  10.688  41.047   2.384
19201W        W91626   2.659  24.898  13.378
19202W        W91627  18.789   6.406   4.142
19203W        W91628  36.663  39.086  12.565
19204W        W91629   6.862  22.206  10.767
19205W        W91630  33.455   3.179   1.271
19206W        W91631   0.064  31.565   2.852
19207W        W91632  22.498  11.740  10.648
19208W        W91633  41.242   8.130   0.136
19209W        W91634   4.010  37.918   3.754
19210W        W91635   7.415  27.521   2.267
19211W        W91636  13.687  24.160   2.778
19212W        W91637   9.844  40.886  11.659
19213W        W91638   0.118  28.637   4.614
19214W        W91639  29.155  30.690   4.953
19215W        W91640   4.423   9.897  13.941
19216W        W91641  25.407  12.369  13.882
19217W        W91642   2.745  41.291  14.364
19218W        W91643  20.909  40.476   4.217
19219W        W91644  28.888   8.234  13.627
19220W        W91645  41.501  41.072  14.953
19221W        W91646   2.677  28.565  14.751
19222W        W91647  39.325  30.216   4.188
19223W        W91648  14.788  27.549   4.740
19224W        W91649  29.202  24.023  11.453
19225W        W91650  30.654  40.567  14.446
19226W        W91651   7.744  34.459   1.804
19227W        W91652  34.462   1.815  10.784
19228W        W91653  14.256  39.777   2.772
19229W        W91654  23.603  20.906   2.966
19230W        W91655   9.818  32.115  12.530
19231W        W91656  19.041  38.572  12.530
19232W        W91657  21.769  11.192   3.292
19233W        W91658  36.337  30.146  13.106
19234W        W91659  37.975  26.781   0.897
19235W        W91660  34.546  38.240   2.292
19236W        W91661  16.006  10.143   3.602
19237W        W91662  11.856  29.615   1.420
19238W        W91663  42.134  35.241  11.166
19239W        W91664  44.915  36.208   3.659
19240W        W91665  30.654  10.872   2.320
19241W        W91666  38.318  11.529  11.382
19242W        W91667  22.784  25.203   2.689
19243W        W91668  26.006  26.660   1.928
19244W        W91669   2.242  36.494   1.162
19245W        W91670  28.721   6.604  13.070
19246W        W91671   1.346   4.763  12.863
19247W        W91672  33.052  43.298   3.878
19248W        W91673  15.282  28.940   4.296
19249W        W91674  13.626  20.236  11.051
19250W        W91675   1.562   4.795   2.321
19251W        W91676  14.412   3.244  13.540
19252W        W91677  23.749  40.677  11.714
19253W        W91678  32.674  21.022   1.195
19254W        W91679  11.928  42.814   1.876
19255W        W91680  10.635  34.814  11.523
19256W        W91681  44.262   7.514   3.171
19257W        W91682  32.593  22.801  12.689
19258W        W91683  28.456  41.033   3.819
19259W        W91684  37.944  22.274  13.547
19260W        W91685  25.139   2.832  11.877
19261W        W91686  37.387  14.285  14.356
19262W        W91687  14.622  12.674  13.276
19263W        W91688  25.485  27.686  13.926
19264W        W91689  29.576  10.549   5.116
19265W        W91690  43.879  42.260   0.345
19266W        W91691   3.945   5.543   2.169
19267W        W91692  36.374  28.753  14.984
19268W        W91693   7.301  17.833   4.036
19269W        W91694  28.449  42.254   3.081
19270W        W91695  28.794  41.310  14.497
19271W        W91696  44.455  18.015  12.504
19272W        W91697  29.575  23.591   4.903
19273W        W91698  38.512  38.950   0.824
19274W        W91699  41.806   4.874  11.147
19275W        W91700  36.764  44.989  11.656
19276W        W91701  10.576  31.443   5.044
19277W        W91702  27.990   6.196  11.157
19278W        W91703  10.816  27.630  13.459
19279W        W91704  12.917  20.207   3.935
19280W        W91705  13.944  23.566  10.676
19281W        W91706   3.161  42.270  14.995
19282W        W91707   3.476   7.069  14.500
19283W        W91708  41.778  29.598   3.100
19284W        W91709  28.233  10.695  11.257
19285W        W91710  16.823  31.967   1.360
19286W        W91711  24.512  37.020   4.562
19287W        W91712  12.490   3.623  12.691
19288W        W91713   6.118  11.719   0.397
19289W        W91714   6.057   4.651  14.018
19290W        W91715  16.259  27.603  14.532
19291W        W91716  37.389  27.014   4.073
19292W        W91717  19.069  18.741   2.680
19293W        W91718  10.835   4.443  11.140
19294W        W91719  32.818  36.087   4.724
19295W        W91720  21.938  17.079   1.234
19296W        W91721  39.603   1.502  12.954
19297W        W91722  21.274  36.372  13.488
19298W        W91723  39.977  33.988   1.336
19299W        W91724   0.002  33.370  13.546
19300W        W91725  34.799  36.329  13.770
19301W        W91726  16.528  30.051  13.262
19302W        W91727  33.583  31.290  10.814
19303W        W91728  14.824  28.434   3.665
19304W        W91729  35.983  25.652  13.934
19305W        W91730  15.900  12.224   4.300
19306W        W91731  28.483  22.624   0.760
19307W        W91732  30.200  29.385   3.014
19308W        W91733  14.460  16.258  13.834
19309W        W91734  14.430  28.600  10.713
19310W        W91735  14.095  18.208  14.382
19311W        W91736  29.386  38.974  10.657
19312W        W91737  21.582   1.131   0.143
19313W        W91738   0.517  17.221   4.048
19314W        W91739   6.835  23.169  11.400
19315W        W91740  20.694  31.185  12.861
19316W        W91741  38.415   5.138   1.437
19317W        W91742  31.512   7.787  12.180
19318W        W91743  36.011  20.680   0.062
19319W        W91744  20.964  15.470   0.876
19320W        W91745   3.146  16.778   2.694
19321W        W91746  30.388  23.254   3.967
19322W        W91747  36.577  27.164  12.491
19323W        W91748   1.970  44.045   4.483
19324W        W91749   1.355  18.110  12.109
19325W        W91750   7.057  29.522   4.200
19326W        W91751  31.892  16.372  11.549
19327W        W91752  41.393  25.265  11.816
19328W        W91753  36.091  32.172  13.369
19329W        W91754  28.714  11.516  14.907
19330W        W91755  20.988   7.895   1.727
19331W        W91756  23.609  26.252   2.853
19332W        W91757  17.202   2.482  14.534
19333W        W91758  40.674  13.189   2.657
19334W        W91759  14.485  16.077   1.591
19335W        W91760   4.648   0.289   1.703
19336W        W91761  35.102  16.176   2.955
19337W        W91762  27.834   5.129   3.259
19338W        W91763  19.945  36.155  10.981
19339W        W91764  29.505  28.579   4.257
19340W        W91765  28.509  11.780  13.422
19341W        W91766  10.129  25.211   2.895
19342W        W91767  39.600  30.642  13.983
19343W        W91768  33.819  22.418  13.631
19344W        W91769  33.444  26.702   2.303
19345W        W91770  21.990  33.556   1.309
19346W        W91771  38.083   8.842   1.493
19347W        W91772  16.285  41.298  11.542
19348W        W91773  12.184  31.105   1.667
19349W        W91774   0.507  43.244  11.092
19350W        W91775  39.144  40.287   2.727
19351W        W91776   6.237  23.429  11.142
19352W        W91777  41.281   4.717  12.008
19353W        W91778  25.481  23.914   4.842
19354W        W91779  37.524  42.758  13.995
19355W        W91780  15.109  35.545   4.613
19356W        W91781  23.510  19.798  10.918
19357W        W91782   0.725  37.030   1.918
19358W        W91783  34.335  44.775   0.472
19359W        W91784   1.924   0.927   4.941
19360W        W91785  12.885  24.864   5.095
19361W        W91786  16.952  43.871  11.135
19362W        W91787  40.006  37.964   3.413
19363W        W91788  30.334  37.475   1.932
19364W        W91789  43.872  31.196   0.410
19365W        W91790   0.475  14.365  13.364
19366W        W91791  24.819   2.190   2.960
19367W        W91792  30.019  12.191  12.114
19368W        W91793  14.112  39.119  11.680
19369W        W91794  31.520  11.155  13.513
19370W        W91795   4.939  11.624  11.014
19371W        W91796  26.820  19.750  14.451
19372W        W91797  19.185  11.827   1.824
19373W        W91798  14.789  37.046  12.356
19374W        W91799   6.790  12.932   2.677
19375W        W91800  31.642  25.504  14.915
19376W        W91801  38.634  27.708  11.698
19377W        W91802   7.968  19.451   4.171
19378W        W91803  28.983  36.109   0.631
19379W        W91804  17.315  15.846  11.124
19380W        W91805  26.015  32.459   4.170
19381W        W91806  32.968  34.718   1.198
19382W        W91807  37.833   5.281   1.695
19383W        W91808  27.234  13.878  11.143
19384W        W91809  16.118  39.913   1.496
19385W        W91810   1.705  44.376  12.044
19386W        W91811  22.195  30.525   4.591
19387W        W91812  33.494  13.875  12.071
19388W        W91813  17.123  40.764  14.805
19389W        W91814  18.856  25.677  13.774
19390W        W91815  14.102  40.749   0.077
19391W        W91816  11.888  21.715  12.484
19392W        W91817  15.079  39.577   4.217
19393W        W91818  18.606   4.140   4.973
19394W        W91819  35.013  22.263  13.862
19395W        W91820  31.171  14.832   2.788
19396W        W91821  34.631   1.748  14.095
19397W        W91822  22.660  37.969   0.663
19398W        W91823  17.027   3.788   0.973
19399W        W91824   7.456  36.488  14.747
19400W        W91825  25.541  43.462   0.800
19401W        W91826  41.830  21.163   0.693
19402W        W91827  20.290  30.673   2.204
19403W        W91828   6.617  27.675   3.407
19404W        W91829  15.675  21.295  13.268
19405W        W91830  35.382  29.188  10.853
19406W        W91831  29.753  32.082   1.284
19407W        W91832  21.116   4.203   4.601
19408W        W91833  13.817  18.457  12.452
19409W        W91834   4.282  43.475   1.272
19410W        W91835  30.660   4.639   1.731
19411W        W91836  17.790  43.919   2.763
19412W        W91837   1.693  38.389  14.599
19413W        W91838   7.776  37.843  13.154
19414W        W91839  25.177   9.833  14.718
19415W        W91840  27.525  26.939  14.843
19416W        W91841   1.979   6.436  12.127
19417W        W91842  12.271  33.715  14.234
19418W        W91843  16.696   0.549   0.926
19419W        W91844  36.316   9.183  12.953
19420W        W91845   3.436  38.151  12.691
19421W        W91846  21.892  13.807   0.407
19422W        W91847  38.557  43.859   2.332
19423W        W91848  43.457  39.123  13.805
19424W        W91849  26.089  32.469   3.345
19425W        W91850  43.356  15.383   0.881
19426W        W91851  31.377  18.644   2.490
19427W        W91852  42.931  22.261   1.326
19428W        W91853  35.332  34.001   4.579
19429W        W91854  27.602  16.297  10.670
19430W        W91855  19.277   6.308  11.938
19431W        W91856  24.981  14.549   3.773
19432W        W91857  23.155  20.717  12.930
19433W        W91858  33.100  15.612  11.148
19434W        W91859   3.290  16.561   4.217
19435W        W91860  41.587  44.879   1.764
19436W        W91861  13.846   6.428  12.404
19437W        W91862  32.562  32.689   2.682
19438W        W91863  18.629  23.762   0.772
19439W        W91864  38.168  15.663   4.489
19440W        W91865   9.624  28.448   0.810
19441W        W91866  12.445  40.352  14.338
19442W        W91867  19.224  22.273  10.705
19443W        W91868  22.575   9.431   2.250
19444W        W91869  15.908  38.645  10.196
19445W        W91870  22.916  41.576  12.955
19446W        W91871  38.980  42.120  11.476
19447W        W91872  15.037  36.441  12.531
19448W        W91873  30.253  23.749  14.929
19449W        W91874   2.349  44.139  11.442
19450W        W91875  40.602  19.512   1.771
19451W        W91876  30.164  15.620   0.903
19452W        W91877  16.817  34.300  13.668
19453W        W91878   9.684  35.873   1.789
19454W        W91879  18.704  15.757  12.418
19455W        W91880  13.376   1.015  12.945
19456W        W91881  13.892   4.986  13.882
19457W        W91882  20.679  40.888   4.484
19458W        W91883  43.930  19.647  13.800
19459W        W91884  21.653  30.405   2.188
19460W        W91885  10.846  14.570   3.583
19461W        W91886  11.126  34.302   4.151
19462W        W91887  27.027  44.184   0.999
19463W        W91888  23.606  30.355  11.932
19464W        W91889  31.384  16.093  10.701
19465W        W91890   3.884  28.969   1.296
19466W        W91891  11.759  22.141   4.640
19467W        W91892  10.778  32.500   3.764
19468W        W91893  11.206   8.676  10.035
19469W        W91894  29.030  20.618   4.653
19470W        W91895   3.639  13.828  14.258
19471W        W91896  30.191  31.094   0.334
19472W        W91897   3.332  29.087  10.131
19473W        W91898  14.722  23.216   1.459
19474W        W91899  23.004  24.823  12.366
19475W        W91900  26.094  37.364  10.098
19476W        W91901  39.065  43.196   2.853
19477W        W91902  15.485  32.580  11.549
19478W        W91903  42.673  35.406  11.002
19479W        W91904  30.965  43.427  11.155
19480W        W91905  19.866   5.312   1.816
19481W        W91906  19.076   0.236  14.056
19482W        W91907  17.592  38.632  12.101
19483W        W91908  27.619  11.703   0.929
19484W        W91909   7.645  17.763   3.287
19485W        W91910  17.858  43.988   2.233
19486W        W91911  24.205  13.179   0.440
19487W        W91912  12.712  26.492   3.194
19488W        W91913  13.804  26.662   0.717
19489W        W91914  22.259   5.364   3.379
19490W        W91915   8.785  35.752   0.752
19491W        W91916   7.697  13.431   0.340
19492W        W91917  12.038   8.792   3.731
19493W        W91918   2.384  38.919  13.947
19494W        W91919  36.938   5.316   4.152
19495W        W91920   1.175  23.198  10.790
19496W        W91921  10.355  34.382   2.244
19497W        W91922  32.399  18.937  12.452
19498W        W91923  42.563  19.151  14.763
19499W        W91924  44.848  39.588  12.425
19500W        W91925  37.850  23.260   2.138
19501W        W91926   5.911  40.943  12.388
19502W        W91927   2.979  32.454  14.681
19503W        W91928   1.374  23.653   1.010
19504W        W91929  23.218   0.277   0.175
19505W        W91930   0.729   2.109  11.014
19506W        W91931   1.381   4.836   1.030
19507W        W91932  15.605  36.013   1.240
19508W        W91933  14.673  26.510  10.949
19509W        W91934  29.099  42.162  14.391
19510W        W91935   1.784  43.853  14.838
19511W        W91936  26.539  38.397   4.420
19512W        W91937  42.476  43.871  14.846
19513W        W91938  12.761  16.676  12.363
19514W        W91939  18.818  40.225  12.864
19515W        W91940   9.629  14.662   2.437
19516W        W91941  15.148  34.121   1.754
19517W        W91942  19.686   1.789  10.596
19518W        W91943  25.406   6.554   2.911
19519W        W91944  44.379  14.621  12.041
19520W        W91945  19.740  12.110  10.794
19521W        W91946  27.766  24.233   0.892
19522W        W91947  37.806  11.307   2.960
19523W        W91948  21.615   8.766   4.467
19524W        W91949  16.871  27.546   3.611
19525W        W91950   6.470   0.279  12.814
19526W        W91951   3.901  10.197  14.750
19527W        W91952  32.773  30.485  14.871
19528W        W91953  24.387  22.185  12.517
19529W        W91954   1.648  42.985   3.622
19530W        W91955   0.033  14.097  13.334
19531W        W91956  17.654  35.504  11.600
19532W        W91957  22.074  10.656  14.503
19533W        W91958   9.707  13.802   3.663
19534W        W91959   6.656  20.528  12.501
19535W        W91960   2.509   4.352  12.846
19536W        W91961  16.808  35.061   3.291
19537W        W91962  26.870  37.522  13.428
19538W        W91963   5.746  42.756  13.324
19539W        W91964  21.587   0.050   1.935
19540W        W91965  17.865  43.982  12.349
19541W        W91966  41.063  28.200   3.159
19542W        W91967  42.690  41.881   4.430
19543W        W91968  38.345  40.090  12.439
19544W        W91969   8.144  33.868  14.378
19545W        W91970  29.006   8.866   3.110
19546W        W91971  13.241  10.384   3.032
19547W        W91972  38.425  17.675   3.833
19548W        W91973  12.658  14.066   2.880
19549W        W91974  15.369   6.757   1.213
19550W        W91975  41.044  41.134  11.058
19551W        W91976  39.764  29.627   2.836
19552W        W91977   8.025  25.166   0.957
19553W        W91978  17.699  14.385   2.858
19554W        W91979  36.089  36.088   4.976
19555W        W91980  35.128  28.123   0.014
19556W        W91981  26.868   0.524  12.156
19557W        W91982  16.879  10.155   0.955
19558W        W91983  26.627  16.516  11.704
19559W        W91984  32.943  16.304  11.033
19560W        W91985  39.102  26.286   1.928
19561W        W91986  39.799  33.796  14.401
19562W        W91987   5.074   4.904   5.196
19563W        W91988  13.591  21.604   4.628
19564W        W91989  25.677   3.749  13.439
19565W        W91990   6.722  27.143   3.255
19566W        W91991  17.686  19.700  11.546
19567W        W91992   5.308  32.339  14.266
19568W        W91993   3.733  29.401   3.300
19569W        W91994  32.490  11.846  12.960
19570W        W91995   0.854  39.884  13.858
19571W        W91996   4.377  37.616  13.999
19572W        W91997  27.199  39.983  13.028
19573W        W91998  39.342  32.444   0.931
19574W        W91999  21.011  28.477   2.301
19575W        W92000  40.466   6.648   0.129
19576W        W92001  29.202  30.582  11.184
19577W        W92002  19.153   9.386   2.774
19578W        W92003  24.524   6.981  11.693
19579W        W92004   2.476  19.032  14.297
19580W        W92005   0.325  44.707   0.281
19581W        W92006   7.817   8.640   0.050
19582W        W92007   1.422  28.713  13.394
19583W        W92008  36.174   5.543   4.587
19584W        W92009  16.299  33.150   4.140
19585W        W92010  34.081  11.718  12.041
19586W        W92011  41.239  22.293  14.177
19587W        W92012  39.531   0.983  12.864
19588W        W92013   4.449   9.670  12.559
19589W        W92014  23.888  10.403   2.427
19590W        W92015  39.361  31.158  11.661
19591W        W92016  29.514  25.219   1.725
19592W        W92017   8.613  29.162  14.276
19593W        W92018  27.858  26.969  11.090
19594W        W92019  40.373  10.284  12.500
19595W        W92020  27.974  16.296  10.290
19596W        W92021  44.244   6.853   4.147
19597W        W92022  40.607  23.274   4.613
19598W        W92023  42.469  14.531  10.782
19599W        W92024  42.070  33.923  14.256
19600W        W92025  30.462  34.047  14.510
19601W        W92026   2.288  19.804  10.100
19602W        W92027  27.236  24.248   4.065
19603W        W92028  27.138  17.237  13.902
19604W        W92029   3.498  34.417  12.045
19605W        W92030  32.138  18.289  14.921
19606W        W92031  35.619  17.249  13.592
19607W        W92032  26.692  28.064  10.717
19608W        W92033  28.533  21.976  14.929
19609W        W92034  20.016  32.562   2.224
19610W        W92035  19.793  22.584   1.963
19611W        W92036  12.117  22.114   3.355
19612W        W92037  33.498   8.496  12.033
19613W        W92038  21.208   3.938   2.814
19614W        W92039  26.168  10.498   0.124
19615W        W92040  32.584  42.599   1.805
19616W        W92041   2.269  24.526  14.366
19617W        W92042  13.697   7.061  12.115
19618W        W92043  17.078  36.938  13.564
19619W        W92044  27.700  35.743   1.292
19620W        W92045  25.111  16.393  13.057
19621W        W92046   5.168  37.419  12.094
19622W        W92047  44.344  11.133   2.908
19623W        W92048  18.461  13.154   2.705
19624W        W92049  10.167   7.399  13.811
19625W        W92050  24.066   4.474   4.207
19626W        W92051   9.096  22.043   1.189
19627W        W92052  34.422  10.839   0.461
19628W        W92053   3.289  21.206  14.031
19629W        W92054  38.887  40.792  11.559
19630W        W92055  32.703   1.534  12.361
19631W        W92056  44.283  32.057  14.806
19632W        W92057  39.018  20.775   4.685
19633W        W92058   7.877   8.444  13.019
19634W        W92059  31.105  21.198   3.140
19635W        W92060   1.488   7.016  13.001
19636W        W92061  12.570  10.879   3.169
19637W        W92062   4.660  36.107  10.275
19638W        W92063  19.041   5.963   4.196
19639W        W92064  24.967   7.406   0.802
19640W        W92065  37.360  18.952   1.380
19641W        W92066  27.790  37.554  12.502
19642W        W92067   6.704  31.250  11.951
19643W        W92068   8.560  39.905  10.703
19644W        W92069   4.353  29.820  14.568
19645W        W92070  31.206  39.813   1.320
19646W        W92071  23.180  33.918   1.476
19647W        W92072  44.840   5.426   4.261
19648W        W92073  30.920   1.570   2.665
19649W        W92074  12.307   8.149  13.234
19650W        W92075  44.494  37.576   3.328
19651W        W92076  34.507   6.308   3.168
19652W        W92077  23.661  12.804   2.393
19653W        W92078  12.578   3.370   2.659
19654W        W92079  28.082  13.239  11.476
19655W        W92080  34.393  39.389  12.595
19656W        W92081   0.939  32.634   1.964
19657W        W92082  26.595  30.775  12.578
19658W        W92083  33.164  16.958  12.515
19659W        W92084  13.402   8.987  13.795
19660W        W92085   9.214  35.030  10.861
19661W        W92086  35.685  37.918   2.740
19662W        W92087  21.574  26.579  14.596
19663W        W92088  35.734  26.585   1.157
19664W        W92089  38.181  35.169  13.422
19665W        W92090  30.216  30.750  13.354
19666W        W92091  38.308  10.412   2.811
19667W        W92092  21.758  14.276   0.262
19668W        W92093  11.991  44.276  13.871
19669W        W92094  23.273  30.082  14.383
19670W        W92095  19.683  31.804  13.418
19671W        W92096   3.952  30.106  13.770
19672W        W92097   7.882  40.702   0.396
19673W        W92098  10.752   8.617   0.965
19674W        W92099  19.326  40.892  12.282
19675W        W92100  30.474  23.291  14.938
19676W        W92101  18.690  32.239   1.453
19677W        W92102  18.537  30.015  14.076
19678W        W92103  24.642  13.476   3.753
19679W        W92104   1.680  41.375   4.252
19680W        W92105  10.653   9.506   4.233
19681W        W92106   2.264  29.525  10.347
19682W        W92107  13.982  16.236  11.989
19683W        W92108  40.874  43.775   1.570
19684W        W92109  12.146  27.716  14.469
19685W        W92110  26.988   9.320   1.194
19686W        W92111  34.095  17.815   1.779
19687W        W92112  17.593  16.132  11.437
19688W        W92113  44.522  10.020   4.193
19689W        W92114  29.909  38.833  12.065
19690W        W92115  20.385   6.671   1.648
19691W        W92116   5.027  41.729   3.187
19692W        W92117   0.335  22.030  10.636
19693W        W92118  13.148  40.462   1.312
19694W        W92119  42.580  11.829   4.133
19695W        W92120  36.092  37.875  11.412
19696W        W92121   2.273   1.737  12.430
19697W        W92122  30.486  41.331   3.664
19698W        W92123  26.944  33.109   4.800
19699W        W92124   7.641  10.360   2.696
19700W        W92125  15.071  41.343   0.921
19701W        W92126  41.873  11.002   2.694
19702W        W92127  23.177   5.783   2.181
19703W        W92128  16.652   4.489   0.768
19704W        W92129  15.447   2.188   3.291
19705W        W92130  32.169  40.306   0.278
19706W        W92131   9.443  14.530   1.508
19707W        W92132  11.842  11.874  12.396
19708W        W92133  38.706  10.047   1.553
19709W        W92134  27.467  44.675   1.246
19710W        W92135  39.505  11.206  10.929
19711W        W92136  36.860   3.418  12.639
19712W        W92137  14.275   4.223   3.128
19713W        W92138   4.753  16.073   0.507
19714W        W92139   7.599  21.544   4.775
19715W        W92140   6.741  11.917   1.754
19716W        W92141  30.973  37.299  11.060
19717W        W92142  42.479  20.140  13.313
19718W        W92143  29.865  42.142  12.625
19719W        W92144  26.712  40.412   1.415
19720W        W92145  30.554  37.485  13.609
19721W        W92146  41.971  44.794  14.754
19722W        W92147  15.571  42.848  12.909
19723W        W92148  26.954  34.208   4.138
19724W        W92149  41.501   3.423  12.002
19725W        W92150  17.745  42.407   0.739
19726W        W92151  16.586  12.659  13.344
19727W        W92152   4.433  34.664  12.904
19728W        W92153  11.265  42.493   0.782
19729W        W92154  27.526  24.473   4.692
19730W        W92155  43.985  33.677   3.820
19731W        W92156  29.390  19.369  14.862
19732W        W92157  38.175  20.560  11.415
19733W        W92158   5.307  21.386  12.543
19734W        W92159  31.707  22.728  14.783
19735W        W92160  21.714   9.313  14.388
19736W        W92161  23.723  26.693  11.888
19737W        W92162  41.965  27.871   0.296
19738W        W92163  14.723  11.228  11.472
19739W        W92164  16.160  27.185   0.869
19740W        W92165  16.975  18.792   0.591
19741W        W92166   9.254  30.645   4.782
19742W        W92167  20.753  31.057   3.014
19743W        W92168  39.624  13.801   1.337
19744W        W92169  22.169  15.473  11.455
19745W        W92170   0.770   3.067  12.639
19746W        W92171  44.067   9.677   3.152
19747W        W92172  39.047  17.068   2.144
19748W        W92173  36.873   2.692  14.182
19749W        W92174  31.975  21.675  10.393
19750W        W92175  25.571  30.755  12.620
19751W        W92176  17.540   1.247   0.489
19752W        W92177   3.770   7.891  12.665
19753W        W92178  41.461  36.185  10.596
19754W        W92179  18.690  35.323  10.776
19755W        W92180  27.171  29.019   0.449
19756W        W92181  36.650  33.982  14.111
19757W        W92182   2.434  34.655  13.480
19758W        W92183  16.165  17.772  13.804
19759W        W92184  25.126  17.816   1.685
19760W        W92185  16.750   7.868   1.393
19761W        W92186  39.962  37.280  10.722
19762W        W92187   4.599  30.889  13.553
19763W        W92188  14.574  22.993  11.515
19764W        W92189  21.056  44.183  14.810
19765W        W92190  18.172  17.843  14.466
19766W        W92191  41.217  27.575  11.477
19767W        W92192  16.158   5.052  10.910
19768W        W92193  34.586  10.480   4.625
19769W        W92194  29.964  26.599   2.362
19770W        W92195  14.534  14.223   0.220
19771W        W92196  14.122  23.397  13.301
19772W        W92197  23.255  21.776   0.930
19773W        W92198  11.315   4.341   1.646
19774W        W92199  25.167  44.853   3.986
19775W        W92200   8.459  11.321   1.397
19776W        W92201  37.736  10.544  11.117
19777W        W92202  31.041  29.544  14.911
19778W        W92203  23.082  37.917  12.443
19779W        W92204  34.279  40.109  11.378
19780W        W92205  44.522   7.615  12.874
19781W        W92206   2.712   4.912   0.005
19782W        W92207  14.735  32.843   2.918
19783W        W92208   1.308   0.461   2.232
19784W        W92209  42.756   8.172   1.434
19785W        W92210  43.711   9.227   3.734
19786W        W92211  41.218  28.025  11.196
19787W        W92212  24.688   1.308  10.782
19788W        W92213  37.005  30.467   1.348
19789W        W92214  14.165   3.690  13.644
19790W        W92215  32.460   7.268  13.294
19791W        W92216  33.870  44.855  11.504
19792W        W92217  31.928  21.181  14.334
19793W        W92218  44.350  31.157  13.524
19794W        W92219  42.891  13.246   3.779
19795W        W92220  43.225  38.006  12.100
19796W        W92221  22.663  33.130   2.265
19797W        W92222  38.116  16.382  12.412
19798W        W92223  10.770  10.970  12.381
19799W        W92224  11.824  12.571   0.719
19800W        W92225  19.149  14.443   0.517
19801W        W92226  23.693  23.612  12.772
19802W        W92227  10.712  29.903  11.596
19803W        W92228  19.481  16.551   4.870
19804W        W92229  44.894  27.433   2.178
19805W        W92230   9.612  33.842  10.425
19806W        W92231  20.247   3.057  10.626
19807W        W92232  11.915  41.219   0.925
19808W        W92233   9.736  15.148   3.257
19809W        W92234  25.190  41.314  14.287
19810W        W92235   5.326   2.736   0.873
19811W        W92236   5.983  43.804   0.299
19812W        W92237  13.217  41.412  14.425
19813W        W92238  42.482   1.352   4.655
19814W        W92239   5.670  15.595   2.156
19815W        W92240  24.067  18.226   3.062
19816W        W92241   0.499  25.464  10.730
19817W        W92242   9.391   0.720   0.316
19818W        W92243  44.670  17.554   1.397
19819W        W92244  42.879  15.526  14.752
19820W        W92245  11.978  34.705  12.493
19821W        W92246  27.647  33.545  11.391
19822W        W92247  41.440   3.310   4.398
19823W        W92248  28.407  24.830  13.413
19824W        W92249  29.960  29.115   3.777
19825W        W92250  20.676  40.996  13.356
19826W        W92251  41.255  38.974  14.833
19827W        W92252  40.067  34.403  10.916
19828W        W92253  24.677  14.175  12.430
19829W        W92254   5.924  32.311   4.205
19830W        W92255   9.730  30.184  11.120
19831W        W92256  25.045  44.954  14.908
19832W        W92257   5.883  39.838  13.815
19833W        W92258  43.335  34.971   2.839
19834W        W92259  31.793  14.413  12.846
19835W        W92260  34.524  23.096  13.468
19836W        W92261   7.180  37.759  11.517
19837W        W92262  26.909  30.097   1.461
19838W        W92263   0.733  40.800   0.907
19839W        W92264   4.971  39.336   1.811
19840W        W92265  40.780   2.234  11.094
19841W        W92266   4.909  14.857  14.057
19842W        W92267  26.846   8.321   2.175
19843W        W92268  35.161  11.397  11.082
19844W        W92269  33.880  11.534   2.774
19845W        W92270  37.877  38.031  11.213
19846W        W92271  40.347  43.849   3.763
19847W        W92272  22.347  20.092  14.402
19848W        W92273  20.281  30.108   2.159
19849W        W92274   1.791  25.437  13.450
19850W        W92275  43.912  18.689   0.319
19851W        W92276  42.498  38.856  13.461
19852W        W92277  38.732  40.926  11.075
19853W        W92278   9.340  30.122  10.679
19854W        W92279  28.687   6.390   4.136
19855W        W92280  13.010   3.328  12.933
19856W        W92281  41.217  36.829  14.471
19857W        W92282   0.544   9.470  13.624
19858W        W92283  38.071  31.708  11.263
19859W        W92284  22.105  29.129  11.425
19860W        W92285   4.965  31.293  13.555
19861W        W92286  18.049  37.463   1.250
19862W        W92287  15.701  44.950   4.596
19863W        W92288  27.625   3.360   4.335
19864W        W92289  21.190  23.589  14.523
19865W        W92290  25.799  42.501  11.153
19866W        W92291  36.166  25.446   0.501
19867W        W92292  43.397  11.337  13.400
19868W        W92293  38.537  35.794  10.808
19869W        W92294  17.190  27.729  10.917
19870W        W92295  35.151  23.154  12.001
19871W        W92296  33.893  19.693   2.822
19872W        W92297  40.414  39.262   3.230
19873W        W92298  39.511   7.983  13.884
19874W        W92299  33.902  23.837   3.775
19875W        W92300   2.238  22.125  12.001
19876W        W92301  32.881  33.933   3.173
19877W        W92302  17.285  33.933   4.862
19878W        W92303  18.326  15.705   4.325
19879W        W92304  23.711  10.808  14.910
19880W        W92305  28.718  13.568   4.023
19881W        W92306   0.370   6.335  13.920
19882W        W92307  36.112  39.124   2.817
19883W        W92308   7.331  37.926  12.901
19884W        W92309  15.789  40.978   0.014
19885W        W92310   7.421   2.056  14.909
19886W        W92311  12.061  29.021   2.753
19887W        W92312  33.802  32.108   0.727
19888W        W92313  15.109  25.432  11.923
19889W        W92314  16.150  44.832  12.031
19890W        W92315  35.170  32.133   1.710
19891W        W92316   6.088  36.360   1.291
19892W        W92317   4.752  34.577  14.221
19893W        W92318  38.015  16.008   0.718
19894W        W92319  28.177  44.468  13.589
19895W        W92320  17.250   6.452  11.040
19896W        W92321   8.233  21.042   0.709
19897W        W92322  40.985  31.196  11.365
19898W        W92323  38.468  19.791   2.394
19899W        W92324  31.001  44.014  11.861
19900W        W92325  30.413   1.538   0.159
19901W        W92326  30.533   2.393  14.574
19902W        W92327   2.208  24.976  10.194
19903W        W92328  39.997  44.305   1.454
19904W        W92329  34.371  36.976   0.292
19905W        W92330  26.116  44.364  10.717
19906W        W92331  18.697  37.324  11.584
19907W        W92332  39.445   3.598   0.369
19908W        W92333   6.145  32.169  11.044
19909W        W92334  34.248  33.762  12.431
19910W        W92335  33.476  21.425   2.680
19911W        W92336  17.692   9.344  14.251
19912W        W92337  23.567  32.649  11.158
19913W        W92338   7.058  26.990   0.441
19914W        W92339  17.722  18.675   2.316
19915W        W92340   7.750   9.863   2.762
19916W        W92341  23.566  24.986   3.212
19917W        W92342  20.169  10.375  13.078
19918W        W92343  16.830  41.501   3.577
19919W        W92344   5.775  32.467  11.702
19920W        W92345  14.052   2.299  14.838
19921W        W92346   8.005  26.461   1.311
19922W        W92347  21.577  37.337   1.502
19923W        W92348  25.935   9.756   0.517
19924W        W92349  20.462  12.619   4.223
19925W        W92350  18.090  36.106  14.004
19926W        W92351  19.240   2.550  14.381
19927W        W92352   5.250   1.857   2.724
19928W        W92353   4.986  33.329   3.271
19929W        W92354   3.261  41.215   2.176
19930W        W92355  20.648  11.855   3.749
19931W        W92356   6.204   4.849   4.110
19932W        W92357  11.861  25.510  11.568
19933W        W92358  38.070  22.492  11.682
19934W        W92359  26.342   2.411  14.234
19935W        W92360  29.225  40.030  11.673
19936W        W92361   7.708  11.166   3.365
19937W        W92362  32.375  19.333   0.252
19938W        W92363  33.876  39.623   3.644
19939W        W92364  34.554  15.854   3.338
19940W        W92365  22.058  39.878  14.053
19941W        W92366  29.848  43.985   2.795
19942W        W92367  30.367   7.194   3.105
19943W        W92368   3.544  36.057   2.151
19944W        W92369  16.307   1.997  14.452
19945W        W92370  31.628   0.244   3.125
19946W        W92371  43.845  38.053   2.643
19947W        W92372  28.363   0.186   2.294
19948W        W92373  40.452  27.005   4.582
19949W        W92374  28.237  11.253  13.103
19950W        W92375  20.305   0.958   2.597
19951W        W92376  10.734   6.943   1.176
19952W        W92377   0.510  20.050   4.205
19953W        W92378  28.688   6.254   4.676
19954W        W92379   6.213  19.254  11.537
19955W        W92380  18.560   7.844   0.672
19956W        W92381  43.258  31.103  13.996
19957W        W92382  24.441  38.977  11.811
19958W        W92383  32.221  16.968   2.821
19959W        W92384  24.822   9.562   4.151
19960W        W92385  10.639   5.276  12.413
19961W        W92386  30.952  11.868  11.151
19962W        W92387   8.172  36.378  13.731
19963W        W92388  14.171  31.910  14.429
19964W        W92389  31.914  38.143  14.815
19965W        W92390  38.359  30.007   0.457
19966W        W92391   7.798  25.801  12.558
19967W        W92392  22.504  11.333   3.746
19968W        W92393  10.363  22.631   2.166
19969W        W92394  29.498  17.759  13.966
19970W        W92395  31.351  10.861   0.903
19971W        W92396  38.825  38.154  11.196
19972W        W92397   5.749  11.959   3.349
19973W        W92398  25.050  13.799   2.803
19974W        W92399  16.176  17.510   2.741
19975W        W92400  40.544  25.231  14.952
19976W        W92401   6.676  14.090  12.105
19977W        W92402  10.299  13.371   2.203
19978W        W92403  34.083   7.707   0.454
19979W        W92404  36.500  42.559   2.189
19980W        W92405  15.900  15.699   2.455
19981W        W92406  30.877  20.865  13.480
19982W        W92407  20.135   0.941   0.848
19983W        W92408  43.522  25.395   0.893
19984W        W92409  26.333   8.978  13.332
19985W        W92410  29.355  26.037   3.704
19986W        W92411  34.594  43.011  13.379
19987W        W92412  41.484  34.030  11.099
19988W        W92413  10.702  13.282  14.510
19989W        W92414   7.855  19.176   0.752
19990W        W92415  12.622  44.327   0.413
19991W        W92416  18.992  20.314   1.288
19992W        W92417  41.383  32.883   0.265
19993W        W92418   7.309  41.321  12.900
19994W        W92419  13.874  18.776  11.951
19995W        W92420  22.697   7.438  12.986
19996W        W92421  25.601  30.014   4.381
19997W        W92422  27.289   6.461   1.621
19998W        W92423  12.225  15.675  11.937
19999W        W92424  43.294  14.872  12.843
20000W        W92425   1.715  34.955   3.700
20001W        W92426  26.980  13.700   4.648
20002W        W92427  30.241  40.605  10.709
20003W        W92428   4.825  37.839   1.981
20004W        W92429   9.375  27.714   2.826
20005W        W92430   8.324   5.137   0.324
20006W        W92431  27.775  25.613  12.049
20007W        W92432  33.628  24.155  12.401
20008W        W92433  30.685  39.543   0.809
20009W        W92434  25.620  22.491  12.530
20010W        W92435  35.440  32.629  14.761
20011W        W92436  26.675  29.488  12.982
20012W        W92437  29.806  19.629  10.740
20013W        W92438  17.770   5.234   0.201
20014W        W92439  41.144  17.054   3.555
20015W        W92440  13.583  30.136   0.989
20016W        W92441  24.206   7.679  12.417
20017W        W92442   7.299   0.454   4.072
20018W        W92443  27.994  31.369   4.704
20019W        W92444   9.956  39.008  11.133
20020W        W92445   5.944  38.984  13.467
20021W        W92446  21.915  37.514  11.427
20022W        W92447  39.302   3.264  12.347
20023W        W92448  39.392  16.803  14.538
20024W        W92449  36.935  40.756  11.559
20025W        W92450  44.842  13.248   1.469
20026W        W92451  27.910  14.660   3.586
20027W        W92452  24.559   0.955  11.146
20028W        W92453  25.993  18.065  12.602
20029W        W92454   6.644  23.081  14.809
20030W        W92455  30.845  11.937   2.793
20031W        W92456  40.127  43.486  12.558
20032W        W92457  18.237   4.558   4.289
20033W        W92458  19.428  19.404   2.236
20034W        W92459  31.112  19.182   2.186
20035W        W92460   1.792  39.350  11.528
20036W        W92461  15.669  18.648  10.991
20037W        W92462  20.479  39.917  12.908
20038W        W92463  24.186  11.258   4.346
20039W        W92464   7.810  18.094  14.272
20040W        W92465   6.104  18.158   2.392
20041W        W92466   1.154  23.351   0.247
20042W        W92467  18.795  30.415  14.434
20043W        W92468  25.423   2.555   4.152
20044W        W92469  22.711   7.877   3.117
20045W        W92470   5.223  41.007  12.853
20046W        W92471  31.613  22.270  14.979
20047W        W92472  41.996   1.419  10.723
20048W        W92473  33.403  34.086  11.190
20049W        W92474  13.658  13.950   1.881
20050W        W92475   9.652  18.305   4.576
20051W        W92476  23.306  14.297  14.154
20052W        W92477  23.085  22.137   3.183
20053W        W92478  26.592  30.003  12.851
20054W        W92479  27.128  23.953  13.099
20055W        W92480  20.404   9.229  12.687
20056W        W92481  41.010   1.900   2.687
20057W        W92482   3.207  39.759  11.283
20058W        W92483  10.319  14.114  11.542
20059W        W92484   3.670  21.449  11.141
20060W        W92485  28.958  24.469  11.399
20061W        W92486  34.097   4.173   3.707
20062W        W92487  12.767   8.033  12.035
20063W        W92488  42.714  25.716   1.155
20064W        W92489   0.838  15.529  11.476
20065W        W92490   8.204  19.428  13.337
20066W        W92491   3.751  30.791   1.364
20067W        W92492   7.911   9.295   4.192
20068W        W92493  38.096  18.065   3.886
20069W        W92494   0.751   9.798   3.715
20070W        W92495   0.173  34.019   0.782
20071W        W92496   3.998  19.456   4.196
20072W        W92497  31.131  24.223   3.689
20073W        W92498  30.200  34.541  10.609
20074W        W92499  21.789   7.966   4.137
20075W        W92500  12.829   5.189  10.697
20076W        W92501  29.146   3.627   3.192
20077W        W92502  13.818   1.369   4.536
20078W        W92503  42.316  20.374   4.608
20079W        W92504  30.049  37.817  11.157
20080W        W92505  28.646  13.247  12.155
20081W        W92506  25.257  31.937   3.821
20082W        W92507  13.219  44.298   0.392
20083W        W92508  39.331  29.808   3.877
20084W        W92509  44.901  32.555  10.581
20085W        W92510  29.907  43.611   1.915
20086W        W92511   0.685  12.375  14.282
20087W        W92512   9.067  25.936  11.583
20088W        W92513  41.067   4.327  13.494
20089W        W92514   5.370  14.482  14.431
20090W        W92515  20.458  25.856   1.872
20091W        W92516  15.748   8.782  14.821
20092W        W92517  11.861   0.548  12.707
20093W        W92518  42.490  33.863   4.115
20094W        W92519  24.098   3.884   2.001
20095W        W92520   8.238  13.575  10.837
20096W        W92521   9.888   5.826   2.227
20097W        W92522  19.503  44.831  13.380
20098W        W92523   0.217  25.208   2.678
20099W        W92524   9.153  10.832   0.551
20100W        W92525   1.356  32.501  14.451
20101W        W92526  29.485  36.594   3.954
20102W        W92527  37.616  30.794  14.072
20103W        W92528  30.132   9.548   4.116
20104W        W92529  24.924  14.737  14.049
20105W        W92530  10.296  22.975   4.138
20106W        W92531  33.547  10.352  11.693
20107W        W92532  38.285  18.647  13.072
20108W        W92533  17.610   9.864  12.464
20109W        W92534  24.589  32.860   0.716
20110W        W92535   1.459  40.914   4.091
20111W        W92536  12.055   8.309  14.065
20112W        W92537  27.847  14.808  14.033
20113W        W92538   6.381  23.488   4.635
20114W        W92539   9.122   9.880   3.826
20115W        W92540  18.177  32.335  12.186
20116W        W92541  42.358  19.822   0.878
20117W        W92542  36.601   3.353   0.309
20118W        W92543  44.900  12.496  11.141
20119W        W92544  27.953   3.634  12.531
20120W        W92545  10.165  25.490  14.776
20121W        W92546  31.997  10.432   3.377
20122W        W92547  28.460  37.878   0.869
20123W        W92548  18.267  21.269  12.705
20124W        W92549   5.975  27.923  12.639
20125W        W92550  39.241  12.265   0.178
20126W        W92551  28.229  13.714   4.211
20127W        W92552   2.205   2.339  10.628
20128W        W92553  13.149   2.414   3.725
20129W        W92554  23.568  12.817  12.499
20130W        W92555  33.080   2.718  11.833
20131W        W92556  32.870  43.903   2.099
20132W        W92557  23.305  20.107   3.767
20133W        W92558  14.882  32.612  13.429
20134W        W92559  18.268  15.119  10.554
20135W        W92560  36.459  28.980  13.134
20136W        W92561  36.632  18.651  12.037
20137W        W92562   8.070   1.333   1.990
20138W        W92563  44.364  13.145   1.306
20139W        W92564  34.324  13.639   4.171
20140W        W92565  31.469  17.862  13.082
20141W        W92566  30.661  41.441   3.179
20142W        W92567   8.669   6.734   1.855
20143W        W92568  36.837  37.390   4.869
20144W        W92569  15.731  14.057  14.515
20145W        W92570  19.638  41.316  12.381
20146W        W92571  33.513  36.901  12.436
20147W        W92572  37.382  42.882  14.950
20148W        W92573  36.334  33.942   2.719
20149W        W92574  15.183  16.811   4.252
20150W        W92575   1.350  44.026  12.866
20151W        W92576  23.795   0.462  12.988
20152W        W92577  42.917  11.422   4.202
20153W        W92578  17.585  29.551   4.661
20154W        W92579   3.333  24.726  13.909
20155W        W92580   9.842  26.906   2.401
20156W        W92581   7.124  19.212  14.425
20157W        W92582   3.280   4.733   2.733
20158W        W92583  43.197  38.857   9.907
20159W        W92584  21.607  34.558   2.244
20160W        W92585  44.302  34.311   2.151
20161W        W92586   6.481  33.415   4.088
20162W        W92587  13.699   4.480   2.289
20163W        W92588  26.974  30.329  13.990
20164W        W92589   0.261  44.924   1.683
20165W        W92590   4.397  16.269   1.789
20166W        W92591  38.160  34.244   4.995
20167W        W92592  36.923   6.865  11.237
20168W        W92593  31.388   6.411   4.995
20169W        W92594   2.143  24.616  13.464
20170W        W92595  25.073   7.207   2.685
20171W        W92596  39.581  32.061   4.003
20172W        W92597  25.184  30.562  14.505
20173W        W92598  30.439  43.327   1.716
20174W        W92599   3.705   3.783   2.186
20175W        W92600  18.623  10.122   2.423
20176W        W92601  21.938  17.849   3.666
20177W        W92602   3.020  41.927   4.891
20178W        W92603  30.836  24.525   2.769
20179W        W92604   7.672  14.244  11.058
20180W        W92605   4.807   8.108  11.187
20181W        W92606  12.575  29.607   0.730
20182W        W92607  33.552   0.956  11.692
20183W        W92608  33.166  10.594  13.351
20184W        W92609  25.642  44.001   0.252
20185W        W92610  31.762   8.216   0.197
20186W        W92611  39.042  13.828  10.521
20187W        W92612  30.328  14.032  11.654
20188W        W92613  19.508  36.023  12.561
20189W        W92614  43.611  27.621   2.015
20190W        W92615  35.058  30.015   2.628
20191W        W92616   1.740  20.136  10.747
20192W        W92617  24.009   5.737  12.530
20193W        W92618   4.518  31.463   2.208
20194W        W92619  15.028  30.399   2.810
20195W        W92620  31.371  32.730  12.796
20196W        W92621  10.290   0.278  13.493
20197W        W92622   5.848   6.101  10.930
20198W        W92623  29.563  19.942  11.085
20199W        W92624   2.694  43.862  14.442
20200W        W92625  43.964  44.521  10.266
20201W        W92626  40.968  40.381   0.003
20202W        W92627  38.461  32.553   4.408
20203W        W92628  35.041  40.984  12.048
20204W        W92629  24.704  25.240  12.176
20205W        W92630  10.230  10.871  11.199
20206W        W92631   7.431  44.985  11.155
20207W        W92632  41.299   2.271  12.630
20208W        W92633  43.436  31.414   0.729
20209W        W92634   9.734   6.289   4.053
20210W        W92635  18.504  40.058   3.021
20211W        W92636  30.216  44.036  12.452
20212W        W92637  24.020  21.477  10.905
20213W        W92638  26.875  34.262  11.867
20214W        W92639  44.525  16.291   1.634
20215W        W92640  38.714  15.673  13.729
20216W        W92641  10.382  14.062  10.708
20217W        W92642  40.370  19.445  12.095
20218W        W92643  26.994  26.599  10.618
20219W        W92644  11.425   4.987   3.096
20220W        W92645  43.891  19.498   3.714
20221W        W92646   4.702  11.380   0.475
20222W        W92647  41.390  13.642   1.228
20223W        W92648  36.424  34.654   0.828
20224W        W92649  43.960  38.314   3.719
20225W        W92650  19.806  38.029  11.678
20226W        W92651  15.116   6.469   0.825
20227W        W92652   8.892  29.887  10.854
20228W        W92653  44.798  38.401  11.576
20229W        W92654  13.651   4.207   0.008
20230W        W92655  11.718  32.074  12.780
20231W        W92656  33.885  22.750   1.416
20232W        W92657  30.412  36.020   1.974
20233W        W92658   9.180  43.150   4.276
20234W        W92659  23.151  11.890  10.541
20235W        W92660  19.839  15.512  12.562
20236W        W92661  38.849  19.434   3.690
20237W        W92662  22.524  44.729   3.763
20238W        W92663  31.987  31.963   0.398
20239W        W92664   5.902  39.429   1.877
20240W        W92665   1.381   3.130   1.626
20241W        W92666  28.443  34.566   4.532
20242W        W92667   1.729   6.347  13.394
20243W        W92668  21.060  36.535   0.327
20244W        W92669  40.965  13.198   4.665
20245W        W92670  41.276  11.770  13.814
20246W        W92671  40.594  37.204   1.674
20247W        W92672   2.686  39.091  13.553
20248W        W92673  38.910  38.011   4.880
20249W        W92674  25.485  25.659  14.848
20250W        W92675  18.539  14.307   3.203
20251W        W92676  34.262   9.472   1.616
20252W        W92677  32.348  15.928   0.753
20253W        W92678  21.810  42.474   4.196
20254W        W92679  26.924  32.412   1.214
20255W        W92680  37.271  28.857  12.239
20256W        W92681  17.329  30.481   4.535
20257W        W92682  21.212  27.418  10.213
20258W        W92683  16.826  16.409  10.713
20259W        W92684  37.276  43.236   4.581
20260W        W92685  30.219  15.238   1.245
20261W        W92686   5.365  10.517  11.137
20262W        W92687  13.338  12.821  14.869
20263W        W92688  14.219  20.555  12.238
20264W        W92689   0.524  20.979  12.673
20265W        W92690  25.574  20.031   4.170
20266W        W92691  26.572  25.812  13.825
20267W        W92692   9.864  18.790  13.392
20268W        W92693  40.384   0.833  12.834
20269W        W92694  19.955  44.252   2.729
20270W        W92695  19.690  36.013   1.000
20271W        W92696  14.195  14.615   0.325
20272W        W92697  16.782   3.321  12.150
20273W        W92698  14.479   8.274  11.999
20274W        W92699  23.020  22.047  12.566
20275W        W92700  10.143  20.191  12.361
20276W        W92701  26.491  27.112  12.879
20277W        W92702  19.945  38.932  11.729
20278W        W92703  16.856  37.503  10.080
20279W        W92704  35.100  24.014   0.537
20280W        W92705  31.815   8.665   4.593
20281W        W92706   3.888  21.336  12.367
20282W        W92707  21.138  27.232   0.821
20283W        W92708  36.606  34.267   3.838
20284W        W92709  26.268   5.847  14.734
20285W        W92710   7.845  26.919  14.899
20286W        W92711  28.072  12.861   2.855
20287W        W92712  33.945  33.446  12.715
20288W        W92713  23.571  25.091   4.143
20289W        W92714  37.580  16.756  12.036
20290W        W92715  13.633  22.126   0.404
20291W        W92716  25.915  11.325   0.210
20292W        W92717  23.666  36.596   2.698
20293W        W92718   6.923   4.191   1.227
20294W        W92719  13.579  38.969  14.901
20295W        W92720  42.455   4.415   3.321
20296W        W92721  41.968  21.016   1.206
20297W        W92722  12.592  34.453  13.350
20298W        W92723  38.718  27.534   3.213
20299W        W92724  11.671  29.374   2.717
20300W        W92725  13.628  17.139   0.071
20301W        W92726  33.425  30.512   2.655
20302W        W92727  31.577  35.992   1.666
20303W        W92728   8.167  34.021  11.142
20304W        W92729  10.682   1.533  13.678
20305W        W92730  25.996  18.480  14.274
20306W        W92731  25.772   8.963  11.378
20307W        W92732  11.247   0.988   3.830
20308W        W92733  16.712  21.190   2.104
20309W        W92734  12.739  33.644   3.044
20310W        W92735  21.215  12.797  11.554
20311W        W92736  31.436  35.678   2.498
20312W        W92737  34.998  19.018   1.211
20313W        W92738   5.377   6.440   4.197
20314W        W92739   7.160  32.556  11.524
20315W        W92740  15.091  43.775   3.129
20316W        W92741  33.592  29.183   2.615
20317W        W92742  31.403   9.450  11.228
20318W        W92743  37.875  33.505  12.382
20319W        W92744  13.454  19.813  11.285
20320W        W92745  20.030  17.071   3.135
20321W        W92746  34.933  10.586   2.616
20322W        W92747  36.426  11.203  13.426
20323W        W92748  27.367  20.946  11.623
20324W        W92749   4.866  12.451  11.575
20325W        W92750  24.941  37.566   5.044
20326W        W92751  16.329  33.877  12.786
20327W        W92752  10.762  12.833   1.743
20328W        W92753   0.692  11.205   1.638
20329W        W92754  37.594  10.006   9.731
20330W        W92755  31.192   0.334   4.577
20331W        W92756   3.742  26.607   0.603
20332W        W92757  16.804  24.086   3.149
20333W        W92758   6.234  26.459   1.077
20334W        W92759   7.142  21.538  12.588
20335W        W92760  20.603  23.951   3.290
20336W        W92761   5.631  43.379   1.081
20337W        W92762  34.157  19.122   3.493
20338W        W92763  35.836  40.006  11.860
20339W        W92764  27.304  44.805   3.960
20340W        W92765   5.430  22.971   1.891
20341W        W92766  18.283  12.052   3.323
20342W        W92767  44.448  31.568  14.887
20343W        W92768  14.313  17.144  13.781
20344W        W92769  29.991  30.102   2.357
20345W        W92770   2.113  28.091  12.609
20346W        W92771  42.473   8.218  13.516
20347W        W92772  40.594  19.311   3.332
20348W        W92773  28.521  15.239   3.593
20349W        W92774  15.723  43.418   3.646
20350W        W92775  39.237  44.020  10.548
20351W        W92776  28.462  11.833   0.710
20352W        W92777  28.041  15.261  11.424
20353W        W92778  36.611  15.289  14.470
20354W        W92779   4.951  18.524   3.609
20355W        W92780  30.951  32.445  12.610
20356W        W92781   2.028  11.760  13.245
20357W        W92782  36.375   1.914   0.776
20358W        W92783  41.771  23.096  13.851
20359W        W92784  30.538  18.240  10.283
20360W        W92785   8.899  12.135   4.631
20361W        W92786   2.418   9.711   4.590
20362W        W92787  34.615   0.666   1.347
20363W        W92788   5.744  29.645  13.386
20364W        W92789  20.730  11.900   2.783
20365W        W92790  30.777  12.121   1.487
20366W        W92791  26.291  31.587   2.963
20367W        W92792  14.018  29.126   1.341
20368W        W92793  43.810   8.309   4.284
20369W        W92794  18.314  30.497   3.770
20370W        W92795  36.466  34.776   3.816
20371W        W92796   2.853  16.028   2.150
20372W        W92797  26.515   5.686   2.126
20373W        W92798  21.673   5.375  12.555
20374W        W92799  42.900  16.164   1.671
20375W        W92800  44.004  30.002   2.570
20376W        W92801  21.493  24.926   5.019
20377W        W92802  27.211  20.684  12.600
20378W        W92803   2.415   3.068   0.895
20379W        W92804   8.735  38.952   3.019
20380W        W92805  41.749   0.708   0.893
20381W        W92806  14.652  10.616   4.584
20382W        W92807  36.628   9.725   3.307
20383W        W92808  37.658  27.050  14.470
20384W        W92809  14.520  19.604   2.817
20385W        W92810  17.832  35.141  14.853
20386W        W92811  31.419  11.798  10.968
20387W        W92812  15.203   5.389  12.573
20388W        W92813  29.189  34.855   0.701
20389W        W92814  24.255  28.399  13.758
20390W        W92815  37.223   0.009  12.575
20391W        W92816   6.307  43.402   0.277
20392W        W92817  41.948  43.995  14.301
20393W        W92818  33.187  36.396   3.781
20394W        W92819  37.572   5.696   2.416
20395W        W92820   2.452   5.779  12.650
20396W        W92821  27.972  40.787  13.842
20397W        W92822  16.139  37.775  14.483
20398W        W92823  39.120  19.648   9.987
20399W        W92824  36.583   6.114  11.877
20400W        W92825  37.174  42.535  14.314
20401W        W92826  24.363   3.880   0.482
20402W        W92827  15.607   7.646  10.742
20403W        W92828  38.128  26.247   2.812
20404W        W92829  25.172  35.509   0.740
20405W        W92830  41.509  39.598   3.739
20406W        W92831  18.750  37.589  13.415
20407W        W92832  22.575   9.180  10.577
20408W        W92833  36.982  16.932  10.735
20409W        W92834   7.148   5.231   3.106
20410W        W92835  43.447  13.079  14.222
20411W        W92836  44.270   9.419   1.449
20412W        W92837   9.249  25.120   3.319
20413W        W92838  41.515  37.942   0.374
20414W        W92839  22.263  44.892   1.912
20415W        W92840  36.045  44.525   3.698
20416W        W92841  24.055  18.664   3.804
20417W        W92842  15.205  29.870  12.940
20418W        W92843  28.537   8.914   2.890
20419W        W92844   0.835   1.888  10.550
20420W        W92845  43.334   3.283  10.601
20421W        W92846  14.598  22.320  11.066
20422W        W92847   9.804  25.213   0.473
20423W        W92848  35.870  15.060  11.159
20424W        W92849  31.609  39.588  12.544
20425W        W92850  34.007  22.043   0.762
20426W        W92851  34.485  13.610   2.691
20427W        W92852  19.683  43.298   1.437
20428W        W92853  35.840  13.035   4.164
20429W        W92854  41.781   1.025  12.534
20430W        W92855   3.949  39.878  12.027
20431W        W92856  17.056  17.753  11.987
20432W        W92857   9.620   8.646   4.714
20433W        W92858   0.196  36.231  14.269
20434W        W92859   8.396  32.463   4.564
20435W        W92860  34.627  16.895   1.625
20436W        W92861  28.983  26.137  14.529
20437W        W92862  12.243  12.635   3.615
20438W        W92863   8.103  14.511   2.310
20439W        W92864  43.727  11.201  12.099
20440W        W92865   9.747  11.063  11.167
20441W        W92866  29.191  21.136  14.133
20442W        W92867  14.332  36.824  13.958
20443W        W92868  23.532  32.045   2.380
20444W        W92869  17.581  28.435   1.236
20445W        W92870   4.885  41.350  11.595
20446W        W92871  15.624  28.528  11.221
20447W        W92872  30.866  32.549   1.845
20448W        W92873  39.504  13.567  10.622
20449W        W92874  13.807  25.148  10.261
20450W        W92875  44.409  36.882   2.779
20451W        W92876  20.195  39.384  11.459
20452W        W92877  15.371   8.877  10.596
20453W        W92878   7.951  30.128   1.374
20454W        W92879   8.729  24.980   2.262
20455W        W92880  24.401  14.100  12.875
20456W        W92881  41.513   3.810   0.506
20457W        W92882  39.906  10.725   3.265
20458W        W92883  30.843  23.624   0.142
20459W        W92884  42.439  19.543   4.410
20460W        W92885  18.113  22.240   4.862
20461W        W92886  11.367  28.299   0.499
20462W        W92887  30.098  17.926  10.757
20463W        W92888  17.240  24.636   1.922
20464W        W92889  39.342  12.512   3.242
20465W        W92890  24.181  33.647   0.878
20466W        W92891  15.193  10.646  13.805
20467W        W92892  41.984   4.672  10.693
20468W        W92893  39.120  25.165   4.693
20469W        W92894  22.586  35.025   1.477
20470W        W92895  36.452  23.254  11.052
20471W        W92896  31.708   9.657  14.758
20472W        W92897   2.674  16.031   2.628
20473W        W92898  22.674  14.486  14.821
20474W        W92899  31.508  36.170   2.673
20475W        W92900   2.310  21.687  11.096
20476W        W92901   6.848   0.644   3.909
20477W        W92902   4.427  27.380   4.172
20478W        W92903  37.848  16.153  12.034
20479W        W92904  23.235  35.048   1.776
20480W        W92905  25.613   7.184   2.270
20481W        W92906  18.713  20.862   1.284
20482W        W92907  15.046  13.317   1.854
20483W        W92908  12.259  28.759   1.453
20484W        W92909  12.677  16.227  12.675
20485W        W92910  18.163  28.658  11.597
20486W        W92911  32.690  27.409   1.888
20487W        W92912  31.127   4.122  13.979
20488W        W92913  14.805   6.205   1.440
20489W        W92914   7.226   0.216   2.172
20490W        W92915  37.947  21.990  11.875
20491W        W92916  22.669  31.116  14.241
20492W        W92917  42.216   4.606   5.107
20493W        W92918  33.278   6.355   0.524
20494W        W92919   7.797  16.259   4.095
20495W        W92920  23.495   5.354  10.549
20496W        W92921  10.307   5.979   0.456
20497W        W92922  36.140  41.886   3.216
20498W        W92923  17.178  16.032   1.401
20499W        W92924  42.348  23.263   0.042
20500W        W92925  36.829  12.157  13.833
20501W        W92926  25.093  21.098  10.634
20502W        W92927  19.784  11.617  11.878
20503W        W92928  34.943  21.726  13.109
20504W        W92929   9.721  43.568  11.624
20505W        W92930  22.329  14.843   2.106
20506W        W92931  24.593  44.303   0.359
20507W        W92932  32.942  22.274   1.331
20508W        W92933  23.721  37.473  10.653
20509W        W92934  30.805  14.230  11.526
20510W        W92935  13.847  23.099   3.886
20511W        W92936  41.498   8.416  13.169
20512W        W92937  38.994   6.836  13.106
20513W        W92938   6.668  25.527  11.584
20514W        W92939  16.325  29.363   0.222
20515W        W92940  37.526  44.781  12.908
20516W        W92941  37.344  23.643  11.337
20517W        W92942  14.148  22.999   2.059
20518W        W92943  20.426  33.599  14.974
20519W        W92944  44.121  11.706   5.057
20520W        W92945  33.938  30.954   2.737
20521W        W92946  11.013  36.295  14.202
20522W        W92947  10.109  11.153  10.780
20523W        W92948  16.117  18.542   3.746
20524W        W92949  16.038  13.301  14.081
20525W        W92950  24.014  12.692   3.869
20526W        W92951  41.310  13.267   0.888
20527W        W92952  37.963  28.260  13.022
20528W        W92953  16.592   8.741  11.190
20529W        W92954  41.768   9.906  10.730
20530W        W92955   1.523  37.827   4.887
20531W        W92956   5.700  39.377   0.857
20532W        W92957  10.270   9.018   5.492
20533W        W92958  29.465  27.949   2.173
20534W        W92959  14.962  32.658  11.419
20535W        W92960  42.641   8.743   2.407
20536W        W92961  34.607  32.897   0.271
20537W        W92962  22.805  44.596  11.169
20538W        W92963   6.215  40.741  10.779
20539W        W92964  23.769  18.871  10.943
20540W        W92965   0.649  25.823   0.313
20541W        W92966  44.404  26.403  11.539
20542W        W92967  31.013  41.537  10.672
20543W        W92968  31.373  38.822  11.149
20544W        W92969   5.323  12.657   3.755
20545W        W92970  26.788   9.433  12.050
20546W        W92971  44.550  20.207   4.113
20547W        W92972  24.999  42.768   0.460
20548W        W92973  20.174  42.293   0.140
20549W        W92974  24.120  15.148  10.533
20550W        W92975   8.858  33.183  12.480
20551W        W92976   1.703  28.583  14.942
20552W        W92977  22.529  17.641   4.491
20553W        W92978  41.012  14.971   3.782
20554W        W92979  26.305  14.057  11.068
20555W        W92980  40.108  32.005   4.087
20556W        W92981  21.764   8.151   0.848
20557W        W92982  13.290  43.092  12.960
20558W        W92983   1.380  10.841  12.225
20559W        W92984   0.641   1.453  10.780
20560W        W92985  33.453   4.750  11.592
20561W        W92986  21.261   0.489  10.207
20562W        W92987  19.258  14.954   3.609
20563W        W92988  15.243  41.450  13.982
20564W        W92989  12.230  22.803   1.175
20565W        W92990  24.672  10.324  11.070
20566W        W92991  42.867  15.253   0.738
20567W        W92992  41.267   7.932   2.433
20568W        W92993  22.029  40.453   0.767
20569W        W92994  39.982  14.794  14.557
20570W        W92995  33.633  44.353  14.358
20571W        W92996   0.839  20.747   2.697
20572W        W92997  17.904  41.945   1.917
20573W        W92998  16.631   0.297  13.828
20574W        W92999  22.674  41.316  11.224
20575W        W93000  42.846  42.003  13.708
20576W        W93001  35.435  11.128   4.471
20577W        W93002  33.459  40.127   1.935
20578W        W93003  32.354   9.811   1.698
20579W        W93004  17.708  19.520   1.790
20580W        W93005  15.070  21.126   2.397
20581W        W93006  41.910  27.542   4.884
20582W        W93007  42.932  20.049  13.920
20583W        W93008  23.279  31.400   2.216
20584W        W93009  36.167  13.259  10.845
20585W        W93010  11.153  33.684  11.993
20586W        W93011  28.900   5.958   3.089
20587W        W93012  35.827  30.389   4.629
20588W        W93013  14.219  11.888   3.337
20589W        W93014  44.528  43.533  11.089
20590W        W93015   3.806  26.740   1.110
20591W        W93016  15.089  25.051  10.655
20592W        W93017   5.511  31.143   1.763
20593W        W93018   2.819  15.851  10.968
20594W        W93019  13.573  30.522  10.839
20595W        W93020   0.390  19.331  14.998
20596W        W93021  12.672  31.904  12.119
20597W        W93022  23.445  31.142   2.762
20598W        W93023  18.578  44.346   0.476
20599W        W93024   6.830  41.773  14.954
20600W        W93025  23.495  34.440   2.929
20601W        W93026  24.719  21.016   1.323
20602W        W93027  30.488   4.690  10.715
20603W        W93028   7.856  42.056   3.030
20604W        W93029  38.625   3.357  14.850
20605W        W93030  43.558   8.577  10.710
20606W        W93031   7.154  23.695   0.319
20607W        W93032  36.304  29.414   3.205
20608W        W93033  32.703  41.146  11.131
20609W        W93034  34.871   8.109   4.629
20610W        W93035  23.108  18.615   4.837
20611W        W93036  43.458  14.605  13.742
20612W        W93037  32.885  41.310  12.829
20613W        W93038  41.964  38.768   4.628
20614W        W93039  39.593  16.257  12.548
20615W        W93040  32.096  24.454   3.627
20616W        W93041  28.990  10.117   1.818
20617W        W93042  30.654   3.475   4.117
20618W        W93043  38.808  22.059   3.695
20619W        W93044   2.397  14.753   4.106
20620W        W93045   5.786   1.777  13.411
20621W        W93046   6.363  40.863   2.301
20622W        W93047  29.421  42.430   2.239
20623W        W93048   2.942  33.856   0.916
20624W        W93049  39.629  28.034   1.132
20625W        W93050  10.087  43.741   1.849
20626W        W93051  25.231  37.466   1.421
20627W        W93052  39.617  15.311   0.923
20628W        W93053  11.630  18.469   5.006
20629W        W93054   6.761   1.052   3.337
20630W        W93055   0.965  15.750  11.937
20631W        W93056  32.644  15.267   4.532
20632W        W93057  30.739   8.133  14.354
20633W        W93058   6.261  42.564  14.918
20634W        W93059  32.216   3.187  13.891
20635W        W93060  20.518  36.615   1.777
20636W        W93061  23.717  44.764   1.264
20637W        W93062  13.861  29.225  10.452
20638W        W93063  18.735  35.818  10.769
20639W        W93064  12.219  31.349  12.701
20640W        W93065   5.166  32.931   0.084
20641W        W93066   1.157   9.200   4.879
20642W        W93067   3.352  37.741   0.829
20643W        W93068  14.635  40.059  14.766
20644W        W93069  19.233  44.895  11.018
20645W        W93070   4.196   3.028   3.166
20646W        W93071  13.850  31.895  14.032
20647W        W93072  40.610  22.332   2.863
20648W        W93073  37.085  19.217  10.766
20649W        W93074  24.760  35.617  14.828
20650W        W93075  19.228  40.895   2.283
20651W        W93076  30.420  16.771  12.093
20652W        W93077  26.036  13.936  14.482
20653W        W93078  18.094  30.154  13.366
20654W        W93079  32.483   9.025   0.388
20655W        W93080  44.913  15.489   1.510
20656W        W93081   4.935  42.894  12.924
20657W        W93082  22.182  32.285   3.242
20658W        W93083  11.382   7.414   1.498
20659W        W93084  38.743   8.814   3.340
20660W        W93085  15.927  42.170   3.686
20661W        W93086  34.078  19.656  13.479
20662W        W93087  17.655   4.636  13.067
20663W        W93088  19.631   1.313   0.224
20664W        W93089  16.723   4.345  10.931
20665W        W93090  30.903   3.890   1.296
20666W        W93091  39.343  27.587  10.893
20667W        W93092   8.965  28.339  13.824
20668W        W93093  32.035  35.060  11.230
20669W        W93094   0.883  24.203  10.700
20670W        W93095  43.860  22.996  11.974
20671W        W93096  36.800   4.704  13.460
20672W        W93097  16.788  37.467  11.412
20673W        W93098  40.505   5.343   4.348
20674W        W93099  27.434  29.368   0.853
20675W        W93100  13.186   0.543   2.465
20676W        W93101  32.062  38.520  13.759
20677W        W93102   0.494  24.884  12.098
20678W        W93103  41.112  36.022  11.801
20679W        W93104  32.289  31.929   3.671
20680W        W93105  20.862  31.689   3.639
20681W        W93106  34.897   9.810   4.903
20682W        W93107   6.670   8.567  14.093
20683W        W93108  24.123   1.784  14.771
20684W        W93109  21.697   1.364   1.697
20685W        W93110  25.058  40.944   1.646
20686W        W93111  38.625  10.662   0.314
20687W        W93112  21.470  16.538  11.083
20688W        W93113   4.787  26.920   4.999
20689W        W93114  32.845  41.997   4.900
20690W        W93115  36.237  44.153   2.444
20691W        W93116  36.326  36.150  14.924
20692W        W93117  41.504  17.770  14.428
20693W        W93118   7.350  37.964   3.365
20694W        W93119  38.515   4.688  14.902
20695W        W93120   0.486  19.614   1.817
20696W        W93121  13.327  40.041  11.627
20697W        W93122  17.983  26.599   3.310
20698W        W93123  29.933  11.569   4.806
20699W        W93124  26.799   7.481   1.227
20700W        W93125   5.121  44.897   2.840
20701W        W93126  24.927  39.067   4.043
20702W        W93127  41.311  13.195   1.440
20703W        W93128  36.508  30.856  10.786
20704W        W93129   5.337  33.888   2.126
20705W        W93130  26.465  21.057  11.554
20706W        W93131  19.144  40.508  11.479
20707W        W93132   9.245  13.883   3.861
20708W        W93133  35.911   6.774  14.903
20709W        W93134  28.601  43.201  11.421
20710W        W93135  18.294  12.831  11.230
20711W        W93136   3.777   3.362  12.596
20712W        W93137   5.286   1.230  12.856
20713W        W93138  33.450  19.397   2.292
20714W        W93139   4.389  13.843  14.813
20715W        W93140  44.403  42.489  13.827
20716W        W93141  36.166  23.888   4.556
20717W        W93142  20.752  17.654  12.855
20718W        W93143  25.206   1.369   4.639
20719W        W93144  25.605   2.718   3.706
20720W        W93145   5.442  40.848  11.018
20721W        W93146   6.409   5.481  13.118
20722W        W93147  32.627   4.756  13.853
20723W        W93148  20.312  15.256   2.737
20724W        W93149  21.533  29.354   2.198
20725W        W93150  16.583  10.351  12.952
20726W        W93151  25.342  38.916  14.838
20727W        W93152  26.092  19.200  11.706
20728W        W93153  21.058  22.229   4.262
20729W        W93154  44.472   3.753  14.425
20730W        W93155  14.842  22.165   1.740
20731W        W93156   2.782  18.831   1.224
20732W        W93157  32.054  17.360  11.601
20733W        W93158  23.967  20.030  10.801
20734W        W93159  39.310  19.307  13.472
20735W        W93160   7.679  36.474  10.422
20736W        W93161   2.756  23.444   1.612
20737W        W93162   1.514  18.047   0.059
20738W        W93163  36.012  27.465   2.596
20739W        W93164  37.709  43.276   0.199
20740W        W93165  31.427  19.984   1.780
20741W        W93166   0.720  20.801   1.342
20742W        W93167  10.675  16.076   0.903
20743W        W93168  22.410  39.271   2.257
20744W        W93169  28.066  20.591   0.512
20745W        W93170  15.135  10.846  11.918
20746W        W93171  44.160   4.176   0.885
20747W        W93172  42.342  29.237  13.389
20748W        W93173  39.098  20.785  11.883
20749W        W93174   1.604  24.988  11.356
20750W        W93175  35.721  24.503  12.413
20751W        W93176   7.391  12.106  12.508
20752W        W93177  43.699  43.364  11.418
20753W        W93178  22.451  28.514   3.710
20754W        W93179  32.228  43.900  13.446
20755W        W93180  13.920  30.429  12.966
20756W        W93181  24.018  36.334  14.382
20757W        W93182  26.498   8.667  12.944
20758W        W93183  37.715  22.448   0.447
20759W        W93184   2.812   2.696   3.267
20760W        W93185  27.734   6.244   2.818
20761W        W93186  29.061   4.238   4.071
20762W        W93187  22.723  42.809   4.642
20763W        W93188  44.242  14.774  12.520
20764W        W93189  23.974  29.985  11.261
20765W        W93190  40.313  25.171   9.713
20766W        W93191   2.423  17.193  12.084
20767W        W93192   4.277  34.037   1.214
20768W        W93193  22.422  38.833   1.970
20769W        W93194  14.770  23.639  11.549
20770W        W93195  37.484  20.203   3.679
20771W        W93196  16.766  23.426  11.561
20772W        W93197   4.480  27.916   0.046
20773W        W93198  33.516  26.328  12.554
20774W        W93199   1.507  25.242  12.221
20775W        W93200  36.506  32.626  11.419
20776W        W93201  35.055  36.965  13.988
20777W        W93202   5.416  32.825   2.820
20778W        W93203  20.506  27.962  14.301
20779W        W93204  38.540  10.058  13.722
20780W        W93205   4.659  21.461  11.199
20781W        W93206  10.159  32.502   0.965
20782W        W93207  18.646   9.238   2.883
20783W        W93208  35.578  21.703  11.501
20784W        W93209  34.950  30.401  13.975
20785W        W93210  17.417  11.322  13.050
20786W        W93211  12.330   6.776  12.137
20787W        W93212  14.838  24.584  13.833
20788W        W93213  23.033   5.363  14.953
20789W        W93214  35.615  12.298   3.279
20790W        W93215  42.767  36.381   1.691
20791W        W93216   7.230  13.186   3.259
20792W        W93217  44.249  38.559  13.371
20793W        W93218  22.116  25.188  13.389
20794W        W93219  44.262  39.436  14.369
20795W        W93220  13.439  33.437  14.961
20796W        W93221  25.273  31.478  12.073
20797W        W93222  38.074  44.517   5.457
20798W        W93223   0.694  37.406  10.749
20799W        W93224  11.639  43.484   3.607
20800W        W93225  39.141  38.927  11.476
20801W        W93226  25.472  20.709  14.470
20802W        W93227  31.104  31.039  14.761
20803W        W93228  24.494  20.673   4.407
20804W        W93229  25.681  34.830  11.646
20805W        W93230  25.631  28.719   0.362
20806W        W93231   0.961  22.567  10.231
20807W        W93232  24.114  36.469   3.322
20808W        W93233  11.837   0.897   0.046
20809W        W93234   3.016  30.110   2.939
20810W        W93235  21.570   3.339  10.214
20811W        W93236  42.327  29.100   4.415
20812W        W93237  23.559  44.296   0.307
20813W        W93238  13.811   8.891   0.002
20814W        W93239  24.681  15.241   1.787
20815W        W93240  40.772  18.840   4.185
20816W        W93241   7.268  42.328  11.200
20817W        W93242  12.177  36.783  13.023
20818W        W93243  28.705  35.101   1.861
20819W        W93244  28.167  17.330  14.528
20820W        W93245  29.893  12.893   4.659
20821W        W93246  22.998   8.105   2.295
20822W        W93247  43.008  32.462  12.886
20823W        W93248  38.071  36.792   1.482
20824W        W93249  30.526  31.201   1.721
20825W        W93250  27.027  42.258  11.628
20826W        W93251   8.401  15.325   0.777
20827W        W93252   8.713  32.169   2.802
20828W        W93253   7.815  17.485   2.405
20829W        W93254  41.198  43.108   2.767
20830W        W93255   7.036   3.785   0.884
20831W        W93256  33.819  41.431  12.006
20832W        W93257  11.118  44.271   2.243
20833W        W93258  21.469   1.375  11.781
20834W        W93259  42.234  19.121   0.197
20835W        W93260  10.991  28.132  10.405
20836W        W93261   6.965  10.016   1.261
20837W        W93262  31.958  23.698  12.490
20838W        W93263  26.598  32.055  13.393
20839W        W93264  23.238  14.516  12.564
20840W        W93265   4.497   6.743   1.308
20841W        W93266  33.893  43.272   1.908
20842W        W93267  34.421  41.181   4.118
20843W        W93268  29.866  22.043   0.340
20844W        W93269  21.795  16.319   0.323
20845W        W93270  21.530   2.294  12.012
20846W        W93271  18.664  38.547   3.723
20847W        W93272  18.245   8.192   0.998
20848W        W93273  39.930  40.516   1.346
20849W        W93274  18.211  12.318  12.347
20850W        W93275  10.816  21.111  11.727
20851W        W93276  36.369  36.988  11.979
20852W        W93277  23.438  27.608  14.711
20853W        W93278  26.546  44.329   2.249
20854W        W93279  35.001  23.508   0.785
20855W        W93280  21.821  41.810  11.128
20856W        W93281  41.423  23.594   3.851
20857W        W93282  20.612  29.409   0.213
20858W        W93283  30.540  42.895  13.015
20859W        W93284  36.112  39.336   4.562
20860W        W93285  22.668  17.016   1.972
20861W        W93286  12.722  28.478   1.414
20862W        W93287  38.399   7.981   2.716
20863W        W93288  30.016   4.909   3.662
20864W        W93289   3.517  34.567   1.829
20865W        W93290  32.773  16.114   9.955
20866W        W93291  16.512   9.103   0.268
20867W        W93292  40.260  38.979   1.586
20868W        W93293   8.052  26.992  13.055
20869W        W93294  36.073  19.550  13.631
20870W        W93295  42.314  14.356  12.952
20871W        W93296  44.593  31.032  14.952
20872W        W93297  36.853  32.078   3.935
20873W        W93298   7.188  18.801  12.952
20874W        W93299   8.221   8.605   5.522
20875W        W93300  16.604  30.409  12.290
20876W        W93301   0.260  30.968   0.642
20877W        W93302   8.703  18.736  12.992
20878W        W93303  25.876  33.754   4.614
20879W        W93304  44.795  27.576  14.548
20880W        W93305  44.741   8.198   4.043
20881W        W93306  37.001  43.056   1.745
20882W        W93307   5.623   3.482  13.464
20883W        W93308  35.798  44.413   2.348
20884W        W93309  26.117   0.969   3.217
20885W        W93310  34.039  42.521  12.893
20886W        W93311   9.309  44.544   2.453
20887W        W93312  29.739  34.890   4.301
20888W        W93313  27.699  13.744   3.337
20889W        W93314  42.253  36.175   0.849
20890W        W93315  40.334  22.666  11.426
20891W        W93316   4.896  27.320  12.892
20892W        W93317  38.439  32.645  12.135
20893W        W93318  23.543  27.579   4.859
20894W        W93319  34.059  39.040   1.330
20895W        W93320  26.462  16.145   2.866
20896W        W93321   1.285  37.997   1.566
20897W        W93322  23.037   8.716   4.952
20898W        W93323  11.808  38.620   1.838
20899W        W93324   7.801  37.963  10.181
20900W        W93325  30.340   8.295   4.572
20901W        W93326  15.942  33.528  13.592
20902W        W93327  11.394  43.542   0.537
20903W        W93328  16.795  40.599   4.076
20904W        W93329  10.323  41.429  13.506
20905W        W93330   5.693  14.673  12.814
20906W        W93331  38.256  21.367  12.899
20907W        W93332  31.613  16.017  12.377
20908W        W93333  12.247   4.291  10.881
20909W        W93334  18.663  14.219  11.605
20910W        W93335  41.017   5.153  13.126
20911W        W93336  36.913   5.400  12.331
20912W        W93337  21.679  16.503   3.107
20913W        W93338  28.495  32.434  10.282
20914W        W93339   9.451   6.521   4.596
20915W        W93340  30.947  18.362   3.302
20916W        W93341  34.958  32.659  10.679
20917W        W93342   4.303   4.900  12.539
20918W        W93343  37.108  32.450   4.690
20919W        W93344  30.443  13.620  12.451
20920W        W93345  24.040   9.818   3.127
20921W        W93346  25.437   1.148   2.677
20922W        W93347   0.023  12.448   4.290
20923W        W93348   1.271   7.679   4.543
20924W        W93349  35.874  25.679   0.914
20925W        W93350  13.920  26.007   2.318
20926W        W93351  38.356  27.959   1.351
20927W        W93352  36.739  38.251   4.233
20928W        W93353  10.099  15.226  12.150
20929W        W93354  18.030   4.782   1.837
20930W        W93355  40.785  18.860  14.244
20931W        W93356  27.184  27.749  14.732
20932W        W93357   4.510  15.746   2.781
20933W        W93358  26.627   4.786   1.837
20934W        W93359  23.069   7.168   2.453
20935W        W93360   8.422   8.137  12.047
20936W        W93361  12.895  16.511   0.224
20937W        W93362  30.905  33.857   3.550
20938W        W93363  42.514  32.038  13.576
20939W        W93364  23.105  43.403   2.158
20940W        W93365   6.269  22.156   2.125
20941W        W93366  20.050   5.476   2.410
20942W        W93367  38.140   7.909  14.924
20943W        W93368  25.421  14.718   4.537
20944W        W93369   1.819  30.311   4.741
20945W        W93370  26.473  22.387  10.229
20946W        W93371  35.646  26.483  11.969
20947W        W93372  42.909   6.891  10.999
20948W        W93373  17.936  40.019   2.916
20949W        W93374  16.296  14.821  13.542
20950W        W93375  17.526  20.532   0.855
20951W        W93376  12.633  28.966  14.906
20952W        W93377  26.606  26.367  14.731
20953W        W93378  42.970  32.801   2.149
20954W        W93379  12.228   0.638  14.796
20955W        W93380  12.632   2.469   3.851
20956W        W93381   8.163  14.252   2.769
20957W        W93382  22.731  26.672   2.564
20958W        W93383  38.447  23.560   1.436
20959W        W93384   7.253  20.576  13.133
20960W        W93385  42.206  36.261   3.179
20961W        W93386  21.272  26.361   2.221
20962W        W93387  10.943  23.515   3.066
20963W        W93388  40.622  10.662  11.562
20964W        W93389  32.596  44.857   1.702
20965W        W93390   6.912  20.482   1.344
20966W        W93391   9.375  32.075   1.113
20967W        W93392  10.862  26.713   4.672
20968W        W93393  29.645  23.773   2.378
20969W        W93394  24.469   4.300   2.153
20970W        W93395  29.342   0.981   0.818
20971W        W93396  32.231  11.179   4.554
20972W        W93397  20.598  26.516   0.982
20973W        W93398  40.592   6.752   0.829
20974W        W93399   1.720  18.697   1.325
20975W        W93400  24.251  19.183  10.919
20976W        W93401  35.992  14.896  13.115
20977W        W93402  32.924  35.927  11.617
20978W        W93403  28.353  26.992   3.712
20979W        W93404  37.938   5.766   1.621
20980W        W93405  10.439  16.809  13.470
20981W        W93406   2.728  28.472  11.117
20982W        W93407  20.078  41.186   3.325
20983W        W93408  38.148  11.266  14.549
20984W        W93409   1.392  42.451   2.151
20985W        W93410  10.429  17.611   2.655
20986W        W93411  43.443   5.474   0.732
20987W        W93412  24.191  11.204  13.635
20988W        W93413  38.394   4.134   1.631
20989W        W93414  30.881  26.165  13.434
20990W        W93415  37.380  38.878   1.722
20991W        W93416  25.189  20.009   1.412
20992W        W93417  42.875  28.174   3.636
20993W        W93418   0.389  25.942  11.965
20994W        W93419   3.505   6.211  14.674
20995W        W93420  43.954  14.240   3.262
20996W        W93421  22.229  34.436   4.473
20997W        W93422  33.520  13.349  12.973
20998W        W93423  36.236   2.444   4.253
20999W        W93424  39.395  17.475   0.323
21000W        W93425  26.067  39.320   2.662
21001W        W93426  11.969   1.609  11.856
21002W        W93427  26.845  38.224   0.502
21003W        W93428  31.997  41.688   1.439
21004W        W93429   6.552  44.138  10.287
21005W        W93430  14.617  35.038  13.722
21006W        W93431   8.878  21.005   3.664
21007W        W93432  26.797  16.000  11.672
21008W        W93433  34.922   6.750   1.499
21009W        W93434   0.528  32.052   1.740
21010W        W93435   9.771  24.853   2.831
21011W        W93436  25.278   4.293   4.709
21012W        W93437  16.617  28.553  12.858
21013W        W93438  17.803  44.257  13.099
21014W        W93439  20.644   3.373  12.134
21015W        W93440   7.520   8.756   1.455
21016W        W93441  21.264  25.215   4.618
21017W        W93442  28.398  33.172  12.018
21018W        W93443  23.620  18.006  13.531
21019W        W93444  44.748  44.767   1.499
21020W        W93445  43.935  31.343   0.908
21021W        W93446  24.344   9.303  10.135
21022W        W93447  29.005  42.418  13.961
21023W        W93448  21.941   7.884  11.565
21024W        W93449  27.089  40.555  14.918
21025W        W93450  22.740  39.886  11.777
21026W        W93451  27.546  41.543  12.129
21027W        W93452  37.856  37.939   0.522
21028W        W93453  18.355  15.849   3.323
21029W        W93454  13.967  41.435  12.784
21030W        W93455  23.590   8.918   4.163
21031W        W93456  15.842  25.700   0.855
21032W        W93457  36.227  38.163   4.252
21033W        W93458  28.272  14.718   2.624
21034W        W93459  31.429  19.163   3.341
21035W        W93460  29.899  25.209   0.050
21036W        W93461  23.670  40.470  12.167
21037W        W93462  44.381   4.928   0.006
21038W        W93463   5.301  32.871   0.892
21039W        W93464  40.757  27.058   1.460
21040W        W93465   1.697   0.964  13.410
21041W        W93466  38.999  10.008   5.080
21042W        W93467  35.137  39.094  14.901
21043W        W93468   8.439   0.132  12.526
21044W        W93469  16.074  42.452  12.111
21045W        W93470  41.942   5.316   4.869
21046W        W93471  36.485   4.882   1.757
21047W        W93472  36.043  32.163  12.458
21048W        W93473  37.793  22.684   1.745
21049W        W93474  26.732  16.554   2.773
21050W        W93475  15.617  10.694   0.545
21051W        W93476  34.493  16.386   1.722
21052W        W93477  37.458  19.842  13.336
21053W        W93478   3.736   6.898   0.864
21054W        W93479  41.919  19.617   3.644
21055W        W93480  34.560   4.355  13.692
21056W        W93481  27.639  33.504   4.314
21057W        W93482   2.709  28.081   4.199
21058W        W93483  28.122  21.161  14.924
21059W        W93484  29.478   1.288   3.327
21060W        W93485   4.859  41.037   1.854
21061W        W93486  19.194  36.578   0.006
21062W        W93487  43.147  34.585  12.175
21063W        W93488  42.942  11.935   0.342
21064W        W93489   8.412  30.830   0.923
21065W        W93490  37.811  42.306  12.118
21066W        W93491  39.513  38.343  12.428
21067W        W93492  33.177   2.903   4.853
21068W        W93493  29.945  36.019   3.229
21069W        W93494  12.336  34.801   0.586
21070W        W93495  23.126   5.577   0.398
21071W        W93496  10.615  42.690   4.150
21072W        W93497  20.513   6.420  11.015
21073W        W93498  19.077   4.093   3.207
21074W        W93499  38.491  42.891   3.646
21075W        W93500  37.781   8.257  10.536
21076W        W93501  21.191  12.436   0.252
21077W        W93502   8.727  32.001  12.949
21078W        W93503  32.042  11.682   2.186
21079W        W93504  18.111   7.793   1.633
21080W        W93505  20.199  18.738  12.082
21081W        W93506  41.426  36.542  12.326
21082W        W93507  32.167   0.310  13.082
21083W        W93508  12.892  41.152   1.786
21084W        W93509   1.133  26.941   1.994
21085W        W93510  25.065  15.886   0.440
21086W        W93511  33.991  42.360   2.197
21087W        W93512   8.052  29.257  12.797
21088W        W93513  34.413  27.738   4.932
21089W        W93514  41.785  39.428   2.117
21090W        W93515  28.639  18.114   4.700
21091W        W93516  16.328   2.002   5.082
21092W        W93517  33.972  15.194  14.026
21093W        W93518   0.195   5.851   4.603
21094W        W93519  19.666  25.705   4.614
21095W        W93520  26.939  23.345   1.786
21096W        W93521  14.200  15.923   4.118
21097W        W93522  13.953  22.943  13.083
21098W        W93523  37.397  27.904  13.733
21099W        W93524   4.843  10.303   4.081
21100W        W93525  34.843  15.617  12.527
21101W        W93526  12.649  39.356  14.879
21102W        W93527  29.874  21.627   1.204
21103W        W93528  40.036   5.027   3.158
21104W        W93529  18.149  22.452   0.858
21105W        W93530  12.729  22.063   3.794
21106W        W93531  13.759  44.769  14.896
21107W        W93532  33.595  35.353   2.526
21108W        W93533  25.020  40.420  11.220
21109W        W93534   6.878  31.305   4.646
21110W        W93535  14.505  30.477   2.818
21111W        W93536  42.536   8.148   3.772
21112W        W93537  41.456  13.222   4.854
21113W        W93538  37.490   7.605  12.039
21114W        W93539   0.460  13.344   3.695
21115W        W93540  40.158  17.243   3.804
21116W        W93541  10.208  10.414  13.693
21117W        W93542  25.038  19.185  11.676
21118W        W93543  39.805  21.282  13.821
21119W        W93544  28.230   2.305   4.121
21120W        W93545  29.636  26.022   0.361
21121W        W93546  27.090  30.145   0.971
21122W        W93547  30.182  11.150   4.564
21123W        W93548   3.912  32.990   3.460
21124W        W93549  39.832   9.142   0.963
21125W        W93550  15.308  44.866   3.599
21126W        W93551  33.872   4.560   3.989
21127W        W93552  26.151  33.380  10.331
21128W        W93553  19.229  12.089   0.799
21129W        W93554   6.279   6.197  14.789
21130W        W93555  39.565  25.557  11.600
21131W        W93556  40.289   7.842   4.067
21132W        W93557  35.472   7.121   2.149
21133W        W93558  32.135  35.145  14.528
21134W        W93559  27.003  40.781   3.555
21135W        W93560  30.644   6.899   3.950
21136W        W93561  32.425  12.659   3.911
21137W        W93562   8.147  27.522  12.530
21138W        W93563  20.963  16.292   4.129
21139W        W93564  36.332  37.770   0.513
21140W        W93565  12.769  18.382   2.183
21141W        W93566  11.300  25.450  12.592
21142W        W93567  16.193   8.038  12.896
21143W        W93568  36.354   8.858   1.730
21144W        W93569  11.884   1.362  14.781
21145W        W93570   6.302  42.100   1.240
21146W        W93571   6.676   4.024  12.455
21147W        W93572   0.389  11.864  13.404
21148W        W93573  32.092  12.302   1.579
21149W        W93574  22.330  29.067   1.001
21150W        W93575   7.932  29.831  14.670
21151W        W93576  22.293  38.513  11.486
21152W        W93577  35.650  14.635  10.956
21153W        W93578   4.863  24.884   3.458
21154W        W93579  22.513  11.767   1.296
21155W        W93580  39.085  40.573  12.426
21156W        W93581  17.656  17.650  11.935
21157W        W93582   4.701  26.522   3.231
21158W        W93583   1.431  30.463   2.261
21159W        W93584  36.972  42.447   4.598
21160W        W93585   5.920  31.481   0.359
21161W        W93586  39.451   5.746   3.343
21162W        W93587  23.457  14.472  10.499
21163W        W93588  37.066   9.974  13.017
21164W        W93589  33.567  25.662   2.249
21165W        W93590  41.416  12.126   1.405
21166W        W93591  14.598  11.358   0.408
21167W        W93592  15.200   7.249  12.535
21168W        W93593  12.260  18.296   0.850
21169W        W93594  30.395   0.779   2.149
21170W        W93595  36.636  44.980   3.286
21171W        W93596  14.641  28.649   1.312
21172W        W93597  29.341  22.967  12.903
21173W        W93598  24.588  37.792  14.725
21174W        W93599   9.597   9.803  13.099
21175W        W93600  28.090  39.844   1.335
21176W        W93601  32.104  34.779  14.165
21177W        W93602  38.418  27.893   0.391
21178W        W93603  21.065   8.950   1.861
21179W        W93604  40.613  24.957  13.759
21180W        W93605  30.627   2.435   0.071
21181W        W93606  14.661  42.840   0.510
21182W        W93607  27.075  38.017  13.481
21183W        W93608  33.639  37.832  10.690
21184W        W93609  25.755  23.564  10.702
21185W        W93610  33.474   4.647  13.380
21186W        W93611  34.035  20.206   2.126
21187W        W93612  31.043  28.107   1.340
21188W        W93613   6.969  28.571  11.011
21189W        W93614  39.360   2.065   0.177
21190W        W93615  13.552  10.342   1.822
21191W        W93616  17.192   2.725  10.174
21192W        W93617  17.527  18.786  13.466
21193W        W93618  31.439   6.155  13.937
21194W        W93619   8.999  29.444  11.121
21195W        W93620   0.928  39.748  10.561
21196W        W93621   4.815   4.164   2.856
21197W        W93622  14.336  13.901  14.832
21198W        W93623  23.015  37.194  12.950
21199W        W93624   7.238  40.653   1.237
21200W        W93625  12.873  16.762   4.775
21201W        W93626  24.077  31.614  14.266
21202W        W93627  44.832  40.777  10.723
21203W        W93628  17.514  34.970   0.800
21204W        W93629  21.461  16.061   3.346
21205W        W93630  43.135  24.054  12.932
21206W        W93631  15.717  30.929   1.721
21207W        W93632  25.005  10.093   4.592
21208W        W93633  11.076  33.888  11.521
21209W        W93634  44.364  26.517  13.134
21210W        W93635  21.735  17.608  14.100
21211W        W93636  10.607  17.694  11.583
21212W        W93637  35.839  35.410  12.481
21213W        W93638  35.442  20.325  14.486
21214W        W93639  28.633  42.361  14.290
21215W        W93640  28.562  25.452   2.977
21216W        W93641  43.220   1.926  14.811
21217W        W93642  31.176  37.746   0.247
21218W        W93643  40.919  29.147   2.676
21219W        W93644  18.103  28.254   0.241
21220W        W93645  17.554   2.269   5.631
21221W        W93646   0.709  44.502   4.212
21222W        W93647  17.713   8.873  14.493
21223W        W93648  39.483  35.672  13.029
21224W        W93649  44.941  20.025  13.968
21225W        W93650  41.618   1.073  10.662
21226W        W93651  41.017  29.677  12.496
21227W        W93652  42.274  36.975  14.248
21228W        W93653  33.340  42.799  13.071
21229W        W93654  39.841  17.773   0.292
21230W        W93655  16.805  13.462   3.441
21231W        W93656  31.550  33.492   0.920
21232W        W93657   8.622  34.734  14.418
21233W        W93658   4.929   2.104  14.827
21234W        W93659  42.919  13.797  11.680
21235W        W93660  18.345   7.353  14.319
21236W        W93661   6.110  19.220   3.377
21237W        W93662  11.861  25.485   2.874
21238W        W93663   5.443  10.157   3.398
21239W        W93664  10.146  41.015  13.783
21240W        W93665  31.453  24.690   0.919
21241W        W93666  21.001   5.911  12.660
21242W        W93667   5.673  15.869   2.595
21243W        W93668  36.518  33.676   0.655
21244W        W93669  44.732   8.252   3.141
21245W        W93670   5.167   4.812   1.032
21246W        W93671  39.186  34.991  12.464
21247W        W93672  24.320   4.223   1.671
21248W        W93673  10.818  22.801   3.797
21249W        W93674  19.677  28.688  14.362
21250W        W93675  21.202  42.335   0.269
21251W        W93676   8.164  32.130   1.367
21252W        W93677  39.786   5.128  13.818
21253W        W93678  11.543  42.946   5.035
21254W        W93679   5.869  37.070  12.495
21255W        W93680   1.314  32.861   1.302
21256W        W93681   4.814  10.103   2.699
21257W        W93682   1.098  30.121  12.393
21258W        W93683  30.534  41.386  10.479
21259W        W93684  23.539  17.026   0.230
21260W        W93685   9.162  14.683  14.565
21261W        W93686   1.363  13.726   4.566
21262W        W93687  19.621  18.959   1.477
21263W        W93688  25.088   4.282  14.459
21264W        W93689  41.236  21.216  13.839
21265W        W93690  18.262  35.944  10.613
21266W        W93691   6.713  42.350   4.017
21267W        W93692  17.309  24.589   0.008
21268W        W93693  14.716  25.654  13.333
21269W        W93694  10.441   1.939  13.869
21270W        W93695  11.014  28.180  11.578
21271W        W93696  14.116  10.787  14.443
21272W        W93697   7.338   8.569   3.350
21273W        W93698  39.069   6.777   2.268
21274W        W93699  20.107   2.455  12.908
21275W        W93700   9.148  42.926  10.727
21276W        W93701  18.492  26.112  14.563
21277W        W93702  37.109  28.267  13.520
21278W        W93703   8.928  28.597   4.620
21279W        W93704  10.631   3.987  12.059
21280W        W93705  37.027  20.096  10.586
21281W        W93706  42.058  27.958  10.669
21282W        W93707  36.973   1.423  14.424
21283W        W93708  28.144  35.567   0.289
21284W        W93709  24.154  16.207   3.428
21285W        W93710  34.860  32.577   1.750
21286W        W93711   6.959  38.775  11.457
21287W        W93712   2.765  17.283  14.851
21288W        W93713  19.849  34.016   1.335
21289W        W93714  19.588   5.245   2.268
21290W        W93715   4.068  10.283  13.283
21291W        W93716  19.965  14.085  14.498
21292W        W93717  26.708  16.814  14.470
21293W        W93718  22.155  34.893  14.065
21294W        W93719   5.257  10.465  13.990
21295W        W93720  34.852  44.521   3.250
21296W        W93721   1.791   2.516  14.463
21297W        W93722  39.331  14.723   3.286
21298W        W93723  16.734  25.829  12.914
21299W        W93724  39.422  18.509  12.563
21300W        W93725  16.191  10.870  13.366
21301W        W93726  39.922  22.781  12.554
21302W        W93727  10.066  20.018   4.635
21303W        W93728  21.478  40.171  11.068
21304W        W93729   0.294  10.857   4.237
21305W        W93730   1.418  14.875   0.365
21306W        W93731  25.746   5.689   0.410
21307W        W93732   7.430  35.507   5.117
21308W        W93733  14.074   2.067  11.420
21309W        W93734  10.340  14.819  11.241
21310W        W93735   4.927  15.928   0.969
21311W        W93736  39.223  18.361  12.087
21312W        W93737  37.107  21.865   4.542
21313W        W93738  35.424  43.658   0.290
21314W        W93739  13.277  28.487   0.331
21315W        W93740   7.043   1.072  12.310
21316W        W93741  42.345  37.610   3.649
21317W        W93742  34.599  25.750   3.661
21318W        W93743  17.996  40.134  12.364
21319W        W93744  10.740   6.326   2.485
21320W        W93745  36.324  33.875   3.631
21321W        W93746  15.968  42.686   3.812
21322W        W93747  22.964   6.251   2.072
21323W        W93748  15.048  11.610  13.543
21324W        W93749   0.189  18.856   1.433
21325W        W93750  29.089   5.656   4.582
21326W        W93751  27.137  32.895   2.324
21327W        W93752  35.922  36.111  14.170
21328W        W93753  31.025  43.411  13.327
21329W        W93754  17.529  42.956  14.876
21330W        W93755   2.329  27.626  11.688
21331W        W93756  25.186   8.632  12.499
21332W        W93757  36.848  42.227   2.414
21333W        W93758  30.480  38.086  11.051
21334W        W93759  35.062  39.333   2.706
21335W        W93760  15.307  31.068  13.754
21336W        W93761  15.625   2.048  14.873
21337W        W93762  26.531  10.894   4.550
21338W        W93763   3.092  38.370  13.549
21339W        W93764  26.516  33.074   1.590
21340W        W93765  24.142  25.118  11.246
21341W        W93766  18.636  13.658   2.701
21342W        W93767  32.862  22.671  10.347
21343W        W93768  17.785  13.881  12.438
21344W        W93769   4.685  27.813  12.757
21345W        W93770  18.291  28.181   0.709
21346W        W93771   5.297  29.682   4.393
21347W        W93772  16.396  35.643   2.187
21348W        W93773  40.318  39.622  14.820
21349W        W93774  12.726  27.219  13.555
21350W        W93775   6.865   0.376  14.348
21351W        W93776   6.397  41.477   4.283
21352W        W93777  43.896  11.877   3.276
21353W        W93778  16.096   1.802  12.617
21354W        W93779  20.291  20.058  12.918
21355W        W93780  13.343  30.074  10.689
21356W        W93781  21.817  17.743  10.383
21357W        W93782   9.372  22.100   2.624
21358W        W93783  19.838   3.755   3.118
21359W        W93784   4.237  19.691  11.024
21360W        W93785  15.101  28.209   3.241
21361W        W93786  43.936  39.899   1.825
21362W        W93787  26.401  28.730  13.688
21363W        W93788  29.672  34.371  11.509
21364W        W93789  40.294  40.435  11.699
21365W        W93790  42.009  41.103   2.704
21366W        W93791  12.556   3.964  11.204
21367W        W93792  29.385  37.022   1.253
21368W        W93793  42.045  10.852  14.359
21369W        W93794  10.278  11.449  13.941
21370W        W93795  30.659  36.096   1.528
21371W        W93796  28.075  17.517   4.132
21372W        W93797  23.999   2.937   0.664
21373W        W93798   8.195  35.632   3.785
21374W        W93799  31.064  19.053   4.102
21375W        W93800  13.494  21.554  11.530
21376W        W93801   2.249  33.884  14.391
21377W        W93802  10.359  21.666   1.285
21378W        W93803  24.466   4.434  11.913
21379W        W93804  41.818  16.050   3.606
21380W        W93805  34.062  25.102  12.268
21381W        W93806  19.669  17.068   0.350
21382W        W93807  26.575   2.789   3.762
21383W        W93808   9.287  33.679   0.359
21384W        W93809  20.652   8.320   3.534
21385W        W93810  29.897  10.558   1.976
21386W        W93811  25.604   7.453  10.174
21387W        W93812   7.614  19.995   0.576
21388W        W93813  27.482  11.197   3.683
21389W        W93814   4.857  41.005  11.154
21390W        W93815  35.793  21.563   0.561
21391W        W93816  25.169  21.220  14.968
21392W        W93817  12.057  35.956   0.308
21393W        W93818   1.043  11.909  14.859
21394W        W93819  20.537  26.001  11.424
21395W        W93820  11.746  34.513  11.656
21396W        W93821   6.155   9.904  11.928
21397W        W93822  44.717  36.701  11.904
21398W        W93823  34.480   9.396  11.844
21399W        W93824  29.574  36.341  10.539
21400W        W93825  32.102  29.676  13.965
21401W        W93826  13.452  42.804   0.448
21402W        W93827  37.949  17.196   3.301
21403W        W93828  12.879   9.765   3.705
21404W        W93829   3.812   3.340   3.294
21405W        W93830  41.277  38.454   3.242
21406W        W93831  23.905   7.052   3.554
21407W        W93832  11.371  11.801   1.871
21408W        W93833  13.457   3.430  14.757
21409W        W93834  11.584  39.908   3.697
21410W        W93835  31.285  16.292   0.438
21411W        W93836  35.200  15.245   3.893
21412W        W93837   4.704   5.884  13.453
21413W        W93838   6.294  37.885   2.258
21414W        W93839  41.391  31.475   1.149
21415W        W93840  26.764  31.073   2.134
21416W        W93841  26.908   9.461  13.965
21417W        W93842   0.401   1.376   0.066
21418W        W93843  16.276  22.173   2.706
21419W        W93844   6.366  10.263  10.713
21420W        W93845  22.722  44.130  13.024
21421W        W93846  17.077  12.641  10.698
21422W        W93847   3.820  33.533  13.472
21423W        W93848  43.032  22.011   1.786
21424W        W93849  35.856  10.752  13.952
21425W        W93850  26.081  38.864  12.590
21426W        W93851   7.932  25.289  12.512
21427W        W93852  18.021  41.870  11.517
21428W        W93853  39.990  19.093  12.125
21429W        W93854  41.679  35.907   0.907
21430W        W93855  20.504   4.208  11.652
21431W        W93856  32.683  19.035   2.075
21432W        W93857   6.778  26.185  13.644
21433W        W93858  20.555  38.494  11.880
21434W        W93859  26.645  16.092   4.571
21435W        W93860  20.020  18.662   1.839
21436W        W93861  36.732  15.471  11.182
21437W        W93862  25.113  24.711  12.191
21438W        W93863   7.675  44.487   2.340
21439W        W93864   7.813  28.153  14.332
21440W        W93865  37.533   5.366  13.507
21441W        W93866  21.870  10.631   3.778
21442W        W93867  18.173  32.970  13.878
21443W        W93868  19.573  11.653  13.970
21444W        W93869  38.927  35.006  13.296
21445W        W93870   7.827  17.632  14.019
21446W        W93871  15.617  34.808   3.644
21447W        W93872   8.251  20.428  13.199
21448W        W93873  32.397  39.121  10.312
21449W        W93874   8.185  42.560   2.579
21450W        W93875  36.609  42.847   0.807
21451W        W93876  13.278   8.567   3.966
21452W        W93877  11.113  32.990  12.303
21453W        W93878  16.611  22.058   2.289
21454W        W93879   9.700  33.992   4.897
21455W        W93880  11.733  42.671   0.976
21456W        W93881   9.339  23.612   4.165
21457W        W93882  28.135   2.112   1.364
21458W        W93883  19.428  18.272  12.338
21459W        W93884   3.103  17.708  14.843
21460W        W93885  26.470   1.750   2.288
21461W        W93886   3.278  40.290  14.599
21462W        W93887  14.299   0.569   1.838
21463W        W93888  36.212  16.170  12.968
21464W        W93889  32.830  36.792   3.316
21465W        W93890   2.876  22.641   1.318
21466W        W93891  37.324  41.408  14.133
21467W        W93892  44.624  33.596   1.755
21468W        W93893  42.935  15.294  13.880
21469W        W93894   5.842  40.839   2.942
21470W        W93895  16.499  28.463   3.912
21471W        W93896  12.352  14.251   2.328
21472W        W93897  43.600  13.172   4.350
21473W        W93898   9.886  26.001   0.537
21474W        W93899  34.172   6.308  11.971
21475W        W93900  30.209  11.366  14.497
21476W        W93901  34.939  28.758   1.438
21477W        W93902  29.208   7.442   4.748
21478W        W93903  41.551   4.839  13.062
21479W        W93904  32.705  28.859   2.596
21480W        W93905  29.584  16.696   4.145
21481W        W93906  41.059  23.462  13.441
21482W        W93907  16.360  27.864   1.232
21483W        W93908  18.737   8.782  14.264
21484W        W93909   7.034  44.132  11.153
21485W        W93910   2.262  31.381   2.741
21486W        W93911  19.062  22.964   3.274
21487W        W93912  22.446  35.972  14.843
21488W        W93913   6.236  17.662   1.296
21489W        W93914  10.861   0.016  11.442
21490W        W93915  32.395   7.751   4.626
21491W        W93916   0.364  31.678  14.062
21492W        W93917  44.083  11.652  13.968
21493W        W93918  43.269  15.146   1.343
21494W        W93919   3.957   0.431  13.951
21495W        W93920  15.654   2.537   3.953
21496W        W93921  29.934  38.628  13.096
21497W        W93922  17.210  22.730  10.598
21498W        W93923  27.914   1.231   0.478
21499W        W93924  10.750  41.511   2.179
21500W        W93925  13.644  40.783  14.293
21501W        W93926  14.215  20.645  11.604
21502W        W93927  37.439  21.604   4.878
21503W        W93928  20.102  41.092  12.503
21504W        W93929   1.379  40.550   3.340
21505W        W93930  11.235  24.903  14.842
21506W        W93931  32.392  13.484   4.589
21507W        W93932  24.595  13.334   1.231
21508W        W93933  39.456  16.349   1.041
21509W        W93934  39.925  24.842  11.093
21510W        W93935  37.401  41.904   1.515
21511W        W93936  39.537  23.596  14.838
21512W        W93937  36.809  36.177  11.831
21513W        W93938  34.188  32.063   3.484
21514W        W93939  44.312   0.570   4.621
21515W        W93940  12.118  10.407  11.191
21516W        W93941  22.258  15.507  14.217
21517W        W93942  43.174  22.065  13.974
21518W        W93943  41.242  12.640  11.438
21519W        W93944  12.690  42.289   3.202
21520W        W93945  41.982  35.540  13.162
21521W        W93946   3.698  17.380  11.430
21522W        W93947   7.446  38.168  13.362
21523W        W93948   8.732  37.194  10.630
21524W        W93949  23.973  37.585   2.757
21525W        W93950   4.958  24.176  14.235
21526W        W93951   6.908  18.046   4.273
21527W        W93952   5.832  32.904   3.135
21528W        W93953   1.758  15.302   5.298
21529W        W93954  20.234  39.954   0.868
21530W        W93955  22.559  41.898   3.812
21531W        W93956  16.206  22.034  12.364
21532W        W93957  26.129  25.489  12.153
21533W        W93958  38.362  30.281  12.610
21534W        W93959  37.525  35.578  13.399
21535W        W93960  15.341  35.478  12.678
21536W        W93961  13.196  15.810  14.528
21537W        W93962   6.481  17.785   2.375
21538W        W93963  41.386   8.547   4.186
21539W        W93964  19.153  16.486   2.834
21540W        W93965   2.398  26.275  13.956
21541W        W93966  35.016  36.513  13.340
21542W        W93967  25.528  23.261  13.535
21543W        W93968  15.283  43.300  12.942
21544W        W93969  22.609  33.002  11.520
21545W        W93970  40.380   5.387  11.219
21546W        W93971  29.490  35.516   0.255
21547W        W93972   5.062   8.120   5.136
21548W        W93973  21.522  24.537  11.916
21549W        W93974  22.107   5.214   0.697
21550W        W93975  27.427  40.916   3.905
21551W        W93976  12.807  38.407   4.434
21552W        W93977  21.480  33.390   1.367
21553W        W93978   4.413  10.253   4.759
21554W        W93979  26.989  35.953  14.942
21555W        W93980  10.627  27.140   0.358
21556W        W93981  31.622  21.742  14.092
21557W        W93982   6.904  21.463   0.102
21558W        W93983  39.608  43.972   1.468
21559W        W93984   0.883  40.064   0.272
21560W        W93985  28.682  16.209   1.879
21561W        W93986  21.084  41.549   1.315
21562W        W93987   7.119   1.765   1.375
21563W        W93988   2.752  41.012  12.072
21564W        W93989  40.303   4.177  13.945
21565W        W93990  44.436  22.222  14.775
21566W        W93991  28.777  17.733   0.379
21567W        W93992  10.168  21.019   3.835
21568W        W93993   1.316   0.847  10.586
21569W        W93994  38.828  44.442   9.904
21570W        W93995  27.442   0.708  11.448
21571W        W93996   3.654   8.325  14.767
21572W        W93997  10.283   6.722  10.592
21573W        W93998  41.432   1.347  12.364
21574W        W93999  18.952  12.689   3.179
21575W        W94000  35.797  13.972   4.179
21576W        W94001  10.498  16.749  10.573
21577W        W94002  40.331  24.554   1.958
21578W        W94003  34.933  32.334  11.968
21579W        W94004  40.010  15.837   2.818
21580W        W94005   9.646  32.206   2.477
21581W        W94006  27.028  41.876   1.798
21582W        W94007  24.926   9.859   0.710
21583W        W94008  37.053  18.208  13.104
21584W        W94009   6.413   5.440  14.208
21585W        W94010  11.734  34.139   0.565
21586W        W94011  20.219   9.809   3.762
21587W        W94012  42.131  22.486  13.013
21588W        W94013  30.214  30.342  11.029
21589W        W94014  38.509  40.408   0.495
21590W        W94015  33.095  28.136   4.367
21591W        W94016  17.414  27.547   1.545
21592W        W94017  16.551  12.271   1.376
21593W        W94018  17.062   1.402   0.396
21594W        W94019  36.300   7.407   4.737
21595W        W94020   1.464   8.329   2.355
21596W        W94021   7.340  12.376   3.744
21597W        W94022  15.508  10.160  14.869
21598W        W94023  12.327   8.374   1.946
21599W        W94024  24.982  13.130   2.233
21600W        W94025  27.175   1.600  12.876
21601W        W94026  14.897  15.878   4.699
21602W        W94027  13.286  37.547   5.196
21603W        W94028  16.680  15.796  11.536
21604W        W94029  44.647  10.257  13.813
21605W        W94030  29.518  15.442   9.351
21606W        W94031   4.713   7.438   2.684
21607W        W94032  16.621   1.003  12.041
21608W        W94033  44.454  43.533   4.544
21609W        W94034  37.608  43.949  14.863
21610W        W94035   3.173  31.739   3.009
21611W        W94036  31.912  44.889  12.875
21612W        W94037  27.111  10.144  12.693
21613W        W94038  29.418  21.988   0.088
21614W        W94039  21.996  18.802   2.343
21615W        W94040   6.364  42.466   0.405
21616W        W94041  26.433  23.269  11.063
21617W        W94042  33.832  24.112  13.793
21618W        W94043  22.799  28.448   1.484
21619W        W94044  22.267  37.791   4.279
21620W        W94045  25.967  24.123   3.618
21621W        W94046   3.453  28.169   0.955
21622W        W94047  20.670  44.001  11.169
21623W        W94048  31.127   1.424   0.972
21624W        W94049  24.484   7.719   3.969
21625W        W94050  23.707  25.237   2.758
21626W        W94051   0.298  36.476   2.948
21627W        W94052  16.651  11.139   4.629
21628W        W94053   6.805  26.997  12.917
21629W        W94054  17.577  28.962   1.215
21630W        W94055   3.254   6.796   0.924
21631W        W94056  30.925  44.829  10.646
21632W        W94057   8.163  11.309   0.979
21633W        W94058  25.091  30.979   3.395
21634W        W94059   8.717   5.676  13.576
21635W        W94060  30.100  24.081  10.545
21636W        W94061  12.869  44.785   3.219
21637W        W94062  12.631  21.588   2.697
21638W        W94063   3.248  34.039   2.830
21639W        W94064  10.500  31.819  14.274
21640W        W94065  22.488   6.107   2.948
21641W        W94066  10.872  20.148  13.070
21642W        W94067   0.425  29.125   3.735
21643W        W94068  42.974  18.780  11.975
21644W        W94069  15.282  12.668   3.661
21645W        W94070  25.571  34.601  12.120
21646W        W94071  40.745  10.819   3.510
21647W        W94072  26.580  21.186   5.001
21648W        W94073  29.369  43.844  13.955
21649W        W94074  14.888   1.455  11.887
21650W        W94075  21.998  16.456  11.176
21651W        W94076  37.711  29.906   1.161
21652W        W94077   9.202  31.434   0.349
21653W        W94078   7.205  37.683  10.693
21654W        W94079  25.265  29.240   0.351
21655W        W94080   3.134  31.354  11.856
21656W        W94081  44.181  29.719  13.374
21657W        W94082  30.447  23.840   1.338
21658W        W94083  42.242  30.687  10.953
21659W        W94084  42.412  28.552   1.823
21660W        W94085  39.366   1.470  10.967
21661W        W94086   3.364  42.904  14.059
21662W        W94087  36.942  27.882   3.293
21663W        W94088  10.348  37.762   3.318
21664W        W94089  36.012  28.430  14.815
21665W        W94090  27.857  35.539   3.543
21666W        W94091  39.491   9.464   2.651
21667W        W94092  23.828   4.860   2.808
21668W        W94093  13.426  10.320   1.227
21669W        W94094  11.157  23.662  13.381
21670W        W94095   3.995  32.138   0.865
21671W        W94096  21.960  35.570   4.093
21672W        W94097  41.568  40.901   2.475
21673W        W94098  26.552  27.636   3.692
21674W        W94099  18.639  22.293  10.777
21675W        W94100  38.558   6.141  11.538
21676W        W94101  44.572   9.859   1.556
21677W        W94102  14.692  11.167   1.851
21678W        W94103   2.335  16.706  14.622
21679W        W94104   2.143  22.183   4.177
21680W        W94105  20.161  20.289  12.015
21681W        W94106  10.375  15.760  10.633
21682W        W94107  26.082  42.297  10.707
21683W        W94108  36.597  43.926  14.871
21684W        W94109  28.815  11.910  14.568
21685W        W94110  29.018  29.104  13.982
21686W        W94111  39.032   3.857  12.635
21687W        W94112  41.758  29.040  14.139
21688W        W94113  10.847   4.079   4.227
21689W        W94114  39.999  24.895   2.202
21690W        W94115  15.834  12.055  11.926
21691W        W94116  42.201   4.312  12.428
21692W        W94117  11.851  19.773   5.031
21693W        W94118  28.728  31.475   0.321
21694W        W94119  25.385  42.781  13.445
21695W        W94120  22.671  16.127  13.255
21696W        W94121  10.347   2.081  12.007
21697W        W94122  40.308  14.543  14.029
21698W        W94123  30.477   4.947  12.964
21699W        W94124  34.383  39.152  11.143
21700W        W94125  44.508  12.251  10.904
21701W        W94126  17.621   1.840  12.479
21702W        W94127   8.936  35.571  12.814
21703W        W94128  26.163  10.417  11.029
21704W        W94129  32.404  14.197   2.716
21705W        W94130  19.802   2.242  11.590
21706W        W94131   0.375  15.762   0.691
21707W        W94132  21.011  15.760   2.631
21708W        W94133  33.943  28.934  13.560
21709W        W94134  44.580  21.483   3.592
21710W        W94135   9.343  20.869   2.399
21711W        W94136  40.935   3.974  14.355
21712W        W94137  19.621  11.631  10.920
21713W        W94138  18.673  10.634  11.982
21714W        W94139  38.109  28.598  13.390
21715W        W94140  39.959  34.193  13.979
21716W        W94141  13.668   3.618  13.799
21717W        W94142  43.573  16.030   3.701
21718W        W94143   2.434  10.969   2.247
21719W        W94144  27.936  24.670   3.698
21720W        W94145  42.601  28.592  14.526
21721W        W94146  44.881   6.261   4.658
21722W        W94147  41.990  34.537   3.686
21723W        W94148  15.238   2.020   2.470
21724W        W94149  13.302  21.983   4.085
21725W        W94150  15.633  22.696   0.923
21726W        W94151  25.644  29.335   2.030
21727W        W94152   5.404  44.182   0.002
21728W        W94153  29.072  25.523  14.445
21729W        W94154  31.741  25.983  13.918
21730W        W94155  20.556  34.403  12.049
21731W        W94156   7.213  18.869   4.142
21732W        W94157  43.021   9.331   0.487
21733W        W94158  29.549  10.576   3.722
21734W        W94159  19.486  22.046  11.092
21735W        W94160  14.182  32.143  14.923
21736W        W94161  25.313  27.060   3.610
21737W        W94162  12.620  29.852  12.817
21738W        W94163  31.866   8.830  12.979
21739W        W94164  44.226  26.175   3.253
21740W        W94165  35.650  39.477   3.474
21741W        W94166  26.660  37.929   0.143
21742W        W94167  44.072  39.934  14.372
21743W        W94168  33.383  15.780   3.985
21744W        W94169   6.730  22.950   2.280
21745W        W94170  23.667  14.732  12.371
21746W        W94171   3.729   7.325  13.372
21747W        W94172  24.921  43.753  13.964
21748W        W94173  10.271  31.344  12.114
21749W        W94174  28.178  39.089  11.090
21750W        W94175  35.484   7.861   0.832
21751W        W94176  38.137  35.445   3.535
21752W        W94177   4.206  21.522  14.950
21753W        W94178  34.099  28.443   4.540
21754W        W94179  33.369  35.315   0.376
21755W        W94180  21.196  30.653   5.014
21756W        W94181  29.167   6.382   3.862
21757W        W94182  25.841  25.787   0.259
21758W        W94183  39.495  36.835   1.347
21759W        W94184  40.084   1.049  13.478
21760W        W94185  28.632  34.895   3.643
21761W        W94186   3.635  44.812  12.375
21762W        W94187  34.006   8.782  12.983
21763W        W94188  44.035  25.223  14.907
21764W        W94189   4.259  25.175  11.974
21765W        W94190  29.645  30.875   0.730
21766W        W94191   3.884  14.567  13.840
21767W        W94192  33.640  20.640   2.235
21768W        W94193  32.289  44.230   4.000
21769W        W94194  39.562  39.601  13.586
21770W        W94195  35.348  15.016   0.103
21771W        W94196  31.427  29.522   0.259
21772W        W94197  12.727  16.686  12.884
21773W        W94198  41.027  36.459  14.810
21774W        W94199   0.389  28.151   4.701
21775W        W94200  44.472  18.092   1.965
21776W        W94201  23.380  40.533  14.943
21777W        W94202   8.751  10.229   3.535
21778W        W94203  10.379  13.565  10.581
21779W        W94204  37.956  35.003  12.115
21780W        W94205  27.599  43.547   3.624
21781W        W94206  33.852   2.856  13.041
21782W        W94207  27.701   4.558  14.443
21783W        W94208  33.050  33.640  10.651
21784W        W94209  23.415  37.448  14.578
21785W        W94210  27.310  34.485   2.063
21786W        W94211   4.798  23.747  13.990
21787W        W94212   0.055  19.003  14.726
21788W        W94213  42.519  25.087  13.861
21789W        W94214  23.473  35.309   2.455
21790W        W94215  14.829   5.791  10.932
21791W        W94216  38.858  15.576  11.120
21792W        W94217  10.143  44.593  13.127
21793W        W94218   4.777  34.818   0.867
21794W        W94219  27.671   8.582   2.372
21795W        W94220  20.793  13.025  13.908
21796W        W94221  28.697  31.038  12.090
21797W        W94222  25.876  31.134  12.276
21798W        W94223  26.494  10.821  12.025
21799W        W94224   5.944  19.560  14.431
21800W        W94225  12.566  33.623  11.278
21801W        W94226  23.521   5.812   4.097
21802W        W94227  42.033  11.714   0.466
21803W        W94228  41.757  25.630   0.788
21804W        W94229  43.914  11.181   3.665
21805W        W94230   8.750  21.982  12.554
21806W        W94231  43.737  21.501  11.036
21807W        W94232   2.713   7.576  11.616
21808W        W94233  42.888  23.039   4.983
21809W        W94234  21.251  17.793  11.096
21810W        W94235   2.648  26.063   4.971
21811W        W94236  21.074  36.556   3.108
21812W        W94237  37.149  22.065  10.252
21813W        W94238   2.761  41.515   3.498
21814W        W94239  28.008   9.809  13.746
21815W        W94240   5.697  43.301  11.152
21816W        W94241   6.436   9.403  12.585
21817W        W94242  33.950  42.328  11.522
21818W        W94243  28.080  14.543   0.357
21819W        W94244  20.091  31.514   4.169
21820W        W94245  14.338  13.231  13.879
21821W        W94246   7.354  13.318   4.533
21822W        W94247   6.234  10.085  11.195
21823W        W94248   8.815   5.384  11.031
21824W        W94249  11.899  34.950   0.302
21825W        W94250  20.187  16.873  11.473
21826W        W94251  23.463   4.039  14.855
21827W        W94252  29.104  30.974   1.461
21828W        W94253   8.818  40.465   0.692
21829W        W94254  15.564  20.588   0.807
21830W        W94255   7.443  34.640  10.435
21831W        W94256   4.129  26.765  11.229
21832W        W94257  10.592   2.103  12.876
21833W        W94258  14.855  13.778   0.831
21834W        W94259  39.440   6.160  11.571
21835W        W94260  19.262  29.615   5.500
21836W        W94261   5.317   8.087   1.578
21837W        W94262  24.130  19.322   2.341
21838W        W94263  35.779  15.492  10.239
21839W        W94264  25.709  28.040  11.571
21840W        W94265  25.551  18.728  14.031
21841W        W94266  32.973  43.075  13.507
21842W        W94267  11.838  35.155  10.680
21843W        W94268  42.520  44.938  14.876
21844W        W94269  25.682   9.234   2.239
21845W        W94270  25.134  26.480  11.255
21846W        W94271  37.475  27.980  14.256
21847W        W94272   1.336  44.272   1.665
21848W        W94273  23.434  42.963  11.644
21849W        W94274   7.444  16.063   2.732
21850W        W94275   4.858  44.380  14.799
21851W        W94276  23.008  39.791   0.271
21852W        W94277  18.248   0.375   1.282
21853W        W94278  16.641  34.568  14.707
21854W        W94279  38.442  42.293  11.431
21855W        W94280  31.476  38.324   3.278
21856W        W94281  34.954  34.830  11.516
21857W        W94282  18.378  14.678   4.633
21858W        W94283  28.068   5.928   3.115
21859W        W94284  14.176  22.742   1.084
21860W        W94285  19.663  39.351   1.186
21861W        W94286  41.098   2.956   3.964
21862W        W94287  40.047  15.806  13.365
21863W        W94288   2.314  33.630  13.420
21864W        W94289   9.211  10.839   1.077
21865W        W94290  28.699  16.358   4.707
21866W        W94291  30.536  37.293   3.322
21867W        W94292   8.623   1.987   1.068
21868W        W94293   2.691  20.531  14.943
21869W        W94294  22.640  33.039  14.144
21870W        W94295  32.929   7.167   0.749
21871W        W94296  42.889  17.782  10.714
21872W        W94297  13.250  12.628   3.619
21873W        W94298  38.837  39.960  11.163
21874W        W94299  29.318  11.810  13.019
21875W        W94300  11.428  23.611  12.934
21876W        W94301  10.164  42.486  14.096
21877W        W94302  38.076  10.083  11.042
21878W        W94303  12.861  31.878  10.775
21879W        W94304  35.415  30.931  13.796
21880W        W94305  15.364  24.999  13.451
21881W        W94306  40.393  44.771   3.254
21882W        W94307   6.241   1.806   1.583
21883W        W94308  37.098   0.683  14.726
21884W        W94309  19.676  26.941  12.611
21885W        W94310  38.307  37.010   0.444
21886W        W94311  33.922   0.235  12.945
21887W        W94312   3.289  20.075   2.326
21888W        W94313  18.938  35.387   3.086
21889W        W94314  35.293  44.879  12.096
21890W        W94315   4.281  44.739   4.505
21891W        W94316   5.359  22.719   2.343
21892W        W94317  29.157   7.611   2.625
21893W        W94318  24.264   9.427   1.777
21894W        W94319  12.092   0.258  14.446
21895W        W94320  12.236  20.718   3.594
21896W        W94321  44.397   5.792  13.858
21897W        W94322  40.396  14.383  13.557
21898W        W94323  20.221  20.544  11.576
21899W        W94324  18.205  18.612  14.936
21900W        W94325  42.726  10.793  13.561
21901W        W94326   0.514  14.835   4.134
21902W        W94327  29.889  22.096  12.136
21903W        W94328  14.207  27.171   1.876
21904W        W94329   1.219  44.655  13.474
21905W        W94330   7.243  29.650   0.004
21906W        W94331  38.317  10.144  10.588
21907W        W94332  44.275  21.043  13.328
21908W        W94333  37.213  20.084  11.065
21909W        W94334  14.298  28.265  13.903
21910W        W94335  16.050   1.991   5.527
21911W        W94336  26.565   2.211  10.619
21912W        W94337   5.626  44.562  12.861
21913W        W94338  27.997   1.288   0.983
21914W        W94339  25.930   0.855   3.692
21915W        W94340  20.982  36.418  11.240
21916W        W94341  35.836  42.308   3.129
21917W        W94342  39.602  39.725   3.620
21918W        W94343  18.338  21.983   4.455
21919W        W94344  20.776   8.003  13.329
21920W        W94345  14.521   7.114  11.074
21921W        W94346  13.038  24.470  11.987
21922W        W94347   0.247  20.697  11.396
21923W        W94348  16.006  43.958   3.129
21924W        W94349  17.062  29.450   4.681
21925W        W94350  10.516  10.686  12.874
21926W        W94351   9.708  33.146   3.996
21927W        W94352   1.912  33.352   4.421
21928W        W94353  21.081   2.291  13.093
21929W        W94354  15.507   8.983  12.619
21930W        W94355  38.053  27.028   3.417
21931W        W94356  27.723  18.313   0.924
21932W        W94357  22.494  33.854  14.810
21933W        W94358  23.204  12.982  13.813
21934W        W94359  17.072  19.283  14.234
21935W        W94360  12.404   1.898   2.729
21936W        W94361  13.910  34.003   2.220
21937W        W94362  26.632  14.330   3.376
21938W        W94363  32.098   7.056   3.539
21939W        W94364   3.237  22.589  13.080
21940W        W94365  10.901  26.905  13.835
21941W        W94366   4.341   0.897  12.621
21942W        W94367   7.386  27.980   1.508
21943W        W94368  25.958   1.949   3.244
21944W        W94369  41.308  34.496   4.871
21945W        W94370  30.090  40.254   3.887
21946W        W94371  41.959   3.945  14.277
21947W        W94372  13.305  32.896  11.141
21948W        W94373  15.272  24.628  12.496
21949W        W94374  11.769   6.325   2.210
21950W        W94375  42.282  13.519  11.877
21951W        W94376  24.973  26.347   1.708
21952W        W94377   1.525  28.120   3.567
21953W        W94378  21.391  14.155  10.270
21954W        W94379  29.414  27.734  14.699
21955W        W94380  22.920   6.264  12.618
21956W        W94381  26.026  30.198   4.631
21957W        W94382  25.489  40.236  11.369
21958W        W94383  28.518  38.356  13.651
21959W        W94384  36.478  23.751  11.845
21960W        W94385  34.288  39.890  14.326
21961W        W94386  20.135   5.134   4.136
21962W        W94387   9.655  26.700  14.313
21963W        W94388  40.945  39.827   0.010
21964W        W94389  41.497  16.387   4.674
21965W        W94390  11.091  11.186  11.548
21966W        W94391  40.530  17.231  11.864
21967W        W94392  44.460  41.363  12.946
21968W        W94393   5.683   0.825   2.886
21969W        W94394   3.771  23.461   2.115
21970W        W94395  33.553  11.951  14.847
21971W        W94396   2.220  12.065  14.600
21972W        W94397   2.156  18.334  10.192
21973W        W94398   6.850  23.925   1.417
21974W        W94399  40.921   9.876   2.277
21975W        W94400  20.542  41.048   3.122
21976W        W94401  19.729  33.146   3.695
21977W        W94402  27.307   5.468   3.672
21978W        W94403  12.702  28.825  12.205
21979W        W94404  16.781  39.564   2.612
21980W        W94405  38.927  10.456   3.289
21981W        W94406  41.886  39.726   1.357
21982W        W94407  39.954  26.317   2.835
21983W        W94408  14.086  21.553  14.347
21984W        W94409  39.480  40.225   3.623
21985W        W94410  38.383  11.710   1.296
21986W        W94411  33.185  19.064   9.788
21987W        W94412  14.213   9.671  10.739
21988W        W94413  18.548  13.698   0.511
21989W        W94414   5.850  25.067   4.389
21990W        W94415  26.923  40.619   2.695
21991W        W94416  44.834  13.580   2.840
21992W        W94417  18.344   6.301  14.903
21993W        W94418   0.082  40.481  14.342
21994W        W94419   2.509   6.325   4.627
21995W        W94420   9.649  18.763   2.773
21996W        W94421  43.399   2.398   0.043
21997W        W94422   4.139  38.937  12.052
21998W        W94423  12.815  24.206   1.936
21999W        W94424  26.673  35.360  12.119
22000W        W94425  11.674  36.904  11.323
22001W        W94426  33.642   8.270  10.067
22002W        W94427   8.892   7.222  12.974
22003W        W94428  20.100   1.067  14.907
22004W        W94429  34.214  38.405  14.261
22005W        W94430  11.603  37.557   0.391
22006W        W94431  12.703   1.949   3.755
22007W        W94432  15.520  13.127   0.414
22008W        W94433  30.868  32.497   2.918
22009W        W94434   2.260   4.134   1.784
22010W        W94435  27.195   2.917   0.823
22011W        W94436  29.211  23.926  14.956
22012W        W94437  16.682  10.956   2.788
22013W        W94438  38.216  27.659   3.161
22014W        W94439  24.759  27.947  11.646
22015W        W94440  20.226  23.004   1.399
22016W        W94441  41.313  44.546  10.430
22017W        W94442   9.652   7.893  12.111
22018W        W94443  40.971  30.258  11.219
22019W        W94444   6.000  36.192  11.415
22020W        W94445  26.505  40.484   1.905
22021W        W94446  10.009   5.083   1.710
22022W        W94447  30.531   0.337   2.405
22023W        W94448   3.735   2.007  12.587
22024W        W94449  20.277  33.528  14.467
22025W        W94450  27.601  28.593   1.355
22026W        W94451  34.226  35.844   0.723
22027W        W94452  36.847  26.448  12.069
22028W        W94453  22.005   7.713   2.645
22029W        W94454  28.619  31.730   3.199
22030W        W94455   6.252  35.199   1.644
22031W        W94456  33.043  18.344   0.590
22032W        W94457  38.316  35.555  14.945
22033W        W94458   1.134   8.171  13.450
22034W        W94459   6.745   8.763  11.129
22035W        W94460  13.902  34.930  13.436
22036W        W94461  11.556  39.260   2.893
22037W        W94462  34.666  18.839  11.606
22038W        W94463  32.091  16.747  13.346
22039W        W94464   9.686   6.067   1.606
22040W        W94465   5.177  34.457  13.932
22041W        W94466  34.365  12.916  11.559
22042W        W94467  11.366  16.286   4.105
22043W        W94468  27.997  33.950  10.508
22044W        W94469  22.023  20.855   1.257
22045W        W94470   4.927  43.770   2.376
22046W        W94471  44.897  43.341   2.184
22047W        W94472  23.595   8.229  14.421
22048W        W94473  26.471  22.161   0.505
22049W        W94474  38.026  40.457   0.707
22050W        W94475  23.561   0.917  11.688
22051W        W94476  30.964   9.910  11.185
22052W        W94477  38.997   5.838   2.291
22053W        W94478   4.806   1.889  13.481
22054W        W94479   4.544   1.758   0.421
22055W        W94480   4.094  17.823   0.022
22056W        W94481  16.165  26.130   0.933
22057W        W94482  41.380   2.126  11.683
22058W        W94483  14.783   2.762  13.770
22059W        W94484  10.166  34.421   1.718
22060W        W94485  38.365  24.665  13.989
22061W        W94486  16.510  28.748  12.394
22062W        W94487   1.965  24.420  13.904
22063W        W94488  21.730  40.439  11.433
22064W        W94489  37.997  44.905   2.151
22065W        W94490  33.491   6.901  13.017
22066W        W94491  27.462   2.327   2.916
22067W        W94492  27.990   6.236  13.444
22068W        W94493  39.885  27.190   4.113
22069W        W94494   0.776  35.445  12.564
22070W        W94495  12.409   3.432   0.554
22071W        W94496  14.322  22.106   1.721
22072W        W94497  38.543   1.967  11.478
22073W        W94498  19.756  32.593  11.226
22074W        W94499  14.345  14.583  11.167
22075W        W94500  31.865  15.102   0.949
22076W        W94501  40.033  36.730  13.482
22077W        W94502  16.245  10.891   2.501
22078W        W94503  30.103  11.969  13.570
22079W        W94504  11.028   6.298   5.503
22080W        W94505  33.025  36.166  14.349
22081W        W94506  23.525  36.952  12.330
22082W        W94507  40.779  26.180  13.560
22083W        W94508   4.421   5.466  11.027
22084W        W94509  27.146  42.020   1.312
22085W        W94510  15.113  23.957   1.632
22086W        W94511  13.182  44.872  10.692
22087W        W94512  31.914  37.058   1.372
22088W        W94513   4.177   1.969  11.447
22089W        W94514  40.257  35.408  11.972
22090W        W94515  30.247  26.605  14.398
22091W        W94516  31.458  20.266  14.074
22092W        W94517  22.920   6.767  14.005
22093W        W94518  20.318   8.052  12.741
22094W        W94519  23.173  31.979   0.176
22095W        W94520   9.966   0.692   0.545
22096W        W94521  39.095  19.493   3.255
22097W        W94522  25.585  35.685  13.851
22098W        W94523  42.055  19.793   4.118
22099W        W94524  21.009  33.104   4.235
22100W        W94525  44.276   3.892   4.061
22101W        W94526  38.515   1.287   0.997
22102W        W94527  23.694   2.359  12.942
22103W        W94528   6.385  40.083   1.449
22104W        W94529  27.640   4.911  11.859
22105W        W94530   0.778  22.315   2.327
22106W        W94531  21.530  23.564   2.199
22107W        W94532  28.510  17.241   4.181
22108W        W94533   4.616  28.633   0.315
22109W        W94534   7.786  17.028   2.168
22110W        W94535  11.003  36.679  14.547
22111W        W94536   8.805   0.064   4.173
22112W        W94537  26.788  16.582   1.826
22113W        W94538   2.975  41.915  10.645
22114W        W94539  39.141   2.081   1.364
22115W        W94540   6.276  43.055   2.405
22116W        W94541  37.460  28.195  12.836
22117W        W94542   5.841   6.132  14.434
22118W        W94543  42.850  30.548   0.652
22119W        W94544  40.726  27.789   3.161
22120W        W94545   8.284  38.797  12.909
22121W        W94546   8.459  16.296  14.367
22122W        W94547  13.920  17.569   2.242
22123W        W94548  37.532  12.536  14.959
22124W        W94549  42.737  22.950  13.586
22125W        W94550   2.196  20.664  13.413
22126W        W94551  31.196  16.634  14.897
22127W        W94552   8.258   1.995  12.598
22128W        W94553  23.046  27.688   0.059
22129W        W94554  12.689  21.533  14.344
22130W        W94555   9.208  20.107  14.892
22131W        W94556   5.957   8.420  10.729
22132W        W94557  23.146  23.456  12.462
22133W        W94558  44.383  22.588   2.428
22134W        W94559  41.075  21.209  12.901
22135W        W94560   3.354  21.165   4.694
22136W        W94561  17.660  27.215   3.631
22137W        W94562  12.137  37.079   3.755
22138W        W94563  22.524  27.337  10.689
22139W        W94564  35.472  44.007   1.503
22140W        W94565   7.132  35.942   0.951
22141W        W94566  15.651   2.585  13.516
22142W        W94567   8.157  43.220   0.481
22143W        W94568   3.392  44.762  14.200
22144W        W94569  39.563   9.742  11.908
22145W        W94570  29.570  17.213   1.335
22146W        W94571   1.965  32.462  14.946
22147W        W94572   1.219  24.788   3.712
22148W        W94573  34.908  15.680   2.650
22149W        W94574  29.684  20.510  12.955
22150W        W94575  20.112   9.640  13.582
22151W        W94576  37.945   9.582   3.135
22152W        W94577  29.772  41.801  13.355
22153W        W94578  14.914  31.417  10.121
22154W        W94579  16.990  33.011  14.744
22155W        W94580  34.334  38.034  12.866
22156W        W94581  23.539  39.364  12.122
22157W        W94582  30.654  16.077   4.753
22158W        W94583  21.571  30.918  10.656
22159W        W94584  35.125   6.810  10.784
22160W        W94585   5.339  29.050  12.145
22161W        W94586   6.178  33.646  11.939
22162W        W94587  19.984  42.677   4.118
22163W        W94588  15.095  23.506   4.203
22164W        W94589  22.664   1.752   4.577
22165W        W94590  30.309  17.710  11.924
22166W        W94591  15.703  24.208   0.987
22167W        W94592   5.478  42.293   3.259
22168W        W94593  40.929   2.215   1.416
22169W        W94594  31.978  13.907  13.526
22170W        W94595   2.918   2.411   4.416
22171W        W94596  41.353  28.442  12.485
22172W        W94597   6.677  22.262   2.860
22173W        W94598  14.288  34.257  12.081
22174W        W94599  42.795  15.712  12.122
22175W        W94600  25.723  11.951  13.984
22176W        W94601  13.908  21.983   2.681
22177W        W94602  39.401  19.149  14.761
22178W        W94603  32.401  33.935   4.634
22179W        W94604  14.205  16.330  11.529
22180W        W94605  10.500  40.317  13.328
22181W        W94606  29.518  28.462   0.410
22182W        W94607  24.609  40.347  13.894
22183W        W94608   4.919  40.846  13.824
22184W        W94609  32.782   0.450  13.540
22185W        W94610  22.074   8.370  10.330
22186W        W94611  27.722  22.246   4.369
22187W        W94612   1.623   9.405  10.746
22188W        W94613  29.018   2.460   1.650
22189W        W94614   0.191  26.002  11.466
22190W        W94615  10.228   2.733  14.432
22191W        W94616  42.829  29.932  14.416
22192W        W94617  30.724   8.670   3.789
22193W        W94618   6.738  32.581   3.715
22194W        W94619  16.858  31.178  11.025
22195W        W94620  24.865  31.600  13.274
22196W        W94621  18.847  31.548  14.892
22197W        W94622   3.557  15.027   2.080
22198W        W94623  42.052  26.995  13.536
22199W        W94624  34.272  21.350   4.135
22200W        W94625   2.937  41.068   1.406
22201W        W94626  29.669  27.532  12.870
22202W        W94627   3.487   5.254   4.630
22203W        W94628  24.527  38.879   2.852
22204W        W94629  11.594  18.700  12.883
22205W        W94630  42.821  20.531  12.876
22206W        W94631  18.571   3.379   0.348
22207W        W94632  28.886  18.621   4.151
22208W        W94633   5.618  22.833   3.167
22209W        W94634   0.673  27.714   4.625
22210W        W94635  42.629  15.362  12.916
22211W        W94636  11.415  38.321  11.573
22212W        W94637  14.082  41.991   2.275
22213W        W94638  26.574  11.686  12.628
22214W        W94639  28.168   8.201  12.400
22215W        W94640   3.890  32.679  13.780
22216W        W94641  20.685   7.385   0.415
22217W        W94642   7.390   7.696   2.863
22218W        W94643  42.909  11.932  13.673
22219W        W94644  34.250   2.844   3.120
22220W        W94645  26.505  23.957   2.486
22221W        W94646  27.853   3.459  14.249
22222W        W94647  40.841  39.570   4.132
22223W        W94648  14.025   6.056   0.116
22224W        W94649  28.495   4.582  10.772
22225W        W94650  36.108  37.240   3.779
22226W        W94651  35.528  18.066  13.948
22227W        W94652   0.777  32.117  11.924
22228W        W94653   7.994  13.765   1.925
22229W        W94654  14.690  30.075   3.423
22230W        W94655  15.361  16.027   3.577
22231W        W94656   8.186   6.478   0.845
22232W        W94657   7.179  35.059   5.022
22233W        W94658  24.172  44.008   3.664
22234W        W94659  20.179  19.009   3.284
22235W        W94660  23.575  23.560  11.709
22236W        W94661  32.094  10.735   0.505
22237W        W94662  31.605   5.734   0.214
22238W        W94663   5.148  20.899  10.460
22239W        W94664  12.384  22.287   4.625
22240W        W94665  42.184  24.580   5.030
22241W        W94666   2.691  39.050   1.711
22242W        W94667  41.811  32.176  11.286
22243W        W94668  24.592  33.034  11.714
22244W        W94669   3.411  24.530   0.830
22245W        W94670   1.916  27.015  11.212
22246W        W94671  22.665  32.725  12.900
22247W        W94672  41.322  44.851  12.258
22248W        W94673  19.019  30.282  11.991
22249W        W94674  13.542  38.174  13.026
22250W        W94675   9.796  15.270  14.838
22251W        W94676  12.767  18.089   0.855
22252W        W94677  28.147  28.879  10.221
22253W        W94678  34.789  32.104   5.176
22254W        W94679  24.041  10.844   2.225
22255W        W94680  27.481  23.051  10.806
22256W        W94681   2.825  34.478   2.262
22257W        W94682  22.105   8.774   9.531
22258W        W94683  44.909  34.404   4.217
22259W        W94684  41.011  17.523   4.888
22260W        W94685  18.190  42.100  14.702
22261W        W94686  26.276  30.741  12.183
22262W        W94687  10.930  31.147   2.312
22263W        W94688  24.715  34.559  12.166
22264W        W94689  29.722   9.713   2.484
22265W        W94690  24.451  36.560   1.669
22266W        W94691  35.046  24.620  14.968
22267W        W94692   9.219  43.886  14.077
22268W        W94693   2.014  39.269   1.488
22269W        W94694  32.928  22.125  11.150
22270W        W94695  41.395  13.513  14.391
22271W        W94696  22.055  21.698  14.995
22272W        W94697  32.694   5.026   4.853
22273W        W94698  44.997   7.891  12.841
22274W        W94699  23.601  39.876  12.198
22275W        W94700  40.203  38.146   2.964
22276W        W94701  42.032  37.101   4.095
22277W        W94702  24.087  15.776   2.785
22278W        W94703  25.625  40.759   3.260
22279W        W94704  12.637  23.312  10.951
22280W        W94705  16.051  44.379   4.309
22281W        W94706  37.468  33.592  12.680
22282W        W94707   3.334  11.280  13.902
22283W        W94708   1.092  38.994  13.474
22284W        W94709  33.984  15.324  11.246
22285W        W94710  22.821  10.724  11.082
22286W        W94711  11.320  44.425   0.841
22287W        W94712  39.457   4.174  12.529
22288W        W94713  22.553   6.158  11.892
22289W        W94714  10.450  42.828  14.987
22290W        W94715  38.997  29.519   3.318
22291W        W94716  38.063  28.956  10.631
22292W        W94717  30.597  44.803   3.109
22293W        W94718   5.650   6.353  10.535
22294W        W94719  35.117  31.874   1.233
22295W        W94720  16.911  30.930  10.564
22296W        W94721  37.593  17.091  13.309
22297W        W94722   8.315  26.749   0.290
22298W        W94723  26.501  35.898  10.134
22299W        W94724  13.617  14.728  14.929
22300W        W94725  30.448  39.104   3.425
22301W        W94726   1.177  28.118  13.431
22302W        W94727  32.143  42.226   2.420
22303W        W94728  16.031   2.506  13.870
22304W        W94729  42.644  39.289  12.566
22305W        W94730  12.264   4.666   1.413
22306W        W94731  17.218  20.450   2.623
22307W        W94732  24.274  32.750   4.954
22308W        W94733   6.114  11.870   4.177
22309W        W94734   0.231  16.643   0.376
22310W        W94735  25.186  27.687  11.578
22311W        W94736  43.868   5.880   2.840
22312W        W94737  35.491  42.870  12.009
22313W        W94738  41.162  25.895   0.492
22314W        W94739  19.677   9.430  13.395
22315W        W94740   0.436   2.778   2.093
22316W        W94741  18.195  37.780   0.353
22317W        W94742  33.009  35.996  10.639
22318W        W94743  16.124  33.951   2.799
22319W        W94744  14.341  38.466   0.705
22320W        W94745   2.879   4.747  11.504
22321W        W94746   8.853  10.295   4.558
22322W        W94747  40.347  18.587  14.300
22323W        W94748  25.573  42.055  13.928
22324W        W94749   9.435  15.027   1.339
22325W        W94750  26.562  21.224  14.416
22326W        W94751  29.553  24.620   2.339
22327W        W94752  43.581  41.975  12.553
22328W        W94753  20.613  24.413  12.435
22329W        W94754  34.104   7.697  12.955
22330W        W94755  16.845  11.354   3.085
22331W        W94756  15.436  25.992  14.407
22332W        W94757  24.954  29.023  14.353
22333W        W94758  44.746  10.560  11.547
22334W        W94759  24.746  14.594  14.918
22335W        W94760  16.668  34.449   1.180
22336W        W94761  31.575  25.267  13.417
22337W        W94762   9.130  13.584   3.204
22338W        W94763  26.041  22.036   3.140
22339W        W94764  17.833  14.109   0.992
22340W        W94765   4.223  30.291   2.755
22341W        W94766  36.347  43.920  10.637
22342W        W94767  20.688  28.995   3.951
22343W        W94768   9.469   6.767   3.316
22344W        W94769   7.235  17.576  10.764
22345W        W94770   4.535  20.056   4.126
22346W        W94771  36.084  39.685   4.179
22347W        W94772   0.345  38.380   2.824
22348W        W94773  38.144   6.365   3.089
22349W        W94774  38.159  11.766  10.211
22350W        W94775  26.380  13.807   3.502
22351W        W94776  18.391  25.132   3.250
22352W        W94777   3.524  35.068   1.286
22353W        W94778  35.076  19.350   4.293
22354W        W94779  42.299  19.731  11.676
22355W        W94780  31.471  16.777   0.344
22356W        W94781   0.251  15.765  11.280
22357W        W94782  17.174  30.050  11.040
22358W        W94783  41.275  14.714  12.890
22359W        W94784  36.675  44.724  13.888
22360W        W94785  22.199  38.991  12.770
22361W        W94786   1.820   4.480  13.486
22362W        W94787  19.677  28.698  10.652
22363W        W94788  25.534  40.355  12.597
22364W        W94789  27.306  27.979  13.846
22365W        W94790  29.655  31.812  10.091
22366W        W94791  40.672  15.500   4.298
22367W        W94792  38.093  25.751  10.324
22368W        W94793  26.548  15.885   2.442
22369W        W94794  20.009  40.385  13.544
22370W        W94795  25.758   7.288   1.134
22371W        W94796  12.576  37.375  13.996
22372W        W94797   2.006  31.356   3.634
22373W        W94798  29.540   0.935  11.570
22374W        W94799   5.317  26.399  14.080
22375W        W94800   9.818  30.715   3.841
22376W        W94801  29.303  43.306   2.463
22377W        W94802   9.568  17.133   4.527
22378W        W94803  44.362  34.404  12.767
22379W        W94804  29.633  12.055   3.642
22380W        W94805  23.376  29.167   1.334
22381W        W94806  33.071  42.604  14.402
22382W        W94807   7.033  39.791   3.158
22383W        W94808  34.159  37.406  14.472
22384W        W94809  40.660  26.119   1.222
22385W        W94810  19.200  16.857  14.477
22386W        W94811  41.483  29.846  14.581
22387W        W94812   6.928  33.136   0.581
22388W        W94813  22.215   1.261  10.664
22389W        W94814  11.299   1.532  11.142
22390W        W94815  21.026  35.985  14.051
22391W        W94816  44.285  38.932   3.331
22392W        W94817  27.556  42.909   1.812
22393W        W94818  43.359  42.529   3.164
22394W        W94819  24.537   4.277   3.637
22395W        W94820   5.838  29.287  12.033
22396W        W94821  11.330  32.622   4.764
22397W        W94822  40.845   8.854   0.781
22398W        W94823  43.748  38.071   0.449
22399W        W94824  17.212  44.232  10.206
22400W        W94825  19.844  43.910  10.778
22401W        W94826  14.627  38.477   4.984
22402W        W94827   0.745  13.072   1.917
22403W        W94828   3.482  14.072   0.914
22404W        W94829  15.181  25.705   4.157
22405W        W94830  32.640  13.801   2.447
22406W        W94831  16.289  30.491   2.165
22407W        W94832  21.676   3.396   3.286
22408W        W94833  37.967   1.434  11.970
22409W        W94834  33.569  25.978   1.251
22410W        W94835   5.556  22.252   1.439
22411W        W94836   0.881  31.885  12.913
22412W        W94837  35.926   1.675   0.845
22413W        W94838  24.649  34.789   1.949
22414W        W94839  44.866  39.885   0.954
22415W        W94840  30.590  17.598  12.870
22416W        W94841  21.572  22.497  11.530
22417W        W94842  14.558  12.169  14.457
22418W        W94843   8.345  42.921   1.294
22419W        W94844  18.374   6.348  13.391
22420W        W94845   0.435   5.938  10.676
22421W        W94846   6.423  35.533  10.839
22422W        W94847   7.357  14.253  12.055
22423W        W94848  41.219   7.699  13.957
22424W        W94849  12.936  26.252  10.689
22425W        W94850  32.199  14.290  13.785
22426W        W94851  40.659  19.579  14.510
22427W        W94852  39.282  36.995   4.111
22428W        W94853   8.135  38.833   3.980
22429W        W94854  13.189   4.295   0.791
22430W        W94855  37.373  15.027  11.744
22431W        W94856  35.395  22.093   3.402
22432W        W94857  30.910  13.218   0.703
22433W        W94858  17.058  30.500  11.262
22434W        W94859  33.397  14.048   4.061
22435W        W94860   0.315  22.521   2.173
22436W        W94861  44.851   6.961  13.256
22437W        W94862  28.704  10.224  14.096
22438W        W94863  33.137  11.354   4.133
22439W        W94864   7.014  27.107  14.008
22440W        W94865  28.059   8.420  10.590
22441W        W94866  10.723  11.169  13.730
22442W        W94867  24.500  44.852   4.584
22443W        W94868  31.507  18.976   3.839
22444W        W94869  21.964  19.120  12.523
22445W        W94870  15.642  19.027  11.548
22446W        W94871   2.885  34.981   2.525
22447W        W94872   9.908  42.369  10.893
22448W        W94873   5.187  35.670   4.252
22449W        W94874  23.495  41.014  13.584
22450W        W94875   3.472  33.510  11.559
22451W        W94876  29.577  22.101  10.997
22452W        W94877  33.170  14.529   1.406
22453W        W94878  43.097  32.447  14.284
22454W        W94879   5.285  41.328   3.466
22455W        W94880  15.127  33.613   4.485
22456W        W94881  25.092  11.982   0.324
22457W        W94882  20.875   3.274   1.758
22458W        W94883  44.996   3.770  14.460
22459W        W94884   0.219  19.323  14.329
22460W        W94885   9.317   0.790   1.741
22461W        W94886  16.309  35.373  10.634
22462W        W94887  39.116  41.659  13.067
22463W        W94888   7.832  44.789  11.457
22464W        W94889   4.034  40.284  11.730
22465W        W94890  23.357  11.048   5.365
22466W        W94891   5.636  25.134   4.850
22467W        W94892  11.741   5.925   3.853
22468W        W94893  29.734   2.429   0.261
22469W        W94894  25.877  23.406   4.627
22470W        W94895  35.125  13.680  11.179
22471W        W94896  24.046   9.379  13.402
22472W        W94897   7.915  33.856  10.708
22473W        W94898  44.649  34.582  13.246
22474W        W94899  44.060  25.500  11.770
22475W        W94900  15.627  12.735  10.792
22476W        W94901  42.826   6.440   1.198
22477W        W94902   6.290  21.123   0.750
22478W        W94903   9.664   0.980  12.442
22479W        W94904  11.850  32.640   4.041
22480W        W94905  34.192  41.762   1.104
22481W        W94906  17.574  11.660   0.287
22482W        W94907  36.600  37.797   4.435
22483W        W94908  21.704  14.640   3.386
22484W        W94909   5.312  38.578   1.938
22485W        W94910  13.215  19.760  12.892
22486W        W94911   0.171  31.987  13.289
22487W        W94912  33.527  26.115   1.772
22488W        W94913  13.348  40.833   3.227
22489W        W94914  25.262  43.031   4.669
22490W        W94915  26.635   3.741   0.823
22491W        W94916  17.766  11.279  10.721
22492W        W94917  40.832  29.521  11.911
22493W        W94918  29.631  28.238  11.559
22494W        W94919  41.950  22.615  12.071
22495W        W94920  14.209   7.902   2.875
22496W        W94921  32.876  27.770   0.618
22497W        W94922  15.353   3.474  12.082
22498W        W94923  14.733  19.047  11.482
22499W        W94924  14.782  14.274   3.660
22500W        W94925  13.981  22.505   3.630
22501W        W94926  41.874  43.332  11.534
22502W        W94927  17.353  30.147  11.516
22503W        W94928  33.408  42.691  10.907
22504W        W94929   0.239   7.886  10.711
22505W        W94930   8.990  25.350   5.087
22506W        W94931  25.588  43.403   1.762
22507W        W94932  12.675   5.350   4.607
22508W        W94933  12.149  15.273   1.701
22509W        W94934  13.931  14.797   3.857
22510W        W94935  33.004   6.172   2.852
22511W        W94936   6.464  44.280  14.056
22512W        W94937  12.718  37.584  11.647
22513W        W94938   2.897  23.852   1.275
22514W        W94939  25.159   8.101   2.439
22515W        W94940  19.683  19.938  11.900
22516W        W94941  25.395  12.161  14.381
22517W        W94942  32.080  16.010  11.968
22518W        W94943  41.844  15.339   1.388
22519W        W94944  11.395  17.865   1.734
22520W        W94945  17.130  21.523  10.971
22521W        W94946  15.781  20.691   3.808
22522W        W94947  27.011  13.078   4.060
22523W        W94948  24.182   1.807   1.266
22524W        W94949   6.232  19.177   2.300
22525W        W94950   5.275  21.879  14.267
22526W        W94951  29.259  42.889   5.168
22527W        W94952  21.651  23.973   0.930
22528W        W94953   3.853  35.330  12.702
22529W        W94954   4.425  12.317  10.666
22530W        W94955  42.200   5.286  13.753
22531W        W94956  11.074  14.132   3.760
22532W        W94957   2.346  20.642   1.364
22533W        W94958   7.429  38.680  11.633
22534W        W94959  13.294  36.161  11.866
22535W        W94960  43.356   0.974  12.031
22536W        W94961  33.541  11.051  12.773
22537W        W94962  15.280   3.902  11.176
22538W        W94963  27.587   2.095  13.807
22539W        W94964  18.296  43.777   2.020
22540W        W94965   2.843   0.237   0.031
22541W        W94966  20.381  40.591   4.100
22542W        W94967  40.865  44.317  11.206
22543W        W94968  13.169  40.825  13.072
22544W        W94969  25.982  32.654  13.390
22545W        W94970  17.602  44.910   0.872
22546W        W94971   3.876  18.104  11.247
22547W        W94972   5.176  12.190  14.919
22548W        W94973  22.760  16.079   0.667
22549W        W94974  43.136   4.152   2.736
22550W        W94975  36.461  16.339  14.349
22551W        W94976  42.362  29.384  10.897
22552W        W94977  32.401   0.272   1.463
22553W        W94978  42.846  13.680  13.589
22554W        W94979  16.677  27.696  12.610
22555W        W94980  32.914   1.689  14.468
22556W        W94981  23.066  43.785  12.335
22557W        W94982  30.210  24.488  12.361
22558W        W94983  34.156  44.565   0.022
22559W        W94984  16.104  26.057   1.445
22560W        W94985  34.571   8.201   2.902
22561W        W94986   1.873  21.062  12.497
22562W        W94987  14.518  12.706  12.284
22563W        W94988   0.866  11.705   1.518
22564W        W94989  21.223   0.341   4.102
22565W        W94990  25.146   6.492   0.750
22566W        W94991  21.541  19.119   2.426
22567W        W94992  21.184  13.183   1.698
22568W        W94993  43.413  19.790   0.094
22569W        W94994   1.301  44.260   0.639
22570W        W94995   7.798  26.624  12.809
22571W        W94996  19.216  34.996   4.353
22572W        W94997   5.730   4.414   3.321
22573W        W94998   7.633  18.864   2.463
22574W        W94999   8.631  31.280  14.900
22575W        W95000  17.780  22.689   3.684
22576W        W95001  13.814  26.659  12.887
22577W        W95002  30.458  38.832  11.523
22578W        W95003   1.101   9.586  12.623
22579W        W95004  36.620  18.648   0.241
22580W        W95005  27.906  33.295   2.296
22581W        W95006  32.086  36.606  11.280
22582W        W95007  36.087  29.432  13.924
22583W        W95008  29.434  40.690  12.255
22584W        W95009  38.569  10.266  11.901
22585W        W95010   5.953  15.216   3.367
22586W        W95011  43.083  28.719   0.909
22587W        W95012  20.135  42.852   0.686
22588W        W95013   9.616  22.204   3.382
22589W        W95014  17.767  24.720   4.070
22590W        W95015  44.243  21.095   2.170
22591W        W95016  42.295   6.419  11.544
22592W        W95017  19.244   4.902   2.678
22593W        W95018  13.332  37.299  14.476
22594W        W95019  19.938   2.133   4.852
22595W        W95020  42.741  43.383  14.955
22596W        W95021  18.538   9.783  14.293
22597W        W95022  11.717  40.095  12.919
22598W        W95023   8.200  42.345  13.785
22599W        W95024  19.623  40.412  11.290
22600W        W95025  20.657  43.929  13.118
22601W        W95026  27.410  30.240   2.790
22602W        W95027   9.297   6.356   9.797
22603W        W95028  20.557  23.612  11.994
22604W        W95029  24.808  38.423   1.333
22605W        W95030  12.915  10.372   1.225
22606W        W95031   6.406  26.516   2.579
22607W        W95032  43.416  34.813  11.211
22608W        W95033  26.475   3.870   3.102
22609W        W95034  15.654  44.233   1.137
22610W        W95035  44.781  29.678   0.292
22611W        W95036  14.660  33.848   1.834
22612W        W95037   0.882  40.147   1.204
22613W        W95038  22.970   9.641  11.026
22614W        W95039   5.365  13.067  12.256
22615W        W95040  23.034  42.392   4.763
22616W        W95041   4.277  20.375   4.442
22617W        W95042   6.503  32.965   4.848
22618W        W95043  42.325  30.394  13.919
22619W        W95044  14.566  31.076   2.300
22620W        W95045   6.376  36.987   2.983
22621W        W95046  40.779   8.054   0.422
22622W        W95047   9.744  42.835  10.724
22623W        W95048   4.107  15.565   3.518
22624W        W95049  26.008   6.138   2.909
22625W        W95050  17.739  36.647  12.035
22626W        W95051   1.831  19.331   3.719
22627W        W95052  33.730  33.092  14.931
22628W        W95053  38.907  25.839   1.731
22629W        W95054  31.070  20.483  13.810
22630W        W95055  37.034  17.214  11.631
22631W        W95056  43.153  16.585  12.148
22632W        W95057  32.471  29.267  12.328
22633W        W95058  31.402   9.769  13.836
22634W        W95059  43.451  26.886   0.135
22635W        W95060  26.231  26.207   5.140
22636W        W95061  29.147  21.236  11.055
22637W        W95062  23.553   6.040   1.311
22638W        W95063  43.118  31.031  11.219
22639W        W95064  40.261   0.056   5.061
22640W        W95065   7.289  10.166  13.966
22641W        W95066  26.065  24.676   1.331
22642W        W95067   1.943  29.137   3.663
22643W        W95068  30.510   2.829  12.892
22644W        W95069   3.972  21.005   0.547
22645W        W95070  28.439  18.531   0.524
22646W        W95071  34.315  35.037  11.068
22647W        W95072   0.969  41.483  14.458
22648W        W95073  43.559  31.561   3.657
22649W        W95074   7.341   2.411  11.266
22650W        W95075  16.814   3.807   1.972
22651W        W95076  22.667  22.983  12.995
22652W        W95077  42.923   5.945  10.873
22653W        W95078  43.358  28.395   2.865
22654W        W95079  29.945  22.258  13.100
22655W        W95080  21.789  34.155  11.956
22656W        W95081  36.353  19.430   1.390
22657W        W95082  41.372   0.786  11.003
22658W        W95083  13.225  27.580  14.311
22659W        W95084  36.123  11.281   0.750
22660W        W95085  38.795   9.201  13.997
22661W        W95086   0.088  31.310  13.838
22662W        W95087  38.273   6.174  14.158
22663W        W95088  23.044  30.877  12.401
22664W        W95089   7.165  36.474   3.665
22665W        W95090  28.461   9.889  14.409
22666W        W95091  27.603  10.370   2.784
22667W        W95092  13.122  10.194   0.262
22668W        W95093   1.833  29.536  11.679
22669W        W95094  25.949  17.221   2.379
22670W        W95095  38.567  17.360  10.829
22671W        W95096  28.346  17.558  12.497
22672W        W95097  20.680  25.422  12.339
22673W        W95098  13.296  10.646  12.864
22674W        W95099  29.207   2.749  14.829
22675W        W95100   1.531  22.011  12.658
22676W        W95101  42.339  28.467   3.725
22677W        W95102  25.096   2.206  12.152
22678W        W95103   9.874  36.468  10.602
22679W        W95104  32.674  30.293  10.971
22680W        W95105  19.672  33.410  13.466
22681W        W95106  14.314  25.537  10.838
22682W        W95107   9.810   1.668   0.290
22683W        W95108   9.937  18.708   1.355
22684W        W95109  21.033   7.206   4.672
22685W        W95110  28.271   2.621   1.410
22686W        W95111  12.212  13.326   2.411
22687W        W95112   7.154  38.878  10.605
22688W        W95113  16.745  10.416   1.437
22689W        W95114   1.404  33.529  14.265
22690W        W95115  11.237  34.554  13.802
22691W        W95116   9.900  39.907  11.647
22692W        W95117  10.342  27.388  14.180
22693W        W95118   1.908   1.416   3.633
22694W        W95119   2.346   7.334   1.352
22695W        W95120  11.567   9.503  10.944
22696W        W95121  41.846  40.252  14.870
22697W        W95122  38.960  18.298   0.466
22698W        W95123   2.269   4.658   3.782
22699W        W95124  27.273  42.407  12.047
22700W        W95125  28.255  41.255   2.774
22701W        W95126  15.758  27.700   0.412
22702W        W95127  29.229  29.558  13.824
22703W        W95128  12.117  17.341  10.428
22704W        W95129  20.511  25.116  11.035
22705W        W95130  11.705   1.434  13.267
22706W        W95131  43.254  31.417  14.788
22707W        W95132  38.774   6.717   0.574
22708W        W95133  19.738  39.767  12.119
22709W        W95134   7.711  11.777   1.445
22710W        W95135  19.042  42.534   3.386
22711W        W95136  17.263  24.559   0.908
22712W        W95137   3.945  29.131   4.557
22713W        W95138  10.759  19.204   0.996
22714W        W95139  14.258  30.620  12.003
22715W        W95140   8.402  35.535  13.829
22716W        W95141  12.796  38.974   3.101
22717W        W95142  28.052  28.171  12.347
22718W        W95143  33.380  11.156  10.516
22719W        W95144   8.906  12.368  11.074
22720W        W95145  36.609  38.623   0.013
22721W        W95146   4.898  39.421   2.741
22722W        W95147   6.024  26.490   1.644
22723W        W95148  36.101  34.151   2.217
22724W        W95149  25.556  16.485  14.707
22725W        W95150  43.956  30.567  13.070
22726W        W95151  12.147  38.419   2.794
22727W        W95152  34.518  22.091   0.921
22728W        W95153   8.817  31.843  13.426
22729W        W95154  35.009  33.491   4.619
22730W        W95155  17.214   4.278   0.844
22731W        W95156  24.473  28.983   0.217
22732W        W95157  20.392   8.819   9.977
22733W        W95158   5.626  22.919  12.920
22734W        W95159  12.714  31.194   2.234
22735W        W95160  44.374   8.129  13.518
22736W        W95161  37.123  27.624   1.567
22737W        W95162   8.214  32.047   2.690
22738W        W95163  23.492  22.385   1.741
22739W        W95164  33.049   5.151   4.502
22740W        W95165  42.421  32.434   1.361
22741W        W95166   1.002  13.653   3.367
22742W        W95167  38.310  41.008   3.223
22743W        W95168  18.979  27.395   4.089
22744W        W95169  19.855  18.184   0.717
22745W        W95170  15.210  41.431  14.962
22746W        W95171   2.580  23.546  13.459
22747W        W95172  29.673  31.945  12.391
22748W        W95173   7.227   6.981   0.671
22749W        W95174  12.826  13.833   0.385
22750W        W95175  42.518  13.214   1.867
22751W        W95176  13.863   8.907  11.659
22752W        W95177  43.406   3.077  13.831
22753W        W95178  43.858  14.528   4.680
22754W        W95179  11.457  43.344   9.982
22755W        W95180   2.758  15.754   0.752
22756W        W95181   8.797   9.555   5.342
22757W        W95182  40.390   5.440   1.285
22758W        W95183  38.280  13.235  14.885
22759W        W95184  16.644  15.110  14.678
22760W        W95185   3.970  18.059   1.760
22761W        W95186  38.082  20.273   2.805
22762W        W95187  21.252   7.309   2.882
22763W        W95188   7.829   3.935   1.995
22764W        W95189  41.987   4.884   1.432
22765W        W95190  24.195  23.401  14.153
22766W        W95191  12.666  20.667  12.869
22767W        W95192  19.567  12.931   0.751
22768W        W95193  22.327  15.717   5.032
22769W        W95194   0.526  30.866  11.178
22770W        W95195  18.795  38.705  10.421
22771W        W95196  39.928  44.912  14.409
22772W        W95197  36.831   0.550   2.044
22773W        W95198  17.261  26.165  11.167
22774W        W95199  22.305   4.568   3.167
22775W        W95200  40.069   2.251   1.374
22776W        W95201   5.388  25.476   2.830
22777W        W95202   6.454  10.373   4.084
22778W        W95203  23.646  44.525  11.122
22779W        W95204  40.382   8.733   3.172
22780W        W95205  39.892  10.792  13.517
22781W        W95206  12.088   8.822   1.826
22782W        W95207  27.493  36.300   2.886
22783W        W95208  19.632  26.480  11.362
22784W        W95209  18.843  35.474  12.902
22785W        W95210  42.737  40.559  10.682
22786W        W95211  10.071   5.195   0.824
22787W        W95212  41.369  29.686  11.673
22788W        W95213  36.342   8.776   4.660
22789W        W95214  41.753  13.707   3.276
22790W        W95215  42.585  31.012   2.949
22791W        W95216   1.200  19.594   2.293
22792W        W95217  16.117  39.861  11.653
22793W        W95218  29.755   4.483  11.154
22794W        W95219  41.897  35.565  10.299
22795W        W95220  25.488  29.052  13.816
22796W        W95221  31.504  35.557   3.871
22797W        W95222  18.081  31.002  13.095
22798W        W95223  33.591  34.073   0.768
22799W        W95224  11.884  14.069  11.600
22800W        W95225  11.522  39.321   0.931
22801W        W95226  22.508   2.685   2.595
22802W        W95227  11.038  18.114  12.120
22803W        W95228  14.778  44.699  11.599
22804W        W95229  12.820  22.311  10.968
22805W        W95230  40.866   6.400  12.467
22806W        W95231  42.513  23.920   3.713
22807W        W95232  19.485  15.824  11.708
22808W        W95233   3.765  33.493  10.168
22809W        W95234  19.641  37.274  14.429
22810W        W95235  44.335  16.148   3.341
22811W        W95236  14.806  23.579   3.220
22812W        W95237   0.897  23.092   3.879
22813W        W95238  36.372  19.832  12.619
22814W        W95239   7.939  22.362  13.527
22815W        W95240  11.043   0.513  11.249
22816W        W95241  25.216  43.018  11.630
22817W        W95242  25.640  12.418  11.332
22818W        W95243  31.350   4.764  14.564
22819W        W95244  16.586  39.438  13.018
22820W        W95245  14.618   2.596   2.944
22821W        W95246  34.458  19.401   1.198
22822W        W95247  32.235  26.253  12.045
22823W        W95248  34.639  14.364   0.215
22824W        W95249  40.722   7.723  13.992
22825W        W95250   8.254  28.552   3.200
22826W        W95251   7.716  13.399   3.263
22827W        W95252   4.161  22.022  12.108
22828W        W95253   2.970  36.217  13.154
22829W        W95254  10.592  33.000  12.380
22830W        W95255  43.605   8.249   1.973
22831W        W95256  16.637  29.547   1.500
22832W        W95257   3.932   4.682   4.153
22833W        W95258   6.872  42.936   0.796
22834W        W95259  29.387  43.268   0.468
22835W        W95260  42.765  43.295  11.730
22836W        W95261  23.157   7.425   1.458
22837W        W95262  19.839  35.938  11.452
22838W        W95263  25.586  21.099  10.372
22839W        W95264   8.671  10.629  14.925
22840W        W95265   0.300  15.327  11.534
22841W        W95266  37.484  25.199  13.018
22842W        W95267   0.960  35.424   1.444
22843W        W95268   5.373  29.629   3.874
22844W        W95269   5.394  41.271  10.759
22845W        W95270  23.616  25.815   1.920
22846W        W95271  28.438  43.057   2.841
22847W        W95272  24.016  43.698  11.362
22848W        W95273   4.911  31.432   3.296
22849W        W95274   7.181  31.042  13.972
22850W        W95275   1.968  17.079  13.019
22851W        W95276   5.525  22.992  10.568
22852W        W95277  12.442  38.049   4.608
22853W        W95278   8.774  10.621  13.983
22854W        W95279   8.796  36.681   3.730
22855W        W95280  13.705  38.958   0.384
22856W        W95281  18.835  28.248  13.895
22857W        W95282  23.933  19.247   1.433
22858W        W95283  36.585  39.430  13.416
22859W        W95284  34.693  37.875   1.231
22860W        W95285  42.806  35.824  14.581
22861W        W95286   6.712  10.344  14.371
22862W        W95287  33.558  41.575   0.464
22863W        W95288  33.994  15.395   4.011
22864W        W95289  42.358  15.607  10.746
22865W        W95290   7.272  19.745  13.773
22866W        W95291  10.091  40.951   1.747
22867W        W95292   1.411  30.104  10.619
22868W        W95293  30.451  18.528   0.752
22869W        W95294   1.421  11.286  11.934
22870W        W95295  10.671   9.193  10.997
22871W        W95296   8.774   2.707   0.362
22872W        W95297  29.490  25.785   0.841
22873W        W95298  38.122  16.745  10.763
22874W        W95299   7.796  27.904   0.825
22875W        W95300  20.833  26.284  10.440
22876W        W95301   7.869  27.541  11.150
22877W        W95302  12.666  17.025  11.111
22878W        W95303  16.028  38.969   0.288
22879W        W95304   9.965  39.972   2.350
22880W        W95305  32.072   8.817   0.901
22881W        W95306  42.691  24.446  13.552
22882W        W95307  40.223  28.105  12.987
22883W        W95308  26.066  12.518   3.159
22884W        W95309   2.831  21.288  13.240
22885W        W95310  34.654  43.736  12.037
22886W        W95311   0.403  27.897   2.659
22887W        W95312  25.566   9.207  12.485
22888W        W95313  34.572  34.369  13.265
22889W        W95314  16.076  14.982   3.259
22890W        W95315   4.409  41.463  12.864
22891W        W95316  29.896  14.274  14.492
22892W        W95317  29.698  35.974   2.729
22893W        W95318  11.526  20.676   0.702
22894W        W95319  18.336  29.780  10.767
22895W        W95320  16.618  20.011  11.541
22896W        W95321   9.240  26.568  14.028
22897W        W95322  17.849  29.447  11.625
22898W        W95323  40.831   2.129  14.279
22899W        W95324  40.829  18.320   4.109
22900W        W95325  30.537  44.725   1.702
22901W        W95326  23.487   6.222  13.311
22902W        W95327   2.210   6.291   2.321
22903W        W95328  44.456  14.667   0.448
22904W        W95329   3.259  33.052  11.419
22905W        W95330  44.417  28.876   0.245
22906W        W95331   5.901  23.636   3.699
22907W        W95332  13.738  17.390   3.193
22908W        W95333  21.823  35.949   5.054
22909W        W95334  42.994  17.526  11.146
22910W        W95335  18.608  26.561   2.607
22911W        W95336   1.462  29.676  14.460
22912W        W95337  13.370   3.015  14.416
22913W        W95338   2.719  11.042   3.811
22914W        W95339  13.802   3.720  13.281
22915W        W95340  35.503  37.918  14.246
22916W        W95341   1.277  42.406   4.481
22917W        W95342  33.675   7.881   1.750
22918W        W95343   3.794  39.599  14.948
22919W        W95344  39.350  34.557   0.370
22920W        W95345  26.965  21.096   3.238
22921W        W95346  15.232  44.701  11.986
22922W        W95347   2.165  44.809  14.399
22923W        W95348  33.084   3.305   0.914
22924W        W95349  29.551  32.545   1.443
22925W        W95350  34.998  21.470   3.243
22926W        W95351  29.860  18.275  11.036
22927W        W95352  29.948   4.896  13.894
22928W        W95353  24.155  19.588  10.626
22929W        W95354  31.715  26.221  12.059
22930W        W95355   7.840  22.872  13.570
22931W        W95356   5.682  32.492  13.921
22932W        W95357  37.897  40.776  11.730
22933W        W95358   2.670   8.772   2.772
22934W        W95359   5.747   1.379   0.652
22935W        W95360  20.962  32.536  13.984
22936W        W95361  33.888  36.975  11.998
22937W        W95362  26.158  19.502   3.578
22938W        W95363   7.299  23.392  12.572
22939W        W95364  26.766  12.155   0.689
22940W        W95365   8.052  13.201   1.315
22941W        W95366  19.788  44.240  10.364
22942W        W95367  40.354  41.080   4.847
22943W        W95368  24.407   1.500  10.369
22944W        W95369  17.803  16.460   2.426
22945W        W95370  43.917  42.972   1.909
22946W        W95371  10.050  38.493  14.281
22947W        W95372   8.899  37.900  11.916
22948W        W95373   0.619  10.896   4.653
22949W        W95374  42.707  38.636  11.505
22950W        W95375  28.083  42.336  10.706
22951W        W95376  18.375   2.227   5.423
22952W        W95377   3.029   8.260   4.882
22953W        W95378  10.275  37.032  14.330
22954W        W95379  43.068  43.943  13.036
22955W        W95380   8.707  22.599   3.755
22956W        W95381   4.357  35.971   4.161
22957W        W95382  17.077  23.113  12.441
22958W        W95383   9.164  26.941  12.269
22959W        W95384  15.243  38.649  14.021
22960W        W95385  16.632  21.598   1.785
22961W        W95386  35.069   8.319   0.775
22962W        W95387  19.145  40.367   3.140
22963W        W95388  43.050   2.178  11.261
22964W        W95389  23.533   9.817   0.258
22965W        W95390  15.541   9.015   5.080
22966W        W95391  38.659  32.040  12.127
22967W        W95392  34.474  14.403   1.535
22968W        W95393  42.174  19.885   4.667
22969W        W95394  44.055  12.394  11.076
22970W        W95395  21.556  38.112   3.221
22971W        W95396   7.601  22.816   2.839
22972W        W95397  14.183  11.754  14.571
22973W        W95398  10.662  11.748   4.433
22974W        W95399  34.516  28.958   3.830
22975W        W95400   2.237  32.189   0.860
22976W        W95401  32.781  23.648   4.770
22977W        W95402  44.853  16.647  13.397
22978W        W95403  31.455  17.125  11.505
22979W        W95404  25.098  24.340   1.378
22980W        W95405  24.133  40.429   0.700
22981W        W95406  34.300  20.554  10.937
22982W        W95407   8.791  23.451   4.393
22983W        W95408  26.923   0.921  10.581
22984W        W95409  27.109  41.923   0.805
22985W        W95410  19.091   2.298   3.804
22986W        W95411  14.101   4.787  10.696
22987W        W95412  12.747  44.052   1.291
22988W        W95413  29.715  39.967  12.321
22989W        W95414  18.119   0.310  12.249
22990W        W95415  28.971  16.152   0.769
22991W        W95416  42.022  41.727  13.051
22992W        W95417   0.594   3.045  11.033
22993W        W95418  15.909   7.465   0.895
22994W        W95419  30.584  21.488  12.457
22995W        W95420  26.635  20.245   3.055
22996W        W95421   4.966  32.033   0.836
22997W        W95422  15.120  35.158   4.963
22998W        W95423  36.657  33.724   3.054
22999W        W95424  39.792  21.043  10.897
23000W        W95425  42.701  31.074   1.799
23001W        W95426   9.725  27.581   4.597
23002W        W95427  35.048   0.866   0.677
23003W        W95428   1.982  13.283  12.527
23004W        W95429   9.388  34.132  14.445
23005W        W95430  20.533  35.105  11.918
23006W        W95431   8.983  26.585  11.059
23007W        W95432   9.724   0.763  13.896
23008W        W95433  12.681  29.715   3.036
23009W        W95434   6.701  38.001   4.092
23010W        W95435  32.538  38.997   4.013
23011W        W95436  37.863  13.859  14.869
23012W        W95437   0.590  39.771  12.004
23013W        W95438   7.793  31.640   4.543
23014W        W95439  11.043   4.253   3.607
23015W        W95440  42.594   9.661  12.931
23016W        W95441  34.000  18.861  11.088
23017W        W95442  42.527  43.198  14.426
23018W        W95443  36.976  22.369   2.800
23019W        W95444  44.029  15.544   1.313
23020W        W95445  19.493  25.930  13.606
23021W        W95446  28.409  40.130  10.696
23022W        W95447   7.029  38.220   1.367
23023W        W95448  32.502  37.114  11.953
23024W        W95449  36.806  35.025  12.944
23025W        W95450  23.454  44.305  11.541
23026W        W95451  11.184  31.896  11.104
23027W        W95452   5.061  26.284  13.061
23028W        W95453  24.421   7.725  11.934
23029W        W95454  30.514  33.027  11.436
23030W        W95455  25.821   4.311  11.755
23031W        W95456   0.403  42.988  11.568
23032W        W95457  32.053  34.191   1.270
23033W        W95458  31.015  25.631   3.910
23034W        W95459   9.095  39.312  12.554
23035W        W95460  40.641  15.059  11.163
23036W        W95461   8.806   8.544   9.643
23037W        W95462  17.112   2.848   3.599
23038W        W95463   4.474  18.663   3.490
23039W        W95464   9.154  26.117   2.621
23040W        W95465  25.500  33.131  12.780
23041W        W95466   3.491  14.865  12.997
23042W        W95467   1.912  31.501  12.371
23043W        W95468  26.913   9.235  11.172
23044W        W95469  23.948  33.309   3.327
23045W        W95470  19.875  33.295   2.671
23046W        W95471   9.311  32.499   4.446
23047W        W95472   7.745  30.825  14.845
23048W        W95473  18.832  17.353   1.778
23049W        W95474  19.668  15.676   0.331
23050W        W95475  30.408  36.904   0.682
23051W        W95476  38.940  30.991   3.324
23052W        W95477  17.599   4.032   3.758
23053W        W95478  29.855  24.402   1.696
23054W        W95479  25.285  19.696  14.294
23055W        W95480  38.939  14.410   0.507
23056W        W95481  37.393  44.732  14.007
23057W        W95482   1.433  12.910   3.331
23058W        W95483  38.628  38.865   2.250
23059W        W95484  35.773  34.455  12.559
23060W        W95485  39.591  34.413   4.074
23061W        W95486  10.324  18.832   2.151
23062W        W95487  26.488  26.127   0.956
23063W        W95488  35.132  35.771   4.169
23064W        W95489  17.259   0.265   0.091
23065W        W95490  42.309  40.905  12.914
23066W        W95491  27.660  25.688  12.989
23067W        W95492  19.472  16.613  11.724
23068W        W95493  22.526  43.594   0.992
23069W        W95494  42.295  22.597   1.571
23070W        W95495  18.313  43.935  12.038
23071W        W95496  17.583  25.297  12.624
23072W        W95497   1.821  42.822   3.178
23073W        W95498   2.959  44.035  11.154
23074W        W95499   8.723  16.778   4.094
23075W        W95500  19.627  33.485   0.752
23076W        W95501  17.085  21.140   4.263
23077W        W95502  30.096  13.157  10.709
23078W        W95503  40.631  41.781  10.515
23079W        W95504   2.142  44.976  12.680
23080W        W95505  40.585  43.241  12.489
23081W        W95506  25.463  43.923  11.126
23082W        W95507   7.774  19.610  11.599
23083W        W95508  22.999  19.807   0.186
23084W        W95509  42.742  22.199  14.256
23085W        W95510  40.877  30.907  11.803
23086W        W95511  18.625  33.971  12.686
23087W        W95512  23.249  42.014  11.343
23088W        W95513  31.206  10.451   0.259
23089W        W95514  34.700  23.525  10.289
23090W        W95515  43.045  43.807  14.891
23091W        W95516  13.332  11.333   1.223
23092W        W95517  33.340  17.298  13.425
23093W        W95518  25.595   1.976  13.056
23094W        W95519  13.647  34.794   3.214
23095W        W95520  14.375  30.139  10.762
23096W        W95521  31.358  28.415   4.669
23097W        W95522  12.858  14.694   2.105
23098W        W95523  41.483  38.418   1.714
23099W        W95524  33.916  41.418  10.629
23100W        W95525  33.388   0.608  12.054
23101W        W95526  14.710  22.787  14.126
23102W        W95527   9.130  37.630  14.214
23103W        W95528   0.433  32.537  14.535
23104W        W95529  28.031  21.853  13.968
23105W        W95530  17.254  40.072   0.905
23106W        W95531  31.371  21.420   0.742
23107W        W95532  12.832  22.175   1.360
23108W        W95533  10.701  28.049   4.086
23109W        W95534  24.152  10.321   4.428
23110W        W95535  12.014  18.116   2.329
23111W        W95536  29.852  20.064   2.739
23112W        W95537  37.308  17.562  13.331
23113W        W95538  10.107  40.006  13.021
23114W        W95539   2.513   7.654   3.219
23115W        W95540   4.522  32.427  14.783
23116W        W95541  24.872  39.668  11.672
23117W        W95542  41.175  40.878   4.077
23118W        W95543   3.429  16.377  14.062
23119W        W95544  12.327   1.132  14.517
23120W        W95545  34.579  31.619   4.654
23121W        W95546  25.186  41.194   3.595
23122W        W95547  15.307  32.540  14.189
23123W        W95548  28.033  16.740   1.563
23124W        W95549  17.432  28.120  12.677
23125W        W95550  34.989  29.137   1.076
23126W        W95551  34.023  38.858  14.086
23127W        W95552   0.905  30.439   1.771
23128W        W95553   5.155  40.067  10.727
23129W        W95554  24.447  23.800  11.184
23130W        W95555   5.615  21.756  11.092
23131W        W95556  17.678  12.381  10.660
23132W        W95557  41.742  30.970  11.634
23133W        W95558  17.623   3.014  10.887
23134W        W95559  27.236   0.809  11.904
23135W        W95560  16.324   0.352  14.812
23136W        W95561  40.016  37.773   2.648
23137W        W95562  37.764  10.375   3.620
23138W        W95563  23.493  44.161   4.741
23139W        W95564  21.539  15.976  13.944
23140W        W95565  10.167  16.160   2.602
23141W        W95566  43.898  43.496  10.582
23142W        W95567  42.435   7.416   0.009
23143W        W95568   6.852  40.866  12.777
23144W        W95569  12.072  22.290   5.012
23145W        W95570  26.105  18.463   3.690
23146W        W95571   1.381  18.025   3.698
23147W        W95572  44.832  39.977  11.639
23148W        W95573  32.975  26.189  13.912
23149W        W95574  34.572   8.827   0.328
23150W        W95575  11.944   7.552   0.024
23151W        W95576  19.792  23.397   1.632
23152W        W95577  40.833  28.532  10.623
23153W        W95578  24.190  17.334   4.979
23154W        W95579  19.162   2.310   2.254
23155W        W95580  18.102  33.387   0.200
23156W        W95581   7.024  16.329  14.808
23157W        W95582  39.808   7.808   4.261
23158W        W95583  14.634   2.811  11.861
23159W        W95584  25.194  39.106  12.135
23160W        W95585  32.613  25.135  14.606
23161W        W95586  43.057  10.213   0.752
23162W        W95587  24.066  19.727   0.748
23163W        W95588  22.691   8.302   3.880
23164W        W95589  39.294  14.038   0.520
23165W        W95590   4.970  11.911  13.073
23166W        W95591  14.495  21.178   5.097
23167W        W95592  17.697  37.167  11.878
23168W        W95593   4.183  13.029   0.111
23169W        W95594  29.169  10.574  13.505
23170W        W95595  36.557  36.005   4.729
23171W        W95596  27.174  24.694   4.397
23172W        W95597   7.001  26.589   1.413
23173W        W95598  19.046  11.635  14.358
23174W        W95599  19.684  10.169  12.937
23175W        W95600   2.933   6.948  12.971
23176W        W95601  22.741  35.912   4.102
23177W        W95602  10.848  29.166   3.555
23178W        W95603  42.272  36.020  12.525
23179W        W95604  25.683  28.541  14.414
23180W        W95605  43.309  34.426   1.410
23181W        W95606  34.882  36.150  11.077
23182W        W95607  26.960  19.254   3.217
23183W        W95608  13.699  24.040  11.155
23184W        W95609   4.025  24.573  12.516
23185W        W95610  42.435  19.672   1.381
23186W        W95611  11.127   2.158  11.892
23187W        W95612   3.440  21.206  14.965
23188W        W95613  12.116  20.663   2.545
23189W        W95614  21.101  27.559  10.719
23190W        W95615  42.011   3.357  11.954
23191W        W95616  43.361  28.328  11.678
23192W        W95617  23.123  26.134  11.446
23193W        W95618   9.675  23.113   3.320
23194W        W95619  17.583  11.776  13.322
23195W        W95620  36.366  18.219   2.865
23196W        W95621   8.783  29.340  11.583
23197W        W95622  29.371  31.560  12.274
23198W        W95623  35.026  43.327  14.497
23199W        W95624  37.638  11.858   0.623
23200W        W95625  17.216  30.528   2.155
23201W        W95626  40.097  14.870   3.497
23202W        W95627   1.672  27.929   0.335
23203W        W95628   2.870  38.999   3.557
23204W        W95629  10.168  31.917   4.243
23205W        W95630  14.282   2.257   2.758
23206W        W95631   1.660  43.867  11.872
23207W        W95632  27.387   3.194  14.295
23208W        W95633  29.070  20.143  13.288
23209W        W95634  23.083   6.738  12.446
23210W        W95635  32.148  24.406   4.552
23211W        W95636   7.033  35.505   0.689
23212W        W95637  31.321  18.104  14.578
23213W        W95638  21.637  30.921   2.184
23214W        W95639  10.207   5.354   1.304
23215W        W95640  16.206  12.838   3.556
23216W        W95641  26.580  37.525   4.492
23217W        W95642  39.987  41.373   2.894
23218W        W95643  19.669  24.765  11.611
23219W        W95644  37.535  14.570  11.956
23220W        W95645  31.068   4.273  14.490
23221W        W95646  17.181  38.867   3.825
23222W        W95647  25.946  19.967  13.558
23223W        W95648   9.719   8.167   2.867
23224W        W95649  16.546  31.885   4.424
23225W        W95650  16.980  37.994   9.985
23226W        W95651  10.060  22.872   1.736
23227W        W95652  10.600   8.285  11.424
23228W        W95653  27.202   8.144  11.571
23229W        W95654  18.743   1.940   1.213
23230W        W95655  43.948  18.921   0.896
23231W        W95656  22.127   8.132   2.320
23232W        W95657  44.845  39.421   0.189
23233W        W95658  36.718  36.197   2.796
23234W        W95659  37.925   0.243  13.478
23235W        W95660  35.442  26.154   1.006
23236W        W95661  16.799  14.073   2.796
23237W        W95662  12.403  38.697   4.581
23238W        W95663   9.214  43.365  13.926
23239W        W95664  26.605  24.034   1.232
23240W        W95665  10.385  30.530  12.473
23241W        W95666  21.776  17.611  13.433
23242W        W95667   1.347   1.451   2.175
23243W        W95668  12.336  32.596   4.574
23244W        W95669   8.292  43.057   3.323
23245W        W95670   2.504  34.315   2.867
23246W        W95671   7.721  42.724   4.245
23247W        W95672   3.090  23.765   4.929
23248W        W95673   4.345  31.939   4.329
23249W        W95674  25.442  17.024   1.484
23250W        W95675  39.922   4.501  12.638
23251W        W95676  13.598  38.866  12.480
23252W        W95677  35.056   7.824  11.151
23253W        W95678  43.295   6.138   3.639
23254W        W95679  12.283  22.223  13.621
23255W        W95680  14.391  18.381   4.219
23256W        W95681  14.326   6.858   3.719
23257W        W95682  41.552  19.245   4.185
23258W        W95683  13.909  31.425   4.419
23259W        W95684  36.901  19.522  11.676
23260W        W95685  15.123  23.764  14.605
23261W        W95686  34.567   4.756  10.546
23262W        W95687  12.825  31.849  11.622
23263W        W95688  12.841  39.016   1.725
23264W        W95689  21.012  24.749  11.857
23265W        W95690  37.435  39.911   4.892
23266W        W95691   7.286  22.586   1.584
23267W        W95692  39.780  25.095  10.677
23268W        W95693  33.164  18.510  10.246
23269W        W95694  19.240   2.900  12.307
23270W        W95695   1.724  27.111   2.670
23271W        W95696  27.099  32.410   4.455
23272W        W95697  37.963  10.619  13.021
23273W        W95698   9.667  22.459   2.870
23274W        W95699  34.690  35.632   0.901
23275W        W95700  17.718  40.515   4.149
23276W        W95701  44.515   3.785   4.951
23277W        W95702  20.985  36.854   5.011
23278W        W95703  44.220  18.241  12.052
23279W        W95704   9.599   8.168  14.907
23280W        W95705  28.374  21.222   4.605
23281W        W95706  37.859   0.934  12.843
23282W        W95707  31.996  33.965  14.791
23283W        W95708  39.807   0.453   4.191
23284W        W95709  40.441   0.255   2.501
23285W        W95710   6.281  27.962   1.714
23286W        W95711  14.835  30.384   4.169
23287W        W95712  12.338  43.899  13.879
23288W        W95713  11.381  35.936   3.742
23289W        W95714  21.613  10.723  12.543
23290W        W95715  28.222  28.148  13.885
23291W        W95716  29.278  10.353   3.311
23292W        W95717  21.181   4.222  11.704
23293W        W95718  22.777  17.952  12.753
23294W        W95719  43.866  38.093   4.187
23295W        W95720   8.164  19.890  12.401
23296W        W95721  21.985   2.233  11.213
23297W        W95722  41.036  12.909  12.948
23298W        W95723  25.641   4.682   1.233
23299W        W95724   4.893  18.074   3.877
23300W        W95725  41.331  29.605  14.153
23301W        W95726   2.809  32.059   3.412
23302W        W95727  27.336  23.957   0.881
23303W        W95728  25.585   6.029   1.365
23304W        W95729   0.230  36.346   0.155
23305W        W95730  40.320  27.219   2.799
23306W        W95731  17.861  40.878   4.499
23307W        W95732  33.591  41.543   2.303
23308W        W95733  10.221  37.925   5.063
23309W        W95734  23.832  11.408   3.133
23310W        W95735  17.153  38.086  11.102
23311W        W95736   8.607  13.808  12.470
23312W        W95737  37.865   4.360  14.385
23313W        W95738  36.944  43.328  13.624
23314W        W95739  38.844  33.024   0.214
23315W        W95740  31.638  23.088   1.022
23316W        W95741  12.349   1.897  12.838
23317W        W95742  22.981  44.560  10.582
23318W        W95743  16.659  28.208   2.740
23319W        W95744  22.661  18.897  13.855
23320W        W95745  10.816  26.460  10.991
23321W        W95746   2.717  24.941   0.277
23322W        W95747  34.175   8.218  11.701
23323W        W95748  31.203  17.038  11.067
23324W        W95749  44.766  38.903   1.664
23325W        W95750  34.169   5.483  12.905
23326W        W95751   4.792  37.822  14.317
23327W        W95752   2.060   0.490   4.144
23328W        W95753  23.122  24.670  10.429
23329W        W95754   8.919  25.595  11.990
23330W        W95755  37.076  11.909  13.431
23331W        W95756  42.937  23.714  14.006
23332W        W95757  25.400  23.498   1.328
23333W        W95758  28.371  17.601  13.389
23334W        W95759  30.139   2.202   2.378
23335W        W95760  22.160  33.808   2.362
23336W        W95761   1.171  16.607  12.107
23337W        W95762  21.127  31.651   1.425
23338W        W95763  22.217  11.214  11.971
23339W        W95764  10.823  35.921   5.104
23340W        W95765  28.153  27.430   4.239
23341W        W95766   2.564   7.345   3.867
23342W        W95767  35.450  25.747   1.317
23343W        W95768  43.659  20.634   1.460
23344W        W95769  25.939  10.780   1.784
23345W        W95770   1.747  38.319   2.378
23346W        W95771  28.905   3.441   1.889
23347W        W95772  33.148  39.483  13.430
23348W        W95773   0.722   5.853  14.901
23349W        W95774  34.080  36.783   3.093
23350W        W95775  15.575  24.959  10.507
23351W        W95776  24.617  41.901  12.206
23352W        W95777  44.445   5.966   3.834
23353W        W95778  32.615  32.554  11.171
23354W        W95779   9.207  35.446   4.124
23355W        W95780  11.315   7.827  11.415
23356W        W95781  32.593  40.431   2.238
23357W        W95782  25.603  42.833  14.364
23358W        W95783  43.797  44.567  13.832
23359W        W95784  15.301  35.384  12.172
23360W        W95785   0.561  41.377  12.973
23361W        W95786  39.613   1.171   2.814
23362W        W95787   1.528  17.614   4.899
23363W        W95788  30.671  17.630   0.334
23364W        W95789  42.378   1.847   3.049
23365W        W95790  42.502  40.478   2.356
23366W        W95791   3.053  40.274  11.486
23367W        W95792  33.005   9.495  12.055
23368W        W95793  28.542   8.524   3.746
23369W        W95794  20.231  24.386  11.590
23370W        W95795  29.686  35.865  12.983
23371W        W95796  26.104  13.603   4.804
23372W        W95797  37.853  15.257   4.618
23373W        W95798  33.978   4.445  10.790
23374W        W95799  31.380  14.203   2.798
23375W        W95800  12.753  37.707  13.118
23376W        W95801  38.782  26.063  12.804
23377W        W95802  19.697  41.726   5.153
23378W        W95803  13.116  30.559  13.374
23379W        W95804  12.901  40.052   4.193
23380W        W95805  17.008  31.732   4.157
23381W        W95806  25.129  11.651   2.337
23382W        W95807   1.817  16.633   2.288
23383W        W95808  43.801   8.725   3.589
23384W        W95809  42.330  14.778  11.575
23385W        W95810  34.377   8.525  14.947
23386W        W95811   7.563   8.677  14.569
23387W        W95812   5.958  31.659  12.146
23388W        W95813  14.065  37.450   3.784
23389W        W95814   3.858  43.541   4.470
23390W        W95815  42.747  21.462  12.089
23391W        W95816  15.348  44.734   4.940
23392W        W95817   3.836  30.533   3.487
23393W        W95818  12.382  25.801  13.372
23394W        W95819  35.631  33.412   0.921
23395W        W95820  42.535   0.709   0.319
23396W        W95821   0.205  15.518  12.071
23397W        W95822  27.818  24.074   2.402
23398W        W95823  17.694  16.287  12.344
23399W        W95824   6.441  44.520   0.856
23400W        W95825  34.493   1.236   1.384
23401W        W95826  13.723  14.576   2.357
23402W        W95827  34.386   0.351  12.811
23403W        W95828  26.072  29.918  12.471
23404W        W95829  25.211  25.180  12.361
23405W        W95830  33.323  35.995   4.670
23406W        W95831  23.157   9.665   3.205
23407W        W95832  23.759  35.511  12.003
23408W        W95833  15.668  18.373   0.274
23409W        W95834  27.363  36.381  12.519
23410W        W95835  36.930  25.110   3.088
23411W        W95836   4.394  20.596   0.297
23412W        W95837  23.020  29.570  12.065
23413W        W95838   4.163   8.156  12.436
23414W        W95839   0.990  27.139  11.580
23415W        W95840   2.006  33.552  12.548
23416W        W95841  13.062   4.414   3.691
23417W        W95842  21.516  14.126   5.088
23418W        W95843   1.965  40.042   1.878
23419W        W95844  37.908  36.380   4.884
23420W        W95845  29.557   6.696   4.973
23421W        W95846  35.076  24.511  12.380
23422W        W95847  19.740  41.422  11.428
23423W        W95848  39.880  22.754   1.294
23424W        W95849  36.630   3.626  10.738
23425W        W95850  18.007   5.316  11.605
23426W        W95851  18.151  33.882   2.913
23427W        W95852   0.803  13.627   2.456
23428W        W95853  19.084   3.315   1.590
23429W        W95854  15.206  23.020   2.257
23430W        W95855  14.324  24.592  13.873
23431W        W95856  28.788  35.844   2.469
23432W        W95857  43.039  27.964  10.603
23433W        W95858  12.104  33.547   2.354
23434W        W95859  22.087  41.895  10.698
23435W        W95860  24.006  31.505   3.549
23436W        W95861   4.267   0.186   0.736
23437W        W95862  28.888  15.197   0.816
23438W        W95863   1.943   9.930   1.856
23439W        W95864   7.316   6.733   2.623
23440W        W95865  26.316  30.658  14.335
23441W        W95866   9.172  31.023   2.614
23442W        W95867  42.288  42.525   1.822
23443W        W95868  30.779  29.100  13.612
23444W        W95869  11.266  34.861   0.932
23445W        W95870  40.751  22.713   1.805
23446W        W95871  16.651  27.412   4.040
23447W        W95872  25.483  26.579  14.266
23448W        W95873  13.922  19.999   3.622
23449W        W95874  24.256   7.821   4.813
23450W        W95875  40.411  36.005   3.088
23451W        W95876   3.314  30.484   0.335
23452W        W95877  27.026  36.441   2.624
23453W        W95878   6.710  42.247   1.795
23454W        W95879  44.922  28.585   3.212
23455W        W95880  17.551  17.123  12.436
23456W        W95881  26.461  18.567  13.976
23457W        W95882   1.022  30.770   2.211
23458W        W95883  23.362  42.422   2.848
23459W        W95884  23.730  33.927   0.937
23460W        W95885  39.421  24.652   2.343
23461W        W95886  31.520  25.064   4.341
23462W        W95887  33.032  37.785   0.708
23463W        W95888  13.714   2.826   1.222
23464W        W95889  32.563  27.050  10.440
23465W        W95890  42.816   6.695   1.818
23466W        W95891   1.968  42.912  14.299
23467W        W95892  16.525  31.457   0.652
23468W        W95893   0.309  10.692   0.742
23469W        W95894  31.147  12.379   2.896
23470W        W95895  28.184   9.200   4.067
23471W        W95896  39.425  44.845  10.157
23472W        W95897  39.843  42.828  12.977
23473W        W95898   7.246   4.795  11.605
23474W        W95899   0.799  14.827  12.102
23475W        W95900  21.079  41.858  12.654
23476W        W95901  14.715  10.498  13.720
23477W        W95902  34.966  17.519   3.706
23478W        W95903  16.162  31.422  10.905
23479W        W95904  13.752   5.855   4.627
23480W        W95905  43.101  21.692  12.370
23481W        W95906   7.266  19.045  13.405
23482W        W95907  34.445  19.614   0.730
23483W        W95908  25.546   9.426  14.848
23484W        W95909   7.289  37.495   3.153
23485W        W95910   3.424   7.228  12.907
23486W        W95911  26.076  29.936   0.493
23487W        W95912  38.197  30.401  11.653
23488W        W95913  36.807  34.101  13.616
23489W        W95914   0.425  34.935   3.720
23490W        W95915  28.195  15.208   4.430
23491W        W95916   6.165  33.287   3.076
23492W        W95917  11.650  30.996  13.436
23493W        W95918  10.450   8.524   5.466
23494W        W95919  19.295  20.289   4.216
23495W        W95920   6.754  17.509   0.157
23496W        W95921  26.603  39.238  13.230
23497W        W95922  43.890  26.045   4.323
23498W        W95923  28.909  22.557   1.190
23499W        W95924   2.911  35.427   1.731
23500W        W95925  27.507  14.968   1.718
23501W        W95926  23.716  41.144  14.606
23502W        W95927   1.937  13.284  14.841
23503W        W95928  14.161  42.461   0.638
23504W        W95929  10.354  33.437  10.445
23505W        W95930  21.101  21.447  13.853
23506W        W95931   8.789  20.973   4.588
23507W        W95932  13.635  17.777   4.083
23508W        W95933  15.384  14.710   1.853
23509W        W95934  22.273   1.679  14.567
23510W        W95935  13.220  12.323  14.679
23511W        W95936  38.297  33.810   0.915
23512W        W95937  34.841  18.548  14.239
23513W        W95938  15.594  20.450  12.206
23514W        W95939  44.979  39.533   1.864
23515W        W95940   8.180   4.858  10.029
23516W        W95941  37.982  14.684  14.399
23517W        W95942   8.981  27.241   1.322
23518W        W95943  38.845  36.124   4.067
23519W        W95944  38.612  37.505  13.842
23520W        W95945  43.479  29.901   2.560
23521W        W95946  27.720   1.484  10.720
23522W        W95947  40.318  41.533   5.097
23523W        W95948  28.761  12.089  13.829
23524W        W95949   8.863  34.214  14.442
23525W        W95950   6.827  26.260   2.423
23526W        W95951   2.924  13.269  12.034
23527W        W95952   4.642  32.007  13.042
23528W        W95953  27.513  23.187   4.008
23529W        W95954  17.751  21.790   2.201
23530W        W95955  21.654   9.826   1.712
23531W        W95956  34.318  25.926  14.899
23532W        W95957   2.040  15.093  13.979
23533W        W95958  24.155  29.601  11.560
23534W        W95959  20.934  13.796   0.283
23535W        W95960  17.733   9.319  14.777
23536W        W95961  39.327  38.171   2.701
23537W        W95962   8.278  44.217  12.421
23538W        W95963   3.273  24.032   1.579
23539W        W95964   7.079   4.211   2.064
23540W        W95965  26.198  32.573  10.105
23541W        W95966  31.346   7.349  14.383
23542W        W95967  17.548  40.361  12.555
23543W        W95968  37.082  32.587  14.337
23544W        W95969  18.212   2.027  12.374
23545W        W95970  44.354  17.198   1.170
23546W        W95971  32.680  37.079   3.731
23547W        W95972  30.906  17.659  14.863
23548W        W95973   8.378   0.935   2.698
23549W        W95974  35.510  31.061   2.011
23550W        W95975  28.933  43.120   2.831
23551W        W95976  29.223   0.821   3.320
23552W        W95977  13.120  44.997   0.683
23553W        W95978  30.177  38.074   1.935
23554W        W95979   9.084  15.554  14.985
23555W        W95980  39.508  16.257   4.567
23556W        W95981  26.104  24.946   4.545
23557W        W95982   1.650   1.451   1.731
23558W        W95983  18.761   6.780  13.548
23559W        W95984   2.822  16.993  12.403
23560W        W95985   7.737  19.644   0.942
23561W        W95986  39.331  14.294   3.793
23562W        W95987  43.984   4.174  14.986
23563W        W95988  19.683  14.321  11.113
23564W        W95989  20.486  10.636   1.907
23565W        W95990  15.085  39.141  12.374
23566W        W95991  40.342  16.882   2.329
23567W        W95992   8.398  13.013  13.962
23568W        W95993  38.580  33.855   3.151
23569W        W95994  20.022   8.292   4.206
23570W        W95995  20.071  12.577   2.498
23571W        W95996   7.464  38.576  12.564
23572W        W95997  27.674  22.621  12.201
23573W        W95998   9.424  10.122  13.482
23574W        W95999  26.443   4.911   3.119
23575W        W96000  27.009  29.595  12.613
23576W        W96001  34.022  21.547  12.950
23577W        W96002   8.177  27.711   3.809
23578W        W96003   7.927  34.375   3.780
23579W        W96004  16.312  42.047   0.980
23580W        W96005   6.927  26.491   1.934
23581W        W96006   7.288   8.792  13.722
23582W        W96007   4.713  28.985  13.874
23583W        W96008  29.926   5.154  14.901
23584W        W96009  33.590  31.312   3.804
23585W        W96010  33.024  10.373  10.534
23586W        W96011  29.351   9.369   4.317
23587W        W96012  29.212  14.136   4.615
23588W        W96013  24.920  30.536  11.921
23589W        W96014  44.375  32.623  10.687
23590W        W96015  31.115  30.539   5.178
23591W        W96016   8.124  38.004   0.388
23592W        W96017  18.217   1.312  12.994
23593W        W96018  26.516  36.866  12.430
23594W        W96019  34.419  30.324   3.172
23595W        W96020  36.761  11.125   2.473
23596W        W96021  24.223  34.932   3.181
23597W        W96022  19.691  24.211  10.564
23598W        W96023  11.644  26.970  11.190
23599W        W96024  32.019  44.314  13.828
23600W        W96025  40.338   1.519   4.233
23601W        W96026  43.845   2.294  14.230
23602W        W96027  34.434   7.458  11.845
23603W        W96028   2.789  24.680  10.630
23604W        W96029   7.156  26.431  14.545
23605W        W96030  16.891   8.861  14.477
23606W        W96031  39.483  37.842  13.827
23607W        W96032  22.056  23.666   2.137
23608W        W96033  15.857  28.837   2.752
23609W        W96034  18.768  29.198   1.825
23610W        W96035   2.463  29.019  14.873
23611W        W96036   8.519  41.435  12.635
23612W        W96037  44.407  30.328   2.600
23613W        W96038  25.291  21.521  13.066
23614W        W96039  39.315   2.688  11.503
23615W        W96040  15.283  12.040  13.723
23616W        W96041   7.305   1.504  10.905
23617W        W96042   0.278  11.302  11.362
23618W        W96043  24.427  12.153   0.947
23619W        W96044  30.067  26.220   2.770
23620W        W96045  36.686  42.783   4.079
23621W        W96046  21.693   3.074   0.526
23622W        W96047  39.408  22.976   0.689
23623W        W96048  23.636  12.135  10.402
23624W        W96049  21.983  30.008  13.877
23625W        W96050  37.364  38.697  11.097
23626W        W96051  38.726  33.942  13.530
23627W        W96052  27.519   2.984   3.996
23628W        W96053   9.289  23.060   0.922
23629W        W96054  22.198  24.657   2.385
23630W        W96055  33.066  29.099  11.263
23631W        W96056   7.718  14.846  12.401
23632W        W96057  37.991  29.641  13.046
23633W        W96058  17.505  18.110   0.287
23634W        W96059  12.661   1.817   2.267
23635W        W96060   7.598  31.019  10.288
23636W        W96061  30.125   9.682  10.875
23637W        W96062  18.342  29.977   2.004
23638W        W96063  10.188   4.609   1.912
23639W        W96064  36.987   4.955  10.603
23640W        W96065   6.618   4.154   0.314
23641W        W96066  27.956  15.206  14.345
23642W        W96067   6.436  12.895   3.702
23643W        W96068  42.513  25.018   1.793
23644W        W96069  16.219  24.390   2.307
23645W        W96070  26.142  30.174   2.172
23646W        W96071  25.097  15.199   0.524
23647W        W96072  14.446  38.569   2.524
23648W        W96073   9.065  27.291  13.871
23649W        W96074  13.951   5.095   4.133
23650W        W96075  22.235  12.165  10.503
23651W        W96076   4.420  37.247   4.264
23652W        W96077   3.463  36.094   0.387
23653W        W96078   9.747  20.195  13.119
23654W        W96079  23.949  17.204  12.497
23655W        W96080  41.052  16.106  13.457
23656W        W96081   8.261  24.959   2.999
23657W        W96082  15.311  29.919  14.423
23658W        W96083  13.524   8.462   2.853
23659W        W96084  18.826  18.254   2.597
23660W        W96085  16.310  13.782  10.926
23661W        W96086  13.621   2.909  11.987
23662W        W96087  26.622  24.574  12.120
23663W        W96088   1.345  14.267  13.022
23664W        W96089  15.177   1.479   0.455
23665W        W96090  21.468  29.112  14.032
23666W        W96091  30.626  27.182  13.241
23667W        W96092  20.238  24.278   0.782
23668W        W96093  28.000  26.611   3.691
23669W        W96094  31.637  10.213  13.993
23670W        W96095  22.249  39.449  14.766
23671W        W96096  45.000  19.053   0.244
23672W        W96097   9.680  12.237   2.240
23673W        W96098   7.229  35.969   3.917
23674W        W96099  43.058  27.964  14.751
23675W        W96100  41.822  24.159  14.403
23676W        W96101   3.423  26.020   1.420
23677W        W96102   5.705   8.245  12.527
23678W        W96103   1.371  32.852  12.161
23679W        W96104  39.579  21.516  12.561
23680W        W96105  40.391  18.826   0.817
23681W        W96106   7.218  44.660  10.799
23682W        W96107  32.005  44.008  14.841
23683W        W96108  17.994  41.715  14.396
23684W        W96109  17.040   0.793  11.827
23685W        W96110  15.694   5.843   1.752
23686W        W96111  22.105  30.658   0.934
23687W        W96112   5.272  28.213  13.992
23688W        W96113  42.879  11.911  14.517
23689W        W96114  14.855  12.138   0.814
23690W        W96115  15.621  21.755  14.918
23691W        W96116   2.193  26.877   2.858
23692W        W96117  29.125  20.730  13.808
23693W        W96118  13.813   5.425   1.251
23694W        W96119  33.596  36.270   2.244
23695W        W96120  17.345  20.844  12.590
23696W        W96121  16.311  16.051  13.963
23697W        W96122   6.882  38.426   3.094
23698W        W96123   8.684  30.882  13.399
23699W        W96124  35.423   5.118  10.351
23700W        W96125  17.622   1.100  11.011
23701W        W96126  17.225  19.311   1.921
23702W        W96127  40.494   5.966   1.285
23703W        W96128  28.400  40.005  12.528
23704W        W96129  29.463  42.238  11.408
23705W        W96130  19.822  27.343  12.321
23706W        W96131  22.121   0.301   3.198
23707W        W96132  34.309  19.811  12.558
23708W        W96133   9.221  33.729   3.725
23709W        W96134  14.218   7.661   3.351
23710W        W96135  31.943  13.014   2.358
23711W        W96136  40.289  42.927  11.607
23712W        W96137  10.261  42.101   0.435
23713W        W96138  19.252  41.836  11.977
23714W        W96139  24.832  30.279   4.369
23715W        W96140  44.084   5.895   9.914
23716W        W96141   0.802   7.334   1.282
23717W        W96142  32.979  40.979  10.717
23718W        W96143  18.586  19.608   1.805
23719W        W96144   1.786  18.603  12.630
23720W        W96145  13.000  42.842  11.676
23721W        W96146  33.788  22.707   2.818
23722W        W96147  30.834  38.885  11.178
23723W        W96148  39.547  25.423   1.888
23724W        W96149   9.781  23.133  13.355
23725W        W96150  24.743  41.088   0.878
23726W        W96151  14.237  39.877   3.889
23727W        W96152  30.352  21.708  11.541
23728W        W96153   8.420   9.209  10.213
23729W        W96154  30.940   5.984  13.943
23730W        W96155  43.578  44.985   2.551
23731W        W96156  36.685   2.779   3.768
23732W        W96157  38.619  16.149  13.504
23733W        W96158   6.671  33.558  12.119
23734W        W96159  40.087  33.139   1.730
23735W        W96160   6.249  13.328   4.499
23736W        W96161  10.688  16.106   2.698
23737W        W96162  35.627  20.860   2.830
23738W        W96163  10.333  28.195   2.234
23739W        W96164  10.201  39.296   2.138
23740W        W96165  33.143  29.457  10.384
23741W        W96166  35.518  25.615  10.517
23742W        W96167   3.844  16.043   0.276
23743W        W96168  13.560  22.332   1.640
23744W        W96169  30.139  38.561   2.790
23745W        W96170   5.398  31.573   0.358
23746W        W96171  41.741  32.404  12.901
23747W        W96172  42.398  24.570   2.992
23748W        W96173  37.264  25.029   2.703
23749W        W96174  37.469   3.972  14.986
23750W        W96175   2.777  31.146   4.653
23751W        W96176   3.311  42.760   2.715
23752W        W96177  35.433   1.773   5.033
23753W        W96178  39.193   2.280   0.896
23754W        W96179  12.289  44.365  14.291
23755W        W96180  12.762  23.599  12.165
23756W        W96181  18.770  16.772   0.300
23757W        W96182   3.298  12.815  13.862
23758W        W96183  29.743  44.993  12.549
23759W        W96184  39.304   9.880   3.608
23760W        W96185  29.503  37.258  11.561
23761W        W96186  29.224  32.869   3.787
23762W        W96187   4.470  43.763  14.556
23763W        W96188  27.969  11.795  14.299
23764W        W96189   3.527   2.281  13.519
23765W        W96190   9.565  40.472  11.572
23766W        W96191  20.742   0.967  12.433
23767W        W96192  12.122  39.602   1.681
23768W        W96193  32.078  25.228   3.332
23769W        W96194   3.041   1.769   0.386
23770W        W96195   1.250   9.841  11.403
23771W        W96196   9.791  18.272  11.567
23772W        W96197  19.517  22.660  12.559
23773W        W96198  30.469  32.534  11.580
23774W        W96199  20.749   1.740   0.823
23775W        W96200  44.812  24.227   1.636
23776W        W96201  35.543   5.291  12.291
23777W        W96202   1.909  36.793  13.874
23778W        W96203  22.138   7.005   0.389
23779W        W96204  34.696  42.958   0.839
23780W        W96205  13.735   5.931   1.295
23781W        W96206  10.721  38.889   1.912
23782W        W96207  38.792  29.098  11.996
23783W        W96208  17.769  29.960  12.529
23784W        W96209   4.258  42.391   4.020
23785W        W96210  28.746   5.831  12.077
23786W        W96211  17.671  30.472   4.147
23787W        W96212  26.099  38.110  14.330
23788W        W96213  13.235  31.872  12.931
23789W        W96214  15.174  36.656   4.256
23790W        W96215  16.846  39.245  12.495
23791W        W96216  33.270  18.691  12.121
23792W        W96217  41.817  29.483  14.403
23793W        W96218  26.936  33.009   3.308
23794W        W96219   1.829  17.210  14.949
23795W        W96220  28.680  33.191   5.084
23796W        W96221  25.477  21.525  10.669
23797W        W96222  20.116  11.097   4.687
23798W        W96223  15.728  41.839  11.030
23799W        W96224  21.269  31.070  14.044
23800W        W96225  30.509  13.420   0.430
23801W        W96226  32.423  36.217  13.782
23802W        W96227  43.293  18.240   3.180
23803W        W96228  23.192  41.978   1.398
23804W        W96229  24.930   1.655   3.291
23805W        W96230  25.986  17.723   0.648
23806W        W96231  44.381  26.469   3.706
23807W        W96232  30.123   4.250   3.880
23808W        W96233  31.895  34.393  13.376
23809W        W96234  32.283   0.304  13.581
23810W        W96235  23.269   7.635   2.308
23811W        W96236  12.439  23.062   3.591
23812W        W96237   3.463  28.584  11.506
23813W        W96238  17.761  37.039  12.380
23814W        W96239  29.584  24.215   2.633
23815W        W96240   7.860  35.253   4.037
23816W        W96241  10.806  15.566   0.834
23817W        W96242  28.004  23.986   1.263
23818W        W96243  11.349  30.998   0.611
23819W        W96244  12.477  41.963  10.796
23820W        W96245   4.455   2.125   0.794
23821W        W96246   4.328  11.371  10.764
23822W        W96247  16.140  10.279  11.199
23823W        W96248  40.390  38.939   2.582
23824W        W96249  21.607  44.050   3.279
23825W        W96250   7.410   8.549   5.071
23826W        W96251  17.820  11.217   0.355
23827W        W96252  29.233  14.507  11.083
23828W        W96253  25.668  21.056   4.047
23829W        W96254  39.560  37.843   2.349
23830W        W96255  42.312   6.733  13.755
23831W        W96256  10.744  26.357   0.074
23832W        W96257   9.164  15.033  14.045
23833W        W96258  27.241   1.378   4.366
23834W        W96259  43.180  44.359   3.663
23835W        W96260   3.177  37.877  11.556
23836W        W96261  29.618   1.094   1.244
23837W        W96262  36.938  25.596   9.782
23838W        W96263  25.214  20.577  14.003
23839W        W96264  28.527  32.684   4.523
23840W        W96265  13.685  17.034   0.962
23841W        W96266  23.738  27.378   4.426
23842W        W96267   3.330  11.396   2.716
23843W        W96268  32.543   9.182  13.585
23844W        W96269  26.455  41.561  14.064
23845W        W96270  34.867  39.510  12.487
23846W        W96271  34.498   9.366   0.165
23847W        W96272   8.138  44.920  10.648
23848W        W96273   7.157  20.651   2.368
23849W        W96274  40.889   6.222   0.395
23850W        W96275   1.841  36.569  11.939
23851W        W96276  39.364  38.181  11.230
23852W        W96277  16.333  24.790  13.466
23853W        W96278   8.774  43.105  13.006
23854W        W96279  16.656  42.539  11.652
23855W        W96280  44.955  33.279   0.815
23856W        W96281   5.914  36.847   4.155
23857W        W96282   9.904  43.654  14.234
23858W        W96283   8.963   3.956  11.107
23859W        W96284   2.974  11.623   0.764
23860W        W96285  10.139  16.763   1.429
23861W        W96286   2.242  39.426  12.320
23862W        W96287  16.242   3.290  11.061
23863W        W96288  33.463  30.110  11.392
23864W        W96289  29.164  12.432  10.834
23865W        W96290  15.223  20.307  11.425
23866W        W96291  15.110  22.632  10.651
23867W        W96292  37.808   8.921   4.551
23868W        W96293   7.819  34.958  14.993
23869W        W96294  33.025  29.910   0.317
23870W        W96295  34.614   3.486   3.406
23871W        W96296   1.861   1.204  14.354
23872W        W96297  28.108  38.412   9.982
23873W        W96298   9.797  29.895  10.638
23874W        W96299  42.421  14.334   3.688
23875W        W96300  14.348  28.440  12.987
23876W        W96301  12.459   1.276  10.649
23877W        W96302  26.251   0.965   1.115
23878W        W96303  14.170   8.146   2.361
23879W        W96304  36.310  34.801  12.933
23880W        W96305  30.053  42.889  13.089
23881W        W96306  33.974  36.658  12.423
23882W        W96307  38.208  28.959  11.987
23883W        W96308  10.863  24.173  11.855
23884W        W96309  43.301   7.254  13.523
23885W        W96310  30.986   9.142  14.153
23886W        W96311   0.296  38.208  14.999
23887W        W96312  11.829  17.890  11.996
23888W        W96313  25.265  21.319   2.417
23889W        W96314  11.299  23.654  10.503
23890W        W96315  18.790  38.354  14.715
23891W        W96316  43.511  40.873   1.725
23892W        W96317  35.108   2.711  12.564
23893W        W96318  33.418   7.178  10.542
23894W        W96319   0.822  34.386   2.652
23895W        W96320  43.542  38.413  14.112
23896W        W96321  13.830  24.193  11.643
23897W        W96322  12.152  37.897  14.757
23898W        W96323  42.224  22.011  11.027
23899W        W96324  22.768  36.450  12.416
23900W        W96325  25.510  18.065  10.556
23901W        W96326   9.993   1.703  13.314
23902W        W96327  21.549  30.522  14.686
23903W        W96328  44.889  44.039  11.667
23904W        W96329  34.905  24.686  12.867
23905W        W96330  37.816  11.842   4.453
23906W        W96331   5.779  38.441   4.683
23907W        W96332   8.233  32.887  12.034
23908W        W96333  18.643  32.819   2.401
23909W        W96334  36.579  23.464   4.061
23910W        W96335  28.659  38.066  14.878
23911W        W96336  24.418  36.744  13.873
23912W        W96337  32.120   2.442   1.256
23913W        W96338  13.865   3.856  12.789
23914W        W96339  17.035  37.889   1.413
23915W        W96340  33.008  16.562   0.979
23916W        W96341   4.249   0.852   1.874
23917W        W96342  13.132   8.702  13.458
23918W        W96343  27.091  39.842   4.860
23919W        W96344  27.546  11.782   0.393
23920W        W96345  29.644  22.336   2.307
23921W        W96346  36.512  21.377   3.400
23922W        W96347  34.913  40.512   0.309
23923W        W96348  13.415  44.437   4.155
23924W        W96349  29.048  11.576   1.430
23925W        W96350   4.272   4.345   1.029
23926W        W96351   8.174  28.283  13.514
23927W        W96352   7.282  39.083   1.300
23928W        W96353   5.275  38.341  12.619
23929W        W96354  10.665  41.928  14.865
23930W        W96355  27.889  41.170  12.353
23931W        W96356  32.550  40.894   4.284
23932W        W96357  18.755  19.717  10.033
23933W        W96358  38.849  14.566  14.419
23934W        W96359  42.833  10.387  10.671
23935W        W96360   7.321   4.205  13.215
23936W        W96361  21.644  34.583  14.605
23937W        W96362   0.805  23.183  13.898
23938W        W96363  22.789  12.706   1.937
23939W        W96364  35.022   7.531   3.522
23940W        W96365  12.653  39.432  11.480
23941W        W96366  31.674  32.100  10.717
23942W        W96367   6.192  19.105   1.389
23943W        W96368  44.710  40.264  10.644
23944W        W96369  28.169  13.394  10.995
23945W        W96370   1.949   5.831   2.304
23946W        W96371  17.180  19.633  10.607
23947W        W96372  35.170  36.626   3.864
23948W        W96373   0.668  27.717  10.737
23949W        W96374  25.002  26.906   3.208
23950W        W96375  41.793  28.934  11.414
23951W        W96376   9.672  21.591  14.573
23952W        W96377  26.514  39.507  12.214
23953W        W96378  39.967  42.581   3.746
23954W        W96379  29.519  41.507   3.780
23955W        W96380  33.062   4.656   2.675
23956W        W96381  33.935  34.045  11.098
23957W        W96382  36.548  28.779   1.988
23958W        W96383  14.687  44.815   2.950
23959W        W96384  43.315   4.408   1.714
23960W        W96385  14.578  14.018  14.331
23961W        W96386  34.112  29.064   2.719
23962W        W96387   0.919  22.496   3.244
23963W        W96388  29.938   3.004   3.006
23964W        W96389   4.635  18.830   0.457
23965W        W96390  22.573  18.506   3.060
23966W        W96391   8.810  38.407  12.022
23967W        W96392   1.866  17.139   1.044
23968W        W96393  27.158  25.509   1.822
23969W        W96394  23.661  26.021  13.183
23970W        W96395  39.861  33.665  11.457
23971W        W96396  11.354  41.027   1.145
23972W        W96397  35.056  34.950  14.492
23973W        W96398  35.725  28.439   2.467
23974W        W96399  38.016   9.631   4.030
23975W        W96400  27.620   2.007  10.700
23976W        W96401   6.181  27.002   2.682
23977W        W96402  24.717  36.370   0.733
23978W        W96403  41.751  20.062  10.557
23979W        W96404  30.434  38.134   3.614
23980W        W96405  13.402  16.720  13.481
23981W        W96406  39.624  26.449   2.012
23982W        W96407  22.996  14.897  14.935
23983W        W96408  29.794  30.996  14.433
23984W        W96409  42.773  27.072   5.321
23985W        W96410   3.300  43.341  12.713
23986W        W96411   7.152  11.666  13.868
23987W        W96412   5.898  13.707  12.882
23988W        W96413   6.985  44.254   1.565
23989W        W96414  43.284  27.490  11.904
23990W        W96415  25.710   8.688  12.471
23991W        W96416  32.975  41.464  13.305
23992W        W96417  20.779  42.455  11.699
23993W        W96418  32.314  11.490  10.330
23994W        W96419   3.465   5.262  14.883
23995W        W96420  22.688  29.155   2.770
23996W        W96421  13.870   8.192   0.424
23997W        W96422  44.325  10.573  12.962
23998W        W96423  21.891  23.702   4.122
23999W        W96424  29.416  35.901   3.161
24000W        W96425  17.835  24.871  13.324
24001W        W96426   8.794  22.942   0.810
24002W        W96427   6.683   1.184  13.832
24003W        W96428   8.162  25.980   1.470
24004W        W96429  37.837   9.057   3.206
24005W        W96430   1.873  21.523  10.404
24006W        W96431  24.579  37.942   1.462
24007W        W96432  26.400  35.468   3.950
24008W        W96433  44.936   8.475   2.729
24009W        W96434  10.701  43.779   3.876
24010W        W96435  18.758  28.747  14.953
24011W        W96436  17.084  38.044   4.103
24012W        W96437  42.274  28.997   1.405
24013W        W96438  14.655   9.009   1.729
24014W        W96439  12.130   0.332   0.363
24015W        W96440   4.986  29.706  14.034
24016W        W96441   4.304  15.888   1.419
24017W        W96442  16.603   8.888  13.485
24018W        W96443  26.874  14.154   1.372
24019W        W96444   5.362   0.355   1.314
24020W        W96445   0.969  20.589   1.737
24021W        W96446  30.901  39.733  11.100
24022W        W96447   0.587   9.611  12.568
24023W        W96448   1.428  17.549  14.903
24024W        W96449  41.103  13.707   2.413
24025W        W96450  18.441  25.090  11.230
24026W        W96451   9.728   7.965  10.211
24027W        W96452   1.444  23.508   3.237
24028W        W96453  38.911  18.248   1.385
24029W        W96454   6.576   8.321   2.790
24030W        W96455   7.899  42.530  12.846
24031W        W96456  28.629  40.480  13.935
24032W        W96457   3.852  44.720   2.275
24033W        W96458  10.433   7.870  14.069
24034W        W96459   0.373  41.174  13.815
24035W        W96460   8.839   8.774   2.013
24036W        W96461   8.206  42.859   4.191
24037W        W96462  13.852  37.020   3.371
24038W        W96463   9.696  35.896   3.739
24039W        W96464  34.073   2.358  14.449
24040W        W96465  41.387  30.943  13.525
24041W        W96466  39.547  25.962  11.917
24042W        W96467  41.715  35.406  10.762
24043W        W96468  11.043  36.053   1.426
24044W        W96469  12.169  10.619  13.882
24045W        W96470  44.467  10.296  12.520
24046W        W96471   9.222  41.350   4.531
24047W        W96472   4.611   0.854  10.378
24048W        W96473  44.751  38.318  14.372
24049W        W96474  35.336  42.422   2.723
24050W        W96475  37.969  15.391   1.297
24051W        W96476  21.407  11.724  14.561
24052W        W96477   2.808  33.274   2.825
24053W        W96478   3.366  32.085  13.378
24054W        W96479  17.678   8.775  11.400
24055W        W96480  34.546  27.698  14.406
24056W        W96481  32.617  22.466   4.837
24057W        W96482  35.419  18.657   1.381
24058W        W96483  33.988  29.035  12.218
24059W        W96484  27.033  42.905   0.895
24060W        W96485  22.772  43.075  12.822
24061W        W96486  29.229  13.397   2.019
24062W        W96487  37.591   9.204  12.848
24063W        W96488   3.680   5.051   2.893
24064W        W96489  21.260  15.137   2.313
24065W        W96490  29.947   8.443  14.344
24066W        W96491  22.056  34.623  11.926
24067W        W96492  15.487  18.077  11.578
24068W        W96493  30.501   9.306  13.026
24069W        W96494  31.162  15.154   0.168
24070W        W96495   8.269  18.198  13.231
24071W        W96496  17.124   0.657   2.232
24072W        W96497  37.845  26.044  14.952
24073W        W96498   6.758  27.984   4.882
24074W        W96499  27.636  26.438  14.854
24075W        W96500  39.411  34.130   0.853
24076W        W96501  42.465  24.429   3.801
24077W        W96502  15.155  22.189  10.346
24078W        W96503  23.937  42.228   2.711
24079W        W96504   8.020  18.600   5.128
24080W        W96505  11.258   4.997   4.703
24081W        W96506  37.085   7.829   2.904
24082W        W96507  32.132  18.300  11.081
24083W        W96508  20.592  29.816  10.767
24084W        W96509   1.301  35.577  13.472
24085W        W96510  43.988   9.716  14.813
24086W        W96511  44.092  13.618   1.338
24087W        W96512  32.800   6.767  11.113
24088W        W96513  33.047  31.660   4.596
24089W        W96514  39.067  40.749   3.049
24090W        W96515  17.154  34.180   1.352
24091W        W96516  17.426  14.595  11.576
24092W        W96517  21.610  39.427  10.630
24093W        W96518  11.948  10.433   9.884
24094W        W96519   6.673  21.156   4.131
24095W        W96520  23.973  14.367   2.916
24096W        W96521  19.472   5.680  13.930
24097W        W96522   2.291  32.723  11.233
24098W        W96523   5.442  38.521   1.437
24099W        W96524  41.757   6.393  12.059
24100W        W96525  34.482  34.113   2.643
24101W        W96526  43.460   5.386   3.134
24102W        W96527  15.242   2.968   2.270
24103W        W96528  15.818  37.960   0.390
24104W        W96529  17.968  18.700   1.837
24105W        W96530  39.851  38.329  14.915
24106W        W96531  23.668  30.963  13.221
24107W        W96532  36.650  25.079   5.168
24108W        W96533  39.956   7.676  13.866
24109W        W96534  40.629  35.945   4.986
24110W        W96535  22.940  40.717   2.231
24111W        W96536  13.956  22.492   5.012
24112W        W96537  25.893  25.662   2.605
24113W        W96538   5.491  26.056  11.125
24114W        W96539  12.425  35.749   3.947
24115W        W96540  39.517  13.298  12.842
24116W        W96541  36.597   9.729   2.763
24117W        W96542  38.780   0.304   4.190
24118W        W96543  29.439  17.479   3.869
24119W        W96544   0.876   4.906   0.853
24120W        W96545  42.035   0.534   0.263
24121W        W96546   3.837  31.225  13.834
24122W        W96547  24.171  32.555   0.080
24123W        W96548   3.790  33.109  14.773
24124W        W96549   3.816  34.142  12.365
24125W        W96550  43.218  15.234  10.625
24126W        W96551   8.894  42.966  10.284
24127W        W96552   0.461  14.292   4.096
24128W        W96553  12.107   2.655   3.858
24129W        W96554  43.065  24.922   0.984
24130W        W96555  19.160  23.098  12.522
24131W        W96556  37.103   9.382  13.039
24132W        W96557  11.555  41.138  12.103
24133W        W96558  43.209   1.487   0.372
24134W        W96559   8.181  22.183   1.652
24135W        W96560  44.526  16.311   2.668
24136W        W96561  41.510  28.154   1.298
24137W        W96562  14.640  11.451  11.934
24138W        W96563  26.553  43.548   0.405
24139W        W96564  18.714  28.455   0.871
24140W        W96565  41.904  39.468  11.601
24141W        W96566   8.884  40.488  13.227
24142W        W96567  15.671  34.840  14.116
24143W        W96568  10.671   0.481  14.716
24144W        W96569  31.201  34.917   1.088
24145W        W96570  39.728  31.448   3.613
24146W        W96571  21.972  12.839   0.427
24147W        W96572  16.318  19.336   0.317
24148W        W96573  24.541  15.014  14.328
24149W        W96574  23.674  32.901   0.821
24150W        W96575   5.183  21.139   3.283
24151W        W96576  20.077  21.261  14.331
24152W        W96577  14.308  33.199  11.875
24153W        W96578  39.551  16.747   1.371
24154W        W96579   9.789  29.492   1.466
24155W        W96580  25.222  11.876  13.960
24156W        W96581  34.806  40.804  10.725
24157W        W96582  16.654  44.991  12.053
24158W        W96583  13.573   9.749   1.393
24159W        W96584  30.110   6.637   0.416
24160W        W96585  10.709  39.563  14.960
24161W        W96586  13.052  25.628  14.491
24162W        W96587  29.615  43.789   2.363
24163W        W96588  13.643  17.833   1.294
24164W        W96589   8.370  10.248   4.224
24165W        W96590  14.055  12.059   2.420
24166W        W96591  41.811  24.294   4.805
24167W        W96592  31.134  14.647   0.251
24168W        W96593  27.180  10.262  12.180
24169W        W96594  29.462  22.699   4.985
24170W        W96595   1.738  29.530  14.000
24171W        W96596  21.755  11.820   2.673
24172W        W96597  22.678  36.107   0.850
24173W        W96598  43.449  17.689  13.684
24174W        W96599   9.518  17.953   4.212
24175W        W96600   2.395   4.249  11.401
24176W        W96601  39.429  35.238  10.723
24177W        W96602  37.983   5.011   2.792
24178W        W96603  15.022  30.381  13.089
24179W        W96604  20.939  29.821   0.256
24180W        W96605  13.668   8.835   1.513
24181W        W96606  14.572  40.145   2.606
24182W        W96607  43.281  23.597   2.729
24183W        W96608  39.342  38.470  11.657
24184W        W96609  38.580  38.460   2.563
24185W        W96610  20.279  39.021  10.250
24186W        W96611  32.555   8.127   3.711
24187W        W96612  16.154  35.419  12.046
24188W        W96613  31.115   0.221  12.402
24189W        W96614  36.370  34.866  13.754
24190W        W96615  42.615   2.365   3.846
24191W        W96616   7.474  13.093  11.715
24192W        W96617   0.468  15.087   3.682
24193W        W96618  37.420  18.884  11.607
24194W        W96619  27.632   0.594   4.209
24195W        W96620  22.099  36.345   3.413
24196W        W96621   6.707   7.398  10.825
24197W        W96622   2.291  29.079   2.409
24198W        W96623  43.124  26.036  12.009
24199W        W96624  21.195  35.858  14.544
24200W        W96625   8.661  20.582   1.076
24201W        W96626  32.681  26.995   2.640
24202W        W96627  15.026   8.129   2.600
24203W        W96628   7.973  10.805  11.000
24204W        W96629   1.897  26.268  10.469
24205W        W96630   2.874  13.768   3.389
24206W        W96631  20.136  25.088   4.179
24207W        W96632  12.558  29.133   2.659
24208W        W96633  27.873  14.865  10.639
24209W        W96634  36.449   3.420   4.179
24210W        W96635  30.612  13.869  11.202
24211W        W96636   2.562  38.606  13.475
24212W        W96637  10.193  39.708   9.916
24213W        W96638  14.615  14.823   4.617
24214W        W96639  17.499   0.472  11.617
24215W        W96640  23.591  33.152  11.281
24216W        W96641  32.457  42.913  13.419
24217W        W96642  17.227  43.734   1.019
24218W        W96643  16.261  37.357   1.111
24219W        W96644  13.377  24.929   2.765
24220W        W96645  40.916   3.163   4.527
24221W        W96646  27.069   0.707  11.020
24222W        W96647  32.991  22.592  12.404
24223W        W96648  35.065  42.409  10.780
24224W        W96649  16.359  20.180  10.691
24225W        W96650   9.714  19.630   2.430
24226W        W96651  12.277   5.381   0.781
24227W        W96652  42.035  20.429  13.400
24228W        W96653  43.081   7.967  12.079
24229W        W96654  33.609  27.037  11.395
24230W        W96655  33.507  25.990   2.645
24231W        W96656  40.752  35.438  11.898
24232W        W96657  43.503  28.824  11.480
24233W        W96658  10.912  32.059  10.698
24234W        W96659  31.716   0.338   4.482
24235W        W96660  30.647  11.726   1.808
24236W        W96661  32.346  17.818   2.626
24237W        W96662   2.456  11.287  11.961
24238W        W96663  30.802  33.127  11.011
24239W        W96664  36.889  11.825   1.851
24240W        W96665   1.254  19.190   0.909
24241W        W96666  15.170  13.587  11.589
24242W        W96667  27.165  29.510  10.723
24243W        W96668  44.260  28.569   4.302
24244W        W96669   6.259  19.644   4.669
24245W        W96670  13.579  38.090   0.949
24246W        W96671  17.052  13.859  12.960
24247W        W96672   5.320  40.467   4.111
24248W        W96673   3.739  32.571   3.793
24249W        W96674  16.069  20.338  11.528
24250W        W96675  15.584  19.740   0.983
24251W        W96676  43.150  43.225  12.520
24252W        W96677  10.290  15.625   0.281
24253W        W96678  35.961   8.835  10.844
24254W        W96679  23.633  38.506  14.372
24255W        W96680   4.850  23.546   0.966
24256W        W96681  30.129  28.546  10.886
24257W        W96682  12.225   3.767   2.761
24258W        W96683   9.605  42.566  11.458
24259W        W96684  16.576  32.054   1.820
24260W        W96685   4.821  38.426   1.203
24261W        W96686  35.128   6.437   4.558
24262W        W96687   6.180   7.705  13.961
24263W        W96688  43.351  18.541  14.280
24264W        W96689   2.434  22.178  12.967
24265W        W96690   6.620  37.866   5.417
24266W        W96691  18.326  26.961   3.430
24267W        W96692  19.697  32.113  13.009
24268W        W96693  42.937  38.951   2.442
24269W        W96694  11.771   2.069  10.772
24270W        W96695  26.210  35.440  14.910
24271W        W96696  27.942  32.096  13.914
24272W        W96697  35.117  19.652  10.706
24273W        W96698   6.692  34.923  11.556
24274W        W96699   4.347   8.631   4.307
24275W        W96700  25.699   8.548   5.035
24276W        W96701  33.304   2.816  10.691
24277W        W96702   4.354  21.206   2.744
24278W        W96703   2.338  19.424  11.657
24279W        W96704   8.377  11.000  10.722
24280W        W96705   0.739  43.953  12.040
24281W        W96706  20.695   6.877   0.320
24282W        W96707  24.620  32.979  13.329
24283W        W96708  30.159  15.353  10.623
24284W        W96709  38.782   7.209   2.236
24285W        W96710  15.697  25.689   2.820
24286W        W96711  40.906  33.660   4.847
24287W        W96712  42.761  31.521  12.008
24288W        W96713  29.740  18.706  13.002
24289W        W96714  43.234  22.979  10.354
24290W        W96715   0.883  17.700   1.412
24291W        W96716  19.015  31.635  10.506
24292W        W96717  20.258  18.292  11.244
24293W        W96718  24.090  15.103   1.911
24294W        W96719  11.634   9.378  12.772
24295W        W96720  16.989  42.287  12.011
24296W        W96721  30.663  22.136  11.635
24297W        W96722  33.374  44.498  10.710
24298W        W96723  30.630   9.772  12.141
24299W        W96724  12.049  39.592  14.240
24300W        W96725  42.265  32.121  11.552
24301W        W96726   3.707  15.178  14.256
24302W        W96727  21.416  34.811  13.615
24303W        W96728  36.037   1.990   4.942
24304W        W96729  35.227  44.991   3.312
24305W        W96730  21.383  44.782  13.311
24306W        W96731  19.948  14.123   0.033
24307W        W96732  26.441  18.792  13.510
24308W        W96733  16.154  12.559   0.642
24309W        W96734  31.188   7.567   2.448
24310W        W96735   3.678   3.788  12.336
24311W        W96736  11.386  16.259   3.275
24312W        W96737  14.558  16.261  10.933
24313W        W96738  27.954  42.058   2.190
24314W        W96739  10.139  32.391   2.489
24315W        W96740   6.379   9.446   1.338
24316W        W96741  27.683  42.789   1.310
24317W        W96742  28.531  20.146  12.979
24318W        W96743  12.660  38.211  10.816
24319W        W96744  38.551  35.011   1.398
24320W        W96745  36.954  33.403   4.228
24321W        W96746  31.877  37.564   3.572
24322W        W96747  37.851   9.083  14.144
24323W        W96748  13.599  11.297   4.717
24324W        W96749  13.816   6.771   3.829
24325W        W96750   6.216  38.906  12.805
24326W        W96751  42.325  25.122  12.554
24327W        W96752  37.031  15.177   4.253
24328W        W96753   3.729  21.159  13.473
24329W        W96754  29.225  11.926  10.619
24330W        W96755  39.956  16.770  11.753
24331W        W96756  35.552  35.070  12.100
24332W        W96757  44.981  37.066   3.605
24333W        W96758  25.579  16.590   4.249
24334W        W96759   3.051  11.567  12.368
24335W        W96760  24.029  22.441  12.237
24336W        W96761  18.269   5.011   4.015
24337W        W96762  42.411   4.044   3.849
24338W        W96763  44.915   8.416   3.606
24339W        W96764  43.264  18.243   4.722
24340W        W96765   1.894  11.407   3.783
24341W        W96766  24.190   4.839   2.416
24342W        W96767   0.442  32.846   0.277
24343W        W96768  18.137  13.844   4.223
24344W        W96769  14.255  38.258  14.849
24345W        W96770  37.297  33.549  11.011
24346W        W96771  13.070  26.200   4.892
24347W        W96772   6.288  33.350   3.590
24348W        W96773  40.481   2.735  11.649
24349W        W96774  30.879  19.228   5.118
24350W        W96775  17.148   5.761   4.461
24351W        W96776  39.635  42.587  12.556
24352W        W96777  29.742   5.985   2.767
24353W        W96778  20.081   4.702  14.306
24354W        W96779  23.374  17.587   4.886
24355W        W96780  40.445  23.636  13.817
24356W        W96781   7.723   0.855   1.043
24357W        W96782  21.487   2.286  11.098
24358W        W96783  21.111  18.796  11.146
24359W        W96784   0.468  26.916  12.362
24360W        W96785  28.068  26.147   2.435
24361W        W96786  15.378   1.327  12.853
24362W        W96787  36.331   6.711   1.124
24363W        W96788  43.325  19.138   3.602
24364W        W96789  29.517  35.772  11.705
24365W        W96790   4.694  34.060  12.437
24366W        W96791  36.571  40.474   3.793
24367W        W96792  25.150  27.869  10.742
24368W        W96793  44.209   9.398  13.886
24369W        W96794  34.997  11.671   0.038
24370W        W96795  17.599  20.323   4.622
24371W        W96796  16.726  32.901   1.358
24372W        W96797   8.432  33.566   2.761
24373W        W96798  11.217  18.240   3.605
24374W        W96799  12.361  38.922   0.834
24375W        W96800  17.752  33.144   3.598
24376W        W96801  19.956  11.754  12.564
24377W        W96802  18.858  36.940   3.787
24378W        W96803  41.543   3.654   2.324
24379W        W96804  26.110   6.628   4.708
24380W        W96805  41.991  25.576   4.130
24381W        W96806  35.426   2.256  11.178
24382W        W96807   6.299  29.079  12.007
24383W        W96808  13.582   3.981   2.126
24384W        W96809  22.115  30.416   1.871
24385W        W96810  43.635  15.623   3.318
24386W        W96811  22.179  27.206   2.081
24387W        W96812  43.103   9.742  11.111
24388W        W96813   9.514  15.194   0.276
24389W        W96814  20.095  18.813   3.737
24390W        W96815  43.374  12.763   4.546
24391W        W96816  19.310  42.914   4.607
24392W        W96817  40.795  28.906  13.090
24393W        W96818  31.171  31.472  11.426
24394W        W96819  27.212  17.271  12.330
24395W        W96820  25.924   0.952   2.668
24396W        W96821   9.836  26.434  11.368
24397W        W96822  33.481   4.318   0.936
24398W        W96823  15.540  24.776  12.983
24399W        W96824  39.275   8.784  11.844
24400W        W96825  11.648  11.251  14.647
24401W        W96826  28.867  31.369   2.849
24402W        W96827  17.799  36.008  11.535
24403W        W96828  17.112  41.857   2.349
24404W        W96829  12.727  40.643  11.051
24405W        W96830   4.658   7.665   3.748
24406W        W96831  12.790  39.358   4.669
24407W        W96832   3.708  41.785  12.144
24408W        W96833  15.136  28.981   0.477
24409W        W96834  14.793  21.706  13.428
24410W        W96835  10.359  43.341  12.001
24411W        W96836  34.776  38.274   0.377
24412W        W96837  23.979   9.836  13.735
24413W        W96838  29.604  25.492   0.402
24414W        W96839  12.155  37.516  11.593
24415W        W96840  19.723  24.749   2.354
24416W        W96841  16.731  24.260  11.937
24417W        W96842   5.916  15.550   1.252
24418W        W96843  22.499  19.163  14.331
24419W        W96844   3.735  40.648  10.831
24420W        W96845  43.694  10.636   3.645
24421W        W96846  31.979  14.643   0.744
24422W        W96847  40.018  12.736  14.363
24423W        W96848  12.649  13.914  11.969
24424W        W96849  24.485   8.150  13.812
24425W        W96850  27.570   1.542   0.735
24426W        W96851  16.204  20.415   1.627
24427W        W96852  31.403   5.763  11.580
24428W        W96853  27.166  23.988  14.008
24429W        W96854   3.044  16.349  13.129
24430W        W96855  28.985  25.665  13.539
24431W        W96856  18.250  35.600   1.021
24432W        W96857   6.977  14.727   2.208
24433W        W96858  33.540   7.080   3.695
24434W        W96859  14.594  27.998   1.488
24435W        W96860  31.175   5.449   0.340
24436W        W96861  40.693   4.814   0.396
24437W        W96862  28.092  25.581   0.020
24438W        W96863  28.643  25.017   3.254
24439W        W96864  21.145   1.881   0.465
24440W        W96865   5.019  28.493  13.159
24441W        W96866  23.930  43.389  14.200
24442W        W96867  39.586   9.215  13.631
24443W        W96868  17.800  29.008  12.208
24444W        W96869  11.730  44.034  14.998
24445W        W96870  25.521   5.635  14.312
24446W        W96871   5.915   6.814  12.391
24447W        W96872  40.106  16.039   0.546
24448W        W96873  36.372  21.363  10.765
24449W        W96874  32.328  37.485  11.653
24450W        W96875  44.608  28.396  12.973
24451W        W96876  34.484  33.133   2.801
24452W        W96877  29.470  18.871  14.883
24453W        W96878  17.007  16.079   0.036
24454W        W96879   8.203  27.576   0.766
24455W        W96880  36.947  28.480   2.164
24456W        W96881  24.346  11.619   0.778
24457W        W96882  34.691  36.026  14.491
24458W        W96883   9.981  34.387  11.033
24459W        W96884  37.621  21.659   1.769
24460W        W96885   0.896  18.209   2.725
24461W        W96886  10.158  11.694  10.759
24462W        W96887  13.875  34.970  14.346
24463W        W96888  29.437  34.071  12.744
24464W        W96889  42.760   4.405   3.718
24465W        W96890  29.908  15.881   0.522
24466W        W96891  37.156   4.263   3.330
24467W        W96892   6.784  19.147   2.656
24468W        W96893  41.405  19.683   0.465
24469W        W96894  31.363  29.535  13.031
24470W        W96895   5.397  12.614   2.838
24471W        W96896  23.569  39.086   0.455
24472W        W96897   8.820  26.240  13.802
24473W        W96898  33.663  44.408   0.071
24474W        W96899  36.038   5.852  13.121
24475W        W96900  43.036   8.432  11.202
24476W        W96901   0.724  35.574  13.156
24477W        W96902   2.139  12.123   0.275
24478W        W96903  35.455  14.120   0.005
24479W        W96904  16.926   1.481  12.966
24480W        W96905  14.059  28.665  11.523
24481W        W96906  28.363  12.271  13.572
24482W        W96907  33.030  15.800   0.376
24483W        W96908   6.824  35.856  12.386
24484W        W96909   5.419  32.084  13.506
24485W        W96910  37.411  42.382   0.176
24486W        W96911  26.704  25.092  12.429
24487W        W96912   6.920  30.013   4.121
24488W        W96913   1.832  37.796  13.152
24489W        W96914  22.212  29.137  13.755
24490W        W96915  20.225  28.402  14.146
24491W        W96916  42.766  18.149   2.591
24492W        W96917   5.614  12.511   4.145
24493W        W96918   1.269   8.761   4.588
24494W        W96919  43.898  24.822   2.010
24495W        W96920  26.268  23.055  14.931
24496W        W96921  39.278  39.898  13.263
24497W        W96922  19.872  40.032  14.899
24498W        W96923   7.919  18.199  11.897
24499W        W96924  17.732  16.242  10.431
24500W        W96925  43.068  27.434   2.001
24501W        W96926  43.958  31.084  11.626
24502W        W96927  25.071   6.975  14.282
24503W        W96928  44.894  21.718   0.830
24504W        W96929  43.846   0.980  13.408
24505W        W96930  40.610  10.248  13.425
24506W        W96931   2.872  21.212  11.545
24507W        W96932  37.330   9.823   4.896
24508W        W96933  22.957   4.166  11.850
24509W        W96934   8.662  21.527   2.603
24510W        W96935   1.272  33.450   3.267
24511W        W96936  21.713   5.026   4.545
24512W        W96937   1.427  23.667  11.462
24513W        W96938  27.580   5.957  10.260
24514W        W96939  41.629   6.174   5.023
24515W        W96940  41.592  39.349  11.206
24516W        W96941  20.953  32.146   4.240
24517W        W96942  27.998  38.582   4.992
24518W        W96943   8.724  40.724   1.995
24519W        W96944  10.628  26.215   3.919
24520W        W96945  44.208  44.745   2.410
24521W        W96946  24.042  17.584  10.726
24522W        W96947  24.938  28.024   4.056
24523W        W96948  41.897   6.712   4.301
24524W        W96949  32.841  36.734  13.487
24525W        W96950  18.126  19.190  13.986
24526W        W96951   6.354  23.224  11.620
24527W        W96952  27.146   9.893   2.354
24528W        W96953   3.229  27.424  14.737
24529W        W96954  27.653  24.931  14.017
24530W        W96955  30.666   7.742   2.340
24531W        W96956  43.979  30.433  13.941
24532W        W96957  42.926  20.714  10.644
24533W        W96958  11.891  11.755  11.893
24534W        W96959  21.108  11.516  12.025
24535W        W96960  11.253  22.589   0.917
24536W        W96961   1.981  42.934  12.283
24537W        W96962  25.586  17.710  13.056
24538W        W96963  29.053  40.022   4.679
24539W        W96964  43.453  33.184  13.028
24540W        W96965  17.624   8.897   1.918
24541W        W96966  30.584  27.199   2.162
24542W        W96967  40.763  42.426   1.843
24543W        W96968  14.875  14.255  12.622
24544W        W96969  24.125  42.737  13.334
24545W        W96970  16.283  37.382  11.551
24546W        W96971  41.381  31.334   1.644
24547W        W96972  13.796  18.134   0.179
24548W        W96973  13.166  19.820  13.783
24549W        W96974  29.478  19.146  12.856
24550W        W96975  12.323  10.682  14.849
24551W        W96976  11.205   2.278  13.930
24552W        W96977  35.594  27.051   1.309
24553W        W96978   3.167  22.725   0.900
24554W        W96979   7.207  11.359  12.077
24555W        W96980  18.236  44.393   3.756
24556W        W96981  27.312  17.131  10.820
24557W        W96982   2.994  34.363  14.476
24558W        W96983  13.918  42.019  11.095
24559W        W96984  26.192   6.742  11.188
24560W        W96985   4.223  24.198   0.525
24561W        W96986  43.353  44.118  12.586
24562W        W96987  38.592  26.709  14.763
24563W        W96988  20.717   7.693   1.324
24564W        W96989   5.014  27.580  11.173
24565W        W96990  37.455   8.866  12.455
24566W        W96991  30.641  15.363   3.675
24567W        W96992  24.625   7.267  10.684
24568W        W96993  29.001  24.896  11.673
24569W        W96994  31.833  12.614  14.808
24570W        W96995   0.486  40.748  14.114
24571W        W96996  15.154  34.045   3.087
24572W        W96997  25.028  34.954   3.626
24573W        W96998  32.375   9.754  12.516
24574W        W96999  11.181   5.539  13.870
24575W        W97000  31.675   3.661   1.439
24576W        W97001   5.101  41.500  14.450
24577W        W97002  16.279   5.545   4.823
24578W        W97003  17.815  43.557  13.869
24579W        W97004   3.822  42.235   1.155
24580W        W97005  17.223  20.099   0.871
24581W        W97006  23.498  19.639   3.650
24582W        W97007  20.237  26.737  14.989
24583W        W97008   9.340  27.701   3.577
24584W        W97009  37.643  38.415  13.896
24585W        W97010  11.382  21.690   1.311
24586W        W97011  34.152  44.373   2.730
24587W        W97012  32.885  19.338   4.326
24588W        W97013  37.438  32.585  12.079
24589W        W97014  14.207  44.369   2.384
24590W        W97015  15.237  35.990  14.410
24591W        W97016  30.073   8.752   3.408
24592W        W97017  28.941  26.454  14.928
24593W        W97018  18.493  42.603  11.993
24594W        W97019  43.820  16.700   3.145
24595W        W97020   4.945   8.185  12.162
24596W        W97021  43.722  36.082  14.286
24597W        W97022   9.678  27.998  13.367
24598W        W97023  19.609  16.730  14.934
24599W        W97024  30.050   2.336  12.441
24600W        W97025   6.756  37.354   9.809
24601W        W97026  42.993   7.374   4.011
24602W        W97027  38.928  31.433  13.622
24603W        W97028   7.128   0.453   1.730
24604W        W97029  43.917  42.861   3.621
24605W        W97030  24.200   6.191   4.569
24606W        W97031  31.533  23.949  13.738
24607W        W97032  30.015  17.246  13.198
24608W        W97033  15.426  25.454   4.536
24609W        W97034   3.357   9.354   1.962
24610W        W97035  18.692   5.324   0.348
24611W        W97036  12.036   5.119   2.659
24612W        W97037  23.968  29.841   4.985
24613W        W97038   9.117  12.631   3.358
24614W        W97039   4.730  26.776   2.360
24615W        W97040   6.744  29.722   0.165
24616W        W97041  21.205  10.864  13.985
24617W        W97042  28.056  20.835  12.987
24618W        W97043  36.593  34.617  13.338
24619W        W97044  13.248   3.857   4.919
24620W        W97045  32.223  44.501  11.506
24621W        W97046  42.492  36.544  14.561
24622W        W97047  15.750   8.771   0.844
24623W        W97048  22.280  44.089   0.926
24624W        W97049  15.402  43.225   4.390
24625W        W97050   3.888   9.261  14.303
24626W        W97051  37.224  29.110   3.352
24627W        W97052  33.401  24.958   3.648
24628W        W97053   6.420  18.283  10.803
24629W        W97054  44.621  15.061  11.974
24630W        W97055  24.246  30.835  12.401
24631W        W97056   9.696  17.311  14.438
24632W        W97057  27.437  19.063   2.305
24633W        W97058  13.154  24.942  12.925
24634W        W97059  13.117  30.901   3.148
24635W        W97060  31.137  10.829  12.459
24636W        W97061  32.154  37.359  10.915
24637W        W97062  34.801   1.754  12.762
24638W        W97063  20.049  31.147   2.343
24639W        W97064  25.984  39.576  11.060
24640W        W97065  41.858  42.368   3.682
24641W        W97066  43.897   5.470   0.426
24642W        W97067  21.078  13.066  11.129
24643W        W97068  20.680  43.586   2.752
24644W        W97069  38.998  38.993   5.144
24645W        W97070   1.219  10.665   2.772
24646W        W97071   8.729   2.203   0.351
24647W        W97072   7.975   3.450  12.467
24648W        W97073  39.911   6.376   4.189
24649W        W97074  23.588   9.313   0.987
24650W        W97075  15.111  22.650   0.858
24651W        W97076  31.018  19.434  13.903
24652W        W97077  34.896   4.328   0.191
24653W        W97078   5.842  37.691   0.393
24654W        W97079  38.628  26.552  12.392
24655W        W97080  21.484  31.621   2.923
24656W        W97081  42.232  24.675  13.650
24657W        W97082  37.598  42.270  14.155
24658W        W97083  40.896  40.291  12.882
24659W        W97084  16.767  26.666  11.149
24660W        W97085  15.237  32.306  12.388
24661W        W97086  20.065  40.909   0.664
24662W        W97087   2.606   4.727   3.258
24663W        W97088  29.695  30.615  12.037
24664W        W97089   3.336  27.228   2.605
24665W        W97090  10.534  10.788  11.984
24666W        W97091  16.239  19.157  13.545
24667W        W97092   9.356  36.334   2.872
24668W        W97093  22.460  12.129   0.909
24669W        W97094  12.816   2.642   5.140
24670W        W97095  10.371  42.548  11.008
24671W        W97096   9.864  17.774  14.964
24672W        W97097  14.625  30.992   1.628
24673W        W97098  32.164   5.826   3.002
24674W        W97099  26.504   5.502  12.884
24675W        W97100  38.168  22.062   2.837
24676W        W97101  43.510   1.729   1.797
24677W        W97102  35.684  27.207  12.079
24678W        W97103   0.344  44.084  11.438
24679W        W97104  14.383  38.270  14.000
24680W        W97105  23.571  43.768  12.160
24681W        W97106  19.928  31.231  10.804
24682W        W97107  43.489  11.722   1.273
24683W        W97108   3.189   2.219   2.745
24684W        W97109  21.055  37.531  11.194
24685W        W97110  18.126  29.192   1.243
24686W        W97111   9.693  38.157  11.619
24687W        W97112   0.442   3.575  13.896
24688W        W97113  44.222  29.423   1.335
24689W        W97114  26.761  42.350  12.114
24690W        W97115  18.337  26.988  13.931
24691W        W97116  44.274  23.432   4.484
24692W        W97117  19.726   6.152   4.531
24693W        W97118  37.382   1.187  11.923
24694W        W97119  19.748  12.767  10.987
24695W        W97120  30.505   5.609   2.808
24696W        W97121  28.518   2.918  14.040
24697W        W97122  15.027  23.515   2.307
24698W        W97123  39.959  42.944   4.771
24699W        W97124  11.614  29.956  13.778
24700W        W97125  10.554  21.595  11.623
24701W        W97126  26.962   3.123   5.098
24702W        W97127  29.708  16.373   4.790
24703W        W97128  43.356  11.736  14.388
24704W        W97129  23.066  33.991   0.635
24705W        W97130  26.109  10.706  13.605
24706W        W97131  26.081  31.086  14.526
24707W        W97132  33.826  16.762  14.244
24708W        W97133  29.183  19.661   3.770
24709W        W97134   2.225  21.209   3.101
24710W        W97135  17.701  17.272  14.872
24711W        W97136   5.537  31.447   1.315
24712W        W97137  20.248  43.217   0.327
24713W        W97138   8.835  23.310  12.118
24714W        W97139  13.710   8.671   0.451
24715W        W97140  34.754  32.006   2.706
24716W        W97141  41.939  11.392   3.622
24717W        W97142  32.322  27.086  14.499
24718W        W97143  25.249  43.011   0.988
24719W        W97144   3.979  26.365  10.776
24720W        W97145  34.456  41.382   0.153
24721W        W97146  43.280  35.568  11.828
24722W        W97147   3.703  17.300   1.405
24723W        W97148   9.718  20.243  12.610
24724W        W97149  25.456  14.610  10.805
24725W        W97150  39.492  24.906   1.894
24726W        W97151  23.897  13.774  14.524
24727W        W97152   9.136  42.372  11.363
24728W        W97153   7.986  36.598  12.476
24729W        W97154  22.642  26.188  12.120
24730W        W97155   7.876  24.032   2.447
24731W        W97156  44.303   3.677  12.948
24732W        W97157  24.854  33.401   3.419
24733W        W97158  21.230  11.357   4.143
24734W        W97159  19.190  16.744  13.544
24735W        W97160  31.225  18.066  14.070
24736W        W97161   9.890   6.257   4.570
24737W        W97162  44.346   3.187  13.059
24738W        W97163  29.518   7.675   2.993
24739W        W97164  18.175  43.981   4.597
24740W        W97165  27.901  42.436  13.112
24741W        W97166   1.978   2.295   1.997
24742W        W97167  13.789  21.160  14.951
24743W        W97168  25.026  24.469  11.712
24744W        W97169  32.999   8.363   3.396
24745W        W97170  24.473  39.858  11.942
24746W        W97171   5.217  39.970   2.065
24747W        W97172  23.245  33.214  13.323
24748W        W97173   3.207   1.825  11.200
24749W        W97174   6.490   0.077   0.862
24750W        W97175  20.835   4.832  14.723
24751W        W97176  15.680  31.822   1.052
24752W        W97177  25.089  31.076   3.917
24753W        W97178  26.131  29.176   0.896
24754W        W97179  42.926  36.694   2.142
24755W        W97180  29.104  18.673   2.822
24756W        W97181  44.854  13.179   2.438
24757W        W97182  42.415  27.559   1.470
24758W        W97183  27.674  32.237  11.558
24759W        W97184  32.246  35.464  10.528
24760W        W97185  33.544  16.940   0.344
24761W        W97186  30.679  35.514   0.874
24762W        W97187  31.102  27.710  11.105
24763W        W97188  15.760   1.843  10.209
24764W        W97189   3.210  19.355  12.755
24765W        W97190  13.241  22.544  12.986
24766W        W97191  12.140   1.649  10.912
24767W        W97192  25.041   5.864  11.124
24768W        W97193  13.363  21.075  11.520
24769W        W97194   0.725  34.060  14.581
24770W        W97195  23.844  14.020  12.969
24771W        W97196  17.406  37.455  13.177
24772W        W97197   9.569  38.084  14.881
24773W        W97198  14.905  34.100  13.009
24774W        W97199  35.993  40.920   3.267
24775W        W97200  22.804  14.609   3.202
24776W        W97201  33.865  23.958   3.276
24777W        W97202  36.633   1.830  13.786
24778W        W97203  33.603  18.846   4.960
24779W        W97204  44.852  29.100   1.894
24780W        W97205   4.450  25.610  13.224
24781W        W97206  44.524  33.319   2.253
24782W        W97207  14.760   1.540  11.162
24783W        W97208  13.270  30.823  11.155
24784W        W97209   0.784   1.708   0.737
24785W        W97210  23.096  20.630   3.295
24786W        W97211  31.370  21.282  11.606
24787W        W97212  24.066  39.045   4.108
24788W        W97213  38.180  38.299   0.726
24789W        W97214  30.955  16.062   2.224
24790W        W97215   0.407  27.433   2.905
24791W        W97216   0.848  34.109  13.022
24792W        W97217  31.455  11.222   2.652
24793W        W97218  19.231  22.791  10.775
24794W        W97219  14.361  32.449   2.891
24795W        W97220  26.003  17.043  12.916
24796W        W97221  25.855  26.149   1.886
24797W        W97222  24.709  32.872   3.793
24798W        W97223  27.180   7.944  11.103
24799W        W97224  41.419  33.585   4.149
24800W        W97225  15.314  27.566   4.799
24801W        W97226  25.153   7.317  12.846
24802W        W97227  32.087  36.305  12.773
24803W        W97228  29.982  29.415   4.218
24804W        W97229  39.343   9.380   3.721
24805W        W97230  21.968   4.070  11.069
24806W        W97231  44.514  36.535   1.958
24807W        W97232  17.171  31.174  14.313
24808W        W97233  29.654  34.495  12.964
24809W        W97234  35.210  40.899  12.520
24810W        W97235  20.221  32.541   2.715
24811W        W97236  13.108  43.764  14.014
24812W        W97237  11.722  15.822   4.566
24813W        W97238  30.740  18.532   0.294
24814W        W97239  15.110  41.329  14.457
24815W        W97240  41.868  14.859   1.206
24816W        W97241   1.873  36.832   1.992
24817W        W97242   4.732  38.405  14.816
24818W        W97243  28.689   7.203  10.653
24819W        W97244  21.270  28.462  13.006
24820W        W97245   2.218  12.860   3.810
24821W        W97246   2.313  33.210   0.611
24822W        W97247  26.149   1.809   4.751
24823W        W97248  11.306  42.995   0.683
24824W        W97249   5.937  42.818  11.160
24825W        W97250  24.646  31.278   4.708
24826W        W97251  31.892  40.023   3.694
24827W        W97252  35.891  32.609  14.361
24828W        W97253  40.265  11.170   2.217
24829W        W97254  22.026   3.256  12.815
24830W        W97255  17.702   6.005  14.554
24831W        W97256  33.557  25.198   3.204
24832W        W97257  25.085  41.841  11.957
24833W        W97258   3.792  15.275  11.797
24834W        W97259  35.155  37.625   2.210
24835W        W97260  13.236  36.632   2.307
24836W        W97261  37.605  26.893   3.626
24837W        W97262  17.255  14.588   3.738
24838W        W97263   7.427  28.744  11.538
24839W        W97264  42.696  10.993  12.927
24840W        W97265  28.456  42.607  10.458
24841W        W97266  39.972  36.618   1.212
24842W        W97267  11.883  17.354  11.030
24843W        W97268  23.130  38.039  11.042
24844W        W97269  11.429  10.130  14.581
24845W        W97270  13.407  25.240   4.259
24846W        W97271  24.688  12.397  12.820
24847W        W97272  39.247  18.066  13.925
24848W        W97273  20.293  22.658   2.907
24849W        W97274   1.013  15.588   3.166
24850W        W97275   8.653  14.165   4.606
24851W        W97276  13.140  42.778   3.522
24852W        W97277  15.379  28.614   2.821
24853W        W97278  21.616  44.191  14.876
24854W        W97279  38.566  19.106   4.669
24855W        W97280  41.865  40.258  12.447
24856W        W97281   4.883   6.395  10.117
24857W        W97282  25.583  32.957  13.579
24858W        W97283   6.673   7.643  13.868
24859W        W97284  18.143  21.003   1.015
24860W        W97285  43.922   3.815  14.501
24861W        W97286   4.291  21.009   0.949
24862W        W97287   4.732  14.426  11.592
24863W        W97288  30.848  32.197  11.666
24864W        W97289   8.239  10.166   3.663
24865W        W97290   7.862  30.043   1.944
24866W        W97291  13.211  44.658   2.790
24867W        W97292  28.172  22.120   4.591
24868W        W97293  37.050   8.278   4.648
24869W        W97294  37.034  15.702   3.661
24870W        W97295  19.134  36.562   1.372
24871W        W97296  23.612  39.275  14.963
24872W        W97297  26.986  29.734  14.844
24873W        W97298  21.915  23.041  11.266
24874W        W97299  14.580  37.290  13.025
24875W        W97300  33.140   4.297   3.296
24876W        W97301  42.441   4.240   4.328
24877W        W97302   3.646  25.335   0.777
24878W        W97303  31.984   1.780  12.833
24879W        W97304  43.421  28.339   3.689
24880W        W97305  29.922  17.920  11.547
24881W        W97306  11.109  36.944   2.780
24882W        W97307  27.844  43.110   4.347
24883W        W97308  26.616   7.641  11.897
24884W        W97309   7.144  28.460  11.916
24885W        W97310  16.676   0.475   2.827
24886W        W97311  19.542  30.567   3.065
24887W        W97312  30.938  30.905   2.243
24888W        W97313  33.404  32.078   4.654
24889W        W97314  39.393  32.555   4.105
24890W        W97315   0.699   6.885  12.070
24891W        W97316  34.157  24.558  11.188
24892W        W97317  23.042  15.319  12.111
24893W        W97318  23.294  14.086   4.258
24894W        W97319  13.247  34.319  14.028
24895W        W97320  37.297   9.219   1.807
24896W        W97321  42.731  16.078   2.216
24897W        W97322   9.083  39.064   1.409
24898W        W97323  13.728  27.491  11.127
24899W        W97324  30.093  43.753   0.728
24900W        W97325  17.058  18.855   1.615
24901W        W97326  16.586  11.429   1.327
24902W        W97327   5.694   7.105  14.209
24903W        W97328  15.314  40.980   4.834
24904W        W97329   7.848  42.158  11.148
24905W        W97330  13.270  25.190  11.478
24906W        W97331   8.647  19.816  13.995
24907W        W97332   9.734  15.121   1.956
24908W        W97333   3.258   5.668  14.548
24909W        W97334   8.598  33.493  13.872
24910W        W97335  24.491  43.528   2.614
24911W        W97336  43.438   2.300  14.536
24912W        W97337   5.918   4.106  14.043
24913W        W97338   7.407  38.575   1.334
24914W        W97339  16.670   5.689  13.558
24915W        W97340  16.762  27.288   1.724
24916W        W97341  36.537  19.650   3.628
24917W        W97342   0.936  40.347   0.718
24918W        W97343   0.277  38.579  11.525
24919W        W97344  43.990  39.472  11.518
24920W        W97345   0.876   8.684  11.631
24921W        W97346   7.733   0.515  12.046
24922W        W97347  20.839  16.595   2.341
24923W        W97348  28.680  36.110  12.121
24924W        W97349  12.551  27.660  13.429
24925W        W97350  25.229  43.386   3.858
24926W        W97351  18.134  22.248  10.914
24927W        W97352  22.228  37.832  14.792
24928W        W97353  38.343   2.616   0.766
24929W        W97354  36.937  37.865  12.135
24930W        W97355   5.395  41.094   2.661
24931W        W97356  38.332  37.287  11.144
24932W        W97357  21.046  10.223   2.344
24933W        W97358  12.439  40.404  11.953
24934W        W97359   1.589   2.010  14.393
24935W        W97360  25.209  16.791   3.705
24936W        W97361  25.284  13.720   0.871
24937W        W97362   1.263  36.316   1.313
24938W        W97363  44.557  25.717  12.174
24939W        W97364   6.088  34.070   2.824
24940W        W97365  10.656  16.826   1.383
24941W        W97366  12.252  24.765  12.656
24942W        W97367  22.283   4.863  12.103
24943W        W97368   9.958  11.550  12.960
24944W        W97369  11.509   3.839  10.407
24945W        W97370  41.992  17.541   2.661
24946W        W97371  36.912  16.409  10.833
24947W        W97372   5.912  28.641  13.394
24948W        W97373  33.259  38.127  14.496
24949W        W97374  30.606  30.505   3.933
24950W        W97375  25.287  37.149  12.919
24951W        W97376  44.332   0.480   3.760
24952W        W97377   7.399  15.447   3.780
24953W        W97378  32.438  16.114   4.134
24954W        W97379  37.123   1.253   4.271
24955W        W97380  16.969  26.099  14.401
24956W        W97381  10.781  38.179   1.350
24957W        W97382  37.528  36.932  13.309
24958W        W97383  37.432  35.407   1.437
24959W        W97384  34.868  23.582   5.018
24960W        W97385   9.681  36.868  10.321
24961W        W97386   3.416   3.510   0.799
24962W        W97387  37.598  44.805  14.801
24963W        W97388  15.811  40.068   1.889
24964W        W97389  34.801  14.007  11.934
24965W        W97390   9.446  22.831   3.740
24966W        W97391  36.434   8.930  14.807
24967W        W97392   7.317  10.765  10.952
24968W        W97393  35.078  22.313  12.056
24969W        W97394  32.350  36.135   1.226
24970W        W97395  42.647  12.140  14.916
24971W        W97396  38.759   3.818  14.522
24972W        W97397  34.834  25.164  14.957
24973W        W97398   0.347   9.103  10.929
24974W        W97399  27.069   4.812  11.693
24975W        W97400  19.342   6.247  14.557
24976W        W97401   0.782  43.237  12.927
24977W        W97402  39.949  13.645  13.610
24978W        W97403  18.856  41.327   5.187
24979W        W97404  23.558   5.013  12.902
24980W        W97405  33.395  16.228   3.366
24981W        W97406   7.083  39.967  13.613
24982W        W97407   6.242  11.392   3.852
24983W        W97408  25.120  28.993   2.304
24984W        W97409  34.935  33.396   2.813
24985W        W97410  43.975   9.958   4.175
24986W        W97411  42.480  17.374  12.483
24987W        W97412  15.222   3.982  12.045
24988W        W97413   8.610  40.559  11.861
24989W        W97414  43.336  29.165   2.371
24990W        W97415  40.443   7.458   3.621
24991W        W97416  20.290   4.005   3.198
24992W        W97417  10.234   3.886   4.971
24993W        W97418  28.491  44.212   1.289
24994W        W97419  14.242  20.798  12.717
24995W        W97420  33.235  37.992  10.416
24996W        W97421   4.132  37.011   0.845
24997W        W97422   3.300  23.041  14.622
24998W        W97423  36.516  38.126   0.883
24999W        W97424  27.137   6.163  13.851
25000W        W97425  31.519  42.546  14.240
25001W        W97426   2.251   6.390  13.451
25002W        W97427  20.492  23.731   2.203
25003W        W97428  11.145  24.541   0.444
25004W        W97429  35.505  20.864   5.103
25005W        W97430  31.050   1.310  12.874
25006W        W97431  41.524  40.384   3.248
25007W        W97432   5.146  43.336  11.277
25008W        W97433  42.335  35.130  12.056
25009W        W97434  39.901   9.607   2.362
25010W        W97435  26.213  33.901  10.565
25011W        W97436  40.722   9.862  14.790
25012W        W97437  44.024  33.135   0.845
25013W        W97438  16.388  21.582   2.231
25014W        W97439  25.995  16.550   0.705
25015W        W97440  23.131  26.249  10.474
25016W        W97441  15.728   8.393   4.957
25017W        W97442   5.857  31.303  12.560
25018W        W97443  11.546  18.259   2.138
25019W        W97444   8.847  19.313   3.633
25020W        W97445   1.219  16.671  10.742
25021W        W97446   5.760  36.387  11.018
25022W        W97447  16.477  30.906   1.331
25023W        W97448  34.391  29.674   2.141
25024W        W97449  40.317  20.010  13.860
25025W        W97450  23.446  40.080   0.222
25026W        W97451  38.097  16.749  12.054
25027W        W97452  17.129  15.741  14.220
25028W        W97453  28.786  11.638  10.604
25029W        W97454   9.052  18.694  14.817
25030W        W97455  21.839  23.838  12.511
25031W        W97456  14.647   9.347  11.474
25032W        W97457  21.493  18.666  15.000
25033W        W97458  43.459  37.841   2.358
25034W        W97459  26.034  39.713   1.770
25035W        W97460  34.928  42.906   3.183
25036W        W97461   4.272   3.439   0.052
25037W        W97462  23.997  24.786  12.078
25038W        W97463  18.520  37.569  12.030
25039W        W97464  29.127   4.743  10.697
25040W        W97465  31.520  17.499  12.375
25041W        W97466  37.856  30.432   4.864
25042W        W97467   1.750  32.261   4.620
25043W        W97468  34.092  40.592   2.016
25044W        W97469  11.857  15.098  11.601
25045W        W97470  39.282  11.209  10.460
25046W        W97471   0.887  31.590  10.663
25047W        W97472   6.133  22.766  10.791
25048W        W97473  25.353  29.894   1.286
25049W        W97474   6.347  39.342   3.627
25050W        W97475  34.156   1.478   1.911
25051W        W97476  13.880  14.108   3.306
25052W        W97477   1.485  22.193   1.421
25053W        W97478  27.922  41.838  10.706
25054W        W97479  24.845  38.441  11.047
25055W        W97480  31.121   7.049   0.300
25056W        W97481  34.967  34.836  12.916
25057W        W97482  40.840  22.740   3.159
25058W        W97483  30.117  33.421  12.625
25059W        W97484  41.564   2.884   0.450
25060W        W97485  40.847  31.663  11.084
25061W        W97486  19.169  30.032  10.286
25062W        W97487   4.370  39.290  12.624
25063W        W97488  28.064  33.609   0.569
25064W        W97489  19.208  35.941   0.811
25065W        W97490  10.650  35.826  12.429
25066W        W97491  15.876   9.319  14.854
25067W        W97492  29.120   0.650  14.900
25068W        W97493  41.392  31.403  12.330
25069W        W97494  29.698  34.929   0.707
25070W        W97495  13.067  33.283   2.893
25071W        W97496   8.910  25.040   0.789
25072W        W97497   8.058   7.958  12.374
25073W        W97498   8.363   2.320  14.986
25074W        W97499  41.007  43.861  13.118
25075W        W97500  42.584  41.335  11.150
25076W        W97501   3.763  13.812   4.543
25077W        W97502  16.762  31.474  12.574
25078W        W97503  21.271  22.554  11.008
25079W        W97504  36.945  31.998  14.836
25080W        W97505  28.273   8.912  14.127
25081W        W97506  38.393  22.266  12.015
25082W        W97507  41.251  22.137   0.079
25083W        W97508  13.420  44.769  13.399
25084W        W97509  29.201  29.703  11.212
25085W        W97510  10.591  19.680  12.986
25086W        W97511  18.982   5.305  14.263
25087W        W97512   1.291  43.014  12.973
25088W        W97513  40.907  35.356   1.943
25089W        W97514  14.634  19.603   5.082
25090W        W97515  28.577  33.090  11.297
25091W        W97516  10.115  40.083   4.722
25092W        W97517  15.777  42.821  14.308
25093W        W97518  38.201  18.453   4.439
25094W        W97519  35.735  10.874   1.465
25095W        W97520  35.163   4.921   4.101
25096W        W97521   1.890  33.883   4.617
25097W        W97522   1.111   2.346   2.370
25098W        W97523  44.388  33.698   4.989
25099W        W97524   0.889  22.661  13.734
25100W        W97525   2.161  25.715   4.147
25101W        W97526  38.823  22.980   2.209
25102W        W97527  22.467  35.374   4.057
25103W        W97528  26.976   6.809  12.995
25104W        W97529  19.554  11.921   2.801
25105W        W97530  21.768  14.082   4.122
25106W        W97531  13.681  35.775  10.621
25107W        W97532   3.175  12.816  12.032
25108W        W97533  43.406  12.938   2.104
25109W        W97534  23.247  44.860   1.463
25110W        W97535  35.821   9.682   2.776
25111W        W97536  42.602  22.268   4.528
25112W        W97537  18.734  36.489   1.944
25113W        W97538   0.411  36.509   0.749
25114W        W97539  32.336  44.420   1.502
25115W        W97540   6.326  22.171  12.548
25116W        W97541  39.042  42.205  10.616
25117W        W97542  18.261  23.048  13.962
25118W        W97543  25.666  35.910   4.171
25119W        W97544  10.858  22.531   2.283
25120W        W97545  34.814  30.896  11.082
25121W        W97546  37.480  38.995   0.859
25122W        W97547   8.356  16.607  14.947
25123W        W97548   0.799  27.717   2.108
25124W        W97549  12.737   3.251   0.892
25125W        W97550   4.324  11.245  12.661
25126W        W97551  20.234  31.751  12.358
25127W        W97552  20.404  24.966  10.177
25128W        W97553  17.601  33.978   2.094
25129W        W97554  17.284   0.934   1.776
25130W        W97555  24.093   3.018  12.008
25131W        W97556  24.237   7.652   3.116
25132W        W97557  27.983  14.697   1.319
25133W        W97558  12.828   6.360  14.559
25134W        W97559  37.122   7.848   1.303
25135W        W97560  10.399  37.801   4.087
25136W        W97561  27.075  31.021   4.661
25137W        W97562  23.554  42.439   4.335
25138W        W97563  12.304   8.256  12.725
25139W        W97564  19.101   1.440  13.376
25140W        W97565  23.915  13.192  14.935
25141W        W97566  16.142  43.857  11.992
25142W        W97567  20.837  14.573   4.135
25143W        W97568  27.922  42.294   0.899
25144W        W97569  22.297  41.420  14.510
25145W        W97570  42.392  35.514  14.495
25146W        W97571  43.774  38.703   1.302
25147W        W97572   7.435  44.954   3.654
25148W        W97573   1.683  27.544   4.609
25149W        W97574   9.117   5.021  12.917
25150W        W97575  38.820  24.522  12.061
25151W        W97576  19.200  41.686   0.404
25152W        W97577   4.826  34.036  10.867
25153W        W97578  27.595  37.924  13.568
25154W        W97579  40.262  30.646  12.551
25155W        W97580  31.645  35.537   1.438
25156W        W97581  27.740  40.891   4.356
25157W        W97582  12.365   2.902   4.723
25158W        W97583  38.053  39.392  13.023
25159W        W97584  21.754   3.902   3.311
25160W        W97585   6.649  17.636  12.080
25161W        W97586  25.140   4.511   1.335
25162W        W97587  40.857   5.402  14.361
25163W        W97588  32.939  27.726   1.149
25164W        W97589  40.901  28.285   0.884
25165W        W97590  36.391  21.617   1.422
25166W        W97591  13.134   3.797   1.972
25167W        W97592  34.363   9.012  14.819
25168W        W97593  10.794   3.375  14.568
25169W        W97594  41.576  13.006  11.663
25170W        W97595  32.496  42.302  13.335
25171W        W97596  36.334  24.498   4.164
25172W        W97597  35.326  10.710   0.798
25173W        W97598   9.177  22.680  14.037
25174W        W97599  19.195  41.831   2.266
25175W        W97600   6.969  37.044  11.130
25176W        W97601  33.817  30.960   0.047
25177W        W97602  17.962  41.190  10.979
25178W        W97603  18.675  33.414   4.804
25179W        W97604  35.735   0.049  11.800
25180W        W97605  15.326  13.705  13.723
25181W        W97606  31.905  13.133   4.717
25182W        W97607  18.018  32.581   2.330
25183W        W97608  37.414  17.813   4.300
25184W        W97609  23.884   7.191  10.635
25185W        W97610  11.380   6.499  14.795
25186W        W97611  27.018  35.750  10.675
25187W        W97612  42.050  25.924   1.919
25188W        W97613  17.308  21.149  10.673
25189W        W97614  14.771  28.111   2.510
25190W        W97615  10.878  12.011  12.413
25191W        W97616  22.795  16.759   3.753
25192W        W97617  25.808  12.348  10.305
25193W        W97618  43.394  15.634   2.843
25194W        W97619  15.617  41.971  14.806
25195W        W97620  36.999  16.699  11.644
25196W        W97621  34.126  32.679  13.315
25197W        W97622   3.745  36.728  12.190
25198W        W97623  24.767   3.420   3.193
25199W        W97624   2.151  21.414  12.799
25200W        W97625  11.408  15.661   5.118
25201W        W97626  22.644  32.583  11.189
25202W        W97627  43.319   7.362   0.257
25203W        W97628  44.074   2.436   3.849
25204W        W97629  43.871   7.748  14.374
25205W        W97630  21.705  37.537  10.738
25206W        W97631  18.501  32.408   4.595
25207W        W97632   7.354  25.497   0.666
25208W        W97633  25.591  39.207  11.136
25209W        W97634  19.798   8.694  14.744
25210W        W97635   1.538  21.295   1.353
25211W        W97636   2.679  37.727  14.594
25212W        W97637   0.464  16.964   4.486
25213W        W97638  20.341  15.581   4.186
25214W        W97639  24.948  10.728  13.569
25215W        W97640  33.456   8.461   3.999
25216W        W97641  22.728   9.313  14.103
25217W        W97642  29.411  12.431   3.360
25218W        W97643  20.841  22.034  12.012
25219W        W97644  37.272  41.440  14.675
25220W        W97645  34.970   8.513   1.244
25221W        W97646  15.497  31.885   1.858
25222W        W97647  10.693   7.544   0.941
25223W        W97648  34.446  40.868   0.993
25224W        W97649  27.570  38.298   1.567
25225W        W97650  27.088  17.777   1.931
25226W        W97651  11.754  43.369  10.715
25227W        W97652  31.382   7.397  12.639
25228W        W97653  35.225   4.291  14.355
25229W        W97654  30.714   3.796  12.445
25230W        W97655  37.869  43.969   1.819
25231W        W97656  25.245  15.161  11.893
25232W        W97657  20.840  36.044  10.902
25233W        W97658   4.853  34.539  14.733
25234W        W97659  42.941  38.332  14.390
25235W        W97660  29.321  36.684  13.975
25236W        W97661  27.967   0.817  13.848
25237W        W97662   8.643  36.567  11.983
25238W        W97663   3.370  17.355  14.082
25239W        W97664   1.746  23.763   1.833
25240W        W97665   2.964   5.896   4.087
25241W        W97666  30.867  24.678   3.763
25242W        W97667  21.728  10.341   2.865
25243W        W97668   8.194  27.070  12.053
25244W        W97669  36.830   2.874   2.374
25245W        W97670  32.995  39.113   2.575
25246W        W97671  32.034  36.338  12.248
25247W        W97672   6.585  27.658   4.029
25248W        W97673  43.079   4.945  13.937
25249W        W97674  35.328  15.974  10.991
25250W        W97675  13.107   6.214   3.536
25251W        W97676   2.814  29.035   0.302
25252W        W97677  36.323   2.028  11.449
25253W        W97678  28.143   2.618  14.295
25254W        W97679  15.746   9.293   4.547
25255W        W97680   2.633  41.997   2.812
25256W        W97681  24.683   4.693  12.993
25257W        W97682  24.771  31.354  11.211
25258W        W97683  23.033  27.916  12.066
25259W        W97684  33.817  23.557  14.277
25260W        W97685  21.408  29.352   3.853
25261W        W97686  34.581   0.965   0.927
25262W        W97687  10.728   6.309   5.050
25263W        W97688  14.972   5.321   4.204
25264W        W97689  44.347  25.772  13.452
25265W        W97690   0.462   4.429  14.942
25266W        W97691   6.198   9.854  12.818
25267W        W97692   6.181  16.656  13.414
25268W        W97693   1.826  37.282  13.056
25269W        W97694  23.286  13.624   1.282
25270W        W97695  14.364  20.698   0.374
25271W        W97696   3.013  30.344   1.592
25272W        W97697  39.449  13.492   1.984
25273W        W97698  23.143  11.115   4.525
25274W        W97699  28.004  32.579  12.453
25275W        W97700  31.162   4.957   0.862
25276W        W97701  13.313  42.178  13.532
25277W        W97702  33.827   9.841   4.981
25278W        W97703   7.699  34.022  14.617
25279W        W97704  38.067  22.466  14.025
25280W        W97705  33.426   0.478   2.469
25281W        W97706  32.050  27.402   4.118
25282W        W97707  27.459   0.313  14.913
25283W        W97708   6.236  34.172  11.066
25284W        W97709   0.902  27.044   3.366
25285W        W97710   3.312   5.469   3.246
25286W        W97711  17.210  26.862   2.910
25287W        W97712  34.014   2.455   1.341
25288W        W97713  19.373  20.900   2.324
25289W        W97714  42.265  31.173   3.352
25290W        W97715  33.377  34.339  14.444
25291W        W97716  13.445  26.417   2.743
25292W        W97717  42.487  25.953   0.726
25293W        W97718   7.486  32.339  14.186
25294W        W97719  34.461  44.936  13.089
25295W        W97720   3.193  24.157  12.337
25296W        W97721   6.250  40.550  11.711
25297W        W97722  31.972  36.792   1.816
25298W        W97723   7.057  13.783   2.801
25299W        W97724   5.310  28.359  12.755
25300W        W97725  33.061   1.993   4.566
25301W        W97726  31.640  10.368  10.131
25302W        W97727   9.296  16.740   3.704
25303W        W97728  40.009  20.946   2.609
25304W        W97729  33.457  18.042   5.439
25305W        W97730   0.706  17.755   2.858
25306W        W97731  35.898  22.605  13.496
25307W        W97732  26.691  33.396   2.288
25308W        W97733  23.107  29.994   4.234
25309W        W97734  44.957  28.457   2.253
25310W        W97735  18.102  43.501  12.442
25311W        W97736  35.988  38.548  12.657
25312W        W97737   9.715   0.415   3.096
25313W        W97738  36.158  33.944  14.305
25314W        W97739   8.895  23.153  13.404
25315W        W97740  43.532  27.266  11.001
25316W        W97741  27.976   9.879   0.767
25317W        W97742  27.654  33.836  14.848
25318W        W97743  38.495   5.315   0.964
25319W        W97744  27.138  26.270   2.183
25320W        W97745  42.472   3.768   2.430
25321W        W97746   5.207  41.750  13.978
25322W        W97747  19.673   6.568  11.152
25323W        W97748  41.327  25.527  11.141
25324W        W97749  15.565   6.246  12.958
25325W        W97750  44.286   8.736   0.901
25326W        W97751  40.441  43.142   4.232
25327W        W97752  42.488  38.458  13.141
25328W        W97753  11.945   2.590  11.552
25329W        W97754  39.203   6.396   0.277
25330W        W97755   2.908   4.426  14.786
25331W        W97756   4.539   1.778  13.904
25332W        W97757  30.089  34.107   4.879
25333W        W97758  21.709  37.288   4.738
25334W        W97759  36.431  11.900  14.561
25335W        W97760  44.534  32.493  14.596
25336W        W97761  39.059  13.308  10.533
25337W        W97762  36.577  25.543  12.512
25338W        W97763  37.581   0.977   4.541
25339W        W97764  26.082  37.886  11.475
25340W        W97765  35.189  25.408   0.238
25341W        W97766   0.775  24.772   4.677
25342W        W97767  39.397  39.373   3.270
25343W        W97768  30.032   0.399  13.149
25344W        W97769  12.281  17.817  11.652
25345W        W97770  12.833  12.325  12.505
25346W        W97771  15.352  25.461  10.487
25347W        W97772  16.696  43.180  14.736
25348W        W97773  35.451  38.978   3.525
25349W        W97774  43.108  11.447   0.302
25350W        W97775  31.848  29.442  13.534
25351W        W97776  35.562   5.253   2.385
25352W        W97777  44.973  23.493  13.572
25353W        W97778  40.404   0.736   2.338
25354W        W97779  25.662   7.385  12.946
25355W        W97780  43.066   9.535  13.095
25356W        W97781  15.553   2.482  10.923
25357W        W97782  19.571  11.400  12.592
25358W        W97783   9.108   8.415  13.992
25359W        W97784  18.769  44.910  10.810
25360W        W97785  16.277   9.008  14.819
25361W        W97786  44.870  14.601   4.570
25362W        W97787  37.355  28.484  14.951
25363W        W97788  29.648   7.688   2.492
25364W        W97789  33.594   0.426   0.741
25365W        W97790  30.556  37.881  10.599
25366W        W97791  21.346  24.573  12.871
25367W        W97792   0.704  24.247   3.919
25368W        W97793  41.498  21.359   1.928
25369W        W97794  19.758  35.008   2.603
25370W        W97795  33.448  16.211   4.282
25371W        W97796  15.081  37.429  13.096
25372W        W97797  32.586  14.452  12.001
25373W        W97798  15.513  25.096  12.492
25374W        W97799  44.851  31.560   4.704
25375W        W97800   0.290  41.055  13.319
25376W        W97801  29.460  22.002  14.563
25377W        W97802  15.621   0.985   5.502
25378W        W97803  10.405   0.539  13.931
25379W        W97804  31.350   2.287   1.732
25380W        W97805   2.799   4.894   1.803
25381W        W97806   1.235  29.281  10.310
25382W        W97807   5.900  39.820  12.926
25383W        W97808  44.681  12.232  11.827
25384W        W97809  42.313  20.559  12.982
25385W        W97810  24.756  40.149  11.600
25386W        W97811   0.800  25.175   1.288
25387W        W97812  42.081   5.413   2.438
25388W        W97813  37.644  29.604  12.672
25389W        W97814  12.471  11.870   0.359
25390W        W97815  40.225  11.518   3.610
25391W        W97816  23.944  24.075  13.799
25392W        W97817  24.243   8.879   2.815
25393W        W97818  11.124  10.178  13.628
25394W        W97819  33.867   4.382   2.260
25395W        W97820  15.164  41.951   0.104
25396W        W97821  35.085   1.144  14.626
25397W        W97822  35.895   3.983  14.625
25398W        W97823  33.766  17.399   0.226
25399W        W97824  35.542  10.099   4.720
25400W        W97825  17.679  43.976  14.825
25401W        W97826   0.754  20.122  10.775
25402W        W97827  16.382   4.257   4.096
25403W        W97828  44.174  38.899  10.831
25404W        W97829  21.074  34.370  12.009
25405W        W97830  36.086  18.228  11.022
25406W        W97831  24.642  35.874   2.208
25407W        W97832   9.210  35.134  10.356
25408W        W97833  22.780  40.018  10.776
25409W        W97834  15.416  14.338  12.483
25410W        W97835  17.301  33.386   1.918
25411W        W97836  38.973   0.337   0.877
25412W        W97837   8.784   6.369  14.446
25413W        W97838  42.764   0.878   0.837
25414W        W97839  33.985   2.957   4.096
25415W        W97840   3.661  28.930   3.152
25416W        W97841  14.732   6.822  13.255
25417W        W97842  24.103  12.302  10.608
25418W        W97843  37.468   7.321  11.625
25419W        W97844  11.356  37.015  10.472
25420W        W97845   2.312  36.500  11.658
25421W        W97846  14.919  19.091   4.248
25422W        W97847  43.128  33.161  11.620
25423W        W97848  36.058  23.205   1.840
25424W        W97849   1.804  24.766  10.587
25425W        W97850  10.417  11.152   1.164
25426W        W97851  39.586  11.580   4.158
25427W        W97852  37.342   0.919   2.789
25428W        W97853  36.112  16.098  12.314
25429W        W97854  37.781  26.492  12.160
25430W        W97855  38.818  25.040   2.857
25431W        W97856   3.735  26.409  12.590
25432W        W97857  19.630  29.196  12.366
25433W        W97858  21.613  34.876   3.755
25434W        W97859  29.180  23.134  11.543
25435W        W97860  26.829  39.049   2.309
25436W        W97861  27.154  10.784   2.570
25437W        W97862   8.158   4.187   4.164
25438W        W97863   1.809   4.413   3.720
25439W        W97864  38.840  33.930  12.080
25440W        W97865  19.665   0.091   0.796
25441W        W97866   3.180   5.047   3.563
25442W        W97867  23.607  16.609   1.016
25443W        W97868  13.390   2.954   3.583
25444W        W97869  21.777  21.588   1.837
25445W        W97870   2.054  42.173   2.816
25446W        W97871  18.359  21.893   0.831
25447W        W97872  13.198  36.771  11.073
25448W        W97873  14.893  24.022   0.828
25449W        W97874   7.980  23.924  13.854
25450W        W97875  31.199  34.932   4.373
25451W        W97876  35.068  10.368  13.397
25452W        W97877  25.651  12.591   1.000
25453W        W97878  36.912  26.026   4.953
25454W        W97879   2.835  25.037  11.342
25455W        W97880  43.322  20.231  11.019
25456W        W97881  38.136   9.985  11.919
25457W        W97882  25.867  35.027  14.376
25458W        W97883  19.543  22.800   4.157
25459W        W97884  18.915  20.146  12.566
25460W        W97885   3.909  20.093   2.285
25461W        W97886  15.003  31.710   1.845
25462W        W97887  21.172  43.517  11.020
25463W        W97888  19.762  35.991   4.594
25464W        W97889  31.776  29.549  14.351
25465W        W97890   4.643  31.837  12.097
25466W        W97891  25.161   4.856  13.128
25467W        W97892  41.904  25.059  14.932
25468W        W97893  33.569  42.230   2.867
25469W        W97894   9.666   0.019   2.745
25470W        W97895   6.413  14.653  12.538
25471W        W97896  39.135  23.143  12.808
25472W        W97897  17.021   5.261  11.505
25473W        W97898   6.869   6.718   2.294
25474W        W97899   0.862  12.282  13.796
25475W        W97900  17.996  42.075  12.368
25476W        W97901  17.761  29.442  12.516
25477W        W97902   6.672   6.434   1.893
25478W        W97903  10.314   7.184  13.315
25479W        W97904  41.332   7.659  13.463
25480W        W97905   5.977   1.956  11.051
25481W        W97906   1.356  13.869  13.835
25482W        W97907   6.797  32.861  13.622
25483W        W97908  37.450  44.405   4.127
25484W        W97909   1.402   3.411   3.233
25485W        W97910  10.846  41.493  13.516
25486W        W97911  29.993   6.428   1.875
25487W        W97912  28.657  13.448   3.488
25488W        W97913  15.779  24.754   1.029
25489W        W97914  11.670   2.821  12.346
25490W        W97915  23.528   9.290   1.497
25491W        W97916  16.089   4.603  11.214
25492W        W97917   5.528   2.793  14.921
25493W        W97918  43.389  25.700  14.284
25494W        W97919  31.316  25.391   3.317
25495W        W97920  41.056  17.773  10.682
25496W        W97921  27.206  34.594   4.438
25497W        W97922  18.185  29.596  13.379
25498W        W97923   4.435  41.401   3.960
25499W        W97924  43.420   1.535   1.323
25500W        W97925  41.560  16.076  14.479
25501W        W97926  14.523   5.837   2.489
25502W        W97927  44.371  31.201  10.685
25503W        W97928   8.260  15.875   2.554
25504W        W97929  27.194  26.414  12.046
25505W        W97930  29.933  27.794   2.223
25506W        W97931  41.766  25.580  13.626
25507W        W97932  26.529  18.920   3.282
25508W        W97933  12.863  41.734   0.770
25509W        W97934  40.962  23.644  13.926
25510W        W97935   0.213  16.568  12.082
25511W        W97936  29.630   8.702   3.865
25512W        W97937   3.237  19.854  12.666
25513W        W97938  34.077  11.773  14.819
25514W        W97939  26.531  15.164   1.725
25515W        W97940  19.837  30.163  11.560
25516W        W97941  35.566  44.746   1.743
25517W        W97942  27.332  16.698   2.341
25518W        W97943   9.342  18.058  12.377
25519W        W97944  26.401  14.650   3.728
25520W        W97945  25.853  11.852   0.955
25521W        W97946  17.541  29.583   3.256
25522W        W97947  34.458  29.330   3.055
25523W        W97948  13.146  34.348   1.182
25524W        W97949  15.901   4.829  10.480
25525W        W97950  11.822  10.733  14.635
25526W        W97951  30.022  35.344  11.573
25527W        W97952  21.603  28.097   3.876
25528W        W97953   2.184  15.010   3.689
25529W        W97954   7.909  32.835  10.506
25530W        W97955   1.754   2.424   4.693
25531W        W97956  41.064   4.489   0.239
25532W        W97957   0.842  29.961   3.665
25533W        W97958  41.099   7.593   2.811
25534W        W97959  13.406  31.333  11.182
25535W        W97960  12.375  30.345   4.246
25536W        W97961   3.208  30.460   2.617
25537W        W97962  36.891  32.336  11.590
25538W        W97963  31.188  36.996   4.131
25539W        W97964   4.737  15.922  12.883
25540W        W97965  22.988  11.840   3.330
25541W        W97966  11.928  17.332   2.161
25542W        W97967  32.562  38.503   3.865
25543W        W97968  23.993  39.108   5.106
25544W        W97969  24.255  21.183   2.141
25545W        W97970   1.166  33.145  12.531
25546W        W97971  40.654  29.559  11.253
25547W        W97972  29.655   2.841  10.387
25548W        W97973  25.269   1.802   1.266
25549W        W97974  28.348   1.397   0.233
25550W        W97975  38.498  26.412   3.206
25551W        W97976  33.145  16.831   0.003
25552W        W97977  18.040  20.506   0.932
25553W        W97978  37.466  34.508  11.048
25554W        W97979   8.138  12.464   2.369
25555W        W97980  34.434  29.872   3.751
25556W        W97981  20.198  10.948   0.397
25557W        W97982   3.467  18.754   4.635
25558W        W97983  17.333  22.555   4.621
25559W        W97984  25.511   9.619  13.403
25560W        W97985  44.719  20.042   1.354
25561W        W97986   4.445   3.389   2.910
25562W        W97987  15.292  42.626   4.212
25563W        W97988   3.226  21.734   3.596
25564W        W97989  18.779   2.772  12.566
25565W        W97990  30.114  35.896   3.811
25566W        W97991   6.986   7.661   3.281
25567W        W97992  38.359  12.568  13.991
25568W        W97993  24.947  25.103   1.906
25569W        W97994   7.893  26.022   3.739
25570W        W97995  43.489  26.433   2.752
25571W        W97996  43.898  22.125   1.295
25572W        W97997   2.273  14.830  12.511
25573W        W97998  30.468  13.109  12.423
25574W        W97999  34.426  37.155   3.591
25575W        W98000  30.908   9.178  14.797
25576W        W98001   8.280  32.880   0.902
25577W        W98002   9.337  26.960  13.522
25578W        W98003  11.930  22.278  10.032
25579W        W98004  31.419   5.425   0.843
25580W        W98005  20.870   6.826   1.841
25581W        W98006   7.818   8.706   0.567
25582W        W98007  40.529  25.815  14.373
25583W        W98008  38.326  27.904  12.989
25584W        W98009  15.106  25.710   3.293
25585W        W98010  19.769  37.106   3.701
25586W        W98011  33.099   0.438  13.933
25587W        W98012  23.759  10.718   3.720
25588W        W98013  36.393  38.729   4.620
25589W        W98014  27.938  15.692  11.692
25590W        W98015  44.330  39.335   0.307
25591W        W98016  37.253   1.678  13.030
25592W        W98017  24.523   2.837  12.525
25593W        W98018   0.775  41.608   2.741
25594W        W98019  43.802  13.067  14.921
25595W        W98020   2.360  39.940   3.091
25596W        W98021  23.645   6.451  14.314
25597W        W98022  41.259  23.308  14.414
25598W        W98023  20.493  24.123  14.521
25599W        W98024  12.133  21.282  11.191
25600W        W98025   2.332  23.725   0.022
25601W        W98026  13.870   1.883  13.754
25602W        W98027  11.791  44.773   4.185
25603W        W98028  11.190   6.916  10.123
25604W        W98029   7.867  12.423  11.025
25605W        W98030   9.342  42.422  14.593
25606W        W98031  43.295  11.947   0.841
25607W        W98032   5.826  39.783   2.847
25608W        W98033   8.660  19.465  14.935
25609W        W98034  25.477  14.390   3.602
25610W        W98035  33.618  34.548   1.805
25611W        W98036   6.409  20.408  11.126
25612W        W98037  30.027  18.966  13.339
25613W        W98038  10.211  17.697   3.528
25614W        W98039  34.495  42.418   3.801
25615W        W98040  21.672  31.015  14.783
25616W        W98041  41.521  17.375   3.690
25617W        W98042  29.733  39.813  11.769
25618W        W98043  26.041   7.778  10.986
25619W        W98044   1.441  17.060  14.277
25620W        W98045   4.429  32.190  10.739
25621W        W98046  24.232  38.695  10.776
25622W        W98047  28.235  23.651   5.013
25623W        W98048   4.220  22.555   3.693
25624W        W98049   9.588  31.230   2.229
25625W        W98050  19.623   7.454  14.271
25626W        W98051  27.953   9.820  14.304
25627W        W98052   6.777  44.448  14.527
25628W        W98053  25.347  36.996   4.973
25629W        W98054   7.668  13.725   3.968
25630W        W98055  42.753  28.805   1.313
25631W        W98056  23.703  26.823   1.897
25632W        W98057  15.201   5.842  14.586
25633W        W98058  16.113  26.636  12.396
25634W        W98059  40.537  42.547   5.542
25635W        W98060  13.111  13.348   1.392
25636W        W98061  14.322  13.786   0.883
25637W        W98062  10.110  11.249   3.704
25638W        W98063  25.227  41.331   4.082
25639W        W98064  10.932  37.837   0.470
25640W        W98065  14.552  26.654  10.063
25641W        W98066   5.479  27.426  11.055
25642W        W98067  11.331  44.820  11.599
25643W        W98068  35.932  23.494  14.628
25644W        W98069  12.166  11.143  13.901
25645W        W98070  10.431  32.707  12.809
25646W        W98071  26.167  37.023   1.411
25647W        W98072   9.332  30.844  14.003
25648W        W98073  26.131  32.002   3.580
25649W        W98074   4.178   3.789  12.592
25650W        W98075  10.630   6.924   3.875
25651W        W98076  40.029   2.256   4.568
25652W        W98077  15.775  27.166   2.822
25653W        W98078  18.565  33.873   2.133
25654W        W98079  30.508  43.399  10.868
25655W        W98080   0.686   7.945  13.494
25656W        W98081  19.558  35.541   3.891
25657W        W98082  16.533   0.350  14.342
25658W        W98083  40.025  32.900   2.687
25659W        W98084  31.082  16.464   9.793
25660W        W98085  32.090  40.764   3.340
25661W        W98086  18.703  19.187  11.554
25662W        W98087  43.013  34.130  14.214
25663W        W98088   4.924  18.586   1.755
25664W        W98089  15.304  41.939   3.026
25665W        W98090   0.745  43.745   4.483
25666W        W98091   8.287  13.221   1.927
25667W        W98092  36.417  28.192   4.944
25668W        W98093   8.454  21.391  13.379
25669W        W98094  43.924  39.564   2.665
25670W        W98095  33.352   7.757  11.615
25671W        W98096  31.515  37.544   0.575
25672W        W98097   4.668  42.667   3.278
25673W        W98098   3.290  41.862  13.339
25674W        W98099  14.082  28.250  12.559
25675W        W98100  15.593   3.951  11.595
25676W        W98101  26.599  38.833  12.815
25677W        W98102  32.073  28.495   0.676
25678W        W98103  39.504   1.856  10.617
25679W        W98104  21.046  38.864  14.294
25680W        W98105  17.564  38.968   1.436
25681W        W98106  11.374   9.879   3.795
25682W        W98107   9.259  25.225  14.927
25683W        W98108  11.962  35.860   3.679
25684W        W98109  38.349  18.295  11.590
25685W        W98110  27.629  18.320  14.045
25686W        W98111   8.154  20.614   2.515
25687W        W98112   6.394  10.232   0.524
25688W        W98113   6.790  27.187  14.498
25689W        W98114   2.909   4.336   2.620
25690W        W98115  36.158   5.561  13.616
25691W        W98116  22.986   4.468   1.863
25692W        W98117  12.626  13.242   0.616
25693W        W98118  36.844  22.956   0.428
25694W        W98119  26.843   5.367  13.976
25695W        W98120  37.301  22.114   1.110
25696W        W98121  43.601  41.626   4.246
25697W        W98122  28.920  20.539  11.062
25698W        W98123  17.091  31.732  13.429
25699W        W98124  15.111  37.293   0.307
25700W        W98125  18.204  10.930  13.966
25701W        W98126   5.547  35.305   4.302
25702W        W98127  30.454  43.750   0.311
25703W        W98128  22.785  42.514  10.568
25704W        W98129  35.060  16.763   0.723
25705W        W98130  17.772   1.898  10.221
25706W        W98131  11.186  42.291   4.701
25707W        W98132   1.638  32.662   2.746
25708W        W98133  32.450  24.342   3.187
25709W        W98134  30.644   4.331   0.419
25710W        W98135  40.994  10.657   0.353
25711W        W98136  25.619   2.954  12.104
25712W        W98137  40.121  41.892  10.569
25713W        W98138  30.976  42.502  10.687
25714W        W98139  14.380   1.461   1.096
25715W        W98140  10.690  32.808  14.432
25716W        W98141  22.210  10.181  14.347
25717W        W98142  38.106   1.699  11.565
25718W        W98143  21.338   5.611  11.992
25719W        W98144   4.276  13.692   0.656
25720W        W98145   9.551  14.483  11.618
25721W        W98146  13.160  24.392   1.382
25722W        W98147  34.324   6.452   1.846
25723W        W98148  44.387  31.674  10.473
25724W        W98149  44.047  44.191  11.466
25725W        W98150   0.598  36.738   2.336
25726W        W98151  11.758  39.406   3.706
25727W        W98152  25.954  12.138  12.171
25728W        W98153   3.578  12.504   3.270
25729W        W98154  18.775   4.894   3.897
25730W        W98155  26.077  39.990  12.921
25731W        W98156   6.664   8.691   4.108
25732W        W98157   4.756  14.581   2.930
25733W        W98158  38.609  32.326   2.397
25734W        W98159  37.615  42.608  13.503
25735W        W98160  25.713   2.772   1.209
25736W        W98161   3.844  34.176   3.302
25737W        W98162   8.753  31.716  14.410
25738W        W98163   4.308  37.364  13.558
25739W        W98164  36.026  35.491   2.494
25740W        W98165   8.669  28.891  11.346
25741W        W98166  33.579  12.180   1.502
25742W        W98167   5.345  15.767   2.976
25743W        W98168   5.197  23.675  11.089
25744W        W98169  30.453   5.007   4.044
25745W        W98170  31.959   4.437  12.247
25746W        W98171  24.638  31.731  14.590
25747W        W98172   9.321  20.009   1.424
25748W        W98173   4.469  38.492   2.036
25749W        W98174  29.125  30.620   2.210
25750W        W98175   9.178  10.718   1.585
25751W        W98176  11.824  34.214  12.596
25752W        W98177  33.214  44.108  13.379
25753W        W98178   1.196  41.994   2.772
25754W        W98179  21.925  34.186  12.980
25755W        W98180  44.606  16.346  14.804
25756W        W98181  10.217  39.566   3.681
25757W        W98182  37.382   2.038  14.273
25758W        W98183  32.646  36.964   2.357
25759W        W98184  24.644  17.251  12.288
25760W        W98185   5.857  40.880   3.442
25761W        W98186  11.559  44.273   4.752
25762W        W98187  21.735  16.871   0.277
25763W        W98188  16.068  18.741   0.211
25764W        W98189  17.993  16.372   1.002
25765W        W98190   9.363   8.244   0.451
25766W        W98191  37.597  34.788  11.645
25767W        W98192  12.568  26.120   1.987
25768W        W98193  29.394   2.210   3.298
25769W        W98194  31.875  38.151  10.706
25770W        W98195  26.662  24.675  10.810
25771W        W98196  42.226  10.636   2.751
25772W        W98197  12.107  29.635  10.824
25773W        W98198  35.029  43.750  11.660
25774W        W98199   6.189  11.620  10.970
25775W        W98200  16.109  44.541   2.866
25776W        W98201  14.158  24.208   4.847
25777W        W98202  21.195  37.451  14.179
25778W        W98203  42.363  26.197  11.648
25779W        W98204  15.004  15.939   0.499
25780W        W98205   6.764  35.132  12.030
25781W        W98206  22.995  26.626  11.250
25782W        W98207  24.945   6.096  12.566
25783W        W98208  33.608  41.551  10.213
25784W        W98209  41.791  16.357   1.131
25785W        W98210   4.405  28.086   1.391
25786W        W98211  17.235  27.866   0.718
25787W        W98212  12.261  33.518   2.884
25788W        W98213  13.823  22.185  11.025
25789W        W98214   3.156  23.967   2.064
25790W        W98215  32.520  19.141  11.502
25791W        W98216  25.537  26.109   3.887
25792W        W98217   0.749   0.375  11.028
25793W        W98218   9.776  41.483  12.097
25794W        W98219  42.612   3.177  11.138
25795W        W98220  29.002  38.851   1.681
25796W        W98221   0.009  38.449  13.942
25797W        W98222  29.092   2.446   1.136
25798W        W98223  30.748   3.408   2.725
25799W        W98224  38.566  11.438   0.917
25800W        W98225  37.551  13.774  14.440
25801W        W98226  31.790  25.655   3.310
25802W        W98227  10.309  42.220   3.183
25803W        W98228  31.908  30.614  11.471
25804W        W98229  23.121  35.862  13.989
25805W        W98230  18.160  19.268   1.913
25806W        W98231  37.540  20.620   3.385
25807W        W98232  36.774  10.833   1.788
25808W        W98233  26.252  22.771  11.132
25809W        W98234  32.234   7.953  13.835
25810W        W98235  28.039  15.665   2.807
25811W        W98236  37.332  21.493   2.381
25812W        W98237  36.950  23.620  10.047
25813W        W98238  25.572  17.558   1.463
25814W        W98239  10.511   1.466   3.792
25815W        W98240  27.574  11.390   4.149
25816W        W98241  14.418  10.902   3.300
25817W        W98242  18.396  17.705   1.871
25818W        W98243  20.966   8.418  13.556
25819W        W98244  30.334  36.083   0.217
25820W        W98245  38.812   4.138  12.156
25821W        W98246  35.970   7.218  13.424
25822W        W98247  40.919  23.273   1.686
25823W        W98248   6.361  31.668  14.423
25824W        W98249  25.763  10.867   3.619
25825W        W98250  13.490  23.111   0.582
25826W        W98251  15.105  19.588  14.787
25827W        W98252  20.493  37.093   0.269
25828W        W98253   8.848  37.575  12.772
25829W        W98254  19.630   0.830  11.219
25830W        W98255  23.600  22.908   1.597
25831W        W98256  10.309  44.102  12.958
25832W        W98257  16.183  11.391   2.607
25833W        W98258  17.080   4.859  13.321
25834W        W98259   8.143  16.123   2.098
25835W        W98260  37.055  30.583  14.398
25836W        W98261  23.030  40.970   3.644
25837W        W98262  43.415  39.429   1.008
25838W        W98263  20.503   7.679   1.810
25839W        W98264  25.136  27.213  12.539
25840W        W98265  20.535  14.541  12.674
25841W        W98266  36.425  26.663   5.013
25842W        W98267  23.924  25.535  13.127
25843W        W98268  37.753  38.964  12.886
25844W        W98269  41.335  31.142  10.548
25845W        W98270  33.606   9.460  13.798
25846W        W98271  22.271  16.595  10.722
25847W        W98272  42.916   5.855  14.243
25848W        W98273   0.815  44.986   4.238
25849W        W98274  13.885  30.346   0.026
25850W        W98275   7.033  25.146  14.430
25851W        W98276  31.103  16.061  11.865
25852W        W98277  30.090  21.020  14.441
25853W        W98278  32.467  22.533  12.283
25854W        W98279  34.902  22.192  12.901
25855W        W98280  43.862  11.269  13.615
25856W        W98281  19.253  39.770  11.948
25857W        W98282  27.728  31.517  13.878
25858W        W98283  25.621  43.269   1.260
25859W        W98284  40.073   2.158   2.796
25860W        W98285  28.903  11.867  12.065
25861W        W98286   6.202   4.814  11.572
25862W        W98287  35.560  27.731   2.427
25863W        W98288  14.451  23.003  13.304
25864W        W98289  21.598   0.928  13.607
25865W        W98290  40.084  31.666   0.844
25866W        W98291   7.044   6.992  12.038
25867W        W98292  14.642  41.305   1.195
25868W        W98293  10.315   2.333  12.493
25869W        W98294  31.096   2.170  11.078
25870W        W98295  32.153  41.855  13.046
25871W        W98296  23.247   1.202   1.271
25872W        W98297  20.117  17.998   3.230
25873W        W98298  22.037  41.021   4.321
25874W        W98299  35.258  30.171  11.603
25875W        W98300   9.187  39.093   4.217
25876W        W98301  29.039  35.894   4.829
25877W        W98302  44.184  23.732   1.361
25878W        W98303   6.917  44.799   0.912
25879W        W98304   9.079  31.923   3.123
25880W        W98305  12.165   8.678  14.886
25881W        W98306  23.513  20.037  13.580
25882W        W98307  11.984  21.997   0.877
25883W        W98308  34.826  33.827  13.005
25884W        W98309  39.593  44.814   5.456
25885W        W98310  27.201  28.698  12.509
25886W        W98311  22.406  16.536  14.813
25887W        W98312  31.489  43.546   0.917
25888W        W98313  27.211  33.434   5.126
25889W        W98314  21.474  35.318  11.184
25890W        W98315  21.776  22.697  12.862
25891W        W98316  19.127  19.176  13.949
25892W        W98317  40.807  25.574   2.794
25893W        W98318  25.702  36.558  12.495
25894W        W98319  20.201  26.436   4.849
25895W        W98320  29.179  34.419   3.020
25896W        W98321   0.697   5.919   4.985
25897W        W98322  10.894  34.077   3.711
25898W        W98323  16.519   5.275  11.302
25899W        W98324   2.791  24.363  11.090
25900W        W98325  19.281  22.036  13.212
25901W        W98326  21.595  30.915  11.565
25902W        W98327   2.952  39.126   5.043
25903W        W98328   2.889  34.652   4.325
25904W        W98329  41.266  18.697   4.196
25905W        W98330  29.463  34.625   2.645
25906W        W98331  24.053  35.550  12.575
25907W        W98332  22.062  15.341  13.386
25908W        W98333   7.192  12.981  12.597
25909W        W98334   1.419  34.089  13.580
25910W        W98335  12.098  16.160  12.323
25911W        W98336  23.690  19.093   1.882
25912W        W98337   1.487   6.775   0.421
25913W        W98338  42.257  26.674  13.954
25914W        W98339  34.178  31.055   3.193
25915W        W98340  30.383  21.595   4.128
25916W        W98341  33.993   0.916   3.250
25917W        W98342   2.064   0.994  11.883
25918W        W98343  11.434  20.347   3.655
25919W        W98344  34.355  35.040  14.793
25920W        W98345  41.717  16.590  11.940
25921W        W98346  14.761  44.894  13.891
25922W        W98347  11.806  35.070   1.822
25923W        W98348  31.518  35.639  11.988
25924W        W98349  23.106  23.378   0.103
25925W        W98350   7.598  30.095   4.870
25926W        W98351  44.400  29.636  12.446
25927W        W98352  36.924  42.325   1.286
25928W        W98353  21.833  18.379   4.625
25929W        W98354  38.082  17.884  12.574
25930W        W98355  26.392  34.978   0.657
25931W        W98356  31.693   2.206  12.975
25932W        W98357  12.880  13.081  13.041
25933W        W98358   3.742  13.220  14.935
25934W        W98359  31.453  27.510  10.482
25935W        W98360  29.535  32.135  13.559
25936W        W98361  10.095  33.336  13.573
25937W        W98362  32.660   4.398   0.275
25938W        W98363  16.199  20.590  14.850
25939W        W98364  34.342  30.134  12.058
25940W        W98365  43.555  10.306   0.808
25941W        W98366  27.607  26.670   4.043
25942W        W98367  29.177  20.000   2.125
25943W        W98368  34.471   4.848   4.693
25944W        W98369  13.431  18.955  14.913
25945W        W98370  32.073  37.275   3.961
25946W        W98371  17.418   5.349   4.611
25947W        W98372   1.971   7.221  11.775
25948W        W98373  32.673  24.656   1.414
25949W        W98374  21.547   7.492  14.044
25950W        W98375  40.416  22.970   0.902
25951W        W98376  14.804  14.583  14.470
25952W        W98377  27.514  24.666  11.146
25953W        W98378   0.030  40.794   3.731
25954W        W98379  39.464   4.662   0.822
25955W        W98380  21.652  44.307   3.732
25956W        W98381   0.284  31.444  12.511
25957W        W98382   7.590  42.499  11.557
25958W        W98383   9.948   7.242  11.127
25959W        W98384  11.127  27.061   3.647
25960W        W98385  11.281  31.599  13.993
25961W        W98386  18.563  29.972  11.161
25962W        W98387   3.662  25.741  11.521
25963W        W98388   3.348  16.857  14.248
25964W        W98389  19.238   7.196   2.050
25965W        W98390  39.589  23.567  13.417
25966W        W98391  30.468   4.282  13.351
25967W        W98392  35.529  42.169   0.279
25968W        W98393  25.630  13.324   3.798
25969W        W98394  24.840  39.061  14.948
25970W        W98395  26.428  34.770   1.748
25971W        W98396  26.041  20.108  11.167
25972W        W98397   4.645  19.490   2.228
25973W        W98398  32.032  37.920  11.661
25974W        W98399  23.727  31.967  11.661
25975W        W98400  28.212  28.070  13.375
25976W        W98401  39.297  16.754   4.487
25977W        W98402  38.255  21.241   2.939
25978W        W98403  31.020  10.416  14.790
25979W        W98404  44.287  35.011   2.827
25980W        W98405  28.611   4.708  14.414
25981W        W98406  32.097  23.055  10.680
25982W        W98407  13.150  22.019  13.057
25983W        W98408  20.318  23.390   1.710
25984W        W98409  36.814  37.905   0.317
25985W        W98410   1.581   3.693  10.606
25986W        W98411  16.391  36.108  13.809
25987W        W98412  38.353  44.412   9.726
25988W        W98413  23.576  25.460   0.419
25989W        W98414  38.791  43.942   1.881
25990W        W98415   8.470   3.641  11.909
25991W        W98416   1.110  16.750  11.248
25992W        W98417  30.572  20.493   3.238
25993W        W98418   4.156  10.619   1.431
25994W        W98419  24.470  36.025  13.397
25995W        W98420  32.574  22.017  14.028
25996W        W98421  35.076   7.311  11.006
25997W        W98422  22.599  19.732   0.489
25998W        W98423  27.245   7.184  11.472
25999W        W98424  28.130  26.777  13.007
26000W        W98425  32.634  14.800  12.386
26001W        W98426  27.089   8.963  13.882
26002W        W98427  40.405   7.761  13.581
26003W        W98428  41.926  42.731   1.496
26004W        W98429  37.433  29.043  10.152
26005W        W98430  43.202  42.399  11.445
26006W        W98431  17.308  43.297   2.125
26007W        W98432  44.875  25.587   2.583
26008W        W98433  40.456  21.472   0.988
26009W        W98434  25.818  41.021  11.074
26010W        W98435   9.131  42.205   0.828
26011W        W98436  16.303  13.537   0.738
26012W        W98437  37.904  27.600   2.187
26013W        W98438   5.339  44.493   3.125
26014W        W98439  41.252   2.688  12.048
26015W        W98440  35.354  44.171   0.201
26016W        W98441  22.726   3.896  10.391
26017W        W98442   2.855  37.100  11.223
26018W        W98443  35.331  18.840  14.339
26019W        W98444   6.170  39.599  10.727
26020W        W98445  11.676  36.812   3.682
26021W        W98446   1.169   8.439   4.153
26022W        W98447  44.414  28.396   1.270
26023W        W98448  22.170  40.821  10.576
26024W        W98449  38.540  13.047   0.290
26025W        W98450  11.177  37.908  14.990
26026W        W98451  12.337   0.836   0.287
26027W        W98452  28.947   4.172   2.332
26028W        W98453   6.214  12.041   3.162
26029W        W98454  26.034  33.114  11.470
26030W        W98455  30.963  40.627  14.863
26031W        W98456   0.323  34.777   1.387
26032W        W98457   6.974  38.024  11.026
26033W        W98458   1.423  41.278  12.659
26034W        W98459  37.079  38.938  11.493
26035W        W98460   7.889  42.955  12.056
26036W        W98461  36.723   2.376   2.525
26037W        W98462  26.817   9.257  13.494
26038W        W98463  26.261  14.917  11.175
26039W        W98464  38.093  36.608  10.718
26040W        W98465  40.938   3.764   3.751
26041W        W98466  32.390  16.125  10.296
26042W        W98467  42.529  10.776  11.824
26043W        W98468  44.344  24.019   1.753
26044W        W98469  40.780  15.934  11.582
26045W        W98470  10.062  28.484  11.578
26046W        W98471   7.664  37.824   0.214
26047W        W98472  19.842  24.519  11.195
26048W        W98473  13.888  26.751  13.414
26049W        W98474   7.027  32.057  14.877
26050W        W98475  15.837  21.223   4.784
26051W        W98476  43.835  26.239   0.838
26052W        W98477  37.976  15.706  14.493
26053W        W98478   5.327   5.274  14.720
26054W        W98479   8.276  36.083   3.495
26055W        W98480  38.500  39.811  10.588
26056W        W98481   8.912  19.986   3.617
26057W        W98482  37.259  21.181  13.425
26058W        W98483  25.404  41.261   1.434
26059W        W98484  39.688  37.320   4.174
26060W        W98485  10.236   9.813  10.657
26061W        W98486  10.864   4.922   3.102
26062W        W98487  15.202   9.902   2.418
26063W        W98488   9.043  42.463  10.507
26064W        W98489  42.277   1.408  14.115
26065W        W98490  23.932  13.090  13.656
26066W        W98491  27.520  27.920  11.018
26067W        W98492  18.321  31.069   0.932
26068W        W98493   8.182  17.592   0.010
26069W        W98494  19.219   3.523  14.825
26070W        W98495  38.359  33.505   4.481
26071W        W98496  15.624  12.188  11.443
26072W        W98497  26.205  40.316  12.552
26073W        W98498  37.846  44.293  11.242
26074W        W98499  23.710   7.832  14.769
26075W        W98500  35.347  38.364  12.508
26076W        W98501  37.907  44.549   2.806
26077W        W98502  12.198  16.662   3.161
26078W        W98503   8.676  35.538   4.988
26079W        W98504   3.496  23.049   2.699
26080W        W98505   2.833   3.476  14.521
26081W        W98506  29.115   1.607  11.119
26082W        W98507  40.844  26.596  12.832
26083W        W98508  24.775   8.265  11.392
26084W        W98509  35.892  34.846   0.873
26085W        W98510  41.035  36.825  12.154
26086W        W98511  41.768   1.638  14.347
26087W        W98512  17.105  36.434   2.108
26088W        W98513  27.630  22.963  12.574
26089W        W98514  28.532   9.870  13.758
26090W        W98515  10.950  28.023  13.080
26091W        W98516   2.212  14.884   1.708
26092W        W98517  33.092   4.253   4.320
26093W        W98518  14.782  40.903   1.938
26094W        W98519  25.916  14.593  13.959
26095W        W98520  14.811  17.266  11.950
26096W        W98521   1.326  29.452  11.620
26097W        W98522   0.666  29.073  11.165
26098W        W98523   5.915  40.306   1.345
26099W        W98524  36.891  34.642   4.076
26100W        W98525  24.736  22.283   0.269
26101W        W98526  39.246   0.857  14.913
26102W        W98527   5.930  44.249   4.318
26103W        W98528  15.521  38.562  11.149
26104W        W98529  14.086  27.090  11.612
26105W        W98530  27.098  21.231  13.776
26106W        W98531   2.711   1.956  12.596
26107W        W98532  29.462  36.888  10.640
26108W        W98533  32.680  44.563  10.267
26109W        W98534  40.074  19.661  12.478
26110W        W98535  34.501   9.731  10.996
26111W        W98536  29.558  13.208  12.872
26112W        W98537   1.941  44.972   0.416
26113W        W98538  34.612   3.668  12.559
26114W        W98539   3.186  41.904   2.722
26115W        W98540  11.210  26.878  10.707
26116W        W98541  32.729   6.392  10.602
26117W        W98542  26.530  29.441  14.968
26118W        W98543   7.905  44.279  10.126
26119W        W98544   1.479  25.729   0.324
26120W        W98545  27.873  18.855   2.068
26121W        W98546   8.707   2.032   4.132
26122W        W98547  24.249  39.454   1.747
26123W        W98548   8.967  11.290   1.313
26124W        W98549  41.016   0.249   4.739
26125W        W98550  38.114  44.690  10.573
26126W        W98551  41.520   6.708  13.758
26127W        W98552  44.292  35.531   2.879
26128W        W98553  26.957  35.998   0.991
26129W        W98554  30.595  36.761   4.100
26130W        W98555  41.200  37.820   1.834
26131W        W98556  18.011  37.434   4.531
26132W        W98557  42.754  24.031  14.386
26133W        W98558   9.298   3.697  13.364
26134W        W98559  23.959  18.335   0.831
26135W        W98560   9.106   8.385   0.027
26136W        W98561  11.225   8.366  12.952
26137W        W98562  30.363  24.209  11.103
26138W        W98563  36.087  22.549   0.496
26139W        W98564  17.278  12.588   0.892
26140W        W98565  31.580  34.437   2.897
26141W        W98566   2.176  20.130  12.324
26142W        W98567   1.163  12.246  12.403
26143W        W98568  13.395   9.057  14.717
26144W        W98569  40.044  35.111   0.475
26145W        W98570  35.091  17.960   1.793
26146W        W98571   3.870  38.515  13.809
26147W        W98572  21.007   9.074  14.569
26148W        W98573   3.751   9.598  12.076
26149W        W98574   2.317  23.453   3.188
26150W        W98575   9.265  16.603  11.187
26151W        W98576  26.692  38.191   1.405
26152W        W98577  41.343   1.025  13.181
26153W        W98578   0.443  16.913  14.964
26154W        W98579  21.116  22.720   2.166
26155W        W98580  23.178  17.761  12.012
26156W        W98581  17.446  22.963  13.363
26157W        W98582   3.388   2.904   0.511
26158W        W98583  19.657  38.364  10.659
26159W        W98584  37.013   8.379  11.235
26160W        W98585  24.063  33.186   2.615
26161W        W98586  30.666  22.250   2.330
26162W        W98587  23.442  10.863  13.392
26163W        W98588   5.638  10.962   2.380
26164W        W98589  23.169  37.564  13.889
26165W        W98590  10.228  14.064  14.227
26166W        W98591  29.953  42.564   1.454
26167W        W98592   3.728  30.356   3.975
26168W        W98593   4.376  40.980   3.097
26169W        W98594  37.407  19.189   0.439
26170W        W98595   4.447  40.340  14.758
26171W        W98596   2.981   1.924   4.229
26172W        W98597  37.027  33.141  14.102
26173W        W98598  19.547   3.692  12.905
26174W        W98599  14.583  42.504  12.131
26175W        W98600  32.739  25.128   2.200
26176W        W98601  32.416  34.991  10.705
26177W        W98602  37.752  13.806   2.887
26178W        W98603  33.624  31.269   1.503
26179W        W98604   5.824   2.749  10.601
26180W        W98605  29.755  24.404   0.346
26181W        W98606  34.072  36.280  11.486
26182W        W98607  24.568   7.763   0.533
26183W        W98608   0.023  12.762   1.251
26184W        W98609  37.904  11.805  11.517
26185W        W98610  17.662  31.791  12.235
26186W        W98611  43.598  26.965  10.589
26187W        W98612  34.801  30.426   2.817
26188W        W98613  23.693  19.830  11.917
26189W        W98614  28.917   4.235  11.635
26190W        W98615  19.187   6.947  12.184
26191W        W98616  21.781  26.065  14.346
26192W        W98617  41.235   9.351  14.547
26193W        W98618   9.495  20.366   2.264
26194W        W98619  15.210   1.723   3.481
26195W        W98620  32.588   0.445  11.598
26196W        W98621  43.281  25.110  11.579
26197W        W98622  42.537  11.015   3.630
26198W        W98623  43.274  28.336   0.094
26199W        W98624   9.688  35.312   0.937
26200W        W98625  10.905   0.822   1.526
26201W        W98626  10.186  17.802   2.230
26202W        W98627  27.527  21.724  11.997
26203W        W98628  10.821  22.651   3.299
26204W        W98629   8.584   8.252   1.209
26205W        W98630  20.121  21.903  12.823
26206W        W98631  23.226  39.853   4.234
26207W        W98632   7.736   8.704   4.673
26208W        W98633   8.459  37.336   1.310
26209W        W98634  37.579  22.813   4.256
26210W        W98635  18.529  11.332  11.197
26211W        W98636  32.628   2.897  13.477
26212W        W98637   5.896  41.002  14.987
26213W        W98638  18.863  17.768  11.001
26214W        W98639  17.722  11.738  13.822
26215W        W98640  34.764  38.102   4.132
26216W        W98641  41.346  17.261   1.280
26217W        W98642  37.853  32.158  10.633
26218W        W98643  17.056  36.317   4.606
26219W        W98644  32.100  24.902   0.770
26220W        W98645  20.077   7.378  14.044
26221W        W98646  21.174   0.825   5.023
26222W        W98647  39.264  41.368   3.300
26223W        W98648  37.325  15.582  13.613
26224W        W98649   1.287  15.724  10.114
26225W        W98650  35.855  39.179  11.172
26226W        W98651  15.169  28.423   4.116
26227W        W98652   3.989  36.405   4.774
26228W        W98653   9.651  19.733  12.842
26229W        W98654  26.555  21.935   3.122
26230W        W98655  30.473  21.015  12.263
26231W        W98656  21.087  39.109   2.681
26232W        W98657  17.296  19.017   0.216
26233W        W98658  27.569  29.179   1.777
26234W        W98659  32.219  11.391  12.992
26235W        W98660   9.996   2.004   0.644
26236W        W98661  14.548  26.888   4.165
26237W        W98662  18.120  30.776   4.174
26238W        W98663  32.935  20.052   3.155
26239W        W98664  41.972  13.317  10.507
26240W        W98665   5.242  43.849  11.244
26241W        W98666  24.312  40.347  11.739
26242W        W98667  11.720  37.130   1.700
26243W        W98668  37.339  34.846   3.721
26244W        W98669   9.879  29.269   2.748
26245W        W98670  17.464   4.017  14.795
26246W        W98671  14.135  10.228  14.515
26247W        W98672   2.807  19.277   2.175
26248W        W98673  27.777   5.153  14.781
26249W        W98674  38.907  20.113   0.970
26250W        W98675  15.196   0.126   4.585
26251W        W98676  22.680  22.601   2.791
26252W        W98677  31.288   8.763   4.650
26253W        W98678  20.360  17.735  13.704
26254W        W98679  24.092  31.100   0.801
26255W        W98680  36.375  10.225   5.005
26256W        W98681   5.290  40.626  14.658
26257W        W98682   6.001  39.346   0.435
26258W        W98683   5.946  42.587   4.650
26259W        W98684  10.858  37.512  14.775
26260W        W98685  30.968  39.059   2.789
26261W        W98686   7.906  42.094   4.806
26262W        W98687   4.144  22.440   0.770
26263W        W98688  15.619  27.439   3.264
26264W        W98689   6.121  44.773   0.400
26265W        W98690  29.590  22.202   1.461
26266W        W98691  28.506  28.288  14.310
26267W        W98692  28.325   5.774  11.242
26268W        W98693  25.010   4.831   5.014
26269W        W98694  20.220  13.629  12.301
26270W        W98695  33.517  10.324   1.801
26271W        W98696  32.758  39.589   4.663
26272W        W98697  32.682  15.172  12.736
26273W        W98698  18.246   8.890  14.418
26274W        W98699  11.673  21.593   0.907
26275W        W98700  41.045   5.430  13.575
26276W        W98701  10.884  26.451  12.533
26277W        W98702  18.791  37.051  11.172
26278W        W98703  36.554  19.568  14.343
26279W        W98704  19.988  28.520   2.337
26280W        W98705  33.054  33.910  12.017
26281W        W98706   5.246  16.315   0.381
26282W        W98707  23.114  39.333   4.901
26283W        W98708   6.350  29.842   3.442
26284W        W98709  15.245  11.135  10.707
26285W        W98710  11.596   5.384   2.725
26286W        W98711  15.091  15.605   0.877
26287W        W98712  24.477  17.602   0.930
26288W        W98713  23.201  13.858   3.820
26289W        W98714  15.795   9.436   3.168
26290W        W98715  25.446  41.657  12.338
26291W        W98716  19.790   3.415  14.949
26292W        W98717  25.890  35.459   4.076
26293W        W98718   9.219   0.796  13.745
26294W        W98719   0.326   7.158   4.840
26295W        W98720  40.051  25.959  14.315
26296W        W98721   8.304  14.335  10.556
26297W        W98722  10.588  39.587  11.438
26298W        W98723  19.268  22.044  11.956
26299W        W98724  10.211  35.042   4.773
26300W        W98725  20.178  41.453  11.732
26301W        W98726  28.681  19.728   2.519
26302W        W98727  18.761  16.585  14.299
26303W        W98728  15.137  35.342   1.370
26304W        W98729   2.137  11.745   1.111
26305W        W98730  11.289  26.589  11.135
26306W        W98731  17.016  31.238   3.315
26307W        W98732  33.670  32.316  12.461
26308W        W98733   6.781   2.791  14.917
26309W        W98734   1.816  14.175   4.829
26310W        W98735  38.745  41.139  14.344
26311W        W98736  10.325  31.590   4.601
26312W        W98737  20.755  32.553  12.637
26313W        W98738  28.694  43.502   2.566
26314W        W98739  34.389  40.945   0.471
26315W        W98740  29.203  36.984   1.773
26316W        W98741   3.914   9.361   3.616
26317W        W98742  30.034   3.868  10.699
26318W        W98743  24.463  34.116  10.871
26319W        W98744  16.161  41.318  13.502
26320W        W98745  18.706  29.698   1.766
26321W        W98746  22.118   9.817   4.554
26322W        W98747  25.166  15.218   1.575
26323W        W98748  19.337  34.017   1.389
26324W        W98749   3.693  15.723  12.561
26325W        W98750   8.693   3.842  14.460
26326W        W98751  28.105   0.038  10.338
26327W        W98752  24.288  38.688   3.318
26328W        W98753  12.629  44.530  13.940
26329W        W98754  10.414  19.154   3.787
26330W        W98755  41.529  41.293   2.810
26331W        W98756  33.157   0.012   4.564
26332W        W98757  23.106  18.048  10.701
26333W        W98758  43.288  30.404   0.939
26334W        W98759  36.290  33.786  11.996
26335W        W98760  33.472  17.211  14.843
26336W        W98761  44.997   6.928  11.489
26337W        W98762  27.691  17.539  14.560
26338W        W98763  19.135  27.979   3.314
26339W        W98764  32.937  37.809   4.181
26340W        W98765  12.454  30.224  11.936
26341W        W98766  25.208  24.082   5.265
26342W        W98767  29.532  12.860   2.454
26343W        W98768   2.005   1.683  14.459
26344W        W98769  24.140   6.468  13.561
26345W        W98770  43.026  11.734  12.693
26346W        W98771   3.196  28.594  11.944
26347W        W98772   0.291  23.608   2.084
26348W        W98773  11.899  32.898  13.980
26349W        W98774  39.028   3.671  12.147
26350W        W98775  17.298  35.875  11.644
26351W        W98776   8.441  19.443   4.340
26352W        W98777  34.456  17.691  12.903
26353W        W98778   3.418  12.614  13.386
26354W        W98779  26.675  10.821   0.215
26355W        W98780   6.202  17.264   3.193
26356W        W98781  31.647  34.831   4.088
26357W        W98782  35.655  13.517   3.962
26358W        W98783   1.632  38.669  10.421
26359W        W98784  13.173  21.515   1.773
26360W        W98785  11.415  14.848  12.075
26361W        W98786  31.690  29.929   2.314
26362W        W98787  40.322  25.505   1.728
26363W        W98788  40.096  10.160   4.677
26364W        W98789  27.140  27.709   4.691
26365W        W98790   0.674  34.054   0.922
26366W        W98791  42.731   8.966  10.543
26367W        W98792  24.774  37.543  11.495
26368W        W98793  10.420  31.801  12.905
26369W        W98794  24.472  31.310  13.433
26370W        W98795  35.400  42.722   3.349
26371W        W98796  30.804  18.095  14.566
26372W        W98797   5.741  41.653   4.722
26373W        W98798   2.931  30.628  13.042
26374W        W98799   5.697  21.033   3.387
26375W        W98800   9.199   1.505   2.010
26376W        W98801   2.795  16.766   1.388
26377W        W98802  43.124  15.825   0.097
26378W        W98803  42.256   1.883  13.407
26379W        W98804   8.286  22.282  12.449
26380W        W98805  31.383  15.011   4.068
26381W        W98806  35.956   6.262  13.436
26382W        W98807  17.318  21.313  12.782
26383W        W98808   0.474   4.713   1.157
26384W        W98809  44.757  15.677  12.615
26385W        W98810   4.508  30.121  14.959
26386W        W98811   8.496  23.572   3.092
26387W        W98812  39.179  11.116  14.517
26388W        W98813  16.492   1.591   3.781
26389W        W98814  40.896   0.396   4.243
26390W        W98815  39.541   6.286   1.962
26391W        W98816  10.765  23.628   0.209
26392W        W98817  33.121   4.405  10.547
26393W        W98818  19.658  19.411  11.958
26394W        W98819   9.164   0.012   3.656
26395W        W98820  38.862  34.014  14.755
26396W        W98821  14.646  21.256   0.252
26397W        W98822  16.046  10.433  13.944
26398W        W98823   2.677   8.209  13.402
26399W        W98824  19.617  21.449   0.283
26400W        W98825  11.764  43.761   2.758
26401W        W98826  15.802  23.497  11.566
26402W        W98827   6.922   7.384   0.742
26403W        W98828  20.549  29.492  12.402
26404W        W98829  14.451   7.227  14.279
26405W        W98830  27.167  16.304   4.655
26406W        W98831  21.797   7.404  12.664
26407W        W98832   8.433   8.949  11.611
26408W        W98833  25.252  16.177   4.250
26409W        W98834   6.458   8.414   2.303
26410W        W98835   5.304   3.587   1.196
26411W        W98836  26.455  31.518  10.181
26412W        W98837  39.538   4.105   0.317
26413W        W98838  18.155  30.493  12.985
26414W        W98839  22.620  12.459  12.030
26415W        W98840   9.739  18.722   0.435
26416W        W98841  22.701   6.298   4.256
26417W        W98842  12.316  31.838  12.520
26418W        W98843  14.870  14.571  11.174
26419W        W98844   8.210  37.188   1.767
26420W        W98845  29.628   3.039   2.132
26421W        W98846  27.151  31.286   3.261
26422W        W98847  31.356  36.572  12.959
26423W        W98848  43.823  36.674   4.431
26424W        W98849  31.520   9.466   1.393
26425W        W98850  22.093   7.723  13.622
26426W        W98851  29.635   9.818  10.851
26427W        W98852  14.791  24.649  10.753
26428W        W98853  31.163  28.535  12.425
26429W        W98854  26.617  35.147   4.335
26430W        W98855  23.157  24.433  12.034
26431W        W98856   9.788  14.247  14.005
26432W        W98857  13.285  38.540  14.821
26433W        W98858  23.059  10.441  11.435
26434W        W98859   8.912  33.955  11.618
26435W        W98860   6.476  21.668   0.923
26436W        W98861  42.029  25.104   4.913
26437W        W98862  12.524  41.875  11.638
26438W        W98863  26.058   4.644   2.882
26439W        W98864  37.289   6.361   4.997
26440W        W98865  18.661  21.343  11.901
26441W        W98866  37.649   2.410  14.537
26442W        W98867  10.958   8.882   2.872
26443W        W98868  40.399  13.864  13.508
26444W        W98869   1.225   1.833   1.869
26445W        W98870  31.869   8.655   1.393
26446W        W98871   8.872  32.517  13.869
26447W        W98872   0.859   9.696  11.791
26448W        W98873  18.803  38.092  11.716
26449W        W98874  13.431  33.109  11.595
26450W        W98875   3.296   0.918  12.670
26451W        W98876  28.847  15.183   2.180
26452W        W98877  25.503  10.274  12.875
26453W        W98878  19.997  39.378   4.580
26454W        W98879   9.384  44.415   1.522
26455W        W98880  27.030   7.939  12.012
26456W        W98881  22.952  21.724  14.931
26457W        W98882   1.549  31.991  14.397
26458W        W98883   4.195  14.317   1.162
26459W        W98884   7.961  36.055  12.031
26460W        W98885   5.789  13.763   2.743
26461W        W98886  42.748  37.398  10.758
26462W        W98887  32.482   9.539   0.309
26463W        W98888  43.755  12.734   1.769
26464W        W98889  11.017  16.038   0.527
26465W        W98890  10.099   5.752  13.673
26466W        W98891   4.271   2.956   0.327
26467W        W98892  14.826  15.218  11.617
26468W        W98893  41.324  31.859   0.280
26469W        W98894  28.122  30.627   9.650
26470W        W98895  32.418  42.302  11.886
26471W        W98896  15.012  40.829  14.378
26472W        W98897  26.680  22.819  11.423
26473W        W98898  11.885  38.871   2.735
26474W        W98899  19.749  26.163   4.904
26475W        W98900  33.507  11.743   4.018
26476W        W98901  28.022  14.118  14.985
26477W        W98902  44.594  36.497   1.045
26478W        W98903   9.270   1.250  13.476
26479W        W98904  22.539  38.317   1.625
26480W        W98905  41.686  18.297   3.361
26481W        W98906  42.396  32.064   4.345
26482W        W98907   5.916  21.734   3.016
26483W        W98908  15.509  13.913   2.720
26484W        W98909  15.654  32.615   3.244
26485W        W98910  21.874  16.596  14.856
26486W        W98911  44.208  21.766   3.354
26487W        W98912   7.337  44.985   1.718
26488W        W98913  19.171  44.733  13.944
26489W        W98914   0.012  19.633   3.123
26490W        W98915  32.860  39.353   4.197
26491W        W98916  39.046   0.866  13.070
26492W        W98917  32.211  27.148   2.464
26493W        W98918  33.176   5.280  12.918
26494W        W98919  10.363  21.998  11.159
26495W        W98920  44.856  15.524  14.992
26496W        W98921  36.727  20.295   3.244
26497W        W98922  30.533  19.253   3.804
26498W        W98923  28.192  16.766   3.521
26499W        W98924  13.312  20.223  10.639
26500W        W98925  31.357  12.762   1.357
26501W        W98926  37.849   7.499   2.322
26502W        W98927  11.141  25.038  10.898
26503W        W98928  15.486  37.418  14.956
26504W        W98929  31.661  21.546   0.312
26505W        W98930   0.893  14.313  14.190
26506W        W98931   1.666  11.260  13.920
26507W        W98932   4.339  44.252  14.441
26508W        W98933  27.854  37.174   4.624
26509W        W98934  42.527   8.241  11.134
26510W        W98935  19.879  35.060  13.465
26511W        W98936  34.882  16.905   4.182
26512W        W98937  26.967  20.023  13.753
26513W        W98938  37.872  19.741  14.263
26514W        W98939  29.841  25.657   1.226
26515W        W98940  39.850  23.067  12.042
26516W        W98941  33.149   0.037  13.581
26517W        W98942   0.493  12.512   4.066
26518W        W98943  32.488  12.361  12.069
26519W        W98944  23.464  21.367   4.549
26520W        W98945  13.795   9.703  12.035
26521W        W98946   2.580   8.774  11.981
26522W        W98947  38.785  32.645   1.411
26523W        W98948   8.197  20.316  11.510
26524W        W98949  33.393   7.063   0.952
26525W        W98950  30.954  42.450   0.970
26526W        W98951  24.424  22.244  13.705
26527W        W98952   0.738  28.662  14.805
26528W        W98953  19.009  12.856  12.419
26529W        W98954  17.399   0.983  10.572
26530W        W98955  18.644  36.982   3.316
26531W        W98956  30.802  18.049  12.657
26532W        W98957  21.204  35.467  10.390
26533W        W98958  10.117  16.709   3.951
26534W        W98959  18.534  43.295   1.929
26535W        W98960  44.755   8.788  10.805
26536W        W98961  33.995  43.696   0.474
26537W        W98962  29.108   6.283   0.830
26538W        W98963  27.355  44.726   9.947
26539W        W98964  23.208  36.468  11.953
26540W        W98965  16.960  12.340  14.267
26541W        W98966   7.167   3.813  12.435
26542W        W98967  36.545   1.752  12.408
26543W        W98968  34.911   6.373  11.424
26544W        W98969   0.256   7.304   0.384
26545W        W98970  18.693  26.141  13.512
26546W        W98971  15.398  15.315  10.798
26547W        W98972  30.420  10.874  13.809
26548W        W98973  41.424  36.884   3.995
26549W        W98974   9.022  34.595   4.017
26550W        W98975  39.575  27.495  12.635
26551W        W98976  39.830  43.379  12.971
26552W        W98977  26.439  17.124  11.073
26553W        W98978   3.448  17.176   0.983
26554W        W98979  28.601  43.452  11.877
26555W        W98980  43.482   2.829   2.800
26556W        W98981   8.236  21.549  12.919
26557W        W98982  20.292  30.365   2.637
26558W        W98983  18.405  31.204  10.442
26559W        W98984  22.985  41.017  13.570
26560W        W98985   5.154  41.055  13.391
26561W        W98986   8.705  44.561  13.889
26562W        W98987   9.130  30.921   0.396
26563W        W98988  30.495  44.568   5.120
26564W        W98989  28.186  36.633   4.052
26565W        W98990  19.439  18.905  14.261
26566W        W98991  21.032   9.287   5.127
26567W        W98992  33.167  12.612   0.895
26568W        W98993   0.479  44.252   1.272
26569W        W98994  21.424  16.578  13.890
26570W        W98995   0.543  42.233   0.795
26571W        W98996  34.631  29.402  13.868
26572W        W98997   0.369   1.957  13.684
26573W        W98998  10.377  21.695   5.058
26574W        W98999   9.987  44.407  11.173
26575W        W99000  22.688  28.608   2.814
26576W        W99001  40.714   3.344   0.784
26577W        W99002  41.664  15.328   4.191
26578W        W99003  40.285  28.253   2.930
26579W        W99004  31.588  34.874  11.066
26580W        W99005  37.338  14.941  12.948
26581W        W99006  20.551  38.729   5.024
26582W        W99007   3.904  43.758  10.945
26583W        W99008   7.747  41.593  13.000
26584W        W99009  35.868  12.491  13.748
26585W        W99010   8.847   9.786   2.927
26586W        W99011  16.174  34.463  14.528
26587W        W99012  28.408  25.017  14.834
26588W        W99013  10.619  24.326   3.324
26589W        W99014  41.244  14.759   4.633
26590W        W99015  40.248  28.965  13.229
26591W        W99016  20.128  21.240   1.148
26592W        W99017  35.488   1.485  14.475
26593W        W99018  41.327  43.162  10.756
26594W        W99019  15.408  18.197  11.082
26595W        W99020   5.863  34.098  13.451
26596W        W99021   0.221  10.399  12.974
26597W        W99022  43.417  19.731  12.207
26598W        W99023   4.362  30.670   1.732
26599W        W99024  25.537  15.334  14.456
26600W        W99025   8.163  37.323   3.084
26601W        W99026   7.820  10.601  14.995
26602W        W99027  18.645  29.003   1.340
26603W        W99028   2.797  14.844  12.510
26604W        W99029  38.383  17.819  13.526
26605W        W99030  43.861  33.485   4.310
26606W        W99031  22.315  12.102   3.848
26607W        W99032  34.879  12.895   2.003
26608W        W99033  40.723  43.408   0.855
26609W        W99034  17.574  12.745   4.778
26610W        W99035  16.562  25.963   1.223
26611W        W99036  25.704  16.833  14.286
26612W        W99037   1.395  35.055   4.111
26613W        W99038  19.775  31.185   0.872
26614W        W99039  37.975  34.511  11.912
26615W        W99040   1.026  40.590   3.765
26616W        W99041  38.570  13.884  13.398
26617W        W99042  37.411   3.418  12.586
26618W        W99043  22.348  44.238  12.232
26619W        W99044  16.582  31.370  13.045
26620W        W99045  25.045   7.844  11.268
26621W        W99046  43.353  44.028  10.853
26622W        W99047  42.495  40.069  11.939
26623W        W99048  18.123  12.742  12.621
26624W        W99049  10.270   0.860  11.613
26625W        W99050  32.158   6.878  14.462
26626W        W99051  13.653  28.085   1.044
26627W        W99052   3.367  38.497  13.984
26628W        W99053  29.420  35.089   2.410
26629W        W99054  19.208  24.444   0.010
26630W        W99055   3.250  39.122   3.942
26631W        W99056  40.819  10.771  11.079
26632W        W99057   3.471  35.075  10.460
26633W        W99058   2.367   0.870   4.687
26634W        W99059   1.800  42.802   2.241
26635W        W99060  41.714   9.780  13.955
26636W        W99061  11.278  14.459   1.383
26637W        W99062   5.675  20.862  10.532
26638W        W99063  23.136  25.205   2.284
26639W        W99064  29.800   0.484  11.486
26640W        W99065   9.397   2.936   4.702
26641W        W99066  28.617  15.521  11.139
26642W        W99067  26.052  37.052   3.402
26643W        W99068   4.378  14.585  14.061
26644W        W99069  19.159   9.118  13.352
26645W        W99070  27.478  21.859   0.634
26646W        W99071  14.420  22.501   0.095
26647W        W99072  32.632  13.906  12.100
26648W        W99073   5.779  11.221  11.466
26649W        W99074   4.749  41.960   2.763
26650W        W99075   9.921  16.666   0.934
26651W        W99076  17.539  37.606  10.624
26652W        W99077  10.646  37.118   1.447
26653W        W99078  25.716  23.447  13.064
26654W        W99079   4.400  21.114   2.241
26655W        W99080   3.355  32.472  10.688
26656W        W99081  25.983  29.678   1.830
26657W        W99082  35.085  12.129  13.780
26658W        W99083  23.935   7.354   0.715
26659W        W99084  27.166  28.411  10.730
26660W        W99085   8.986  19.643   1.217
26661W        W99086  14.156  25.065  11.026
26662W        W99087  44.536  32.516   3.521
26663W        W99088  44.799  26.640   1.725
26664W        W99089   7.136  34.524   2.318
26665W        W99090  17.187  34.177   2.357
26666W        W99091  13.115   1.215   2.791
26667W        W99092  39.186  42.433   1.520
26668W        W99093   5.378   0.363   2.888
26669W        W99094  22.544  42.684   3.077
26670W        W99095  36.513   4.328  14.085
26671W        W99096   5.466  15.555  11.969
26672W        W99097  18.903  29.203   5.447
26673W        W99098  22.114  42.964   0.737
26674W        W99099  24.612  12.283  11.511
26675W        W99100   2.997  38.071   0.954
26676W        W99101  32.220  42.596  11.525
26677W        W99102  19.608  22.350  13.459
26678W        W99103   5.524  32.009   5.081
26679W        W99104  13.373  14.259   3.387
26680W        W99105  41.063  37.114   3.170
26681W        W99106  32.788  36.214  13.408
26682W        W99107  27.577  32.997   0.347
26683W        W99108  21.331  12.265  11.416
26684W        W99109  39.901  25.606   0.567
26685W        W99110  33.133   5.152   2.550
26686W        W99111  43.891  44.483  12.346
26687W        W99112  21.988  37.355  14.832
26688W        W99113  37.601  11.755   3.154
26689W        W99114  33.073  18.317   9.731
26690W        W99115  12.120  23.309   1.212
26691W        W99116  38.761  17.099  11.571
26692W        W99117  20.086  17.075  13.818
26693W        W99118   2.232  36.644   4.223
26694W        W99119  10.028  22.365  11.360
26695W        W99120  31.680  24.971  12.489
26696W        W99121  13.598  21.202   4.966
26697W        W99122  25.123  25.425  11.919
26698W        W99123   2.247   0.894   2.729
26699W        W99124  33.643  27.374  12.450
26700W        W99125  31.940   7.702  12.508
26701W        W99126  26.764  14.188  11.715
26702W        W99127  19.798  32.603   0.821
26703W        W99128  36.647   6.957  13.587
26704W        W99129  25.208  30.968  12.105
26705W        W99130   8.106  35.577  13.370
26706W        W99131  24.961  21.594  10.691
26707W        W99132  10.475  32.505  12.316
26708W        W99133  13.495  40.482   5.050
26709W        W99134  16.102  24.171   4.715
26710W        W99135   5.440  16.220  11.777
26711W        W99136   1.390   4.228  11.091
26712W        W99137   8.147  38.939   2.351
26713W        W99138  25.327   4.042  11.199
26714W        W99139  13.066  11.326  11.224
26715W        W99140  15.339  31.391   4.892
26716W        W99141  31.898   9.262  11.296
26717W        W99142   2.303  37.783  10.776
26718W        W99143  16.372  28.443   0.293
26719W        W99144  34.117   0.566   0.330
26720W        W99145  44.303  39.983  11.912
26721W        W99146   7.854  35.061   4.537
26722W        W99147   4.167  19.051  11.987
26723W        W99148   8.238   1.841   4.062
26724W        W99149  31.730  36.511   3.610
26725W        W99150  24.081   1.462  13.003
26726W        W99151   4.225  41.591  14.236
26727W        W99152  31.632  44.035   0.850
26728W        W99153  13.305  26.105   3.429
26729W        W99154  20.713   2.727  10.572
26730W        W99155  33.961  17.609  12.656
26731W        W99156  16.597   5.401   0.851
26732W        W99157  45.000  33.624  12.034
26733W        W99158   8.880  33.443   9.973
26734W        W99159  40.533   2.924   3.883
26735W        W99160  39.592  39.149   2.734
26736W        W99161   5.979  34.459  13.821
26737W        W99162  23.047  30.016   2.696
26738W        W99163   0.872  42.365  12.579
26739W        W99164  42.918   9.635  12.518
26740W        W99165  17.740  38.384   0.310
26741W        W99166   4.489  37.960  11.209
26742W        W99167  44.311  41.881  14.507
26743W        W99168   2.997   7.116  11.565
26744W        W99169  17.140  32.667   4.239
26745W        W99170  33.492  28.855  14.936
26746W        W99171  23.595  17.930   0.084
26747W        W99172  22.269  38.450   2.870
26748W        W99173  41.309  14.305  13.239
26749W        W99174  38.162  32.794   0.011
26750W        W99175  32.225  16.604  14.802
26751W        W99176  29.653  13.835   0.875
26752W        W99177   4.963  17.920  11.042
26753W        W99178   1.692   7.789   4.194
26754W        W99179  22.221  10.125   0.293
26755W        W99180  38.866  43.021  12.123
26756W        W99181   6.665  43.478   3.676
26757W        W99182  21.218  24.791  11.418
26758W        W99183  35.357  23.041   3.909
26759W        W99184  38.982  30.196   3.786
26760W        W99185  33.947   6.969   3.088
26761W        W99186   1.782  27.311  13.358
26762W        W99187   4.763  34.048  11.910
26763W        W99188  27.974   6.373   2.378
26764W        W99189  22.607  42.170  12.324
26765W        W99190   3.718  21.491  12.866
26766W        W99191   0.940   6.326  14.803
26767W        W99192  20.973  16.978   1.519
26768W        W99193  10.341   2.409   3.848
26769W        W99194  11.196  36.431  12.146
26770W        W99195  10.235  43.922  11.059
26771W        W99196  10.601  33.835  10.710
26772W        W99197   6.279  21.979   1.302
26773W        W99198   5.834  18.080   1.957
26774W        W99199  42.521  36.591   3.636
26775W        W99200  15.789  23.075   0.175
26776W        W99201  25.747  12.098  10.766
26777W        W99202  13.814   6.478   2.633
26778W        W99203  32.175  34.352   1.750
26779W        W99204  44.047  24.038   4.558
26780W        W99205  33.123  12.570  13.928
26781W        W99206   9.777  34.642  13.602
26782W        W99207  12.211  43.415  14.069
26783W        W99208  14.444  26.669  13.532
26784W        W99209  15.870  38.144   3.213
26785W        W99210  39.305  17.532   3.113
26786W        W99211  22.189  19.245  14.778
26787W        W99212  13.040  22.450   4.025
26788W        W99213  10.159  34.028  14.700
26789W        W99214  11.452  33.918  12.365
26790W        W99215   6.783   4.503   4.790
26791W        W99216  10.294   5.666   4.636
26792W        W99217  12.175  44.017   1.772
26793W        W99218   0.648  13.110  12.473
26794W        W99219  41.235  32.194  12.015
26795W        W99220  20.270  27.859  13.850
26796W        W99221  41.316   1.503   3.797
26797W        W99222  40.965  25.660  12.475
26798W        W99223  31.091   5.681   3.597
26799W        W99224  29.434  36.019   0.380
26800W        W99225  15.552   0.570   9.848
26801W        W99226  43.593  32.157   2.406
26802W        W99227   4.128  20.202   1.308
26803W        W99228  25.937  16.194   1.220
26804W        W99229  28.099  44.331  12.252
26805W        W99230  18.585  30.862  10.097
26806W        W99231   2.369  25.089  10.666
26807W        W99232   2.052  30.683   0.822
26808W        W99233  15.051  44.049  11.675
26809W        W99234  29.582  39.328  11.652
26810W        W99235  27.798   5.498   3.810
26811W        W99236  35.636  12.148  11.530
26812W        W99237   3.850  15.742  12.042
26813W        W99238  44.738  34.093   0.487
26814W        W99239   8.946  18.994   4.059
26815W        W99240  17.267   4.133   2.887
26816W        W99241  33.337  41.902   1.936
26817W        W99242  15.889  23.277  12.049
26818W        W99243  38.871  44.472  12.759
26819W        W99244  40.416  40.389   3.723
26820W        W99245  12.721  20.116  13.051
26821W        W99246   7.665  30.606  11.165
26822W        W99247  10.173  17.417  11.549
26823W        W99248  30.334   2.235   2.868
26824W        W99249  14.224  19.007   3.707
26825W        W99250  27.919  29.740   5.115
26826W        W99251   1.267  26.238  14.844
26827W        W99252  27.874  44.685   0.931
26828W        W99253  10.387   7.316   1.295
26829W        W99254   5.248  40.461   1.865
26830W        W99255  11.890  29.218  13.172
26831W        W99256  11.330  11.664  11.628
26832W        W99257  36.322  29.466  11.106
26833W        W99258   2.968   6.332  11.964
26834W        W99259  42.669  44.966   4.109
26835W        W99260   7.786   3.522   4.598
26836W        W99261  37.427   9.946  12.644
26837W        W99262  14.088  26.408   3.767
26838W        W99263  32.678   2.293  10.592
26839W        W99264  13.419   3.924   3.494
26840W        W99265  25.122  37.903   3.287
26841W        W99266  22.627  27.530  14.068
26842W        W99267  19.627  27.447  12.793
26843W        W99268  39.319  15.746   3.738
26844W        W99269  42.542  12.866   0.291
26845W        W99270   8.876  13.188   0.931
26846W        W99271  29.018   2.721   4.070
26847W        W99272  38.878   8.656  12.185
26848W        W99273   0.537   1.757  12.824
26849W        W99274  43.303  24.383   2.918
26850W        W99275  28.877  16.077   2.713
26851W        W99276  32.144  19.254  10.252
26852W        W99277  42.569  14.347   0.370
26853W        W99278  28.965  24.167   1.272
26854W        W99279  18.583  30.471   4.221
26855W        W99280  44.581  12.313   4.078
26856W        W99281  14.616  14.130  11.158
26857W        W99282  40.454  33.049  10.949
26858W        W99283   9.137  19.207  11.931
26859W        W99284   6.559  33.881   0.711
26860W        W99285   4.155   0.464  11.047
26861W        W99286  41.047   4.927  10.596
26862W        W99287  35.816  44.365   0.079
26863W        W99288  18.085  29.815  13.832
26864W        W99289  35.515   1.520  10.600
26865W        W99290  13.822   1.266   1.413
26866W        W99291  37.860  28.939  12.390
26867W        W99292  41.798  40.665   2.899
26868W        W99293  20.154  22.436  12.868
26869W        W99294   5.284  32.926  11.708
26870W        W99295  38.971  24.624   4.069
26871W        W99296   9.732  23.744   1.716
26872W        W99297   8.806  10.719   3.377
26873W        W99298  12.309   5.155  13.405
26874W        W99299   3.793  13.012   3.302
26875W        W99300  42.328  18.560   0.819
26876W        W99301   7.601  35.309   0.363
26877W        W99302  25.231  16.043   4.778
26878W        W99303   5.996  40.505   2.289
26879W        W99304   4.772  34.925  10.375
26880W        W99305   5.831  23.705  13.471
26881W        W99306  18.141  16.026  12.203
26882W        W99307   0.398   2.838  13.604
26883W        W99308  11.340  29.600   2.359
26884W        W99309  38.553  26.223   1.876
26885W        W99310   1.172   8.254  14.941
26886W        W99311  14.607  20.538   2.144
26887W        W99312  30.593   7.326   4.638
26888W        W99313  10.424  27.121  14.608
26889W        W99314  39.632  10.257   4.409
26890W        W99315  11.178  29.897   1.706
26891W        W99316  42.077  33.031   2.527
26892W        W99317  28.573  18.637   4.616
26893W        W99318  10.324   4.337   1.380
26894W        W99319  11.046  17.479   0.510
26895W        W99320  22.973   1.252  14.221
26896W        W99321   7.642   8.880  14.099
26897W        W99322  38.430  16.361   1.385
26898W        W99323  37.768   8.813  13.170
26899W        W99324   3.923  17.685   4.485
26900W        W99325  21.857  16.268  13.014
26901W        W99326  40.810   1.756   3.142
26902W        W99327  41.550   7.375   0.303
26903W        W99328  32.191  32.095   1.833
26904W        W99329  42.944  20.247  14.439
26905W        W99330   7.223  40.842  14.825
26906W        W99331  34.518   9.656  13.918
26907W        W99332  28.060   9.346  13.962
26908W        W99333  24.180  37.984   4.536
26909W        W99334  29.093  36.563   3.575
26910W        W99335   5.895  39.273   2.844
26911W        W99336  18.102  38.007  12.867
26912W        W99337  10.275  26.925   2.719
26913W        W99338  23.506  44.268   3.158
26914W        W99339  41.687   2.455   0.798
26915W        W99340  17.244  17.568  10.716
26916W        W99341  23.719  11.827  13.447
26917W        W99342  15.560  11.693  13.454
26918W        W99343  38.021  34.944   1.646
26919W        W99344  20.583   5.244  11.597
26920W        W99345  13.575  16.146  10.723
26921W        W99346  40.417  15.095  10.707
26922W        W99347  40.761  26.968   2.848
26923W        W99348  16.813  10.114  14.389
26924W        W99349  29.216  35.143  11.210
26925W        W99350  32.523  44.498   0.529
26926W        W99351  14.890  29.501  13.083
26927W        W99352  32.874  34.068  11.574
26928W        W99353   4.903  20.114   0.907
26929W        W99354  17.210  25.474   1.344
26930W        W99355  25.614  14.149  13.098
26931W        W99356  27.122  30.620  10.267
26932W        W99357   5.379  42.131   1.318
26933W        W99358  24.223   1.177   0.700
26934W        W99359  27.101   4.907   3.773
26935W        W99360  36.541  22.533  11.446
26936W        W99361  44.005  24.248  13.777
26937W        W99362   5.905  23.181   1.769
26938W        W99363  31.247  13.581   2.292
26939W        W99364  18.684  12.920  14.301
26940W        W99365  20.755   0.951   0.278
26941W        W99366  12.086   3.331   0.170
26942W        W99367  41.768  26.464  13.140
26943W        W99368  41.020  25.487  11.551
26944W        W99369   0.450   6.128   3.221
26945W        W99370   4.755  17.312   4.621
26946W        W99371  41.914  19.079   1.762
26947W        W99372  36.315  42.354  12.044
26948W        W99373  10.917  42.633  10.180
26949W        W99374  11.781  29.198  12.140
26950W        W99375  26.218  44.661  11.151
26951W        W99376  35.921  28.135   0.274
26952W        W99377   3.703  32.209  12.862
26953W        W99378   7.399  39.490   1.836
26954W        W99379  40.177  21.144   4.103
26955W        W99380  28.808  19.067   4.408
26956W        W99381  29.556   9.856   3.404
26957W        W99382  27.387   9.150  14.813
26958W        W99383  13.144  40.630  10.743
26959W        W99384  34.017  37.985  11.549
26960W        W99385  40.415   7.701  12.195
26961W        W99386   9.201  15.310  10.710
26962W        W99387  21.171  18.225  11.613
26963W        W99388  10.722  34.589  13.511
26964W        W99389  36.576  12.725   2.326
26965W        W99390  31.960  14.269  14.345
26966W        W99391  36.543   8.430   2.855
26967W        W99392  26.978  13.516  13.393
26968W        W99393  41.893  18.341   1.002
26969W        W99394  15.379  20.921  12.130
26970W        W99395  14.726   4.716  11.986
26971W        W99396   8.688   8.673   3.654
26972W        W99397  34.105  14.067   3.308
26973W        W99398  12.210  30.684   2.095
26974W        W99399  13.295  18.564  14.373
26975W        W99400  30.014  10.284   5.056
26976W        W99401  26.221  29.472   1.393
26977W        W99402  36.625  37.427  10.676
26978W        W99403  24.942  19.076   1.414
26979W        W99404  11.143  35.344  14.286
26980W        W99405  13.314  22.683  12.378
26981W        W99406  37.453   8.742  14.149
26982W        W99407  23.751  34.116  13.444
26983W        W99408  39.814   8.198  10.707
26984W        W99409  37.598   1.573  11.618
26985W        W99410  35.852  40.118   4.408
26986W        W99411  25.244  34.876  12.417
26987W        W99412  22.526  41.920  13.690
26988W        W99413  41.894  11.891   1.291
26989W        W99414  27.468   1.647  13.311
26990W        W99415  44.516  20.064  14.317
26991W        W99416  16.166  17.520   4.610
26992W        W99417   8.068   5.208   2.296
26993W        W99418   4.242   7.229   2.483
26994W        W99419  30.998  41.567   0.874
26995W        W99420   7.922   0.292   0.316
26996W        W99421  36.521  34.192   0.540
26997W        W99422  22.712  36.838  14.340
26998W        W99423  30.193  39.995   1.262
26999W        W99424  39.235   4.327   3.080
27000W        W99425   6.743  33.658   2.394
27001W        W99426  40.893   5.689   3.133
27002W        W99427  27.555  42.321   1.484
27003W        W99428  34.496  19.305   2.188
27004W        W99429  28.629  44.578   4.585
27005W        W99430  27.704  15.852   1.898
27006W        W99431  33.243  15.952  14.845
27007W        W99432  32.121  42.841  14.637
27008W        W99433  31.062  22.726  12.466
27009W        W99434  14.625   8.969   4.666
27010W        W99435  18.977  33.324  14.781
27011W        W99436  33.321  26.303   4.077
27012W        W99437  16.699  20.496   1.443
27013W        W99438  29.464  39.694  11.312
27014W        W99439  35.776  31.450   4.065
27015W        W99440   0.509  29.133   2.807
27016W        W99441  15.652  22.599   1.767
27017W        W99442  25.710  22.182   2.757
27018W        W99443  30.055  44.053   1.685
27019W        W99444  11.337  33.627  12.782
27020W        W99445  14.719  21.737  12.910
27021W        W99446  25.097  20.011  11.511
27022W        W99447   9.240  35.000   3.802
27023W        W99448  16.698  22.962  10.632
27024W        W99449   4.895  14.908  11.576
27025W        W99450  19.123  39.014  12.779
27026W        W99451  33.200   5.793  14.324
27027W        W99452   9.072  16.045  12.332
27028W        W99453  30.121  28.738  12.542
27029W        W99454  21.650  31.668   2.018
27030W        W99455  16.626  25.746  11.671
27031W        W99456  26.214  12.611  13.995
27032W        W99457  40.431  31.427  10.696
27033W        W99458  16.355   5.923   3.892
27034W        W99459  21.733  44.292  11.170
27035W        W99460  18.240  36.128   2.314
27036W        W99461  17.037  30.042   2.116
27037W        W99462  18.495  37.207  12.406
27038W        W99463  33.994  43.714   1.238
27039W        W99464  32.355  37.101   1.960
27040W        W99465   4.425  13.170   2.085
27041W        W99466  35.543  36.466  14.237
27042W        W99467  28.422  31.110   2.760
27043W        W99468  28.685  44.542   1.630
27044W        W99469  29.154  40.072  11.158
27045W        W99470   8.194  38.023   2.397
27046W        W99471   6.262  40.930   1.782
27047W        W99472  40.935  27.439  13.840
27048W        W99473   4.059  25.153   3.583
27049W        W99474   5.621  35.939  12.749
27050W        W99475   1.301  22.529  14.932
27051W        W99476  16.662  37.991   1.061
27052W        W99477   4.634  15.853  11.611
27053W        W99478  41.831  40.803  11.085
27054W        W99479  43.852  30.699  12.497
27055W        W99480  43.811  40.977  11.610
27056W        W99481  41.780  29.775  12.930
27057W        W99482  31.770  29.061  10.692
27058W        W99483  22.015  36.137  13.018
27059W        W99484  43.561  39.822   0.710
27060W        W99485  30.142  37.384   3.676
27061W        W99486  39.985   7.229  12.974
27062W        W99487   3.212  27.410  10.494
27063W        W99488  11.520  22.129   4.180
27064W        W99489   1.626  30.309  11.818
27065W        W99490  38.037  20.787   2.848
27066W        W99491  44.858  29.542   2.166
27067W        W99492  35.655  11.808  10.631
27068W        W99493   5.322  25.657  12.402
27069W        W99494   0.486   5.415  10.706
27070W        W99495  29.563  41.008  14.995
27071W        W99496  33.978  35.879  13.100
27072W        W99497  10.488  28.487   2.867
27073W        W99498   7.788  30.585   0.338
27074W        W99499  23.265   5.825  14.945
27075W        W99500  13.233  39.802  12.169
27076W        W99501  37.049  36.181   3.675
27077W        W99502  12.698  24.624   1.155
27078W        W99503  19.017  39.098   3.297
27079W        W99504  15.632   7.851  14.879
27080W        W99505  34.312   3.142   4.892
27081W        W99506  34.340  35.997  11.944
27082W        W99507   7.277  20.483   2.852
27083W        W99508  14.771  29.942   0.080
27084W        W99509  14.015   0.782  14.809
27085W        W99510  40.464  17.738   4.517
27086W        W99511  34.345  41.006   2.256
27087W        W99512  39.751  22.244  13.013
27088W        W99513   8.279   0.164   4.131
27089W        W99514   4.694  29.190  14.837
27090W        W99515  36.257  42.512  13.889
27091W        W99516  18.017  18.233  10.687
27092W        W99517  12.713  32.819  12.085
27093W        W99518  30.088  34.908   3.339
27094W        W99519  18.109  14.093   3.028
27095W        W99520  39.965   3.993  12.712
27096W        W99521  39.620  12.251   1.942
27097W        W99522  43.909  35.993  10.631
27098W        W99523  41.420  37.914   0.894
27099W        W99524  31.510  14.100   4.201
27100W        W99525  39.302  40.594  11.809
27101W        W99526  22.302   3.952  14.590
27102W        W99527   8.120  11.700   4.393
27103W        W99528  21.075  38.837   5.126
27104W        W99529  42.960   4.815   1.003
27105W        W99530   5.765  42.459  10.684
27106W        W99531  28.424   0.924  13.388
27107W        W99532  16.758   7.773  14.571
27108W        W99533  32.859   0.728   4.066
27109W        W99534   6.862  39.016   0.292
27110W        W99535  36.014  11.171  11.201
27111W        W99536  30.942  25.199  13.634
27112W        W99537  15.233   9.387   3.638
27113W        W99538  21.436  23.966   4.568
27114W        W99539   3.316  17.779   0.380
27115W        W99540   4.360  29.721   1.353
27116W        W99541  31.194   0.022   3.714
27117W        W99542  23.155  22.212  12.033
27118W        W99543  14.084  17.762   3.141
27119W        W99544  24.095  42.387  11.143
27120W        W99545   3.698  26.011   3.863
27121W        W99546  43.216   2.546  13.112
27122W        W99547  44.456  39.433  12.857
27123W        W99548   5.459  16.297   3.820
27124W        W99549   6.162  13.983  12.065
27125W        W99550  26.469  29.721   1.972
27126W        W99551  29.393  33.626   0.703
27127W        W99552  31.239   8.260  14.314
27128W        W99553  28.890   5.141  14.882
27129W        W99554  39.492  39.581   1.251
27130W        W99555   4.943   0.826   0.025
27131W        W99556  22.673  43.660   2.805
27132W        W99557  34.318  30.743  10.329
27133W        W99558  10.369  18.404   3.209
27134W        W99559  38.983  33.846   0.863
27135W        W99560   1.620  39.068  13.382
27136W        W99561  29.548   0.499  13.262
27137W        W99562  39.813  30.474  11.103
27138W        W99563  18.216  17.068  11.501
27139W        W99564  28.908  24.058  11.852
27140W        W99565  40.573   2.488  12.074
27141W        W99566  33.554   3.319  13.012
27142W        W99567  12.097   7.700  12.460
27143W        W99568  38.046  40.280   3.366
27144W        W99569  23.857   0.605   5.060
27145W        W99570  37.198  14.426  10.188
27146W        W99571   1.826  30.122   2.260
27147W        W99572  18.630  16.000   4.634
27148W        W99573   5.934   5.329  12.265
27149W        W99574  36.351  23.130  14.572
27150W        W99575  24.885  26.748   2.540
27151W        W99576   9.604   9.828   1.297
27152W        W99577   6.925  43.712  11.985
27153W        W99578  38.060   5.682  14.381
27154W        W99579  12.748  30.910  14.717
27155W        W99580   7.890  35.275   5.091
27156W        W99581  34.597  16.848   3.240
27157W        W99582   6.386   6.213  13.055
27158W        W99583   1.073  41.319  13.073
27159W        W99584  40.368  29.540  12.108
27160W        W99585  28.374   0.815  14.237
27161W        W99586  26.559   1.034  13.027
27162W        W99587  29.538  30.153   3.922
27163W        W99588   2.208  28.059   0.349
27164W        W99589  41.776  16.736   0.251
27165W        W99590  21.237  38.411   0.799
27166W        W99591  18.263  43.373   2.364
27167W        W99592  10.232  18.996   4.862
27168W        W99593  33.384   1.573  12.828
27169W        W99594  16.078  33.555   4.412
27170W        W99595  17.767  24.804   0.137
27171W        W99596   4.249  34.962  12.085
27172W        W99597  24.792  11.616  11.645
27173W        W99598  13.302  27.921  10.122
27174W        W99599  23.019   7.239   5.071
27175W        W99600   8.728  28.900   2.418
27176W        W99601   3.398  23.631  12.550
27177W        W99602  14.317   1.825  14.036
27178W        W99603  33.601  38.529   3.654
27179W        W99604  26.434  24.511  13.508
27180W        W99605   6.263   8.705  14.707
27181W        W99606   5.975  31.040   1.570
27182W        W99607  20.612  40.926  14.349
27183W        W99608  10.453  17.625   1.835
27184W        W99609  22.466   8.311   0.192
27185W        W99610  21.785  25.680   2.858
27186W        W99611  29.634  40.931  11.363
27187W        W99612   9.255  23.494  11.165
27188W        W99613   2.375  40.312   1.235
27189W        W99614   4.988  42.713  11.991
27190W        W99615  17.156  13.197  10.764
27191W        W99616  31.563  28.583   0.800
27192W        W99617  16.769  26.566  13.338
27193W        W99618   9.687  20.689   0.921
27194W        W99619  20.219  44.401   0.991
27195W        W99620  13.821  29.904  11.563
27196W        W99621  34.425  26.651  14.316
27197W        W99622   4.608  16.770  12.676
27198W        W99623  40.821  14.089  12.536
27199W        W99624   7.936  32.483   4.808
27200W        W99625  17.666  10.292  13.224
27201W        W99626  23.728   1.072   4.122
27202W        W99627   9.288   0.380   2.829
27203W        W99628  29.265  24.639   0.428
27204W        W99629  26.027  44.522   5.017
27205W        W99630  21.619  15.075  13.525
27206W        W99631  32.698   7.322  12.294
27207W        W99632   3.315  17.086  12.310
27208W        W99633  16.656  28.422  14.279
27209W        W99634  14.763  26.918   2.666
27210W        W99635  32.952   4.302  12.763
27211W        W99636  39.340   1.556  14.346
27212W        W99637  13.783   1.273  11.220
27213W        W99638   9.317   9.576  10.521
27214W        W99639   5.975   0.005   0.846
27215W        W99640  25.173  26.163  14.173
27216W        W99641   9.743  32.587  11.582
27217W        W99642  11.694  16.636  13.860
27218W        W99643   8.831  12.646   4.615
27219W        W99644   7.686  15.782  13.842
27220W        W99645  37.491  10.171   0.346
27221W        W99646  32.697   2.811  12.197
27222W        W99647  29.380  22.994   0.887
27223W        W99648   7.508  10.067  13.492
27224W        W99649  28.381  21.260  10.733
27225W        W99650  32.453  32.879  10.785
27226W        W99651  19.768  12.679  12.373
27227W        W99652  17.273  22.614   1.817
27228W        W99653   4.271   4.917  13.551
27229W        W99654  21.154   8.700   2.717
27230W        W99655  26.553   9.635  11.628
27231W        W99656  38.788  41.757   1.467
27232W        W99657   1.279  28.895   2.296
27233W        W99658  39.529  35.602   0.285
27234W        W99659  20.061  10.373   1.569
27235W        W99660   9.642  25.552  14.812
27236W        W99661  11.468  18.041   0.380
27237W        W99662  14.950  29.914   4.411
27238W        W99663  16.794  41.002   0.815
27239W        W99664  23.785   5.076  11.484
27240W        W99665  24.060  28.378  14.256
27241W        W99666  32.697  33.601   0.715
27242W        W99667  28.083  43.993   4.114
27243W        W99668  26.349  17.999   3.672
27244W        W99669   7.780  29.215   1.325
27245W        W99670  25.190   1.990  14.740
27246W        W99671  21.587  29.519  14.419
27247W        W99672  10.240  14.288   1.922
27248W        W99673   5.362  29.918  14.346
27249W        W99674  44.237  38.819   4.179
27250W        W99675  34.855   5.421   1.752
27251W        W99676  18.407  10.754  11.101
27252W        W99677  24.127  25.619   1.932
27253W        W99678  40.510  10.728   1.233
27254W        W99679   9.393  42.879  13.778
27255W        W99680  12.144   4.212   1.188
27256W        W99681  41.643   2.986   1.455
27257W        W99682  34.480  12.198  12.658
27258W        W99683   5.757  38.567  12.074
27259W        W99684  28.477  31.626  14.367
27260W        W99685  37.862   0.907  14.253
27261W        W99686  24.698  28.023   0.321
27262W        W99687  44.035  12.960  14.418
27263W        W99688  14.072   6.508  14.800
27264W        W99689  43.790  40.044   2.858
27265W        W99690   4.804  15.218   3.706
27266W        W99691  10.348  42.076   2.662
27267W        W99692  17.701  41.671  13.970
27268W        W99693  34.769  33.171   2.359
27269W        W99694  25.743   8.260  14.406
27270W        W99695  22.367  16.250   0.983
27271W        W99696  23.862   0.202   2.780
27272W        W99697  30.012   0.199  14.533
27273W        W99698  20.556  21.940  12.452
27274W        W99699  40.325  42.049   3.098
27275W        W99700  42.666  27.964   2.379
27276W        W99701   7.206  32.888   1.854
27277W        W99702  22.478  17.431  13.974
27278W        W99703  12.036  17.762   4.670
27279W        W99704  10.521  22.741  13.717
27280W        W99705  21.643  29.389  11.582
27281W        W99706  29.958  23.818   3.226
27282W        W99707  37.174   1.333   0.774
27283W        W99708  16.044  15.271   4.284
27284W        W99709  29.368  34.051   0.424
27285W        W99710   6.451   9.363  13.567
27286W        W99711  12.806   1.420  12.277
27287W        W99712  39.103  21.623  11.618
27288W        W99713  22.297  25.316  10.769
27289W        W99714  24.520  30.374   0.097
27290W        W99715   6.764  36.844   3.311
27291W        W99716  30.475  15.584   3.252
27292W        W99717  12.223  43.183   1.560
27293W        W99718  38.169  28.131  10.307
27294W        W99719  35.359   2.188  13.928
27295W        W99720  40.248  34.529  12.151
27296W        W99721   1.271  10.999  13.657
27297W        W99722  41.004  30.117   2.837
27298W        W99723  33.674  41.335  13.434
27299W        W99724   9.036  14.826   4.148
27300W        W99725  15.081  10.119  12.321
27301W        W99726  39.590  25.096   4.521
27302W        W99727  20.743  24.695  14.929
27303W        W99728  11.605   3.194   0.338
27304W        W99729  33.845  23.575   4.546
27305W        W99730  40.628  10.288   2.137
27306W        W99731  31.040  19.299  14.462
27307W        W99732  39.341  20.128  12.337
27308W        W99733  18.408  27.620   1.397
27309W        W99734  21.997   6.738  13.985
27310W        W99735  34.903  16.749   1.220
27311W        W99736  36.740  16.120  14.733
27312W        W99737  20.934  18.198   1.680
27313W        W99738   2.393   8.958  12.447
27314W        W99739  19.730  27.590   0.502
27315W        W99740   7.474  12.039   0.194
27316W        W99741  37.388  24.294  13.598
27317W        W99742  15.863  26.851   1.825
27318W        W99743  26.985  27.176  14.196
27319W        W99744   3.535  12.386  12.900
27320W        W99745  27.692   5.586  13.019
27321W        W99746  32.440  28.662   3.411
27322W        W99747  24.604  41.248   0.389
27323W        W99748  13.441  30.941   1.441
27324W        W99749  32.387  24.443   1.852
27325W        W99750   9.885  23.779  10.498
27326W        W99751  35.633  38.972  14.894
27327W        W99752  14.894  12.708  11.390
27328W        W99753  24.489  33.832   4.144
27329W        W99754  21.669  39.619   1.800
27330W        W99755  18.079  34.845   2.755
27331W        W99756  39.772  30.176   2.175
27332W        W99757   1.325  40.990   2.161
27333W        W99758  30.078  38.084  10.718
27334W        W99759  30.532   3.004   4.277
27335W        W99760  30.189  17.307   4.986
27336W        W99761   6.787  11.312   0.388
27337W        W99762  36.502  15.577   2.791
27338W        W99763  16.045   4.175  11.510
27339W        W99764  23.223   2.099   2.365
27340W        W99765  22.958  24.168  13.584
27341W        W99766  16.899  44.301  13.598
27342W        W99767  37.877  19.628  11.649
27343W        W99768  41.200  32.509  14.292
27344W        W99769  24.075  27.428   3.149
27345W        W99770  14.623  29.702  14.318
27346W        W99771  19.968   4.909  10.639
27347W        W99772  35.890  44.381   3.245
27348W        W99773   1.863  23.495   3.809
27349W        W99774  44.799   1.833  10.724
27350W        W99775  24.561  12.491  13.297
27351W        W99776  19.175  33.681   0.982
27352W        W99777  32.048  21.641  11.408
27353W        W99778  44.909   0.245  13.995
27354W        W99779  41.100  20.461  13.372
27355W        W99780  21.592  44.007  10.776
27356W        W99781  31.336  42.662  12.841
27357W        W99782  43.131  27.968   2.725
27358W        W99783   3.720   6.961   0.060
27359W        W99784  27.260  43.534   3.240
27360W        W99785  37.610  16.626  10.752
27361W        W99786  11.900  42.350  12.933
27362W        W99787  25.118  30.197  13.593
27363W        W99788  21.139  33.349  10.370
27364W        W99789   1.434  39.303  12.871
27365W        W99790  32.249  11.763   0.069
27366W        W99791  43.233   4.849   1.939
27367W        W99792  18.096  33.997   1.883
27368W        W99793  17.240  43.355  14.693
27369W        W99794   6.628   0.654  13.752
27370W        W99795  24.007   6.792   1.810
27371W        W99796  13.835  20.699  14.431
27372W        W99797  27.228  44.046   4.739
27373W        W99798  25.911   0.570   1.222
27374W        W99799  11.688   0.428   1.794
27375W        W99800  24.467  20.911  11.444
27376W        W99801  34.579   7.333   0.347
27377W        W99802   0.923  36.480  13.379
27378W        W99803   7.167  31.365  14.527
27379W        W99804  36.263  33.862   1.398
27380W        W99805   2.540   7.141   0.694
27381W        W99806  32.742  37.869  13.132
27382W        W99807  34.426  34.310  14.230
27383W        W99808  18.619  17.563  11.698
27384W        W99809  36.057  42.025  13.939
27385W        W99810  28.876  30.441   0.843
27386W        W99811  20.036  15.286   3.575
27387W        W99812  34.109  40.797  13.129
27388W        W99813  38.577  39.551  11.022
27389W        W99814   6.551  25.535   3.588
27390W        W99815  37.358  44.888   0.252
27391W        W99816  10.084  11.942  11.534
27392W        W99817  14.698   6.320  12.350
27393W        W99818   2.203  10.609  13.528
27394W        W99819   9.050  10.389  12.484
27395W        W99820  15.667  27.882  13.573
27396W        W99821  38.343  39.770   4.321
27397W        W99822  37.756  21.506   0.275
27398W        W99823  18.704  29.885   4.940
27399W        W99824  20.662  13.306  14.375
27400W        W99825  22.275  42.379  10.682
27401W        W99826  28.455  44.384   2.718
27402W        W99827  43.446   4.968   0.791
27403W        W99828  12.279  40.995   3.148
27404W        W99829  30.494  25.488   1.811
27405W        W99830   7.457  18.854  14.312
27406W        W99831  11.747   0.046  11.327
27407W        W99832   8.076  32.878   3.754
27408W        W99833   4.214  28.227   4.218
27409W        W99834  43.838  24.977  12.375
27410W        W99835   8.257  10.305   0.890
27411W        W99836  10.689  23.586   4.810
27412W        W99837  34.572   3.109   0.530
27413W        W99838  19.960  13.344  14.404
27414W        W99839  13.863  30.441   3.368
27415W        W99840  38.030   3.694   4.887
27416W        W99841   9.754  17.797  12.556
27417W        W99842  28.065  17.336   0.867
27418W        W99843   0.939  14.324  10.765
27419W        W99844  24.501  17.546  13.058
27420W        W99845  21.730  39.916   3.454
27421W        W99846   3.449  18.330   1.740
27422W        W99847   0.792  12.804   0.904
27423W        W99848  43.555  14.822  11.849
27424W        W99849  24.946  18.135   2.389
27425W        W99850  21.129  12.559  11.047
27426W        W99851  31.906  42.069   2.856
27427W        W99852  31.120  25.054   4.685
27428W        W99853  11.794  41.338  10.678
27429W        W99854   4.625  25.974  12.360
27430W        W99855  27.518  18.045  11.246
27431W        W99856   4.439  22.599   1.178
27432W        W99857  42.613   5.215   1.082
27433W        W99858  32.808  37.002  13.954
27434W        W99859  36.929  24.131  10.827
27435W        W99860   7.476  26.140   0.268
27436W        W99861  22.589   5.504  12.532
27437W        W99862  40.941  36.949  13.702
27438W        W99863  37.994  27.203   4.378
27439W        W99864  33.401  12.669  11.049
27440W        W99865  24.850  30.628   0.453
27441W        W99866  36.978  33.827  12.599
27442W        W99867  19.063  31.493   4.750
27443W        W99868  26.328  39.742   3.374
27444W        W99869  29.075  43.987  14.363
27445W        W99870  44.029   7.282   2.271
27446W        W99871   5.213  24.295  12.279
27447W        W99872  26.755  24.488   4.184
27448W        W99873   9.812  14.732   0.292
27449W        W99874   6.785  37.478  13.381
27450W        W99875  13.380  24.789   2.265
27451W        W99876  16.235   9.025  12.135
27452W        W99877  11.861  34.534   1.829
27453W        W99878  41.612  23.054   4.575
27454W        W99879  34.819  26.042  14.034
27455W        W99880  42.990  29.720   1.221
27456W        W99881  36.672  37.394   1.394
27457W        W99882  41.791  27.188   2.206
27458W        W99883  37.288  12.718  12.095
27459W        W99884  18.106  15.102  12.555
27460W        W99885  18.458   3.801  10.737
27461W        W99886  10.196  12.950   1.669
27462W        W99887  42.963  10.134   3.789
27463W        W99888  22.247  32.086   3.706
27464W        W99889  37.011  28.221  12.031
27465W        W99890  10.834  33.747   2.810
27466W        W99891   0.463  31.937   0.244
27467W        W99892   8.437  31.840   1.812
27468W        W99893  31.609  15.122   2.735
27469W        W99894  28.599  27.208   0.390
27470W        W99895  27.169   2.847   2.853
27471W        W99896  16.976  44.163   3.266
27472W        W99897  19.457  25.633  11.319
27473W        W99898  35.109  14.552  14.955
27474W        W99899  17.330  36.475  12.826
27475W        W99900  42.383  44.719   3.191
27476W        W99901  31.058  28.812  10.196
27477W        W99902  44.717  15.681   4.563
27478W        W99903  30.390   0.425   1.357
27479W        W99904   7.770  10.600  14.328
27480W        W99905  43.988   5.757  13.486
27481W        W99906  31.335  24.605   2.740
27482W        W99907   5.270   7.661   1.887
27483W        W99908  19.288  34.267  12.367
27484W        W99909  22.804  18.494  14.814
27485W        W99910  32.291  36.450  10.633
27486W        W99911  10.448  13.141   3.737
27487W        W99912   6.986  12.143   0.324
27488W        W99913  39.872  30.090   1.499
27489W        W99914  16.489  30.535  11.404
27490W        W99915  32.280  35.723  13.793
27491W        W99916  22.308  12.248  12.409
27492W        W99917   2.297  37.175   0.211
27493W        W99918  44.192  10.231   4.579
27494W        W99919  11.856  23.124   4.907
27495W        W99920  44.838  43.186  14.381
27496W        W99921   9.441  21.113   0.697
27497W        W99922  25.004  41.838  12.547
27498W        W99923   3.523   1.898  10.701
27499W        W99924   1.900  17.261  14.055
27500W        W99925  10.639  22.251   4.976
27501W        W99926  30.569  32.186  11.125
27502W        W99927   2.287  33.687   4.046
27503W        W99928  26.647  11.295   4.858
27504W        W99929   8.351  20.637  11.102
27505W        W99930  11.169  35.987  12.431
27506W        W99931  10.945  35.001  13.836
27507W        W99932   5.320  43.182   1.467
27508W        W99933  35.821  15.104  14.871
27509W        W99934  25.470  27.664   0.706
27510W        W99935  27.961  14.014  12.514
27511W        W99936  13.058  39.921   3.326
27512W        W99937  14.262  33.061  10.882
27513W        W99938   0.816  29.189  14.863
27514W        W99939   0.666   3.736  11.545
27515W        W99940   2.529   9.640  13.949
27516W        W99941  24.339  11.015   5.085
27517W        W99942  28.976  29.374   2.826
27518W        W99943  27.412   2.372   4.624
27519W        W99944  35.803  31.130  14.243
27520W        W99945  19.639   1.699  13.006
27521W        W99946  11.868  36.812   0.185
27522W        W99947  26.974  26.492   3.739
27523W        W99948  27.765   8.265  12.979
27524W        W99949  15.015  35.665   1.796
27525W        W99950  19.610  42.362   3.917
27526W        W99951  36.259  28.534   0.804
27527W        W99952  37.070  43.369  12.023
27528W        W99953  26.274  21.135   0.483
27529W        W99954  27.625  30.930  14.064
27530W        W99955  21.472  34.625   3.253
27531W        W99956  17.618  22.965   0.336
27532W        W99957   9.946   4.407  14.802
27533W        W99958   0.466  34.125  13.392
27534W        W99959  29.823  12.396  13.474
27535W        W99960  42.834  24.879  11.597
27536W        W99961  29.993  30.680   4.674
27537W        W99962   7.914  21.935  12.757
27538W        W99963  34.596  29.174   2.421
27539W        W99964   9.141  27.567  10.558
27540W        W99965  28.198   3.382   2.414
27541W        W99966  19.478  44.583  14.342
27542W        W99967  39.763  12.698   0.253
27543W        W99968  18.288  26.641  12.571
27544W        W99969  24.086  25.027  10.096
27545W        W99970  20.282  26.132   3.123
27546W        W99971  15.086  10.706  10.411
27547W        W99972  29.672  30.434   0.429
27548W        W99973  21.664  44.206  10.319
27549W        W99974  32.138   1.321  10.667
27550W        W99975  12.223   9.205  14.006
27551W        W99976   0.258  34.880  13.023
27552W        W99977  29.315  13.624  11.624
27553W        W99978  37.680  43.580   1.484
27554W        W99979  33.431  15.039  14.847
27555W        W99980   4.655  17.246  12.875
27556W        W99981  23.283  41.238  11.552
27557W        W99982  16.652  29.946  14.662
27558W        W99983  24.991   1.187  12.104
27559W        W99984  32.399  44.740   4.117
27560W        W99985  17.804  44.084  11.052
27561W        W99986  38.097   2.437  13.748
27562W        W99987  15.357   6.293   0.383
27563W        W99988   8.495  18.479  13.623
27564W        W99989  18.548  12.013  12.600
27565W        W99990  23.141   1.449   3.708
27566W        W99991  18.145  27.830  14.919
27567W        W99992  14.551  41.767   1.434
27568W        W99993  34.664  29.278  13.042
27569W        W99994  35.101  40.260  10.733
27570W        W99995  38.106   8.671   1.979
27571W        W99996  33.574  41.447  14.942
27572W        W99997   4.921   9.231   2.875
27573W        W99998  36.547  27.352   2.296
27574W        W99999  16.625  41.259   4.653
27575W        W    0  38.532  24.530   1.770
27576W        W    1  38.040  25.522   3.401
27577W        W    2  31.826   5.483  13.903
27578W        W    3  21.672   1.386   1.161
27579W        W    4   5.922  19.118  11.052
27580W        W    5  18.447   8.132   3.577
27581W        W    6  30.610  27.127   0.200
27582W        W    7   8.787  23.746  14.586
27583W        W    8  44.734  27.509   1.327
27584W        W    9  28.100   5.913   2.604
27585W        W   10  15.927  26.141  10.472
27586W        W   11  10.874   7.237   1.578
27587W        W   12  41.044  23.778   1.759
27588W        W   13  11.802  39.573   1.275
27589W        W   14   6.262  30.256  12.022
27590W        W   15  17.769  32.408   0.786
27591W        W   16  25.170  38.534  14.116
27592W        W   17  37.947  19.298  13.981
27593W        W   18  21.657   5.443  13.992
27594W        W   19   7.208  26.623  14.001
27595W        W   20  27.667   8.337  11.697
27596W        W   21  43.517  26.099   1.241
27597W        W   22   1.990  19.569   4.145
27598W        W   23  21.186  14.783  13.592
27599W        W   24   2.912  24.446  13.982
27600W        W   25  38.485  13.158   4.302
27601W        W   26  23.618   9.444  13.690
27602W        W   27  39.108   4.187   2.388
27603W        W   28  22.077  29.401   2.015
27604W        W   29  35.436  40.013   2.264
27605W        W   30  38.759  37.021  12.475
27606W        W   31  25.252  43.445   3.326
27607W        W   32  34.037  32.108   1.218
27608W        W   33  20.046   9.346   3.368
27609W        W   34  27.879   7.085   0.935
27610W        W   35  31.872  32.952  13.365
27611W        W   36  42.470   7.405   2.910
27612W        W   37   5.344  32.493  12.041
27613W        W   38   5.089  32.050  13.897
27614W        W   39  38.049  12.113   3.797
27615W        W   40  12.145  12.658  11.199
27616W        W   41   0.823  42.409  14.761
27617W        W   42  18.400  32.487  13.859
27618W        W   43   1.410  23.844   0.013
27619W        W   44  21.015  40.237  13.692
27620W        W   45  36.042   5.909  12.597
27621W        W   46  28.477   5.649   2.395
27622W        W   47  18.165  22.147   1.267
27623W        W   48  37.819  35.054   0.732
27624W        W   49  25.129  11.390  14.112
27625W        W   50   3.018  33.836   0.371
27626W        W   51  19.024  38.919  13.927
27627W        W   52  33.062  33.337   0.438
27628W        W   53  27.059   3.723   2.379
27629W        W   54   3.936  40.818   1.813
27630W        W   55  28.228  42.456   1.852
27631W        W   56  36.439  15.777  14.474
27632W        W   57   1.392  29.164   3.596
27633W        W   58  38.333  26.973  13.788
27634W        W   59   7.716  15.307   3.110
27635W        W   60  42.989  43.256  13.539
27636W        W   61   8.681  23.393   1.467
27637W        W   62  30.134  44.529   3.404
27638W        W   63   3.955  41.584  12.548
27639W        W   64  43.889  10.821  12.892
27640W        W   65  24.940  12.272  11.964
27641W        W   66  12.866  27.455  12.116
27642W        W   67  25.139   2.315  11.155
27643W        W   68  24.187  19.779  14.218
27644W        W   69  12.157   7.404  10.930
27645W        W   70  38.980  17.074  10.904
27646W        W   71  17.527   7.275  13.170
27647W        W   72  41.302  24.083   2.597
27648W        W   73  30.540  17.127  12.504
27649W        W   74  22.774  11.837   1.723
27650W        W   75  27.459  19.306   4.116
27651W        W   76  37.538  38.588  13.180
27652W        W   77  30.104  10.965  13.384
27653W        W   78   2.250  18.161  11.017
27654W        W   79   3.797  19.279  14.439
27655W        W   80  13.828   6.661  13.061
27656W        W   81   3.456  44.042   3.264
27657W        W   82  20.783  25.178   0.175
27658W        W   83   4.268  35.769   1.519
27659W        W   84  22.285  14.508  11.741
27660W        W   85  17.961  33.383  14.697
27661W        W   86  23.258   5.462  11.042
27662W        W   87   2.322  15.185   2.391
27663W        W   88  31.319   8.320  12.432
27664W        W   89  31.032  41.816   2.818
27665W        W   90  12.350  20.165   0.217
27666W        W   91  31.867  14.220   1.771
27667W        W   92  30.580  35.687  14.876
27668W        W   93  42.935  19.720   4.225
27669W        W   94  11.611  37.003  14.783
27670W        W   95  29.752  42.903  14.812
27671W        W   96  22.238   4.361   2.321
27672W        W   97  38.829  21.529   3.739
27673W        W   98  14.358  42.517  12.681
27674W        W   99  27.741  14.861   2.624
27675W        W  100  37.567  23.275   4.493
27676W        W  101  44.459  42.053   1.965
27677W        W  102  19.693  34.978  14.361
27678W        W  103   3.626  22.109   1.924
27679W        W  104  30.494  14.867  10.736
27680W        W  105  35.614  12.017   0.916
27681W        W  106   7.419  11.713   0.591
27682W        W  107  24.009  41.839   1.754
27683W        W  108  14.678  28.606  11.165
27684W        W  109  28.023   4.959   4.581
27685W        W  110  32.139  11.716   0.901
27686W        W  111  41.828  32.113   0.457
27687W        W  112  26.009  32.508  14.348
27688W        W  113  31.507  40.472  14.297
27689W        W  114   5.796  30.149  11.182
27690W        W  115  27.647  13.840  13.890
27691W        W  116  22.839  27.083  12.448
27692W        W  117  26.223  19.200   0.358
27693W        W  118  21.054  33.923  13.659
27694W        W  119  27.416  28.911  13.096
27695W        W  120  30.424  43.295  14.425
27696W        W  121  26.254  22.553   2.245
27697W        W  122  20.171   5.721  13.391
27698W        W  123  29.098  39.580  10.454
27699W        W  124  15.275  34.011  14.348
27700W        W  125  30.995  13.285   0.181
27701W        W  126   0.222   3.445   3.299
27702W        W  127   3.243  28.597  11.040
27703W        W  128  33.200   1.404   1.845
27704W        W  129  25.952   2.872   3.329
27705W        W  130  33.430  11.255   1.430
27706W        W  131   0.909   2.855   0.870
27707W        W  132   5.235   8.690   2.238
27708W        W  133  36.821  29.297   2.536
27709W        W  134   1.216  34.420   4.686
27710W        W  135  39.950   8.104  14.877
27711W        W  136  31.965  39.847  14.290
27712W        W  137  31.151  31.067   0.785
27713W        W  138  38.101   6.085  12.669
27714W        W  139  17.072  19.069  10.378
27715W        W  140  10.696  17.169  10.823
27716W        W  141  25.584  35.469  14.334
27717W        W  142  19.957   1.727  13.429
27718W        W  143  24.172  44.951   1.090
27719W        W  144  12.244  12.705   3.090
27720W        W  145  13.226  21.433  10.645
27721W        W  146  38.011  31.568   3.182
27722W        W  147   9.592   1.446  11.602
27723W        W  148  15.661  35.973  14.120
27724W        W  149  11.115  40.136   3.749
27725W        W  150  29.711  11.294   4.407
27726W        W  151  31.482   8.811  11.971
27727W        W  152  19.483  12.065   1.308
27728W        W  153  37.810  15.169   3.181
27729W        W  154  15.174   2.708  14.752
27730W        W  155  37.838   0.979   4.988
27731W        W  156  16.791  30.414  10.552
27732W        W  157  23.388   2.711   3.219
27733W        W  158  20.259  31.858  13.797
27734W        W  159  38.840  26.312   3.998
27735W        W  160   1.805  41.495  12.292
27736W        W  161  10.078  27.967   1.845
27737W        W  162  21.807   8.757  12.434
27738W        W  163  24.534  30.547  11.542
27739W        W  164  39.991  22.969  11.154
27740W        W  165  44.787  33.065   2.650
27741W        W  166  28.708  43.607  10.545
27742W        W  167   2.879  33.664   4.842
27743W        W  168  25.470  14.810  11.602
27744W        W  169  33.538  22.691  13.285
27745W        W  170   3.060  22.157  11.298
27746W        W  171  25.717  26.440   2.309
27747W        W  172  38.028  14.662  11.637
27748W        W  173  26.353   0.426   2.141
27749W        W  174  18.303  16.478   2.289
27750W        W  175  33.638  33.558   0.847
27751W        W  176  11.881  40.102   1.230
27752W        W  177  19.940  12.456   3.594
27753W        W  178  13.315  28.174  13.645
27754W        W  179  20.522  28.422   0.456
27755W        W  180  35.810  37.589  12.539
27756W        W  181   6.237  23.731  11.651
27757W        W  182  22.223  19.946   3.396
27758W        W  183  32.991  41.264   3.434
27759W        W  184   1.457  36.378  11.616
27760W        W  185  21.195   0.757  12.450
27761W        W  186  43.034  35.828   1.380
27762W        W  187   6.258  32.423   0.549
27763W        W  188  22.130  15.277   2.313
27764W        W  189  26.151  40.215   3.550
27765W        W  190  37.833  24.242  11.878
27766W        W  191   7.905  23.233   2.731
27767W        W  192  20.616   9.194   1.841
27768W        W  193  11.783  21.486  13.957
27769W        W  194  42.694  19.221  12.012
27770W        W  195  12.324  11.629  13.994
27771W        W  196  36.229  27.923   4.533
27772W        W  197  20.607  27.989  10.545
27773W        W  198  29.986  29.391  13.102
27774W        W  199  23.659   2.987  14.884
27775W        W  200  18.692   0.189   1.702
27776W        W  201  33.868  43.792   2.110
27777W        W  202  39.995  31.612  12.477
27778W        W  203   7.278   1.061  11.174
27779W        W  204  22.562  27.526  12.613
27780W        W  205  31.674   7.631   3.663
27781W        W  206  14.290   1.248  11.110
27782W        W  207  11.389  30.424   0.040
27783W        W  208  12.028  19.647  14.421
27784W        W  209   7.292  28.948  11.094
27785W        W  210  17.201  12.756   1.739
27786W        W  211  16.409  38.353   0.303
27787W        W  212  36.103  31.907  12.913
27788W        W  213  42.445   5.774   2.320
27789W        W  214  44.130  37.619   5.074
27790W        W  215  42.228  14.314   4.551
27791W        W  216  24.980  34.977  11.997
27792W        W  217   0.816  28.109   2.432
27793W        W  218  20.714  27.734  10.994
27794W        W  219  25.184  26.687   1.347
27795W        W  220  31.585  29.155  12.019
27796W        W  221  26.631   9.913  13.899
27797W        W  222   6.938  37.875   3.057
27798W        W  223   8.430  38.089  10.989
27799W        W  224  37.068  27.075  14.518
27800W        W  225  43.350  31.402   4.646
27801W        W  226  23.206  21.514  12.616
27802W        W  227   2.161   0.006   4.287
27803W        W  228   8.238  20.259  14.941
27804W        W  229  35.649  40.566   4.554
27805W        W  230   9.433  17.419   4.096
27806W        W  231  43.425   4.930   2.400
27807W        W  232  13.235  28.106  12.099
27808W        W  233  43.746   5.715   4.062
27809W        W  234  30.331  40.819   1.019
27810W        W  235   2.240   8.091   3.151
27811W        W  236  41.588  21.085  11.941
27812W        W  237   7.821  31.093  12.393
27813W        W  238   8.344  19.293   3.807
27814W        W  239   2.715  42.265  14.702
27815W        W  240  41.312   3.820  12.961
27816W        W  241  39.272  14.636  12.981
27817W        W  242  31.708  19.589   3.255
27818W        W  243  12.209   5.417  12.948
27819W        W  244  37.049  28.451  10.734
27820W        W  245  36.148  10.310   2.146
27821W        W  246  25.643  23.748   3.803
27822W        W  247  10.771  25.329   3.188
27823W        W  248   1.362  17.206   5.179
27824W        W  249   1.849   2.456   0.387
27825W        W  250  20.968  27.070   2.802
27826W        W  251  31.537  11.625  13.888
27827W        W  252   0.504  39.557  12.861
27828W        W  253   3.406  24.278  14.165
27829W        W  254  13.518  35.264  10.974
27830W        W  255  25.154   2.002  10.735
27831W        W  256   3.417  18.243   4.053
27832W        W  257  12.560  44.556   1.252
27833W        W  258  27.085  15.517  12.941
27834W        W  259  36.750   3.134   0.951
27835W        W  260  29.482  10.285   1.825
27836W        W  261  18.839   5.360  11.979
27837W        W  262  10.061   8.660   3.861
27838W        W  263  41.808   4.351  12.107
27839W        W  264  32.075  41.773   0.415
27840W        W  265  19.851  44.252  14.218
27841W        W  266   2.931  15.948   0.289
27842W        W  267  35.103  32.051  12.740
27843W        W  268  38.201   5.175   2.309
27844W        W  269   5.307  13.521  12.530
27845W        W  270  28.260   3.444  11.154
27846W        W  271  35.595  31.509   0.764
27847W        W  272   2.328  34.383  13.939
27848W        W  273  34.978   5.303  14.328
27849W        W  274  24.531  35.370   3.081
27850W        W  275  29.062  44.620  14.992
27851W        W  276  38.884  38.339  13.405
27852W        W  277   5.018  27.520  11.814
27853W        W  278   2.281  33.023  11.634
27854W        W  279  10.247  34.263  13.360
27855W        W  280   6.952  37.886   9.804
27856W        W  281  21.859  10.916   4.980
27857W        W  282  18.952  16.587  11.165
27858W        W  283   6.083  35.922   1.025
27859W        W  284  34.147  20.119  13.276
27860W        W  285  39.592  29.770   1.897
27861W        W  286  43.479  29.522   4.218
27862W        W  287  33.416  17.528   4.744
27863W        W  288  21.958  44.432   3.167
27864W        W  289  38.094  38.965  11.543
27865W        W  290  25.652   2.788  11.611
27866W        W  291  13.067  40.427  14.042
27867W        W  292  18.115  11.288   2.307
27868W        W  293  41.031  25.192  13.594
27869W        W  294   3.953  40.968   3.379
27870W        W  295  33.822   4.995  13.636
27871W        W  296  12.797  24.650   1.660
27872W        W  297  21.060  38.118  10.402
27873W        W  298  17.498   6.958   1.721
27874W        W  299  41.604   1.890  13.930
27875W        W  300  32.296   8.367   0.738
27876W        W  301  42.071  25.133  13.454
27877W        W  302  32.154  29.148   3.846
27878W        W  303  10.897  20.434   4.221
27879W        W  304  32.146  34.086  12.117
27880W        W  305  35.941  26.767  10.677
27881W        W  306  28.206  23.989   0.734
27882W        W  307  24.996  35.548  10.750
27883W        W  308   1.634  39.571   2.625
27884W        W  309   8.913  44.308   5.207
27885W        W  310  32.339  33.412  12.897
27886W        W  311  28.655   2.519  11.016
27887W        W  312  21.017  23.139  11.149
27888W        W  313  16.514  22.514  11.545
27889W        W  314  38.467  13.937   3.802
27890W        W  315   3.470  27.591  13.467
27891W        W  316  38.430   5.798   2.760
27892W        W  317  21.154  21.293   3.093
27893W        W  318  15.226  41.838  14.503
27894W        W  319  15.489  18.217  14.082
27895W        W  320  21.715  34.074  14.457
27896W        W  321  11.663  28.452   2.103
27897W        W  322   8.219  30.645   0.036
27898W        W  323   0.174   4.769   0.190
27899W        W  324   0.266  13.838  12.972
27900W        W  325   2.011  30.261   1.158
27901W        W  326  39.617  38.907   3.217
27902W        W  327  12.681  14.094  11.097
27903W        W  328   3.029  16.594   3.159
27904W        W  329  17.668  44.922   2.419
27905W        W  330  27.541  22.664   2.768
27906W        W  331   7.292  15.046  11.596
27907W        W  332  31.332   9.340  10.728
27908W        W  333   9.319  31.430   1.654
27909W        W  334   7.360  15.073   0.024
27910W        W  335  29.250  35.511  10.811
27911W        W  336  35.087  13.737  14.410
27912W        W  337   5.350  40.959   1.693
27913W        W  338  21.525  21.083   0.930
27914W        W  339  43.351  10.364   0.300
27915W        W  340   2.341  33.120  13.393
27916W        W  341  11.431  32.441   4.282
27917W        W  342  42.836  37.870  11.131
27918W        W  343   2.071  21.338  13.891
27919W        W  344  35.142  30.451  11.139
27920W        W  345  37.399   1.502   1.398
27921W        W  346  31.916  38.402  11.911
27922W        W  347  11.617  37.380  10.737
27923W        W  348  12.402  24.126   0.794
27924W        W  349  10.456  25.541  11.187
27925W        W  350  11.341  11.510  11.153
27926W        W  351  28.890  36.948   1.180
27927W        W  352  29.325  12.434  13.370
27928W        W  353  42.565  41.799   4.941
27929W        W  354  40.432  40.632   4.567
27930W        W  355  35.723  33.718   5.261
27931W        W  356  15.306   8.564   2.694
27932W        W  357  22.974  14.072  14.639
27933W        W  358  24.581  25.594   2.220
27934W        W  359  10.136  24.490  12.359
27935W        W  360  32.922  24.449   4.320
27936W        W  361  37.377  26.106   0.887
27937W        W  362  13.370  43.299   1.343
27938W        W  363   5.236  19.078  11.590
27939W        W  364  41.355  37.355  14.328
27940W        W  365  16.768  29.023   4.565
27941W        W  366  25.064  19.711   0.825
27942W        W  367  40.983  20.707  13.835
27943W        W  368  26.853  37.902  13.934
27944W        W  369  10.886  36.074   2.208
27945W        W  370   5.175  12.403  13.753
27946W        W  371   9.257   3.282  10.618
27947W        W  372   5.776  22.222   2.888
27948W        W  373  40.464  17.705   3.627
27949W        W  374  23.969   6.426  11.567
27950W        W  375   0.778  14.886  13.524
27951W        W  376  13.281  13.541   1.833
27952W        W  377   8.255  14.083   3.260
27953W        W  378   6.781  28.897   1.263
27954W        W  379  40.470   5.936  12.070
27955W        W  380  14.483   7.081  13.755
27956W        W  381   7.493  39.609  13.529
27957W        W  382  35.052   0.707  13.265
27958W        W  383   0.903  34.630  12.047
27959W        W  384  39.294  44.831   5.028
27960W        W  385  29.966  25.868  11.605
27961W        W  386  36.993  39.446  14.738
27962W        W  387   6.101  44.500   3.734
27963W        W  388  21.363  12.703   1.844
27964W        W  389  31.195  42.571   1.908
27965W        W  390  23.650  27.946   0.914
27966W        W  391  39.859  26.865   2.769
27967W        W  392  40.710  25.551  11.977
27968W        W  393  18.376  10.792   2.668
27969W        W  394  23.443  22.003   1.389
27970W        W  395  43.144  40.633  13.553
27971W        W  396  28.787  10.675   1.237
27972W        W  397  32.148  36.621   1.307
27973W        W  398  33.488  38.058  12.542
27974W        W  399  12.237  38.245  11.124
27975W        W  400  39.512  44.552   3.208
27976W        W  401  26.328  42.137  14.312
27977W        W  402  19.063  28.080  14.334
27978W        W  403  41.220  23.077   2.334
27979W        W  404  35.833  11.547   1.261
27980W        W  405   2.133  21.299   5.107
27981W        W  406  33.843  44.380  12.676
27982W        W  407  27.092  37.390   3.748
27983W        W  408  21.762  42.900   5.163
27984W        W  409   5.251   3.045  13.668
27985W        W  410  10.263  25.149   0.168
27986W        W  411   9.224  38.038  13.870
27987W        W  412   1.462  41.823   4.131
27988W        W  413  39.665  29.535   0.357
27989W        W  414  37.161  39.757  12.156
27990W        W  415  39.590  30.615   0.768
27991W        W  416  44.865  35.614   2.765
27992W        W  417  23.117  38.165   3.687
27993W        W  418  28.768  41.988   0.437
27994W        W  419   7.361  29.512   1.446
27995W        W  420  30.510   9.899  14.036
27996W        W  421  42.966  35.652   0.890
27997W        W  422  33.791  30.461  14.889
27998W        W  423  30.538  27.710  13.983
27999W        W  424   5.156  18.689   0.424
28000W        W  425  28.394  34.433  11.053
28001W        W  426   0.884  28.809  12.633
28002W        W  427  17.628  39.813  14.257
28003W        W  428  38.481  21.002  13.974
28004W        W  429  12.933  26.908  13.877
28005W        W  430  30.629   8.293  11.015
28006W        W  431  19.831   9.140  12.571
28007W        W  432   8.836  35.406  14.871
28008W        W  433  28.218  26.869   0.350
28009W        W  434  12.362   0.766   2.395
28010W        W  435   2.566  44.817  11.979
28011W        W  436   2.282  18.442   0.470
28012W        W  437   9.052  17.245   2.025
28013W        W  438  44.352  35.963   0.383
28014W        W  439  18.237  44.480  13.858
28015W        W  440  37.126  22.552   5.067
28016W        W  441  34.462  27.352  12.870
28017W        W  442  41.481  11.105   1.171
28018W        W  443  37.290   8.289  12.787
28019W        W  444   4.840  11.900   0.499
28020W        W  445  18.164  15.075   0.420
28021W        W  446   6.942   7.965   2.844
28022W        W  447  20.543   7.733   2.715
28023W        W  448  40.921  32.976  13.058
28024W        W  449   6.960   2.353   4.522
28025W        W  450  22.269  28.860  12.274
28026W        W  451  32.019  43.992   3.299
28027W        W  452  44.677  23.770   0.084
28028W        W  453  15.779  43.101  12.467
28029W        W  454  19.552  25.268   4.174
28030W        W  455  12.145  28.640   2.371
28031W        W  456  25.542  21.698  13.493
28032W        W  457   0.128  39.951  13.003
28033W        W  458  22.557  39.439  12.056
28034W        W  459  41.748  36.866  14.267
28035W        W  460  16.904  36.653  14.445
28036W        W  461  27.091  28.185  12.384
28037W        W  462  24.047  25.978  12.860
28038W        W  463  42.964  33.940  11.977
28039W        W  464  12.290  36.180   0.774
28040W        W  465  41.412  18.047  13.951
28041W        W  466  17.046  23.441  12.026
28042W        W  467  15.381  11.984   2.680
28043W        W  468  41.110  26.102   0.979
28044W        W  469  38.953   9.793  11.242
28045W        W  470  32.634  35.376  13.964
28046W        W  471  19.226  34.275   3.994
28047W        W  472  41.253   8.827   5.205
28048W        W  473   4.843  26.563  13.438
28049W        W  474  16.187  41.065  14.317
28050W        W  475  37.498  30.919   2.323
28051W        W  476   7.370   9.262  11.480
28052W        W  477   3.505   5.950   3.213
28053W        W  478  24.922  24.981  14.588
28054W        W  479  41.475  17.749   4.163
28055W        W  480  25.003  32.956  14.750
28056W        W  481  40.342  19.961   1.803
28057W        W  482  18.035  39.274   0.372
28058W        W  483  29.868  37.642   1.856
28059W        W  484  26.004  20.120  14.076
28060W        W  485  22.168  19.122   3.581
28061W        W  486  44.767  21.166  13.176
28062W        W  487  24.983  21.230   4.647
28063W        W  488  36.662  28.795   2.482
28064W        W  489  23.933  20.572   1.483
28065W        W  490  44.263  12.692   1.953
28066W        W  491  16.694  34.523  13.215
28067W        W  492  25.035  13.792   3.374
28068W        W  493   2.808  18.293   0.308
28069W        W  494  32.545  16.307  12.698
28070W        W  495  20.170  18.331   2.209
28071W        W  496  28.657  35.469   2.810
28072W        W  497  12.647  41.089   4.039
28073W        W  498  12.733   5.532   2.395
28074W        W  499  24.113   0.096  11.570
28075W        W  500  29.814  23.729   0.783
28076W        W  501   8.494   9.704  14.262
28077W        W  502  20.051  34.402   0.473
28078W        W  503  36.448  14.814   3.238
28079W        W  504  15.816  28.321  10.783
28080W        W  505  40.868  11.890   2.875
28081W        W  506  23.918   6.746  13.933
28082W        W  507   5.553   1.312  12.378
28083W        W  508  18.839   8.521   3.663
28084W        W  509  36.801  11.730   0.346
28085W        W  510   5.367  26.221   3.464
28086W        W  511  38.791  13.577   0.351
28087W        W  512   4.174  42.393   5.001
28088W        W  513  44.761  22.583   1.357
28089W        W  514  15.156   3.987  12.556
28090W        W  515   0.875  34.987   0.129
28091W        W  516  39.581  20.326  14.366
28092W        W  517  22.266  28.081  11.515
28093W        W  518   8.166  36.139   0.024
28094W        W  519  19.022   8.129   5.067
28095W        W  520  17.016  20.785   2.953
28096W        W  521  41.036  24.885   0.631
28097W        W  522  35.857  42.315  11.218
28098W        W  523  21.215  14.607   0.022
28099W        W  524  10.942   7.921  12.956
28100W        W  525  11.137   4.513   4.044
28101W        W  526  32.370  20.255  13.046
28102W        W  527  38.728  14.566  10.556
28103W        W  528  40.389  39.403   2.370
28104W        W  529   9.265  44.647   0.439
28105W        W  530  35.307  37.479   3.216
28106W        W  531  16.329  31.676  12.389
28107W        W  532  19.925  28.696  11.499
28108W        W  533   7.327  37.410  11.112
28109W        W  534  21.571  42.739   0.977
28110W        W  535   8.272   7.899  13.722
28111W        W  536  37.095   8.404   1.281
28112W        W  537  40.517   6.810   4.492
28113W        W  538  29.076  38.939   2.198
28114W        W  539  38.505  12.366   0.947
28115W        W  540  16.515  26.862  12.994
28116W        W  541  31.532  41.603  10.721
28117W        W  542  39.293  30.494   4.629
28118W        W  543  34.540  31.373   1.402
28119W        W  544  25.557  41.410   5.075
28120W        W  545  27.401  39.376   5.013
28121W        W  546  27.994  14.399   0.915
28122W        W  547  17.040  35.407   4.516
28123W        W  548   9.040   1.912   1.727
28124W        W  549   1.446   8.131   3.683
28125W        W  550  27.585   3.250  13.784
28126W        W  551  43.822   6.364  14.414
28127W        W  552   5.040  18.568  12.449
28128W        W  553  37.948   0.045   2.660
28129W        W  554   5.740  12.084  13.027
28130W        W  555   3.731   3.215   4.767
28131W        W  556  11.893  36.636  12.593
28132W        W  557  39.295  43.763  10.993
28133W        W  558  32.062  31.114   3.567
28134W        W  559  39.911  27.690  11.097
28135W        W  560  19.886  20.308   3.770
28136W        W  561  18.284  26.701  11.673
28137W        W  562  37.418  23.163  13.771
28138W        W  563  37.905  11.836   1.788
28139W        W  564  33.817   6.346  14.805
28140W        W  565   9.856  30.582   1.863
28141W        W  566  23.812  43.844   0.427
28142W        W  567   6.874  37.416   5.534
28143W        W  568  35.581  26.039  11.670
28144W        W  569  27.404   4.385   1.253
28145W        W  570  26.272   3.459  13.757
28146W        W  571  32.123  17.906   3.267
28147W        W  572  24.818   6.757   2.420
28148W        W  573  35.846  16.091  11.087
28149W        W  574  22.088  30.204   2.373
28150W        W  575  10.295  41.388  14.959
28151W        W  576   0.249  32.994   3.181
28152W        W  577   2.774  25.984   1.980
28153W        W  578  10.875  15.958  11.588
28154W        W  579  12.190  27.263   1.520
28155W        W  580  16.395  44.411  13.575
28156W        W  581  36.055  27.433  13.626
28157W        W  582  18.957   7.970   3.660
28158W        W  583  27.634  39.537  14.108
28159W        W  584  20.442   0.321   0.391
28160W        W  585  24.712   1.268   3.659
28161W        W  586  11.671   7.998   0.011
28162W        W  587  17.950  13.178  14.270
28163W        W  588  36.116  16.609   3.422
28164W        W  589  13.001  42.806   2.207
28165W        W  590  37.528   8.234  14.336
28166W        W  591   9.798   5.717   4.535
28167W        W  592   9.264  27.805  11.943
28168W        W  593  11.229   2.705   4.058
28169W        W  594  43.906  23.000  12.955
28170W        W  595  44.247  14.349  10.903
28171W        W  596  27.751  14.329  11.809
28172W        W  597  13.455  11.193  10.889
28173W        W  598  21.478  12.185   2.143
28174W        W  599  23.134  25.715  10.510
28175W        W  600  27.564  27.756   3.142
28176W        W  601  21.059  28.711   1.132
28177W        W  602  11.337  25.015   1.752
28178W        W  603  41.551   0.468   0.072
28179W        W  604  39.412  33.864   2.175
28180W        W  605  10.032  32.023  14.221
28181W        W  606  25.046   3.213  10.146
28182W        W  607   7.753  35.573   4.670
28183W        W  608   3.413  25.740  14.000
28184W        W  609  16.123  43.113   4.606
28185W        W  610   4.763  19.664  11.148
28186W        W  611  15.973   6.010  12.703
28187W        W  612  12.580   8.570  11.105
28188W        W  613  20.251  23.832  14.914
28189W        W  614   1.410  13.272   2.606
28190W        W  615  22.105  14.876  12.094
28191W        W  616  14.600  29.565   5.305
28192W        W  617  25.859  31.932   1.823
28193W        W  618   1.457   8.646  14.778
28194W        W  619  39.519  22.698  13.859
28195W        W  620  17.407  33.998   0.929
28196W        W  621  37.435  41.839  13.829
28197W        W  622  33.274  36.813  13.822
28198W        W  623  17.161  20.677  10.412
28199W        W  624  16.609   6.422   2.869
28200W        W  625  44.015   8.194   2.306
28201W        W  626  12.126  16.721   0.087
28202W        W  627  26.262  14.847   0.663
28203W        W  628  13.128  28.055   3.173
28204W        W  629  35.821  35.428  11.590
28205W        W  630  13.842  21.008   3.778
28206W        W  631   8.145  41.941   1.299
28207W        W  632  14.935  42.502  13.940
28208W        W  633  42.506  15.619   0.864
28209W        W  634   5.689  39.846  10.765
28210W        W  635   2.060   0.428   4.671
28211W        W  636  37.606   5.519  14.963
28212W        W  637   2.197  24.269  11.444
28213W        W  638   9.335  27.586  11.067
28214W        W  639  14.866  12.369   0.339
28215W        W  640  41.339  40.365  12.531
28216W        W  641  34.418  26.460  10.679
28217W        W  642  14.586  18.576   5.095
28218W        W  643  21.556  18.680  11.430
28219W        W  644  31.489  15.019  14.190
28220W        W  645  32.970  13.772  10.654
28221W        W  646  20.064   7.721   5.012
28222W        W  647  38.990   6.269   0.717
28223W        W  648  43.457  24.460  12.928
28224W        W  649  39.473  10.437  12.556
28225W        W  650  15.786   6.833  14.455
28226W        W  651  21.163  30.889  13.543
28227W        W  652   6.281   6.627  13.890
28228W        W  653  16.143   2.467   5.277
28229W        W  654  34.042  35.261  11.440
28230W        W  655  13.854  23.074  12.138
28231W        W  656  38.526  42.596   0.273
28232W        W  657   6.748   9.650  12.050
28233W        W  658  39.991  31.624   3.143
28234W        W  659  20.175  18.888   2.281
28235W        W  660  28.366   6.946   0.774
28236W        W  661  44.217   7.422   1.307
28237W        W  662   8.666  42.457   2.810
28238W        W  663   4.997  43.893  13.103
28239W        W  664  42.929  32.154  12.285
28240W        W  665   9.454  44.953  11.493
28241W        W  666  36.513  15.704   0.002
28242W        W  667  41.016  26.658  11.960
28243W        W  668  20.350  19.773   5.182
28244W        W  669   2.761  25.163  10.326
28245W        W  670   3.179  25.703  11.333
28246W        W  671  15.195  35.033  13.870
28247W        W  672  12.595  39.563   4.240
28248W        W  673  21.579   1.339   4.093
28249W        W  674  12.305  22.843   1.693
28250W        W  675  17.637  28.682   0.777
28251W        W  676  36.995  23.470   2.743
28252W        W  677  43.680  21.828   0.147
28253W        W  678  16.961  32.521   0.070
28254W        W  679   3.598  16.629  12.441
28255W        W  680  43.543  29.431   0.155
28256W        W  681  43.800  10.700  14.322
28257W        W  682  11.629  20.835  12.821
28258W        W  683   2.699   7.657  14.001
28259W        W  684  33.132  38.493  14.840
28260W        W  685  11.683  40.817   4.192
28261W        W  686  34.822  44.471   9.904
28262W        W  687  13.093  35.646   0.733
28263W        W  688  38.536  33.034   2.742
28264W        W  689  40.341  41.911  10.094
28265W        W  690   9.660  43.021   3.331
28266W        W  691  11.831  43.309   1.892
28267W        W  692  41.939  30.687  12.018
28268W        W  693   8.203  34.696  14.714
28269W        W  694  23.294  33.649  10.720
28270W        W  695   2.477  24.626  12.541
28271W        W  696   8.418  42.396   1.327
28272W        W  697   2.743  12.613  13.862
28273W        W  698  33.106  39.535   0.297
28274W        W  699  19.657  27.246   2.840
28275W        W  700   7.713  29.638  10.757
28276W        W  701  15.208   1.022  12.477
28277W        W  702  30.471  16.318  14.838
28278W        W  703  36.113   8.170   2.758
28279W        W  704   5.174  39.702  13.269
28280W        W  705   4.655  25.514   1.140
28281W        W  706  37.919  25.558   2.510
28282W        W  707  30.782   9.745   4.650
28283W        W  708  15.699  37.459  12.066
28284W        W  709  31.091   8.911  10.966
28285W        W  710  27.555  20.619  12.980
28286W        W  711  39.520  27.451  12.113
28287W        W  712  31.479  30.511  12.465
28288W        W  713  32.675  19.544  13.814
28289W        W  714  40.042  11.941  13.090
28290W        W  715  37.001   2.959  12.453
28291W        W  716  32.404  15.422   0.920
28292W        W  717  11.154  26.028  13.304
28293W        W  718  15.853  37.651   3.323
28294W        W  719  15.780  13.345   4.098
28295W        W  720  21.819   1.531  11.455
28296W        W  721   2.280  36.985   4.601
28297W        W  722   6.923  15.353  14.994
28298W        W  723  27.205  19.510  10.136
28299W        W  724  43.867   8.730  14.468
28300W        W  725   7.208  17.272  14.995
28301W        W  726  38.122  44.002   5.543
28302W        W  727  41.783   0.522  11.169
28303W        W  728   2.715  40.601   3.668
28304W        W  729  20.235  34.365  14.081
28305W        W  730  10.162  32.267  12.938
28306W        W  731  13.610  30.494   1.669
28307W        W  732  17.804  28.274   1.943
28308W        W  733  34.311  17.120  13.753
28309W        W  734   7.783  25.482   4.719
28310W        W  735  24.105   0.255   4.240
28311W        W  736  37.109  33.250  12.541
28312W        W  737  10.293  16.970  12.459
28313W        W  738  12.851  18.180  10.630
28314W        W  739  37.539  34.383   2.425
28315W        W  740  13.115  35.374  13.506
28316W        W  741  44.957   9.749   0.304
28317W        W  742  30.067  25.170   3.845
28318W        W  743  17.381   0.722  12.802
28319W        W  744   2.725   7.618   2.192
28320W        W  745  33.902   0.913  12.781
28321W        W  746  16.448  30.581  14.539
28322W        W  747  36.784  11.867   4.448
28323W        W  748  40.083  20.686   0.899
28324W        W  749  22.081  23.446  13.380
28325W        W  750  16.599  19.273  14.843
28326W        W  751  36.412   7.656  14.357
28327W        W  752  10.638  27.861  14.922
28328W        W  753  41.460  24.868  12.108
28329W        W  754  22.692  12.196   3.108
28330W        W  755  26.985  35.020   1.325
28331W        W  756  28.565   3.931  13.828
28332W        W  757   9.204  31.545   2.412
28333W        W  758  21.939  12.234  13.486
28334W        W  759  36.030   9.392  11.057
28335W        W  760  15.049  27.216  14.860
28336W        W  761   9.177  40.106   4.887
28337W        W  762  26.515   7.890   2.881
28338W        W  763  29.972  28.950  11.215
28339W        W  764  28.447  44.600  10.441
28340W        W  765  14.878  31.349  13.919
28341W        W  766  32.622  31.460  11.859
28342W        W  767   0.506  14.608   1.381
28343W        W  768   9.869  42.322   3.886
28344W        W  769  13.478  11.134  10.368
28345W        W  770  15.383   6.887   2.104
28346W        W  771  27.957   7.773  12.988
28347W        W  772  33.052  19.596   1.334
28348W        W  773  19.930  10.535   1.081
28349W        W  774  23.089  17.636   4.432
28350W        W  775  42.325   6.903  12.740
28351W        W  776  43.539  28.457  14.297
28352W        W  777  34.045   5.022  14.468
28353W        W  778  35.907  40.140   0.171
28354W        W  779  10.815   1.709  11.685
28355W        W  780  22.634  10.862   1.248
28356W        W  781  15.669  17.672   4.515
28357W        W  782  13.383  40.323   4.182
28358W        W  783  36.076  10.269  14.890
28359W        W  784  11.298  35.053   3.735
28360W        W  785  36.092   1.532   4.637
28361W        W  786  40.873  28.381  11.515
28362W        W  787  25.907   6.891  13.959
28363W        W  788  15.171  33.942  13.855
28364W        W  789   9.780  25.178  13.682
28365W        W  790  38.799  19.734   0.227
28366W        W  791  13.925  34.286   2.852
28367W        W  792  40.267  27.591   2.261
28368W        W  793  34.944   6.867  11.254
28369W        W  794  27.638  10.857   4.089
28370W        W  795  44.847   8.330  13.572
28371W        W  796  14.014  15.165  14.447
28372W        W  797   6.356  37.329  14.969
28373W        W  798  25.306  41.104  11.026
28374W        W  799   4.306  34.774   0.478
28375W        W  800  30.101  21.104   2.329
28376W        W  801  30.429  39.303  14.993
28377W        W  802  33.421   9.324   3.684
28378W        W  803  32.631  18.875   0.246
28379W        W  804  42.526  32.091  14.998
28380W        W  805  24.098  15.274   2.928
28381W        W  806  31.424   4.771   0.436
28382W        W  807  13.147   5.936  12.891
28383W        W  808   3.723  44.067  12.705
28384W        W  809  21.148  32.978  11.165
28385W        W  810   3.801   6.960  12.629
28386W        W  811  29.961  15.683   4.250
28387W        W  812   0.717   4.490  10.838
28388W        W  813  37.165  41.536   4.632
28389W        W  814   3.234   1.306   1.212
28390W        W  815  30.145  42.612   1.917
28391W        W  816   9.500  27.611  13.834
28392W        W  817  10.391  44.703   4.167
28393W        W  818  33.348  29.232   0.263
28394W        W  819  36.893  34.919  11.129
28395W        W  820  25.438  12.219   2.899
28396W        W  821   7.214  28.452  12.457
28397W        W  822  33.698   0.294   0.253
28398W        W  823  10.905  40.303  12.995
28399W        W  824  28.551   5.221  14.279
28400W        W  825  12.911  27.567   0.841
28401W        W  826  35.019  10.937  10.238
28402W        W  827  28.391  41.508  14.764
28403W        W  828  35.587   9.182  14.747
28404W        W  829  20.626   8.182   0.002
28405W        W  830  39.483  22.428   4.405
28406W        W  831  18.356   6.928  12.069
28407W        W  832  25.102  16.477  12.108
28408W        W  833  17.665  21.177  14.590
28409W        W  834  43.031  10.890   2.178
28410W        W  835  43.769   8.525  13.589
28411W        W  836  29.086   8.974   4.140
28412W        W  837  31.950  13.395  13.676
28413W        W  838  20.132   8.466   1.869
28414W        W  839  37.803  27.547  14.374
28415W        W  840   3.258  16.568  11.039
28416W        W  841  35.059  38.820   2.800
28417W        W  842  30.377  20.766  10.681
28418W        W  843  31.577  38.727   1.851
28419W        W  844  15.107   0.436   1.438
28420W        W  845   0.580  11.013  13.443
28421W        W  846  15.110   7.276   4.668
28422W        W  847  29.525  18.557  14.480
28423W        W  848  14.900  26.336   4.175
28424W        W  849  16.749  19.701   5.000
28425W        W  850  25.767  13.539   0.717
28426W        W  851  37.440   6.651  12.951
28427W        W  852   2.794  14.902  13.400
28428W        W  853  16.087  25.650   0.377
28429W        W  854   4.614   7.106  12.504
28430W        W  855  31.455   3.369   1.958
28431W        W  856  16.982   9.122   1.542
28432W        W  857   5.329  38.571   0.899
28433W        W  858   7.761  25.175   0.456
28434W        W  859  38.982  29.628   4.688
28435W        W  860  25.403  42.902  10.729
28436W        W  861  31.002  26.669  10.616
28437W        W  862  32.190  25.747   1.259
28438W        W  863   2.022  36.298   2.155
28439W        W  864  17.915  25.555   0.725
28440W        W  865  18.732  44.307  12.553
28441W        W  866  22.742  37.665   3.277
28442W        W  867  39.054  20.188   1.584
28443W        W  868  40.045   6.642   0.820
28444W        W  869   8.455  35.354   2.896
28445W        W  870  13.365  24.489  12.869
28446W        W  871  44.117  35.496   0.333
28447W        W  872  30.488  30.098   3.105
28448W        W  873  25.499  19.988  14.769
28449W        W  874  40.083  21.145   2.142
28450W        W  875  22.148   1.390  13.077
28451W        W  876  43.399   6.926  12.168
28452W        W  877   9.730  44.024  11.885
28453W        W  878   7.356  35.929  13.919
28454W        W  879  16.014   8.866  12.611
28455W        W  880  20.708  42.681   1.996
28456W        W  881   2.356  15.331  13.157
28457W        W  882  15.244  13.792  12.579
28458W        W  883  34.507  38.398   1.372
28459W        W  884   9.361  31.763  11.949
28460W        W  885   7.758  44.914   1.232
28461W        W  886  36.118  19.048  13.760
28462W        W  887   4.989  17.450   1.134
28463W        W  888   4.772  33.192  11.972
28464W        W  889  20.318  44.023   3.625
28465W        W  890  33.680  23.659  11.094
28466W        W  891   9.936  30.969  13.153
28467W        W  892  12.736  23.222  14.958
28468W        W  893  13.932  10.304   4.184
28469W        W  894  33.925   8.308  13.994
28470W        W  895  37.996   2.475   4.574
28471W        W  896   7.100  36.394   1.225
28472W        W  897   5.333   2.083   3.182
28473W        W  898  29.153  25.159  10.777
28474W        W  899  38.396  24.521   1.246
28475W        W  900  28.635  20.292   4.216
28476W        W  901  19.013  11.319  11.417
28477W        W  902  42.967  16.533  10.720
28478W        W  903  22.195  11.198  11.081
28479W        W  904  39.367   9.330  12.593
28480W        W  905  10.791   6.700   1.647
28481W        W  906  40.872  27.431  14.346
28482W        W  907  34.440  37.729  10.765
28483W        W  908   4.317  15.550  12.893
28484W        W  909  35.859  32.290   2.401
28485W        W  910   7.321  17.144   3.571
28486W        W  911  36.012   2.825   2.039
28487W        W  912   4.766  41.799   0.953
28488W        W  913  40.878  38.627   2.301
28489W        W  914  22.461  36.606  11.519
28490W        W  915  27.105  28.918   1.800
28491W        W  916   4.715   7.097   2.283
28492W        W  917  19.628   7.196   4.723
28493W        W  918   2.062   5.770   4.209
28494W        W  919  40.961   9.912   0.889
28495W        W  920   2.677  19.006  11.632
28496W        W  921  41.977  28.454  10.639
28497W        W  922  43.256   7.632   0.724
28498W        W  923  23.511   7.302   1.089
28499W        W  924  42.881  20.058   3.214
28500W        W  925  18.422  11.919  12.088
28501W        W  926  43.842  32.861   3.452
28502W        W  927  23.209  34.899   3.208
28503W        W  928   0.733  27.608   1.389
28504W        W  929  40.542   3.477  10.306
28505W        W  930  23.030  33.875  11.113
28506W        W  931  35.915  32.981   4.591
28507W        W  932  25.470  35.787   3.689
28508W        W  933  18.870  32.412   3.714
28509W        W  934  39.760  31.073  12.776
28510W        W  935  25.384   3.237  11.606
28511W        W  936   2.556  11.594   4.089
28512W        W  937  22.652  17.252  10.573
28513W        W  938   6.354   0.303   3.347
28514W        W  939  27.747  35.191   1.470
28515W        W  940  10.715  42.513   3.359
28516W        W  941  30.388  36.261   4.152
28517W        W  942  34.109  21.508  11.551
28518W        W  943  33.244  15.589  10.291
28519W        W  944   9.280  10.535   3.205
28520W        W  945  36.455  44.816   3.754
28521W        W  946  10.045   3.660  14.496
28522W        W  947  25.811  35.735  14.730
28523W        W  948  33.377  36.993  11.963
28524W        W  949  28.168  42.912   1.104
28525W        W  950  38.835  16.299   0.412
28526W        W  951  23.212   2.219  14.248
28527W        W  952  30.990  43.023   0.262
28528W        W  953   7.750  34.042   5.485
28529W        W  954  24.209   9.937   1.779
28530W        W  955  18.243   9.334  14.715
28531W        W  956  17.203  11.123  14.526
28532W        W  957  35.648  20.184  11.941
28533W        W  958   3.368   9.236   4.503
28534W        W  959  25.063  33.109   1.074
28535W        W  960  28.538   3.396  10.718
28536W        W  961  25.577  24.445  12.260
28537W        W  962  27.030  42.234   2.741
28538W        W  963  41.704  23.471   4.283
28539W        W  964  35.375   6.283   1.725
28540W        W  965   5.501   0.583   3.322
28541W        W  966  37.106  17.670  11.404
28542W        W  967  24.982  32.926   4.268
28543W        W  968   3.478   6.879  13.308
28544W        W  969   3.201   9.302   0.872
28545W        W  970   7.570   8.918   4.250
28546W        W  971  20.009  15.795  10.777
28547W        W  972   5.934   6.479   3.488
28548W        W  973   4.290  23.112  11.586
28549W        W  974  14.104  36.365  13.895
28550W        W  975   4.978  13.606   1.355
28551W        W  976  39.500  29.541   3.455
28552W        W  977  17.215  42.852   5.170
28553W        W  978  28.941  30.070  10.771
28554W        W  979  33.158  44.351   0.202
28555W        W  980   3.294  17.090   2.297
28556W        W  981  18.674  24.496   3.189
28557W        W  982   6.113  28.897  12.433
28558W        W  983  16.231  23.401   4.421
28559W        W  984  15.883   6.584  13.942
28560W        W  985  33.471  24.757  12.943
28561W        W  986  44.349  33.692  10.839
28562W        W  987  37.138  19.833   1.601
28563W        W  988   1.942   3.785  13.866
28564W        W  989  40.546  33.344   3.551
28565W        W  990  35.333   3.208  11.594
28566W        W  991  38.556   0.269  12.642
28567W        W  992  27.880  30.652   1.959
28568W        W  993  35.653  39.401  10.710
28569W        W  994  35.537  12.200  14.093
28570W        W  995  40.946  19.768  14.097
28571W        W  996  12.573  17.769  13.470
28572W        W  997  17.639  42.748   2.858
28573W        W  998  31.483  13.802   4.633
28574W        W  999   5.162  14.865   4.229
28575W        W 1000  35.673  10.930   3.204
28576W        W 1001   3.147  30.444  13.477
28577W        W 1002  11.714  16.543   0.802
28578W        W 1003  39.593  43.630  10.559
28579W        W 1004  11.707  44.526  14.805
28580W        W 1005  42.246   4.524   3.799
28581W        W 1006  28.618  12.592  11.022
28582W        W 1007  33.913   0.219   3.673
28583W        W 1008  29.562  31.546  10.515
28584W        W 1009  29.937  20.634  10.925
28585W        W 1010  30.042  36.514  10.643
28586W        W 1011  24.746  33.092   2.416
28587W        W 1012  29.983  29.733  13.480
28588W        W 1013  37.327   5.231   1.754
28589W        W 1014  15.515  36.893   1.184
28590W        W 1015  39.172  12.009   3.305
28591W        W 1016  24.603  43.079  10.504
28592W        W 1017  27.695   5.148   0.566
28593W        W 1018  24.990   3.273  11.229
28594W        W 1019  38.010  34.592   3.370
28595W        W 1020  42.709  24.380  11.639
28596W        W 1021  33.658  37.325  10.734
28597W        W 1022  24.127   0.197   0.242
28598W        W 1023  24.269   7.689  13.944
28599W        W 1024   2.044  24.636   1.950
28600W        W 1025  40.306  25.206  10.774
28601W        W 1026  14.114  22.069  13.044
28602W        W 1027   2.863  27.307  11.659
28603W        W 1028   7.465  40.833  14.014
28604W        W 1029  22.754  24.485  10.107
28605W        W 1030  27.361  10.747   4.532
28606W        W 1031  37.897  32.812   3.795
28607W        W 1032  42.464  39.399   3.371
28608W        W 1033  29.160   9.743  11.214
28609W        W 1034  43.519  33.970  14.319
28610W        W 1035  34.308   6.298  14.142
28611W        W 1036  29.592  40.014  14.723
28612W        W 1037   6.670  14.322  10.499
28613W        W 1038  21.491  43.284   0.063
28614W        W 1039  39.086  44.695   1.370
28615W        W 1040   6.009   0.199  12.019
28616W        W 1041  27.219   7.964   4.820
28617W        W 1042   4.468  23.277  13.854
28618W        W 1043   8.309   7.367  10.663
28619W        W 1044  12.982  16.075  14.963
28620W        W 1045  24.624   8.973  10.678
28621W        W 1046   3.279  35.594  14.459
28622W        W 1047   1.747  20.556   1.271
28623W        W 1048  13.112  25.450  11.927
28624W        W 1049  27.127  22.841   4.473
28625W        W 1050  27.102  30.647  12.542
28626W        W 1051   9.872   9.684   2.866
28627W        W 1052  44.408   3.660  12.189
28628W        W 1053   2.713   1.609   5.211
28629W        W 1054  30.683  22.576   1.884
28630W        W 1055   6.232  12.589  12.444
28631W        W 1056   6.175   3.297   2.313
28632W        W 1057  29.904  34.947   3.814
28633W        W 1058  20.766  36.125   3.138
28634W        W 1059  28.990  20.729   1.822
28635W        W 1060   4.187   3.771  13.115
28636W        W 1061   2.415  36.053  12.565
28637W        W 1062  15.703  16.066  14.447
28638W        W 1063   3.283  29.636   4.574
28639W        W 1064  10.902  31.253   1.382
28640W        W 1065  43.024  44.252   0.960
28641W        W 1066  28.855  37.521   0.022
28642W        W 1067  33.687  23.585   1.165
28643W        W 1068  33.029   0.043  14.261
28644W        W 1069  42.926  20.388   2.222
28645W        W 1070  27.201  14.377  11.028
28646W        W 1071  44.343  33.842   2.707
28647W        W 1072  36.562  40.961  14.944
28648W        W 1073  35.525   3.287  14.045
28649W        W 1074  34.649   1.358  11.914
28650W        W 1075  42.728   6.789  11.494
28651W        W 1076  35.028  28.983   2.608
28652W        W 1077  36.988  37.594   0.703
28653W        W 1078   4.683  37.599   0.310
28654W        W 1079  42.086  10.138  14.807
28655W        W 1080  23.938   5.316   4.529
28656W        W 1081   4.242  43.877   0.888
28657W        W 1082  11.114  20.094  12.550
28658W        W 1083   3.227  40.163  11.951
28659W        W 1084  12.404  14.208   3.307
28660W        W 1085   0.318  39.226   3.541
28661W        W 1086  11.088  19.674  14.356
28662W        W 1087   7.270   8.251   4.662
28663W        W 1088  42.397   7.321  13.050
28664W        W 1089   2.095  23.861   0.853
28665W        W 1090  35.892  34.944  14.961
28666W        W 1091  31.650  36.168  11.911
28667W        W 1092  19.429  37.311   4.989
28668W        W 1093  25.549  10.214  10.191
28669W        W 1094  33.597   1.782   2.687
28670W        W 1095  34.471  13.426   1.051
28671W        W 1096   9.537  21.663   2.853
28672W        W 1097  17.000  14.016  11.020
28673W        W 1098  38.969  20.586  10.936
28674W        W 1099   9.277  27.815   4.489
28675W        W 1100   0.688  18.339  14.938
28676W        W 1101  34.108  20.454   3.605
28677W        W 1102  11.596  38.538  12.856
28678W        W 1103  15.463  28.804  11.621
28679W        W 1104  35.430  38.467   4.602
28680W        W 1105  34.530  15.233   1.386
28681W        W 1106  20.122  16.216  14.416
28682W        W 1107  13.657  35.825  13.409
28683W        W 1108  28.630  36.873   4.267
28684W        W 1109  11.423  17.710   2.752
28685W        W 1110   9.586  19.605  10.897
28686W        W 1111  13.776   2.199   2.724
28687W        W 1112  33.931  40.084   4.485
28688W        W 1113  29.818  18.189  14.260
28689W        W 1114  23.317  25.593   1.308
28690W        W 1115  14.981  34.532   0.351
28691W        W 1116  12.562  26.229   4.848
28692W        W 1117  33.204   0.333   4.173
28693W        W 1118  10.325  41.073   0.434
28694W        W 1119   3.042   4.382  12.863
28695W        W 1120  16.319  14.811   4.302
28696W        W 1121  24.061  19.672  11.617
28697W        W 1122  18.943  16.070  14.857
28698W        W 1123  22.874  14.309  12.127
28699W        W 1124  37.376  14.125  12.178
28700W        W 1125   7.750   6.511   1.873
28701W        W 1126  20.084  14.089   3.179
28702W        W 1127  22.766  18.179   2.710
28703W        W 1128  10.738  17.641   4.324
28704W        W 1129  19.485   5.342   3.851
28705W        W 1130  44.900   0.297   3.132
28706W        W 1131  26.720  24.039  13.420
28707W        W 1132  24.641   4.623   0.313
28708W        W 1133  16.353  43.317   0.567
28709W        W 1134  36.450  15.651  10.800
28710W        W 1135  29.573  43.409  14.128
28711W        W 1136  15.185  36.412  13.157
28712W        W 1137   4.950  39.413  12.889
28713W        W 1138  29.423  10.180   0.817
28714W        W 1139  33.693  34.704   4.616
28715W        W 1140  37.769  17.112  10.616
28716W        W 1141  32.609   6.830  13.025
28717W        W 1142  41.523  35.860   4.402
28718W        W 1143  21.764  10.439   1.145
28719W        W 1144   2.428   3.483  11.872
28720W        W 1145  38.872  44.509  13.794
28721W        W 1146  20.526  19.190   1.289
28722W        W 1147  37.573  21.125   4.695
28723W        W 1148  22.392  16.089  10.376
28724W        W 1149  34.576  34.040   4.115
28725W        W 1150  43.949  15.112   2.063
28726W        W 1151  16.497  42.153  12.109
28727W        W 1152  19.145  29.426   1.549
28728W        W 1153  15.134  12.132  10.631
28729W        W 1154  42.304  41.313   3.924
28730W        W 1155   8.395  35.031   0.578
28731W        W 1156  42.386   0.008  13.049
28732W        W 1157  44.681  34.106   2.419
28733W        W 1158  32.691  34.370   1.907
28734W        W 1159  12.148   5.455   3.238
28735W        W 1160  30.118  22.272   3.237
28736W        W 1161  34.477  24.534  10.752
28737W        W 1162  20.724  27.810   4.731
28738W        W 1163  21.101  11.856   4.112
28739W        W 1164  19.083  22.037   0.719
28740W        W 1165  14.267  41.835  13.630
28741W        W 1166  27.936  32.004   0.215
28742W        W 1167  26.523  42.106  10.431
28743W        W 1168  12.838  33.093   4.161
28744W        W 1169  40.343  22.656  10.923
28745W        W 1170  22.741  34.393   3.745
28746W        W 1171   9.658  33.989  10.940
28747W        W 1172  36.929   1.210  13.905
28748W        W 1173  44.577   0.223   1.702
28749W        W 1174   0.963  22.177   3.656
28750W        W 1175  21.718  40.046   4.243
28751W        W 1176  30.074  10.886   2.859
28752W        W 1177  32.076  13.610   1.355
28753W        W 1178   7.344   3.665   1.869
28754W        W 1179   0.187   6.245  14.420
28755W        W 1180  17.260  34.920   4.545
28756W        W 1181  40.914   5.235   3.528
28757W        W 1182  11.259  15.307   1.023
28758W        W 1183  23.095  40.122  14.002
28759W        W 1184  25.294  24.962  13.118
28760W        W 1185  38.635  30.351   9.761
28761W        W 1186   8.397  16.827   3.706
28762W        W 1187  36.475  43.923  13.068
28763W        W 1188  43.016   9.399  11.493
28764W        W 1189  40.745  43.766  13.652
28765W        W 1190   5.439   4.378  12.476
28766W        W 1191  30.442  35.783  12.403
28767W        W 1192  16.704  24.807  13.843
28768W        W 1193  40.016  33.201  11.649
28769W        W 1194  44.192   8.861  13.501
28770W        W 1195  19.291  26.292   1.340
28771W        W 1196   4.452   6.965  13.007
28772W        W 1197  18.640  27.212  11.399
28773W        W 1198  34.994   3.429  12.880
28774W        W 1199  22.253  41.853   2.476
28775W        W 1200  24.442  33.703  12.926
28776W        W 1201  23.934  37.550  12.780
28777W        W 1202   2.831  30.953   1.973
28778W        W 1203  29.623   7.890   0.754
28779W        W 1204  40.020  18.720  13.397
28780W        W 1205  12.075   6.217   4.573
28781W        W 1206  43.400  40.930  12.066
28782W        W 1207  23.457  21.922  12.871
28783W        W 1208  33.163  25.654   1.238
28784W        W 1209  44.334   5.121  14.516
28785W        W 1210  25.876  40.850  14.794
28786W        W 1211  20.593  19.577   3.668
28787W        W 1212  44.768  16.324  11.949
28788W        W 1213  25.576  13.686   4.171
28789W        W 1214  40.124   3.718  14.115
28790W        W 1215  29.347  24.221  12.496
28791W        W 1216  41.061  32.025   2.866
28792W        W 1217   8.588  16.750  12.076
28793W        W 1218  36.455  11.314  10.531
28794W        W 1219   9.489   1.718  13.425
28795W        W 1220  13.963  17.698   4.496
28796W        W 1221   1.700   2.134   4.288
28797W        W 1222  44.509  11.339  10.807
28798W        W 1223  23.657   8.612  11.739
28799W        W 1224  13.370  12.858  11.590
28800W        W 1225  43.871  14.865  13.968
28801W        W 1226  13.696  13.746   0.472
28802W        W 1227  14.993  29.508  13.728
28803W        W 1228  26.538  44.838   2.441
28804W        W 1229  42.708  39.276  11.186
28805W        W 1230  21.430  28.507   4.162
28806W        W 1231  42.273  39.930  10.929
28807W        W 1232  11.856  36.501  14.769
28808W        W 1233   2.312   1.228  12.274
28809W        W 1234  35.919  30.142   2.207
28810W        W 1235  10.684  36.960   0.954
28811W        W 1236  13.773   5.657  12.912
28812W        W 1237  21.105  42.950  12.414
28813W        W 1238  30.905   5.962  12.996
28814W        W 1239  16.251   0.880  13.322
28815W        W 1240   7.202  36.903  14.901
28816W        W 1241   9.781  43.964  12.394
28817W        W 1242  32.706  26.611   0.907
28818W        W 1243  23.241  42.308  14.253
28819W        W 1244  39.396  15.818  10.778
28820W        W 1245  11.684  14.660   0.692
28821W        W 1246  38.923  27.516   4.571
28822W        W 1247  10.358   8.234   2.234
28823W        W 1248  14.497  28.745  14.558
28824W        W 1249  33.988  30.573   4.396
28825W        W 1250   5.697  11.416   1.866
28826W        W 1251   7.069  12.496  12.428
28827W        W 1252  21.651  20.688  11.018
28828W        W 1253  15.593  12.622   4.174
28829W        W 1254  22.249  36.403   0.062
28830W        W 1255   9.352  42.392   3.185
28831W        W 1256  40.106  19.777  14.823
28832W        W 1257  19.414  40.881  11.232
28833W        W 1258  13.800  36.323  13.479
28834W        W 1259  16.172   4.825  14.874
28835W        W 1260  11.229   1.916   3.537
28836W        W 1261  20.468  10.720   1.403
28837W        W 1262  25.965  21.740  14.843
28838W        W 1263  37.886  10.334   1.404
28839W        W 1264  12.192   7.164   3.049
28840W        W 1265  43.950   9.726   4.624
28841W        W 1266  22.739  27.139   0.198
28842W        W 1267  36.498  26.633  12.467
28843W        W 1268  39.611  23.361   2.788
28844W        W 1269  33.625  33.433  14.508
28845W        W 1270  12.823  22.581  14.406
28846W        W 1271  10.069  33.590   3.216
28847W        W 1272   4.828  18.222  10.646
28848W        W 1273  28.565  31.534  11.948
28849W        W 1274  40.933  40.289   3.778
28850W        W 1275   1.440   5.154   1.978
28851W        W 1276  34.085  33.700  14.488
28852W        W 1277  26.340  21.689   0.285
28853W        W 1278  13.265  14.405   2.846
28854W        W 1279   3.846  28.124   2.226
28855W        W 1280  21.298  21.109   4.870
28856W        W 1281  34.421  38.462   3.901
28857W        W 1282  18.076  32.646   4.149
28858W        W 1283   6.663  33.543  12.645
28859W        W 1284  27.969   2.468   0.998
28860W        W 1285   4.854  11.834   2.352
28861W        W 1286  42.525   0.434   1.036
28862W        W 1287   8.571  16.337   0.321
28863W        W 1288   3.736  32.769  12.134
28864W        W 1289  15.230   0.269  14.921
28865W        W 1290  34.006  28.030  11.159
28866W        W 1291  17.944   6.398   3.883
28867W        W 1292  39.471  35.418   4.223
28868W        W 1293  42.077  14.252  13.452
28869W        W 1294  25.628  13.238  14.230
28870W        W 1295  42.994  28.947  14.433
28871W        W 1296  22.671  44.520   0.819
28872W        W 1297  39.581  17.424  12.673
28873W        W 1298  17.976  37.803   1.765
28874W        W 1299  33.850  27.180   3.569
28875W        W 1300  21.478  18.203   1.596
28876W        W 1301  22.778   7.761   4.266
28877W        W 1302  22.178  35.876   0.289
28878W        W 1303  13.390  34.866  13.443
28879W        W 1304   5.845  15.832   0.812
28880W        W 1305  36.368   3.851  11.122
28881W        W 1306  36.009   3.187  14.815
28882W        W 1307  32.568   7.431   2.939
28883W        W 1308  10.450  30.865  12.108
28884W        W 1309  20.107  32.129  13.337
28885W        W 1310  20.689  30.453  11.533
28886W        W 1311  40.930  39.299   4.547
28887W        W 1312  18.028  26.946   3.861
28888W        W 1313   7.427  20.625  14.981
28889W        W 1314  22.535  40.863   0.377
28890W        W 1315   0.267  21.210   0.321
28891W        W 1316  14.850  32.160  13.155
28892W        W 1317  23.782  41.165  11.571
28893W        W 1318  35.317   2.870   3.891
28894W        W 1319  41.528  38.349  12.300
28895W        W 1320  11.423  28.810  14.011
28896W        W 1321  26.125   6.433  10.721
28897W        W 1322  36.416  21.594   4.780
28898W        W 1323  34.069  27.722   1.297
28899W        W 1324  39.319  20.804  10.634
28900W        W 1325  12.842  41.541  12.396
28901W        W 1326  15.354  16.610  10.405
28902W        W 1327  41.471  10.126   0.747
28903W        W 1328  26.611  36.578   3.425
28904W        W 1329   9.882  16.718   2.756
28905W        W 1330   7.718  40.483   1.346
28906W        W 1331  34.580  23.230  14.508
28907W        W 1332  31.876   8.716   2.809
28908W        W 1333  29.600  40.636   1.519
28909W        W 1334  39.133  24.045   3.786
28910W        W 1335  38.531  28.206   4.641
28911W        W 1336  23.652  23.648   3.689
28912W        W 1337  20.015  35.803   0.369
28913W        W 1338  29.649  18.564   4.515
28914W        W 1339  43.886  42.951  13.015
28915W        W 1340  43.566  36.137   3.083
28916W        W 1341  44.936  29.569   3.174
28917W        W 1342  16.399   3.050   0.519
28918W        W 1343  18.301  25.730  14.257
28919W        W 1344  26.739  19.203   4.674
28920W        W 1345  11.437  31.322   1.431
28921W        W 1346   7.498  16.666   3.500
28922W        W 1347  30.984  33.153  12.995
28923W        W 1348  27.190  23.697  12.028
28924W        W 1349  36.887  43.814  13.853
28925W        W 1350  44.459   6.904  12.393
28926W        W 1351  41.366  17.335   3.180
28927W        W 1352  31.156  13.312   2.768
28928W        W 1353  25.952  21.334  10.684
28929W        W 1354  20.259  30.927  11.921
28930W        W 1355  43.810  28.026  13.120
28931W        W 1356  40.074  10.721   2.004
28932W        W 1357  42.889   3.796  14.386
28933W        W 1358  43.708  10.294   1.306
28934W        W 1359   2.229  19.683   1.436
28935W        W 1360  35.936  33.093  10.723
28936W        W 1361  14.228  33.268  14.214
28937W        W 1362  29.446  28.418  12.859
28938W        W 1363  34.288  43.004  14.923
28939W        W 1364  42.339  27.546  10.814
28940W        W 1365   6.678  36.700   3.803
28941W        W 1366   6.852   3.766   2.188
28942W        W 1367  34.650  42.299  14.981
28943W        W 1368  18.945  18.784  14.307
28944W        W 1369   2.230  13.885   2.369
28945W        W 1370  31.356   4.383  14.942
28946W        W 1371  37.165  25.156   5.356
28947W        W 1372  34.553  18.113  11.062
28948W        W 1373   5.845   6.639   1.166
28949W        W 1374  36.222   8.119  10.657
28950W        W 1375  39.861   1.501  10.712
28951W        W 1376  17.717   4.439   2.836
28952W        W 1377  37.999  13.095  10.470
28953W        W 1378  20.240  23.643  13.914
28954W        W 1379   6.796  11.771   1.235
28955W        W 1380  18.734  28.056  11.074
28956W        W 1381   4.256  43.538  12.446
28957W        W 1382   7.309  40.488   1.734
28958W        W 1383  28.174  42.129  13.519
28959W        W 1384  38.012  41.752  14.857
28960W        W 1385  43.270  28.074   3.271
28961W        W 1386   5.278  35.366   2.222
28962W        W 1387  36.092   7.257   3.300
28963W        W 1388  21.500  41.051  14.549
28964W        W 1389  20.974  36.935   4.486
28965W        W 1390  36.389  18.052  11.405
28966W        W 1391  34.463  12.845  14.368
28967W        W 1392  29.939  35.801  12.492
28968W        W 1393  34.598  13.368  11.440
28969W        W 1394  27.287  29.128   4.411
28970W        W 1395  32.094   3.191   2.248
28971W        W 1396  33.979  22.013   3.883
28972W        W 1397  41.738  34.362  11.744
28973W        W 1398  44.303   8.429   4.164
28974W        W 1399  21.164  43.934  13.971
28975W        W 1400  23.246  44.448   4.392
28976W        W 1401  35.455  24.597   1.322
28977W        W 1402  29.597  20.639   1.435
28978W        W 1403   6.019   8.805   3.367
28979W        W 1404   3.734  10.738  13.114
28980W        W 1405   9.878  33.920  12.934
28981W        W 1406   4.946  43.873  12.075
28982W        W 1407  20.643  13.378   0.370
28983W        W 1408  40.086  29.448   3.790
28984W        W 1409  19.183  10.366   4.239
28985W        W 1410  22.716  10.999  11.963
28986W        W 1411   3.771   2.410  14.000
28987W        W 1412  10.731   2.894  13.271
28988W        W 1413  24.728  17.633   2.407
28989W        W 1414   9.202   2.723   3.621
28990W        W 1415   8.104  11.337  13.927
28991W        W 1416  41.078  29.055   4.624
28992W        W 1417   0.492  22.565  10.523
28993W        W 1418   6.387  21.131  12.667
28994W        W 1419  33.520   6.890   4.191
28995W        W 1420   8.242  33.566   0.294
28996W        W 1421  33.425   1.537  11.659
28997W        W 1422  19.124  31.885  13.911
28998W        W 1423  20.810  26.028   1.533
28999W        W 1424  39.583  13.163   0.212
29000W        W 1425  33.045  16.869  13.313
29001W        W 1426  44.920  18.148  14.459
29002W        W 1427   5.857   0.193   1.327
29003W        W 1428  41.438  18.210   2.930
29004W        W 1429  34.842  17.697  12.118
29005W        W 1430   6.653  31.509  14.821
29006W        W 1431  29.657  19.461   0.763
29007W        W 1432  13.365   1.791  13.876
29008W        W 1433  39.105  37.483   0.975
29009W        W 1434   6.642  15.317  10.751
29010W        W 1435  36.420  31.601  12.621
29011W        W 1436  19.456  10.853   4.268
29012W        W 1437  40.734  32.631  11.070
29013W        W 1438  21.346  24.437   4.365
29014W        W 1439  27.381  37.767   2.802
29015W        W 1440  44.912  37.160  12.988
29016W        W 1441  16.101   1.290   3.687
29017W        W 1442  11.006   3.871   0.256
29018W        W 1443  27.052   4.566  15.000
29019W        W 1444   3.347   9.965  14.473
29020W        W 1445   8.159   1.960  13.882
29021W        W 1446  30.994  42.802  11.093
29022W        W 1447  29.974  17.434  10.702
29023W        W 1448  30.070  12.322   3.589
29024W        W 1449  19.130  20.152  10.766
29025W        W 1450   3.617  44.547  12.873
29026W        W 1451  29.184  16.883  11.620
29027W        W 1452  14.855  12.670   0.795
29028W        W 1453   8.370   9.389   4.412
29029W        W 1454  38.821  38.183   1.337
29030W        W 1455  16.351  28.039  13.864
29031W        W 1456  37.355  39.802  14.852
29032W        W 1457   1.885  19.528   0.960
29033W        W 1458  38.971  35.493  10.758
29034W        W 1459  20.037   3.778  11.053
29035W        W 1460  21.508   5.802  11.525
29036W        W 1461  16.135  18.029   2.830
29037W        W 1462  36.656  36.887  11.558
29038W        W 1463  22.063  43.972   3.913
29039W        W 1464  12.122   3.765   3.715
29040W        W 1465   4.890  24.589  14.983
29041W        W 1466  26.539  21.924  11.134
29042W        W 1467  13.374  30.031  14.417
29043W        W 1468  35.084   9.829   2.133
29044W        W 1469  43.293  39.500   1.524
29045W        W 1470  36.669  34.172   3.321
29046W        W 1471   3.490  37.948  14.433
29047W        W 1472  33.473  23.524  14.821
29048W        W 1473  13.546  20.477  13.416
29049W        W 1474  15.575  10.663  12.155
29050W        W 1475  24.047  42.886   4.236
29051W        W 1476  25.505  20.724   3.671
29052W        W 1477  30.964  34.991  12.480
29053W        W 1478  42.004   6.202  12.491
29054W        W 1479  20.183   9.888   1.385
29055W        W 1480  36.421   9.835   1.920
29056W        W 1481   5.442  26.247   2.266
29057W        W 1482   9.939  38.608   4.596
29058W        W 1483   7.392  27.063   4.554
29059W        W 1484   4.423   0.015   3.138
29060W        W 1485  31.416  24.539  10.682
29061W        W 1486  31.539   7.124  10.941
29062W        W 1487  39.835  38.781  12.444
29063W        W 1488   4.473  21.218   3.900
29064W        W 1489  35.591  43.972   3.254
29065W        W 1490  15.289  35.537  14.084
29066W        W 1491  30.546  19.143   3.273
29067W        W 1492  18.148  14.542  13.886
29068W        W 1493  29.533  12.909   0.493
29069W        W 1494  32.108  41.117  14.902
29070W        W 1495  31.217  43.916  13.499
29071W        W 1496  10.541  33.413  13.009
29072W        W 1497  38.838  29.707   3.762
29073W        W 1498  41.440  23.567   4.736
29074W        W 1499   7.583   1.476  10.443
29075W        W 1500   8.191  44.468  13.923
29076W        W 1501  13.627  28.100  12.902
29077W        W 1502  39.379   1.353   1.873
29078W        W 1503  26.001  30.425  13.979
29079W        W 1504   3.245  17.308  13.072
29080W        W 1505   1.820  30.985  14.154
29081W        W 1506  14.370   2.698   3.395
29082W        W 1507  22.515  20.377  11.422
29083W        W 1508  25.818  38.464  14.719
29084W        W 1509   2.346  37.238   5.064
29085W        W 1510  13.426  28.857   4.611
29086W        W 1511  31.949  42.473   0.955
29087W        W 1512   9.274  34.997  11.390
29088W        W 1513  16.756  20.257   2.801
29089W        W 1514  23.558  11.158   1.212
29090W        W 1515  42.912   1.275  11.079
29091W        W 1516  41.160  15.854   0.291
29092W        W 1517  33.504  12.154  11.421
29093W        W 1518  39.922  40.880   3.089
29094W        W 1519   4.667  34.484  13.723
29095W        W 1520  18.957  36.623   0.886
29096W        W 1521  23.587  26.514  10.591
29097W        W 1522  25.280   8.561  14.262
29098W        W 1523   0.865  23.868  10.292
29099W        W 1524  20.236  17.789  11.211
29100W        W 1525  13.679  18.194   1.691
29101W        W 1526  14.580  10.375   3.281
29102W        W 1527  15.523  34.360   0.478
29103W        W 1528   4.307   2.918  11.030
29104W        W 1529   0.678  21.491   4.145
29105W        W 1530  24.296  14.587   0.180
29106W        W 1531  42.658  30.220  13.520
29107W        W 1532   1.849  26.122   2.406
29108W        W 1533  38.955   5.941  12.464
29109W        W 1534  34.106  11.701  14.297
29110W        W 1535   7.487   6.260   2.324
29111W        W 1536  22.722  41.455  13.532
29112W        W 1537   8.240   1.856   0.735
29113W        W 1538  14.511   1.800  11.557
29114W        W 1539  32.760  23.733  14.417
29115W        W 1540  21.696  26.665  11.584
29116W        W 1541  38.935  32.423  13.341
29117W        W 1542  44.038   7.808   2.665
29118W        W 1543  24.637  26.552   4.675
29119W        W 1544  38.250  38.370   4.487
29120W        W 1545   7.979   9.187  11.446
29121W        W 1546   5.900  24.933  14.903
29122W        W 1547  37.437  36.585   4.520
29123W        W 1548  12.769   9.603   0.811
29124W        W 1549   4.710  42.572   0.235
29125W        W 1550  10.285  30.008  14.502
29126W        W 1551  18.305  29.522   0.795
29127W        W 1552  31.538  24.188   2.413
29128W        W 1553   6.845  44.361   4.459
29129W        W 1554  20.051   7.674   3.618
29130W        W 1555  43.970  12.229  13.409
29131W        W 1556  34.348  21.041  10.766
29132W        W 1557  18.470  20.989   2.741
29133W        W 1558  20.211  32.408   3.748
29134W        W 1559  15.776  18.052  14.521
29135W        W 1560   8.207   6.980  14.777
29136W        W 1561  21.051  13.578  11.006
29137W        W 1562   2.410  31.137  12.420
29138W        W 1563  15.117  33.793  13.369
29139W        W 1564  12.055  36.845   2.858
29140W        W 1565  21.143  43.468  12.381
29141W        W 1566  41.736  20.966  14.841
29142W        W 1567   4.970   9.608  14.804
29143W        W 1568  32.638  19.022   9.524
29144W        W 1569  28.492  36.090   0.767
29145W        W 1570  41.607  40.048  13.951
29146W        W 1571  34.574  32.117  14.485
29147W        W 1572  18.107  36.367  11.758
29148W        W 1573   0.913  15.730  10.482
29149W        W 1574  21.037  29.604   5.034
29150W        W 1575  14.045  42.317   3.198
29151W        W 1576  30.516   1.134  10.618
29152W        W 1577  36.133  23.068  12.881
29153W        W 1578  37.994   5.248  14.727
29154W        W 1579  38.707  23.059  11.511
29155W        W 1580   5.972  38.008  14.657
29156W        W 1581  32.173  17.186  12.074
29157W        W 1582   2.192  28.534  12.888
29158W        W 1583   0.511   7.331   0.839
29159W        W 1584  11.262  10.594   4.767
29160W        W 1585   7.940  26.650   4.222
29161W        W 1586  18.475  28.663   4.009
29162W        W 1587   2.460   4.208   1.296
29163W        W 1588  24.112  33.560   2.266
29164W        W 1589  24.615  24.841   4.237
29165W        W 1590  31.971  16.777   4.587
29166W        W 1591   9.617   6.517   0.725
29167W        W 1592  15.828  40.546   2.119
29168W        W 1593   3.997   1.313   1.923
29169W        W 1594  42.068  19.276   4.108
29170W        W 1595  38.553  20.958  13.032
29171W        W 1596  27.011  17.782  11.601
29172W        W 1597  34.659   5.895  14.952
29173W        W 1598  26.554  13.174  10.954
29174W        W 1599  30.415  25.713   2.263
29175W        W 1600   4.330  23.458  14.812
29176W        W 1601   9.389  10.809  10.880
29177W        W 1602   4.474  12.593  14.365
29178W        W 1603  28.395   0.905  10.709
29179W        W 1604  25.099  12.527  11.540
29180W        W 1605  10.710  38.121   3.831
29181W        W 1606  25.982  30.637  11.687
29182W        W 1607  33.403  11.123  12.298
29183W        W 1608  42.862  39.497   4.674
29184W        W 1609   4.302  20.787   3.588
29185W        W 1610  15.711  42.922   3.445
29186W        W 1611   9.201  39.118   0.893
29187W        W 1612  31.004  34.445   2.558
29188W        W 1613  33.608  21.193   2.253
29189W        W 1614  23.147  27.336   0.481
29190W        W 1615  10.866  14.123  11.607
29191W        W 1616  12.192  27.802   1.470
29192W        W 1617  25.537   0.229   1.434
29193W        W 1618  12.100   2.179  11.152
29194W        W 1619   5.612  21.069  13.923
29195W        W 1620  19.437   0.953   4.643
29196W        W 1621  29.978   7.597  13.593
29197W        W 1622  39.584  12.792   3.809
29198W        W 1623  21.285  26.912  13.035
29199W        W 1624  31.333   5.417   4.858
29200W        W 1625  38.036  12.764  11.249
29201W        W 1626  40.999  33.530   1.773
29202W        W 1627   0.242  35.413  14.385
29203W        W 1628   4.397   2.723   0.821
29204W        W 1629  37.876  36.546  13.380
29205W        W 1630  29.512   3.756  11.941
29206W        W 1631  23.339   9.747   2.728
29207W        W 1632  42.697  13.210   1.377
29208W        W 1633  32.127  22.480   0.760
29209W        W 1634  35.402  22.317  12.909
29210W        W 1635   8.873  17.018   2.843
29211W        W 1636  18.716   9.217  13.952
29212W        W 1637  40.504  43.525  10.113
29213W        W 1638   9.145  27.035  11.270
29214W        W 1639  25.320  35.902   1.720
29215W        W 1640  35.039  18.803  12.949
29216W        W 1641  19.852  38.091   4.753
29217W        W 1642  18.867  16.634  10.661
29218W        W 1643  23.436  16.567   0.001
29219W        W 1644   7.351   6.366   1.297
29220W        W 1645  25.003  43.926  12.052
29221W        W 1646  21.687  27.651  13.924
29222W        W 1647  24.667  21.524   0.821
29223W        W 1648  13.300  25.105   0.362
29224W        W 1649   0.271  25.213   0.800
29225W        W 1650  34.441  30.645  13.789
29226W        W 1651  31.156  11.825  12.453
29227W        W 1652  25.688  21.050  11.977
29228W        W 1653  27.428  41.438  13.872
29229W        W 1654  16.059  23.982  10.700
29230W        W 1655   6.404  15.804  11.605
29231W        W 1656  10.713  25.056   0.948
29232W        W 1657  38.931  27.973  12.488
29233W        W 1658   5.547   6.808   2.471
29234W        W 1659  18.730   1.999   3.601
29235W        W 1660  20.956  33.415   5.045
29236W        W 1661  18.615  39.636  14.362
29237W        W 1662  24.164  31.903  13.388
29238W        W 1663  18.586  31.423   4.577
29239W        W 1664   8.146  11.688   1.727
29240W        W 1665   7.146   0.888   2.607
29241W        W 1666  19.975  16.336  14.902
29242W        W 1667  44.962  43.016   2.850
29243W        W 1668   8.958  11.774  12.123
29244W        W 1669   1.917  14.574  10.579
29245W        W 1670   8.275   6.826  13.391
29246W        W 1671   3.736  40.471   0.516
29247W        W 1672   1.882   4.464  14.899
29248W        W 1673  43.952   0.654  13.815
29249W        W 1674  42.197  25.485  14.423
29250W        W 1675  43.220  41.854   4.518
29251W        W 1676  30.386   4.482   2.166
29252W        W 1677  37.894  38.350   4.887
29253W        W 1678  26.123  39.277   3.561
29254W        W 1679  34.006  16.669  13.752
29255W        W 1680  42.970  31.828  11.263
29256W        W 1681  10.522   6.597  14.344
29257W        W 1682  19.001  25.756  11.099
29258W        W 1683  27.182  14.497   1.767
29259W        W 1684   0.342  23.493  11.562
29260W        W 1685  15.383  17.106  14.990
29261W        W 1686  39.791  10.148   1.021
29262W        W 1687  12.957   8.602   9.906
29263W        W 1688   1.743  35.858  13.469
29264W        W 1689  15.455  40.087   2.872
29265W        W 1690  14.885  23.184  11.867
29266W        W 1691  18.024  18.719  13.415
29267W        W 1692  20.267  43.923   4.527
29268W        W 1693  12.117  33.051   4.686
29269W        W 1694  40.008  36.518   0.665
29270W        W 1695  38.038  42.311  13.356
29271W        W 1696  16.519  29.880   3.227
29272W        W 1697   4.502  10.938   2.831
29273W        W 1698  12.985   9.229  12.267
29274W        W 1699  12.802   9.801   0.318
29275W        W 1700  12.821  41.427  11.609
29276W        W 1701  18.066  33.197   4.165
29277W        W 1702  14.854  25.542  10.668
29278W        W 1703  24.412  19.513  11.292
29279W        W 1704  17.302  27.016  13.894
29280W        W 1705   2.727  25.692   4.096
29281W        W 1706  26.555  29.049   4.553
29282W        W 1707   3.263   4.783  12.423
29283W        W 1708  31.873  31.128  11.353
29284W        W 1709   4.007   7.746   0.001
29285W        W 1710  35.131  23.097  11.480
29286W        W 1711  35.763  36.038   1.926
29287W        W 1712   1.859  34.823   3.216
29288W        W 1713  42.292  26.547  13.419
29289W        W 1714   8.762   8.145  11.652
29290W        W 1715  32.748  21.133   2.255
29291W        W 1716  33.002  44.781   0.823
29292W        W 1717  19.244   6.913   0.305
29293W        W 1718   9.719   4.667   4.540
29294W        W 1719  43.954  37.223   0.719
29295W        W 1720  39.912  23.441   0.261
29296W        W 1721   3.816  26.010  12.897
29297W        W 1722   9.793  35.887   4.906
29298W        W 1723  43.615  20.468  13.971
29299W        W 1724  22.828   7.250   4.186
29300W        W 1725  15.567  39.397  12.638
29301W        W 1726  12.511  25.539  14.712
29302W        W 1727  23.759  36.551  12.694
29303W        W 1728  16.067  16.062   2.135
29304W        W 1729  23.641   6.471  12.897
29305W        W 1730  13.521  26.604  14.379
29306W        W 1731   7.641  30.581   4.701
29307W        W 1732  42.954  19.582   1.743
29308W        W 1733   1.820  13.870  12.437
29309W        W 1734   0.246   3.840  10.640
29310W        W 1735   7.178  33.418   4.718
29311W        W 1736  10.669  11.902   3.429
29312W        W 1737  25.652   3.202  10.132
29313W        W 1738   3.688   4.324  11.023
29314W        W 1739   1.832  36.977   4.353
29315W        W 1740  24.669  30.433  13.709
29316W        W 1741  32.885  27.192   1.255
29317W        W 1742  18.659   1.775   4.542
29318W        W 1743  24.027  27.150   4.058
29319W        W 1744   1.749  41.387   0.398
29320W        W 1745  16.522   8.747  10.652
29321W        W 1746  14.135  10.673   2.375
29322W        W 1747   6.683  22.115  14.408
29323W        W 1748   8.121  29.629   2.820
29324W        W 1749  42.462   1.947  10.496
29325W        W 1750  30.075  33.892  13.405
29326W        W 1751  18.244  35.030  10.641
29327W        W 1752   7.879  32.609   4.302
29328W        W 1753  30.014  37.045  10.625
29329W        W 1754  15.946  13.191   0.903
29330W        W 1755  29.775  14.557  11.100
29331W        W 1756   6.663   5.609   3.067
29332W        W 1757  21.089  11.545   4.600
29333W        W 1758  29.668  37.254   2.149
29334W        W 1759   2.704  10.577   3.591
29335W        W 1760  29.518  26.666  13.820
29336W        W 1761  43.057  30.215   1.370
29337W        W 1762  19.121   1.009   1.824
29338W        W 1763   1.263  39.609   3.005
29339W        W 1764  36.852  29.913   1.169
29340W        W 1765  35.782  42.968  11.597
29341W        W 1766  23.016  14.420   4.541
29342W        W 1767  29.716  21.817   2.296
29343W        W 1768  21.162  15.597  14.335
29344W        W 1769  30.643   1.120  13.809
29345W        W 1770  12.793  31.129  13.262
29346W        W 1771   2.296  16.221  14.401
29347W        W 1772  28.149  24.171   1.750
29348W        W 1773  15.834  43.975   1.812
29349W        W 1774  33.971  16.587  10.718
29350W        W 1775  30.115  23.045  14.397
29351W        W 1776  19.562  21.244  12.821
29352W        W 1777  24.052  39.841   2.071
29353W        W 1778   0.263  31.477   0.413
29354W        W 1779  42.847  28.696   3.611
29355W        W 1780  33.370  36.208   2.764
29356W        W 1781  42.050   7.745  11.432
29357W        W 1782  30.152  44.037  10.674
29358W        W 1783  32.999  32.625   1.384
29359W        W 1784  15.535  39.084   4.779
29360W        W 1785  37.960  32.426   4.162
29361W        W 1786  28.036  32.227  14.740
29362W        W 1787  12.361   0.642  12.761
29363W        W 1788  21.780  22.434   2.853
29364W        W 1789  18.454  28.445  12.384
29365W        W 1790  41.417  31.957   3.812
29366W        W 1791  17.802   3.391   2.920
29367W        W 1792  39.981  30.083   2.716
29368W        W 1793   7.886  22.566  11.532
29369W        W 1794   5.927  36.863  14.378
29370W        W 1795   8.821  30.088  14.055
29371W        W 1796  30.980  31.088   4.076
29372W        W 1797  24.218  34.518  10.613
29373W        W 1798  18.911  10.487   5.088
29374W        W 1799  28.142  40.078  10.234
29375W        W 1800   9.804  38.244  10.373
29376W        W 1801  40.650  38.968  14.013
29377W        W 1802  25.483  23.147   0.959
29378W        W 1803  22.538  39.796   3.776
29379W        W 1804  22.689   8.748   0.382
29380W        W 1805  39.763  43.489  12.158
29381W        W 1806   1.841   4.848   4.116
29382W        W 1807   5.703  30.347  14.403
29383W        W 1808   7.643  31.643  11.433
29384W        W 1809   5.941  22.837  13.297
29385W        W 1810  37.047  17.681   3.100
29386W        W 1811   4.151  37.581   2.496
29387W        W 1812   3.879   9.754  13.087
29388W        W 1813  33.309   2.931  14.303
29389W        W 1814  41.865  29.128   4.191
29390W        W 1815  40.833  43.203   2.305
29391W        W 1816  44.765  32.085   1.722
29392W        W 1817  13.563  28.586  13.454
29393W        W 1818  40.877  23.938  10.725
29394W        W 1819  43.187  17.696  12.654
29395W        W 1820  13.396  34.657   0.769
29396W        W 1821  43.505  15.667   4.063
29397W        W 1822  23.197   4.749   2.363
29398W        W 1823  15.018  42.986   2.222
29399W        W 1824  32.413  19.576   4.368
29400W        W 1825   5.483  21.609   4.348
29401W        W 1826   5.348  36.065   3.394
29402W        W 1827  36.354  28.386   3.304
29403W        W 1828  40.045  21.092   3.601
29404W        W 1829  13.160  17.313   1.876
29405W        W 1830  40.178  30.085   3.213
29406W        W 1831  26.260  43.923  14.334
29407W        W 1832  33.337  22.561  10.519
29408W        W 1833  33.160  24.576  12.515
29409W        W 1834   9.855   0.862   0.038
29410W        W 1835  38.954  33.284   3.723
29411W        W 1836  36.947  10.794  14.896
29412W        W 1837  39.528   5.329   4.599
29413W        W 1838  42.485  41.864   3.126
29414W        W 1839  40.546  22.847   2.731
29415W        W 1840   3.436   5.711  13.052
29416W        W 1841  35.600  43.376  12.040
29417W        W 1842   2.788  26.621  13.810
29418W        W 1843  15.638  10.440   3.262
29419W        W 1844  16.911  16.267  12.298
29420W        W 1845  23.683  19.645  14.366
29421W        W 1846  31.879  26.340   2.622
29422W        W 1847  11.633  20.195   4.648
29423W        W 1848  21.359  38.995  10.739
29424W        W 1849  42.698  22.238  13.755
29425W        W 1850  17.395  14.665   1.689
29426W        W 1851  43.303   8.034  11.608
29427W        W 1852  29.369  25.651  10.729
29428W        W 1853  13.673  19.730  14.536
29429W        W 1854   4.838  38.518  12.841
29430W        W 1855  39.577  39.146  11.695
29431W        W 1856  33.486  38.921   3.969
29432W        W 1857  17.318   2.544   1.860
29433W        W 1858  32.848  22.007   2.858
29434W        W 1859  11.549   2.363  14.558
29435W        W 1860   3.649  22.220   0.859
29436W        W 1861  16.202  30.136  14.450
29437W        W 1862   1.867  16.153   2.101
29438W        W 1863  23.077  35.006  13.681
29439W        W 1864  30.659  20.058  13.092
29440W        W 1865  29.006  21.758  14.883
29441W        W 1866  38.084   5.606  10.976
29442W        W 1867  16.360   4.318   1.333
29443W        W 1868  39.644   4.270   3.406
29444W        W 1869   5.732  39.124  12.621
29445W        W 1870  37.760  25.143   2.790
29446W        W 1871  14.027  26.655  14.299
29447W        W 1872   8.235  34.868  12.021
29448W        W 1873   3.767   7.429   2.659
29449W        W 1874   2.411   9.814   0.319
29450W        W 1875  30.508  34.577  14.603
29451W        W 1876  32.425  11.481  10.916
29452W        W 1877  41.534  11.557   0.406
29453W        W 1878  11.648  26.191  12.898
29454W        W 1879  36.067  24.970   2.571
29455W        W 1880  21.186  18.597  13.809
29456W        W 1881   6.930  15.815   3.698
29457W        W 1882  12.083  10.216  10.668
29458W        W 1883  35.523  24.969   0.313
29459W        W 1884  22.275  41.243   1.264
29460W        W 1885   2.430  23.140   1.926
29461W        W 1886   0.153  21.700   0.375
29462W        W 1887   9.192  37.045   2.064
29463W        W 1888  44.428  15.233   2.229
29464W        W 1889  14.786  27.581   1.265
29465W        W 1890   5.341  17.251   2.085
29466W        W 1891   3.139   5.839  11.925
29467W        W 1892   7.820  41.973  12.194
29468W        W 1893   5.389  15.571  14.883
29469W        W 1894  10.687  37.829   4.871
29470W        W 1895   1.671  18.079   3.250
29471W        W 1896  24.069  29.406  14.415
29472W        W 1897  26.120  37.715   0.843
29473W        W 1898   1.380   7.214  10.697
29474W        W 1899  18.298   5.228   1.846
29475W        W 1900  39.749  15.571  12.925
29476W        W 1901  32.414   1.951  11.595
29477W        W 1902  41.602  42.444  11.440
29478W        W 1903  17.361  39.300  12.451
29479W        W 1904   8.364  42.274  12.892
29480W        W 1905   8.725  17.258   2.426
29481W        W 1906  35.012  39.019   5.406
29482W        W 1907   0.271   1.083  14.251
29483W        W 1908  29.248   3.825   4.767
29484W        W 1909  25.605  11.212   1.835
29485W        W 1910  11.736   9.293  13.800
29486W        W 1911  19.071  39.608   4.172
29487W        W 1912  13.402  14.693  13.312
29488W        W 1913  35.971  39.039   3.330
29489W        W 1914  17.911  19.255  11.393
29490W        W 1915   3.337  28.220   0.319
29491W        W 1916  40.452  18.265   4.557
29492W        W 1917  32.634   8.350  12.931
29493W        W 1918  13.932  31.580   0.481
29494W        W 1919  14.771  26.019   0.171
29495W        W 1920  11.931  33.730  12.465
29496W        W 1921  31.369   0.475   0.309
29497W        W 1922  25.661  22.501   0.274
29498W        W 1923  10.408  26.830   0.016
29499W        W 1924   8.060   7.607   1.872
29500W        W 1925  12.800   3.437   2.206
29501W        W 1926  31.633  26.447   1.107
29502W        W 1927   3.969   7.738  13.651
29503W        W 1928  10.850  41.097  14.343
29504W        W 1929   1.476   9.318  14.504
29505W        W 1930  27.560  20.282   2.719
29506W        W 1931  41.781  11.706   1.779
29507W        W 1932  13.868  32.384   0.788
29508W        W 1933  13.194  26.714   0.471
29509W        W 1934  27.963   5.266  12.062
29510W        W 1935  19.793  31.476   1.310
29511W        W 1936  20.551  37.418   2.355
29512W        W 1937  28.063   9.813   1.850
29513W        W 1938  31.617   0.743   3.266
29514W        W 1939  12.720  43.309   1.750
29515W        W 1940  31.516   6.837   4.094
29516W        W 1941  30.785   2.240   3.709
29517W        W 1942  41.437  12.078   0.450
29518W        W 1943  26.842  44.592   0.074
29519W        W 1944   7.579  19.436   1.401
29520W        W 1945   6.383  25.816  12.907
29521W        W 1946  28.751   5.373   4.130
29522W        W 1947  10.661   7.415  13.946
29523W        W 1948  21.223   8.731  10.591
29524W        W 1949  31.644  22.130  10.961
29525W        W 1950  27.244  33.555   1.609
29526W        W 1951  12.382  28.445  14.017
29527W        W 1952   8.245  39.700   5.025
29528W        W 1953   7.428  34.821   0.404
29529W        W 1954  37.375  13.592  13.062
29530W        W 1955  12.587  18.709  10.781
29531W        W 1956  25.697  27.219  12.045
29532W        W 1957  44.477  29.894   2.872
29533W        W 1958  14.689   3.657   1.008
29534W        W 1959   6.277  14.063   0.681
29535W        W 1960  38.068  39.506  11.077
29536W        W 1961  34.848   6.372  14.806
29537W        W 1962  12.270   8.156   2.402
29538W        W 1963  18.616  18.594   4.402
29539W        W 1964   0.428  36.015   3.411
29540W        W 1965  33.746  28.146   2.185
29541W        W 1966   7.809   5.635   1.042
29542W        W 1967  15.074   4.329   3.583
29543W        W 1968   6.818  19.031   0.342
29544W        W 1969  14.605  38.343   4.486
29545W        W 1970  11.669  23.574  13.395
29546W        W 1971  43.556  32.333  13.370
29547W        W 1972  33.796  25.646  12.934
29548W        W 1973  34.387  20.684   0.481
29549W        W 1974   0.464  35.846  14.543
29550W        W 1975  42.329  25.277  13.037
29551W        W 1976  30.553  29.488   4.868
29552W        W 1977  19.763  37.850   1.389
29553W        W 1978  17.122  30.496  12.202
29554W        W 1979  37.651  35.076  13.400
29555W        W 1980  39.090  16.152   1.988
29556W        W 1981  34.620   2.860   1.761
29557W        W 1982   6.871   3.204   0.210
29558W        W 1983  16.848  35.512  14.889
29559W        W 1984  35.947  41.454   2.661
29560W        W 1985  14.806  36.327   3.079
29561W        W 1986  20.232   6.315   3.194
29562W        W 1987  18.209  13.544  10.714
29563W        W 1988  32.639  10.638  12.670
29564W        W 1989   7.592   3.444  14.800
29565W        W 1990  39.341  42.401   1.029
29566W        W 1991   5.875  41.452  14.694
29567W        W 1992  14.294   9.108   0.804
29568W        W 1993  24.312  36.998  11.166
29569W        W 1994  11.170  18.697   3.884
29570W        W 1995  34.978  36.363   0.268
29571W        W 1996  36.410  10.267   0.323
29572W        W 1997  35.019  16.049  14.054
29573W        W 1998  31.445  25.239  11.078
29574W        W 1999   3.245  22.595   2.737
29575W        W 2000  37.538  10.403  12.833
29576W        W 2001  42.066  16.187  13.314
29577W        W 2002   8.717  10.186  10.595
29578W        W 2003  27.905  15.581   2.283
29579W        W 2004  23.769  12.159   1.354
29580W        W 2005  27.611   1.939  12.882
29581W        W 2006  26.270  16.103   0.769
29582W        W 2007  24.127  12.077  11.542
29583W        W 2008  25.627  25.436  12.014
29584W        W 2009  44.265  16.761   3.457
29585W        W 2010  14.996  41.727   2.403
29586W        W 2011  30.750  40.553   0.831
29587W        W 2012  39.841   5.385  10.694
29588W        W 2013   7.227  38.800  13.843
29589W        W 2014  40.470   2.277   0.573
29590W        W 2015  41.159  21.183   5.070
29591W        W 2016  19.685  17.332  12.060
29592W        W 2017  44.286   6.773   2.840
29593W        W 2018  22.222  10.263   3.646
29594W        W 2019  12.179   0.565   3.325
29595W        W 2020  27.471  41.910   2.842
29596W        W 2021  30.012   0.931  10.627
29597W        W 2022  37.063   7.702  13.428
29598W        W 2023  14.701  27.752  14.522
29599W        W 2024  23.986  30.384  11.587
29600W        W 2025  11.132  39.329   4.229
29601W        W 2026  20.826  35.184  11.005
29602W        W 2027  11.843   0.030  14.990
29603W        W 2028  10.197  20.309  14.331
29604W        W 2029  14.096   7.941   3.800
29605W        W 2030  14.684  20.182   4.097
29606W        W 2031  25.287  41.050   0.609
29607W        W 2032  38.591   0.787   0.864
29608W        W 2033  24.665  36.991   1.469
29609W        W 2034  35.337  18.690  10.787
29610W        W 2035  16.021  41.181   4.528
29611W        W 2036  44.567   8.935  12.173
29612W        W 2037  15.693  44.353  13.925
29613W        W 2038  29.510   5.684  12.605
29614W        W 2039  12.277  17.313   1.768
29615W        W 2040  30.564   4.174  10.804
29616W        W 2041  23.274  11.467  10.825
29617W        W 2042  26.766  30.415  14.504
29618W        W 2043  32.914  41.592  11.870
29619W        W 2044  32.550   3.532   2.181
29620W        W 2045  10.621   1.410   2.173
29621W        W 2046   0.829  36.891  12.869
29622W        W 2047  34.982   5.224   0.159
29623W        W 2048  23.069  25.101  11.361
29624W        W 2049  22.078   2.810   2.280
29625W        W 2050  30.750   4.756  13.372
29626W        W 2051  33.851  31.433   4.271
29627W        W 2052  29.301  12.782  12.232
29628W        W 2053   9.847  13.302   1.890
29629W        W 2054   4.980  37.185  12.518
29630W        W 2055  27.198  21.228   1.870
29631W        W 2056  32.231  26.179  10.576
29632W        W 2057   6.383   7.614   0.252
29633W        W 2058  29.963  12.590  13.914
29634W        W 2059  43.847   1.936   3.730
29635W        W 2060   6.176  28.126  13.928
29636W        W 2061   3.321   6.754   3.616
29637W        W 2062  39.148   3.756   4.660
29638W        W 2063  36.639  34.900  10.656
29639W        W 2064  28.825   4.932   1.249
29640W        W 2065  32.960   7.773  13.068
29641W        W 2066  41.268  35.890  13.415
29642W        W 2067   0.240  32.030  14.753
29643W        W 2068  18.152  41.817  10.675
29644W        W 2069  35.608   2.744  12.498
29645W        W 2070  32.873   7.449  10.524
29646W        W 2071  20.792  28.920   0.281
29647W        W 2072  27.468  32.565   9.529
29648W        W 2073  15.101  26.558   0.653
29649W        W 2074  25.299  36.797   2.233
29650W        W 2075   5.257  40.112  11.629
29651W        W 2076  29.278  16.751  12.940
29652W        W 2077  15.792   6.717  12.083
29653W        W 2078  33.307  20.011  13.225
29654W        W 2079   6.781  37.253   4.709
29655W        W 2080   5.954  10.018   4.089
29656W        W 2081  30.045  27.126   1.037
29657W        W 2082  18.323  15.412   3.597
29658W        W 2083  20.199  32.069  10.506
29659W        W 2084   3.183  15.679  12.628
29660W        W 2085  44.002   2.684   2.960
29661W        W 2086  36.144  22.517  14.977
29662W        W 2087  12.841  40.621   0.434
29663W        W 2088  24.450  34.521   2.929
29664W        W 2089  10.859  36.654   0.087
29665W        W 2090  19.257  39.418  13.055
29666W        W 2091  39.298   7.488  11.042
29667W        W 2092   4.929  42.095   0.181
29668W        W 2093  44.926  16.712   2.285
29669W        W 2094   3.189  42.544  12.051
29670W        W 2095  28.075  24.299  14.024
29671W        W 2096   6.124  24.263  11.531
29672W        W 2097   0.082   0.491  14.894
29673W        W 2098  12.596  10.201   3.646
29674W        W 2099  10.088  21.429   4.145
29675W        W 2100  42.355  37.743  11.267
29676W        W 2101  14.382  24.261  10.102
29677W        W 2102  18.685  14.238  10.128
29678W        W 2103   5.244  21.202   1.956
29679W        W 2104  32.625  19.999  14.766
29680W        W 2105  25.469  42.736   2.248
29681W        W 2106  15.639  14.289   0.718
29682W        W 2107  38.884  35.697  11.226
29683W        W 2108  22.995  11.863   2.202
29684W        W 2109  43.297  29.624   1.663
29685W        W 2110   0.443  22.672   4.471
29686W        W 2111  12.916  24.630  11.051
29687W        W 2112  13.417  16.257   4.277
29688W        W 2113   1.369  31.660   2.782
29689W        W 2114  37.453  19.773   3.342
29690W        W 2115   4.858  31.716  10.235
29691W        W 2116  24.585  11.030  13.355
29692W        W 2117  21.906  12.770  12.534
29693W        W 2118  33.727  26.340  10.588
29694W        W 2119   0.313  38.314   3.701
29695W        W 2120  14.671  39.495   3.902
29696W        W 2121  35.439   7.570  13.127
29697W        W 2122  17.008  19.573  11.574
29698W        W 2123  33.516  37.616   1.705
29699W        W 2124  41.943  25.467   2.324
29700W        W 2125   3.464  10.805   4.012
29701W        W 2126  29.582  31.749  14.830
29702W        W 2127  44.512  16.195  14.291
29703W        W 2128  33.689  43.761  10.180
29704W        W 2129  29.994   0.691  12.363
29705W        W 2130   9.083   9.052   0.804
29706W        W 2131  43.244  42.200   3.653
29707W        W 2132  29.144  31.849   3.759
29708W        W 2133  42.337  14.581   4.122
29709W        W 2134  33.378  18.031   4.603
29710W        W 2135  19.617   2.697   4.148
29711W        W 2136  25.415   3.167   2.593
29712W        W 2137  23.790  22.241  10.423
29713W        W 2138   2.193  31.928   3.615
29714W        W 2139   3.245  16.520   1.468
29715W        W 2140  16.635   6.762   1.824
29716W        W 2141  11.841  17.181  11.517
29717W        W 2142  40.406  10.795  13.360
29718W        W 2143  13.528  22.940  12.779
29719W        W 2144  11.075  29.408  10.668
29720W        W 2145   3.331   7.083   2.315
29721W        W 2146   5.390  35.472  13.849
29722W        W 2147  35.097   0.645  14.749
29723W        W 2148  22.556  40.987   3.804
29724W        W 2149   5.622  16.730  12.536
29725W        W 2150  18.839   8.896  12.006
29726W        W 2151  15.656  33.869  13.996
29727W        W 2152  35.974  23.032  10.275
29728W        W 2153  37.764  39.175   0.476
29729W        W 2154  23.698  42.191   3.594
29730W        W 2155  15.853   3.371   4.181
29731W        W 2156  19.295  41.030  10.733
29732W        W 2157  42.111  44.400  10.338
29733W        W 2158  23.501  14.106  14.743
29734W        W 2159   3.450   5.166  12.995
29735W        W 2160   8.617  38.581  11.066
29736W        W 2161  15.776  33.042   4.170
29737W        W 2162  42.245  15.197   1.034
29738W        W 2163  30.230  26.218  10.794
29739W        W 2164  23.767  24.545  13.936
29740W        W 2165   6.508  20.825   1.795
29741W        W 2166  15.101  20.600  11.848
29742W        W 2167  30.644  32.182  14.333
29743W        W 2168   9.692  44.436  12.207
29744W        W 2169  39.402  30.287  12.464
29745W        W 2170   9.995  22.719  10.999
29746W        W 2171  11.717  37.975   1.184
29747W        W 2172  27.251   3.528  11.119
29748W        W 2173  30.448  11.375  12.555
29749W        W 2174  28.916   5.309  13.304
29750W        W 2175  16.112  40.471  13.169
29751W        W 2176  39.016   5.377   0.846
29752W        W 2177  18.008  23.065  14.992
29753W        W 2178  43.855  34.939   1.416
29754W        W 2179  41.747   6.394   2.398
29755W        W 2180  13.842  42.865  14.817
29756W        W 2181  14.667   8.242  13.884
29757W        W 2182  27.470  26.488   3.145
29758W        W 2183  10.990  38.893  14.831
29759W        W 2184  37.988  27.980  14.569
29760W        W 2185   8.464  25.308   0.723
29761W        W 2186  14.076  13.719   2.390
29762W        W 2187  18.956   3.277   3.782
29763W        W 2188  10.666  21.991   0.479
29764W        W 2189  40.547  36.040  13.861
29765W        W 2190  19.490  43.490  10.803
29766W        W 2191  23.322   5.284  11.542
29767W        W 2192  43.517   8.644   0.869
29768W        W 2193  29.134  29.093   2.424
29769W        W 2194   5.672  28.588   0.190
29770W        W 2195  35.587  26.548  13.956
29771W        W 2196  25.548  35.822  11.568
29772W        W 2197  21.573   8.797  14.343
29773W        W 2198  35.034  39.335  13.407
29774W        W 2199   6.807  44.325   0.511
29775W        W 2200  13.589  43.417   2.694
29776W        W 2201   7.222   7.087  11.546
29777W        W 2202   7.725  37.930   3.697
29778W        W 2203  41.331  18.948  11.167
29779W        W 2204   3.880   2.795   3.850
29780W        W 2205  11.033  24.197  11.291
29781W        W 2206  27.252  25.996  13.129
29782W        W 2207  30.437   5.879  13.165
29783W        W 2208  40.161  38.298  13.667
29784W        W 2209  26.019  13.454  11.569
29785W        W 2210  38.388  33.017   1.349
29786W        W 2211  32.233  26.856  14.057
29787W        W 2212  23.095  14.082   3.123
29788W        W 2213  35.675  13.048  14.354
29789W        W 2214  17.777  26.809   2.446
29790W        W 2215  38.175  35.786   2.233
29791W        W 2216  17.323  14.525   4.503
29792W        W 2217   1.873   0.862   4.448
29793W        W 2218  43.088  13.607   2.127
29794W        W 2219   8.707  15.294  10.479
29795W        W 2220   1.510  43.997   4.146
29796W        W 2221  34.039  25.176  12.781
29797W        W 2222  33.116  39.785   4.262
29798W        W 2223   9.095   8.368   3.712
29799W        W 2224  41.311   0.422  14.321
29800W        W 2225  14.756  27.828  12.123
29801W        W 2226   7.704  21.733   4.257
29802W        W 2227   8.826  43.426   1.788
29803W        W 2228  15.224  24.143   1.186
29804W        W 2229  32.575  13.909  13.784
29805W        W 2230  11.979   4.388  12.987
29806W        W 2231  25.066  31.138   4.972
29807W        W 2232  39.935  27.958  12.480
29808W        W 2233   5.807  19.933   2.330
29809W        W 2234  19.426   5.863   0.721
29810W        W 2235  38.764   5.952  14.874
29811W        W 2236  12.840  25.400   0.523
29812W        W 2237  11.132  33.833  10.728
29813W        W 2238  10.342  13.386   1.027
29814W        W 2239  16.753  38.987  12.026
29815W        W 2240  28.955  32.627   5.477
29816W        W 2241  18.182  41.587   4.437
29817W        W 2242  25.663  18.024   1.185
29818W        W 2243  29.069   0.372  11.975
29819W        W 2244  29.302  35.502   5.065
29820W        W 2245  13.599  30.093   0.453
29821W        W 2246   7.599  13.046   3.615
29822W        W 2247  32.689  10.011   0.374
29823W        W 2248   6.841  21.570   3.648
29824W        W 2249  15.254  35.943  10.884
29825W        W 2250  28.700  14.602  11.155
29826W        W 2251  18.253  43.831  13.600
29827W        W 2252  40.138  26.130   1.305
29828W        W 2253  26.873  11.876  11.863
29829W        W 2254   0.468  40.898   4.286
29830W        W 2255  18.387  14.145   2.602
29831W        W 2256  13.715  25.631  12.042
29832W        W 2257  10.120  42.351   2.285
29833W        W 2258  36.105   3.950  12.388
29834W        W 2259  38.422  29.369   0.044
29835W        W 2260  42.552  42.015   0.564
29836W        W 2261  14.278  28.566   3.698
29837W        W 2262  14.729  25.561  11.166
29838W        W 2263  19.757  13.719   1.861
29839W        W 2264  17.563  39.578  12.019
29840W        W 2265  14.836  13.212   2.340
29841W        W 2266  28.253   5.336   0.673
29842W        W 2267  44.803  18.584   0.192
29843W        W 2268  26.419  34.174   4.082
29844W        W 2269  38.410  41.166   4.624
29845W        W 2270  10.416  40.363  12.811
29846W        W 2271   8.916  38.905   0.124
29847W        W 2272  31.197  29.936   2.212
29848W        W 2273  27.629  42.956  12.863
29849W        W 2274  35.989   3.636  13.776
29850W        W 2275  38.392  29.690   2.192
29851W        W 2276  15.099  12.808  13.409
29852W        W 2277   0.216   8.124   3.301
29853W        W 2278  39.296  13.749   2.828
29854W        W 2279  24.295  13.809   4.612
29855W        W 2280  20.975  12.354   2.742
29856W        W 2281  26.548  41.304   2.400
29857W        W 2282   4.397  19.704   0.553
29858W        W 2283  28.073   6.162  10.286
29859W        W 2284  21.232  30.204   4.471
29860W        W 2285  10.155  11.629   1.271
29861W        W 2286  26.422   0.235  14.004
29862W        W 2287  36.977  38.617  13.277
29863W        W 2288  16.668  11.568  14.009
29864W        W 2289  39.421  22.494  11.440
29865W        W 2290  20.527  35.531   1.881
29866W        W 2291   6.606   5.908   3.485
29867W        W 2292  13.721  22.745   1.886
29868W        W 2293   7.460   8.812   1.972
29869W        W 2294  30.147  26.528   3.755
29870W        W 2295  11.271   6.626   1.823
29871W        W 2296  40.232   5.478  12.044
29872W        W 2297  20.528  17.848   0.274
29873W        W 2298  40.334  41.393  13.534
29874W        W 2299  12.848  39.386  12.791
29875W        W 2300  23.527   2.994   2.198
29876W        W 2301  37.839  19.724   1.239
29877W        W 2302  13.546  34.525  14.398
29878W        W 2303  13.524  36.563   2.727
29879W        W 2304  22.622   4.950   3.524
29880W        W 2305   6.490  15.545   4.034
29881W        W 2306  34.961   7.464   4.030
29882W        W 2307  27.772   2.313  11.135
29883W        W 2308  21.687   7.321  10.374
29884W        W 2309  28.226   1.399  10.761
29885W        W 2310  13.776  20.587  10.707
29886W        W 2311  14.688  42.057  14.859
29887W        W 2312  27.049  32.570  10.252
29888W        W 2313  35.112  25.734   3.711
29889W        W 2314  25.054  36.011   0.695
29890W        W 2315  16.767  12.123  10.906
29891W        W 2316  37.348   7.171  12.971
29892W        W 2317  41.918  23.140  11.127
29893W        W 2318  22.581  16.779  10.348
29894W        W 2319  43.543  35.583  12.854
29895W        W 2320   8.991   2.665   4.890
29896W        W 2321  31.818  30.478  14.316
29897W        W 2322  35.586  44.237   3.717
29898W        W 2323  39.103  18.019  11.500
29899W        W 2324  25.588  14.564   0.801
29900W        W 2325  16.643   8.884   4.552
29901W        W 2326   4.871   7.794   0.326
29902W        W 2327  44.811  28.653   2.712
29903W        W 2328  25.714   6.250   0.908
29904W        W 2329  41.608  10.402  12.002
29905W        W 2330  38.553  18.786   2.912
29906W        W 2331  31.115  38.094  11.418
29907W        W 2332  15.689   3.807   1.452
29908W        W 2333   6.423  12.356  14.401
29909W        W 2334  44.789   0.289   1.240
29910W        W 2335  27.033  10.080   0.805
29911W        W 2336  34.571  28.625  11.605
29912W        W 2337  34.098  41.271   0.925
29913W        W 2338  33.107  13.719   2.665
29914W        W 2339  16.719   6.408  10.930
29915W        W 2340  25.036  44.783  11.876
29916W        W 2341  26.504  30.490  13.000
29917W        W 2342  39.851  16.707  13.527
29918W        W 2343   3.778  37.960   1.007
29919W        W 2344  37.608  25.538  10.174
29920W        W 2345  40.891  34.693  11.466
29921W        W 2346  13.695  29.658   1.271
29922W        W 2347  33.346  29.074   4.738
29923W        W 2348   0.322   4.374   2.913
29924W        W 2349   4.673  10.592   1.395
29925W        W 2350   7.271  36.026  12.161
29926W        W 2351   3.703   7.943   4.127
29927W        W 2352   8.440  11.807   0.233
29928W        W 2353  21.258  17.613  13.246
29929W        W 2354  17.192   7.327   4.648
29930W        W 2355   2.215  13.868   1.867
29931W        W 2356  18.390  31.234   4.158
29932W        W 2357   1.902  24.512  14.776
29933W        W 2358   9.882   7.417  13.144
29934W        W 2359  35.890   9.281   3.086
29935W        W 2360  39.657  40.172  13.479
29936W        W 2361  13.544  20.030  14.088
29937W        W 2362  14.869  39.438  10.548
29938W        W 2363   6.702  36.280  10.719
29939W        W 2364  37.361  44.595  12.261
29940W        W 2365  10.962   7.698  10.654
29941W        W 2366  44.436  33.890   3.655
29942W        W 2367   8.385   9.648  11.943
29943W        W 2368  18.139  31.925   5.059
29944W        W 2369  21.202  28.481  11.134
29945W        W 2370  19.645   1.988  11.149
29946W        W 2371  14.720  25.997  10.911
29947W        W 2372  21.848   5.662  12.030
29948W        W 2373   4.165  43.340  14.207
29949W        W 2374  10.193  40.583   1.346
29950W        W 2375  20.098  10.068   0.825
29951W        W 2376  21.292  17.266   1.894
29952W        W 2377  34.475  24.656   1.167
29953W        W 2378   3.000  12.329  13.495
29954W        W 2379  16.771   3.902   4.151
29955W        W 2380  43.497  34.072   0.150
29956W        W 2381  14.333  42.745   3.096
29957W        W 2382  29.617   8.255   4.161
29958W        W 2383  22.923  30.194  11.461
29959W        W 2384  13.119  24.535   4.758
29960W        W 2385  34.478  40.495   3.388
29961W        W 2386   0.603  18.561   0.931
29962W        W 2387  31.109  34.565  13.201
29963W        W 2388  16.129  28.921   0.344
29964W        W 2389  32.812  17.425  14.076
29965W        W 2390  11.132  13.896  14.076
29966W        W 2391  14.209  35.864  13.114
29967W        W 2392  41.990  36.182  11.141
29968W        W 2393  18.078  37.422   3.592
29969W        W 2394  36.433  26.416  10.675
29970W        W 2395   9.042  14.870  10.464
29971W        W 2396  10.516   3.799  14.307
29972W        W 2397  38.369  37.684   3.160
29973W        W 2398  28.612   2.878  10.605
29974W        W 2399  35.550   7.269   3.288
29975W        W 2400   2.968   8.670   4.081
29976W        W 2401  42.466  38.887   3.231
29977W        W 2402  29.096  20.768   0.070
29978W        W 2403  13.697  37.534   0.396
29979W        W 2404  26.555  43.706  12.612
29980W        W 2405  11.684   0.482  14.754
29981W        W 2406  32.401  33.572   0.272
29982W        W 2407  28.008  27.807   3.907
29983W        W 2408  41.904  38.858   1.196
29984W        W 2409  19.014   6.612   0.955
29985W        W 2410  40.069  16.612   1.216
29986W        W 2411  27.975  19.797   1.818
29987W        W 2412  28.415   1.438  13.936
29988W        W 2413  24.813  25.405   3.817
29989W        W 2414  43.948   6.021   0.419
29990W        W 2415  29.852  25.587   2.189
29991W        W 2416  13.992  13.639  10.449
29992W        W 2417  10.670  12.297   0.748
29993W        W 2418  35.407  39.812   3.170
29994W        W 2419   7.767  24.149  13.418
29995W        W 2420  40.970  18.064   0.814
29996W        W 2421  23.385  24.319   1.910
29997W        W 2422  24.608   9.784  10.147
29998W        W 2423  14.678  20.011   3.122
29999W        W 2424  39.523  35.373   1.206
30000W        W 2425  15.242  32.647   1.814
30001W        W 2426  35.588   5.750   1.815
30002W        W 2427  35.591  19.228  11.528
30003W        W 2428  29.055  10.185   1.310
30004W        W 2429  30.378   4.192   1.723
30005W        W 2430  38.325  16.574   1.866
30006W        W 2431  36.420  22.829   5.010
30007W        W 2432  25.132  21.242   0.857
30008W        W 2433  44.988   3.362  12.491
30009W        W 2434   3.156   4.339   0.691
30010W        W 2435   5.875  14.792  13.299
30011W        W 2436  40.681  10.965  14.123
30012W        W 2437  20.945  12.616  12.501
30013W        W 2438   7.761  32.626  13.307
30014W        W 2439  28.799  24.476   3.016
30015W        W 2440  40.148   9.816   2.744
30016W        W 2441  31.285  25.036  10.606
30017W        W 2442  42.411   8.635  11.991
30018W        W 2443   5.871  24.652  14.326
30019W        W 2444  19.916   5.141   3.631
30020W        W 2445   1.309  20.144   3.190
30021W        W 2446  13.331  37.063   1.742
30022W        W 2447   9.552  16.653  10.754
30023W        W 2448  10.621  35.666   1.321
30024W        W 2449  16.985  34.930   1.742
30025W        W 2450   0.635  15.283  11.904
30026W        W 2451   7.992  37.873   4.130
30027W        W 2452  14.693   1.972   1.680
30028W        W 2453  43.993   5.110   0.811
30029W        W 2454  31.203  35.890  13.141
30030W        W 2455  35.381  13.712   4.391
30031W        W 2456  31.576   5.375   4.403
30032W        W 2457  15.589  37.486  13.075
30033W        W 2458  43.819  29.416  13.628
30034W        W 2459  39.988  38.101   2.183
30035W        W 2460  13.094  43.862  11.583
30036W        W 2461  40.412   2.050   3.260
30037W        W 2462   9.813   0.817   3.506
30038W        W 2463  44.492   3.262  13.903
30039W        W 2464  22.590  36.167  13.505
30040W        W 2465  39.609  29.470   1.471
30041W        W 2466  38.849  43.148  13.101
30042W        W 2467  36.607  43.291  12.813
30043W        W 2468  38.002  23.218  14.964
30044W        W 2469  13.114  18.240  13.999
30045W        W 2470   4.984   0.277  12.860
30046W        W 2471  38.936  25.187  10.281
30047W        W 2472  25.994  16.711   1.195
30048W        W 2473  10.104  31.515  14.480
30049W        W 2474  18.255  32.666  12.577
30050W        W 2475  23.805  37.910   0.787
30051W        W 2476  17.273  43.041   4.638
30052W        W 2477  42.285   5.831   3.694
30053W        W 2478  24.588  26.204   4.315
30054W        W 2479  43.825   9.475  12.417
30055W        W 2480  41.965  33.850   4.160
30056W        W 2481  24.515  33.144   1.138
30057W        W 2482  19.952  43.057  11.951
30058W        W 2483  33.349  31.203  13.748
30059W        W 2484  42.867  38.004   0.311
30060W        W 2485  14.128  24.576  14.354
30061W        W 2486  15.683   6.573  14.894
30062W        W 2487  16.726  15.062   0.671
30063W        W 2488  13.764  39.408  13.738
30064W        W 2489  22.571  26.597  12.490
30065W        W 2490   9.266  41.328  11.189
30066W        W 2491  27.290  38.269   2.648
30067W        W 2492  31.157  15.102  10.606
30068W        W 2493  15.855  13.165   2.342
30069W        W 2494  28.987  16.547   2.922
30070W        W 2495  28.419  24.935   3.743
30071W        W 2496  44.785   1.858  13.548
30072W        W 2497  26.932  25.705   1.398
30073W        W 2498  29.949  17.227   4.528
30074W        W 2499  14.098   8.741  11.225
30075W        W 2500  25.050  30.689  11.457
30076W        W 2501  40.543  43.735  12.348
30077W        W 2502  32.520   5.296  13.656
30078W        W 2503  19.825  19.128   4.046
30079W        W 2504  10.075  30.949  12.635
30080W        W 2505  43.481  37.479   3.213
30081W        W 2506  10.939  13.290  14.976
30082W        W 2507  35.795   2.188   4.138
30083W        W 2508   5.509  25.368  12.820
30084W        W 2509  15.271  17.615  10.631
30085W        W 2510  23.122  25.728  12.543
30086W        W 2511  22.730  18.719   1.641
30087W        W 2512  42.813   2.867   2.260
30088W        W 2513   9.352   3.750  11.979
30089W        W 2514   9.080   5.882   0.954
30090W        W 2515  39.806  40.538   2.263
30091W        W 2516   7.777  25.050  11.268
30092W        W 2517  21.703  34.297   0.040
30093W        W 2518  39.149   1.855   1.844
30094W        W 2519  39.398   3.950   1.316
30095W        W 2520  24.144  36.498  11.078
30096W        W 2521  22.650  39.451  10.741
30097W        W 2522  24.556   0.856   2.683
30098W        W 2523  18.691  38.998  14.435
30099W        W 2524  18.223   3.522   4.215
30100W        W 2525  24.681  17.764   2.906
30101W        W 2526   9.752  20.455  14.550
30102W        W 2527   0.256  11.525  12.045
30103W        W 2528   6.901  36.109   2.341
30104W        W 2529  30.460   7.895   1.434
30105W        W 2530   6.157  10.340  12.195
30106W        W 2531  20.085  21.634   1.844
30107W        W 2532  20.959  11.596   0.433
30108W        W 2533  32.579  30.769   2.426
30109W        W 2534  32.320  24.626   2.730
30110W        W 2535  35.599  40.805  12.835
30111W        W 2536  25.484  27.962  11.131
30112W        W 2537   9.662  35.168  11.087
30113W        W 2538  30.027  22.526   0.397
30114W        W 2539  20.559  30.911  14.472
30115W        W 2540  10.980  20.575  13.401
30116W        W 2541   7.372  15.748  12.927
30117W        W 2542  22.829  43.766   0.104
30118W        W 2543  28.387  30.627   1.912
30119W        W 2544   6.411  26.933  13.382
30120W        W 2545   5.663  44.029   2.802
30121W        W 2546  13.211   0.738   2.982
30122W        W 2547  36.009  13.601  10.402
30123W        W 2548  36.048  37.308   4.879
30124W        W 2549   1.424  15.650   4.183
30125W        W 2550  42.930   5.805   4.302
30126W        W 2551  37.741  15.992  11.563
30127W        W 2552  26.144  40.750   3.580
30128W        W 2553   0.775  39.817  12.485
30129W        W 2554   8.841   1.456   3.425
30130W        W 2555  22.950  33.271  12.476
30131W        W 2556   0.316  28.727  12.136
30132W        W 2557  41.692  44.881   3.754
30133W        W 2558  23.697  16.247   1.684
30134W        W 2559   2.447  34.845   2.818
30135W        W 2560  11.685   2.190   4.679
30136W        W 2561  40.001  35.611   0.458
30137W        W 2562  19.781  20.481   2.795
30138W        W 2563  20.653  33.920  12.322
30139W        W 2564  20.652  12.554   1.304
30140W        W 2565  27.254  37.599  13.817
30141W        W 2566  26.211  35.619  13.226
30142W        W 2567  20.795  14.706  13.240
30143W        W 2568  12.610  37.372   0.382
30144W        W 2569  26.371  31.430  14.816
30145W        W 2570  29.678  24.959   0.479
30146W        W 2571   0.815  31.594   1.784
30147W        W 2572  25.914  25.223  13.743
30148W        W 2573  25.640  20.495  11.040
30149W        W 2574   4.816   6.690  13.861
30150W        W 2575  27.690  42.379  14.387
30151W        W 2576  22.980  38.844  10.710
30152W        W 2577  19.147   6.159  10.653
30153W        W 2578   2.774  10.536  13.454
30154W        W 2579  44.884  11.212   3.616
30155W        W 2580   9.967   7.214   1.835
30156W        W 2581   6.828  42.892  10.740
30157W        W 2582  10.783   9.224  13.812
30158W        W 2583  30.536  37.374   0.401
30159W        W 2584  32.336  26.779   4.104
30160W        W 2585  44.775  11.394   2.693
30161W        W 2586  26.312  24.498   0.909
30162W        W 2587  18.137   3.483  12.430
30163W        W 2588  11.260  14.263   1.865
30164W        W 2589  28.516  36.179  14.887
30165W        W 2590  12.780  35.148  13.917
30166W        W 2591   1.288  26.906   3.030
30167W        W 2592  40.956  22.933  12.115
30168W        W 2593  36.528  31.157   0.819
30169W        W 2594  10.831  29.021  14.115
30170W        W 2595  36.677  32.961   4.118
30171W        W 2596  42.164  14.177   2.941
30172W        W 2597  33.379  44.266  10.153
30173W        W 2598  10.062  19.627   0.230
30174W        W 2599   0.587  26.494  14.090
30175W        W 2600  22.156  44.475   2.179
30176W        W 2601  10.341   2.248   0.962
30177W        W 2602  19.280  23.688  12.624
30178W        W 2603  10.298   6.102  10.614
30179W        W 2604  33.601  14.890   4.548
30180W        W 2605  32.947   0.689   2.335
30181W        W 2606   1.247  16.858  12.562
30182W        W 2607  38.817   5.489   4.141
30183W        W 2608   9.916  21.239   0.860
30184W        W 2609  30.231  38.905   5.183
30185W        W 2610  19.704  22.015   3.821
30186W        W 2611  23.147   4.682  12.829
30187W        W 2612  42.106   3.934   1.463
30188W        W 2613  14.060   3.226   1.920
30189W        W 2614  19.600  28.956   1.506
30190W        W 2615  42.317  12.222   1.271
30191W        W 2616  30.205  16.085  13.483
30192W        W 2617   4.468  11.265  14.881
30193W        W 2618   1.356   3.851   0.503
30194W        W 2619  40.338  10.888   4.266
30195W        W 2620  20.283  32.749  12.474
30196W        W 2621  42.894   0.056   4.763
30197W        W 2622  23.400  11.865   3.658
30198W        W 2623  35.608  37.951   3.848
30199W        W 2624   1.709   2.737   4.247
30200W        W 2625  34.539  27.973   1.177
30201W        W 2626  20.104   0.508   2.780
30202W        W 2627  32.023  40.265   4.133
30203W        W 2628  23.722  25.680  13.582
30204W        W 2629  35.019  13.582   2.811
30205W        W 2630   4.019   3.727  10.458
30206W        W 2631  16.282   8.746   2.423
30207W        W 2632  14.259   4.509  14.375
30208W        W 2633  25.388   0.732   0.209
30209W        W 2634  44.812  30.305  12.437
30210W        W 2635  40.041  44.242  13.415
30211W        W 2636   1.093  32.171  11.471
30212W        W 2637  13.172  11.204   2.849
30213W        W 2638  34.218  12.555   4.520
30214W        W 2639  39.406  43.457  12.547
30215W        W 2640   4.967  31.174   0.734
30216W        W 2641  39.289   8.403   0.844
30217W        W 2642  42.419   8.774   2.909
30218W        W 2643  13.546  36.537  12.165
30219W        W 2644  13.772  41.383  10.616
30220W        W 2645  21.156  39.819  13.965
30221W        W 2646  19.695  25.147  11.982
30222W        W 2647  25.121  33.103  11.567
30223W        W 2648  14.130  41.397   4.869
30224W        W 2649  18.347  27.969   4.558
30225W        W 2650  20.477  18.788   4.509
30226W        W 2651   7.726  12.169  14.764
30227W        W 2652  31.266  18.224   3.694
30228W        W 2653   2.664  22.260   2.379
30229W        W 2654   0.975  37.303   0.544
30230W        W 2655  31.552   5.895   1.887
30231W        W 2656  32.241  28.983   2.354
30232W        W 2657   0.954  10.568   3.214
30233W        W 2658  15.655  14.091  13.615
30234W        W 2659  12.170  39.387   4.011
30235W        W 2660   3.505  26.849  12.974
30236W        W 2661  41.946   1.198   1.968
30237W        W 2662  40.046  30.382  12.062
30238W        W 2663  43.859  22.157  14.773
30239W        W 2664  33.750  11.115   0.394
30240W        W 2665  41.001  34.675  13.693
30241W        W 2666  21.605  26.262   1.379
30242W        W 2667  11.180   7.451  13.847
30243W        W 2668  39.398  29.018   0.025
30244W        W 2669  39.433  26.954   3.417
30245W        W 2670   5.689  18.495   3.144
30246W        W 2671  20.394   3.598  10.720
30247W        W 2672  30.963  41.914   3.980
30248W        W 2673  12.321  43.908  11.140
30249W        W 2674   4.682   9.156  13.899
30250W        W 2675  17.729  24.342  12.512
30251W        W 2676  27.079  18.697   2.112
30252W        W 2677  16.685  25.321  13.864
30253W        W 2678  37.247  23.291  10.576
30254W        W 2679   8.891  40.441   1.228
30255W        W 2680   8.193   1.413   0.013
30256W        W 2681  11.077  22.108   1.321
30257W        W 2682   0.944  21.551   1.865
30258W        W 2683  30.132   0.277   0.902
30259W        W 2684  31.792  18.352  12.417
30260W        W 2685  26.613   3.465  14.153
30261W        W 2686  26.601  31.470   2.558
30262W        W 2687   0.829  10.020   3.247
30263W        W 2688  26.450  22.759   5.076
30264W        W 2689   2.506  43.254   3.494
30265W        W 2690  26.133  16.582  11.053
30266W        W 2691   9.772   3.986  12.197
30267W        W 2692  41.188  37.227  11.506
30268W        W 2693  16.216  25.731  12.474
30269W        W 2694   3.489  44.969   0.219
30270W        W 2695  26.532   9.855  12.628
30271W        W 2696  43.799   7.003  13.100
30272W        W 2697  12.659  10.706   1.909
30273W        W 2698  24.496   9.109  13.369
30274W        W 2699  29.460  42.469  14.228
30275W        W 2700  41.251  10.667  12.341
30276W        W 2701  15.781   7.713   1.341
30277W        W 2702  44.884  42.264  14.929
30278W        W 2703  12.679  27.991  10.752
30279W        W 2704  29.038  21.723   1.739
30280W        W 2705  24.005  43.978  12.354
30281W        W 2706  19.310  25.213  12.508
30282W        W 2707  30.415  19.489  12.507
30283W        W 2708   8.643   8.657   0.020
30284W        W 2709  44.811  32.609  13.863
30285W        W 2710  17.189   1.315  10.239
30286W        W 2711  42.832  13.718   0.922
30287W        W 2712  24.912   2.800   0.359
30288W        W 2713  10.736  36.965  13.720
30289W        W 2714  21.722   3.497   0.114
30290W        W 2715   2.436   6.380   0.692
30291W        W 2716   3.912  20.480  12.909
30292W        W 2717  37.061  29.454   1.336
30293W        W 2718  31.919  42.479  11.955
30294W        W 2719   4.321  12.793  13.531
30295W        W 2720   0.644  44.056   3.743
30296W        W 2721  22.104  22.520   3.318
30297W        W 2722  27.634  31.058  10.772
30298W        W 2723  37.080  23.978   2.736
30299W        W 2724   7.596   0.798  13.480
30300W        W 2725  44.978   4.327   2.545
30301W        W 2726  19.748  28.993   4.333
30302W        W 2727  37.705  25.498   1.656
30303W        W 2728   2.568  33.448   1.400
30304W        W 2729  22.494  33.502  12.363
30305W        W 2730   8.239  43.753   0.491
30306W        W 2731   7.551  23.221  14.493
30307W        W 2732  26.915  13.199   3.223
30308W        W 2733  29.998   0.464   3.367
30309W        W 2734  12.095  32.887  10.401
30310W        W 2735   5.660  34.251  12.117
30311W        W 2736  40.326  21.344  11.520
30312W        W 2737  41.431  33.001  12.986
30313W        W 2738   9.758  18.104  12.972
30314W        W 2739  44.434  14.514  14.548
30315W        W 2740  16.835  42.452   4.319
30316W        W 2741  30.767  23.687  13.505
30317W        W 2742  42.232  30.548  14.771
30318W        W 2743  19.615   2.766   3.295
30319W        W 2744  44.404  36.247   4.217
30320W        W 2745  21.530  14.197  12.381
30321W        W 2746   2.872  38.712  13.886
30322W        W 2747  27.435  12.976  10.553
30323W        W 2748  28.033  12.230  13.989
30324W        W 2749   8.449  30.018   1.286
30325W        W 2750  42.574   4.361  13.329
30326W        W 2751  19.130  25.115  12.022
30327W        W 2752  22.102  15.967  11.327
30328W        W 2753  30.379  20.049   0.360
30329W        W 2754  40.936  13.948  14.825
30330W        W 2755  42.526  26.076  13.351
30331W        W 2756  43.827  12.198   0.285
30332W        W 2757  30.366  10.860  12.929
30333W        W 2758  42.061  39.383   2.607
30334W        W 2759  36.535  27.627  11.628
30335W        W 2760   4.046  10.867  12.412
30336W        W 2761  39.528  32.109   2.223
30337W        W 2762  22.541  36.609   0.449
30338W        W 2763  29.057  25.008  14.365
30339W        W 2764  37.463  31.606  14.505
30340W        W 2765   8.388  32.825  11.520
30341W        W 2766  43.370   9.906  13.489
30342W        W 2767   0.509  39.667   0.323
30343W        W 2768   7.414  18.098  11.971
30344W        W 2769  32.881  15.534   3.329
30345W        W 2770   5.731  43.773  13.402
30346W        W 2771  13.379  10.756  13.357
30347W        W 2772  35.421  33.142   2.824
30348W        W 2773  14.615  26.109   4.568
30349W        W 2774  25.675   3.397   2.187
30350W        W 2775  35.058  36.486   0.769
30351W        W 2776  29.855  42.814   4.107
30352W        W 2777  44.939  11.339  10.541
30353W        W 2778   3.829  17.058  12.265
30354W        W 2779  12.454  16.061   1.291
30355W        W 2780  11.164  38.026   4.693
30356W        W 2781  41.587  34.511  11.233
30357W        W 2782  20.684  39.840  13.753
30358W        W 2783  30.909   1.857  14.380
30359W        W 2784  24.453  23.288   1.233
30360W        W 2785  14.306  38.500  13.542
30361W        W 2786  18.272  18.768  12.140
30362W        W 2787  19.667  26.205   4.367
30363W        W 2788  22.753  44.501  13.371
30364W        W 2789  20.903  43.470   1.227
30365W        W 2790  41.416   9.657   0.991
30366W        W 2791  14.621  40.248   0.785
30367W        W 2792   7.658   5.710   3.199
30368W        W 2793  23.749  13.629   1.503
30369W        W 2794   8.232   8.160  11.131
30370W        W 2795  28.776  30.049   1.868
30371W        W 2796   6.429  13.372   3.469
30372W        W 2797  37.403  15.053   1.996
30373W        W 2798  33.650  20.596  13.900
30374W        W 2799   5.157   5.218  13.843
30375W        W 2800  27.609  32.643   2.903
30376W        W 2801  14.249   1.887   1.419
30377W        W 2802  16.134   8.878  13.930
30378W        W 2803  16.092   7.690   3.898
30379W        W 2804  29.582   6.658   0.311
30380W        W 2805  23.140  31.857  10.886
30381W        W 2806   9.916  41.527   1.303
30382W        W 2807   2.849  26.733   1.646
30383W        W 2808  40.539  32.166   2.163
30384W        W 2809   3.052  31.035  11.000
30385W        W 2810   4.943  36.457  11.649
30386W        W 2811  41.786   9.025  11.036
30387W        W 2812  11.489   9.064  14.469
30388W        W 2813  41.871   2.140  14.330
30389W        W 2814  39.224  15.684  13.752
30390W        W 2815  19.076   5.346   1.392
30391W        W 2816   2.941  36.939  13.860
30392W        W 2817   5.916   1.022   4.900
30393W        W 2818   5.404  17.736  12.978
30394W        W 2819  11.332   0.766   2.449
30395W        W 2820  15.730  22.613  13.351
30396W        W 2821  33.029  43.981  14.783
30397W        W 2822  26.045   8.101   0.815
30398W        W 2823  42.774  11.299   2.358
30399W        W 2824  42.489  42.898   0.698
30400W        W 2825   2.842  27.471   3.339
30401W        W 2826   1.689  11.161  11.513
30402W        W 2827  21.001   7.240  13.113
30403W        W 2828  44.529  29.489  13.058
30404W        W 2829   2.894   2.774  12.915
30405W        W 2830  30.965  28.477   4.315
30406W        W 2831  25.151  15.279  11.233
30407W        W 2832  43.553  41.027  11.165
30408W        W 2833  41.257  29.661  12.998
30409W        W 2834  14.239  26.110   0.353
30410W        W 2835  17.371  25.592  14.083
30411W        W 2836  21.685  30.463   4.567
30412W        W 2837  13.623  38.364   3.412
30413W        W 2838  37.636   8.808   1.758
30414W        W 2839  23.939  19.575  11.103
30415W        W 2840  39.868  15.346   2.878
30416W        W 2841  18.321  15.601  11.147
30417W        W 2842  20.118  36.651  13.957
30418W        W 2843  29.946  18.083   5.469
30419W        W 2844  38.924   7.800  13.119
30420W        W 2845  10.260  15.047  13.039
30421W        W 2846  36.751  16.718  14.070
30422W        W 2847   6.372  13.782   3.867
30423W        W 2848   0.243  39.960  12.462
30424W        W 2849  10.541  40.640  10.724
30425W        W 2850  37.494   0.730   3.613
30426W        W 2851  35.828   6.270   2.655
30427W        W 2852  11.397   0.771  13.876
30428W        W 2853  40.119   7.030  10.595
30429W        W 2854  18.532  18.205  12.857
30430W        W 2855  33.568  32.353  10.727
30431W        W 2856  34.465   9.517   4.886
30432W        W 2857  34.704  13.273  13.412
30433W        W 2858   8.934  11.672  11.222
30434W        W 2859  39.847  25.642   1.516
30435W        W 2860  26.862  31.689  10.857
30436W        W 2861  32.407  44.780  11.890
30437W        W 2862  37.105   2.283  10.785
30438W        W 2863  21.633   1.235   0.657
30439W        W 2864  43.434  43.520  13.470
30440W        W 2865  36.171  18.098   3.883
30441W        W 2866  36.054   1.927  12.258
30442W        W 2867  15.356  10.323  14.184
30443W        W 2868  41.512  42.125  10.650
30444W        W 2869  19.057  29.363  12.123
30445W        W 2870  44.363  20.201  10.542
30446W        W 2871   1.444  34.480  12.931
30447W        W 2872   3.340   3.241  10.620
30448W        W 2873  36.655  19.700   4.580
30449W        W 2874  17.847  39.996   2.403
30450W        W 2875  40.377  23.015  12.402
30451W        W 2876  23.045  23.677   3.106
30452W        W 2877  16.685  18.474  14.356
30453W        W 2878  28.923  24.603  14.075
30454W        W 2879   4.641  40.822  10.693
30455W        W 2880  23.827  12.693  12.934
30456W        W 2881  43.899  42.773   4.678
30457W        W 2882  28.610   4.778  12.608
30458W        W 2883  10.744   2.878   4.214
30459W        W 2884  44.019  44.536  11.834
30460W        W 2885   3.749  34.420  11.588
30461W        W 2886  10.241  32.938   0.677
30462W        W 2887  11.121   1.335   0.443
30463W        W 2888  34.329   4.991   3.282
30464W        W 2889  43.984   9.682   1.811
30465W        W 2890  19.813   4.810  14.773
30466W        W 2891  32.441  38.250   4.742
30467W        W 2892  23.907  21.153  14.303
30468W        W 2893  26.008  12.803   4.923
30469W        W 2894  19.150   5.167   3.132
30470W        W 2895   7.792  10.465   3.616
30471W        W 2896  20.578  17.177  12.946
30472W        W 2897   3.244  43.807   1.845
30473W        W 2898  24.386  40.694  13.497
30474W        W 2899  31.980  44.491  11.987
30475W        W 2900  36.448  34.589   5.151
30476W        W 2901   3.713  32.264  11.195
30477W        W 2902  43.918  33.380   3.378
30478W        W 2903  23.743   1.896  13.300
30479W        W 2904  38.670  31.604  11.210
30480W        W 2905  27.195   0.348   1.714
30481W        W 2906  16.558   2.142   4.639
30482W        W 2907  32.532  31.338   0.793
30483W        W 2908  10.377  41.922  14.318
30484W        W 2909   1.426  19.447  11.489
30485W        W 2910   4.014  18.311  13.453
30486W        W 2911  28.173  12.872  10.976
30487W        W 2912  12.083  25.980  11.630
30488W        W 2913  15.592  28.015   3.293
30489W        W 2914  23.519  27.063  11.584
30490W        W 2915  23.676  26.664  13.975
30491W        W 2916  23.098  12.102  12.864
30492W        W 2917  16.619   6.967   2.716
30493W        W 2918  31.530   8.856   4.194
30494W        W 2919  29.993   0.502   4.314
30495W        W 2920  24.080  19.804  14.732
30496W        W 2921  31.654  39.805   1.048
30497W        W 2922  29.315   6.459  14.752
30498W        W 2923  36.627  41.336   3.829
30499W        W 2924  11.343  44.502   4.158
30500W        W 2925  18.499  39.957  12.536
30501W        W 2926  16.108  21.684  14.547
30502W        W 2927   8.670  15.353  11.881
30503W        W 2928  15.665  15.056  14.266
30504W        W 2929   8.806  40.369  14.758
30505W        W 2930  10.131   4.852  11.188
30506W        W 2931  23.874  41.941   3.168
30507W        W 2932  38.430  13.240  11.613
30508W        W 2933   6.649  39.338  10.657
30509W        W 2934   4.643   1.386   1.244
30510W        W 2935   9.839  32.624   1.690
30511W        W 2936   9.543  40.535   3.234
30512W        W 2937  33.870   2.948  11.589
30513W        W 2938  38.251  44.964  12.366
30514W        W 2939  43.860  22.334   1.779
30515W        W 2940  24.584   9.487  10.571
30516W        W 2941  10.789  33.583  10.098
30517W        W 2942  37.311  25.926  10.374
30518W        W 2943  19.769  13.235  14.866
30519W        W 2944  28.199   3.853   3.557
30520W        W 2945  12.217  19.515   4.749
30521W        W 2946   6.967  12.323  14.377
30522W        W 2947  33.023   9.506  14.405
30523W        W 2948  25.924  18.682  13.365
30524W        W 2949  30.390   9.873  14.546
30525W        W 2950  11.190   0.939  12.595
30526W        W 2951  40.677  40.243  13.533
30527W        W 2952   7.491  15.604   4.585
30528W        W 2953  39.984  26.049  11.063
30529W        W 2954  11.255  18.267   3.079
30530W        W 2955  26.686  11.363  14.004
30531W        W 2956  15.132  25.924  14.003
30532W        W 2957  33.080   0.357  11.517
30533W        W 2958  14.887  34.522   2.918
30534W        W 2959  14.336  19.097   2.674
30535W        W 2960   9.916  15.297   2.417
30536W        W 2961  38.362  17.787  11.785
30537W        W 2962  19.011  38.316  10.743
30538W        W 2963  13.822  43.690   3.730
30539W        W 2964  28.415  24.987   2.745
30540W        W 2965  32.736   3.260   2.581
30541W        W 2966  42.946   2.838  14.370
30542W        W 2967  43.698  29.536  11.948
30543W        W 2968  31.589  27.716   4.150
30544W        W 2969   5.938  29.035   0.382
30545W        W 2970  23.189   8.478   1.390
30546W        W 2971   7.268  21.771   0.265
30547W        W 2972  30.649   4.972   2.155
30548W        W 2973  40.905  38.785   4.482
30549W        W 2974  37.456  23.673  14.964
30550W        W 2975  37.856  25.603  11.986
30551W        W 2976  24.775  15.572   1.395
30552W        W 2977   8.227  23.578  10.994
30553W        W 2978  41.208  28.038  11.724
30554W        W 2979  38.529  22.698   3.905
30555W        W 2980   8.153  21.188  14.904
30556W        W 2981  27.116  10.836  12.983
30557W        W 2982  31.461  33.908   2.829
30558W        W 2983   7.518  13.145   1.218
30559W        W 2984   4.315  11.612   4.167
30560W        W 2985   0.764  23.658  12.977
30561W        W 2986  42.382  28.467   4.594
30562W        W 2987  19.164   6.957   4.775
30563W        W 2988  21.755  32.235  11.108
30564W        W 2989  20.002   2.521  11.997
30565W        W 2990   2.293  34.214   2.029
30566W        W 2991  19.045  14.454  14.970
30567W        W 2992  44.773  19.766   5.005
30568W        W 2993  25.911  35.859   4.661
30569W        W 2994  37.377  42.777   1.981
30570W        W 2995   2.870  22.274   2.864
30571W        W 2996  24.015  39.585  12.032
30572W        W 2997  22.747  13.817  10.613
30573W        W 2998  17.316  44.808   4.623
30574W        W 2999  25.356  33.424   1.422
30575W        W 3000  33.900  33.081   1.517
30576W        W 3001   0.009   3.951   5.072
30577W        W 3002   4.367  10.931  13.848
30578W        W 3003   7.863  17.421   5.242
30579W        W 3004  17.235   0.382   3.691
30580W        W 3005   5.847  23.403  11.722
30581W        W 3006  10.718  37.889  13.415
30582W        W 3007  43.518   4.246  14.782
30583W        W 3008  36.214  31.154   1.260
30584W        W 3009  34.968  29.121   3.117
30585W        W 3010  19.259  16.319  10.856
30586W        W 3011  42.311  43.637  14.286
30587W        W 3012  11.088  37.547  14.294
30588W        W 3013  29.557  44.070   1.414
30589W        W 3014  21.308  39.360  13.762
30590W        W 3015  26.281  22.141  14.826
30591W        W 3016  12.132  22.748  11.782
30592W        W 3017   2.726  13.877  14.280
30593W        W 3018  43.028   3.068   2.694
30594W        W 3019  15.306  18.797   4.480
30595W        W 3020   5.200  36.911   1.400
30596W        W 3021  31.273   4.174   2.223
30597W        W 3022   9.412  22.574   2.414
30598W        W 3023  17.282  15.352  12.078
30599W        W 3024  27.532  26.707  13.540
30600W        W 3025  34.990  36.412  11.947
30601W        W 3026  34.711  30.693   2.336
30602W        W 3027  11.873   3.889  11.543
30603W        W 3028  26.234  26.696  14.931
30604W        W 3029  40.582  42.930   1.858
30605W        W 3030  22.613  22.615   4.607
30606W        W 3031  38.022  16.376   1.068
30607W        W 3032   4.743  27.912   0.489
30608W        W 3033  38.623  10.273   2.411
30609W        W 3034   3.256  22.547   1.826
30610W        W 3035  25.554  11.133  10.623
30611W        W 3036  33.910  40.344   0.080
30612W        W 3037  12.262   0.775   1.311
30613W        W 3038   2.289  26.186  11.549
30614W        W 3039  16.215   8.106   0.299
30615W        W 3040  37.477  43.041   5.029
30616W        W 3041  14.408  20.505  13.126
30617W        W 3042  30.671  16.887  14.003
30618W        W 3043  30.664  19.744  11.513
30619W        W 3044   5.704   8.210   3.020
30620W        W 3045  41.057  41.893  14.911
30621W        W 3046  22.638  39.584  14.371
30622W        W 3047  13.222  16.391  13.115
30623W        W 3048  10.368   4.440  12.940
30624W        W 3049   3.195   0.771   3.648
30625W        W 3050   1.668  37.316   3.171
30626W        W 3051   5.769   3.983   0.551
30627W        W 3052  33.023   6.751   4.207
30628W        W 3053  17.800  22.068  10.561
30629W        W 3054  43.940  43.299   4.603
30630W        W 3055  16.788  18.696  13.907
30631W        W 3056  15.909   9.933  10.099
30632W        W 3057  10.628   4.479   0.479
30633W        W 3058  17.820  22.500   2.775
30634W        W 3059  10.679  39.373  13.308
30635W        W 3060  15.929  29.475   0.521
30636W        W 3061   2.804  32.697  13.075
30637W        W 3062  16.044  35.872   0.431
30638W        W 3063   4.945  13.429  13.042
30639W        W 3064  37.030  18.240  13.966
30640W        W 3065  42.541  17.775  11.501
30641W        W 3066  16.106  34.500  11.640
30642W        W 3067  15.120   4.290   0.525
30643W        W 3068  20.683  29.159  12.012
30644W        W 3069  11.853  26.109  14.784
30645W        W 3070  15.915  17.693   2.097
30646W        W 3071  30.862  16.597  11.006
30647W        W 3072   7.601  15.875   0.135
30648W        W 3073  23.145  24.798  14.113
30649W        W 3074  28.602   3.423  13.923
30650W        W 3075  31.449  19.982  11.569
30651W        W 3076   3.362  31.385  13.608
30652W        W 3077  34.361   6.352  14.648
30653W        W 3078  42.759  21.760   3.683
30654W        W 3079  10.121  43.268  12.455
30655W        W 3080  11.376   5.488   4.972
30656W        W 3081  37.979  37.816  13.454
30657W        W 3082  37.853   7.055  13.836
30658W        W 3083  38.994  12.519   4.655
30659W        W 3084  10.265  33.860   1.130
30660W        W 3085  30.115   9.216   4.664
30661W        W 3086  34.909  39.035  12.107
30662W        W 3087  27.880  14.588  14.862
30663W        W 3088  40.869  42.466  10.510
30664W        W 3089  11.924   4.925   2.121
30665W        W 3090  20.950   4.247   4.113
30666W        W 3091  23.954  34.471  14.786
30667W        W 3092   1.236  11.356  10.650
30668W        W 3093  40.129  19.686  13.387
30669W        W 3094  14.762  19.566  11.555
30670W        W 3095  26.264  32.047  14.361
30671W        W 3096  13.060  10.583  13.731
30672W        W 3097  27.151   3.285   3.124
30673W        W 3098  35.560  18.483  12.069
30674W        W 3099  32.647   3.944  14.985
30675W        W 3100   0.462  15.208  13.836
30676W        W 3101  28.603  25.495  14.902
30677W        W 3102  40.892   2.657  14.947
30678W        W 3103  33.494   5.019  11.153
30679W        W 3104   6.393  14.540   1.840
30680W        W 3105  34.132  36.898  14.400
30681W        W 3106  30.947  12.134   4.150
30682W        W 3107  42.908  13.614  12.604
30683W        W 3108  21.489  14.275  10.815
30684W        W 3109  27.558   2.746  11.444
30685W        W 3110  12.317  19.009   0.105
30686W        W 3111  25.715  36.050  11.130
30687W        W 3112   6.406  33.667   2.824
30688W        W 3113  17.834  35.307   1.030
30689W        W 3114  29.991  32.341   0.885
30690W        W 3115  41.970  23.162  12.091
30691W        W 3116  34.359  14.946   2.277
30692W        W 3117  19.456   7.548   2.496
30693W        W 3118  15.690  19.378  12.402
30694W        W 3119  19.749  15.328   2.645
30695W        W 3120   0.999   0.253  11.454
30696W        W 3121   7.123  22.206   1.920
30697W        W 3122  38.470  23.599  13.976
30698W        W 3123   0.223  12.930   3.947
30699W        W 3124  38.023   4.510   2.814
30700W        W 3125   1.463  24.918  13.023
30701W        W 3126  38.067  20.860   3.760
30702W        W 3127  34.793  10.609  13.998
30703W        W 3128   1.381  30.602   0.365
30704W        W 3129  22.726   8.019  14.835
30705W        W 3130  36.456   5.694   0.363
30706W        W 3131  12.342  40.771   2.222
30707W        W 3132  15.077   0.013  14.472
30708W        W 3133  41.556  42.777   3.620
30709W        W 3134  39.436  15.116  11.562
30710W        W 3135  24.998   6.905  11.947
30711W        W 3136   9.232  21.266  13.144
30712W        W 3137   2.412  35.992  11.549
30713W        W 3138  41.378  10.831  13.563
30714W        W 3139  38.283   3.732  14.838
30715W        W 3140  11.604  11.186  11.674
30716W        W 3141  26.840   5.918   2.858
30717W        W 3142  17.746   4.376  10.737
30718W        W 3143  17.288  14.838  11.152
30719W        W 3144   5.598  30.363  10.740
30720W        W 3145  16.024   4.400  12.947
30721W        W 3146  40.764  25.738   0.813
30722W        W 3147  17.366  25.873  13.069
30723W        W 3148   6.600  41.369   3.796
30724W        W 3149  22.843  10.439  12.616
30725W        W 3150  18.767  37.406   3.055
30726W        W 3151  20.598  41.418   4.150
30727W        W 3152   7.701   5.084   4.075
30728W        W 3153  28.956  31.953  10.683
30729W        W 3154  18.842  17.100  14.866
30730W        W 3155  36.436  10.691  13.619
30731W        W 3156  38.465   4.646   1.575
30732W        W 3157  38.042   7.248  13.394
30733W        W 3158   2.948  39.328  11.464
30734W        W 3159  38.352  24.962  13.536
30735W        W 3160  21.229  35.836  13.477
30736W        W 3161  37.434   3.323   0.912
30737W        W 3162   5.428   4.494  13.416
30738W        W 3163  10.374   1.429   1.532
30739W        W 3164  26.632  28.747   1.696
30740W        W 3165  36.082   5.410   2.393
30741W        W 3166  29.582  15.852   4.626
30742W        W 3167  31.048  44.170  12.360
30743W        W 3168   6.793  23.193   0.757
30744W        W 3169   3.479  25.833   2.459
30745W        W 3170  43.676   6.403   4.582
30746W        W 3171   2.814  39.264  13.061
30747W        W 3172  42.678  33.037   0.566
30748W        W 3173  21.182  42.911   1.845
30749W        W 3174   8.902  16.423  14.648
30750W        W 3175   5.753  23.093  14.315
30751W        W 3176  40.644  34.931  14.156
30752W        W 3177  36.505  32.956  13.213
30753W        W 3178  27.455  30.073   1.390
30754W        W 3179  38.406  12.555   0.475
30755W        W 3180  10.927  16.680  13.356
30756W        W 3181  41.855  13.676  13.523
30757W        W 3182  39.776   9.629  12.389
30758W        W 3183  15.705  11.269  12.848
30759W        W 3184  28.663  36.188   2.123
30760W        W 3185  39.495  20.620  12.170
30761W        W 3186  35.355  12.478   0.768
30762W        W 3187  13.232  27.717  12.890
30763W        W 3188  24.197  38.074  14.908
30764W        W 3189  39.518  12.884   2.684
30765W        W 3190  36.089  23.330   1.345
30766W        W 3191  30.121  14.107  14.935
30767W        W 3192  32.582  31.415   3.176
30768W        W 3193  40.417  11.075  11.937
30769W        W 3194   4.357  17.452   4.327
30770W        W 3195  10.128  28.078  12.118
30771W        W 3196  39.024   6.786  14.493
30772W        W 3197   1.948   3.189   4.383
30773W        W 3198  16.298  22.144   4.143
30774W        W 3199   5.095  36.777   0.677
30775W        W 3200  31.650  24.209   3.779
30776W        W 3201   7.651  34.825   5.009
30777W        W 3202  16.012  16.783   4.162
30778W        W 3203  24.177  26.973  11.958
30779W        W 3204  41.724  27.503   3.357
30780W        W 3205  23.636   9.585   3.432
30781W        W 3206  30.148  32.151   0.378
30782W        W 3207   0.215   6.663   0.927
30783W        W 3208  29.032  43.632  12.984
30784W        W 3209   7.262  33.134   1.023
30785W        W 3210  22.077   6.930   4.143
30786W        W 3211   8.859  30.437  12.691
30787W        W 3212  32.391  34.984  11.629
30788W        W 3213  20.765  27.040   3.353
30789W        W 3214  28.479   9.403  10.715
30790W        W 3215   1.988   6.841  13.562
30791W        W 3216   3.280  43.536   4.200
30792W        W 3217  30.660  31.198   0.996
30793W        W 3218  27.998  42.027   1.644
30794W        W 3219  38.052  38.052  10.719
30795W        W 3220  35.240   8.692  10.202
30796W        W 3221  10.742  14.160   0.929
30797W        W 3222  24.005  43.353   2.207
30798W        W 3223  29.944  19.964  13.290
30799W        W 3224  34.667  44.405   2.726
30800W        W 3225   8.640  20.789   4.101
30801W        W 3226  23.016  23.891   0.047
30802W        W 3227  44.349  21.691  13.901
30803W        W 3228  35.312  19.183  10.987
30804W        W 3229   6.610  39.887  10.713
30805W        W 3230  43.879   5.149   3.310
30806W        W 3231  41.400   0.069   1.309
30807W        W 3232  18.666  29.511   1.274
30808W        W 3233  10.826  40.310  11.155
30809W        W 3234  21.776  27.176  11.049
30810W        W 3235  41.259  18.094  11.035
30811W        W 3236  20.183  41.275  11.241
30812W        W 3237  10.332  14.556  12.880
30813W        W 3238  16.671  19.227   4.792
30814W        W 3239  25.192  31.187  11.602
30815W        W 3240  15.851   4.928  11.558
30816W        W 3241  21.420  25.720   4.182
30817W        W 3242  20.615   9.679   4.579
30818W        W 3243  14.068  26.397  10.991
30819W        W 3244  41.538  38.844  11.122
30820W        W 3245  14.666  37.198  14.260
30821W        W 3246   1.262   9.084   0.767
30822W        W 3247   2.356   7.884  14.345
30823W        W 3248  19.790  32.652  12.230
30824W        W 3249  26.503  17.110   4.615
30825W        W 3250  21.600   2.226   2.587
30826W        W 3251   2.472  41.928   0.462
30827W        W 3252  14.285  20.228   4.439
30828W        W 3253  42.569  32.137   0.953
30829W        W 3254  22.653   3.636  14.393
30830W        W 3255  16.821  26.203  10.897
30831W        W 3256   1.918  17.609  11.480
30832W        W 3257  41.767  38.488   4.144
30833W        W 3258  37.081  10.893   1.372
30834W        W 3259   3.949  14.549   1.564
30835W        W 3260  19.079   4.865   1.665
30836W        W 3261   6.899  20.268   3.613
30837W        W 3262  35.956  27.497   4.687
30838W        W 3263   9.356  16.218  14.998
30839W        W 3264  16.326  14.135   3.045
30840W        W 3265  40.656  33.615   0.774
30841W        W 3266   9.671   7.544  12.684
30842W        W 3267   8.686   7.211  13.883
30843W        W 3268  40.832  38.792   2.788
30844W        W 3269  17.703   0.242   2.847
30845W        W 3270  27.810  36.119  11.659
30846W        W 3271  41.075   8.865   1.350
30847W        W 3272   5.678  36.398  14.432
30848W        W 3273  35.267  16.474  11.073
30849W        W 3274  24.103  24.948  13.881
30850W        W 3275  27.688  29.126  14.520
30851W        W 3276  40.419  11.510   1.828
30852W        W 3277  14.890  32.311   0.872
30853W        W 3278  15.783  14.835   2.836
30854W        W 3279  29.546  13.537  13.967
30855W        W 3280  10.220  28.978   4.809
30856W        W 3281   6.261   1.366   1.855
30857W        W 3282  24.899  41.585  12.976
30858W        W 3283  18.077  39.114   3.257
30859W        W 3284  28.045  40.095  11.592
30860W        W 3285  21.170   3.755  13.563
30861W        W 3286   8.942  40.895   2.446
30862W        W 3287  27.516  18.240  12.644
30863W        W 3288   0.296  36.793  12.972
30864W        W 3289  32.334   1.913  13.614
30865W        W 3290  31.659  39.079  12.399
30866W        W 3291  39.507  33.931  13.983
30867W        W 3292  33.525   5.286  11.634
30868W        W 3293  34.940  19.507   0.994
30869W        W 3294   4.609  30.422  11.498
30870W        W 3295  31.649  13.289  10.620
30871W        W 3296  20.876   9.266   4.306
30872W        W 3297  37.569  43.499   2.331
30873W        W 3298  17.064  19.734   3.206
30874W        W 3299  12.717  37.405  12.689
30875W        W 3300   6.383  37.274   2.567
30876W        W 3301  11.762  42.030   2.359
30877W        W 3302  32.492   8.607   0.072
30878W        W 3303   3.080  32.682   1.006
30879W        W 3304  14.662  39.444  12.514
30880W        W 3305  16.310  38.374  12.493
30881W        W 3306  40.989   1.252   4.660
30882W        W 3307  32.531  23.826   3.381
30883W        W 3308   4.650  28.144  13.165
30884W        W 3309  11.276  43.133   3.747
30885W        W 3310  25.747  21.132   0.424
30886W        W 3311  33.783  14.665  14.942
30887W        W 3312  35.380  16.789   4.121
30888W        W 3313  27.764  26.488  14.005
30889W        W 3314   2.550  14.724   4.600
30890W        W 3315  36.545  33.836   2.231
30891W        W 3316  22.916   2.406  13.385
30892W        W 3317  40.883   6.644   2.890
30893W        W 3318  42.911  23.964   1.361
30894W        W 3319  43.792  26.806  11.038
30895W        W 3320  13.527  27.096   4.140
30896W        W 3321  29.660  37.037   2.642
30897W        W 3322  15.268   1.740  11.120
30898W        W 3323  12.802  39.270  12.298
30899W        W 3324  42.430   1.175   0.484
30900W        W 3325  13.126  23.797   2.298
30901W        W 3326  12.842  11.544  13.960
30902W        W 3327  42.117  36.376  11.609
30903W        W 3328  10.984  42.460  13.340
30904W        W 3329  17.789   8.855   0.008
30905W        W 3330  25.959  39.509   3.117
30906W        W 3331  21.199  43.016   4.431
30907W        W 3332  21.543  42.073   1.756
30908W        W 3333  12.432  16.813   2.693
30909W        W 3334  22.534   5.306  14.961
30910W        W 3335  37.968   5.004   0.812
30911W        W 3336   3.448   7.742   3.280
30912W        W 3337  27.397  14.745   2.212
30913W        W 3338  29.769  14.266  13.631
30914W        W 3339   3.892  10.507  10.469
30915W        W 3340  44.751  12.656  10.664
30916W        W 3341   9.232   8.279  13.045
30917W        W 3342  21.688  24.594  11.402
30918W        W 3343  19.994  20.175  13.313
30919W        W 3344   5.087   9.094   4.842
30920W        W 3345   7.219  27.263  13.181
30921W        W 3346  44.085  28.411  12.894
30922W        W 3347  10.914  16.473  11.512
30923W        W 3348  15.587  15.866   2.842
30924W        W 3349   6.655  20.011   1.304
30925W        W 3350  10.903   0.608  13.805
30926W        W 3351  21.638  24.484   0.793
30927W        W 3352  37.458  32.146   0.759
30928W        W 3353  32.462   4.782   3.859
30929W        W 3354  25.532   6.124   4.153
30930W        W 3355  27.972  22.221   1.440
30931W        W 3356   3.803   6.740  11.728
30932W        W 3357  16.240   6.683  12.986
30933W        W 3358  25.976  41.269   1.782
30934W        W 3359  20.095  16.677   2.789
30935W        W 3360  22.234  17.810   4.091
30936W        W 3361  14.249  26.032  10.670
30937W        W 3362  40.380  22.209  11.667
30938W        W 3363  29.919  20.486  13.427
30939W        W 3364  27.859  33.927  13.825
30940W        W 3365  37.596  42.805   0.431
30941W        W 3366   2.927  36.650  14.908
30942W        W 3367  42.452  32.170  10.657
30943W        W 3368  34.537  10.229  14.779
30944W        W 3369   5.620  30.495   0.307
30945W        W 3370  29.204  18.133  11.910
30946W        W 3371  22.771  40.303  12.598
30947W        W 3372   1.887  25.607   4.588
30948W        W 3373  36.105  24.610  11.627
30949W        W 3374  10.212  21.115   2.888
30950W        W 3375  41.349   5.662  14.852
30951W        W 3376  28.046  32.869   1.284
30952W        W 3377  40.664  18.552   2.230
30953W        W 3378  30.780  34.908   2.788
30954W        W 3379   9.358  16.138  11.392
30955W        W 3380  17.299  41.504   4.075
30956W        W 3381   3.243  33.169   2.217
30957W        W 3382  33.573  42.074   2.370
30958W        W 3383  22.727  40.154  14.440
30959W        W 3384  40.184  37.524   1.816
30960W        W 3385  30.094  14.188   4.161
30961W        W 3386  11.321   3.164  11.247
30962W        W 3387  11.867  28.583  14.736
30963W        W 3388  30.941  37.832  14.801
30964W        W 3389  23.672   4.495   3.551
30965W        W 3390   6.347   2.336  12.425
30966W        W 3391  24.682  29.683  12.454
30967W        W 3392  10.798  35.299  11.575
30968W        W 3393  39.840  20.649   2.226
30969W        W 3394   2.207   6.365  14.344
30970W        W 3395   1.983   2.522  11.038
30971W        W 3396  31.003  39.777  14.388
30972W        W 3397  15.610  40.770   0.459
30973W        W 3398  34.788  25.062   4.566
30974W        W 3399   7.920  39.235   1.842
30975W        W 3400  29.173  17.041  12.512
30976W        W 3401  20.779  13.272   3.991
30977W        W 3402  10.826   8.795  10.658
30978W        W 3403  25.835  39.564   2.216
30979W        W 3404  13.888  13.038  12.017
30980W        W 3405  33.465   1.023   3.202
30981W        W 3406  17.869  26.153  11.945
30982W        W 3407  22.406  37.483   0.924
30983W        W 3408  33.296  10.158   2.780
30984W        W 3409   7.799  10.626  11.922
30985W        W 3410   7.471   2.723  13.467
30986W        W 3411  44.016  14.572   2.787
30987W        W 3412  19.284  21.483   4.306
30988W        W 3413   6.263  43.974   2.055
30989W        W 3414   3.728  22.724  10.825
30990W        W 3415   9.370  15.980  10.069
30991W        W 3416   4.174   0.865  13.745
30992W        W 3417  21.563   9.811  14.315
30993W        W 3418  14.237  14.847   1.298
30994W        W 3419   8.180  42.643   1.718
30995W        W 3420  32.565  23.144  10.393
30996W        W 3421  37.979  20.151  13.993
30997W        W 3422  20.105  20.785   3.777
30998W        W 3423  14.283  44.964   4.258
30999W        W 3424  24.606  14.558   2.703
31000W        W 3425  23.482  11.745  14.525
31001W        W 3426  22.607  10.663  11.605
31002W        W 3427   5.655  27.847  14.423
31003W        W 3428  23.917  31.451  13.285
31004W        W 3429  43.548  14.144   0.539
31005W        W 3430  17.768  15.840  12.543
31006W        W 3431  35.036  12.797   4.304
31007W        W 3432  39.374  13.093  11.549
31008W        W 3433  20.023  10.846   1.777
31009W        W 3434  42.455  40.144   0.171
31010W        W 3435  38.628  14.885  12.113
31011W        W 3436   6.440  26.369  14.030
31012W        W 3437  32.913  15.604  12.922
31013W        W 3438  20.103  44.350  12.468
31014W        W 3439  37.983  41.146   0.412
31015W        W 3440  36.610  40.321   1.825
31016W        W 3441  23.892  26.888  13.048
31017W        W 3442   8.751  30.198   0.877
31018W        W 3443  33.361   2.897   0.789
31019W        W 3444  28.744  23.632  12.096
31020W        W 3445  20.094  21.025  14.787
31021W        W 3446   6.261  42.608   1.297
31022W        W 3447  12.631   8.774   1.807
31023W        W 3448  35.784   0.007   0.395
31024W        W 3449  41.145  27.101  11.702
31025W        W 3450  27.113  35.461  12.499
31026W        W 3451   9.910  10.742   3.766
31027W        W 3452   6.882  38.756   1.462
31028W        W 3453  33.514  32.657   1.819
31029W        W 3454  41.467  34.957  10.637
31030W        W 3455  17.605  34.003   1.581
31031W        W 3456  43.021  22.558  10.593
31032W        W 3457  22.788  40.814   0.835
31033W        W 3458  40.597  44.673  13.335
31034W        W 3459   2.490  36.946  10.643
31035W        W 3460  10.425  24.563  12.759
31036W        W 3461   0.105  25.444   2.162
31037W        W 3462  35.065  27.062  13.240
31038W        W 3463  37.141  26.486   4.812
31039W        W 3464  21.415  19.226  11.012
31040W        W 3465  25.032  32.448   1.691
31041W        W 3466  16.756  37.293   1.791
31042W        W 3467   4.558  14.013  13.017
31043W        W 3468  25.947  32.956  10.993
31044W        W 3469   0.242  37.538   2.437
31045W        W 3470  14.378  41.819   4.704
31046W        W 3471  41.834  27.712   1.516
31047W        W 3472   7.489  25.482   3.343
31048W        W 3473  42.893  30.080   2.511
31049W        W 3474  38.668  39.872  12.064
31050W        W 3475  11.166  41.636   0.504
31051W        W 3476   3.003   7.508   3.081
31052W        W 3477  23.830  30.975  12.719
31053W        W 3478   7.310   3.861   1.315
31054W        W 3479  18.608  30.739   0.294
31055W        W 3480   7.424   6.708  12.476
31056W        W 3481  14.568  43.439  14.835
31057W        W 3482  41.435   5.374   3.583
31058W        W 3483  36.854   7.849  11.293
31059W        W 3484  44.841  38.847   0.704
31060W        W 3485  19.330  29.533  14.501
31061W        W 3486  23.208  15.695   3.239
31062W        W 3487   1.444   2.729  12.602
31063W        W 3488  30.540  24.658  14.999
31064W        W 3489   8.797  23.869   1.310
31065W        W 3490  44.733   2.896  14.850
31066W        W 3491  21.232  10.339  14.000
31067W        W 3492   9.366   0.713  12.069
31068W        W 3493   6.818  21.799   2.685
31069W        W 3494  24.987  31.319   0.881
31070W        W 3495  13.424  43.247   3.512
31071W        W 3496  29.709  39.033  13.348
31072W        W 3497  12.317   4.370   0.174
31073W        W 3498   0.678  38.504   2.380
31074W        W 3499  20.176  15.571   0.262
31075W        W 3500  31.449  15.604  12.664
31076W        W 3501   3.806  30.040   0.649
31077W        W 3502  41.941  42.113   2.337
31078W        W 3503   2.448  44.286  14.274
31079W        W 3504  22.079  26.623   0.634
31080W        W 3505  10.138   2.847   5.319
31081W        W 3506  18.551  18.059  12.371
31082W        W 3507  14.267  31.468   0.970
31083W        W 3508  38.530   7.889  11.442
31084W        W 3509  44.030   6.453  13.940
31085W        W 3510  17.215   9.646   1.311
31086W        W 3511  40.716   9.337  14.441
31087W        W 3512  44.001  24.652  11.049
31088W        W 3513  18.291  16.127  11.267
31089W        W 3514  41.725  18.650  12.578
31090W        W 3515  23.982  14.873   1.432
31091W        W 3516  28.402   9.724  12.381
31092W        W 3517  29.302   8.980  11.112
31093W        W 3518  23.653  17.488   0.412
31094W        W 3519  15.323  32.353  13.264
31095W        W 3520  37.665  28.426   2.812
31096W        W 3521  26.223   0.711  13.979
31097W        W 3522  23.490   2.974  13.021
31098W        W 3523  35.454   8.019   1.913
31099W        W 3524  11.167   2.755   1.385
31100W        W 3525  21.240  20.753   4.426
31101W        W 3526  44.863  25.055   1.415
31102W        W 3527  15.496  23.837  12.949
31103W        W 3528   4.769  37.498  14.757
31104W        W 3529  34.819  31.333  14.271
31105W        W 3530  19.060  37.529   3.484
31106W        W 3531  42.005  44.436   2.590
31107W        W 3532  24.770  26.683   4.201
31108W        W 3533  33.082  17.496  10.294
31109W        W 3534  22.134  28.766  14.564
31110W        W 3535   0.004  38.118   1.238
31111W        W 3536  16.467  16.837   0.518
31112W        W 3537  30.676   7.817   3.882
31113W        W 3538  25.630  38.053   3.240
31114W        W 3539  38.962  22.281  12.636
31115W        W 3540  31.206  42.033   0.819
31116W        W 3541  24.919  21.090  14.502
31117W        W 3542   3.273  41.282   4.278
31118W        W 3543  32.801  12.365  10.716
31119W        W 3544  38.924  36.233   0.319
31120W        W 3545  33.820  10.323  12.119
31121W        W 3546   7.453  19.389   4.097
31122W        W 3547  23.991  11.905  14.455
31123W        W 3548  23.477  24.805  12.180
31124W        W 3549  16.884   4.419  14.506
31125W        W 3550   2.020  24.828  12.364
31126W        W 3551  29.827  20.178   1.310
31127W        W 3552  14.210  12.162  10.819
31128W        W 3553  36.467  25.575   1.446
31129W        W 3554  24.188  24.258  11.379
31130W        W 3555  16.483  10.542  12.107
31131W        W 3556  18.240   0.330  14.897
31132W        W 3557  30.525   0.864   3.571
31133W        W 3558  20.732   6.277  14.029
31134W        W 3559  27.378  14.097   1.468
31135W        W 3560   5.213  16.262   2.306
31136W        W 3561  39.063  19.254   4.756
31137W        W 3562   3.332   6.692  14.849
31138W        W 3563  39.955  11.777  10.663
31139W        W 3564  22.079   8.774  11.994
31140W        W 3565  27.255  14.981   2.824
31141W        W 3566   3.777  40.603  13.523
31142W        W 3567  25.576  38.868  12.417
31143W        W 3568   6.437  40.443  10.419
31144W        W 3569  31.892  25.939   0.891
31145W        W 3570   1.978  36.999  10.523
31146W        W 3571   8.826  19.170   2.719
31147W        W 3572  34.874  30.408   4.283
31148W        W 3573  19.250   1.303   3.400
31149W        W 3574  16.606  31.820   3.854
31150W        W 3575  36.552  44.276   2.857
31151W        W 3576  29.933  42.812  11.905
31152W        W 3577  25.402  26.183   0.867
31153W        W 3578   4.866  40.862   2.343
31154W        W 3579  10.383  10.208   0.405
31155W        W 3580  40.550  28.680  12.281
31156W        W 3581   7.608  17.017   0.297
31157W        W 3582  23.088  41.160   4.893
31158W        W 3583  14.639  31.246  11.195
31159W        W 3584   3.930  12.708  12.865
31160W        W 3585   7.963  30.450  12.984
31161W        W 3586  20.609  10.926  12.451
31162W        W 3587  38.989  26.983   4.554
31163W        W 3588  10.727  26.697   3.660
31164W        W 3589   6.903   9.507   1.269
31165W        W 3590  21.626  40.342   4.683
31166W        W 3591  13.138  32.559  13.727
31167W        W 3592  21.089   3.375  11.702
31168W        W 3593  37.696  22.451   2.214
31169W        W 3594   2.329  21.099   0.506
31170W        W 3595  29.880  43.874  13.968
31171W        W 3596  30.216  31.574   4.218
31172W        W 3597  31.489  43.485   2.800
31173W        W 3598  42.546   9.825   4.227
31174W        W 3599  10.207  22.393   1.727
31175W        W 3600  42.262  30.516   2.662
31176W        W 3601  28.629  12.896   1.702
31177W        W 3602  17.101  10.157   4.240
31178W        W 3603   3.394   6.597  14.262
31179W        W 3604  21.078   7.273   1.287
31180W        W 3605   2.377  26.643   0.777
31181W        W 3606   1.784  32.057  12.167
31182W        W 3607  44.587  31.959   4.537
31183W        W 3608  29.058  35.535  14.932
31184W        W 3609  21.182  20.093   2.362
31185W        W 3610  38.026  35.424  12.450
31186W        W 3611  17.971  36.544   0.065
31187W        W 3612  21.747  18.044   1.165
31188W        W 3613  26.514  10.859  11.091
31189W        W 3614  26.051  11.679  13.417
31190W        W 3615  24.302   1.901   0.312
31191W        W 3616   9.297  12.639  13.327
31192W        W 3617  25.588  18.250  12.844
31193W        W 3618  11.756  31.441  14.134
31194W        W 3619   9.631  18.276   1.262
31195W        W 3620  22.586   6.992   3.206
31196W        W 3621   5.761   1.711   2.699
31197W        W 3622  43.790  13.420  12.093
31198W        W 3623  17.333  32.554   5.729
31199W        W 3624  21.342  31.517   0.495
31200W        W 3625  25.093  10.787   9.692
31201W        W 3626  12.905  11.565   0.964
31202W        W 3627  14.735  17.647  12.962
31203W        W 3628  25.702  20.090   4.673
31204W        W 3629  24.626  38.494   0.832
31205W        W 3630  36.064  13.759  13.494
31206W        W 3631   2.300   7.887   0.458
31207W        W 3632  20.436  20.001  11.631
31208W        W 3633  12.563  34.930  14.523
31209W        W 3634  16.809   3.529  14.291
31210W        W 3635  13.553  10.032   2.275
31211W        W 3636  25.622   4.787  12.920
31212W        W 3637  29.457   2.876   0.380
31213W        W 3638  44.318  11.825  13.536
31214W        W 3639  35.936  11.406   0.273
31215W        W 3640  20.174  41.931   4.615
31216W        W 3641   1.718  22.203  14.362
31217W        W 3642  12.853   2.446  14.364
31218W        W 3643  44.707   6.265   1.856
31219W        W 3644  32.586  38.751   1.686
31220W        W 3645   0.984   5.214   0.453
31221W        W 3646  37.551  29.965   4.953
31222W        W 3647   4.202  28.807  11.155
31223W        W 3648   9.680  13.471  12.553
31224W        W 3649  14.235  31.453   4.836
31225W        W 3650  30.932  29.849  12.912
31226W        W 3651   1.044   7.284  12.928
31227W        W 3652  20.508  11.223   0.887
31228W        W 3653   8.755  28.007  11.083
31229W        W 3654  20.720   2.533  12.499
31230W        W 3655  31.948  31.369  14.346
31231W        W 3656  27.732   5.786  14.835
31232W        W 3657   4.124  28.681   0.509
31233W        W 3658  13.057  39.040  10.672
31234W        W 3659  41.573  28.620  12.975
31235W        W 3660  29.366   1.347   0.443
31236W        W 3661  42.247  38.341   2.352
31237W        W 3662  28.982  28.103   1.553
31238W        W 3663   4.312   1.636   0.898
31239W        W 3664  20.670  38.421   2.130
31240W        W 3665  35.482  41.376   4.185
31241W        W 3666  12.145  44.237  14.765
31242W        W 3667  13.236  42.612  12.735
31243W        W 3668  26.723   7.305   0.391
31244W        W 3669   6.582  34.928  14.878
31245W        W 3670  26.588   0.964  11.162
31246W        W 3671  22.989  40.482  11.056
31247W        W 3672  27.873  26.186   3.374
31248W        W 3673  25.792  19.141  13.128
31249W        W 3674  42.464  17.316   2.722
31250W        W 3675   4.461  35.729  11.626
31251W        W 3676   8.625  37.693  10.659
31252W        W 3677   4.179  27.957  12.034
31253W        W 3678  10.427  44.393  10.891
31254W        W 3679  20.324   5.958  10.597
31255W        W 3680   0.226  34.296  13.849
31256W        W 3681  41.520   8.281  12.074
31257W        W 3682   2.981  22.592  13.541
31258W        W 3683  26.034  22.950   0.415
31259W        W 3684  34.177   9.361  12.810
31260W        W 3685  43.350   9.687  11.727
31261W        W 3686  18.309  20.439  12.455
31262W        W 3687  35.167   8.777   0.404
31263W        W 3688  22.735  33.214  11.980
31264W        W 3689  27.931  41.277  11.371
31265W        W 3690  14.641   2.816  10.594
31266W        W 3691  31.354  39.655   1.832
31267W        W 3692  28.353  33.560   2.550
31268W        W 3693  10.197  29.168  12.304
31269W        W 3694   2.464  29.092   3.660
31270W        W 3695  29.183   6.434  14.245
31271W        W 3696  38.066   0.001   4.746
31272W        W 3697  32.279  40.817   2.410
31273W        W 3698  41.029  19.502  14.880
31274W        W 3699   4.701  25.798   2.414
31275W        W 3700  17.488   8.740  12.396
31276W        W 3701   4.285  11.801   2.287
31277W        W 3702   7.947  29.707   4.931
31278W        W 3703   7.626  30.174   2.852
31279W        W 3704  35.621  44.294   4.427
31280W        W 3705  11.689   3.402   1.365
31281W        W 3706   2.336  24.756  13.012
31282W        W 3707  34.919  29.447  14.569
31283W        W 3708   8.118  13.030   2.407
31284W        W 3709  16.395  25.734  13.902
31285W        W 3710   0.706  21.806   2.287
31286W        W 3711  29.691   6.270   0.850
31287W        W 3712  30.862  42.826  13.423
31288W        W 3713  30.948  39.251   3.269
31289W        W 3714  37.094   7.986  14.138
31290W        W 3715   1.902  13.054   4.208
31291W        W 3716  42.068  43.716  13.836
31292W        W 3717   0.756  39.275   0.812
31293W        W 3718  11.840   9.709   2.182
31294W        W 3719  21.290  19.782   4.643
31295W        W 3720  20.414  27.085  10.517
31296W        W 3721  19.680  39.769  12.628
31297W        W 3722  41.291  31.409  10.998
31298W        W 3723   4.311  43.303  14.705
31299W        W 3724  12.614  15.814   4.218
31300W        W 3725   6.813   8.418  10.752
31301W        W 3726  22.073  36.390   4.392
31302W        W 3727   9.581   1.721   3.168
31303W        W 3728   5.684  13.267   3.831
31304W        W 3729   3.465   1.242   2.792
31305W        W 3730  10.282  44.296   2.024
31306W        W 3731   6.299  20.017   2.811
31307W        W 3732  15.651  44.692   4.131
31308W        W 3733  16.200  17.296  13.073
31309W        W 3734  40.371  24.264   0.409
31310W        W 3735  33.390   0.134   3.695
31311W        W 3736  17.108   7.471  11.108
31312W        W 3737  38.501  33.581   3.957
31313W        W 3738  12.706  29.176   4.492
31314W        W 3739  33.095  32.655  13.328
31315W        W 3740  40.313  41.422  10.329
31316W        W 3741  12.600  13.639  13.451
31317W        W 3742  30.800  27.511   0.520
31318W        W 3743  13.960  24.540  11.073
31319W        W 3744   5.810  44.305  14.415
31320W        W 3745  31.691  42.598   1.754
31321W        W 3746  43.637   1.917   3.193
31322W        W 3747  26.517  36.490  13.796
31323W        W 3748  39.618   7.350   4.159
31324W        W 3749  23.147  30.536   2.423
31325W        W 3750   5.750   2.200   2.883
31326W        W 3751   6.919  33.812   0.315
31327W        W 3752   4.778  23.254  14.631
31328W        W 3753  20.062   7.947   1.757
31329W        W 3754  18.634  28.193   3.187
31330W        W 3755  16.085  38.890  13.577
31331W        W 3756  44.070  19.692   0.299
31332W        W 3757  17.199   3.507   1.394
31333W        W 3758  24.533  21.607   0.294
31334W        W 3759  36.189  43.942  11.518
31335W        W 3760  22.822   5.848  14.645
31336W        W 3761  44.943  10.590  11.089
31337W        W 3762  37.851  10.950  12.001
31338W        W 3763  30.466  42.820   1.538
31339W        W 3764  44.358  33.373   3.664
31340W        W 3765  27.917  19.285   4.867
31341W        W 3766  24.728  19.149   2.682
31342W        W 3767  30.336  44.927   1.255
31343W        W 3768   6.066  39.866   1.043
31344W        W 3769  42.729   6.792  14.086
31345W        W 3770  14.085   6.340  11.516
31346W        W 3771  27.909  32.747  14.961
31347W        W 3772   4.811  36.988  12.953
31348W        W 3773  14.552  24.594   0.457
31349W        W 3774  31.206  22.725  14.894
31350W        W 3775   2.445   9.912   3.160
31351W        W 3776  33.132  31.955  12.883
31352W        W 3777   6.227  12.091   1.660
31353W        W 3778  13.308  39.539   3.606
31354W        W 3779  30.903   0.202  14.407
31355W        W 3780  17.061   3.588  11.803
31356W        W 3781  11.387  25.291   3.201
31357W        W 3782  39.520  32.601   2.418
31358W        W 3783  14.816   6.269   0.463
31359W        W 3784  35.114  32.098   3.201
31360W        W 3785  26.476  23.017   4.095
31361W        W 3786  11.980   7.605   3.237
31362W        W 3787   2.893  14.848   0.402
31363W        W 3788  26.637  22.204  13.581
31364W        W 3789  25.519   1.455  11.981
31365W        W 3790   0.017  36.111   2.667
31366W        W 3791  38.800  13.810  14.443
31367W        W 3792  38.589  26.280  11.932
31368W        W 3793  16.146   7.230   3.654
31369W        W 3794  12.848  10.653   3.644
31370W        W 3795   7.762  14.782   4.818
31371W        W 3796  14.542  28.079  11.234
31372W        W 3797  41.307  12.653   1.617
31373W        W 3798  10.806  37.518   2.326
31374W        W 3799  19.694   5.901  14.363
31375W        W 3800  40.564  36.629  10.688
31376W        W 3801  41.444   5.350   4.077
31377W        W 3802  32.617  30.963  14.305
31378W        W 3803   6.398  15.737  12.582
31379W        W 3804  24.471  35.455   4.202
31380W        W 3805  44.063  22.588  14.943
31381W        W 3806  11.591  26.967  13.347
31382W        W 3807  13.373   0.732   1.445
31383W        W 3808  17.334  30.946  13.881
31384W        W 3809  21.131   7.708  11.945
31385W        W 3810  12.831  29.099   0.930
31386W        W 3811  41.796  15.631   2.213
31387W        W 3812  15.080   6.237   4.598
31388W        W 3813  31.119   6.441  14.913
31389W        W 3814  19.734  38.940   2.433
31390W        W 3815   0.595  28.036   1.726
31391W        W 3816   7.689  42.572  12.375
31392W        W 3817  11.379   4.813  14.369
31393W        W 3818  40.986  10.595   1.759
31394W        W 3819   7.284  15.693   0.517
31395W        W 3820  38.924   1.237  14.388
31396W        W 3821  16.879  13.411   4.050
31397W        W 3822   6.103  21.996  11.160
31398W        W 3823  28.711  34.848   1.393
31399W        W 3824  36.483  14.029   3.623
31400W        W 3825  19.138  17.111  12.999
31401W        W 3826  32.954  31.403  12.827
31402W        W 3827  19.575  33.633   1.765
31403W        W 3828  12.349   9.303  14.527
31404W        W 3829   6.786  43.427  10.711
31405W        W 3830  41.530   0.059  12.679
31406W        W 3831   0.699   5.812   4.483
31407W        W 3832  26.661   4.235  11.126
31408W        W 3833  43.467   2.333  12.459
31409W        W 3834   9.350  41.016  11.615
31410W        W 3835  40.932   7.515   2.249
31411W        W 3836   9.215  29.564   3.188
31412W        W 3837  21.334   9.547   2.853
31413W        W 3838  32.042   8.287   4.268
31414W        W 3839  34.960  23.588   9.844
31415W        W 3840  20.858  16.376   1.788
31416W        W 3841  38.610  10.662  12.477
31417W        W 3842  24.504  31.580  11.605
31418W        W 3843  37.137  33.699  13.473
31419W        W 3844  33.634  12.863   0.950
31420W        W 3845  21.673  16.762  11.493
31421W        W 3846  17.117  16.536  14.790
31422W        W 3847  34.462  39.863   4.635
31423W        W 3848   5.670  30.365  13.009
31424W        W 3849  19.498   9.252   1.690
31425W        W 3850  15.394  42.360  14.252
31426W        W 3851   9.830   6.648  12.674
31427W        W 3852   4.699  25.920   0.405
31428W        W 3853   1.283  20.831   1.280
31429W        W 3854  14.202  43.045   2.686
31430W        W 3855  11.202  13.300  13.597
31431W        W 3856   0.837  40.770   3.318
31432W        W 3857  44.676  29.196  10.992
31433W        W 3858   1.272   4.275   3.280
31434W        W 3859  11.592  44.465   0.326
31435W        W 3860  22.036  29.500   1.022
31436W        W 3861  15.509   6.070  11.938
31437W        W 3862  12.138   2.729  11.108
31438W        W 3863  21.832  39.936  11.611
31439W        W 3864  11.969  37.071  10.426
31440W        W 3865   3.553  10.470   0.889
31441W        W 3866  38.837  24.999   3.730
31442W        W 3867  23.561  38.347   3.091
31443W        W 3868  40.008  26.041   4.628
31444W        W 3869   5.698  41.541   3.757
31445W        W 3870  12.882  22.066   2.684
31446W        W 3871   6.647  41.774  11.624
31447W        W 3872  32.007   7.205   1.528
31448W        W 3873  30.747  29.007  10.594
31449W        W 3874  41.610  19.115  13.095
31450W        W 3875  22.734  38.684   3.024
31451W        W 3876  38.853  19.259   4.266
31452W        W 3877  30.564   5.787   4.790
31453W        W 3878  42.656  40.068   3.952
31454W        W 3879  21.134   6.854  10.968
31455W        W 3880  12.543  17.801  10.433
31456W        W 3881  17.462  12.782  14.958
31457W        W 3882  44.714  28.104  10.482
31458W        W 3883  35.448  39.624  12.529
31459W        W 3884   3.395  44.761  13.478
31460W        W 3885   1.464  29.090  13.962
31461W        W 3886  37.977  35.705  14.089
31462W        W 3887  15.065  34.438  14.556
31463W        W 3888  23.522  18.592   3.872
31464W        W 3889  29.978  21.477  10.352
31465W        W 3890   4.508  16.378   3.418
31466W        W 3891  41.317  29.256   1.687
31467W        W 3892  30.375  35.093   0.779
31468W        W 3893  16.180   9.422  13.973
31469W        W 3894  23.015  17.125   4.600
31470W        W 3895  29.181  18.700   0.268
31471W        W 3896  25.256  13.660  11.128
31472W        W 3897  18.297  25.568  12.948
31473W        W 3898  27.915   9.783  12.560
31474W        W 3899  10.389  31.195   1.298
31475W        W 3900  13.620  18.080   4.606
31476W        W 3901  44.547  24.720  12.969
31477W        W 3902  12.366   7.311  13.251
31478W        W 3903  32.983  33.033   3.232
31479W        W 3904  33.387   7.675  10.717
31480W        W 3905  33.469  11.080  14.626
31481W        W 3906  21.392  33.037  11.614
31482W        W 3907   5.382  17.839   1.923
31483W        W 3908  42.062   8.736  12.882
31484W        W 3909  12.755  29.633  11.481
31485W        W 3910  41.229   5.172  13.990
31486W        W 3911  26.865  10.420   1.342
31487W        W 3912  10.928   8.952   4.967
31488W        W 3913  35.656  23.612   1.390
31489W        W 3914  40.556  28.079   4.920
31490W        W 3915  30.654  22.825   4.106
31491W        W 3916  18.176  21.202  10.080
31492W        W 3917  37.063  43.699   4.488
31493W        W 3918   5.356  41.281  13.819
31494W        W 3919  42.199  40.013  13.120
31495W        W 3920  35.107  44.736   2.853
31496W        W 3921   9.365  37.081   2.547
31497W        W 3922  43.957  44.411   0.328
31498W        W 3923  42.448  16.762   3.692
31499W        W 3924  41.785  18.100  10.961
31500W        W 3925   5.713  39.811   4.293
31501W        W 3926   6.174  26.218   0.301
31502W        W 3927  28.050   5.930  12.859
31503W        W 3928  36.856  27.204  10.781
31504W        W 3929   9.150  34.028   0.710
31505W        W 3930  43.380  39.166  11.427
31506W        W 3931  35.396   7.920  10.771
31507W        W 3932  34.209  13.275  13.551
31508W        W 3933  20.465  43.264   2.410
31509W        W 3934  32.141  21.617  14.494
31510W        W 3935  43.842  27.431  14.993
31511W        W 3936  33.442  13.372   0.814
31512W        W 3937  40.000  11.896   1.919
31513W        W 3938   0.900  28.102  12.079
31514W        W 3939   7.954  25.604  11.195
31515W        W 3940  13.092  35.593  14.753
31516W        W 3941   5.329  36.830  11.767
31517W        W 3942  31.691  16.796  11.151
31518W        W 3943   7.888  15.769   3.336
31519W        W 3944  29.187  32.327   5.091
31520W        W 3945  10.056  14.830  10.827
31521W        W 3946  35.606  11.779  11.953
31522W        W 3947  14.809   0.426  12.511
31523W        W 3948  15.853  38.595  12.575
31524W        W 3949  33.401  37.969   1.343
31525W        W 3950  42.747   3.555  14.812
31526W        W 3951  44.377  35.489   2.044
31527W        W 3952  32.088   3.654  11.452
31528W        W 3953  12.764   5.746  12.568
31529W        W 3954  13.180  17.577   1.407
31530W        W 3955  36.884  10.840   3.605
31531W        W 3956   8.262  12.740   4.546
31532W        W 3957  29.445  13.865  13.589
31533W        W 3958  44.133   0.565  13.334
31534W        W 3959  35.550  16.729  13.533
31535W        W 3960  38.408  26.739   1.916
31536W        W 3961   0.789  12.667   4.985
31537W        W 3962  28.180  10.334  11.619
31538W        W 3963  41.023   6.263   3.714
31539W        W 3964  19.601  42.843   0.517
31540W        W 3965  24.612   1.335   2.456
31541W        W 3966  39.613  16.278  13.387
31542W        W 3967  23.003   4.858   3.167
31543W        W 3968   4.847   7.609   2.194
31544W        W 3969  15.337  22.045   5.109
31545W        W 3970  11.057  44.952   2.521
31546W        W 3971  36.022  22.602   4.215
31547W        W 3972  14.456  14.817  13.797
31548W        W 3973  40.062  44.340  12.004
31549W        W 3974   3.344  16.258  13.531
31550W        W 3975  24.624  25.204   2.964
31551W        W 3976  24.076  42.833   2.266
31552W        W 3977  12.440  41.966   4.437
31553W        W 3978   2.813  11.787   0.305
31554W        W 3979  17.663  27.527   0.619
31555W        W 3980  16.814  17.600   0.841
31556W        W 3981   3.855  33.903   0.433
31557W        W 3982  24.426  26.908  11.492
31558W        W 3983  10.794  37.083  14.233
31559W        W 3984  35.344   6.221   2.815
31560W        W 3985  14.182  19.119  13.446
31561W        W 3986  43.803  40.834   2.169
31562W        W 3987  41.623  39.084  13.869
31563W        W 3988  43.354  42.702  11.881
31564W        W 3989  21.143   2.472  10.759
31565W        W 3990  42.763  42.511  12.097
31566W        W 3991  21.793  16.094   0.843
31567W        W 3992  32.035  29.042  12.452
31568W        W 3993  18.407  27.447   0.159
31569W        W 3994  21.703   0.593  14.398
31570W        W 3995  25.247   8.150   3.810
31571W        W 3996   7.219  40.015   0.263
31572W        W 3997  44.074   7.821   3.561
31573W        W 3998  21.832  35.077  13.425
31574W        W 3999  22.703  28.624   4.548
31575W        W 4000  14.485  20.721   4.829
31576W        W 4001   0.221  24.166   3.794
31577W        W 4002  32.905  25.816  14.303
31578W        W 4003   0.307  38.721   3.354
31579W        W 4004   3.427  12.064  12.480
31580W        W 4005  26.976  40.291   0.421
31581W        W 4006  17.315  42.391   3.822
31582W        W 4007  35.408  29.720   2.855
31583W        W 4008   3.500   6.282  11.493
31584W        W 4009  37.575  41.975  12.473
31585W        W 4010  27.885   8.154   0.755
31586W        W 4011  42.401  30.370  12.607
31587W        W 4012  13.794  26.732  10.649
31588W        W 4013  40.831   1.532   3.626
31589W        W 4014  31.543  10.786  11.433
31590W        W 4015  44.989  14.550   1.409
31591W        W 4016  11.616  36.846  13.932
31592W        W 4017  35.099  12.175  11.446
31593W        W 4018  22.020  13.429   3.222
31594W        W 4019  34.656  31.476  12.073
31595W        W 4020  33.478  42.388   3.364
31596W        W 4021  31.119  13.425   3.515
31597W        W 4022  12.298  36.125   2.245
31598W        W 4023   7.738  31.666  12.960
31599W        W 4024  21.963  11.256   0.756
31600W        W 4025  23.448  23.368  14.393
31601W        W 4026   9.831  27.474   3.590
31602W        W 4027  35.616  42.481  11.635
31603W        W 4028  14.080  11.167  14.819
31604W        W 4029  18.188  38.796  14.406
31605W        W 4030  13.425   4.813  14.032
31606W        W 4031  30.424  13.535  11.553
31607W        W 4032   6.874  17.263   4.700
31608W        W 4033   0.942  21.519   3.239
31609W        W 4034  39.396   8.939   0.781
31610W        W 4035   8.175  28.072  13.041
31611W        W 4036  36.040   3.017  11.949
31612W        W 4037  31.368  25.225   0.262
31613W        W 4038  20.648  27.048   0.716
31614W        W 4039  27.233   2.916  13.561
31615W        W 4040  23.991  43.457  12.326
31616W        W 4041  43.016  13.778   2.617
31617W        W 4042   5.580  42.311   1.760
31618W        W 4043  15.172   7.344   3.920
31619W        W 4044   4.621   0.605  11.904
31620W        W 4045  31.719  18.702  12.856
31621W        W 4046  21.192   1.386   1.877
31622W        W 4047  15.298   5.159  13.404
31623W        W 4048  30.513  24.751   0.657
31624W        W 4049  37.159  42.401  10.669
31625W        W 4050   9.795  29.907  12.457
31626W        W 4051  44.777  26.454   1.247
31627W        W 4052   4.651  43.085   0.397
31628W        W 4053  14.865  25.574   3.760
31629W        W 4054  23.558  43.539   2.382
31630W        W 4055  10.745  42.266   2.912
31631W        W 4056  28.056  19.782  14.376
31632W        W 4057  11.555   4.313   3.655
31633W        W 4058  26.602  44.763  14.009
31634W        W 4059  13.538   0.343   3.360
31635W        W 4060  28.941   3.213   0.943
31636W        W 4061  43.735  34.494  11.495
31637W        W 4062  35.574   1.326  12.386
31638W        W 4063  17.061  21.314   2.891
31639W        W 4064  28.658  12.140   3.116
31640W        W 4065  33.116   0.811  14.281
31641W        W 4066  41.585  14.152   3.886
31642W        W 4067  12.370  25.551  11.507
31643W        W 4068  29.352  35.348   0.726
31644W        W 4069  43.670  22.058  13.022
31645W        W 4070  32.724   4.494   3.516
31646W        W 4071  34.899   4.908   1.363
31647W        W 4072  14.046  38.837  10.779
31648W        W 4073  29.179  11.085  11.501
31649W        W 4074  11.185   2.456  13.435
31650W        W 4075  20.845  25.090   2.193
31651W        W 4076  25.165   0.308  12.671
31652W        W 4077  34.120  30.824  11.619
31653W        W 4078  30.030  29.455  11.046
31654W        W 4079  36.886  40.770  13.393
31655W        W 4080  40.788  32.608   4.458
31656W        W 4081   3.928  12.837  10.745
31657W        W 4082  30.732  34.194   0.611
31658W        W 4083  19.508  25.672   1.300
31659W        W 4084  41.974  18.070  13.237
31660W        W 4085  22.721  34.750   3.361
31661W        W 4086  33.273   6.119   0.975
31662W        W 4087  31.382  32.165   3.142
31663W        W 4088  35.037  31.936  14.706
31664W        W 4089  34.421  16.539  11.941
31665W        W 4090  10.603  29.010  12.048
31666W        W 4091  26.599  34.970  13.393
31667W        W 4092  22.754  32.676  12.044
31668W        W 4093  12.574  21.072  13.508
31669W        W 4094  28.653  36.518   1.333
31670W        W 4095   9.441  42.731  11.974
31671W        W 4096  23.736  41.391  13.307
31672W        W 4097  29.653  11.291  11.615
31673W        W 4098  13.490  33.337   2.591
31674W        W 4099   0.989  24.996  14.331
31675W        W 4100  42.195  16.343   4.943
31676W        W 4101   6.860   0.428   2.918
31677W        W 4102  42.244  15.674   3.294
31678W        W 4103  18.756  35.967  14.357
31679W        W 4104  43.067  16.539  11.226
31680W        W 4105  41.838  18.182  12.340
31681W        W 4106   0.458  18.497  13.044
31682W        W 4107   0.369  11.239  10.848
31683W        W 4108  30.868   3.598  11.961
31684W        W 4109   7.304  28.303   2.854
31685W        W 4110  10.202  10.062  14.076
31686W        W 4111  17.846  29.495  14.377
31687W        W 4112  14.455  24.492  12.115
31688W        W 4113  14.661  39.937   3.603
31689W        W 4114  34.026  11.036   2.899
31690W        W 4115  25.707  42.831   3.183
31691W        W 4116  23.904   4.932  13.941
31692W        W 4117   7.139  38.930   0.743
31693W        W 4118  23.955  19.950  12.908
31694W        W 4119  24.484  28.635   2.356
31695W        W 4120  43.790  32.863  13.884
31696W        W 4121  30.498  12.634   3.553
31697W        W 4122  14.366   9.829   1.830
31698W        W 4123  22.692  31.667  12.824
31699W        W 4124  31.734  29.065   2.270
31700W        W 4125  18.571  28.585   2.259
31701W        W 4126   8.215   8.962  14.888
31702W        W 4127  31.883  30.149   4.365
31703W        W 4128  35.355  31.052  12.916
31704W        W 4129  19.612  44.342   0.256
31705W        W 4130  13.351   3.306  13.452
31706W        W 4131  27.215  12.088   2.608
31707W        W 4132  23.206   7.055  13.572
31708W        W 4133  13.177  17.016   0.853
31709W        W 4134  33.588   2.864   0.314
31710W        W 4135   0.213   5.139   3.369
31711W        W 4136  13.226   8.694   0.658
31712W        W 4137  30.168  13.679  11.995
31713W        W 4138   5.296  34.599  10.342
31714W        W 4139  35.342  25.649  12.024
31715W        W 4140   3.807  10.103  12.070
31716W        W 4141  27.437   4.986   2.253
31717W        W 4142  25.866   0.009  13.455
31718W        W 4143   2.995  40.798   2.427
31719W        W 4144  42.234  31.637  13.329
31720W        W 4145  16.216  35.354  12.548
31721W        W 4146  28.726  11.150   3.160
31722W        W 4147  34.499  30.721   4.102
31723W        W 4148  15.622  35.049  11.119
31724W        W 4149  42.404  20.880   4.644
31725W        W 4150  21.145  31.604  12.896
31726W        W 4151  39.346  38.359  14.834
31727W        W 4152  37.855  22.902   1.278
31728W        W 4153  37.903   9.754  13.355
31729W        W 4154  15.881  43.927  14.845
31730W        W 4155  41.932  11.165  14.817
31731W        W 4156  15.585  29.675  11.995
31732W        W 4157  29.610  23.586   4.255
31733W        W 4158  17.341  32.021   2.348
31734W        W 4159  22.082   6.772  14.800
31735W        W 4160   5.830  20.991  11.005
31736W        W 4161  12.030  36.380  13.973
31737W        W 4162  25.711  12.785  13.979
31738W        W 4163   8.856  44.785  13.453
31739W        W 4164  15.560  15.559   2.091
31740W        W 4165   6.844  20.119   4.145
31741W        W 4166  12.380   4.791  12.092
31742W        W 4167  24.976  35.069  10.543
31743W        W 4168  43.158  31.861   2.871
31744W        W 4169  17.393  41.079   1.587
31745W        W 4170  42.240   8.978  10.723
31746W        W 4171   4.666  38.988  13.003
31747W        W 4172  21.577   7.612   1.716
31748W        W 4173  10.853  12.321  13.566
31749W        W 4174  20.151  14.812  12.137
31750W        W 4175  40.139  38.278   0.814
31751W        W 4176   9.955  26.562  12.864
31752W        W 4177  13.179  21.559  14.547
31753W        W 4178  26.555   5.838   0.468
31754W        W 4179  34.137  35.726  12.596
31755W        W 4180  17.498   6.755  11.665
31756W        W 4181  32.653  30.478   4.730
31757W        W 4182  34.918  20.949   3.173
31758W        W 4183  35.787  14.295  14.191
31759W        W 4184  16.174  35.875  12.368
31760W        W 4185  44.269  24.273  12.893
31761W        W 4186  29.400  23.969  12.059
31762W        W 4187   8.634  40.795  12.379
31763W        W 4188  43.707  12.432   0.771
31764W        W 4189  28.161  29.066   0.840
31765W        W 4190   4.516  41.968   1.418
31766W        W 4191  30.020  40.731  14.900
31767W        W 4192  14.303   9.426   0.299
31768W        W 4193  18.596  42.458   4.704
31769W        W 4194  29.845  29.243   1.823
31770W        W 4195  41.335  44.362  11.464
31771W        W 4196  17.506  27.631   4.556
31772W        W 4197  33.317  41.816   4.771
31773W        W 4198   0.394   9.768  11.553
31774W        W 4199  43.818  28.254   2.688
31775W        W 4200  21.257   7.715   2.122
31776W        W 4201  18.931  38.302  13.002
31777W        W 4202  21.111  37.140   4.014
31778W        W 4203  18.830  28.639  13.571
31779W        W 4204  30.072  34.361  14.352
31780W        W 4205  40.279  26.467   0.544
31781W        W 4206  35.333  44.925   1.321
31782W        W 4207   6.831   0.270  13.439
31783W        W 4208  21.599  13.788  12.038
31784W        W 4209  15.403  14.050  14.094
31785W        W 4210  19.810  10.924  13.530
31786W        W 4211  22.969  40.501   3.465
31787W        W 4212  31.646  22.377   0.964
31788W        W 4213  27.511  37.934  11.731
31789W        W 4214  12.927  16.684   2.805
31790W        W 4215   9.410   6.999   2.302
31791W        W 4216  32.031  34.585  10.885
31792W        W 4217  25.540  43.028  13.020
31793W        W 4218  36.479   0.327   3.691
31794W        W 4219  14.291  10.685  13.023
31795W        W 4220  19.055  28.987  11.153
31796W        W 4221  43.525   4.296   1.261
31797W        W 4222  37.262  39.160   0.397
31798W        W 4223  13.222  44.023  14.955
31799W        W 4224  15.479  32.288   2.361
31800W        W 4225  42.096  27.100  11.593
31801W        W 4226  40.121  41.110   2.137
31802W        W 4227   4.737  15.097   0.342
31803W        W 4228  22.127  13.397   3.745
31804W        W 4229   2.318  22.669   5.009
31805W        W 4230  42.772  39.040   5.278
31806W        W 4231  13.078  22.292  14.016
31807W        W 4232  15.307   9.076   4.064
31808W        W 4233   7.321  21.508  14.781
31809W        W 4234   8.581  32.419   1.198
31810W        W 4235  10.607   3.322  12.519
31811W        W 4236  44.821  37.873  11.611
31812W        W 4237  12.055  29.723  14.146
31813W        W 4238  24.142  16.662  11.211
31814W        W 4239  24.193  35.035  12.518
31815W        W 4240  30.416  38.120   2.662
31816W        W 4241  36.530  31.101   2.246
31817W        W 4242   0.718  19.330   2.256
31818W        W 4243  35.718  38.184  11.177
31819W        W 4244   2.923  38.526  14.788
31820W        W 4245   4.608  12.803   1.441
31821W        W 4246  44.427  41.585   3.898
31822W        W 4247  22.486   6.226  14.812
31823W        W 4248  33.057  36.452  13.035
31824W        W 4249  22.763  17.983  11.093
31825W        W 4250  16.082  16.621   2.803
31826W        W 4251  37.554  40.793  14.037
31827W        W 4252  37.787  34.079   0.926
31828W        W 4253  12.786   7.926  14.573
31829W        W 4254  27.532  11.639  11.272
31830W        W 4255  40.017  15.712   1.933
31831W        W 4256  17.961  10.514   3.588
31832W        W 4257  12.254  29.444   3.711
31833W        W 4258   8.512  17.281  11.989
31834W        W 4259  20.105  43.975   3.151
31835W        W 4260   4.100  43.766   0.404
31836W        W 4261  17.751  26.154   3.205
31837W        W 4262  13.361  25.873   0.820
31838W        W 4263  43.933  18.809  14.793
31839W        W 4264  10.113  39.434  12.367
31840W        W 4265  11.118  36.005   0.575
31841W        W 4266  25.980  10.171   4.080
31842W        W 4267  33.596   6.384  13.041
31843W        W 4268  27.458   9.847  11.611
31844W        W 4269  13.640  21.285   3.155
31845W        W 4270  39.770  34.513  10.311
31846W        W 4271  35.494  21.731  14.674
31847W        W 4272  14.587  29.574   4.197
31848W        W 4273  34.411  30.874   1.350
31849W        W 4274  41.697   5.255   2.770
31850W        W 4275  10.108  30.114   1.931
31851W        W 4276   6.241  18.427  10.334
31852W        W 4277  37.298   2.831   0.846
31853W        W 4278  13.662  13.789  11.378
31854W        W 4279  13.166  37.648   3.693
31855W        W 4280  36.099   4.715  10.623
31856W        W 4281   7.865  27.631  14.371
31857W        W 4282  32.830  36.504  10.643
31858W        W 4283  35.502  28.693   2.861
31859W        W 4284  21.280  30.109   4.986
31860W        W 4285  10.782  42.304   3.857
31861W        W 4286  30.075  38.290  13.481
31862W        W 4287  42.391  42.960  12.815
31863W        W 4288  13.619  24.741  11.676
31864W        W 4289  26.213   2.949  11.979
31865W        W 4290  27.788  26.134   4.684
31866W        W 4291  31.495  18.669   0.981
31867W        W 4292   0.037  13.736  12.454
31868W        W 4293  38.319  41.839   1.908
31869W        W 4294  42.103  29.605   4.151
31870W        W 4295   6.353   5.407   4.234
31871W        W 4296  43.008  23.737  11.183
31872W        W 4297  11.160  33.855   0.742
31873W        W 4298  34.465  39.565   0.512
31874W        W 4299  26.225   1.863  14.260
31875W        W 4300   2.524   5.924   0.482
31876W        W 4301  18.694  23.423  11.183
31877W        W 4302  26.548  21.787  14.339
31878W        W 4303  15.187  41.028  13.355
31879W        W 4304  39.057  32.124  12.438
31880W        W 4305   5.684  37.084  13.970
31881W        W 4306  28.635  28.091   3.168
31882W        W 4307  31.989  26.758  13.190
31883W        W 4308  22.068  31.016   2.714
31884W        W 4309  37.914   4.232  10.998
31885W        W 4310  14.601   6.233  10.899
31886W        W 4311  24.013  40.599  12.658
31887W        W 4312   3.415   2.501   4.564
31888W        W 4313  16.145  16.597  11.896
31889W        W 4314  15.261  18.643  12.722
31890W        W 4315   7.627  25.552  10.345
31891W        W 4316  11.335  31.640   1.817
31892W        W 4317   0.706  10.563  11.552
31893W        W 4318  12.571   6.925   3.663
31894W        W 4319  28.343  36.324  13.839
31895W        W 4320  13.195  16.876  12.986
31896W        W 4321  14.128  29.181   0.398
31897W        W 4322  33.563   3.271  10.643
31898W        W 4323   0.289  28.717  14.542
31899W        W 4324  19.229  37.119   2.274
31900W        W 4325  38.835  12.372   3.171
31901W        W 4326  38.987  37.994   4.067
31902W        W 4327  21.738  17.523   2.008
31903W        W 4328  36.788  40.305   2.322
31904W        W 4329  18.652  33.838  10.646
31905W        W 4330  21.350  42.559  13.387
31906W        W 4331  25.054  41.594   1.176
31907W        W 4332  19.064  43.053   4.163
31908W        W 4333   7.533  22.286  12.937
31909W        W 4334  37.304   9.642   1.393
31910W        W 4335  14.442  24.036   0.469
31911W        W 4336  39.430  11.149   3.105
31912W        W 4337  36.557  42.795   1.713
31913W        W 4338  18.257  41.220   4.070
31914W        W 4339  44.977  23.558   0.504
31915W        W 4340  42.500  10.282  11.957
31916W        W 4341  13.224  44.275   4.610
31917W        W 4342  22.632  12.728  13.020
31918W        W 4343  26.195  24.217   0.484
31919W        W 4344  44.801  31.659   0.257
31920W        W 4345   0.803   7.646   0.442
31921W        W 4346  30.479   9.119  12.491
31922W        W 4347  36.650  37.713   2.194
31923W        W 4348  29.862   5.390   0.860
31924W        W 4349  15.757  30.174  13.817
31925W        W 4350   6.962  17.657  13.038
31926W        W 4351  29.050  21.089   2.260
31927W        W 4352  24.235   5.796   0.898
31928W        W 4353  28.036  33.084  10.554
31929W        W 4354  32.554  26.079   1.451
31930W        W 4355  35.282  42.856  14.772
31931W        W 4356  37.079  11.692  10.992
31932W        W 4357   8.317  39.475   2.710
31933W        W 4358   5.496  44.811   0.800
31934W        W 4359  44.771   3.825  13.399
31935W        W 4360  24.607   6.589  13.373
31936W        W 4361  27.439  21.674  10.679
31937W        W 4362  30.372  22.119   0.367
31938W        W 4363  30.013   5.870  10.429
31939W        W 4364  18.139   4.891  11.954
31940W        W 4365  14.314  44.618   0.416
31941W        W 4366  25.238  19.174   2.778
31942W        W 4367  16.395  39.398   4.751
31943W        W 4368  24.637  41.402  14.881
31944W        W 4369  14.509  33.671  14.045
31945W        W 4370  11.320  26.984   1.713
31946W        W 4371  19.426  41.229   0.520
31947W        W 4372   2.654  35.780   0.792
31948W        W 4373  41.554  26.968   0.987
31949W        W 4374  33.986   2.180   3.659
31950W        W 4375  42.303  21.518   3.830
31951W        W 4376  19.161   1.448   0.040
31952W        W 4377  16.357  16.617  12.847
31953W        W 4378  23.255  12.502  14.148
31954W        W 4379  37.361  10.086   1.818
31955W        W 4380  32.310  19.591  11.427
31956W        W 4381  26.848  22.625  13.826
31957W        W 4382   5.229  22.080   4.269
31958W        W 4383  29.368  12.738  12.947
31959W        W 4384  32.070  38.873   1.822
31960W        W 4385  19.801   7.188   2.740
31961W        W 4386  42.169  30.012   3.829
31962W        W 4387  25.006   3.276  10.676
31963W        W 4388  43.043  25.576   4.156
31964W        W 4389  28.361  37.784   4.093
31965W        W 4390   5.925  13.019   4.238
31966W        W 4391  42.542   7.475  10.628
31967W        W 4392  33.697  28.568   1.838
31968W        W 4393  17.165  42.837  10.281
31969W        W 4394  40.747   9.700  10.730
31970W        W 4395  21.153  43.368   0.789
31971W        W 4396  26.026  31.229   4.634
31972W        W 4397   8.164  34.882   3.075
31973W        W 4398   2.286   1.732   2.876
31974W        W 4399   3.952  20.570  11.658
31975W        W 4400  23.430  19.568   2.785
31976W        W 4401  28.345  14.527  13.043
31977W        W 4402   4.020  33.159  13.071
31978W        W 4403  39.148  15.106  11.104
31979W        W 4404   9.194  21.782  13.927
31980W        W 4405  32.215   3.898  10.635
31981W        W 4406  44.423  41.748  10.632
31982W        W 4407  22.768   3.274   1.747
31983W        W 4408  37.893  16.821  11.223
31984W        W 4409  29.126   3.915   3.630
31985W        W 4410  10.786   9.765   4.663
31986W        W 4411   5.872  17.556  12.865
31987W        W 4412  43.985   9.781  10.923
31988W        W 4413   7.024  34.479  10.716
31989W        W 4414  19.498   2.551  12.016
31990W        W 4415  15.306  34.333  13.556
31991W        W 4416   9.262  33.709  10.769
31992W        W 4417  27.601  31.734  12.435
31993W        W 4418   9.963   4.744   3.294
31994W        W 4419   3.936  17.146   4.501
31995W        W 4420  17.997   4.788   0.411
31996W        W 4421  33.779  34.467   4.157
31997W        W 4422  24.882  15.690   0.893
31998W        W 4423  20.606   0.341  14.883
31999W        W 4424  30.962  40.957   3.870
32000W        W 4425   4.867  31.942  10.707
32001W        W 4426   3.544   6.183   4.885
32002W        W 4427  34.416  26.758   1.468
32003W        W 4428  33.514  31.895   2.333
32004W        W 4429  12.122  14.651   1.976
32005W        W 4430  39.531  15.726  12.483
32006W        W 4431  28.958  30.486  11.650
32007W        W 4432   9.743  24.192   1.951
32008W        W 4433   6.240  28.024  12.097
32009W        W 4434   6.875  39.921   4.237
32010W        W 4435  38.935   3.700  14.058
32011W        W 4436  20.489  40.282   3.249
32012W        W 4437  43.762   6.250   0.847
32013W        W 4438   8.412  37.563  11.122
32014W        W 4439  19.270  31.352   3.805
32015W        W 4440  26.032  27.504   3.848
32016W        W 4441  20.162  38.732   4.085
32017W        W 4442   6.794  26.079  13.127
32018W        W 4443  42.557  30.151   2.896
32019W        W 4444   1.795  22.543   2.514
32020W        W 4445  36.489  40.386   0.874
32021W        W 4446  24.892   2.867  14.048
32022W        W 4447   6.675   7.888  11.567
32023W        W 4448  10.773  15.707  11.167
32024W        W 4449  30.511   1.286  12.117
32025W        W 4450  36.926  11.974  14.343
32026W        W 4451  29.478  42.293  11.949
32027W        W 4452  32.670  36.577   4.643
32028W        W 4453  37.414  20.584  10.950
32029W        W 4454  24.979  10.915  14.467
32030W        W 4455  28.084  36.412  14.694
32031W        W 4456  13.752  22.432  10.047
32032W        W 4457  33.289  24.676   0.382
32033W        W 4458  32.605  33.492  10.905
32034W        W 4459  19.211  20.122  13.929
32035W        W 4460  20.836  32.185  13.024
32036W        W 4461   0.667  32.672   3.290
32037W        W 4462  22.853   5.121   2.192
32038W        W 4463   0.216   9.868  12.910
32039W        W 4464  42.552  40.912   5.032
32040W        W 4465   9.872  28.467  13.927
32041W        W 4466   3.614  42.946  10.367
32042W        W 4467  25.969  23.078  10.506
32043W        W 4468  44.667  30.652   4.915
32044W        W 4469  22.780  16.660   2.895
32045W        W 4470   1.161  38.959  11.988
32046W        W 4471  29.091  28.972  10.659
32047W        W 4472  11.731  30.965  14.365
32048W        W 4473   9.638   7.727  14.602
32049W        W 4474   6.210  23.046  14.516
32050W        W 4475  38.875  40.794   0.382
32051W        W 4476  39.587  15.802  11.650
32052W        W 4477  25.433   8.569  12.044
32053W        W 4478  44.349   6.304   0.195
32054W        W 4479  34.379   9.129  13.248
32055W        W 4480   6.785  33.712   1.367
32056W        W 4481  35.431  38.075   2.290
32057W        W 4482  36.948  40.635  14.621
32058W        W 4483  40.667   7.764   4.780
32059W        W 4484  38.695  16.011   2.910
32060W        W 4485  39.681   4.981   0.092
32061W        W 4486  25.617  24.916   0.409
32062W        W 4487   6.418  30.651   2.801
32063W        W 4488  18.599  23.417  13.076
32064W        W 4489  44.296  24.041   0.254
32065W        W 4490  32.503  43.496   4.679
32066W        W 4491  40.091  42.716  11.158
32067W        W 4492  20.090  36.854   4.570
32068W        W 4493  18.123  12.635  13.567
32069W        W 4494  21.241  31.726  11.876
32070W        W 4495  36.213  40.562  14.899
32071W        W 4496  18.797  26.329  11.576
32072W        W 4497  24.203  16.378  13.040
32073W        W 4498   9.935  12.086  11.059
32074W        W 4499  12.780  26.928  12.208
32075W        W 4500  38.172  18.757  11.136
32076W        W 4501   3.285  30.040  14.267
32077W        W 4502  17.264  28.676  10.683
32078W        W 4503   5.197  10.891   4.541
32079W        W 4504  24.870   5.952  11.611
32080W        W 4505   5.436   5.338   2.759
32081W        W 4506   4.348  35.150  14.365
32082W        W 4507  24.214   4.659  10.705
32083W        W 4508  26.513  32.188   9.830
32084W        W 4509  20.658  31.511  12.474
32085W        W 4510  28.691   5.709   1.353
32086W        W 4511  21.764   6.003   1.875
32087W        W 4512  27.518  24.606   1.176
32088W        W 4513  20.658   8.050   0.925
32089W        W 4514   7.141  32.090  10.328
32090W        W 4515   9.649  24.603   0.150
32091W        W 4516  14.134   6.907  11.541
32092W        W 4517  16.044  12.995  13.099
32093W        W 4518  18.289  17.413   1.304
32094W        W 4519  11.253  20.624   4.541
32095W        W 4520  26.364  19.774   0.478
32096W        W 4521  40.615  39.372   3.686
32097W        W 4522  13.604  38.282   2.890
32098W        W 4523  41.855  32.655  11.052
32099W        W 4524  21.450  23.136  11.451
32100W        W 4525  23.297  10.268   0.200
32101W        W 4526  27.568  32.249  12.386
32102W        W 4527  22.693  31.822   2.676
32103W        W 4528  28.066  21.478   4.057
32104W        W 4529   6.907  38.741   4.767
32105W        W 4530  37.861  12.180   2.182
32106W        W 4531  38.589   2.592   3.760
32107W        W 4532  13.167  43.516  14.999
32108W        W 4533  10.825   8.177   4.639
32109W        W 4534   5.936  30.335   1.343
32110W        W 4535  44.042  16.180  11.055
32111W        W 4536   1.159  38.701   0.261
32112W        W 4537  16.291  11.738  11.925
32113W        W 4538  38.858  41.891  13.695
32114W        W 4539  12.658  18.334  11.108
32115W        W 4540  15.594  21.627  10.321
32116W        W 4541  42.250  42.333  11.155
32117W        W 4542  21.162  42.094   1.373
32118W        W 4543  16.269  42.870   4.172
32119W        W 4544  23.154   2.382   1.932
32120W        W 4545   8.441  23.046   3.650
32121W        W 4546   7.963  16.778  10.810
32122W        W 4547  32.359  10.301   2.614
32123W        W 4548  41.524   5.932  12.128
32124W        W 4549  28.345  32.502  13.900
32125W        W 4550  38.295  31.090  12.977
32126W        W 4551  22.051  33.375   4.173
32127W        W 4552  31.034  40.590   4.630
32128W        W 4553  15.582  37.776   0.832
32129W        W 4554  17.244  35.896   3.365
32130W        W 4555   1.897  21.160   2.642
32131W        W 4556  33.556  10.251   2.327
32132W        W 4557   4.250  34.726  14.014
32133W        W 4558  36.464  44.330  12.375
32134W        W 4559  34.024  21.971  14.290
32135W        W 4560  37.257  20.790  12.614
32136W        W 4561  13.520  22.737   3.625
32137W        W 4562  19.567  44.726  10.461
32138W        W 4563   7.989   1.277  14.549
32139W        W 4564  39.429   3.334   4.644
32140W        W 4565   4.686  12.761   4.610
32141W        W 4566  10.208   1.290   0.537
32142W        W 4567   3.566  18.308  13.702
32143W        W 4568  21.993  40.093  11.140
32144W        W 4569   7.848  44.895   1.752
32145W        W 4570  43.403  14.822  14.835
32146W        W 4571  33.166  43.796  10.895
32147W        W 4572  16.703  43.198   3.279
32148W        W 4573   5.267  39.495   4.340
32149W        W 4574   8.340  34.566  11.018
32150W        W 4575   2.213   9.298   4.232
32151W        W 4576  18.113   3.290  14.349
32152W        W 4577  35.516  10.133  13.484
32153W        W 4578  35.044  14.170   0.953
32154W        W 4579  39.339   6.889  13.536
32155W        W 4580  21.853   5.886   1.380
32156W        W 4581  25.672  42.051   1.210
32157W        W 4582  22.462  11.650  13.045
32158W        W 4583   9.591   6.628  13.519
32159W        W 4584  14.790  15.631   1.683
32160W        W 4585  33.446  20.267   0.457
32161W        W 4586  14.438  33.677   1.341
32162W        W 4587  12.812  21.899  12.419
32163W        W 4588  17.209   0.539  13.303
32164W        W 4589   6.773  23.482   3.719
32165W        W 4590  19.170  32.806  12.885
32166W        W 4591  16.387  30.138   1.697
32167W        W 4592  28.105  30.768  14.254
32168W        W 4593  27.849   0.288  13.750
32169W        W 4594  38.872  27.291   4.099
32170W        W 4595  23.750  13.290  12.388
32171W        W 4596   8.578  33.695  11.915
32172W        W 4597  35.953  18.982   3.905
32173W        W 4598  18.166  26.432   3.806
32174W        W 4599  23.191  29.103   2.658
32175W        W 4600  37.278  17.057   1.386
32176W        W 4601   5.684  42.108  12.713
32177W        W 4602  21.672  44.289   0.819
32178W        W 4603  43.880  14.769   4.231
32179W        W 4604  22.514  25.699   4.204
32180W        W 4605  43.024  38.343  11.209
32181W        W 4606  38.598   3.357  11.619
32182W        W 4607   2.724   4.814   2.727
32183W        W 4608  21.470  44.563   3.294
32184W        W 4609  44.016  16.326  14.266
32185W        W 4610  23.505   6.702   3.611
32186W        W 4611  20.761  29.647  14.764
32187W        W 4612  38.548  19.265   0.324
32188W        W 4613  25.078   5.138  12.252
32189W        W 4614  25.188   8.982   2.309
32190W        W 4615  33.960  43.732   3.709
32191W        W 4616  32.323   8.104   1.510
32192W        W 4617  25.710  33.418  14.537
32193W        W 4618   7.338   0.669   1.320
32194W        W 4619   7.543  41.421   0.558
32195W        W 4620   3.353  18.549   1.101
32196W        W 4621  23.983  14.250  14.907
32197W        W 4622  12.881   2.191  10.726
32198W        W 4623  43.892  17.584   4.269
32199W        W 4624  41.307  19.711  14.497
32200W        W 4625  26.616  31.167   0.215
32201W        W 4626  42.106   0.800  13.391
32202W        W 4627  39.286  43.855  11.815
32203W        W 4628  16.082  31.483   2.461
32204W        W 4629   1.802  26.599  14.498
32205W        W 4630  14.795   5.800   4.666
32206W        W 4631  25.244  28.712   3.645
32207W        W 4632  29.537  39.525  12.139
32208W        W 4633  24.005  38.870   2.939
32209W        W 4634  11.703   0.828   4.022
32210W        W 4635  22.924  34.897  11.952
32211W        W 4636  34.064   9.735   2.087
32212W        W 4637  27.231   0.358   0.378
32213W        W 4638  10.273   1.003   3.329
32214W        W 4639  26.304   1.383   1.438
32215W        W 4640  25.485  25.911  12.914
32216W        W 4641  27.563  22.240  11.844
32217W        W 4642   8.253  28.007   1.069
32218W        W 4643  24.174  19.035  13.743
32219W        W 4644  28.487  39.471  13.796
32220W        W 4645  42.789   7.586   4.640
32221W        W 4646  39.856  38.931   1.901
32222W        W 4647  28.542  36.542   4.855
32223W        W 4648  25.492  23.985   1.221
32224W        W 4649   5.947  26.286  13.844
32225W        W 4650   5.416  21.217   2.426
32226W        W 4651  16.409  22.263   0.817
32227W        W 4652   3.342  27.232   3.216
32228W        W 4653  13.291   2.924   0.322
32229W        W 4654  26.928   8.136   1.688
32230W        W 4655  39.741  16.270   1.483
32231W        W 4656  27.561  37.421  13.420
32232W        W 4657   1.257  17.648   0.373
32233W        W 4658  10.031  28.406   2.601
32234W        W 4659  44.338  25.940  11.759
32235W        W 4660  34.112  14.505   3.592
32236W        W 4661  33.387  23.214  14.404
32237W        W 4662  19.513  33.346   4.120
32238W        W 4663  41.832  36.984  10.800
32239W        W 4664   6.975  30.184  11.636
32240W        W 4665  39.866   0.552   1.821
32241W        W 4666  14.095  30.972   1.774
32242W        W 4667  17.586  23.054  10.709
32243W        W 4668   1.234  27.562  12.741
32244W        W 4669  34.460  43.909  11.102
32245W        W 4670  11.799  24.224  11.458
32246W        W 4671  38.785  43.486   0.761
32247W        W 4672  14.896   0.332  11.154
32248W        W 4673  24.664  19.653  12.290
32249W        W 4674  18.632   5.822   2.942
32250W        W 4675  26.090   5.292   1.338
32251W        W 4676  30.008  26.593  10.456
32252W        W 4677  12.335  29.111   0.764
32253W        W 4678   6.838  42.583   3.195
32254W        W 4679  12.685  29.681   2.531
32255W        W 4680   1.285  36.098  13.471
32256W        W 4681  37.033  27.137   1.342
32257W        W 4682  14.338  13.598   4.595
32258W        W 4683  18.334  30.636   5.074
32259W        W 4684  36.831   1.833  10.905
32260W        W 4685  32.989  19.283   1.751
32261W        W 4686  16.828  33.941   4.577
32262W        W 4687  34.537  37.598  13.051
32263W        W 4688  11.783  11.129  12.625
32264W        W 4689  11.515  18.541  11.537
32265W        W 4690  39.465  26.731   4.810
32266W        W 4691  10.190  23.822   0.310
32267W        W 4692  23.634   3.986  13.018
32268W        W 4693  40.296  39.788   5.015
32269W        W 4694   2.706  28.518  12.889
32270W        W 4695  40.233   1.483  11.088
32271W        W 4696  18.658  28.208   1.782
32272W        W 4697  10.322  38.860  12.922
32273W        W 4698   9.953  16.270   1.442
32274W        W 4699   6.228  21.054   0.242
32275W        W 4700  41.478  25.410   4.169
32276W        W 4701  21.604  33.791  12.896
32277W        W 4702  28.115  23.412   3.895
32278W        W 4703   9.561  33.207   4.489
32279W        W 4704  37.265   4.187   3.823
32280W        W 4705  15.202  20.991   1.470
32281W        W 4706   3.930  37.123  11.911
32282W        W 4707   8.198   6.760   1.671
32283W        W 4708  37.328   6.566  11.031
32284W        W 4709   2.410  28.820   2.869
32285W        W 4710  36.973  31.016  10.614
32286W        W 4711  23.809  11.656  11.532
32287W        W 4712   1.062  14.338  12.118
32288W        W 4713  43.759  16.659   0.678
32289W        W 4714  19.070  10.801   1.359
32290W        W 4715  23.646  36.368  11.623
32291W        W 4716   3.901   2.543   2.868
32292W        W 4717  12.306  24.680   3.813
32293W        W 4718  20.244  13.361  12.748
32294W        W 4719  40.411  13.431   0.971
32295W        W 4720   8.823  44.267   0.841
32296W        W 4721  21.456  40.095  12.539
32297W        W 4722  35.168   4.204  12.400
32298W        W 4723  25.610  44.676  12.514
32299W        W 4724  22.482   6.630   3.643
32300W        W 4725  44.440  27.096   4.546
32301W        W 4726  30.966  41.175  10.249
32302W        W 4727   9.867  31.170  14.871
32303W        W 4728  13.615   1.487  12.985
32304W        W 4729   8.245  16.342  11.977
32305W        W 4730  28.031  30.146  10.830
32306W        W 4731  18.730  44.815   4.345
32307W        W 4732  11.364  19.418  12.635
32308W        W 4733   6.346   4.658   1.283
32309W        W 4734  25.062  26.063  11.555
32310W        W 4735   9.617  22.168   2.160
32311W        W 4736   8.850  38.410  10.647
32312W        W 4737  33.046  30.439   1.249
32313W        W 4738  19.726   3.657   2.624
32314W        W 4739  11.311  39.021  10.795
32315W        W 4740  12.218  33.208  14.271
32316W        W 4741  24.533  14.601  12.888
32317W        W 4742  10.277  38.518  12.070
32318W        W 4743  10.780   2.678   0.182
32319W        W 4744  27.198  40.814  14.466
32320W        W 4745   2.752  19.200   3.685
32321W        W 4746  22.329   8.008   4.126
32322W        W 4747  38.022  29.949   4.720
32323W        W 4748   7.689   2.718   1.887
32324W        W 4749  40.492  27.341   1.810
32325W        W 4750  23.329  11.817  10.062
32326W        W 4751  34.597   7.828  14.372
32327W        W 4752  16.801  14.233   4.566
32328W        W 4753  34.519   1.772   0.024
32329W        W 4754  23.201  39.461   2.852
32330W        W 4755  29.477  15.344   3.892
32331W        W 4756  25.258  14.555  14.952
32332W        W 4757   6.268  33.539   1.321
32333W        W 4758   2.015  32.882   2.486
32334W        W 4759   8.869  20.158   2.732
32335W        W 4760   9.257  34.817   2.831
32336W        W 4761   0.244  11.127  13.871
32337W        W 4762   3.663  30.526  14.958
32338W        W 4763  24.660  13.165  10.963
32339W        W 4764   4.280  15.604   4.006
32340W        W 4765  11.132   6.468  13.916
32341W        W 4766   7.947  44.972  12.490
32342W        W 4767   7.844  10.995  14.678
32343W        W 4768  26.309  39.103   2.276
32344W        W 4769  19.327  19.197  12.421
32345W        W 4770  28.596  39.270   4.535
32346W        W 4771  16.121  40.437  14.933
32347W        W 4772  40.944  42.257   5.794
32348W        W 4773  35.126  42.454   0.094
32349W        W 4774  36.592  14.573  11.942
32350W        W 4775  39.036  42.283   2.393
32351W        W 4776  10.084   5.235  10.554
32352W        W 4777   0.028  12.226  14.957
32353W        W 4778  26.604  13.488   4.950
32354W        W 4779  22.236  18.639  10.715
32355W        W 4780   0.751   9.934  10.950
32356W        W 4781  14.293  27.684  11.503
32357W        W 4782  21.639  30.524  10.313
32358W        W 4783  13.665  24.731   1.628
32359W        W 4784   7.374  17.238   1.403
32360W        W 4785   5.969  25.113  11.993
32361W        W 4786  28.476  36.710  14.804
32362W        W 4787   0.785   3.892  10.587
32363W        W 4788  29.468  24.713   1.818
32364W        W 4789  11.794   9.786  12.011
32365W        W 4790  15.292  11.318  12.163
32366W        W 4791   7.703  19.727  13.083
32367W        W 4792  39.163   0.386   3.315
32368W        W 4793  34.089  25.771   3.646
32369W        W 4794  20.526  39.929   3.630
32370W        W 4795   1.874   9.417  12.009
32371W        W 4796  44.684  21.160  10.883
32372W        W 4797  10.265  18.240  12.928
32373W        W 4798  44.272  21.448  11.502
32374W        W 4799  13.756   0.359   4.250
32375W        W 4800  10.796   9.707  13.018
32376W        W 4801   7.620  39.049  10.727
32377W        W 4802   0.242  19.577   2.271
32378W        W 4803  40.315  32.679  14.976
32379W        W 4804  40.494  43.743  14.238
32380W        W 4805  40.018  34.839   2.259
32381W        W 4806   2.982  11.483   1.458
32382W        W 4807  29.276  15.741   2.706
32383W        W 4808  24.574  37.810  13.780
32384W        W 4809  34.592  16.883  14.586
32385W        W 4810  44.303  21.003   1.660
32386W        W 4811  26.211   5.886   2.504
32387W        W 4812  30.408  35.040   3.736
32388W        W 4813  26.586   9.900   4.809
32389W        W 4814  23.938  19.771   0.235
32390W        W 4815  30.644  35.951   4.656
32391W        W 4816  37.351  43.544  10.715
32392W        W 4817  24.334  44.916   3.730
32393W        W 4818  37.338  28.035   2.615
32394W        W 4819  40.348  21.036  13.248
32395W        W 4820  10.890   1.743  14.545
32396W        W 4821  14.086   6.430   3.533
32397W        W 4822   7.189  34.097  11.029
32398W        W 4823  18.537  34.580   2.815
32399W        W 4824  21.477  18.816   0.505
32400W        W 4825  31.534  43.412  10.460
32401W        W 4826   0.830  41.491   1.702
32402W        W 4827  27.599  18.272   3.948
32403W        W 4828   0.273  41.269   1.453
32404W        W 4829  29.410   3.520   0.891
32405W        W 4830  32.369  30.505  10.620
32406W        W 4831   9.342  19.757   4.356
32407W        W 4832  24.537   7.119  12.561
32408W        W 4833  32.659   0.927   0.413
32409W        W 4834  36.984  41.071   1.808
32410W        W 4835   3.801   9.146  10.535
32411W        W 4836   5.325  18.946   4.541
32412W        W 4837  24.068  29.872  13.406
32413W        W 4838  40.417  11.940   0.807
32414W        W 4839  39.553   9.412  10.696
32415W        W 4840  17.447  24.270   4.102
32416W        W 4841  21.653  42.756   2.819
32417W        W 4842  30.876  40.493   3.632
32418W        W 4843   5.030  34.373   0.720
32419W        W 4844  17.490  37.454  12.606
32420W        W 4845  36.001   5.409   0.463
32421W        W 4846  35.090   8.922   2.338
32422W        W 4847  16.657  15.522   0.848
32423W        W 4848  15.119  20.508  14.921
32424W        W 4849   5.495  23.223   3.749
32425W        W 4850   0.055  27.759   3.187
32426W        W 4851  20.593  38.057   3.391
32427W        W 4852  39.052  33.668  13.940
32428W        W 4853  14.796  22.481   3.290
32429W        W 4854   7.164  14.502   3.723
32430W        W 4855  23.176  40.539  12.830
32431W        W 4856  41.274  32.479  13.786
32432W        W 4857   2.612  37.587   4.163
32433W        W 4858  20.374  36.929   2.583
32434W        W 4859  16.753  16.322   1.342
32435W        W 4860  29.377  34.081  10.980
32436W        W 4861  16.776   3.132  13.966
32437W        W 4862  10.052  27.713   3.160
32438W        W 4863  27.501   5.413  12.362
32439W        W 4864  13.222  32.933  12.038
32440W        W 4865  27.688  21.129   1.656
32441W        W 4866   9.957  19.616  13.672
32442W        W 4867   8.194  40.299   1.476
32443W        W 4868  37.796  12.667  13.059
32444W        W 4869  38.041   2.301  10.410
32445W        W 4870  12.348  26.524   1.041
32446W        W 4871  39.948   6.226  13.081
32447W        W 4872  23.095   2.639   1.486
32448W        W 4873   6.438   5.213   2.796
32449W        W 4874   0.391  31.940   1.230
32450W        W 4875  23.454  28.112   2.832
32451W        W 4876   0.775  24.765   4.022
32452W        W 4877   8.372   6.981  12.439
32453W        W 4878  40.106  39.340   2.812
32454W        W 4879  27.563  31.014   1.704
32455W        W 4880  27.195   7.094   0.326
32456W        W 4881   3.966  37.057  10.612
32457W        W 4882   9.452  38.895  12.548
32458W        W 4883  17.725  19.136  10.944
32459W        W 4884   1.985  36.033   1.324
32460W        W 4885  36.160  31.400  13.016
32461W        W 4886  38.562  12.342  12.648
32462W        W 4887  19.113  10.897   0.118
32463W        W 4888  33.386  29.028   9.883
32464W        W 4889  27.229  44.027  14.312
32465W        W 4890  31.872  22.579   0.301
32466W        W 4891  30.055  15.119   1.749
32467W        W 4892  20.076  21.740   4.716
32468W        W 4893  17.337  27.640  14.347
32469W        W 4894   9.883  36.446  11.479
32470W        W 4895  42.484  12.340   1.775
32471W        W 4896  27.511  31.240   2.657
32472W        W 4897   4.807  44.804  13.044
32473W        W 4898   7.325  43.950  13.954
32474W        W 4899  15.846   7.258   0.424
32475W        W 4900   9.975  11.176   1.436
32476W        W 4901   4.681   3.092  10.207
32477W        W 4902  26.998  40.213   3.587
32478W        W 4903  44.950  42.297   2.181
32479W        W 4904  41.471  36.450   0.709
32480W        W 4905  11.295  34.929  12.354
32481W        W 4906  10.923  19.649   0.729
32482W        W 4907  28.646  15.845   4.776
32483W        W 4908  19.814  38.964   4.865
32484W        W 4909  37.407  41.612  13.296
32485W        W 4910  18.134  31.705   4.213
32486W        W 4911  11.816  42.741   2.891
32487W        W 4912   3.166  26.202   2.302
32488W        W 4913  36.084   3.359   0.332
32489W        W 4914  41.471  32.185   1.887
32490W        W 4915  23.100  36.014  13.499
32491W        W 4916   5.141   0.769  13.021
32492W        W 4917  43.169  25.695   2.124
32493W        W 4918  38.333  37.017   3.807
32494W        W 4919  44.538  20.660  14.866
32495W        W 4920  33.445   2.451   4.791
32496W        W 4921  22.320   7.389   4.171
32497W        W 4922   2.711  20.787  13.453
32498W        W 4923  38.905  20.932  14.769
32499W        W 4924  30.900  38.386  11.066
32500W        W 4925  43.726  17.640   2.265
32501W        W 4926   3.904   7.906  11.229
32502W        W 4927   1.375  33.108   2.761
32503W        W 4928  40.474  11.057  14.699
32504W        W 4929  32.880  35.807   5.160
32505W        W 4930  43.829  37.597   2.859
32506W        W 4931  40.513  32.375  13.560
32507W        W 4932  13.916  16.208  13.838
32508W        W 4933   4.635   9.027  12.937
32509W        W 4934   2.895  35.508   3.747
32510W        W 4935  24.274  30.064  14.739
32511W        W 4936  22.066  40.078   3.815
32512W        W 4937   2.646   7.204  12.460
32513W        W 4938  14.680  26.739   0.888
32514W        W 4939   1.881  23.904  13.906
32515W        W 4940   1.307   4.374  11.592
32516W        W 4941   6.991  29.046  10.663
32517W        W 4942   5.331  40.909   3.150
32518W        W 4943  37.058  12.377   2.888
32519W        W 4944  19.180  33.541   4.900
32520W        W 4945  19.103  44.788  12.134
32521W        W 4946  18.990  21.298  13.466
32522W        W 4947  37.368   8.884   3.133
32523W        W 4948  30.869  24.185   1.445
32524W        W 4949  26.614  29.557   2.896
32525W        W 4950   8.809  32.358   3.744
32526W        W 4951  42.885  27.545  14.517
32527W        W 4952   1.548  29.009  11.583
32528W        W 4953  10.193  21.082  12.391
32529W        W 4954  29.872   8.706  13.494
32530W        W 4955  34.646  18.656  12.089
32531W        W 4956  28.033  36.142   4.198
32532W        W 4957  10.312  25.980   0.851
32533W        W 4958   8.063  26.962  13.978
32534W        W 4959  43.484  43.509   4.633
32535W        W 4960  33.441   4.181  12.477
32536W        W 4961  27.156  33.772  10.177
32537W        W 4962  34.659  24.041   4.676
32538W        W 4963  20.716  39.426  11.096
32539W        W 4964  28.149  16.626   4.401
32540W        W 4965   1.447  27.459  12.259
32541W        W 4966  37.389  16.366  11.646
32542W        W 4967  44.928   0.714  11.150
32543W        W 4968  11.332  44.051   2.752
32544W        W 4969  20.258  28.329  13.624
32545W        W 4970   0.415  36.004  13.119
32546W        W 4971   8.877  32.975   2.254
32547W        W 4972  25.270  10.924   5.017
32548W        W 4973  19.068   5.467  12.434
32549W        W 4974  25.733  20.704  13.984
32550W        W 4975  23.500   6.414  14.843
32551W        W 4976  16.177  29.633   1.731
32552W        W 4977  14.051  24.114  12.123
32553W        W 4978  18.618   4.776  13.452
32554W        W 4979  34.329  42.247  11.893
32555W        W 4980   0.411  33.129   1.789
32556W        W 4981   0.057  23.472  14.958
32557W        W 4982  33.984  27.271  11.673
32558W        W 4983  25.494  31.343   4.716
32559W        W 4984  36.057  20.576   2.819
32560W        W 4985  11.655  30.721   4.638
32561W        W 4986   1.640  16.238   0.196
32562W        W 4987  26.335  11.106  13.390
32563W        W 4988  28.835   9.138  14.826
32564W        W 4989  24.177  41.568   0.414
32565W        W 4990  40.405  15.132  11.617
32566W        W 4991  28.737  25.090  12.918
32567W        W 4992   0.628  30.393  13.939
32568W        W 4993  13.741   8.358  11.585
32569W        W 4994  44.180  28.418   1.799
32570W        W 4995   3.610   7.928   0.898
32571W        W 4996  17.874  34.024  13.430
32572W        W 4997  26.991  24.606  11.254
32573W        W 4998  17.635   4.131  13.073
32574W        W 4999   1.636   5.330  14.383
32575W        W 5000   1.219  22.250  14.494
32576W        W 5001  32.958  24.616   4.825
32577W        W 5002  30.481  37.096  14.825
32578W        W 5003  20.021   8.620  13.564
32579W        W 5004  29.047  11.861  12.556
32580W        W 5005   9.060  27.934   3.222
32581W        W 5006  25.647  37.808   1.485
32582W        W 5007  39.341  39.927   0.806
32583W        W 5008   2.732  42.304  12.885
32584W        W 5009  32.366  17.827   2.111
32585W        W 5010  21.188  23.075  12.979
32586W        W 5011  34.646   0.475  12.418
32587W        W 5012  11.366   7.551   4.961
32588W        W 5013  20.823  17.828   1.056
32589W        W 5014  35.408  31.727  12.511
32590W        W 5015   3.896   7.410   3.199
32591W        W 5016   1.275   4.750   0.540
32592W        W 5017   8.556   1.025   3.701
32593W        W 5018  32.887   2.202  14.406
32594W        W 5019  31.443   2.667   4.879
32595W        W 5020  39.901   5.340   2.174
32596W        W 5021   2.816   7.868  10.804
32597W        W 5022  27.453   9.848   0.454
32598W        W 5023  35.477  28.925   2.377
32599W        W 5024  17.120  23.057   1.057
32600W        W 5025  41.843  32.416   3.254
32601W        W 5026  36.508  23.729  12.886
32602W        W 5027  30.875  33.393  12.125
32603W        W 5028  39.907  33.295  14.498
32604W        W 5029  35.565   5.744  14.041
32605W        W 5030  33.507  27.753   4.441
32606W        W 5031   7.199  32.379  13.007
32607W        W 5032   3.312  16.042  11.058
32608W        W 5033  15.991  20.900  14.022
32609W        W 5034   9.872  11.509  13.585
32610W        W 5035  16.239   9.583  13.023
32611W        W 5036  40.478  34.419   1.887
32612W        W 5037  30.041  22.944  11.186
32613W        W 5038  35.114   7.321  11.918
32614W        W 5039  29.933  32.658  13.904
32615W        W 5040  25.540  39.891   1.855
32616W        W 5041  23.463  36.129   2.765
32617W        W 5042  31.910  23.071   4.772
32618W        W 5043  15.045  34.011  11.435
32619W        W 5044  24.656   0.038   2.702
32620W        W 5045  26.968   9.785  12.368
32621W        W 5046  14.686   2.353  12.588
32622W        W 5047   6.361  34.001   2.390
32623W        W 5048  34.605  28.589   4.762
32624W        W 5049  32.864  41.498  12.361
32625W        W 5050  10.872  41.970   1.919
32626W        W 5051  35.478  20.615  13.841
32627W        W 5052   0.931  20.560   0.492
32628W        W 5053  28.010  24.241   3.414
32629W        W 5054  21.994  15.764   2.668
32630W        W 5055  19.489  20.475   5.084
32631W        W 5056  23.122  19.402   1.055
32632W        W 5057  41.826  15.163  12.506
32633W        W 5058  24.541  43.518   1.795
32634W        W 5059   8.971   8.065   2.115
32635W        W 5060   6.466  20.243   0.874
32636W        W 5061  35.938   4.384   0.455
32637W        W 5062  14.567   9.718   1.208
32638W        W 5063  32.814  12.559   1.263
32639W        W 5064  38.468  35.791  13.034
32640W        W 5065  38.384  25.089   5.086
32641W        W 5066  31.107  16.372   1.333
32642W        W 5067  28.908   3.714   0.838
32643W        W 5068   7.904  31.429   1.379
32644W        W 5069  13.538  22.596  13.880
32645W        W 5070   9.712  40.119  11.208
32646W        W 5071  21.736  42.498   3.319
32647W        W 5072  40.920  20.121   4.637
32648W        W 5073  28.630  17.224  10.468
32649W        W 5074  40.843  13.690   1.968
32650W        W 5075  30.153   8.306   1.338
32651W        W 5076  32.314  36.474  13.334
32652W        W 5077  31.588  29.671  12.119
32653W        W 5078  41.500  25.035   3.758
32654W        W 5079  33.177  38.481  12.491
32655W        W 5080   1.395   1.677   4.878
32656W        W 5081  41.842   7.595   4.121
32657W        W 5082  24.709  27.048  14.857
32658W        W 5083  20.670  39.144  13.010
32659W        W 5084  29.367  37.131   4.706
32660W        W 5085  39.652  19.588   3.170
32661W        W 5086  27.166   2.985  11.177
32662W        W 5087  37.378  14.127   1.667
32663W        W 5088  23.968  31.502  12.771
32664W        W 5089  11.544   8.369   1.297
32665W        W 5090  29.771   3.044   3.618
32666W        W 5091  11.155  11.723   4.159
32667W        W 5092  40.952   7.122   2.636
32668W        W 5093  42.145  12.633  12.087
32669W        W 5094  37.063  22.626  11.449
32670W        W 5095  29.569  14.194  10.802
32671W        W 5096  44.289  16.736   0.923
32672W        W 5097  25.340  29.211   3.771
32673W        W 5098  38.114  15.821   2.239
32674W        W 5099  42.821  13.318  10.418
32675W        W 5100  28.596   1.845   1.950
32676W        W 5101  31.949   9.207   2.676
32677W        W 5102  20.009   6.937   4.486
32678W        W 5103  42.309  13.317   0.408
32679W        W 5104  26.696  12.311   3.268
32680W        W 5105  34.385  11.130   1.253
32681W        W 5106  20.066  13.749   1.404
32682W        W 5107  36.696  41.653  11.397
32683W        W 5108  31.569  33.665   5.037
32684W        W 5109   6.846  13.575  13.922
32685W        W 5110   3.976  27.239   4.372
32686W        W 5111  33.676  38.604  12.476
32687W        W 5112  34.211  19.590   3.747
32688W        W 5113  10.510   6.252   5.510
32689W        W 5114  13.201  19.952  14.709
32690W        W 5115  15.851  20.755   1.783
32691W        W 5116   4.254   3.882   3.695
32692W        W 5117  37.924   6.982   2.280
32693W        W 5118  14.168  37.937   1.415
32694W        W 5119  34.589  39.551  13.574
32695W        W 5120  22.127  18.900  13.592
32696W        W 5121  12.771  16.579  11.376
32697W        W 5122  16.314  34.473   2.855
32698W        W 5123  25.419   6.969  10.679
32699W        W 5124  40.370   3.830  13.569
32700W        W 5125  30.189   6.886   3.578
32701W        W 5126   9.813  32.533  14.189
32702W        W 5127  10.819  22.778  14.900
32703W        W 5128  12.740   7.160   3.192
32704W        W 5129   6.427  12.116  13.511
32705W        W 5130  35.647  29.893   4.434
32706W        W 5131   4.819  28.024  14.166
32707W        W 5132  21.432  23.548  12.879
32708W        W 5133  34.480  32.956   1.768
32709W        W 5134  41.174  22.075  10.818
32710W        W 5135  30.767  40.524  10.755
32711W        W 5136  20.225  39.495   3.695
32712W        W 5137  27.415  21.753   2.775
32713W        W 5138  43.459  15.410  13.473
32714W        W 5139  43.930   9.811   1.307
32715W        W 5140  11.607  27.949   3.273
32716W        W 5141   0.851   1.846  11.432
32717W        W 5142  29.027  44.019  10.560
32718W        W 5143  43.952  41.430   0.880
32719W        W 5144  16.325  39.695  13.891
32720W        W 5145   1.267  44.307  10.815
32721W        W 5146   7.690  12.274  13.951
32722W        W 5147  17.990   4.856   2.732
32723W        W 5148  42.937   1.919   3.873
32724W        W 5149  41.115  16.877  12.862
32725W        W 5150  43.747  28.950  12.592
32726W        W 5151   0.531  14.647  10.648
32727W        W 5152  32.615  39.334  10.736
32728W        W 5153  39.548  14.747   2.804
32729W        W 5154  11.774  34.341   2.759
32730W        W 5155   1.416   8.728   1.996
32731W        W 5156   8.838  26.853   2.833
32732W        W 5157  38.784  29.883  10.794
32733W        W 5158  22.223  34.863   3.248
32734W        W 5159  36.497  16.425   0.571
32735W        W 5160   0.542  36.638   4.781
32736W        W 5161   8.480  38.441  12.448
32737W        W 5162   8.351   3.985   3.541
32738W        W 5163  33.377  25.996  14.441
32739W        W 5164  35.862  18.700  11.092
32740W        W 5165   7.743  33.435   0.288
32741W        W 5166  32.509  42.680  11.108
32742W        W 5167  38.977  32.375  14.516
32743W        W 5168  13.268  37.896   2.405
32744W        W 5169  19.309  42.372  11.487
32745W        W 5170  15.323  38.897  12.798
32746W        W 5171  29.961  38.155   2.401
32747W        W 5172   5.251  38.113   3.237
32748W        W 5173  10.159  41.424  11.071
32749W        W 5174  38.758  12.415   2.214
32750W        W 5175   8.647  13.797  10.590
32751W        W 5176  15.223  19.068   0.966
32752W        W 5177  40.325  31.398  11.585
32753W        W 5178  29.932  13.817   3.313
32754W        W 5179   5.347   4.243   4.142
32755W        W 5180   4.734  37.962  11.656
32756W        W 5181  38.364   4.842   3.116
32757W        W 5182  29.887  21.488   2.689
32758W        W 5183  37.929   3.727  11.084
32759W        W 5184  38.811  41.980   1.943
32760W        W 5185  25.980  20.063   2.214
32761W        W 5186  42.791  44.018   3.641
32762W        W 5187  13.574  16.139  12.326
32763W        W 5188  26.162  21.319   3.585
32764W        W 5189  24.731  19.075  11.215
32765W        W 5190  18.604  37.903  12.997
32766W        W 5191  36.545  16.873   2.285
32767W        W 5192  39.584   3.495   1.862
32768W        W 5193   4.444  11.618  14.482
32769W        W 5194  24.167  30.899   1.278
32770W        W 5195  22.983   4.897  12.381
32771W        W 5196  30.203   3.389   3.835
32772W        W 5197  18.358  10.651   0.769
32773W        W 5198   7.061  29.611   1.882
32774W        W 5199  40.521   1.815  14.806
32775W        W 5200  11.955  27.498   1.142
32776W        W 5201  34.385  14.898  11.146
32777W        W 5202  27.413   3.893   1.459
32778W        W 5203   0.718  34.526   0.348
32779W        W 5204  21.987   4.822  10.569
32780W        W 5205  22.240  11.743  12.382
32781W        W 5206   3.181   8.197  13.345
32782W        W 5207  43.459  40.820  10.702
32783W        W 5208  44.985   1.776   2.763
32784W        W 5209  28.902  12.051   4.122
32785W        W 5210   6.451   5.151   3.780
32786W        W 5211  43.857   3.197   2.930
32787W        W 5212  39.866  26.963   0.296
32788W        W 5213  33.113  16.427  14.681
32789W        W 5214  14.705  32.652   1.235
32790W        W 5215  40.555  16.288  13.518
32791W        W 5216  38.102  39.380   3.703
32792W        W 5217  20.021  43.683   0.435
32793W        W 5218  24.743  27.578  14.429
32794W        W 5219   2.288   3.891  12.799
32795W        W 5220  24.054   9.546  14.541
32796W        W 5221  42.785   6.316  11.693
32797W        W 5222  38.428   4.767   2.608
32798W        W 5223  25.503  14.038   2.686
32799W        W 5224  28.231  20.884  13.942
32800W        W 5225  25.572   0.831   3.226
32801W        W 5226  19.976  21.392  11.923
32802W        W 5227  38.875  42.597  13.018
32803W        W 5228  23.758   5.485  11.841
32804W        W 5229  31.710  38.472   2.772
32805W        W 5230   1.225  23.984   3.236
32806W        W 5231  44.497  44.399  11.626
32807W        W 5232   1.116  27.081  12.086
32808W        W 5233  29.025  12.297  11.823
32809W        W 5234   7.529  14.628  10.702
32810W        W 5235  37.471  36.730  12.408
32811W        W 5236   1.048  25.691  13.004
32812W        W 5237   4.917  12.090   5.115
32813W        W 5238  30.128  33.563  10.311
32814W        W 5239   6.138   2.190   0.330
32815W        W 5240  33.552  39.730   4.543
32816W        W 5241  14.567  40.011  13.491
32817W        W 5242  17.614  15.742  14.879
32818W        W 5243  23.572  13.186   1.276
32819W        W 5244  14.833  26.250   2.244
32820W        W 5245  21.495  42.392  14.811
32821W        W 5246  44.931  31.367   3.304
32822W        W 5247  30.666   6.850  13.956
32823W        W 5248  23.614  16.325   2.681
32824W        W 5249   4.083   2.769  11.484
32825W        W 5250  43.222  19.225  12.109
32826W        W 5251   5.718  16.808  11.066
32827W        W 5252  43.076  23.060  11.230
32828W        W 5253  18.354  30.063   0.927
32829W        W 5254   6.859  19.165  11.041
32830W        W 5255  32.158  40.035  13.261
32831W        W 5256   9.172   6.364   4.996
32832W        W 5257  38.076   5.718  13.366
32833W        W 5258   8.469  44.265  13.512
32834W        W 5259  10.286  21.890   1.754
32835W        W 5260  21.174  26.373  14.863
32836W        W 5261  33.480  26.876   4.930
32837W        W 5262   0.333  41.654   2.265
32838W        W 5263  43.517   2.983  13.028
32839W        W 5264  29.016   5.466  14.478
32840W        W 5265  43.368  22.101   0.495
32841W        W 5266   0.917   4.413   3.649
32842W        W 5267  30.892  21.282  13.169
32843W        W 5268  38.991  40.291   4.368
32844W        W 5269  19.964  12.715   4.151
32845W        W 5270   8.903  26.918   4.583
32846W        W 5271  42.801  27.820   4.982
32847W        W 5272  42.341  12.781   4.615
32848W        W 5273  39.578   0.374   2.685
32849W        W 5274  10.350  22.923  12.545
32850W        W 5275  30.082   8.625   2.212
32851W        W 5276   7.080  38.545   5.211
32852W        W 5277  43.331  31.176   3.365
32853W        W 5278  23.742  13.106  10.763
32854W        W 5279  14.897  21.299  13.115
32855W        W 5280  33.982   5.316   2.281
32856W        W 5281   6.118   4.786   2.667
32857W        W 5282  39.417   4.634   3.971
32858W        W 5283  17.334  37.184   0.013
32859W        W 5284  24.660   9.370  12.011
32860W        W 5285   9.813  36.653   4.970
32861W        W 5286  31.412  13.733  13.735
32862W        W 5287   7.826   4.466  11.406
32863W        W 5288  14.871  14.608  13.533
32864W        W 5289  38.526  32.029  13.185
32865W        W 5290  26.571  25.694   3.744
32866W        W 5291  31.480  34.438   4.383
32867W        W 5292  44.280   5.936  12.376
32868W        W 5293  27.525  32.627   4.076
32869W        W 5294  16.294  34.378   1.583
32870W        W 5295  42.397  14.188   1.256
32871W        W 5296  42.212  40.710  13.406
32872W        W 5297  41.255  14.560   3.165
32873W        W 5298  31.862  35.954   1.225
32874W        W 5299  26.998  19.551  13.535
32875W        W 5300  13.598  40.021  13.071
32876W        W 5301   8.289   8.893   0.383
32877W        W 5302  30.388  33.210   0.684
32878W        W 5303  21.132  41.026   4.823
32879W        W 5304  14.379  32.406   0.915
32880W        W 5305  12.678  43.595  11.460
32881W        W 5306  29.122  29.065  12.456
32882W        W 5307  24.959   8.866  13.356
32883W        W 5308   2.933  17.272  11.975
32884W        W 5309  20.124  18.159  13.878
32885W        W 5310   3.915  38.969  12.564
32886W        W 5311  39.941  31.017   4.207
32887W        W 5312  42.707  18.119   4.087
32888W        W 5313   3.933  24.855  10.549
32889W        W 5314  16.061   7.898  10.730
32890W        W 5315  37.713  20.194  11.120
32891W        W 5316  11.885  18.150  11.540
32892W        W 5317  12.657   9.180  12.666
32893W        W 5318  20.795  30.950   4.342
32894W        W 5319  21.362  24.100   5.140
32895W        W 5320  29.998   7.170  10.817
32896W        W 5321  37.601   3.929  13.435
32897W        W 5322  15.816  42.793   2.933
32898W        W 5323  20.553  40.318  11.800
32899W        W 5324   0.875  15.265   1.904
32900W        W 5325  40.853  11.074  13.418
32901W        W 5326  29.942  19.738  12.464
32902W        W 5327  19.069   7.010  13.964
32903W        W 5328  32.619  41.430  10.708
32904W        W 5329  43.462  39.576  12.454
32905W        W 5330  30.443  20.853  14.817
32906W        W 5331  43.544  19.246   0.901
32907W        W 5332  31.389  24.087   4.238
32908W        W 5333  31.080  33.197  10.574
32909W        W 5334  29.665  17.167  11.821
32910W        W 5335   2.041  20.336   3.680
32911W        W 5336   8.888  18.668  12.515
32912W        W 5337  28.978   9.800   2.803
32913W        W 5338  37.984  20.617  10.942
32914W        W 5339  18.860  41.188  10.953
32915W        W 5340   7.355  25.457  14.156
32916W        W 5341   0.280   2.950  11.779
32917W        W 5342  10.839  10.303   4.642
32918W        W 5343   4.211  33.999  12.645
32919W        W 5344  14.297  37.994  13.572
32920W        W 5345   4.860   7.459   1.296
32921W        W 5346  40.464  14.642  11.384
32922W        W 5347  40.994   6.813  10.793
32923W        W 5348   6.736   0.049  11.607
32924W        W 5349  16.634   2.821  10.427
32925W        W 5350  30.013  21.182  12.009
32926W        W 5351  16.324  14.057   2.556
32927W        W 5352  44.405  28.218   2.263
32928W        W 5353  29.112  37.600  11.543
32929W        W 5354  20.447  33.388   4.305
32930W        W 5355  26.015  42.601   2.308
32931W        W 5356   0.497  15.825   2.105
32932W        W 5357  10.618  28.374  14.929
32933W        W 5358  32.378  29.047   1.842
32934W        W 5359  44.383  36.455   0.568
32935W        W 5360  21.693   7.010   1.650
32936W        W 5361  13.897  32.762   1.857
32937W        W 5362  14.202   2.690  10.834
32938W        W 5363  37.058  24.454  12.623
32939W        W 5364  44.867  37.450   4.937
32940W        W 5365  40.389  41.714   3.488
32941W        W 5366  20.672  10.780  13.875
32942W        W 5367  35.018  13.777  13.434
32943W        W 5368  28.010   3.420   1.934
32944W        W 5369  10.198   5.867   1.358
32945W        W 5370  36.292  40.034   2.754
32946W        W 5371  11.153  10.328   3.602
32947W        W 5372  42.113  25.230   3.279
32948W        W 5373  43.125  18.888   1.371
32949W        W 5374  31.072  24.510  12.007
32950W        W 5375  30.594  21.911   0.810
32951W        W 5376  35.469  10.339   2.872
32952W        W 5377  16.188   0.625  13.789
32953W        W 5378  27.525   0.202  11.481
32954W        W 5379   2.782  31.697  12.914
32955W        W 5380  10.716  36.938   2.435
32956W        W 5381  24.372   6.469   1.969
32957W        W 5382  12.766  17.167  13.075
32958W        W 5383  25.650  12.778  14.513
32959W        W 5384  40.373   5.845   2.614
32960W        W 5385  40.338   5.655  10.782
32961W        W 5386  18.100  24.089  14.844
32962W        W 5387  10.731  21.244  10.754
32963W        W 5388  36.544  30.289  13.621
32964W        W 5389  38.928  19.122   1.270
32965W        W 5390  12.736  32.358   2.827
32966W        W 5391  22.717  26.424  11.653
32967W        W 5392  33.441  39.885   3.547
32968W        W 5393  27.386  24.724  14.417
32969W        W 5394  20.388  24.617   4.067
32970W        W 5395   1.376  18.039  14.047
32971W        W 5396  33.950  29.525  10.453
32972W        W 5397  40.208  19.693  14.302
32973W        W 5398  17.315  33.434  14.091
32974W        W 5399  39.302  43.883   1.854
32975W        W 5400  37.642   4.686   4.537
32976W        W 5401   1.231  31.915   0.717
32977W        W 5402  23.299  30.934  12.845
32978W        W 5403  16.200  22.515  13.543
32979W        W 5404  31.008  25.052   4.173
32980W        W 5405   5.718  10.682  13.912
32981W        W 5406   1.291  35.902  11.700
32982W        W 5407  24.309  17.574  12.569
32983W        W 5408  16.906  17.717   1.702
32984W        W 5409  36.591  35.984  10.585
32985W        W 5410  38.983  15.795  13.266
32986W        W 5411  16.842  16.752  12.987
32987W        W 5412   6.829  15.182   4.697
32988W        W 5413  12.960  12.198  11.122
32989W        W 5414  30.941   8.203   3.655
32990W        W 5415  22.176  43.522   2.674
32991W        W 5416  29.557  16.365  11.261
32992W        W 5417  35.287  24.508   0.420
32993W        W 5418  14.857  44.403   4.713
32994W        W 5419  12.633  23.740  10.693
32995W        W 5420   2.027  14.141   3.485
32996W        W 5421  35.017  20.763  14.083
32997W        W 5422  24.645  43.889  11.616
32998W        W 5423   1.183  36.473   0.466
32999W        W 5424  15.781  27.185   0.492
33000W        W 5425  36.376  31.508   2.747
33001W        W 5426  30.613  29.061  13.134
33002W        W 5427  40.807  41.313   4.944
33003W        W 5428   5.179  33.809  13.944
33004W        W 5429  11.251   4.296  10.390
33005W        W 5430   4.952  13.715   3.962
33006W        W 5431  25.515  16.477   2.819
33007W        W 5432   3.307  38.826   1.958
33008W        W 5433  14.875  14.809   1.857
33009W        W 5434  21.009  38.505  12.107
33010W        W 5435   5.745   2.915   3.162
33011W        W 5436  36.173   5.769   0.805
33012W        W 5437  29.911   5.299  10.696
33013W        W 5438  30.682  37.775   4.329
33014W        W 5439  36.896  39.513  11.272
33015W        W 5440  32.655  19.722  14.318
33016W        W 5441   7.902  35.933   1.658
33017W        W 5442   5.985  21.679   1.594
33018W        W 5443  38.489  21.065   0.513
33019W        W 5444  31.173  33.603   3.952
33020W        W 5445  24.516  18.722   2.901
33021W        W 5446  18.314  22.730  10.741
33022W        W 5447  28.643  41.017   0.475
33023W        W 5448  31.943  35.308   3.727
33024W        W 5449  35.152  17.554   3.170
33025W        W 5450  35.875  20.230  14.780
33026W        W 5451  27.666  33.487   1.882
33027W        W 5452  34.483   1.369  12.913
33028W        W 5453  34.155  38.522  10.375
33029W        W 5454  24.313  28.614   3.692
33030W        W 5455   5.836   0.355   2.655
33031W        W 5456  22.613  31.716  13.875
33032W        W 5457  34.545  42.553  13.612
33033W        W 5458   0.891   1.718   4.670
33034W        W 5459  19.584  21.642   1.880
33035W        W 5460  18.593  36.425  13.478
33036W        W 5461  44.762  32.111   4.073
33037W        W 5462   3.606  43.625   0.250
33038W        W 5463  40.971  17.039   0.815
33039W        W 5464  23.132  42.892  10.368
33040W        W 5465  22.281  21.692  12.095
33041W        W 5466  15.835   1.882   1.177
33042W        W 5467   8.804  28.592   1.980
33043W        W 5468  34.058  23.000   3.683
33044W        W 5469   0.883  30.721  10.726
33045W        W 5470  33.989  11.366  13.501
33046W        W 5471  35.334  13.863   1.274
33047W        W 5472   5.217   5.906  12.840
33048W        W 5473  39.356  37.998   1.841
33049W        W 5474  29.913   3.507  13.853
33050W        W 5475  27.185   5.230   0.506
33051W        W 5476  38.483  13.486  11.156
33052W        W 5477  40.902  41.395   4.433
33053W        W 5478  30.648  44.810  11.080
33054W        W 5479  11.298  19.850   3.829
33055W        W 5480   8.633  18.687  12.063
33056W        W 5481   2.787  13.365  12.500
33057W        W 5482   2.832  31.604  10.622
33058W        W 5483   0.061  27.526  14.996
33059W        W 5484  27.513  44.122   1.234
33060W        W 5485  25.773  22.488   3.200
33061W        W 5486  20.381  30.776  13.985
33062W        W 5487  30.045  18.713   1.715
33063W        W 5488   5.675  33.116   1.703
33064W        W 5489  42.432  17.774  14.880
33065W        W 5490   0.186  21.795   2.883
33066W        W 5491  24.476  42.739   0.502
33067W        W 5492  40.177  35.196  12.458
33068W        W 5493  27.990  41.413   0.904
33069W        W 5494  27.760  25.150  12.241
33070W        W 5495  30.493   2.418  13.557
33071W        W 5496  34.981  39.337  11.661
33072W        W 5497  34.326  40.976   4.593
33073W        W 5498  27.320  38.083  11.233
33074W        W 5499  38.023  34.451  12.896
33075W        W 5500  36.111   7.791   5.063
33076W        W 5501  23.873   1.025  14.371
33077W        W 5502  39.011   1.730  10.652
33078W        W 5503  30.039   4.919  14.434
33079W        W 5504   7.442  23.223   3.653
33080W        W 5505  37.487  43.347  14.708
33081W        W 5506  27.252  21.144   0.194
33082W        W 5507  33.055  41.414  11.431
33083W        W 5508   6.787  15.848   2.211
33084W        W 5509   0.434  17.207  14.505
33085W        W 5510  42.015  22.204   3.448
33086W        W 5511   2.868   8.408  10.708
33087W        W 5512  13.239  11.866   4.650
33088W        W 5513  15.708  17.556  14.488
33089W        W 5514  37.532  24.644   3.894
33090W        W 5515  44.047   3.503   4.283
33091W        W 5516  22.130  35.067   3.763
33092W        W 5517   6.334  42.925  14.013
33093W        W 5518  34.955  31.056   0.038
33094W        W 5519   1.330   0.025  13.136
33095W        W 5520  32.424  23.626  14.818
33096W        W 5521  18.946  26.241  14.797
33097W        W 5522   7.418  20.005  10.563
33098W        W 5523   1.838  44.429   0.567
33099W        W 5524   3.688  38.797  10.782
33100W        W 5525  15.461  20.718   2.705
33101W        W 5526  17.213   2.663  12.680
33102W        W 5527   0.753  16.630  10.511
33103W        W 5528  16.031  20.309   0.264
33104W        W 5529   6.754  28.587   0.330
33105W        W 5530  31.926   9.441   1.740
33106W        W 5531   7.349   3.360   1.404
33107W        W 5532   5.469  43.346  11.672
33108W        W 5533  23.722   3.214   1.738
33109W        W 5534  20.773  26.107   0.056
33110W        W 5535  35.335  42.747   4.654
33111W        W 5536   3.685   7.796  11.700
33112W        W 5537  31.041   1.800   0.177
33113W        W 5538  43.389  13.896   4.152
33114W        W 5539  18.258  41.614  11.916
33115W        W 5540  23.541  19.666  12.905
33116W        W 5541  21.514  37.080   1.962
33117W        W 5542  30.538  42.388  14.970
33118W        W 5543  15.766  35.445   3.439
33119W        W 5544   5.747  29.129  13.380
33120W        W 5545  41.432  22.920  11.301
33121W        W 5546   6.471  32.475  12.359
33122W        W 5547  16.796  35.790  11.497
33123W        W 5548  36.973  22.486   0.587
33124W        W 5549  41.535  40.367  11.172
33125W        W 5550  42.352  29.620  14.360
33126W        W 5551  37.025  18.306  12.155
33127W        W 5552   8.219  31.779   4.204
33128W        W 5553  41.606   3.974  11.384
33129W        W 5554  23.692  13.319  11.232
33130W        W 5555   1.933   4.424   2.323
33131W        W 5556   6.674   5.637   2.232
33132W        W 5557  26.474   2.754   3.263
33133W        W 5558  37.922  15.923  14.022
33134W        W 5559  19.195  19.731   3.635
33135W        W 5560  15.895  16.348  14.037
33136W        W 5561  35.710  23.438  10.563
33137W        W 5562  41.583  12.480  14.473
33138W        W 5563  20.069  24.883   2.742
33139W        W 5564  35.661  14.149  12.812
33140W        W 5565  30.195  10.271   3.061
33141W        W 5566  44.964  28.809   0.866
33142W        W 5567   0.729  37.439   0.974
33143W        W 5568  11.706  32.598   3.549
33144W        W 5569  37.389   3.157   0.434
33145W        W 5570  20.707  44.034   2.290
33146W        W 5571  26.307  21.537   4.702
33147W        W 5572  44.825  13.058  11.981
33148W        W 5573  42.701  41.266   0.383
33149W        W 5574  35.336   8.962  11.511
33150W        W 5575   9.013  17.663   1.685
33151W        W 5576  18.528  15.913   2.371
33152W        W 5577  35.303  37.870  12.398
33153W        W 5578  21.299  39.068  12.918
33154W        W 5579  15.773  12.187  13.524
33155W        W 5580  29.197  32.558  11.741
33156W        W 5581   2.376  24.714   1.558
33157W        W 5582   7.065  36.363   3.132
33158W        W 5583   6.933   7.213  13.956
33159W        W 5584   9.154   1.243   1.527
33160W        W 5585  26.348  33.681   0.369
33161W        W 5586  29.426  32.538  13.859
33162W        W 5587  43.610  25.010  10.357
33163W        W 5588  34.942  36.905  12.073
33164W        W 5589  34.586  29.232   0.771
33165W        W 5590  41.489  42.802   9.934
33166W        W 5591  39.263  12.563   4.168
33167W        W 5592  30.367  24.549   3.803
33168W        W 5593  12.677   3.662   1.762
33169W        W 5594   5.885   9.692  14.756
33170W        W 5595   5.171   9.655  13.485
33171W        W 5596  24.786  29.400   3.297
33172W        W 5597  11.775  39.852  10.632
33173W        W 5598   1.405  31.742  13.950
33174W        W 5599  22.622  34.600  11.072
33175W        W 5600  20.627  21.895  14.892
33176W        W 5601   4.752  14.575  14.449
33177W        W 5602  37.876  27.641   4.647
33178W        W 5603  34.893   3.890  14.440
33179W        W 5604  30.416   2.971   2.208
33180W        W 5605  11.848  21.495   0.436
33181W        W 5606  29.903   6.287   4.860
33182W        W 5607   0.939  20.467   4.167
33183W        W 5608  12.432  17.618   3.282
33184W        W 5609  28.574  35.115  14.158
33185W        W 5610  42.871  19.755  14.492
33186W        W 5611  31.999   9.500  12.260
33187W        W 5612  12.773  19.486  10.731
33188W        W 5613  22.535  25.655   0.868
33189W        W 5614   7.301  16.690   1.811
33190W        W 5615  27.143  11.129   1.761
33191W        W 5616  38.347  26.298  14.548
33192W        W 5617  40.081   5.466   4.037
33193W        W 5618  30.933   0.779   4.801
33194W        W 5619  12.721   1.323   4.558
33195W        W 5620   8.583   2.955   0.788
33196W        W 5621  16.580  11.899  14.411
33197W        W 5622  22.482  40.768   1.350
33198W        W 5623  40.092  16.229   3.688
33199W        W 5624  34.303   1.730  12.592
33200W        W 5625   8.967  42.821   4.588
33201W        W 5626  24.630  18.321   0.377
33202W        W 5627  31.941  29.448   0.376
33203W        W 5628  27.789  12.165  10.685
33204W        W 5629  35.066  37.495  12.904
33205W        W 5630  16.707  14.156  14.351
33206W        W 5631   3.129  29.625   2.240
33207W        W 5632  13.331  40.009   2.884
33208W        W 5633  43.731   5.751  13.040
33209W        W 5634  11.741  43.039   1.418
33210W        W 5635  34.167  11.732   1.897
33211W        W 5636  18.529  26.750  12.133
33212W        W 5637  44.544  17.158  12.308
33213W        W 5638  11.277  15.820   1.895
33214W        W 5639   7.348   4.461   1.315
33215W        W 5640  19.298   3.998   4.187
33216W        W 5641  25.277   1.482  12.480
33217W        W 5642  43.214  14.795   4.077
33218W        W 5643  15.295  42.080  11.216
33219W        W 5644  36.619   4.830  11.544
33220W        W 5645  37.337  24.215   0.385
33221W        W 5646  24.891  25.948   0.157
33222W        W 5647  40.337   8.342   1.859
33223W        W 5648  40.397  25.857  12.250
33224W        W 5649  18.017  31.596   0.295
33225W        W 5650   9.396   7.794   1.364
33226W        W 5651  32.994  43.342   0.761
33227W        W 5652  22.997  25.704   3.178
33228W        W 5653  15.581  21.160   0.537
33229W        W 5654  19.041  21.736   3.929
33230W        W 5655   3.361  39.218  13.304
33231W        W 5656  14.172  25.609   0.014
33232W        W 5657   2.663  15.197   4.079
33233W        W 5658  23.458  19.215   0.136
33234W        W 5659  18.187  37.976   0.897
33235W        W 5660  40.892  32.147   0.401
33236W        W 5661   4.028  43.367   1.782
33237W        W 5662  23.781  23.202   4.691
33238W        W 5663  38.201   2.175  12.562
33239W        W 5664   5.357  35.529   0.722
33240W        W 5665  33.000   2.900   1.341
33241W        W 5666   2.861   8.398   1.866
33242W        W 5667  19.185  39.363  10.584
33243W        W 5668  25.065   0.247   1.699
33244W        W 5669  35.299   9.677   0.938
33245W        W 5670   0.372  32.544  14.027
33246W        W 5671   9.458  24.179  11.957
33247W        W 5672  44.165  10.157   1.664
33248W        W 5673  15.772  19.151  13.819
33249W        W 5674  29.667  14.715  12.539
33250W        W 5675   7.273  41.803  12.099
33251W        W 5676  20.202  41.985  12.520
33252W        W 5677  43.551  10.148   3.801
33253W        W 5678  16.167  19.501  13.930
33254W        W 5679   7.969   6.942  10.665
33255W        W 5680  26.136  39.981   4.916
33256W        W 5681  10.406  33.942  10.248
33257W        W 5682  23.992  25.754  11.896
33258W        W 5683   8.250  39.881  12.428
33259W        W 5684  23.012   8.333   9.830
33260W        W 5685  24.082   8.205   2.257
33261W        W 5686   7.720  31.258  13.338
33262W        W 5687  18.423  41.013  13.820
33263W        W 5688  36.944  28.989  11.401
33264W        W 5689   8.822   5.931   0.471
33265W        W 5690  37.993  39.779  10.638
33266W        W 5691  16.269  33.095   1.694
33267W        W 5692  38.382   4.955  12.938
33268W        W 5693  38.101  31.939   4.084
33269W        W 5694   5.281   3.124  10.873
33270W        W 5695   2.901  29.145   0.807
33271W        W 5696  38.360  25.607  12.076
33272W        W 5697   8.878   1.371  12.116
33273W        W 5698  43.059  34.419   4.495
33274W        W 5699  24.393  12.568   4.842
33275W        W 5700  32.371  24.504   0.456
33276W        W 5701   0.727  22.042   1.832
33277W        W 5702  24.442  17.176   1.249
33278W        W 5703  31.646   3.298   4.160
33279W        W 5704  42.296  41.808  11.237
33280W        W 5705  39.964  20.346   0.526
33281W        W 5706  10.860  27.714  10.744
33282W        W 5707  31.330  38.329   0.964
33283W        W 5708  39.832  11.190   4.504
33284W        W 5709  10.780  13.850  12.019
33285W        W 5710  34.023  44.724   3.779
33286W        W 5711   6.522   2.494  11.580
33287W        W 5712  43.036   8.811   0.866
33288W        W 5713  44.879  20.064  11.819
33289W        W 5714  19.712  33.416  12.548
33290W        W 5715  34.969  38.470  13.978
33291W        W 5716   3.854   9.850  12.518
33292W        W 5717  11.358  18.957  14.734
33293W        W 5718  17.540  20.288   1.327
33294W        W 5719   5.932  16.690  12.964
33295W        W 5720   7.125  23.686  11.240
33296W        W 5721   1.682  31.645   0.728
33297W        W 5722  12.879  25.268   4.342
33298W        W 5723  26.157   4.413  10.418
33299W        W 5724  26.628  21.751  12.648
33300W        W 5725  32.329  28.600   2.902
33301W        W 5726   3.252  44.495   1.453
33302W        W 5727  40.502   2.435   1.627
33303W        W 5728  27.458  39.848  14.755
33304W        W 5729   0.768  24.831  11.584
33305W        W 5730  31.529   2.524   0.441
33306W        W 5731  28.641  22.554  11.115
33307W        W 5732  34.959  41.337  14.430
33308W        W 5733  44.771  29.158  13.931
33309W        W 5734   5.284  37.846  12.503
33310W        W 5735  40.920  26.741   3.288
33311W        W 5736  26.073  20.240   0.398
33312W        W 5737   6.343  30.708  11.119
33313W        W 5738  24.419  39.236   3.194
33314W        W 5739  36.997  17.536   4.166
33315W        W 5740  13.380   3.451   3.681
33316W        W 5741  35.379  34.540  12.225
33317W        W 5742  19.117  29.101   2.400
33318W        W 5743  36.887   1.684   1.378
33319W        W 5744  21.165  27.478   4.132
33320W        W 5745  23.674   4.442   0.371
33321W        W 5746  39.226  33.836  14.419
33322W        W 5747  12.331   7.733  12.929
33323W        W 5748  24.087   5.413  13.833
33324W        W 5749  24.565  11.967  13.134
33325W        W 5750  28.015  38.005  12.638
33326W        W 5751   0.876  10.095   5.125
33327W        W 5752  11.842  23.460  11.932
33328W        W 5753  22.792  37.818   4.129
33329W        W 5754  35.149  22.182  10.654
33330W        W 5755   7.790  35.986   3.725
33331W        W 5756  22.489  14.832   2.692
33332W        W 5757  19.653  31.274  13.380
33333W        W 5758  12.381  25.444   0.255
33334W        W 5759  12.446  43.913  12.090
33335W        W 5760  20.450  25.099  14.769
33336W        W 5761   2.751   9.864  11.162
33337W        W 5762   4.329  39.364   1.404
33338W        W 5763  33.671  19.726   4.247
33339W        W 5764   9.159  15.850   4.912
33340W        W 5765   2.146  14.699   0.818
33341W        W 5766  20.007  14.581  12.608
33342W        W 5767  36.815   2.438   1.709
33343W        W 5768  18.336  18.619  10.486
33344W        W 5769  18.562  10.154  14.914
33345W        W 5770  44.827   4.403  12.147
33346W        W 5771  23.300   1.206  11.158
33347W        W 5772  30.098  12.801  12.571
33348W        W 5773  19.476  39.849   3.921
33349W        W 5774   3.425  36.395  12.985
33350W        W 5775  42.474   5.374   1.972
33351W        W 5776  21.492  25.442  12.851
33352W        W 5777  21.080  21.027   1.178
33353W        W 5778  33.773   7.798   0.846
33354W        W 5779  43.762  17.546  12.783
33355W        W 5780  34.822   4.569  11.374
33356W        W 5781   8.577   0.867   0.914
33357W        W 5782   4.762  10.447   3.585
33358W        W 5783  18.622  36.957  12.840
33359W        W 5784  29.410   1.204   1.744
33360W        W 5785  17.037  37.409  12.338
33361W        W 5786  11.203  36.796   0.865
33362W        W 5787  23.326  27.139   0.933
33363W        W 5788  20.005  28.541   4.317
33364W        W 5789  39.854  10.497  12.086
33365W        W 5790  13.646  22.034  11.470
33366W        W 5791   2.309   8.622  13.878
33367W        W 5792  32.533  27.650   4.096
33368W        W 5793  32.793  40.907   2.467
33369W        W 5794  10.694  42.368   0.179
33370W        W 5795  13.682  19.553  14.011
33371W        W 5796  38.126  44.034  12.570
33372W        W 5797  15.706  41.792   0.339
33373W        W 5798  20.733  25.614  13.906
33374W        W 5799  27.932  44.038  10.603
33375W        W 5800  19.080  16.340   4.183
33376W        W 5801  16.234  37.821  12.620
33377W        W 5802  33.362  32.558   3.735
33378W        W 5803   3.074  42.798  10.516
33379W        W 5804  44.003  33.145  13.478
33380W        W 5805  43.961  17.622   2.733
33381W        W 5806  24.615   9.810  11.053
33382W        W 5807  17.069  10.323  11.448
33383W        W 5808  41.257   9.819  10.681
33384W        W 5809  18.569   7.685  11.632
33385W        W 5810   9.657  33.092  10.421
33386W        W 5811  35.452  33.188  12.245
33387W        W 5812   6.378  42.465   3.038
33388W        W 5813  33.623  24.683  14.316
33389W        W 5814  12.968   3.613   3.353
33390W        W 5815  35.362  26.608  11.550
33391W        W 5816  28.109  33.690  13.435
33392W        W 5817  23.642  18.526   4.719
33393W        W 5818  34.896   9.752  12.268
33394W        W 5819   2.919  16.341  11.759
33395W        W 5820   3.481  43.307  13.761
33396W        W 5821   7.781  40.117  12.510
33397W        W 5822  20.068  42.474   4.600
33398W        W 5823  37.287   5.593  11.932
33399W        W 5824  22.762  17.232  11.919
33400W        W 5825   3.725  35.456   1.651
33401W        W 5826  12.566  40.825   0.868
33402W        W 5827  44.019   7.973   1.808
33403W        W 5828   1.684  22.885  13.993
33404W        W 5829   7.514   9.561   3.152
33405W        W 5830   0.582  25.986  13.923
33406W        W 5831  14.904  21.722   1.421
33407W        W 5832  27.987  24.616  10.915
33408W        W 5833  34.003  15.126   1.957
33409W        W 5834   2.438  28.610  14.274
33410W        W 5835  22.106  41.282  11.893
33411W        W 5836  41.736   2.824   3.275
33412W        W 5837  42.978  11.293   3.686
33413W        W 5838  42.073  43.928   4.130
33414W        W 5839  29.221  23.713  12.561
33415W        W 5840  20.362  39.872  11.566
33416W        W 5841  18.377   0.872   1.363
33417W        W 5842  15.616  33.814   0.368
33418W        W 5843   6.350  29.335   2.747
33419W        W 5844  22.049   0.977   1.770
33420W        W 5845   4.675   8.138  14.957
33421W        W 5846  28.262   8.316  12.891
33422W        W 5847  34.861  42.106  11.159
33423W        W 5848  37.119   4.338   2.195
33424W        W 5849  30.589   7.787  14.903
33425W        W 5850   3.264  11.586   4.910
33426W        W 5851  35.647  37.007  11.572
33427W        W 5852   5.280  25.803   3.817
33428W        W 5853  32.905  29.498   1.421
33429W        W 5854   5.887  28.133  13.448
33430W        W 5855  38.230   9.836   1.594
33431W        W 5856  20.439  43.013  11.748
33432W        W 5857   4.833  17.565   1.623
33433W        W 5858  26.116  31.491   1.780
33434W        W 5859  29.645   8.357  12.894
33435W        W 5860  41.926   6.747   3.793
33436W        W 5861  35.844  26.969  13.788
33437W        W 5862  13.838  14.266  12.624
33438W        W 5863  39.581  21.224   3.792
33439W        W 5864  15.753  30.510   4.769
33440W        W 5865   6.886  24.544   3.197
33441W        W 5866  30.130  32.551  13.007
33442W        W 5867  36.212  22.571  13.072
33443W        W 5868  23.638  39.832  13.194
33444W        W 5869   8.428  13.270   2.786
33445W        W 5870   7.836  13.285  11.006
33446W        W 5871   8.022  36.551  11.182
33447W        W 5872  44.144   2.779   3.454
33448W        W 5873  39.402  41.174  13.553
33449W        W 5874  13.357  38.843  10.262
33450W        W 5875  40.235  22.078   2.620
33451W        W 5876   3.672  24.967   2.727
33452W        W 5877   5.290  15.002  11.922
33453W        W 5878   0.873  29.219  11.604
33454W        W 5879  33.831  38.748   1.821
33455W        W 5880  11.114   4.401   0.650
33456W        W 5881   4.054  20.151  13.808
33457W        W 5882   2.753  24.469   0.053
33458W        W 5883   8.808  19.525   4.827
33459W        W 5884   7.396  39.424   4.108
33460W        W 5885  13.944   2.818  12.428
33461W        W 5886  11.633   1.977  12.054
33462W        W 5887  35.517  41.345   0.904
33463W        W 5888  13.066  42.806  10.919
33464W        W 5889  20.710  22.480   1.936
33465W        W 5890  37.415  14.051   1.158
33466W        W 5891   1.515  35.961   0.341
33467W        W 5892  44.453   1.452  12.537
33468W        W 5893  23.706  27.145  12.129
33469W        W 5894  30.107  11.319  12.147
33470W        W 5895  43.448  11.774  11.116
33471W        W 5896  26.682  31.991   2.229
33472W        W 5897  25.714  26.486   3.141
33473W        W 5898  12.846  18.623  13.537
33474W        W 5899  25.016  41.479   0.668
33475W        W 5900  19.275   3.598  11.613
33476W        W 5901  17.610  26.980   1.610
33477W        W 5902   2.968   3.415  11.832
33478W        W 5903  24.338  18.851   4.264
33479W        W 5904   6.173  30.745   3.327
33480W        W 5905  35.807   7.441   2.423
33481W        W 5906  29.743  39.594  14.060
33482W        W 5907  39.980  32.388  14.722
33483W        W 5908  35.329  38.835  14.475
33484W        W 5909  19.260  44.007   4.410
33485W        W 5910  25.013  32.179   2.672
33486W        W 5911   3.424  27.899  13.064
33487W        W 5912  11.726  21.632   4.804
33488W        W 5913  36.374   5.263   4.187
33489W        W 5914  30.955  30.362  13.006
33490W        W 5915  44.069   4.418  12.821
33491W        W 5916   1.224  14.009   1.781
33492W        W 5917   0.871  29.689   3.199
33493W        W 5918  44.449  39.103   3.801
33494W        W 5919  43.743  23.167  14.975
33495W        W 5920  26.726  38.403  11.553
33496W        W 5921  23.039  40.108   0.666
33497W        W 5922  23.048  20.632   2.313
33498W        W 5923  36.144  14.697  14.881
33499W        W 5924   9.988  33.963   2.449
33500W        W 5925  19.523  37.526  11.924
33501W        W 5926   1.443  29.135   2.723
33502W        W 5927  21.102  28.609  10.642
33503W        W 5928  22.640  25.671  14.870
33504W        W 5929  43.886  13.275   2.257
33505W        W 5930  21.074  23.585   3.607
33506W        W 5931  38.474   2.656  13.503
33507W        W 5932   2.944  40.512  11.042
33508W        W 5933   3.891  13.210   2.793
33509W        W 5934  10.749  36.919   1.915
33510W        W 5935  12.584  16.107   0.414
33511W        W 5936  23.932  11.291   4.834
33512W        W 5937  43.458  20.218   2.327
33513W        W 5938  11.403  32.960   4.184
33514W        W 5939   3.736  41.655  14.995
33515W        W 5940   8.816  33.947  10.652
33516W        W 5941  39.635  26.509  13.495
33517W        W 5942  26.115  26.024   2.307
33518W        W 5943  17.116  21.507   0.430
33519W        W 5944  21.686  38.847   0.567
33520W        W 5945  28.067   5.102  10.262
33521W        W 5946  36.649   8.810   5.078
33522W        W 5947  34.924  20.181  14.801
33523W        W 5948  31.549  44.532   0.788
33524W        W 5949  40.050  30.595  10.656
33525W        W 5950  42.796  11.612  14.931
33526W        W 5951   3.846  23.653   1.026
33527W        W 5952  38.550  40.559  12.529
33528W        W 5953   2.842  24.981  12.895
33529W        W 5954  20.045  33.521   1.528
33530W        W 5955  26.144  17.717   2.629
33531W        W 5956  10.865  30.391   0.229
33532W        W 5957  16.235  41.196  12.038
33533W        W 5958  42.620  33.097  11.545
33534W        W 5959  25.019  32.016  12.833
33535W        W 5960  17.087  37.873  10.483
33536W        W 5961  14.517  20.300  14.043
33537W        W 5962  24.060  16.226  12.579
33538W        W 5963  36.554  30.517   1.638
33539W        W 5964  33.819  14.916   0.887
33540W        W 5965  43.108  23.548   3.204
33541W        W 5966   0.501  31.016  14.694
33542W        W 5967  28.022   1.615  12.168
33543W        W 5968   8.692  30.095   4.563
33544W        W 5969  37.234  10.130   4.465
33545W        W 5970  13.288   2.693  14.014
33546W        W 5971  17.814  32.333   5.730
33547W        W 5972   7.447  18.124  14.941
33548W        W 5973  25.477   8.395  14.857
33549W        W 5974  41.969  43.715  14.727
33550W        W 5975   1.457  35.375  11.980
33551W        W 5976  17.966  29.317  13.891
33552W        W 5977  31.046  40.558  13.831
33553W        W 5978  43.742  23.307  13.593
33554W        W 5979  29.471  40.320   1.903
33555W        W 5980  33.544  27.987   3.554
33556W        W 5981  44.742  39.906   2.481
33557W        W 5982  29.016  22.200  14.333
33558W        W 5983  15.605  19.567   3.266
33559W        W 5984  18.555  37.358   1.197
33560W        W 5985  31.578  28.916   1.387
33561W        W 5986  34.297  36.339   3.859
33562W        W 5987  25.029   4.436   3.208
33563W        W 5988  23.284  39.572  13.468
33564W        W 5989  30.355  31.053   4.645
33565W        W 5990  24.606  44.857   1.394
33566W        W 5991  37.001  26.402   3.065
33567W        W 5992  11.007  34.584   2.311
33568W        W 5993  37.725  41.277  14.906
33569W        W 5994   4.361  37.777  12.642
33570W        W 5995  33.922  14.317  13.498
33571W        W 5996  32.110   0.237  12.548
33572W        W 5997  36.096  18.795   0.278
33573W        W 5998  44.521  15.192   0.269
33574W        W 5999  31.993  30.482  12.388
33575W        W 6000  15.381  13.195   3.181
33576W        W 6001   7.267  23.686   3.780
33577W        W 6002   4.392  43.864  10.785
33578W        W 6003   9.700   2.295   4.216
33579W        W 6004   5.201  41.026  14.280
33580W        W 6005  15.200  18.396  13.682
33581W        W 6006   6.209   3.790  10.361
33582W        W 6007  13.809   9.423   1.715
33583W        W 6008  25.423  20.585   2.646
33584W        W 6009  42.341   5.381  11.607
33585W        W 6010  17.720   3.142  13.944
33586W        W 6011   8.286   2.734   3.573
33587W        W 6012  16.977   4.396  12.887
33588W        W 6013  37.782  23.782  11.653
33589W        W 6014  16.647  36.301  11.566
33590W        W 6015   5.921  24.638   0.818
33591W        W 6016  18.542   5.794   3.446
33592W        W 6017  19.623  23.128  12.793
33593W        W 6018  37.071  29.868   4.310
33594W        W 6019  12.075   3.830  11.062
33595W        W 6020  12.707  13.076  11.091
33596W        W 6021  39.306  32.029   1.734
33597W        W 6022  27.924  23.701   4.574
33598W        W 6023  43.800  18.088  13.577
33599W        W 6024  13.647  41.626  11.887
33600W        W 6025  43.238  42.770  14.241
33601W        W 6026  25.531  18.098  12.360
33602W        W 6027   7.711   7.144   1.352
33603W        W 6028  30.505  23.199  11.198
33604W        W 6029  19.715  15.144   1.654
33605W        W 6030   6.762  29.047  11.111
33606W        W 6031   5.654  18.831  10.711
33607W        W 6032  20.937  13.703  11.487
33608W        W 6033  23.970  28.469   2.390
33609W        W 6034  23.085   5.720   4.340
33610W        W 6035  23.582  24.133  12.077
33611W        W 6036  35.553   7.998   4.243
33612W        W 6037  34.799  22.198   0.475
33613W        W 6038  26.427   3.508  11.570
33614W        W 6039  33.312  12.249   4.581
33615W        W 6040  41.661  27.122  11.849
33616W        W 6041   8.987   2.924  14.955
33617W        W 6042  26.209   0.426   0.304
33618W        W 6043   5.015  39.847  12.042
33619W        W 6044  25.922  42.025   4.221
33620W        W 6045   7.248   3.284   2.871
33621W        W 6046   2.872   7.292   4.291
33622W        W 6047   7.078  22.312   2.492
33623W        W 6048   0.819  12.651  13.434
33624W        W 6049  25.635  33.823  11.670
33625W        W 6050  18.652  36.572  11.115
33626W        W 6051  36.362  11.116   2.072
33627W        W 6052  11.824   7.258   0.719
33628W        W 6053  14.750  33.378   4.116
33629W        W 6054  42.702  13.203  13.489
33630W        W 6055  37.571  32.891   4.805
33631W        W 6056  35.546  19.312  14.332
33632W        W 6057  12.567  15.069   1.399
33633W        W 6058   5.419  20.101   0.887
33634W        W 6059  11.345  25.850   9.874
33635W        W 6060  42.453  38.500   1.887
33636W        W 6061  14.070  30.554  14.568
33637W        W 6062   4.476  37.921  14.809
33638W        W 6063   4.744  17.068   0.464
33639W        W 6064  26.521  19.668   4.451
33640W        W 6065  37.049  30.160  13.426
33641W        W 6066  32.282   3.536  11.005
33642W        W 6067  34.074  44.339   1.850
33643W        W 6068   9.766  39.400  14.995
33644W        W 6069  24.467  30.682   2.220
33645W        W 6070  29.073  11.783  14.129
33646W        W 6071  37.894   9.975  14.559
33647W        W 6072   8.496  17.596   1.739
33648W        W 6073  44.028  26.303  11.939
33649W        W 6074  33.691  23.978   2.759
33650W        W 6075   6.418  24.198   0.493
33651W        W 6076  42.350  19.161   1.149
33652W        W 6077  34.600  40.310  10.625
33653W        W 6078  38.034  23.156   0.859
33654W        W 6079  41.753  12.045  13.836
33655W        W 6080   9.621  37.377  10.505
33656W        W 6081   0.332  10.007   3.972
33657W        W 6082  14.512  25.061   1.848
33658W        W 6083  26.697  11.281  10.811
33659W        W 6084  42.731  30.759  14.807
33660W        W 6085  18.843   1.056   1.268
33661W        W 6086  36.532   1.834   4.621
33662W        W 6087  32.426  26.585   1.340
33663W        W 6088   5.323   2.223  10.708
33664W        W 6089  25.124   4.352  12.942
33665W        W 6090  40.749   7.043   1.756
33666W        W 6091  33.981  25.113   0.093
33667W        W 6092  10.066  38.209  12.924
33668W        W 6093  13.297  43.030   0.906
33669W        W 6094   6.100   1.449  11.425
33670W        W 6095  25.886  11.215  13.598
33671W        W 6096  30.173  15.625   1.852
33672W        W 6097  11.394  40.925  11.419
33673W        W 6098  32.625  11.605  12.535
33674W        W 6099   9.290  17.780   2.259
33675W        W 6100  17.603   5.739   4.256
33676W        W 6101   9.775  33.060  14.931
33677W        W 6102  32.694  29.197   2.222
33678W        W 6103  20.292   0.657  12.579
33679W        W 6104  28.770  31.971  12.459
33680W        W 6105   3.012  11.271  13.483
33681W        W 6106  18.162   7.345   3.874
33682W        W 6107  28.198  18.599  10.892
33683W        W 6108  24.121  44.395  14.025
33684W        W 6109  18.617  14.290  14.045
33685W        W 6110   4.304   0.459   1.315
33686W        W 6111  40.278   7.660  14.933
33687W        W 6112  19.767  38.769  14.577
33688W        W 6113   5.296  26.380   4.601
33689W        W 6114  18.724   7.438   3.221
33690W        W 6115  16.136  25.996   2.865
33691W        W 6116  42.887  44.354  12.702
33692W        W 6117  33.461  32.504  14.204
33693W        W 6118  36.803  13.207   1.323
33694W        W 6119  35.405  37.126   1.312
33695W        W 6120  37.458   4.641   3.595
33696W        W 6121  43.890   3.295   4.713
33697W        W 6122   1.742  34.322   3.259
33698W        W 6123  19.942  26.063  13.819
33699W        W 6124  16.774  22.040  11.502
33700W        W 6125   1.934  32.606   1.785
33701W        W 6126  33.832  25.524  12.030
33702W        W 6127  17.316  34.957  12.114
33703W        W 6128  44.081  11.399   4.125
33704W        W 6129   2.729   0.095  14.074
33705W        W 6130  33.912  39.577   2.264
33706W        W 6131   8.930  15.590  12.572
33707W        W 6132  26.577  28.612   3.363
33708W        W 6133  11.742   7.228  14.052
33709W        W 6134  40.752   5.641   4.721
33710W        W 6135   3.990  37.142  14.711
33711W        W 6136   0.397   1.536   2.118
33712W        W 6137  31.858  21.235  10.650
33713W        W 6138  40.404  15.586  10.848
33714W        W 6139  12.195  43.213  11.628
33715W        W 6140  24.076  21.026  10.525
33716W        W 6141  25.360   3.684  13.859
33717W        W 6142   9.675  44.477   3.263
33718W        W 6143  35.251  26.743  12.131
33719W        W 6144  41.552   9.817   1.479
33720W        W 6145  35.060  12.309   3.246
33721W        W 6146  34.338   3.300  11.236
33722W        W 6147   8.328  23.549   3.603
33723W        W 6148  43.469  18.648   4.486
33724W        W 6149   2.440  15.117   0.495
33725W        W 6150  25.140  14.735  11.194
33726W        W 6151  29.089   5.288   0.370
33727W        W 6152  38.480  15.313   0.428
33728W        W 6153   5.770  19.805  13.517
33729W        W 6154  23.701  31.133   1.299
33730W        W 6155  38.435  18.224   2.162
33731W        W 6156   3.214  15.953   0.882
33732W        W 6157  36.021  30.998   2.176
33733W        W 6158  38.910  23.945  14.625
33734W        W 6159  39.925  13.941   4.138
33735W        W 6160   2.271  30.416  10.301
33736W        W 6161  24.618  40.468   4.131
33737W        W 6162  19.282   8.896   1.392
33738W        W 6163  34.852  18.636   0.819
33739W        W 6164  25.056   6.260  10.742
33740W        W 6165  32.557  41.378   0.842
33741W        W 6166  30.657  25.173   0.923
33742W        W 6167  21.192  32.301  14.408
33743W        W 6168  32.028  44.450   1.916
33744W        W 6169  43.584   1.818  13.559
33745W        W 6170  17.588   9.536   2.911
33746W        W 6171  10.720   4.690  13.232
33747W        W 6172  35.919   8.992  13.894
33748W        W 6173  13.266  37.807  13.323
33749W        W 6174  23.094   1.359   1.742
33750W        W 6175  34.400  43.258   1.173
33751W        W 6176  17.381   6.220  11.488
33752W        W 6177  28.032  11.088   0.417
33753W        W 6178   3.816  29.356  14.960
33754W        W 6179  37.469  31.316   0.317
33755W        W 6180  24.424  10.367  14.539
33756W        W 6181  34.835  15.819   0.416
33757W        W 6182  37.558  40.422   0.943
33758W        W 6183  16.298  37.396   2.277
33759W        W 6184  23.272  39.127   2.167
33760W        W 6185  18.837   3.094  14.924
33761W        W 6186  19.243  32.445   4.101
33762W        W 6187  11.651  27.338  11.556
33763W        W 6188  43.280  40.876  11.568
33764W        W 6189  13.769  36.378   2.247
33765W        W 6190   7.912   0.432   1.287
33766W        W 6191  40.353  35.917  11.130
33767W        W 6192  21.837  26.073  13.326
33768W        W 6193  34.828  39.379   2.200
33769W        W 6194  44.318  31.268   4.869
33770W        W 6195  40.284   3.886  10.502
33771W        W 6196  26.474  20.662   0.397
33772W        W 6197  42.648  12.287   3.839
33773W        W 6198  42.220  17.751   2.232
33774W        W 6199  16.781  33.854  11.513
33775W        W 6200  12.152  17.728  10.760
33776W        W 6201  16.708  10.347  10.497
33777W        W 6202  41.250  30.515   2.543
33778W        W 6203   4.333   9.924  11.023
33779W        W 6204  10.941  24.559  12.643
33780W        W 6205  37.456  10.000  10.444
33781W        W 6206  27.130  19.025   4.393
33782W        W 6207   1.764  24.686  14.316
33783W        W 6208  38.592   9.171  13.387
33784W        W 6209   9.765  27.206   1.624
33785W        W 6210  38.944   8.189  12.428
33786W        W 6211  39.801  39.002   4.945
33787W        W 6212  43.823  36.863   1.657
33788W        W 6213  28.893  24.007  14.474
33789W        W 6214  31.110  21.738   3.814
33790W        W 6215  40.833  31.066   3.232
33791W        W 6216  13.222  34.533  13.076
33792W        W 6217  16.126   4.192   3.211
33793W        W 6218  34.338  24.702   3.033
33794W        W 6219  32.500  21.970   1.265
33795W        W 6220  44.870   5.423   2.750
33796W        W 6221  13.169   1.613   3.134
33797W        W 6222  36.527  35.928   3.179
33798W        W 6223  14.738  35.904   4.686
33799W        W 6224  29.071  17.990   1.701
33800W        W 6225   9.894  12.709   2.477
33801W        W 6226   9.059   1.277   2.543
33802W        W 6227  14.402  13.537   2.736
33803W        W 6228  39.332  21.464   3.158
33804W        W 6229  39.381  42.351   4.194
33805W        W 6230  37.158  40.316  11.625
33806W        W 6231  27.157  11.134  10.580
33807W        W 6232   9.850   5.277  11.058
33808W        W 6233  25.451  44.442  10.240
33809W        W 6234  29.019   6.843   1.732
33810W        W 6235   3.588  39.677  10.938
33811W        W 6236   9.362  25.557  14.076
33812W        W 6237  32.186  10.166   0.347
33813W        W 6238  19.302  26.954   4.667
33814W        W 6239  18.158  27.485  14.088
33815W        W 6240  26.562  42.702   0.764
33816W        W 6241  15.251   7.807   1.346
33817W        W 6242  22.443  35.630   0.846
33818W        W 6243  29.695   5.255  11.914
33819W        W 6244   2.910  32.386  13.510
33820W        W 6245  10.787  28.986  10.594
33821W        W 6246  32.662   6.072  10.987
33822W        W 6247  43.940  22.072   3.886
33823W        W 6248  31.850  42.595   0.034
33824W        W 6249   7.327  41.980  10.755
33825W        W 6250  36.033  28.713   1.245
33826W        W 6251   2.932   8.834  11.118
33827W        W 6252  38.213  43.492   0.303
33828W        W 6253   2.559  16.199  13.027
33829W        W 6254  10.655   0.415   1.788
33830W        W 6255   4.740  34.549   2.301
33831W        W 6256   5.381   2.806   3.849
33832W        W 6257  28.320  20.514  13.300
33833W        W 6258  11.091  21.485   2.877
33834W        W 6259   2.190  36.668   0.355
33835W        W 6260  43.368  27.456  13.289
33836W        W 6261  10.652   7.391   3.087
33837W        W 6262   3.424  20.826   4.131
33838W        W 6263  42.752   1.802   4.758
33839W        W 6264  10.759  21.464  12.123
33840W        W 6265  19.010  22.647   0.414
33841W        W 6266  22.533  11.190   4.615
33842W        W 6267  27.071   7.363  12.463
33843W        W 6268  23.788  30.568   0.746
33844W        W 6269  29.899  23.715  13.227
33845W        W 6270  28.250  22.066  10.290
33846W        W 6271   0.707  26.693   2.184
33847W        W 6272  37.906  24.441  13.931
33848W        W 6273  17.250   3.001  13.658
33849W        W 6274  16.913  35.581   2.091
33850W        W 6275  19.615  36.866  14.871
33851W        W 6276  12.124  12.120   0.727
33852W        W 6277  35.433  10.357  11.543
33853W        W 6278  28.156  44.807   2.602
33854W        W 6279  29.438   6.195  10.610
33855W        W 6280  33.950  37.166  12.494
33856W        W 6281  16.956   1.420   2.648
33857W        W 6282  44.255   2.101  14.810
33858W        W 6283  23.240  39.341   1.678
33859W        W 6284  20.973   4.973   0.222
33860W        W 6285  40.725  28.078  11.929
33861W        W 6286  10.361  32.075   0.174
33862W        W 6287   0.769  34.031   3.656
33863W        W 6288  25.682  20.405   0.937
33864W        W 6289   4.291  17.925   0.487
33865W        W 6290  40.655  35.986   3.711
33866W        W 6291  13.307  40.878   2.657
33867W        W 6292  15.337  19.340   0.264
33868W        W 6293   0.448  25.609   4.437
33869W        W 6294   9.817  44.517  10.688
33870W        W 6295  19.825  18.016  14.849
33871W        W 6296  33.641  40.900   1.338
33872W        W 6297  31.666  40.481   0.344
33873W        W 6298  26.511  25.511  13.378
33874W        W 6299  33.635   1.244   2.737
33875W        W 6300   1.041  24.602   1.746
33876W        W 6301  41.137   0.344   0.363
33877W        W 6302  11.657  27.279  12.912
33878W        W 6303   8.586   2.776   1.660
33879W        W 6304  17.911  29.138   0.767
33880W        W 6305  41.346  43.012   1.280
33881W        W 6306  13.377  30.425   2.165
33882W        W 6307  31.615  30.185  11.609
33883W        W 6308   3.418   4.245   2.825
33884W        W 6309  42.920  28.102  11.083
33885W        W 6310  13.763  33.323   3.655
33886W        W 6311   7.959  15.358   4.592
33887W        W 6312  26.719  43.776   0.868
33888W        W 6313   5.192   0.365  12.397
33889W        W 6314   2.012  32.934  14.283
33890W        W 6315  15.799  16.330  11.596
33891W        W 6316   5.191  33.819   2.675
33892W        W 6317  36.062  17.235  11.266
33893W        W 6318  14.212   4.134  13.986
33894W        W 6319  14.318  33.185   4.316
33895W        W 6320   4.021  19.217  12.466
33896W        W 6321  17.786  39.483  14.621
33897W        W 6322  42.418  18.248   2.207
33898W        W 6323  29.229  36.324  12.522
33899W        W 6324   8.808  38.481  14.344
33900W        W 6325  42.875  41.391   3.757
33901W        W 6326  28.509   5.726   0.392
33902W        W 6327  20.692  38.034   2.878
33903W        W 6328  22.142  36.400  13.435
33904W        W 6329  38.798  44.003  13.477
33905W        W 6330   5.701  29.601   1.987
33906W        W 6331  29.548  15.018  14.433
33907W        W 6332  31.128  15.421  14.032
33908W        W 6333   1.571  19.382  12.674
33909W        W 6334  10.377   7.821   0.657
33910W        W 6335  30.843  39.638   1.948
33911W        W 6336  13.128  31.440   3.235
33912W        W 6337  43.352  44.306  13.941
33913W        W 6338  43.100  19.788  12.615
33914W        W 6339  20.968  28.118   0.476
33915W        W 6340  14.285   1.404   2.127
33916W        W 6341  20.581  12.894   4.657
33917W        W 6342  34.382  43.836  10.580
33918W        W 6343  15.893  35.032  10.665
33919W        W 6344  44.527   5.835   2.091
33920W        W 6345  30.757  41.418   4.121
33921W        W 6346  38.367  32.188   1.939
33922W        W 6347   7.243  21.978   4.268
33923W        W 6348   3.963   8.745   0.513
33924W        W 6349  24.887  43.883   2.634
33925W        W 6350   1.526  24.664   1.930
33926W        W 6351  26.656  29.566  10.673
33927W        W 6352  10.445  24.234   2.682
33928W        W 6353  15.822  32.029   3.189
33929W        W 6354   5.822   3.841  13.056
33930W        W 6355  34.907  24.067  14.983
33931W        W 6356  24.648  39.813  13.803
33932W        W 6357  18.057  22.690   0.391
33933W        W 6358  43.937  30.608   1.921
33934W        W 6359   3.756  12.756   4.665
33935W        W 6360  42.482   8.822   4.283
33936W        W 6361  39.028  14.681  12.485
33937W        W 6362   7.318  42.809  10.948
33938W        W 6363  39.812  31.344  14.508
33939W        W 6364   3.207  19.090  14.725
33940W        W 6365  37.855  28.121  13.942
33941W        W 6366  34.665  19.577   4.544
33942W        W 6367   2.664  14.198   4.457
33943W        W 6368  38.880  39.859   3.540
33944W        W 6369  23.030   9.639   2.322
33945W        W 6370  15.146  26.312  13.049
33946W        W 6371   8.262  20.763  12.626
33947W        W 6372  20.510  16.358  14.886
33948W        W 6373  39.498  43.949   3.917
33949W        W 6374  19.072  31.922   5.126
33950W        W 6375  43.514  42.759  13.793
33951W        W 6376  17.442   2.004   9.819
33952W        W 6377  14.249   4.217  12.415
33953W        W 6378  12.771  13.651   0.883
33954W        W 6379  38.815  30.411   5.118
33955W        W 6380  13.262   3.427   0.222
33956W        W 6381  43.299   9.134  13.994
33957W        W 6382  39.853  22.262  11.663
33958W        W 6383  15.331  27.174   3.640
33959W        W 6384  41.063  11.763   3.338
33960W        W 6385  22.539  34.055   0.695
33961W        W 6386   0.221  40.281   3.695
33962W        W 6387   8.943  11.781  14.252
33963W        W 6388  22.195  33.190  11.074
33964W        W 6389  38.159  21.338   3.873
33965W        W 6390  42.107  19.340   0.744
33966W        W 6391  30.169  14.337   1.383
33967W        W 6392  27.076  22.913   0.489
33968W        W 6393  36.321  23.675   0.641
33969W        W 6394  34.341  32.072   0.815
33970W        W 6395   4.992  19.104   0.770
33971W        W 6396  32.148  35.908   0.713
33972W        W 6397  11.665  20.155  10.531
33973W        W 6398   1.236  37.140  11.989
33974W        W 6399   9.824  16.161   4.190
33975W        W 6400   0.338  44.976   4.488
33976W        W 6401  35.944  28.147  11.195
33977W        W 6402  21.595   5.562   2.132
33978W        W 6403  38.034  32.826   0.907
33979W        W 6404   3.444   6.298   3.841
33980W        W 6405   7.393  13.158  10.773
33981W        W 6406  33.380  19.585   2.785
33982W        W 6407   3.227  27.242   0.807
33983W        W 6408  34.946  41.884   2.219
33984W        W 6409   6.098   8.190   2.669
33985W        W 6410  28.173   0.736   1.783
33986W        W 6411  26.730   6.916  13.443
33987W        W 6412  16.552  34.091   1.941
33988W        W 6413  35.989  16.388   2.923
33989W        W 6414  12.540  38.018   2.800
33990W        W 6415  39.287  25.638  14.398
33991W        W 6416  39.077  40.681   4.916
33992W        W 6417  15.241  13.487  14.186
33993W        W 6418  44.234   3.796   2.174
33994W        W 6419  25.254  31.019  10.601
33995W        W 6420  16.622   6.021  13.946
33996W        W 6421  29.564  30.325   2.157
33997W        W 6422  18.039   5.985   4.186
33998W        W 6423  19.213   6.147  11.459
33999W        W 6424   6.877  37.912   3.577
34000W        W 6425  10.614  44.978   3.730
34001W        W 6426  13.646   0.861   4.350
34002W        W 6427  35.510  41.873   4.461
34003W        W 6428  21.525  32.666  13.297
34004W        W 6429  43.025  15.065   2.193
34005W        W 6430   5.758  11.504   4.234
34006W        W 6431  36.828  27.175   1.843
34007W        W 6432  17.793  20.285  10.763
34008W        W 6433   9.446  20.703  12.580
34009W        W 6434   3.190   1.021   4.717
34010W        W 6435   0.434  32.334   3.629
34011W        W 6436  16.513  32.846  14.950
34012W        W 6437   3.781  38.041   4.202
34013W        W 6438  33.694   0.327  12.488
34014W        W 6439  43.888  11.123  14.626
34015W        W 6440  27.102  14.965   4.071
34016W        W 6441  41.596   8.277   3.418
34017W        W 6442  36.835  14.477   3.227
34018W        W 6443  33.550   9.971  13.881
34019W        W 6444  20.498  32.576  13.086
34020W        W 6445   8.278  29.442   1.397
34021W        W 6446   1.091   1.258   3.554
34022W        W 6447  10.407   5.318  11.958
34023W        W 6448  24.696   6.442  11.784
34024W        W 6449  24.155  43.244  13.320
34025W        W 6450  27.016  36.600   2.101
34026W        W 6451  24.592  35.241   3.588
34027W        W 6452   3.379  30.635   3.715
34028W        W 6453  35.523  14.520  13.150
34029W        W 6454  20.964  34.570   5.092
34030W        W 6455  39.126  26.253   0.294
34031W        W 6456  15.142  33.100  11.906
34032W        W 6457  29.022  29.928  14.518
34033W        W 6458  17.464   4.198  11.652
34034W        W 6459  30.066  41.539  12.025
34035W        W 6460   8.964  31.084   4.797
34036W        W 6461  24.208  28.243  10.840
34037W        W 6462  39.116  26.268  11.886
34038W        W 6463  22.669   9.870   3.256
34039W        W 6464  22.360  23.672  10.734
34040W        W 6465   9.390  19.181  11.095
34041W        W 6466  41.890  36.355   1.574
34042W        W 6467   3.813  41.829  14.486
34043W        W 6468  34.862   3.676   4.543
34044W        W 6469  27.650  26.156  14.416
34045W        W 6470   6.849  42.365   2.282
34046W        W 6471   4.943   3.042  11.644
34047W        W 6472  13.341  26.215   0.378
34048W        W 6473  22.207  36.269   4.861
34049W        W 6474  19.080  42.090   0.032
34050W        W 6475  30.170  31.578   1.648
34051W        W 6476  44.356  42.745  11.515
34052W        W 6477  41.859  28.503  12.338
34053W        W 6478  41.043  38.976  12.954
34054W        W 6479  18.076  32.508   0.368
34055W        W 6480  33.288   3.330   5.135
34056W        W 6481  35.074  18.733   0.310
34057W        W 6482  27.869  40.456   5.115
34058W        W 6483   0.901   3.453   2.737
34059W        W 6484  22.637  17.140  11.414
34060W        W 6485  41.470  41.139   0.909
34061W        W 6486  30.699  16.658  13.063
34062W        W 6487  16.228  30.654   0.773
34063W        W 6488  32.674  30.550   4.178
34064W        W 6489  14.530  40.425   4.764
34065W        W 6490   7.258  24.169  10.375
34066W        W 6491  37.501   6.636   2.365
34067W        W 6492   9.249  17.222   3.104
34068W        W 6493   0.734   4.613  12.717
34069W        W 6494   6.411  16.710  13.950
34070W        W 6495  28.022  40.448  11.951
34071W        W 6496  15.360  40.450  14.359
34072W        W 6497  18.520  33.146   3.225
34073W        W 6498   7.092  44.797   4.618
34074W        W 6499   8.857   2.413  14.848
34075W        W 6500  12.786   6.702  11.743
34076W        W 6501  34.614  33.382   3.287
34077W        W 6502   6.543  36.871   1.930
34078W        W 6503  42.700  17.816  12.327
34079W        W 6504  27.066  29.817  13.858
34080W        W 6505   4.177  33.739  13.155
34081W        W 6506  37.679  26.117  13.651
34082W        W 6507  42.226  19.601   5.092
34083W        W 6508   1.711  24.246   0.185
34084W        W 6509  17.127  15.410  13.647
34085W        W 6510  33.533  43.498  10.625
34086W        W 6511  29.196  28.446  11.366
34087W        W 6512  16.125   1.417  13.329
34088W        W 6513   7.467  30.173  11.431
34089W        W 6514  27.126   5.687  12.064
34090W        W 6515   8.081  20.932   4.103
34091W        W 6516  42.579   5.992   4.651
34092W        W 6517   0.342  24.119   2.292
34093W        W 6518  36.361  25.528   5.056
34094W        W 6519   9.436  20.612   0.475
34095W        W 6520  41.264   3.325  10.736
34096W        W 6521  12.682   8.500  11.842
34097W        W 6522   9.745  41.324  14.893
34098W        W 6523  21.104  44.775  11.513
34099W        W 6524  12.270  12.699   1.595
34100W        W 6525  17.047  24.033   2.678
34101W        W 6526  38.790  32.470  10.306
34102W        W 6527  33.878  33.428  14.039
34103W        W 6528   5.736   0.153   0.417
34104W        W 6529  30.325   2.524   4.286
34105W        W 6530  34.010  39.249   1.838
34106W        W 6531  25.979  19.132   4.223
34107W        W 6532  36.939  42.486   1.946
34108W        W 6533  13.850  29.410   0.013
34109W        W 6534  28.066  26.626  13.512
34110W        W 6535  43.222   2.014   4.611
34111W        W 6536   3.353   7.858   5.009
34112W        W 6537   2.213   7.292  13.405
34113W        W 6538   0.887   4.465   4.661
34114W        W 6539  23.727  34.916   3.154
34115W        W 6540  20.171   2.709  13.355
34116W        W 6541  25.513   2.260   1.287
34117W        W 6542  39.774  44.546   4.295
34118W        W 6543  19.879   0.394  11.072
34119W        W 6544  18.232  35.060   1.319
34120W        W 6545  43.196  41.383   2.353
34121W        W 6546  16.657  13.147  10.929
34122W        W 6547  26.249  22.621  14.573
34123W        W 6548  25.992  29.419   3.979
34124W        W 6549  40.824  10.183   0.458
34125W        W 6550  28.447  18.309   4.234
34126W        W 6551  27.092  19.093  11.490
34127W        W 6552  27.962  43.862  12.551
34128W        W 6553  29.090   3.403  12.011
34129W        W 6554  18.281  43.041  14.320
34130W        W 6555  10.771   6.233   0.451
34131W        W 6556   8.719  30.741  14.679
34132W        W 6557  18.161   6.867   3.662
34133W        W 6558   9.230  13.247  14.390
34134W        W 6559   6.323  40.368  13.444
34135W        W 6560  20.997   7.655  11.355
34136W        W 6561  25.977  24.614   2.691
34137W        W 6562   2.907  29.008  12.853
34138W        W 6563  14.074  38.464   3.164
34139W        W 6564  38.266   3.387   0.233
34140W        W 6565   4.753  11.339   1.917
34141W        W 6566  10.575  34.701   2.600
34142W        W 6567  32.567   6.152  14.800
34143W        W 6568  13.351  13.344  12.921
34144W        W 6569  13.575   3.692   4.087
34145W        W 6570  19.669  38.473  13.393
34146W        W 6571  20.472   9.434   2.750
34147W        W 6572  44.811  42.857   3.340
34148W        W 6573   1.476  33.558   4.685
34149W        W 6574  24.408   6.130  11.469
34150W        W 6575  17.385  28.533   1.728
34151W        W 6576   1.540  40.198   0.021
34152W        W 6577  36.883  32.594  12.039
34153W        W 6578  27.819  38.263   3.317
34154W        W 6579  10.146  34.431   4.125
34155W        W 6580  17.350  41.287   2.098
34156W        W 6581  42.239  14.302   2.430
34157W        W 6582  33.496  10.137  10.408
34158W        W 6583  38.145  40.349  11.442
34159W        W 6584  30.632  28.405   1.243
34160W        W 6585  29.649   4.954   2.409
34161W        W 6586  41.387  41.744  11.034
34162W        W 6587  22.999  29.206  11.681
34163W        W 6588  26.717  37.591  11.571
34164W        W 6589  20.705  36.866   1.200
34165W        W 6590  13.305   4.760   0.529
34166W        W 6591  22.952   5.374   3.205
34167W        W 6592   5.227  29.518   0.635
34168W        W 6593  13.063  30.816  12.927
34169W        W 6594   9.597  37.157  12.189
34170W        W 6595  21.296  41.408   2.689
34171W        W 6596   5.785  42.369  13.691
34172W        W 6597  22.214  39.647   1.850
34173W        W 6598   5.188  44.688   2.207
34174W        W 6599  43.135  29.118   3.407
34175W        W 6600  26.209   1.538  12.585
34176W        W 6601   1.444   7.255  11.599
34177W        W 6602  40.807  16.399  14.385
34178W        W 6603   4.302  14.661   2.712
34179W        W 6604  23.586   4.440   2.568
34180W        W 6605   9.542  19.780  13.360
34181W        W 6606  22.532  34.537   1.316
34182W        W 6607   6.574   9.430  10.499
34183W        W 6608   0.909  28.531   1.555
34184W        W 6609  33.535  30.688  13.838
34185W        W 6610  31.182  26.659  10.125
34186W        W 6611   2.927   9.641   1.169
34187W        W 6612  36.455   9.129  12.052
34188W        W 6613   5.219  29.641   1.128
34189W        W 6614  22.036  28.594   3.335
34190W        W 6615   1.835  15.260  11.662
34191W        W 6616  37.149  19.495   5.000
34192W        W 6617  31.472  31.067   1.262
34193W        W 6618  31.445  43.980  14.909
34194W        W 6619  30.853  34.995  11.448
34195W        W 6620   0.901   4.895   1.802
34196W        W 6621  20.597   1.399   2.585
34197W        W 6622   6.545   8.072   0.420
34198W        W 6623  25.565  26.542   9.977
34199W        W 6624   5.920   0.171  14.040
34200W        W 6625  44.994  27.704   1.731
34201W        W 6626  21.035  39.887   0.451
34202W        W 6627   7.208   4.419  10.707
34203W        W 6628   3.786  17.725   3.658
34204W        W 6629   7.829   8.723   3.370
34205W        W 6630  22.100  30.259  10.402
34206W        W 6631   7.124  24.612   0.201
34207W        W 6632  19.882  36.869   2.796
34208W        W 6633   6.451   1.932   0.627
34209W        W 6634  26.045  10.380   2.386
34210W        W 6635  24.318  31.941   0.893
34211W        W 6636  24.223  28.640   0.507
34212W        W 6637  22.646  21.332   5.143
34213W        W 6638   5.358  20.889   1.129
34214W        W 6639  18.336  16.865   4.771
34215W        W 6640  15.585  32.028   4.081
34216W        W 6641  37.309  40.433   2.352
34217W        W 6642  13.001  35.579   1.658
34218W        W 6643  42.899  38.853   1.475
34219W        W 6644  23.577  38.585  11.508
34220W        W 6645  41.567  26.023   1.192
34221W        W 6646  23.035  11.767  14.209
34222W        W 6647   5.754   8.295  13.429
34223W        W 6648  38.847  11.487  14.291
34224W        W 6649  27.688  11.337  12.294
34225W        W 6650  39.535  41.276   1.795
34226W        W 6651   1.227  14.735  12.794
34227W        W 6652  17.583  37.010  12.870
34228W        W 6653   0.818  44.943   3.718
34229W        W 6654   0.246   2.781  10.766
34230W        W 6655  22.073  25.143   3.852
34231W        W 6656   2.923  43.516   4.611
34232W        W 6657  34.458  39.689  11.117
34233W        W 6658  22.513  31.261   1.861
34234W        W 6659  22.969  31.000  11.090
34235W        W 6660  43.743  25.692  14.942
34236W        W 6661   4.420  12.034  12.022
34237W        W 6662  22.852  14.311  13.822
34238W        W 6663  30.914  37.340   0.011
34239W        W 6664   9.948  29.007   1.350
34240W        W 6665   7.869  11.600  11.382
34241W        W 6666  33.689   1.184   1.866
34242W        W 6667  10.984  42.137  11.562
34243W        W 6668  19.912  20.174  14.875
34244W        W 6669   4.788  14.306  13.933
34245W        W 6670  40.415   1.494   0.687
34246W        W 6671  16.196  39.457   0.272
34247W        W 6672  13.062   8.272   1.402
34248W        W 6673   7.728  17.741   4.305
34249W        W 6674  12.626  35.311  14.932
34250W        W 6675  44.711   5.302  11.682
34251W        W 6676  18.276  39.060   1.981
34252W        W 6677  21.136  39.094   4.247
34253W        W 6678  21.787  42.541  10.668
34254W        W 6679  15.671  35.465  11.413
34255W        W 6680   3.212  30.182  13.033
34256W        W 6681  13.557   2.179  14.893
34257W        W 6682  16.119  35.920  14.403
34258W        W 6683  27.060  24.284  12.610
34259W        W 6684   9.270  39.186  14.334
34260W        W 6685  12.187  20.006   4.655
34261W        W 6686   2.765  29.947  14.339
34262W        W 6687   1.455   7.498  11.132
34263W        W 6688  24.180  39.539  13.820
34264W        W 6689  40.063   9.176  13.810
34265W        W 6690  11.017  25.935  14.868
34266W        W 6691  42.773  29.451   3.176
34267W        W 6692  22.808  11.676  10.126
34268W        W 6693  19.996  26.150   2.231
34269W        W 6694  15.994  40.643  12.703
34270W        W 6695   4.960   3.321   0.434
34271W        W 6696   5.104  25.183  12.535
34272W        W 6697  35.792  26.098  14.062
34273W        W 6698   9.563  38.307  14.176
34274W        W 6699  42.413   4.874  13.486
34275W        W 6700   3.446  17.316   1.855
34276W        W 6701  18.055  27.956   1.117
34277W        W 6702   5.041  21.137   2.777
34278W        W 6703  31.890  12.104  12.388
34279W        W 6704  31.470   8.300  14.779
34280W        W 6705   3.985  16.815   4.892
34281W        W 6706  15.556  25.228   0.880
34282W        W 6707  22.041  20.493  12.502
34283W        W 6708  39.036  43.969   0.079
34284W        W 6709  41.219  38.068   1.368
34285W        W 6710  35.991  44.046   1.910
34286W        W 6711   6.816  23.486  14.057
34287W        W 6712  22.245   6.471  12.538
34288W        W 6713  16.167  28.433   2.579
34289W        W 6714  15.731  31.511  10.645
34290W        W 6715   4.851  10.927   3.404
34291W        W 6716   3.811   4.567   2.746
34292W        W 6717  21.527  32.662   2.772
34293W        W 6718  18.892  14.599  11.949
34294W        W 6719  38.625  12.714   2.802
34295W        W 6720  42.320  18.446   1.715
34296W        W 6721  24.534  42.230   2.684
34297W        W 6722  15.639  20.473  11.172
34298W        W 6723  27.293  16.617  13.075
34299W        W 6724  20.474  42.725  14.946
34300W        W 6725   4.919  28.090   2.467
34301W        W 6726  19.115  40.865   3.229
34302W        W 6727  20.839  19.070   4.206
34303W        W 6728  25.687  29.359  14.711
34304W        W 6729  15.171  33.575  10.708
34305W        W 6730  41.056  32.215  11.160
34306W        W 6731   8.847  18.308  11.164
34307W        W 6732  32.873  12.797  11.492
34308W        W 6733   5.417  34.664   0.963
34309W        W 6734   2.291   0.176  13.784
34310W        W 6735  26.908  34.621  12.259
34311W        W 6736  21.602  22.063   1.928
34312W        W 6737   1.438  15.052  14.859
34313W        W 6738   9.762  34.332  10.559
34314W        W 6739  17.698  36.557  13.616
34315W        W 6740  20.291   8.560   1.290
34316W        W 6741  33.646  17.184   2.417
34317W        W 6742  11.603  29.927  14.976
34318W        W 6743  21.452  12.410   0.697
34319W        W 6744  40.017   1.180  12.964
34320W        W 6745   8.736  30.216  12.016
34321W        W 6746  40.031  22.729  13.589
34322W        W 6747   2.528  17.383  10.313
34323W        W 6748  40.413  37.553   1.337
34324W        W 6749  17.587  40.297  13.939
34325W        W 6750  11.140   7.161   2.412
34326W        W 6751  37.562  20.687   3.909
34327W        W 6752   5.280  39.302  12.446
34328W        W 6753  30.889  18.737  10.163
34329W        W 6754  39.011  36.006  10.755
34330W        W 6755  18.471  40.543  14.067
34331W        W 6756   7.361   2.222   3.648
34332W        W 6757   9.313  21.176   4.616
34333W        W 6758  35.882   7.921  11.008
34334W        W 6759  16.618  19.527  14.229
34335W        W 6760   6.488  41.085  13.116
34336W        W 6761  36.947   6.516   0.501
34337W        W 6762  25.646  24.680   1.714
34338W        W 6763   1.997  20.607   4.134
34339W        W 6764  18.150  30.399   9.622
34340W        W 6765   6.361  16.004   3.824
34341W        W 6766   5.233   6.890   0.047
34342W        W 6767  15.817  17.562   0.858
34343W        W 6768   1.552  13.220   4.564
34344W        W 6769  12.073  37.950  12.380
34345W        W 6770  43.821  31.354  10.805
34346W        W 6771  17.529  10.651  14.453
34347W        W 6772   3.369  41.156  12.922
34348W        W 6773  19.965   1.696   4.155
34349W        W 6774  43.403   8.656  13.043
34350W        W 6775  27.173  11.090   3.266
34351W        W 6776  30.210  39.256   4.361
34352W        W 6777  42.849  27.482  10.706
34353W        W 6778  21.342  32.121  13.091
34354W        W 6779  21.597  18.745  10.934
34355W        W 6780  44.327   4.639   1.003
34356W        W 6781   4.436  30.036   3.157
34357W        W 6782   7.372  12.351  12.022
34358W        W 6783  23.493  14.216   4.721
34359W        W 6784   2.934  11.136  12.101
34360W        W 6785  26.458  32.482   1.880
34361W        W 6786  37.181   2.651   1.343
34362W        W 6787  13.416  29.460  13.068
34363W        W 6788  29.080   2.385   4.584
34364W        W 6789  41.082  44.944   4.066
34365W        W 6790  25.701  27.201   0.821
34366W        W 6791   1.040  42.849  12.552
34367W        W 6792  25.185  19.225  14.505
34368W        W 6793  28.041  36.936   1.498
34369W        W 6794  41.221  28.460  10.942
34370W        W 6795   7.254  42.576   4.343
34371W        W 6796  21.233   8.197   2.897
34372W        W 6797  11.068  39.654  14.370
34373W        W 6798  16.986   0.888   0.291
34374W        W 6799  32.069  24.294  14.998
34375W        W 6800  28.078   8.786  12.786
34376W        W 6801  27.215  41.125   4.323
34377W        W 6802   5.981  19.380  13.752
34378W        W 6803   7.707  39.770   3.835
34379W        W 6804   8.050  16.680   0.407
34380W        W 6805  27.628  44.017   3.871
34381W        W 6806   3.146   9.329  14.082
34382W        W 6807  29.145  30.761  10.015
34383W        W 6808  25.924  32.151  12.442
34384W        W 6809   7.281  33.095   3.479
34385W        W 6810  15.213  41.861   4.712
34386W        W 6811  24.129  34.491  13.402
34387W        W 6812   6.912  38.486   2.258
34388W        W 6813  17.060  31.116  12.804
34389W        W 6814  41.539  26.710  10.567
34390W        W 6815  31.461  28.956  12.880
34391W        W 6816  16.062  34.020  13.710
34392W        W 6817  35.266  32.955   2.356
34393W        W 6818  17.588  20.261  14.975
34394W        W 6819  14.258   3.753  12.139
34395W        W 6820  17.562  13.546  14.350
34396W        W 6821  17.559  32.514   0.286
34397W        W 6822   7.830  28.242   1.733
34398W        W 6823   7.700  40.741  11.679
34399W        W 6824  34.935  12.027  11.899
34400W        W 6825  18.560  33.351  10.568
34401W        W 6826  20.562  37.328  14.810
34402W        W 6827  16.207  20.614   2.160
34403W        W 6828   7.328   9.152  14.497
34404W        W 6829  42.041   4.671   2.773
34405W        W 6830  29.621  43.690  11.900
34406W        W 6831   7.837   9.275  12.414
34407W        W 6832  14.306  14.163   2.270
34408W        W 6833   2.158  22.284   2.196
34409W        W 6834  14.386  44.368  10.472
34410W        W 6835   0.882  18.275   1.277
34411W        W 6836  12.041  13.348   4.609
34412W        W 6837  24.413  19.332  14.087
34413W        W 6838  16.313   8.821   4.175
34414W        W 6839   3.380  29.983   0.196
34415W        W 6840   7.282  33.743  12.478
34416W        W 6841   4.960  20.217  13.074
34417W        W 6842   5.641  26.720  13.818
34418W        W 6843  19.208  43.549   2.811
34419W        W 6844   1.842  36.900  11.010
34420W        W 6845  20.982  35.495  12.454
34421W        W 6846   9.416  35.124   0.534
34422W        W 6847  31.374   8.643   2.735
34423W        W 6848   3.577   3.886  10.693
34424W        W 6849  37.303  27.508  11.140
34425W        W 6850   9.708  32.476  13.659
34426W        W 6851  30.879  41.870   2.328
34427W        W 6852  21.940  16.044   3.111
34428W        W 6853  37.062  29.965  14.280
34429W        W 6854  42.893  35.407  13.258
34430W        W 6855  30.147   2.407  12.956
34431W        W 6856  23.760  28.987  12.504
34432W        W 6857  43.450  28.482  12.636
34433W        W 6858   7.794   4.235  12.999
34434W        W 6859  34.581  43.729   3.293
34435W        W 6860  18.206  15.595   0.382
34436W        W 6861   7.801  14.759   3.119
34437W        W 6862   2.988  10.659   4.030
34438W        W 6863  12.815  12.387  13.631
34439W        W 6864  21.744  30.323   3.677
34440W        W 6865  24.176  44.865  10.702
34441W        W 6866  26.117  16.264   4.271
34442W        W 6867   6.382  20.195   3.876
34443W        W 6868   6.364  31.809   0.257
34444W        W 6869  22.250  27.260   0.302
34445W        W 6870  35.391  41.958   2.495
34446W        W 6871  24.712  22.328  13.276
34447W        W 6872  29.423  12.601  13.884
34448W        W 6873  37.813  21.473   2.194
34449W        W 6874  26.546  44.214   3.633
34450W        W 6875  30.123   4.659   1.705
34451W        W 6876  39.543  30.475  11.992
34452W        W 6877  30.682  11.396   2.278
34453W        W 6878  15.426   3.056  13.503
34454W        W 6879  28.043   1.798  10.448
34455W        W 6880  41.075   5.613   2.199
34456W        W 6881   5.681  31.457  11.766
34457W        W 6882  17.072  42.811  14.692
34458W        W 6883  16.270  25.199  13.131
34459W        W 6884  20.281  44.112  10.517
34460W        W 6885   7.473  31.777  10.581
34461W        W 6886  23.966   4.420   2.170
34462W        W 6887  19.610  27.130   0.189
34463W        W 6888  15.273  44.901   2.227
34464W        W 6889  44.314  24.296  11.238
34465W        W 6890   1.097  16.793   4.974
34466W        W 6891  30.089   3.857   3.107
34467W        W 6892  29.997  17.173   2.850
34468W        W 6893  27.853   0.471  12.350
34469W        W 6894  13.094   2.422  12.951
34470W        W 6895  16.482  13.655   3.786
34471W        W 6896  43.951  12.773   0.436
34472W        W 6897  21.961  21.550  14.446
34473W        W 6898  15.817  29.474   0.014
34474W        W 6899  27.523  18.790   4.069
34475W        W 6900  20.813  30.524   4.651
34476W        W 6901  21.153  26.731  12.421
34477W        W 6902  38.354   7.807   4.155
34478W        W 6903  43.892   3.758   3.721
34479W        W 6904  34.492  16.122  14.149
34480W        W 6905  14.625   1.870  12.087
34481W        W 6906  30.049  31.769   3.766
34482W        W 6907  15.089   9.387  12.177
34483W        W 6908  44.958  39.203  12.111
34484W        W 6909  16.178  30.724   5.081
34485W        W 6910  21.379  11.466   9.693
34486W        W 6911  23.228  36.390  14.082
34487W        W 6912   9.314   0.854   2.654
34488W        W 6913  36.155  11.335  13.851
34489W        W 6914  32.182  18.638   5.106
34490W        W 6915  12.555  23.500  14.241
34491W        W 6916   6.183  22.529  10.293
34492W        W 6917  10.782  43.796   4.393
34493W        W 6918  19.342   4.506  12.322
34494W        W 6919  39.911  15.342   0.492
34495W        W 6920  24.517  32.637   2.287
34496W        W 6921  14.069   3.414   4.594
34497W        W 6922  20.934   0.462   0.341
34498W        W 6923   0.707  12.089   0.529
34499W        W 6924   6.243  43.876  11.434
34500W        W 6925  30.956  29.404  11.525
34501W        W 6926   4.334  19.139   3.352
34502W        W 6927  31.951  16.662   3.525
34503W        W 6928  44.897  15.381   2.361
34504W        W 6929  21.723  43.355   1.455
34505W        W 6930  19.950  11.565   5.093
34506W        W 6931   6.853  38.968   2.419
34507W        W 6932   8.632  22.653   2.835
34508W        W 6933  17.650  31.019   4.076
34509W        W 6934  43.837  44.284  13.365
34510W        W 6935  30.883  13.187   2.318
34511W        W 6936   3.375  39.606   1.341
34512W        W 6937  28.574  30.954   0.060
34513W        W 6938   1.279  43.253   0.332
34514W        W 6939  19.011  30.885  14.296
34515W        W 6940  26.171  20.243   2.855
34516W        W 6941  12.416  41.459   0.889
34517W        W 6942  39.925   6.859   3.146
34518W        W 6943  39.426   3.919  10.564
34519W        W 6944   0.469   5.850  13.750
34520W        W 6945  16.795  41.682  13.078
34521W        W 6946   9.844   1.383   1.320
34522W        W 6947   7.442  41.488   1.919
34523W        W 6948  14.642  11.220   3.740
34524W        W 6949  14.572  19.998  13.030
34525W        W 6950  39.309  12.780   0.511
34526W        W 6951  20.810  13.302   2.471
34527W        W 6952   8.728  18.691   3.071
34528W        W 6953  11.557  16.011   3.722
34529W        W 6954  44.563  13.817  13.394
34530W        W 6955  32.945  33.450   1.818
34531W        W 6956  28.917   2.710  13.656
34532W        W 6957  24.503   3.745   2.831
34533W        W 6958  14.156   2.784   3.876
34534W        W 6959   7.831   9.653  10.674
34535W        W 6960  11.741  24.748  14.888
34536W        W 6961  17.216   1.912   5.391
34537W        W 6962  24.109  37.552  13.772
34538W        W 6963  15.144  30.225   1.190
34539W        W 6964  22.454  33.680  13.397
34540W        W 6965   0.923  15.074  14.811
34541W        W 6966  30.411   3.393  13.653
34542W        W 6967   1.267  38.148  12.043
34543W        W 6968   1.968  11.216   2.299
34544W        W 6969  28.136   9.501   4.928
34545W        W 6970   3.845   9.342   3.105
34546W        W 6971  27.902  39.067   0.945
34547W        W 6972  16.790  30.183   4.647
34548W        W 6973  19.544  22.709   0.496
34549W        W 6974  28.109  23.792  14.062
34550W        W 6975  13.785   9.327  14.490
34551W        W 6976  37.898  21.668   3.598
34552W        W 6977  19.452  32.431  14.945
34553W        W 6978  27.497  15.245  12.476
34554W        W 6979  20.589   1.382  14.704
34555W        W 6980  33.316  28.064  12.729
34556W        W 6981   0.983  24.182  14.922
34557W        W 6982  41.891  10.548   1.770
34558W        W 6983   7.361  29.454   4.607
34559W        W 6984  32.895  23.970  14.911
34560W        W 6985  34.323   2.279  14.893
34561W        W 6986   5.442  32.536  14.798
34562W        W 6987  16.606  32.372  14.733
34563W        W 6988  35.876   7.343  12.924
34564W        W 6989  32.452  11.135  11.315
34565W        W 6990   3.538  17.738   4.131
34566W        W 6991   0.315  34.013  11.660
34567W        W 6992  39.302  19.576  13.037
34568W        W 6993  39.031  17.602  14.960
34569W        W 6994  19.511  33.995   3.272
34570W        W 6995  35.467  23.150   0.102
34571W        W 6996   0.930   0.853   0.509
34572W        W 6997  16.993  37.182   4.354
34573W        W 6998  12.182  40.757  12.618
34574W        W 6999  17.513  14.794  12.996
34575W        W 7000  36.778   3.312   1.730
34576W        W 7001  34.076  38.083  10.656
34577W        W 7002  19.722  38.515  11.487
34578W        W 7003   7.833  23.542  14.183
34579W        W 7004  29.592   9.121   4.702
34580W        W 7005  13.810  44.904  12.500
34581W        W 7006  12.703  11.731   4.514
34582W        W 7007  22.251  13.775  10.788
34583W        W 7008  40.969  13.464   3.607
34584W        W 7009  12.669  10.557  14.068
34585W        W 7010   3.573   3.214  13.443
34586W        W 7011  24.776   4.207   4.774
34587W        W 7012  28.666  32.930  13.895
34588W        W 7013  27.032   2.532  11.457
34589W        W 7014  29.088  40.878  11.242
34590W        W 7015  26.485  17.253   2.319
34591W        W 7016  27.447  20.903  13.522
34592W        W 7017  11.602  31.963   1.395
34593W        W 7018  39.865  13.127  13.567
34594W        W 7019  21.279   7.785   1.292
34595W        W 7020  29.730  40.383   4.223
34596W        W 7021   7.362  11.866   3.645
34597W        W 7022  37.993  26.643  11.284
34598W        W 7023  37.216  32.443  14.846
34599W        W 7024   9.775  38.351   3.859
34600W        W 7025  16.833  33.142   1.798
34601W        W 7026  35.575  43.358   0.852
34602W        W 7027  17.257  31.609  11.942
34603W        W 7028  17.282  13.239   0.846
34604W        W 7029  33.484  35.864   1.890
34605W        W 7030  16.869  41.449  13.746
34606W        W 7031   3.902   2.908  10.695
34607W        W 7032  26.143  42.431  12.964
34608W        W 7033   8.689  24.570   1.291
34609W        W 7034   5.916  44.052   4.807
34610W        W 7035  30.594  37.880   2.199
34611W        W 7036   9.474  29.695  11.998
34612W        W 7037  13.200  25.652   4.836
34613W        W 7038   8.866  25.012  13.969
34614W        W 7039  24.505  39.797  11.330
34615W        W 7040  27.741  16.760  12.831
34616W        W 7041  34.445  15.167   4.148
34617W        W 7042  30.991  30.701   3.654
34618W        W 7043  28.124  10.411  12.121
34619W        W 7044   9.109   1.935  12.977
34620W        W 7045  32.710  16.765  14.704
34621W        W 7046  42.476   0.279  10.767
34622W        W 7047  26.915  14.430  12.815
34623W        W 7048  28.189  28.666  13.949
34624W        W 7049  36.482   4.852   3.599
34625W        W 7050  17.566  29.678  12.971
34626W        W 7051  10.317   9.569  11.524
34627W        W 7052  42.852   0.876  14.055
34628W        W 7053   7.388  23.121   0.895
34629W        W 7054  28.456  28.574  11.949
34630W        W 7055   7.181  27.094  11.654
34631W        W 7056  23.985   2.314  11.759
34632W        W 7057  37.860  43.600  12.494
34633W        W 7058  42.408  41.688  13.458
34634W        W 7059  21.188  31.047  13.019
34635W        W 7060  25.638  28.601  10.774
34636W        W 7061  14.285   2.806  13.787
34637W        W 7062   5.732  13.301  11.480
34638W        W 7063   0.771  42.640  11.726
34639W        W 7064  12.349   2.924   0.922
34640W        W 7065  38.885   9.280  11.010
34641W        W 7066  30.993   0.181   2.161
34642W        W 7067  28.565   7.615   1.378
34643W        W 7068  15.238   1.726  13.609
34644W        W 7069   2.050  16.565   1.806
34645W        W 7070  14.246  39.084  11.182
34646W        W 7071   2.350  16.914  12.625
34647W        W 7072  12.566  43.246  13.391
34648W        W 7073  24.560  22.726  13.572
34649W        W 7074  13.226  37.113   0.863
34650W        W 7075   2.123  26.862  12.139
34651W        W 7076  39.095  26.379   2.601
34652W        W 7077  18.578  42.329  11.527
34653W        W 7078  15.663   0.406   2.900
34654W        W 7079  27.673  41.420  10.521
34655W        W 7080  36.629  19.382   4.975
34656W        W 7081  38.960  10.093  14.498
34657W        W 7082  38.531   8.053  14.619
34658W        W 7083   0.523  35.937   0.049
34659W        W 7084  41.536  19.543   1.483
34660W        W 7085  36.868  28.077   2.848
34661W        W 7086   7.205  42.637   4.947
34662W        W 7087  14.696  27.238  14.460
34663W        W 7088  21.273  20.228  14.328
34664W        W 7089   4.448  30.042  13.574
34665W        W 7090  27.776  39.971  14.389
34666W        W 7091   0.492  28.614   3.766
34667W        W 7092  39.397  34.903   4.503
34668W        W 7093  21.292  14.296   4.156
34669W        W 7094  40.672  24.500  11.436
34670W        W 7095  20.796  40.075  14.988
34671W        W 7096   4.354  32.265   1.809
34672W        W 7097  24.468  27.496  13.879
34673W        W 7098   3.696  34.353   1.351
34674W        W 7099  23.432  35.072  13.309
34675W        W 7100  28.635  14.063  13.096
34676W        W 7101  16.820  40.797   4.606
34677W        W 7102   2.323  24.179  10.944
34678W        W 7103  30.121  22.763   0.864
34679W        W 7104   3.451  29.986   4.952
34680W        W 7105  28.047  25.897   4.276
34681W        W 7106  32.579  18.673   2.660
34682W        W 7107   1.854  18.224  12.268
34683W        W 7108   7.311   2.038  11.604
34684W        W 7109  25.022  39.150   2.719
34685W        W 7110  10.607  27.951  11.994
34686W        W 7111  17.728   6.740   2.159
34687W        W 7112  29.724   0.328   3.901
34688W        W 7113  25.222   0.403   4.674
34689W        W 7114  11.084  41.923   4.216
34690W        W 7115   0.425  35.479   3.600
34691W        W 7116  16.779  12.305  10.429
34692W        W 7117  27.272  19.574  14.641
34693W        W 7118  11.863  10.025   0.519
34694W        W 7119  36.139  16.802   4.201
34695W        W 7120  10.174  35.388   3.157
34696W        W 7121  11.678   8.598   0.834
34697W        W 7122  14.839  12.145   4.447
34698W        W 7123  24.048  23.619  11.502
34699W        W 7124  23.277   7.696   3.180
34700W        W 7125  37.843   4.198  13.903
34701W        W 7126  42.914  16.311   4.346
34702W        W 7127  20.529  42.879  14.443
34703W        W 7128   1.011  36.421   2.258
34704W        W 7129  36.674  38.592   1.660
34705W        W 7130  15.839  14.635   1.493
34706W        W 7131   8.759  13.220  12.991
34707W        W 7132   4.620   5.716  12.087
34708W        W 7133   2.234  38.206  11.626
34709W        W 7134   4.902  26.715  13.929
34710W        W 7135   7.701  15.829  10.338
34711W        W 7136  18.306  34.502  13.789
34712W        W 7137   0.815   4.547   0.326
34713W        W 7138  11.186   0.610  14.973
34714W        W 7139  13.309   9.085   4.128
34715W        W 7140  34.318  28.139  11.577
34716W        W 7141  20.508  33.616   1.767
34717W        W 7142  34.395  25.430   0.014
34718W        W 7143  36.510  16.894   3.147
34719W        W 7144  29.893   1.988  11.608
34720W        W 7145   5.097   6.008  14.355
34721W        W 7146  20.237  20.356   2.609
34722W        W 7147   9.185   1.424  10.621
34723W        W 7148  30.164  42.203   2.785
34724W        W 7149  32.952  41.769   4.384
34725W        W 7150   4.404  16.272  12.623
34726W        W 7151  11.092  25.100  11.395
34727W        W 7152  25.105  37.110  10.708
34728W        W 7153  23.938  34.863   1.300
34729W        W 7154  13.628  13.241   0.682
34730W        W 7155  42.301  38.632   0.323
34731W        W 7156   5.992  26.555   2.872
34732W        W 7157  19.320  38.406  13.922
34733W        W 7158  15.158   0.803   5.267
34734W        W 7159  17.028  37.082  11.151
34735W        W 7160  20.624  17.096  11.947
34736W        W 7161  12.640  32.992  14.543
34737W        W 7162   5.661   3.773  11.586
34738W        W 7163  27.562  24.029   3.267
34739W        W 7164  20.763   0.914   4.655
34740W        W 7165  40.781  30.318   2.411
34741W        W 7166   9.266  43.530   4.610
34742W        W 7167   0.569  30.642   4.107
34743W        W 7168  29.710  27.247  13.285
34744W        W 7169  10.391  30.434   9.889
34745W        W 7170  40.723  18.797  11.603
34746W        W 7171  19.404   2.737   2.507
34747W        W 7172  39.019  42.602  14.510
34748W        W 7173  44.733   9.406  13.926
34749W        W 7174   2.573  36.018  10.065
34750W        W 7175  18.296  39.795   2.600
34751W        W 7176  16.741  25.863  14.800
34752W        W 7177  15.864   4.225   1.207
34753W        W 7178  34.560  20.698  13.823
34754W        W 7179  40.459   8.758  10.416
34755W        W 7180   8.823  39.292  11.955
34756W        W 7181  41.204  40.780   0.274
34757W        W 7182  31.482  16.107  14.950
34758W        W 7183  30.301  25.534   1.002
34759W        W 7184  37.293  32.174  11.297
34760W        W 7185  23.809  37.375   4.339
34761W        W 7186  25.498   6.233  13.469
34762W        W 7187  34.008  19.205   3.000
34763W        W 7188  39.962   6.416  12.572
34764W        W 7189  17.748  19.818   4.567
34765W        W 7190  43.519  35.402  12.359
34766W        W 7191  13.302  36.600   0.874
34767W        W 7192  29.292  41.507  11.511
34768W        W 7193  37.555   4.388   2.618
34769W        W 7194   8.650  36.638   4.665
34770W        W 7195   8.380  40.265   4.300
34771W        W 7196  26.473  30.456  11.784
34772W        W 7197   3.902   4.413  14.541
34773W        W 7198  10.284  33.429   1.419
34774W        W 7199  44.984  17.104  14.760
34775W        W 7200   5.935   2.274   1.330
34776W        W 7201  26.960  11.328   1.313
34777W        W 7202  20.129  12.410  10.971
34778W        W 7203  37.386  40.723  11.926
34779W        W 7204   7.324  28.174   0.894
34780W        W 7205  22.412   0.746   4.580
34781W        W 7206  19.949  28.132   1.307
34782W        W 7207  44.057  31.884   2.446
34783W        W 7208  23.194  16.215   2.970
34784W        W 7209  35.869  27.433   1.551
34785W        W 7210  26.500   9.888  12.081
34786W        W 7211  30.707  34.336   0.026
34787W        W 7212  37.352  41.363   3.270
34788W        W 7213  37.439  14.390   3.673
34789W        W 7214   2.797  44.020  12.527
34790W        W 7215   5.119  34.011  13.088
34791W        W 7216  41.377  42.937  12.964
34792W        W 7217   4.934   6.453   1.472
34793W        W 7218  38.177  28.960   4.550
34794W        W 7219  13.270  39.269  11.110
34795W        W 7220  31.906  27.188   0.973
34796W        W 7221  24.826  33.893  14.387
34797W        W 7222  13.057  43.910   2.143
34798W        W 7223  15.355   7.652   4.306
34799W        W 7224  14.061   7.809  10.482
34800W        W 7225  35.911   0.863   3.227
34801W        W 7226  44.289  19.545  14.288
34802W        W 7227  44.161  32.451   2.336
34803W        W 7228   2.368  25.444   3.649
34804W        W 7229  21.502  30.627  12.751
34805W        W 7230  34.398   9.296   3.949
34806W        W 7231   0.257  15.618  12.598
34807W        W 7232  31.266  32.484  13.709
34808W        W 7233  25.174   7.651  14.827
34809W        W 7234  41.143   2.886   1.450
34810W        W 7235   9.291  33.230   3.695
34811W        W 7236  25.610   4.665  13.887
34812W        W 7237  24.648  34.475  11.210
34813W        W 7238  38.905  14.065   2.662
34814W        W 7239  42.752   7.762  12.414
34815W        W 7240  39.427  23.130  14.183
34816W        W 7241  44.646  44.010  10.834
34817W        W 7242  38.089  14.146   0.860
34818W        W 7243   8.914  41.216  12.409
34819W        W 7244  16.374  25.011   1.314
34820W        W 7245   6.319   8.781   4.551
34821W        W 7246  13.644  37.439  12.091
34822W        W 7247  22.758  25.548  11.282
34823W        W 7248  23.892   2.937   3.210
34824W        W 7249  36.808   5.495  10.572
34825W        W 7250  10.355  25.676   3.793
34826W        W 7251  38.383  44.972  14.361
34827W        W 7252  29.648  13.548  11.218
34828W        W 7253  31.817  29.832  12.968
34829W        W 7254  14.248  12.722  13.977
34830W        W 7255  14.889  25.141  13.350
34831W        W 7256  44.019  40.083   3.332
34832W        W 7257   3.274  28.092  12.140
34833W        W 7258  23.130  19.046   2.315
34834W        W 7259   9.150  37.555  13.711
34835W        W 7260  15.872   8.740   3.302
34836W        W 7261  12.640  14.726  12.684
34837W        W 7262  40.679  34.328  10.147
34838W        W 7263  35.582  34.630   2.706
34839W        W 7264  15.476  43.294  12.116
34840W        W 7265  28.467  23.251  12.845
34841W        W 7266  38.642  23.208   1.772
34842W        W 7267  36.455  18.925   3.328
34843W        W 7268   1.741  10.410  13.327
34844W        W 7269   1.123  44.930  12.625
34845W        W 7270   8.713   1.031  11.345
34846W        W 7271  40.475  33.500   4.590
34847W        W 7272  11.834  32.397   1.909
34848W        W 7273  43.398  27.503   0.796
34849W        W 7274  17.357  21.599   4.387
34850W        W 7275  15.205   7.348  10.546
34851W        W 7276  22.949   9.510   1.376
34852W        W 7277  21.560  31.161   4.661
34853W        W 7278  23.773   8.025   1.830
34854W        W 7279  34.153   3.409  11.697
34855W        W 7280  33.603  31.515  12.096
34856W        W 7281  18.628  15.728   0.078
34857W        W 7282  15.653  36.952   1.749
34858W        W 7283  19.316  28.227  13.017
34859W        W 7284  38.158  38.384  13.884
34860W        W 7285   5.930  19.591   0.346
34861W        W 7286   8.169  12.585   3.085
34862W        W 7287   9.887  16.210  11.994
34863W        W 7288  18.577   7.167  13.899
34864W        W 7289   2.324   7.671   2.739
34865W        W 7290  17.046  16.741  13.876
34866W        W 7291  42.167   0.820  14.777
34867W        W 7292  34.897   5.156   4.512
34868W        W 7293   5.411  23.371  12.017
34869W        W 7294  41.485  13.567  10.592
34870W        W 7295  28.343   5.212   2.107
34871W        W 7296  38.947  42.755   3.105
34872W        W 7297  11.771  43.235   2.751
34873W        W 7298  23.035   2.895   2.830
34874W        W 7299  39.739   7.282  10.812
34875W        W 7300   4.794  27.086  13.351
34876W        W 7301  15.744  42.118  12.396
34877W        W 7302  39.573  25.433   1.016
34878W        W 7303  44.255  42.459  12.344
34879W        W 7304  21.846  19.791   0.464
34880W        W 7305  19.511  34.516  14.556
34881W        W 7306  32.664  44.860  12.357
34882W        W 7307  41.377  19.327   4.703
34883W        W 7308  30.803  33.963  11.036
34884W        W 7309   5.536  34.196   0.790
34885W        W 7310  39.978  41.327   4.248
34886W        W 7311  35.136  11.281  13.839
34887W        W 7312   4.213  13.806  12.562
34888W        W 7313   7.542  39.882   0.953
34889W        W 7314  30.751  34.392  12.379
34890W        W 7315  20.481   1.849   2.351
34891W        W 7316   4.767   4.364  11.862
34892W        W 7317  28.536  23.106   2.189
34893W        W 7318  13.977   2.445   3.149
34894W        W 7319  24.511  18.303   1.701
34895W        W 7320  13.373  15.859  11.874
34896W        W 7321  16.919  34.455  12.729
34897W        W 7322  25.273  13.341   1.263
34898W        W 7323  23.361  41.360   2.640
34899W        W 7324  24.713  27.670  10.975
34900W        W 7325  37.522   4.644  13.983
34901W        W 7326  27.470  23.920   4.770
34902W        W 7327  41.907  13.808   1.154
34903W        W 7328   2.426  13.326   0.022
34904W        W 7329  39.702  24.923   5.288
34905W        W 7330   8.787  29.872  14.918
34906W        W 7331   0.730  36.026  10.859
34907W        W 7332  37.552  19.136  12.063
34908W        W 7333  37.834  15.123  11.557
34909W        W 7334  44.961  37.958  12.519
34910W        W 7335  43.922  39.273  10.591
34911W        W 7336  13.502  17.616  13.303
34912W        W 7337  39.404  39.449   4.186
34913W        W 7338  22.063  24.085  10.592
34914W        W 7339   1.664  27.292   3.839
34915W        W 7340  25.551   5.862   3.683
34916W        W 7341  10.707  20.049   3.273
34917W        W 7342   7.555  39.686   2.300
34918W        W 7343  16.338  40.306   4.968
34919W        W 7344  35.537  24.843   3.637
34920W        W 7345  31.169  15.381   2.716
34921W        W 7346  34.996  20.695  12.991
34922W        W 7347  19.003  44.487   2.967
34923W        W 7348   2.738   2.481  11.511
34924W        W 7349   5.906  14.509  14.834
34925W        W 7350   5.261   0.199  14.872
34926W        W 7351  27.555  40.522  13.115
34927W        W 7352  13.744  38.959  11.197
34928W        W 7353   3.361  19.230   3.273
34929W        W 7354  41.526  25.158   1.205
34930W        W 7355  18.127  14.832  13.405
34931W        W 7356  14.375  14.487  13.324
34932W        W 7357  23.449  24.677   3.645
34933W        W 7358  25.370  10.773   3.979
34934W        W 7359  24.752  11.094   3.339
34935W        W 7360  20.636   5.205  12.957
34936W        W 7361   0.785  29.704  12.434
34937W        W 7362  30.438  17.600   0.855
34938W        W 7363  36.308   9.696  13.339
34939W        W 7364  37.360  19.937  10.218
34940W        W 7365  44.632  24.206  14.738
34941W        W 7366  19.046  18.119   1.200
34942W        W 7367   8.211   2.857  13.908
34943W        W 7368  30.682   7.465   1.163
34944W        W 7369  18.346   8.333   4.778
34945W        W 7370  34.024  33.885   1.900
34946W        W 7371  14.652  37.914   0.954
34947W        W 7372   6.148  37.505   3.787
34948W        W 7373   3.670  31.422   4.630
34949W        W 7374  39.897  15.760   1.435
34950W        W 7375  24.579  24.147   1.319
34951W        W 7376  17.747  38.795  12.590
34952W        W 7377  19.538  41.892   0.013
34953W        W 7378  16.641  18.999  14.371
34954W        W 7379  11.481  20.722  13.290
34955W        W 7380   9.841  25.860   1.587
34956W        W 7381  16.388  26.011  10.678
34957W        W 7382   0.348  34.292   2.885
34958W        W 7383  35.892  16.033   1.908
34959W        W 7384  15.633  13.087   3.645
34960W        W 7385   2.015  32.925   0.288
34961W        W 7386  43.796  27.082  11.495
34962W        W 7387   2.525  39.350   4.338
34963W        W 7388  19.255  17.062  11.851
34964W        W 7389   1.752  38.127  11.901
34965W        W 7390  44.961  32.032  11.689
34966W        W 7391  31.714  11.345  13.068
34967W        W 7392  42.069  15.183  14.665
34968W        W 7393  23.181  40.076  11.966
34969W        W 7394  15.081   3.273   1.812
34970W        W 7395  32.922  35.164   4.870
34971W        W 7396   7.613  30.527   1.264
34972W        W 7397  12.229   8.804   4.698
34973W        W 7398  13.951  15.686   3.698
34974W        W 7399   9.030  23.790  11.962
34975W        W 7400  33.887  43.484  12.428
34976W        W 7401  24.127  15.397  13.023
34977W        W 7402  30.121   9.188  11.742
34978W        W 7403  23.771  39.401  13.526
34979W        W 7404  35.898   8.919   2.715
34980W        W 7405  21.470   9.173  10.690
34981W        W 7406  30.914  41.508  11.664
34982W        W 7407  25.657   6.706   3.333
34983W        W 7408  20.183   4.129  13.398
34984W        W 7409  41.410  22.618   0.228
34985W        W 7410   7.145   3.865  10.697
34986W        W 7411  27.199  13.682  11.969
34987W        W 7412  28.090  27.596  12.145
34988W        W 7413  11.932   6.217   1.288
34989W        W 7414  42.493  44.849   1.464
34990W        W 7415   9.389  24.170  14.064
34991W        W 7416   3.664  12.910  14.215
34992W        W 7417  12.836  18.933  12.087
34993W        W 7418  37.533  35.533   0.456
34994W        W 7419  40.847  17.308   0.391
34995W        W 7420  18.756  19.016  12.057
34996W        W 7421  34.388   4.470   2.344
34997W        W 7422  23.224  28.973  12.534
34998W        W 7423  41.287   2.482   1.145
34999W        W 7424   3.216  28.060   4.064
35000W        W 7425  14.068  14.710   0.824
35001W        W 7426  35.140  11.571  12.011
35002W        W 7427  22.648  37.035   0.736
35003W        W 7428   4.005  11.174  11.187
35004W        W 7429  33.176  17.324   0.275
35005W        W 7430   6.762  15.839   2.722
35006W        W 7431  14.918  20.136  13.745
35007W        W 7432  34.630  23.599  14.113
35008W        W 7433  11.611  20.165  12.418
35009W        W 7434  24.176  40.726   2.873
35010W        W 7435  25.586  15.730  12.266
35011W        W 7436   5.414   5.768   1.974
35012W        W 7437  31.976  28.488  13.394
35013W        W 7438  40.543  23.254  11.967
35014W        W 7439  29.608  42.882   2.393
35015W        W 7440   5.985   6.931   2.158
35016W        W 7441  12.228   0.512   0.870
35017W        W 7442  44.702  33.903   4.614
35018W        W 7443  22.512  19.055   4.420
35019W        W 7444  38.302  43.373   4.590
35020W        W 7445  10.107  25.960   4.241
35021W        W 7446  15.707  31.081   3.143
35022W        W 7447  32.425  38.084  14.921
35023W        W 7448  17.791  11.673  12.880
35024W        W 7449   4.813  29.694  14.811
35025W        W 7450  25.532  38.927   4.555
35026W        W 7451  35.838  37.134  13.345
35027W        W 7452   4.112  12.093   4.084
35028W        W 7453  18.252  39.621   3.083
35029W        W 7454  25.534   7.203   4.168
35030W        W 7455  22.249  13.914   2.257
35031W        W 7456  17.003  41.173   4.991
35032W        W 7457   2.696  36.990  12.958
35033W        W 7458  44.032  18.911   2.129
35034W        W 7459  26.553   8.485   3.627
35035W        W 7460   7.830  31.466   3.543
35036W        W 7461  39.562  28.135  13.481
35037W        W 7462  30.800  11.577  12.154
35038W        W 7463   5.337  17.738   0.339
35039W        W 7464  19.254  34.109   2.797
35040W        W 7465  36.966  31.413   0.905
35041W        W 7466  40.880  13.570   4.101
35042W        W 7467  32.448  27.016   1.638
35043W        W 7468  17.472   4.279   4.642
35044W        W 7469   9.466  17.494   1.857
35045W        W 7470  10.720  31.989   3.085
35046W        W 7471  42.283  28.137  11.496
35047W        W 7472  12.149  16.597   2.290
35048W        W 7473  25.025  38.905   4.530
35049W        W 7474  22.987  31.313  13.090
35050W        W 7475  25.976  20.828  10.739
35051W        W 7476  15.330  33.850   1.358
35052W        W 7477  40.316  28.504   0.239
35053W        W 7478  35.681   8.910  12.447
35054W        W 7479  34.404  21.964  11.493
35055W        W 7480  37.039  36.850   4.229
35056W        W 7481   0.388   4.739   0.651
35057W        W 7482  33.212   9.761  13.514
35058W        W 7483  28.265  13.369   3.828
35059W        W 7484  39.574   6.679   2.318
35060W        W 7485  34.222  33.843  11.517
35061W        W 7486  12.686  24.557   4.165
35062W        W 7487  12.778  30.892  11.258
35063W        W 7488   3.458  39.793  12.224
35064W        W 7489  13.748  23.520  13.639
35065W        W 7490  22.700  38.309   2.657
35066W        W 7491  14.825  11.091  10.979
35067W        W 7492  25.421  39.372  12.509
35068W        W 7493  43.462  11.632  12.986
35069W        W 7494  33.909  35.909   3.205
35070W        W 7495  30.039  31.142  10.476
35071W        W 7496  22.726  18.855  10.622
35072W        W 7497  25.215  39.152  10.779
35073W        W 7498  26.410   9.777   2.846
35074W        W 7499  14.611  38.527   3.023
35075W        W 7500  13.570   1.038  13.754
35076W        W 7501  18.908  27.629   0.280
35077W        W 7502  21.158  15.572   0.365
35078W        W 7503  21.797   6.235   0.351
35079W        W 7504  43.306  26.159   2.352
35080W        W 7505  28.462  26.131  14.719
35081W        W 7506  22.254  32.226  11.281
35082W        W 7507  37.035   6.009  14.023
35083W        W 7508  34.909  21.334   2.249
35084W        W 7509   7.753  12.003   1.920
35085W        W 7510  34.141  43.316  14.497
35086W        W 7511  29.681  16.983   0.865
35087W        W 7512  20.082  18.558  11.630
35088W        W 7513  10.208  30.412   3.984
35089W        W 7514  34.974  24.832  10.064
35090W        W 7515  41.043   8.058   4.260
35091W        W 7516  14.262  37.917   2.314
35092W        W 7517  26.477  13.681  14.375
35093W        W 7518  28.271  38.592   4.152
35094W        W 7519   0.405  31.180  14.224
35095W        W 7520  19.191  34.937   2.400
35096W        W 7521  28.340   9.958  11.921
35097W        W 7522   1.001  37.409  12.535
35098W        W 7523   4.255  39.229  11.629
35099W        W 7524   9.652  28.819  13.039
35100W        W 7525  37.929  20.175  13.061
35101W        W 7526  34.890  11.947  12.421
35102W        W 7527  17.730   0.977   0.106
35103W        W 7528  38.495  16.057  12.359
35104W        W 7529  33.391  29.644   2.646
35105W        W 7530  19.521  16.181   3.185
35106W        W 7531  34.025  15.179   0.495
35107W        W 7532   0.137  29.797   1.205
35108W        W 7533   8.101  37.359   2.557
35109W        W 7534  24.444  23.676  13.271
35110W        W 7535  39.072  19.309   0.295
35111W        W 7536  29.903  44.223  14.424
35112W        W 7537   9.698  36.972  14.430
35113W        W 7538  10.040   1.342  14.472
35114W        W 7539  41.072   9.471   3.124
35115W        W 7540  35.997  42.412   0.295
35116W        W 7541  25.190  20.939   4.275
35117W        W 7542   1.871  42.539   4.481
35118W        W 7543  14.735  41.492  13.739
35119W        W 7544   0.999   8.823  13.858
35120W        W 7545   6.569  26.814   9.876
35121W        W 7546  31.830  30.367  10.671
35122W        W 7547  21.699  13.684   3.818
35123W        W 7548   3.918  29.984   2.487
35124W        W 7549  30.168  20.545   0.314
35125W        W 7550  35.398  13.553  12.997
35126W        W 7551  35.201  17.852   0.362
35127W        W 7552  22.445  34.536   2.298
35128W        W 7553  18.078   4.030  12.359
35129W        W 7554  19.689  26.607   3.583
35130W        W 7555  16.052  44.295   1.462
35131W        W 7556  38.299  26.254  12.851
35132W        W 7557   9.315   0.458   4.880
35133W        W 7558  25.576  27.549   1.743
35134W        W 7559  43.228  34.394   0.461
35135W        W 7560  30.129  41.443  11.142
35136W        W 7561  42.330  11.358   3.258
35137W        W 7562   3.880  33.409  14.322
35138W        W 7563  14.133  29.996  12.744
35139W        W 7564   6.385  43.071  14.884
35140W        W 7565   0.950  23.037   3.377
35141W        W 7566   1.948   3.719   1.882
35142W        W 7567   4.615  15.704   3.608
35143W        W 7568  26.176   2.761   0.883
35144W        W 7569  18.985  15.073  12.164
35145W        W 7570  28.503  27.910  12.455
35146W        W 7571   4.866   6.480   4.328
35147W        W 7572  36.774  18.772  10.858
35148W        W 7573  14.765  19.286   0.788
35149W        W 7574  19.109  26.583   1.843
35150W        W 7575  43.814  43.999  10.563
35151W        W 7576  10.476  10.035   4.997
35152W        W 7577  39.262  23.012  11.511
35153W        W 7578   9.748  34.718   2.674
35154W        W 7579  36.319   5.267  14.545
35155W        W 7580  26.006  40.976   1.334
35156W        W 7581   5.761  10.247  11.897
35157W        W 7582   3.714  39.097   2.170
35158W        W 7583  27.404   1.967   4.329
35159W        W 7584   0.196  43.535   4.375
35160W        W 7585  19.255   1.723   1.467
35161W        W 7586  30.114  42.864   2.369
35162W        W 7587  39.819  28.474   0.423
35163W        W 7588  13.585  32.140   4.458
35164W        W 7589   1.805  24.463   4.319
35165W        W 7590  39.760  42.908  11.538
35166W        W 7591  22.306  31.506  14.222
35167W        W 7592  27.443  30.017  14.958
35168W        W 7593  29.109  28.314   4.553
35169W        W 7594  12.793  27.811  12.488
35170W        W 7595  33.079  39.926   2.716
35171W        W 7596  17.367   6.205   4.245
35172W        W 7597  12.266  24.458   0.395
35173W        W 7598  25.424  23.548  12.513
35174W        W 7599  25.422   9.883   4.886
35175W        W 7600  41.476  44.655   4.173
35176W        W 7601  24.566   1.849   2.616
35177W        W 7602  24.644   7.421   2.895
35178W        W 7603  38.915   0.151   3.710
35179W        W 7604  33.709  18.135   1.702
35180W        W 7605  12.106  39.095  12.338
35181W        W 7606   8.386  35.861   0.378
35182W        W 7607  19.603  40.569   3.246
35183W        W 7608  10.726  21.982  12.010
35184W        W 7609  20.661  29.683  13.224
35185W        W 7610  33.462  30.474   3.204
35186W        W 7611  16.818  11.253   3.599
35187W        W 7612   4.845  28.557  12.609
35188W        W 7613  30.494  40.949   0.542
35189W        W 7614  44.564  25.756   2.182
35190W        W 7615  37.421  35.344   0.925
35191W        W 7616  36.746  24.875  10.227
35192W        W 7617  19.385  14.250   0.967
35193W        W 7618   4.466  33.170  13.942
35194W        W 7619  18.776  44.233  14.998
35195W        W 7620  41.214   4.207   0.657
35196W        W 7621  15.177   8.414   2.208
35197W        W 7622  40.766   3.782  11.806
35198W        W 7623  22.250  19.491   4.538
35199W        W 7624  42.902  34.987  12.880
35200W        W 7625  37.108  21.962   2.520
35201W        W 7626  38.654  31.875  13.673
35202W        W 7627  32.065  36.066  14.137
35203W        W 7628  17.464  12.983   2.968
35204W        W 7629  16.193  40.374   3.271
35205W        W 7630  23.803  15.702  13.278
35206W        W 7631  16.556  26.369  14.825
35207W        W 7632  40.134  12.223   2.898
35208W        W 7633  26.609  24.367  14.753
35209W        W 7634  31.979  38.011   2.728
35210W        W 7635  14.677   7.647  13.109
35211W        W 7636  13.355   9.328  13.375
35212W        W 7637  18.682  41.247  12.840
35213W        W 7638  10.288   3.130  10.101
35214W        W 7639  43.019  40.386  13.092
35215W        W 7640   9.333   5.337  11.131
35216W        W 7641  24.251  42.652   2.733
35217W        W 7642  24.412  22.872   3.082
35218W        W 7643  30.124  43.813  12.004
35219W        W 7644  29.069   6.590   4.808
35220W        W 7645  28.421  30.196  12.977
35221W        W 7646  27.273   6.527  10.799
35222W        W 7647  14.328  41.875   3.328
35223W        W 7648   5.194  17.190   3.383
35224W        W 7649  25.186  44.032   0.971
35225W        W 7650  37.102  12.882   3.042
35226W        W 7651  40.945  24.015  11.567
35227W        W 7652  24.638  28.541  14.438
35228W        W 7653  28.568  33.989   2.335
35229W        W 7654   8.100  26.444  14.222
35230W        W 7655  21.439  18.726   3.738
35231W        W 7656  31.679  34.443   1.894
35232W        W 7657  18.755  21.425   0.181
35233W        W 7658  23.291  29.623   2.356
35234W        W 7659   1.201  39.256   2.632
35235W        W 7660  26.750  16.329   0.881
35236W        W 7661  40.097   2.915  11.227
35237W        W 7662  31.038  43.103  14.745
35238W        W 7663   7.654  17.516   0.469
35239W        W 7664  34.144  23.418  13.378
35240W        W 7665  20.266  17.537   1.277
35241W        W 7666  28.083   8.230   4.603
35242W        W 7667  14.815  25.977   0.709
35243W        W 7668  16.392   0.172  11.105
35244W        W 7669  41.237  41.938   4.522
35245W        W 7670  39.556  17.057   1.786
35246W        W 7671  17.966   9.206  10.704
35247W        W 7672  37.312  27.181  11.550
35248W        W 7673  36.965  20.597  10.700
35249W        W 7674  40.547  26.211  13.084
35250W        W 7675  17.112  38.093  13.079
35251W        W 7676  37.405   6.199   1.963
35252W        W 7677  36.612  19.595  11.266
35253W        W 7678   4.464  43.531  13.813
35254W        W 7679  23.669  15.307   1.635
35255W        W 7680  20.077  41.455   1.368
35256W        W 7681  37.532   2.916  14.452
35257W        W 7682  32.932  19.760   0.845
35258W        W 7683  33.114  34.708   4.694
35259W        W 7684  28.109  28.584  10.647
35260W        W 7685  28.183  41.652   1.955
35261W        W 7686  18.377  20.171   2.284
35262W        W 7687  13.217  40.015   0.901
35263W        W 7688  14.371  17.968   0.894
35264W        W 7689   7.305  42.414  13.957
35265W        W 7690  11.228  19.088   1.169
35266W        W 7691  28.869   3.912  12.609
35267W        W 7692  32.351  12.460   4.387
35268W        W 7693  14.351  43.432   2.299
35269W        W 7694   9.250   8.354  11.206
35270W        W 7695  39.068  16.001  14.572
35271W        W 7696   2.041  42.030  11.600
35272W        W 7697  27.960  39.833  10.648
35273W        W 7698  24.177   9.637  11.319
35274W        W 7699  16.114  23.796   3.072
35275W        W 7700   7.718  20.785   0.838
35276W        W 7701   7.899   6.906   3.726
35277W        W 7702  16.425  38.703  10.159
35278W        W 7703  31.616  36.325  12.557
35279W        W 7704  34.002   4.832   2.509
35280W        W 7705  43.408  21.610  13.306
35281W        W 7706   1.261  40.139  11.217
35282W        W 7707  18.241  39.297  11.053
35283W        W 7708  43.647  29.098   3.306
35284W        W 7709   0.451   3.418  11.948
35285W        W 7710  39.955  31.388  11.949
35286W        W 7711  37.940   2.948   4.346
35287W        W 7712  27.871  12.134  13.504
35288W        W 7713  13.591  27.356  12.659
35289W        W 7714  25.171  36.387  13.487
35290W        W 7715  12.114  21.973   9.646
35291W        W 7716  25.687  27.442   3.198
35292W        W 7717  36.512  37.956  10.714
35293W        W 7718  13.160  16.549   2.344
35294W        W 7719  33.105  17.831  14.216
35295W        W 7720  25.789  37.451  12.460
35296W        W 7721  29.813   3.012  13.619
35297W        W 7722  12.675   4.210   0.995
35298W        W 7723  38.090  37.544  14.849
35299W        W 7724   5.843   2.654  14.471
35300W        W 7725  22.190  39.072   3.756
35301W        W 7726  40.805  29.117   3.182
35302W        W 7727  23.437   7.350   0.583
35303W        W 7728  43.811  26.477  14.007
35304W        W 7729  29.004  36.113   3.369
35305W        W 7730  30.299   7.671  14.002
35306W        W 7731   3.927  22.930   0.423
35307W        W 7732  34.145  26.960  11.075
35308W        W 7733  14.245  20.091   1.267
35309W        W 7734  29.751   6.748  14.832
35310W        W 7735  20.330   9.309  13.965
35311W        W 7736  25.018  22.104   4.693
35312W        W 7737  16.488  26.741   2.378
35313W        W 7738  28.146  22.950  11.557
35314W        W 7739  26.118   0.030  12.615
35315W        W 7740  28.450  30.178  11.105
35316W        W 7741  30.165   1.598  11.366
35317W        W 7742   1.498   3.163  10.512
35318W        W 7743  18.994  38.938   1.621
35319W        W 7744  11.748  39.133   4.194
35320W        W 7745  38.040   5.203  11.269
35321W        W 7746  12.342   4.838   0.857
35322W        W 7747  27.204   4.756  14.528
35323W        W 7748   5.389  36.487  13.031
35324W        W 7749   0.763  36.806   0.464
35325W        W 7750   6.903  41.300   4.198
35326W        W 7751   1.696  20.158   1.640
35327W        W 7752  19.154  28.163   3.848
35328W        W 7753  13.804  17.053  13.607
35329W        W 7754  43.838   1.454   3.176
35330W        W 7755  24.908  26.572  14.976
35331W        W 7756   4.298  33.188  14.937
35332W        W 7757   8.272  28.492   0.903
35333W        W 7758   4.399  14.257   1.647
35334W        W 7759  33.718   9.203  12.945
35335W        W 7760  35.496  35.832  12.461
35336W        W 7761  21.839   4.300  12.872
35337W        W 7762  21.208  20.511   2.700
35338W        W 7763   7.624  41.899   0.301
35339W        W 7764  21.994  19.487   1.676
35340W        W 7765  28.404  16.836   0.736
35341W        W 7766  23.810  33.967   2.311
35342W        W 7767  35.562  43.738   1.931
35343W        W 7768  31.278  31.806   1.347
35344W        W 7769  21.153   8.328  12.174
35345W        W 7770  10.005  40.918   4.298
35346W        W 7771  25.117  10.281   0.944
35347W        W 7772  26.667   4.413  13.801
35348W        W 7773  39.779   2.924  13.029
35349W        W 7774  40.425  39.945  11.668
35350W        W 7775  13.651  17.370  10.991
35351W        W 7776   5.868   8.205   4.535
35352W        W 7777  27.825  43.622   4.665
35353W        W 7778  26.105   9.575  12.490
35354W        W 7779  29.937  43.960  11.559
35355W        W 7780  32.966  19.659  12.131
35356W        W 7781   6.892  27.105   1.389
35357W        W 7782  19.224  32.156   0.375
35358W        W 7783  11.837  38.477   2.356
35359W        W 7784  37.849   3.965   1.901
35360W        W 7785  12.158  27.557   1.945
35361W        W 7786   6.035  36.553  10.188
35362W        W 7787  38.969   5.953   4.268
35363W        W 7788   1.127  21.252   4.254
35364W        W 7789  25.052  40.491   3.184
35365W        W 7790   6.228   1.396   3.809
35366W        W 7791  42.924  33.611  14.259
35367W        W 7792  42.705   5.431  13.787
35368W        W 7793  35.524  15.882   9.923
35369W        W 7794  29.379   9.181   3.767
35370W        W 7795  28.719   6.268   3.611
35371W        W 7796   0.783   3.421  14.450
35372W        W 7797  43.912  18.473   3.777
35373W        W 7798  34.459  28.067   1.677
35374W        W 7799  38.931  22.346  13.892
35375W        W 7800  14.912  21.297   1.113
35376W        W 7801  44.936  15.648   3.249
35377W        W 7802  14.321  32.743  14.111
35378W        W 7803  22.136  16.130  14.995
35379W        W 7804  25.730  23.084   1.408
35380W        W 7805  30.115  39.787   3.664
35381W        W 7806  23.146   3.383   4.069
35382W        W 7807   1.214  33.024  11.667
35383W        W 7808   2.766  10.235   1.363
35384W        W 7809  16.044  42.102   0.066
35385W        W 7810   6.668   3.902  11.582
35386W        W 7811  28.529  13.073  11.684
35387W        W 7812  43.489  40.483  11.844
35388W        W 7813  13.375  12.592  13.107
35389W        W 7814  10.309  24.719   2.865
35390W        W 7815  10.409  10.792   3.851
35391W        W 7816  24.328  12.194  11.069
35392W        W 7817  42.630   7.695  13.795
35393W        W 7818  27.347  41.928  12.622
35394W        W 7819  35.384  18.543  12.613
35395W        W 7820   8.331   1.291  13.338
35396W        W 7821  32.088  27.368  11.148
35397W        W 7822  32.425  36.583  12.506
35398W        W 7823  10.382  15.708   4.155
35399W        W 7824  44.429  34.464   0.759
35400W        W 7825  16.728  41.535  11.514
35401W        W 7826   4.761  37.031  13.857
35402W        W 7827  42.021   1.062   4.684
35403W        W 7828  14.510  15.701  12.897
35404W        W 7829   9.190  34.942   0.954
35405W        W 7830   5.442  11.096   4.126
35406W        W 7831   2.941  34.694  10.743
35407W        W 7832  15.008  12.301   1.275
35408W        W 7833  43.225  17.791   2.219
35409W        W 7834  12.869  15.865  11.965
35410W        W 7835  20.229  44.350  11.510
35411W        W 7836  18.709  18.548  14.787
35412W        W 7837   8.747  19.906   1.616
35413W        W 7838  18.338  35.612   3.693
35414W        W 7839  27.165  33.971   3.728
35415W        W 7840  37.488  29.540  13.142
35416W        W 7841  30.738  18.221  14.051
35417W        W 7842  19.085  21.925  12.414
35418W        W 7843  38.761  31.141   3.775
35419W        W 7844  10.893   0.785  13.009
35420W        W 7845  27.721  37.831  13.059
35421W        W 7846  29.462  25.439  12.141
35422W        W 7847  18.743  27.056  12.971
35423W        W 7848   8.863  14.649   1.908
35424W        W 7849  35.811  25.664   1.967
35425W        W 7850  14.123  14.070  12.098
35426W        W 7851   6.124   5.803  12.857
35427W        W 7852  27.698  20.716   4.222
35428W        W 7853  42.952   1.861  10.404
35429W        W 7854  31.405   6.625   0.299
35430W        W 7855  40.983  13.438  14.727
35431W        W 7856  26.091  25.558  14.857
35432W        W 7857   5.953  20.571  11.264
35433W        W 7858  36.651  23.534  13.870
35434W        W 7859  12.138  23.586   9.796
35435W        W 7860  12.232  12.648  11.709
35436W        W 7861   3.183  30.921  14.313
35437W        W 7862  12.245   0.340   2.140
35438W        W 7863  25.850  24.766  14.407
35439W        W 7864  13.288   2.302  13.445
35440W        W 7865  34.530  24.252   0.803
35441W        W 7866   6.837  25.009  10.764
35442W        W 7867  22.485  33.666   4.190
35443W        W 7868  44.504   8.427  13.952
35444W        W 7869   2.864   8.732  12.484
35445W        W 7870  28.157  36.508  10.950
35446W        W 7871  15.141   3.909  14.694
35447W        W 7872  29.143  19.156   4.775
35448W        W 7873   5.885   4.765   3.689
35449W        W 7874   6.085   5.840   4.152
35450W        W 7875  13.662   0.504   4.730
35451W        W 7876  19.345  16.830  10.831
35452W        W 7877  30.124  16.515   1.494
35453W        W 7878  11.272  10.607  13.321
35454W        W 7879  41.024   4.764   3.285
35455W        W 7880  33.917  43.790  12.998
35456W        W 7881  27.739  34.562  12.833
35457W        W 7882  29.553  40.587  13.873
35458W        W 7883  16.209  40.555  11.105
35459W        W 7884  14.171  11.150  12.233
35460W        W 7885  25.618  17.339  13.924
35461W        W 7886  28.484  27.801   4.108
35462W        W 7887  42.562  34.462   4.578
35463W        W 7888   3.013  21.257   3.689
35464W        W 7889   1.619  10.014   0.757
35465W        W 7890  44.175   3.296   1.898
35466W        W 7891  44.629   0.739   1.801
35467W        W 7892  34.431   2.008   3.897
35468W        W 7893  35.002  39.798   2.445
35469W        W 7894  33.055  40.767   3.272
35470W        W 7895  22.900  42.217   3.000
35471W        W 7896   9.003  15.366  14.479
35472W        W 7897   9.264   4.782  13.345
35473W        W 7898   8.045  24.045  11.134
35474W        W 7899  43.433  32.695  10.718
35475W        W 7900  35.673  17.578   0.316
35476W        W 7901   5.410  18.354   2.714
35477W        W 7902   6.595   5.910  14.360
35478W        W 7903  41.528  24.943   0.304
35479W        W 7904  30.787  29.322  14.489
35480W        W 7905  17.150  21.215   3.750
35481W        W 7906  15.654   9.755   2.188
35482W        W 7907  35.536   8.721   1.403
35483W        W 7908  15.247  39.974  12.023
35484W        W 7909   6.494  21.494  11.201
35485W        W 7910   6.463   1.496  13.455
35486W        W 7911  10.096   3.860   3.004
35487W        W 7912  36.691  15.060  13.613
35488W        W 7913  30.809  32.879   0.722
35489W        W 7914  38.865  39.469   4.162
35490W        W 7915  15.313  33.661  12.140
35491W        W 7916   6.223  36.894   0.224
35492W        W 7917   5.986   8.665   1.753
35493W        W 7918  29.265   7.221  11.419
35494W        W 7919  34.453   5.893   4.900
35495W        W 7920  37.579  27.413   0.307
35496W        W 7921  43.423  12.728  13.811
35497W        W 7922  40.125  39.048  14.057
35498W        W 7923  13.400  36.262  11.131
35499W        W 7924  29.694  39.090  14.269
35500W        W 7925   8.818  13.094  11.277
35501W        W 7926   3.187  17.038   0.036
35502W        W 7927  32.660   5.839  11.434
35503W        W 7928   0.226   3.810   4.206
35504W        W 7929   2.593  17.113  11.563
35505W        W 7930  42.799   0.258  12.131
35506W        W 7931  25.860  33.159  12.252
35507W        W 7932   2.157  22.883  10.667
35508W        W 7933   5.874  11.428  13.480
35509W        W 7934   5.367  23.547  11.547
35510W        W 7935  28.918   9.636   4.509
35511W        W 7936  23.994  34.685   2.742
35512W        W 7937   6.172  33.630  14.442
35513W        W 7938  26.896  35.957   0.475
35514W        W 7939  12.130  35.484  12.829
35515W        W 7940  35.282  22.944   4.427
35516W        W 7941  28.692  24.188   0.815
35517W        W 7942  30.570  20.678   1.154
35518W        W 7943  43.517  34.526   1.892
35519W        W 7944   8.987   0.639  11.060
35520W        W 7945  38.763  22.321   4.162
35521W        W 7946  27.092  31.946   4.947
35522W        W 7947  43.938  21.070  12.824
35523W        W 7948  19.038  13.469   0.524
35524W        W 7949  24.522  32.346  13.933
35525W        W 7950  42.655  38.973   0.511
35526W        W 7951   3.011   7.286  13.824
35527W        W 7952  19.241  40.467   2.630
35528W        W 7953   7.673  30.984  13.804
35529W        W 7954   0.622  42.345  12.134
35530W        W 7955  36.865  36.987   2.695
35531W        W 7956  21.211  13.343  12.428
35532W        W 7957   9.941  23.558   3.293
35533W        W 7958  25.343   2.612  13.979
35534W        W 7959  10.315  44.699  12.654
35535W        W 7960  31.378  15.570  10.606
35536W        W 7961   3.423  19.154   1.485
35537W        W 7962   1.822  19.834   4.580
35538W        W 7963  37.472   9.654  14.519
35539W        W 7964  11.297  37.075  14.380
35540W        W 7965  28.552  20.282  11.641
35541W        W 7966  12.791  38.450   4.947
35542W        W 7967  39.049   7.015  11.535
35543W        W 7968  18.842  41.488  14.451
35544W        W 7969  32.465   1.678   4.207
35545W        W 7970  12.932  13.420  13.924
35546W        W 7971  17.145   7.665  14.888
35547W        W 7972  22.782  34.366  13.996
35548W        W 7973  22.015  13.371   1.232
35549W        W 7974   3.371   2.876   4.976
35550W        W 7975  40.580   8.237  14.519
35551W        W 7976  20.546  42.508  13.805
35552W        W 7977  20.735  20.554  12.580
35553W        W 7978  12.340   5.740  13.366
35554W        W 7979  12.239   7.308   0.423
35555W        W 7980  29.010   2.302  10.695
35556W        W 7981  20.426  31.585  10.686
35557W        W 7982   9.261  42.093  12.354
35558W        W 7983   3.794   1.812  13.465
35559W        W 7984  18.925  11.893  12.049
35560W        W 7985   2.637  17.553   0.755
35561W        W 7986  34.950  10.372   3.116
35562W        W 7987  37.487  39.558  13.489
35563W        W 7988  21.807  27.169  12.425
35564W        W 7989   5.672  18.664   0.489
35565W        W 7990   4.786  12.015  12.438
35566W        W 7991  29.571  40.888   1.972
35567W        W 7992  38.091  12.271  11.413
35568W        W 7993  34.347  26.597   0.094
35569W        W 7994  26.209  37.368   0.431
35570W        W 7995  37.770   6.022  13.058
35571W        W 7996  27.037  39.002  13.457
35572W        W 7997  23.763  41.004   2.647
35573W        W 7998  18.115  21.344  13.196
35574W        W 7999   9.748  13.111   4.922
35575W        W 8000  11.250  42.308  11.075
35576W        W 8001  32.004   8.510  14.785
35577W        W 8002   9.844  31.564   3.717
35578W        W 8003  24.699  13.155  10.424
35579W        W 8004  38.807  25.945  13.295
35580W        W 8005  27.109  20.936  11.192
35581W        W 8006   9.381  23.337   3.692
35582W        W 8007  33.943  11.262  13.009
35583W        W 8008   8.429  27.266   3.711
35584W        W 8009  28.753  15.624  14.442
35585W        W 8010  31.914  39.881  10.971
35586W        W 8011  44.785  22.059  10.677
35587W        W 8012  10.821   3.823  12.528
35588W        W 8013  43.430   5.146   4.538
35589W        W 8014   8.054  19.139  11.570
35590W        W 8015  10.421  15.815  13.437
35591W        W 8016   6.131  31.195  11.978
35592W        W 8017  41.412  34.912   2.465
35593W        W 8018  26.660  19.427   0.223
35594W        W 8019  10.126   2.268  11.569
35595W        W 8020   4.734  22.918   4.944
35596W        W 8021  32.943  10.135   0.838
35597W        W 8022  28.542  30.244   2.290
35598W        W 8023  44.606  43.789   3.150
35599W        W 8024  10.854  39.613  10.614
35600W        W 8025  42.572   6.939   2.201
35601W        W 8026  17.497  31.128   3.157
35602W        W 8027  13.989  34.030  11.128
35603W        W 8028  37.991  23.736  14.920
35604W        W 8029  42.233   1.372  13.578
35605W        W 8030  23.935  15.193   3.417
35606W        W 8031  15.207  37.064   2.009
35607W        W 8032  29.723  42.520   3.704
35608W        W 8033  31.124  27.001   1.915
35609W        W 8034   4.412   9.412  11.059
35610W        W 8035   4.277   5.834  14.849
35611W        W 8036   5.970  29.711   0.057
35612W        W 8037   5.820  18.722  13.040
35613W        W 8038  10.173  37.412   4.328
35614W        W 8039  27.072  44.812  14.250
35615W        W 8040  16.668  38.809   3.785
35616W        W 8041   2.810  44.340  11.566
35617W        W 8042   3.483   0.558   4.213
35618W        W 8043  30.605   2.797  11.377
35619W        W 8044   3.920  11.549  12.123
35620W        W 8045  25.548  17.237  13.402
35621W        W 8046   0.961  40.617  11.956
35622W        W 8047   6.836  28.724  13.416
35623W        W 8048  23.419   3.606  12.155
35624W        W 8049  34.401   6.702  12.576
35625W        W 8050  24.451  35.042  12.045
35626W        W 8051  43.704   3.250   0.867
35627W        W 8052   0.176   6.920  12.863
35628W        W 8053  28.659   0.991   1.853
35629W        W 8054   0.835   5.830  12.033
35630W        W 8055  30.454  23.613  13.102
35631W        W 8056   0.744  23.783   2.276
35632W        W 8057  27.061  14.799  14.394
35633W        W 8058  39.060  33.337   5.143
35634W        W 8059   1.801  22.333   4.581
35635W        W 8060  14.212  14.300   1.222
35636W        W 8061   3.126  24.666   4.580
35637W        W 8062  32.209  22.591   5.190
35638W        W 8063  13.526  33.365   0.702
35639W        W 8064   1.934  20.137  11.224
35640W        W 8065   9.225  30.150   2.185
35641W        W 8066  37.472   6.449  12.077
35642W        W 8067  31.632  41.944  11.751
35643W        W 8068  27.976  23.638  14.543
35644W        W 8069  40.138  21.180   3.098
35645W        W 8070  41.916   5.765   1.371
35646W        W 8071   2.365   3.283  10.545
35647W        W 8072  32.578  39.834  13.049
35648W        W 8073  34.995   3.457   2.193
35649W        W 8074   0.303  43.471  10.666
35650W        W 8075   9.003   9.811  13.355
35651W        W 8076   2.932  42.992   3.762
35652W        W 8077  30.705  11.207  14.519
35653W        W 8078  34.873  27.679   4.609
35654W        W 8079  10.389  26.989   0.829
35655W        W 8080  41.552  41.463   1.758
35656W        W 8081  32.263  11.456  12.182
35657W        W 8082  24.552  34.792   3.841
35658W        W 8083  18.172  43.011   4.169
35659W        W 8084  29.930  10.156   0.770
35660W        W 8085  12.541   5.114   4.156
35661W        W 8086  30.082  35.429  11.074
35662W        W 8087   0.159  29.164  13.539
35663W        W 8088  35.146   9.723   3.492
35664W        W 8089  42.651  38.046  12.064
35665W        W 8090  41.456  10.137   2.854
35666W        W 8091  34.891  41.462   1.519
35667W        W 8092  23.857  29.553   0.403
35668W        W 8093  18.251  12.129  13.690
35669W        W 8094  43.929  32.005  11.080
35670W        W 8095   2.942  26.051  13.897
35671W        W 8096   6.184  18.078  13.493
35672W        W 8097  35.408   9.471   3.063
35673W        W 8098  34.885   9.002  14.962
35674W        W 8099   8.768  21.990   4.502
35675W        W 8100  39.171  25.661   2.134
35676W        W 8101   2.016  15.767  13.520
35677W        W 8102  11.358  34.441   4.617
35678W        W 8103  19.481  28.624   0.359
35679W        W 8104  36.592  23.551   3.337
35680W        W 8105   8.873  17.043   3.682
35681W        W 8106  22.576  25.313   3.143
35682W        W 8107  31.406  10.728  11.957
35683W        W 8108  37.431   0.910  10.564
35684W        W 8109  41.389   6.870  12.074
35685W        W 8110  34.615  14.559  14.727
35686W        W 8111   9.155  12.658  12.430
35687W        W 8112  26.261  17.092  14.099
35688W        W 8113   9.092   2.366  10.694
35689W        W 8114   1.897  15.827   4.348
35690W        W 8115  27.641   6.351   1.980
35691W        W 8116   3.829  42.955   0.840
35692W        W 8117   0.726  31.001  12.963
35693W        W 8118  28.808  41.748  11.207
35694W        W 8119   6.338  21.516   4.342
35695W        W 8120  28.005  25.914   1.191
35696W        W 8121   7.872  22.843   0.363
35697W        W 8122  41.550   6.682   1.269
35698W        W 8123   2.365  42.521  11.520
35699W        W 8124  23.253  21.445  11.225
35700W        W 8125  30.189   7.703  11.711
35701W        W 8126  22.618  25.067  12.607
35702W        W 8127  40.111   8.140  11.634
35703W        W 8128   5.930  20.172  13.008
35704W        W 8129   5.845   4.809   1.206
35705W        W 8130  38.006  31.243   4.170
35706W        W 8131  19.645  31.160  10.349
35707W        W 8132  23.615  15.269  13.051
35708W        W 8133  17.618   5.539  14.307
35709W        W 8134  34.890  43.558  11.198
35710W        W 8135  19.785  24.115   0.570
35711W        W 8136   9.155  43.500  13.007
35712W        W 8137  44.353   3.992   2.646
35713W        W 8138   5.276  27.949  11.999
35714W        W 8139   9.848  27.920   2.727
35715W        W 8140   1.233  26.978   2.518
35716W        W 8141  43.740   6.242  13.557
35717W        W 8142  23.318  12.624   0.271
35718W        W 8143  28.513  28.165   1.776
35719W        W 8144  20.420   3.857   0.348
35720W        W 8145  26.681  12.653   1.814
35721W        W 8146  32.461   5.240  10.493
35722W        W 8147  29.142  38.085   3.267
35723W        W 8148   3.938  25.137   2.327
35724W        W 8149  21.292   2.735  12.849
35725W        W 8150  17.277  44.320  14.757
35726W        W 8151  22.503  12.623   3.914
35727W        W 8152   1.422   9.811   4.145
35728W        W 8153  24.019  10.409   3.421
35729W        W 8154  17.084  22.563  12.324
35730W        W 8155  28.817  32.834  12.072
35731W        W 8156  10.974  40.371  10.666
35732W        W 8157  42.272  41.956  12.638
35733W        W 8158   8.934  11.335  12.449
35734W        W 8159  10.249  30.723   1.082
35735W        W 8160  39.384  29.518  12.971
35736W        W 8161  19.200   1.804   3.683
35737W        W 8162   6.212   1.634   2.963
35738W        W 8163   0.185   9.095  10.087
35739W        W 8164  44.384   6.242   4.981
35740W        W 8165   6.465   6.300   2.354
35741W        W 8166   5.846  43.363   0.050
35742W        W 8167  44.274  22.064   0.617
35743W        W 8168  24.484  38.455   4.640
35744W        W 8169   4.510  19.358  12.792
35745W        W 8170  17.828   2.422   9.672
35746W        W 8171  33.379   5.342  10.170
35747W        W 8172  27.539  27.448  14.936
35748W        W 8173   5.208   6.323  13.931
35749W        W 8174  21.545  12.209   1.631
35750W        W 8175  12.907  23.659   5.166
35751W        W 8176  27.392  42.842   4.526
35752W        W 8177   0.939   3.766   3.789
35753W        W 8178   6.662   8.913  12.579
35754W        W 8179  34.729   2.943   3.271
35755W        W 8180  23.992  13.653   0.405
35756W        W 8181  18.601  26.630   1.285
35757W        W 8182  42.345   6.474   1.351
35758W        W 8183  40.623  41.759  12.057
35759W        W 8184  32.455  23.063  12.253
35760W        W 8185  43.826   4.644   2.185
35761W        W 8186   0.649  25.218   4.888
35762W        W 8187  15.163   0.481   0.900
35763W        W 8188  12.597  31.723   0.820
35764W        W 8189  39.922  23.771  12.337
35765W        W 8190   5.572  31.470   4.403
35766W        W 8191  24.116  14.425  13.141
35767W        W 8192  38.049  16.571   0.585
35768W        W 8193  41.434  17.842  12.451
35769W        W 8194   2.992  43.612   2.254
35770W        W 8195  31.511  39.451   2.314
35771W        W 8196  37.989  28.925  14.256
35772W        W 8197  26.043   9.169   0.704
35773W        W 8198  36.829  28.581  11.694
35774W        W 8199  26.482  38.415   0.085
35775W        W 8200  26.480   8.318   2.560
35776W        W 8201   4.167  30.571   0.036
35777W        W 8202  19.571  22.738   3.301
35778W        W 8203  40.760  14.583  12.013
35779W        W 8204  13.688  33.748   3.216
35780W        W 8205  41.565  28.866   4.536
35781W        W 8206   8.543  18.134   2.357
35782W        W 8207  25.253  19.185  11.208
35783W        W 8208  27.949  24.716   0.014
35784W        W 8209  37.111  32.179   2.596
35785W        W 8210  16.744   8.860   1.154
35786W        W 8211  29.607  38.120  14.364
35787W        W 8212  24.611  19.540   2.279
35788W        W 8213  33.273  21.016   2.933
35789W        W 8214   9.487  22.447  11.367
35790W        W 8215  26.065  26.771   1.429
35791W        W 8216  12.506   4.268   2.742
35792W        W 8217  12.428  12.720  12.588
35793W        W 8218   2.738  22.691  13.995
35794W        W 8219  17.208  35.834   0.119
35795W        W 8220   5.802  11.295   1.354
35796W        W 8221  16.647  34.993  10.584
35797W        W 8222   8.162  18.082   3.200
35798W        W 8223   6.689  31.952   3.189
35799W        W 8224  22.089  44.939   4.995
35800W        W 8225  10.615  24.455  11.483
35801W        W 8226  30.147   0.551   4.914
35802W        W 8227  24.510  41.061  12.056
35803W        W 8228  14.152  39.261  13.290
35804W        W 8229  39.339  38.600  13.419
35805W        W 8230   3.664  19.871  12.113
35806W        W 8231  24.757  40.593  12.987
35807W        W 8232  17.977  42.665   1.530
35808W        W 8233   5.807  16.850   0.516
35809W        W 8234  10.949  42.974   0.017
35810W        W 8235  30.939  20.161   1.791
35811W        W 8236  32.506  38.102   4.235
35812W        W 8237  41.465   7.656  14.414
35813W        W 8238   2.497  26.660   0.278
35814W        W 8239  31.333  30.561   2.905
35815W        W 8240   5.185  38.943   4.370
35816W        W 8241   8.110  42.436  11.485
35817W        W 8242  37.196  35.342   3.199
35818W        W 8243   6.954  18.178  12.936
35819W        W 8244  30.765  37.611  11.959
35820W        W 8245   7.312  19.115   3.703
35821W        W 8246   5.277  11.697  14.760
35822W        W 8247  33.387  42.024   3.713
35823W        W 8248  12.710  21.591   4.036
35824W        W 8249   0.315   5.670   0.753
35825W        W 8250  33.177  24.058   0.875
35826W        W 8251  44.947   4.245   3.590
35827W        W 8252  11.664  17.200  10.156
35828W        W 8253  15.667  36.826   4.358
35829W        W 8254  33.610  13.781   3.249
35830W        W 8255  29.914  14.011  11.152
35831W        W 8256  32.659  15.149   3.627
35832W        W 8257  43.066   4.300  13.066
35833W        W 8258  32.726  27.000  14.003
35834W        W 8259  22.514  44.409   3.270
35835W        W 8260  36.264  35.621   3.499
35836W        W 8261  31.488  39.087  10.647
35837W        W 8262  38.959  33.485  13.462
35838W        W 8263  25.160  34.374  12.369
35839W        W 8264  14.987  23.175   2.898
35840W        W 8265  15.393  31.401   1.664
35841W        W 8266  31.680  39.931   2.130
35842W        W 8267  29.956  28.557   3.833
35843W        W 8268  42.286  36.095   1.791
35844W        W 8269  28.001  13.568   4.679
35845W        W 8270  36.971   0.932  10.778
35846W        W 8271  26.917  12.661  12.547
35847W        W 8272  30.167   0.953  13.820
35848W        W 8273  30.163  19.338  10.944
35849W        W 8274  28.092  43.855   2.151
35850W        W 8275  35.035  32.467  12.446
35851W        W 8276  26.182  13.697  12.883
35852W        W 8277  32.551  27.892  11.914
35853W        W 8278  44.025  23.536   3.708
35854W        W 8279   1.031  42.552  10.863
35855W        W 8280  20.260   4.205  10.815
35856W        W 8281   1.977   0.210   0.928
35857W        W 8282   7.383  18.215   1.865
35858W        W 8283  31.817  35.483   5.301
35859W        W 8284  15.186  23.381  12.863
35860W        W 8285  15.958  21.175  14.571
35861W        W 8286  29.153   7.248  11.986
35862W        W 8287  44.694  17.509  10.742
35863W        W 8288  34.981  42.423  14.598
35864W        W 8289  22.385   2.400  14.070
35865W        W 8290  16.359  31.176  13.918
35866W        W 8291  10.541  32.517  14.902
35867W        W 8292   0.332   2.412  14.365
35868W        W 8293  10.072  13.816  13.409
35869W        W 8294   8.848   0.143  14.726
35870W        W 8295   2.000  42.197   1.422
35871W        W 8296  32.145   1.095   0.422
35872W        W 8297  14.322  24.047   4.179
35873W        W 8298   9.633  29.121   3.170
35874W        W 8299  15.437   4.165   1.933
35875W        W 8300  43.838  19.813  13.323
35876W        W 8301  24.675   9.621  12.485
35877W        W 8302  30.421  16.664  11.226
35878W        W 8303   8.224  22.734  13.239
35879W        W 8304   1.939  10.258  11.089
35880W        W 8305   1.929  12.672  10.492
35881W        W 8306  20.335  19.427  13.527
35882W        W 8307  31.552  28.037  13.046
35883W        W 8308  39.545  41.792   1.668
35884W        W 8309  12.036   9.178   0.606
35885W        W 8310  44.063   8.696  13.995
35886W        W 8311  36.342  16.673   1.041
35887W        W 8312  27.226  11.091  14.996
35888W        W 8313  29.023  21.914  12.199
35889W        W 8314  28.135   6.453  10.708
35890W        W 8315   3.260  14.213  13.059
35891W        W 8316  27.029  30.691   2.383
35892W        W 8317  39.353  21.293  11.008
35893W        W 8318  41.509  15.923   1.707
35894W        W 8319  44.213   6.099   1.730
35895W        W 8320  34.038  25.503   2.377
35896W        W 8321   7.286  39.343   3.160
35897W        W 8322   4.313  35.103   0.888
35898W        W 8323  23.163  28.107   1.722
35899W        W 8324  32.603  29.040   5.107
35900W        W 8325  34.495  21.971   3.751
35901W        W 8326  19.029  43.633   4.123
35902W        W 8327   5.216  15.345   4.016
35903W        W 8328  34.818  44.852  14.551
35904W        W 8329  12.183  31.431   0.902
35905W        W 8330  42.191   4.929  14.955
35906W        W 8331   7.384  18.597  14.753
35907W        W 8332  38.790  17.261  14.387
35908W        W 8333  13.118  42.803   1.351
35909W        W 8334  37.018  36.172   2.377
35910W        W 8335  40.507  14.294   2.136
35911W        W 8336   5.303  39.313  14.900
35912W        W 8337  24.191  36.846   2.375
35913W        W 8338  39.027  39.153  12.833
35914W        W 8339  14.238  27.528  14.411
35915W        W 8340  17.787  12.199   2.011
35916W        W 8341  15.698  26.449   2.193
35917W        W 8342  18.750  13.141   1.281
35918W        W 8343  24.687  31.046  11.621
35919W        W 8344  12.339  30.923   4.951
35920W        W 8345  13.159  42.365   0.396
35921W        W 8346  32.462  40.767   0.461
35922W        W 8347  22.029  10.727   3.290
35923W        W 8348  33.151   4.744   0.773
35924W        W 8349  30.636  37.795   3.277
35925W        W 8350  24.734  20.758   1.841
35926W        W 8351  14.814  39.780   0.673
35927W        W 8352  21.034  10.723  13.486
35928W        W 8353  29.103  39.922  13.520
35929W        W 8354   3.062  41.028   2.916
35930W        W 8355   7.089  38.526  10.965
35931W        W 8356  43.123  15.186  14.392
35932W        W 8357  38.917  34.415  11.911
35933W        W 8358  41.911  44.475   0.178
35934W        W 8359   3.897  35.424  13.205
35935W        W 8360  24.644  39.633  13.298
35936W        W 8361  38.681  24.023  12.018
35937W        W 8362  15.151  24.651   2.746
35938W        W 8363  38.859   4.277  10.708
35939W        W 8364  25.805  37.947  10.428
35940W        W 8365   5.458  10.588   4.197
35941W        W 8366  38.938  10.605  14.528
35942W        W 8367  21.697   0.284   3.835
35943W        W 8368  41.037  38.014  11.219
35944W        W 8369  42.312  18.339   2.731
35945W        W 8370  25.185  30.905  14.936
35946W        W 8371  19.346  21.555  11.196
35947W        W 8372  43.080   3.103   1.864
35948W        W 8373  40.863  39.133   2.372
35949W        W 8374  18.176  42.582   4.434
35950W        W 8375   3.161   2.412   5.021
35951W        W 8376  32.655   5.797   2.872
35952W        W 8377  30.005   7.704  10.812
35953W        W 8378  40.598  40.115  14.750
35954W        W 8379  41.432   8.388   4.828
35955W        W 8380  27.976  18.533   4.228
35956W        W 8381   2.916  38.562   1.732
35957W        W 8382  25.336   1.948   0.721
35958W        W 8383  19.487   0.899   3.660
35959W        W 8384   9.965  30.913   3.238
35960W        W 8385   7.008  18.321  13.904
35961W        W 8386  24.282  18.737  11.169
35962W        W 8387  18.141  24.893  11.637
35963W        W 8388  35.570  33.472   1.462
35964W        W 8389  24.956  24.249   0.891
35965W        W 8390  21.636   9.434   2.412
35966W        W 8391  32.094   2.035   4.140
35967W        W 8392  40.358  19.319  14.872
35968W        W 8393  42.303   0.031  14.122
35969W        W 8394  43.502   1.563  14.024
35970W        W 8395   6.762  28.143  10.870
35971W        W 8396   2.784   8.500  12.974
35972W        W 8397  32.023  22.674   3.057
35973W        W 8398  20.046  35.979   3.702
35974W        W 8399  19.052  18.121  13.046
35975W        W 8400  43.167  11.673  10.128
35976W        W 8401  13.201   1.296  14.041
35977W        W 8402   8.905  27.152   2.371
35978W        W 8403  32.445  33.461   4.380
35979W        W 8404  16.773  11.868  11.531
35980W        W 8405  40.127  44.888  11.590
35981W        W 8406  39.280   8.930   2.452
35982W        W 8407  37.877   1.917  14.414
35983W        W 8408  16.832  41.914   2.763
35984W        W 8409  21.488  32.875   4.297
35985W        W 8410   5.755  24.134  11.124
35986W        W 8411   9.302  44.358   0.001
35987W        W 8412  11.041   7.188   4.049
35988W        W 8413  40.993   0.891  13.966
35989W        W 8414  12.402  31.424   2.615
35990W        W 8415  44.550  41.326  11.547
35991W        W 8416  12.121  21.599   2.662
35992W        W 8417  39.905  11.235   3.281
35993W        W 8418  36.606   2.792   2.836
35994W        W 8419  19.663  28.656   4.703
35995W        W 8420  27.166  10.801   0.426
35996W        W 8421  28.949   4.792   5.016
35997W        W 8422   4.784   5.875   3.199
35998W        W 8423  41.516  28.860  13.416
35999W        W 8424  31.571  12.314   1.547
36000W        W 8425  41.896  36.986   1.745
36001W        W 8426  21.815  35.474   4.824
36002W        W 8427  19.098   5.451   0.007
36003W        W 8428  38.005  42.788  12.121
36004W        W 8429  28.588   0.711  11.149
36005W        W 8430  14.938   2.396   1.560
36006W        W 8431  14.622  33.456  10.814
36007W        W 8432   5.743  12.299  12.463
36008W        W 8433  11.347  28.582  14.741
36009W        W 8434  14.222  37.239   2.925
36010W        W 8435  37.729  44.944  12.388
36011W        W 8436  11.847  12.280  14.309
36012W        W 8437   6.798  28.165   3.327
36013W        W 8438  43.602   7.857  12.007
36014W        W 8439  19.758  10.665  12.938
36015W        W 8440  43.900  39.366   0.777
36016W        W 8441  16.509   4.364  11.396
36017W        W 8442  36.633  41.306  13.854
36018W        W 8443   5.259  15.356  13.809
36019W        W 8444  31.501   0.949   3.748
36020W        W 8445  38.639  10.823   1.683
36021W        W 8446  24.219  12.688   4.352
36022W        W 8447  21.174  20.980  11.121
36023W        W 8448  25.419  24.698  11.421
36024W        W 8449  43.529  43.264  12.118
36025W        W 8450   0.065  25.958   2.154
36026W        W 8451  39.926  23.740   4.026
36027W        W 8452  13.632  24.440   1.173
36028W        W 8453  36.436   0.894   2.894
36029W        W 8454  16.121  21.258   0.449
36030W        W 8455  31.191  34.405  10.346
36031W        W 8456  21.577  28.463   3.514
36032W        W 8457  36.957  30.476  10.628
36033W        W 8458   2.532  39.373   0.399
36034W        W 8459  15.063  15.321  14.325
36035W        W 8460  17.755  15.382  12.317
36036W        W 8461   6.317   4.068  12.937
36037W        W 8462  17.327  17.285   3.933
36038W        W 8463   2.016  25.633  12.950
36039W        W 8464  28.519  19.598  13.751
36040W        W 8465  40.740  31.637   2.771
36041W        W 8466   9.254  14.947   3.707
36042W        W 8467  27.293  35.049  14.508
36043W        W 8468  40.380  40.792  12.410
36044W        W 8469  38.326   1.168  14.957
36045W        W 8470   1.713   9.671  11.564
36046W        W 8471   0.337  25.950  10.587
36047W        W 8472  13.750  15.100  13.298
36048W        W 8473  43.356  31.497   4.131
36049W        W 8474   6.194  26.960  12.526
36050W        W 8475  37.688  34.893  12.571
36051W        W 8476  33.357  38.288  11.531
36052W        W 8477  17.198  28.101   1.335
36053W        W 8478   4.271   8.269  11.202
36054W        W 8479   3.754   3.722   3.644
36055W        W 8480  22.474  35.002   0.474
36056W        W 8481  14.671  29.941   2.892
36057W        W 8482   6.736  32.047  13.171
36058W        W 8483  20.656  15.759  13.096
36059W        W 8484   7.241  18.091  12.477
36060W        W 8485  22.237  32.623  14.338
36061W        W 8486  22.161  19.175  11.973
36062W        W 8487  14.248  27.031  14.534
36063W        W 8488  33.608  21.343  12.100
36064W        W 8489  10.725   1.373   2.704
36065W        W 8490  19.288   3.920  13.469
36066W        W 8491   3.996   3.504   1.809
36067W        W 8492  33.643  42.648  13.462
36068W        W 8493   1.942   7.925  12.966
36069W        W 8494   3.325  25.568  12.384
36070W        W 8495  26.168  17.273  11.612
36071W        W 8496  30.692  36.619   1.499
36072W        W 8497  26.106  43.785   0.254
36073W        W 8498  23.913   3.242   2.803
36074W        W 8499  12.403  41.107   4.813
36075W        W 8500  18.507  38.886  13.975
36076W        W 8501   8.173  29.845   0.878
36077W        W 8502   3.859   4.233   4.376
36078W        W 8503   1.403   1.719  12.588
36079W        W 8504  33.580   4.224   3.692
36080W        W 8505   6.306  32.804   2.884
36081W        W 8506  44.770  24.980  11.560
36082W        W 8507   9.092   6.719  12.073
36083W        W 8508  39.483  32.141  11.887
36084W        W 8509  44.684  28.941   4.487
36085W        W 8510   0.218  36.785  12.082
36086W        W 8511  15.426  18.626   1.293
36087W        W 8512   1.750   9.237  12.478
36088W        W 8513  37.971  21.015  13.797
36089W        W 8514  25.522  37.902  10.890
36090W        W 8515  22.779  40.928   3.203
36091W        W 8516  17.984  40.609  13.884
36092W        W 8517  41.707  33.978   1.851
36093W        W 8518  12.630  43.398   4.579
36094W        W 8519  22.548   4.354   2.755
36095W        W 8520  30.730  37.449   4.725
36096W        W 8521  29.101   6.645   4.305
36097W        W 8522  21.630  43.011   3.271
36098W        W 8523  19.807  44.141  11.248
36099W        W 8524  28.424  38.104  11.842
36100W        W 8525  29.840  13.753  10.721
36101W        W 8526  26.626   0.523  13.042
36102W        W 8527  28.929  30.498  13.878
36103W        W 8528  17.658  14.338  12.005
36104W        W 8529  21.586  19.573   0.885
36105W        W 8530  42.216   4.877  11.570
36106W        W 8531   1.290   2.392   4.145
36107W        W 8532  40.570  22.445   0.954
36108W        W 8533  38.556  33.083  14.072
36109W        W 8534  26.670  12.395  13.881
36110W        W 8535  22.599  42.895   0.505
36111W        W 8536  29.557  40.432   3.718
36112W        W 8537  37.562  37.830  11.579
36113W        W 8538   4.166   6.338   3.657
36114W        W 8539  40.015  12.721   2.827
36115W        W 8540  42.954  33.331  14.701
36116W        W 8541   3.097  32.099   9.758
36117W        W 8542  35.510  41.679   0.479
36118W        W 8543   0.832  25.646  11.932
36119W        W 8544   7.988  37.779   2.818
36120W        W 8545  29.563  20.247  14.034
36121W        W 8546  17.932  18.581   0.736
36122W        W 8547   8.185  26.139  12.628
36123W        W 8548  35.291  21.234   2.871
36124W        W 8549  14.918   7.320  14.519
36125W        W 8550  34.588  28.878   2.858
36126W        W 8551  16.793  29.391   4.097
36127W        W 8552  44.068  21.538  12.478
36128W        W 8553  43.761  38.597   4.120
36129W        W 8554  40.490  30.125   2.800
36130W        W 8555  38.421  37.499  11.598
36131W        W 8556  21.129  13.868  12.367
36132W        W 8557  42.439  42.469  12.545
36133W        W 8558  36.537  13.460   1.703
36134W        W 8559   9.181  32.928   4.694
36135W        W 8560  36.350   4.230  14.556
36136W        W 8561  29.694  29.984   0.745
36137W        W 8562  43.311  28.104  13.003
36138W        W 8563   7.584   2.486   3.263
36139W        W 8564  32.571   1.244  11.956
36140W        W 8565  30.984  31.446  13.862
36141W        W 8566  23.351  42.048   3.211
36142W        W 8567  26.648   0.697  11.621
36143W        W 8568   5.981   0.007  11.136
36144W        W 8569  25.605  13.694   1.712
36145W        W 8570  34.324  26.024  13.846
36146W        W 8571  35.814  12.770   3.316
36147W        W 8572   0.359  10.799   1.755
36148W        W 8573  18.648  21.887   2.374
36149W        W 8574  37.846   8.878   2.374
36150W        W 8575   0.765  26.115   2.836
36151W        W 8576  15.580  10.408   4.183
36152W        W 8577  38.846   6.441  10.363
36153W        W 8578  28.188   5.857   0.770
36154W        W 8579   2.839  43.260   2.592
36155W        W 8580  42.909   8.486  13.569
36156W        W 8581  13.999  16.237  14.785
36157W        W 8582  30.029  34.551   2.163
36158W        W 8583  39.024  17.639  10.755
36159W        W 8584   7.622  31.781   3.202
36160W        W 8585  22.932  38.521   4.484
36161W        W 8586  16.297  31.638   2.934
36162W        W 8587  37.931  36.789  12.614
36163W        W 8588   8.851  43.008  13.872
36164W        W 8589   7.844  39.927   4.757
36165W        W 8590  29.134   6.310   1.730
36166W        W 8591  15.818  37.808   4.086
36167W        W 8592  29.006  28.629   0.322
36168W        W 8593  16.371  40.324  10.692
36169W        W 8594  36.397  17.611  13.128
36170W        W 8595  41.601  44.313   2.189
36171W        W 8596   8.697  13.350   4.102
36172W        W 8597  26.554  31.532   2.047
36173W        W 8598  38.171  37.499   2.737
36174W        W 8599   7.836  33.154   1.907
36175W        W 8600  17.158   2.701  12.183
36176W        W 8601  34.421  21.542  10.672
36177W        W 8602  35.492  17.567  13.210
36178W        W 8603  25.233  11.584   1.785
36179W        W 8604  13.813  12.357  13.277
36180W        W 8605  18.937  33.608  11.028
36181W        W 8606  40.490  15.814   4.679
36182W        W 8607  34.721  33.901  11.515
36183W        W 8608   7.595   6.936  12.920
36184W        W 8609   4.172  19.583  12.005
36185W        W 8610  32.605  33.858  12.270
36186W        W 8611   9.050  39.610  11.594
36187W        W 8612  36.637  35.822  11.469
36188W        W 8613  34.892  42.462   0.955
36189W        W 8614  15.951  37.949   5.112
36190W        W 8615  35.845  37.082  12.498
36191W        W 8616  25.291  36.542   3.423
36192W        W 8617  22.059   5.241  14.748
36193W        W 8618  33.635  34.538  11.344
36194W        W 8619  38.372  35.195   2.781
36195W        W 8620  24.930  29.502  12.891
36196W        W 8621  42.026  10.098  12.007
36197W        W 8622   2.354  36.846  11.157
36198W        W 8623  30.070  29.659   4.723
36199W        W 8624  23.587  18.779   2.334
36200W        W 8625   1.309  31.148  12.137
36201W        W 8626  12.638  16.761   4.078
36202W        W 8627  31.399  31.546  11.957
36203W        W 8628  21.100   3.852   1.442
36204W        W 8629   1.323  15.604   2.739
36205W        W 8630  25.001  39.660  12.911
36206W        W 8631  23.809  25.982   4.178
36207W        W 8632  22.236  16.768  14.371
36208W        W 8633  10.699  31.390   0.194
36209W        W 8634  14.807   9.797  12.021
36210W        W 8635  36.341  30.471   0.242
36211W        W 8636   1.851  13.240  14.307
36212W        W 8637  22.772   6.433   3.259
36213W        W 8638   5.401  37.143  10.819
36214W        W 8639  37.974  20.700   4.268
36215W        W 8640   1.975  39.321  13.007
36216W        W 8641   6.234  39.343   0.896
36217W        W 8642  10.168   9.777  14.943
36218W        W 8643  17.403   8.348   1.582
36219W        W 8644   8.280  39.598  11.957
36220W        W 8645  40.893  34.787   3.673
36221W        W 8646  36.232  23.403   0.035
36222W        W 8647   6.692  26.384   3.797
36223W        W 8648   4.345  22.696  13.032
36224W        W 8649  21.085  39.338   2.222
36225W        W 8650   1.006  33.544   0.265
36226W        W 8651  14.932   2.903   0.485
36227W        W 8652  31.936  36.674   3.155
36228W        W 8653   4.290   0.948  11.215
36229W        W 8654   9.693  37.189  11.688
36230W        W 8655   9.493  15.160  14.420
36231W        W 8656  26.537  28.632  12.986
36232W        W 8657  34.524  24.773   0.671
36233W        W 8658  17.431  40.681  12.989
36234W        W 8659  21.637   6.781   1.145
36235W        W 8660  22.447  44.650   2.828
36236W        W 8661  39.339  36.945  13.886
36237W        W 8662  16.553  35.060   3.755
36238W        W 8663  23.613  44.074  13.078
36239W        W 8664  36.457  26.012   4.193
36240W        W 8665  28.928  39.717   1.453
36241W        W 8666  36.164   9.673  12.832
36242W        W 8667   9.328   5.856  12.496
36243W        W 8668  26.057  18.564  11.069
36244W        W 8669  33.580   5.447   2.594
36245W        W 8670  16.083  36.863  11.493
36246W        W 8671  21.243  23.985   1.255
36247W        W 8672  16.882  24.526   3.792
36248W        W 8673  38.916  41.405  13.502
36249W        W 8674   8.693  25.237   0.269
36250W        W 8675  27.001   0.054   3.633
36251W        W 8676  30.466  23.298   2.626
36252W        W 8677  35.674  41.047   2.877
36253W        W 8678  19.126   3.508   4.243
36254W        W 8679  19.598  10.195   0.762
36255W        W 8680   5.248  11.001  14.146
36256W        W 8681  41.382  25.893   4.012
36257W        W 8682  19.108  40.457  13.891
36258W        W 8683  23.446  21.699   4.165
36259W        W 8684   5.172  34.826   2.275
36260W        W 8685   4.804  33.598  14.266
36261W        W 8686  38.368  28.189  10.810
36262W        W 8687  38.020  20.356   3.757
36263W        W 8688   9.845   2.938  13.917
36264W        W 8689  10.838  19.726  14.829
36265W        W 8690  27.013  17.284  11.615
36266W        W 8691  26.461  25.918   0.031
36267W        W 8692   3.705   3.720  13.389
36268W        W 8693  36.010  31.927  11.715
36269W        W 8694  41.765  37.818   4.847
36270W        W 8695   4.738   6.396   2.958
36271W        W 8696   8.161  38.891  12.409
36272W        W 8697  44.164   4.451  11.098
36273W        W 8698  18.151  33.858  10.430
36274W        W 8699  44.517  16.165  10.839
36275W        W 8700  44.851  22.045   2.333
36276W        W 8701  35.080  13.169  12.122
36277W        W 8702  11.709  22.794  10.132
36278W        W 8703  20.219  40.792  13.320
36279W        W 8704   4.247  18.420  14.474
36280W        W 8705  13.756  23.737   3.088
36281W        W 8706   6.427   3.208   3.194
36282W        W 8707   4.273   0.830   4.584
36283W        W 8708  41.404  32.708  14.727
36284W        W 8709  37.393  32.606  12.993
36285W        W 8710  42.821   0.406   3.825
36286W        W 8711   0.638   8.976  13.480
36287W        W 8712  27.081  42.995  12.822
36288W        W 8713  35.961  41.578   0.771
36289W        W 8714   2.419   4.759   0.415
36290W        W 8715  35.913   5.208  13.318
36291W        W 8716   9.322  38.450   2.212
36292W        W 8717  22.821  22.209  11.628
36293W        W 8718  17.609  24.642  14.265
36294W        W 8719   2.435  28.571   4.337
36295W        W 8720   6.295  22.830  13.925
36296W        W 8721  17.515   2.757   5.468
36297W        W 8722   0.798  12.092   4.175
36298W        W 8723  17.235  44.624   2.392
36299W        W 8724  37.635  44.090   1.362
36300W        W 8725   4.787  32.066   4.012
36301W        W 8726  32.653  19.768   0.246
36302W        W 8727  12.453   3.351   3.512
36303W        W 8728   1.916  11.347  12.879
36304W        W 8729   6.377  42.606   1.998
36305W        W 8730  40.983   1.332  14.792
36306W        W 8731  17.323   0.374   1.830
36307W        W 8732  30.636  13.635   0.889
36308W        W 8733  42.705  20.074   3.694
36309W        W 8734   1.683  28.863  12.062
36310W        W 8735  38.749  33.479   2.848
36311W        W 8736  27.967  27.892   4.406
36312W        W 8737  43.862  21.177  10.435
36313W        W 8738  29.546   8.746   0.531
36314W        W 8739  41.441  32.567  13.302
36315W        W 8740  38.464  29.384   3.640
36316W        W 8741   4.489  25.203   3.203
36317W        W 8742  35.916  43.371   4.136
36318W        W 8743  43.874  19.282  13.428
36319W        W 8744  28.252  40.939  12.059
36320W        W 8745  29.939  15.608  12.792
36321W        W 8746  30.027  37.310  14.219
36322W        W 8747  34.077  44.545   4.571
36323W        W 8748  16.870  41.778  12.161
36324W        W 8749   2.460   1.288  14.294
36325W        W 8750   5.463  38.055   0.721
36326W        W 8751  32.846  20.676   2.003
36327W        W 8752  30.897  16.327  10.569
36328W        W 8753  32.642   9.704  13.593
36329W        W 8754  16.825   2.887  13.394
36330W        W 8755  24.606  21.053   5.009
36331W        W 8756  19.338  24.937   1.842
36332W        W 8757  18.578   4.431  14.476
36333W        W 8758   9.177   3.802  10.664
36334W        W 8759  40.838  32.966   3.777
36335W        W 8760   1.907  13.716   4.500
36336W        W 8761  40.259  17.166  14.293
36337W        W 8762   3.548  35.931  11.194
36338W        W 8763  27.753  36.886   0.354
36339W        W 8764  16.564  12.750  10.599
36340W        W 8765   9.829   6.182   0.381
36341W        W 8766  14.596  30.503   5.024
36342W        W 8767  35.568  10.423   1.224
36343W        W 8768  30.589  40.322  13.943
36344W        W 8769  13.964   3.331  11.579
36345W        W 8770   4.869   1.358  13.799
36346W        W 8771  28.108  40.630  14.751
36347W        W 8772  12.345   6.446   4.186
36348W        W 8773   4.078  14.033   2.341
36349W        W 8774  25.343   8.175   2.932
36350W        W 8775  27.945   8.459   1.282
36351W        W 8776  22.254  30.384  13.560
36352W        W 8777  29.087  40.003   1.067
36353W        W 8778  41.408  44.476   0.410
36354W        W 8779  37.881  29.538   2.396
36355W        W 8780  24.207  35.159   0.910
36356W        W 8781  17.308   6.906   0.363
36357W        W 8782  15.339  12.245   2.208
36358W        W 8783   9.475   9.146  13.328
36359W        W 8784  35.989  35.105   3.164
36360W        W 8785   4.236   7.746   1.760
36361W        W 8786  28.456   7.333   0.316
36362W        W 8787  18.084  32.883   3.266
36363W        W 8788   8.740  19.141  12.293
36364W        W 8789   5.538  37.451   2.610
36365W        W 8790   2.740   6.816   2.683
36366W        W 8791   5.684  12.374   0.882
36367W        W 8792  35.986  35.979  13.675
36368W        W 8793  42.097  36.349  13.409
36369W        W 8794   4.371   5.648   4.318
36370W        W 8795   1.901  26.917   1.283
36371W        W 8796  38.098  17.802  11.163
36372W        W 8797   8.344  41.340   1.400
36373W        W 8798  23.574  39.551  14.527
36374W        W 8799   8.365  30.597   2.788
36375W        W 8800  12.612  11.035  13.149
36376W        W 8801  44.377  27.502   3.709
36377W        W 8802   6.321  36.866  14.709
36378W        W 8803  44.469  30.928   1.380
36379W        W 8804  24.156  41.189  10.295
36380W        W 8805  31.657   5.876   3.113
36381W        W 8806  18.147  30.176  11.415
36382W        W 8807   7.703  24.950   4.049
36383W        W 8808   5.010  44.279  11.055
36384W        W 8809  14.166  35.044  11.661
36385W        W 8810  38.142  33.650  14.757
36386W        W 8811  14.327   0.946   0.200
36387W        W 8812  29.510  41.027   4.508
36388W        W 8813  32.843  28.600   1.441
36389W        W 8814  24.252  10.919  14.046
36390W        W 8815  36.613  31.792  10.371
36391W        W 8816  20.808  18.316   2.339
36392W        W 8817  18.033  10.783   3.122
36393W        W 8818  10.289  28.707   2.217
36394W        W 8819   9.685   8.132   4.763
36395W        W 8820  39.025  41.940   2.816
36396W        W 8821  29.925   4.028  12.898
36397W        W 8822  31.848   9.188  14.563
36398W        W 8823  21.198  44.385  13.605
36399W        W 8824  35.222  24.787  13.691
36400W        W 8825  15.617   5.250   2.797
36401W        W 8826  11.892  13.399  13.861
36402W        W 8827  18.103  22.563   3.234
36403W        W 8828  32.089  14.353   0.335
36404W        W 8829  15.832   1.770  12.158
36405W        W 8830  18.486   8.388   4.040
36406W        W 8831  36.823  29.237  10.983
36407W        W 8832   6.113  15.839   2.291
36408W        W 8833  34.012   6.768  12.218
36409W        W 8834  23.618  11.151   1.715
36410W        W 8835  25.643   8.481   3.866
36411W        W 8836  16.424  21.658   4.035
36412W        W 8837   5.478   4.038   3.068
36413W        W 8838  36.515  13.553  12.197
36414W        W 8839  25.278  30.867   2.396
36415W        W 8840  38.520  12.489  11.611
36416W        W 8841  18.556  20.620   2.125
36417W        W 8842  26.465  40.437  11.962
36418W        W 8843  43.672  18.064   1.020
36419W        W 8844  31.756  15.665  14.803
36420W        W 8845  30.391  17.694   1.789
36421W        W 8846  38.453   9.642   4.309
36422W        W 8847  22.611  17.478   3.236
36423W        W 8848  15.268  16.753  10.915
36424W        W 8849  29.972  19.953   3.732
36425W        W 8850  36.962  33.609  14.348
36426W        W 8851  34.887  15.304  11.934
36427W        W 8852  29.477  18.218  13.068
36428W        W 8853   8.336  44.767  13.511
36429W        W 8854   2.215  27.222  13.609
36430W        W 8855  43.346  36.383  14.112
36431W        W 8856  16.859  34.946  11.874
36432W        W 8857  15.036  33.056   4.727
36433W        W 8858   6.295  40.158  12.965
36434W        W 8859  30.868  33.415   2.805
36435W        W 8860  13.351  37.908   0.413
36436W        W 8861  25.561  30.077  12.410
36437W        W 8862  37.906  32.052  12.557
36438W        W 8863  32.522  34.290  12.584
36439W        W 8864  13.614  21.793   0.919
36440W        W 8865  24.475  41.021  10.683
36441W        W 8866  34.568  25.596  14.017
36442W        W 8867  23.488   0.715   1.297
36443W        W 8868  28.214   1.075   1.407
36444W        W 8869  38.662  44.816  14.796
36445W        W 8870  22.100  41.806  11.590
36446W        W 8871   7.790  30.129   3.874
36447W        W 8872  15.283  39.463   3.254
36448W        W 8873   5.952  10.295   3.649
36449W        W 8874   9.336   9.419   3.803
36450W        W 8875  41.381  25.584   1.446
36451W        W 8876  44.395  37.927  14.264
36452W        W 8877  20.571   7.740   4.798
36453W        W 8878   3.503  19.085  12.442
36454W        W 8879  13.725  21.012  13.998
36455W        W 8880  22.673  38.422  10.731
36456W        W 8881  31.928  19.242   1.871
36457W        W 8882  10.400  18.070  11.291
36458W        W 8883  12.544  15.520   2.189
36459W        W 8884   8.890  13.918  13.440
36460W        W 8885   3.981  28.677   4.239
36461W        W 8886  37.558   7.824   3.077
36462W        W 8887   0.235  25.598  12.604
36463W        W 8888   5.140  15.817   0.280
36464W        W 8889  33.582  15.680  12.038
36465W        W 8890  22.584   7.494  12.486
36466W        W 8891  29.449   7.756  10.597
36467W        W 8892  25.468  27.143  10.680
36468W        W 8893  37.845  38.448   1.212
36469W        W 8894  28.525  43.307   0.996
36470W        W 8895  39.597  26.865  14.010
36471W        W 8896  20.961  33.976   2.143
36472W        W 8897  10.321  27.780  11.209
36473W        W 8898  22.535  29.900  14.737
36474W        W 8899  33.892   1.355  14.261
36475W        W 8900  14.513  15.369   2.877
36476W        W 8901   3.441  13.365   1.781
36477W        W 8902  13.694   7.828  14.596
36478W        W 8903  15.741  11.838  13.925
36479W        W 8904  31.081  25.596   2.823
36480W        W 8905  42.040  18.293  12.787
36481W        W 8906  15.532  28.662  13.787
36482W        W 8907   8.169  17.370  12.869
36483W        W 8908  21.674  18.825  12.867
36484W        W 8909  43.089   8.451   0.484
36485W        W 8910  13.274  13.813  13.195
36486W        W 8911  10.899   0.382  12.322
36487W        W 8912  30.669  32.470   4.958
36488W        W 8913  39.513  26.957  14.875
36489W        W 8914  14.081  19.900   1.802
36490W        W 8915  14.503  37.383  14.717
36491W        W 8916  32.069  25.596   2.678
36492W        W 8917  24.150  15.668   4.716
36493W        W 8918   7.535  16.291  14.833
36494W        W 8919  36.428  15.827   1.396
36495W        W 8920  40.816  10.893   4.078
36496W        W 8921  30.278   1.389   0.620
36497W        W 8922  14.560  33.689  13.504
36498W        W 8923  21.687  25.023   0.746
36499W        W 8924  28.094  36.745  11.921
36500W        W 8925   2.702  20.004   2.880
36501W        W 8926  31.988   0.469   1.736
36502W        W 8927  23.779  13.791   4.568
36503W        W 8928  16.326  24.851   0.082
36504W        W 8929  13.168  43.900   4.231
36505W        W 8930  42.515   7.419   2.414
36506W        W 8931   3.929  44.188   2.334
36507W        W 8932  37.162  27.185   0.014
36508W        W 8933  15.592   2.620  12.107
36509W        W 8934  36.112  25.972   0.420
36510W        W 8935  16.835  30.185  10.079
36511W        W 8936  44.864  25.115   4.906
36512W        W 8937  18.856  12.255  11.206
36513W        W 8938  34.811  13.550  14.823
36514W        W 8939  31.903  41.914   1.898
36515W        W 8940  24.213   9.448  12.343
36516W        W 8941   6.763  12.581   2.277
36517W        W 8942  33.945   8.956   0.946
36518W        W 8943  35.553  18.204   4.323
36519W        W 8944   6.796  43.945  10.706
36520W        W 8945  34.943  12.735  10.353
36521W        W 8946   9.803  31.544  12.066
36522W        W 8947  24.597  17.662  13.550
36523W        W 8948  16.632  29.369   3.204
36524W        W 8949   2.669  27.675   2.887
36525W        W 8950  24.148   8.841  13.873
36526W        W 8951  12.837   3.926  14.490
36527W        W 8952   3.321   1.362  12.956
36528W        W 8953  24.773   5.835   0.017
36529W        W 8954  33.291  35.414   3.644
36530W        W 8955  31.013   9.203   4.489
36531W        W 8956  16.474  44.129   4.036
36532W        W 8957  20.547   4.800   4.088
36533W        W 8958  23.580   5.354  13.877
36534W        W 8959  19.580  44.765   4.999
36535W        W 8960  37.234  28.886  10.982
36536W        W 8961  42.769  44.362   1.434
36537W        W 8962  34.057  15.723   3.191
36538W        W 8963  14.125  29.253  12.665
36539W        W 8964  16.191  13.294  11.133
36540W        W 8965  34.553  29.433   1.283
36541W        W 8966   9.205  24.461  10.699
36542W        W 8967  44.431  16.328  13.278
36543W        W 8968  39.365   7.953   2.612
36544W        W 8969  21.129  35.574  10.886
36545W        W 8970  28.694  30.621  11.244
36546W        W 8971  28.956  20.428  14.219
36547W        W 8972  40.059  21.247  10.501
36548W        W 8973  26.055  17.252  13.639
36549W        W 8974  43.327  42.003   3.150
36550W        W 8975  42.954  35.456  11.431
36551W        W 8976  28.920   8.256   1.863
36552W        W 8977  19.288   5.816  13.401
36553W        W 8978  44.059  18.780   3.389
36554W        W 8979  25.735   0.386  11.033
36555W        W 8980  30.188  39.970   2.625
36556W        W 8981  38.021  41.861  10.776
36557W        W 8982  27.437  40.506   3.597
36558W        W 8983  40.288  37.599  12.153
36559W        W 8984  17.036  38.469   2.783
36560W        W 8985  25.772   3.373  13.833
36561W        W 8986  37.684   0.791   0.602
36562W        W 8987   6.258   5.841  11.112
36563W        W 8988   4.926  29.354  12.109
36564W        W 8989  17.397   1.154   4.916
36565W        W 8990  24.661  13.020  12.019
36566W        W 8991   9.835   4.505  12.945
36567W        W 8992   8.088  19.392  11.109
36568W        W 8993  37.328  16.005  13.332
36569W        W 8994  38.002  21.785  14.894
36570W        W 8995  36.572  13.918  12.589
36571W        W 8996   1.413  34.546   4.224
36572W        W 8997  10.675  17.721  12.477
36573W        W 8998  38.245  43.389  14.449
36574W        W 8999  44.000  36.826   3.741
36575W        W 9000  44.416  16.795   2.452
36576W        W 9001  44.455  14.214  13.754
36577W        W 9002  21.298  30.195   0.456
36578W        W 9003  23.180  32.466  12.872
36579W        W 9004  42.482   3.427   0.254
36580W        W 9005  27.338  28.671  13.548
36581W        W 9006   2.914  14.656   4.251
36582W        W 9007   7.815   4.407   4.720
36583W        W 9008  17.415  18.498   5.003
36584W        W 9009  41.128  38.091  12.091
36585W        W 9010  44.328  41.961  13.114
36586W        W 9011  36.943  17.443   1.317
36587W        W 9012  11.317  19.461  14.816
36588W        W 9013  28.635  20.550  13.837
36589W        W 9014  38.394  17.738   1.805
36590W        W 9015  38.504  43.558   1.173
36591W        W 9016  17.599  15.402  13.842
36592W        W 9017  18.045  16.811   3.745
36593W        W 9018  39.605  43.491  11.526
36594W        W 9019  16.329  39.089   0.704
36595W        W 9020  28.552   3.069   2.704
36596W        W 9021  42.565  26.434   4.426
36597W        W 9022   2.715   0.768   3.383
36598W        W 9023  21.554  21.585   4.219
36599W        W 9024  42.963  14.628  13.526
36600W        W 9025  34.077  20.961  11.214
36601W        W 9026  30.921   4.018   3.434
36602W        W 9027  33.695  26.717  14.956
36603W        W 9028  40.453  23.532   3.396
36604W        W 9029  33.502  16.585   2.232
36605W        W 9030  36.647  41.907  12.144
36606W        W 9031  20.762   2.690  14.236
36607W        W 9032   6.630  17.125  11.991
36608W        W 9033  41.985  38.036   3.448
36609W        W 9034   3.229  25.674   0.708
36610W        W 9035  10.471   9.163   4.625
36611W        W 9036  22.719  18.803   2.146
36612W        W 9037  30.703   2.486   0.607
36613W        W 9038   4.463  15.036  13.836
36614W        W 9039  14.326   9.798  12.773
36615W        W 9040  31.871  21.146  11.535
36616W        W 9041  14.421  44.713   3.374
36617W        W 9042   2.408   0.660  11.559
36618W        W 9043  39.499  33.429  14.201
36619W        W 9044  27.213   5.534   1.911
36620W        W 9045  26.593  25.947   3.240
36621W        W 9046   9.783  41.509  13.473
36622W        W 9047   7.369   4.235  12.687
36623W        W 9048  19.111  43.871  14.857
36624W        W 9049  39.046  19.667   0.714
36625W        W 9050  44.873  36.414  11.507
36626W        W 9051   4.932  20.274  11.979
36627W        W 9052  21.301  30.466  10.706
36628W        W 9053  22.087  15.753  14.648
36629W        W 9054  17.129  34.389  14.858
36630W        W 9055  12.720  28.721  11.510
36631W        W 9056  12.657  19.758   3.070
36632W        W 9057   8.058   9.087   0.825
36633W        W 9058  17.111  23.994   2.166
36634W        W 9059  36.869  22.282   3.330
36635W        W 9060  43.048  24.107   1.847
36636W        W 9061  24.252   6.783   1.334
36637W        W 9062  41.687  34.441   2.347
36638W        W 9063  43.571  19.294  14.987
36639W        W 9064  17.254  26.113  13.983
36640W        W 9065  43.922  32.955  12.970
36641W        W 9066  30.961   4.867   2.600
36642W        W 9067  41.764  43.197   4.171
36643W        W 9068  22.266  41.722  12.097
36644W        W 9069  11.559  23.988   2.988
36645W        W 9070   4.309  41.817   4.831
36646W        W 9071   7.129   4.712   2.203
36647W        W 9072  29.004  14.122   3.218
36648W        W 9073  36.351   4.727  14.374
36649W        W 9074  31.433  15.657   4.622
36650W        W 9075  28.661  41.042  10.977
36651W        W 9076   9.127  22.306   3.573
36652W        W 9077  18.224  19.603  11.609
36653W        W 9078   2.267  30.682   1.327
36654W        W 9079  33.111  19.476  10.098
36655W        W 9080  13.830  26.933  12.448
36656W        W 9081   7.139  10.747  10.466
36657W        W 9082  25.196  27.950   3.193
36658W        W 9083   7.800  25.661   0.905
36659W        W 9084  12.174  28.245  14.486
36660W        W 9085  44.248  21.653   2.849
36661W        W 9086   1.706  41.464   3.700
36662W        W 9087  10.302  30.962  10.668
36663W        W 9088  29.973  25.784   0.706
36664W        W 9089  37.432  16.345   2.286
36665W        W 9090  41.058   8.401  13.424
36666W        W 9091  30.942  32.170   4.598
36667W        W 9092  35.314  42.232   3.195
36668W        W 9093  21.123  40.761   1.618
36669W        W 9094  38.738  24.158  11.177
36670W        W 9095  35.391   5.617  10.612
36671W        W 9096  42.766  10.160  11.145
36672W        W 9097  35.299  30.499   4.584
36673W        W 9098  11.871   4.778   0.613
36674W        W 9099  41.022  24.569   3.154
36675W        W 9100   1.023  37.950   4.148
36676W        W 9101  42.583  43.931  12.883
36677W        W 9102   7.211  18.212  11.518
36678W        W 9103   6.678   7.603   3.700
36679W        W 9104  34.438  30.214   1.816
36680W        W 9105  34.313  12.225  10.792
36681W        W 9106  35.819   7.712  13.643
36682W        W 9107  30.909  17.094   4.614
36683W        W 9108  15.866  24.769  11.171
36684W        W 9109  31.049  22.683  13.378
36685W        W 9110  22.692  33.349   0.011
36686W        W 9111  33.510  34.470   2.819
36687W        W 9112  19.289  26.547  14.560
36688W        W 9113  17.265  22.224  12.794
36689W        W 9114  26.494  18.395   1.262
36690W        W 9115  22.604  32.482  13.385
36691W        W 9116  30.540  36.875  12.979
36692W        W 9117  35.482  27.748   3.890
36693W        W 9118  14.422  16.510  11.964
36694W        W 9119  43.283  13.908  10.649
36695W        W 9120  23.571  40.378  11.042
36696W        W 9121  16.987  28.278   3.157
36697W        W 9122   3.955  39.466   4.049
36698W        W 9123   3.033   5.032   3.076
36699W        W 9124  29.462  12.396   1.792
36700W        W 9125  38.250  41.274  14.890
36701W        W 9126  11.191  11.805   2.358
36702W        W 9127  42.798  24.052  10.809
36703W        W 9128  40.582  21.768  10.867
36704W        W 9129  34.668  20.673  11.861
36705W        W 9130  41.748  23.158   2.239
36706W        W 9131  34.607  41.419   4.546
36707W        W 9132  14.138  29.545  14.607
36708W        W 9133  14.779  25.835   2.528
36709W        W 9134  44.371  26.120   0.147
36710W        W 9135  27.664  40.007  13.879
36711W        W 9136  40.750  43.791   2.334
36712W        W 9137  13.161   7.292   1.988
36713W        W 9138  43.639  30.909   0.791
36714W        W 9139  44.371  34.219  11.497
36715W        W 9140  34.922  41.777  12.516
36716W        W 9141  16.021  35.656   4.755
36717W        W 9142   2.222  24.062  10.449
36718W        W 9143   4.956  44.148   0.865
36719W        W 9144  28.551   9.321  12.913
36720W        W 9145  11.046  35.337   0.924
36721W        W 9146  27.716   6.775  14.836
36722W        W 9147  43.344  30.054  10.659
36723W        W 9148  23.144  10.068  13.460
36724W        W 9149  31.738  26.525  12.795
36725W        W 9150   0.634  11.898  11.973
36726W        W 9151  31.862   5.540   4.005
36727W        W 9152  28.971  26.296   1.384
36728W        W 9153  20.527  39.426  12.110
36729W        W 9154   1.746  10.111   1.250
36730W        W 9155  35.600  39.264  12.896
36731W        W 9156  42.240   6.147  12.015
36732W        W 9157  42.508  41.208   1.657
36733W        W 9158  13.412  17.485   0.908
36734W        W 9159  37.335  30.399   3.181
36735W        W 9160  11.679  11.950   3.093
36736W        W 9161  24.991  29.413   4.926
36737W        W 9162  33.670  26.423  14.388
36738W        W 9163  10.314  24.352  11.872
36739W        W 9164   1.794   2.778  11.433
36740W        W 9165  23.323   4.998  14.744
36741W        W 9166  43.444  14.180   3.707
36742W        W 9167  31.358  36.052   1.206
36743W        W 9168   8.616  21.450  11.720
36744W        W 9169  41.751  30.283  14.848
36745W        W 9170  16.500   9.965   3.698
36746W        W 9171  25.939  38.311   0.219
36747W        W 9172  16.309  42.350  12.584
36748W        W 9173  18.813   0.506   1.313
36749W        W 9174  19.663   2.195  12.869
36750W        W 9175  18.242  22.332   4.077
36751W        W 9176  20.515  12.167  12.961
36752W        W 9177  22.652  20.862   3.136
36753W        W 9178  27.752  34.164  14.470
36754W        W 9179  43.351  43.743  13.922
36755W        W 9180  39.980  30.868  11.910
36756W        W 9181  25.040  10.315  13.906
36757W        W 9182   1.917   6.802   2.288
36758W        W 9183  25.352  24.706  12.655
36759W        W 9184  34.459  25.805   2.271
36760W        W 9185   5.349   8.239  11.204
36761W        W 9186  27.987  35.591   1.681
36762W        W 9187  23.717   1.939  13.996
36763W        W 9188  33.614  39.585  14.524
36764W        W 9189   9.856  25.675   3.085
36765W        W 9190   4.395  15.557  13.807
36766W        W 9191  10.436   4.335   4.777
36767W        W 9192  44.860  35.434  13.663
36768W        W 9193  19.573  22.204   3.333
36769W        W 9194  24.650  25.132  11.389
36770W        W 9195  39.587  36.563  13.298
36771W        W 9196   3.862   1.855   3.668
36772W        W 9197   1.452  32.672   4.821
36773W        W 9198   0.284  27.355  10.752
36774W        W 9199  40.062  21.192  11.930
36775W        W 9200   9.683  38.095  12.575
36776W        W 9201  40.787  13.697   2.829
36777W        W 9202   1.331  26.437   2.787
36778W        W 9203   5.319   3.256   0.801
36779W        W 9204  29.062  13.353  13.934
36780W        W 9205  10.924  41.974  10.693
36781W        W 9206  16.225  27.117  12.091
36782W        W 9207  34.889  10.455   0.966
36783W        W 9208  43.275  27.847  10.146
36784W        W 9209  26.564   6.759   0.930
36785W        W 9210  27.811  22.051  12.782
36786W        W 9211   0.015  17.113  12.507
36787W        W 9212  36.300   6.964   3.673
36788W        W 9213   1.732  36.484   1.244
36789W        W 9214   2.444  12.386   1.778
36790W        W 9215  39.010  10.012  11.892
36791W        W 9216  27.627  18.682   0.013
36792W        W 9217  34.964  36.172   2.169
36793W        W 9218  18.597  40.911   3.158
36794W        W 9219  12.129   0.727   4.266
36795W        W 9220   7.241  43.232  12.771
36796W        W 9221  13.765  33.758   4.575
36797W        W 9222  30.174  15.133   3.758
36798W        W 9223  34.496  23.400   0.424
36799W        W 9224  17.655  30.767  10.173
36800W        W 9225  30.859   8.824   0.471
36801W        W 9226   4.788   2.130   2.699
36802W        W 9227  16.571  36.510  14.803
36803W        W 9228  39.946  42.366  12.148
36804W        W 9229  28.090  14.228  10.662
36805W        W 9230  39.595  36.340   1.426
36806W        W 9231  14.687  26.479   3.245
36807W        W 9232  29.571  14.122  13.155
36808W        W 9233  16.307   5.263  13.510
36809W        W 9234  35.942  14.225  11.007
36810W        W 9235  23.680  26.327   1.935
36811W        W 9236  30.311   2.762   2.693
36812W        W 9237  24.683   0.786  10.681
36813W        W 9238  35.690  27.024   4.646
36814W        W 9239  30.868  10.690  12.021
36815W        W 9240  12.117   6.733  13.526
36816W        W 9241  19.734  22.679  13.056
36817W        W 9242  26.671   3.280   1.814
36818W        W 9243  31.221  13.644  14.206
36819W        W 9244  11.056  30.560  11.236
36820W        W 9245  28.497  17.663   3.855
36821W        W 9246  21.827   0.793   2.200
36822W        W 9247   7.607  41.026   1.370
36823W        W 9248  42.397  29.869  11.134
36824W        W 9249   1.310  17.590  12.106
36825W        W 9250   8.357   4.708   0.048
36826W        W 9251  18.562  41.904   0.752
36827W        W 9252   0.213  28.894   4.150
36828W        W 9253   1.382  40.249  12.650
36829W        W 9254  23.100  16.997   2.319
36830W        W 9255   0.352  40.448   2.814
36831W        W 9256  30.096  39.888  14.586
36832W        W 9257  10.192   8.521  10.238
36833W        W 9258   8.934  22.981   4.589
36834W        W 9259  36.531  15.254  12.686
36835W        W 9260  28.623  18.612  14.027
36836W        W 9261  37.379  14.182  11.671
36837W        W 9262  38.418  20.953   3.340
36838W        W 9263   0.422  21.536   3.257
36839W        W 9264  38.253  29.523  11.430
36840W        W 9265  29.375  32.368  12.437
36841W        W 9266  33.369  22.730   3.180
36842W        W 9267  14.035  39.504  12.013
36843W        W 9268   0.542  37.911   2.713
36844W        W 9269   7.963  15.275  14.343
36845W        W 9270   1.673  42.985  11.324
36846W        W 9271   2.876   3.294   0.994
36847W        W 9272  10.675  35.423  14.542
36848W        W 9273  11.172  34.406  12.398
36849W        W 9274  41.950  33.388  12.061
36850W        W 9275  23.231   3.990   1.924
36851W        W 9276   9.081  21.076   4.169
36852W        W 9277  40.147  41.010  11.033
36853W        W 9278  30.178  11.352  13.021
36854W        W 9279   4.917   9.661   1.211
36855W        W 9280   1.392   6.630   2.391
36856W        W 9281  27.120  15.317  13.937
36857W        W 9282  26.335  33.978   1.127
36858W        W 9283  12.548  44.715  13.070
36859W        W 9284   0.464  17.616   3.728
36860W        W 9285  42.827  35.465   3.281
36861W        W 9286  17.781  28.117  13.061
36862W        W 9287  11.842  28.628   1.186
36863W        W 9288  30.517  29.620   3.377
36864W        W 9289  24.960  14.148  14.730
36865W        W 9290  22.503  38.570  13.525
36866W        W 9291  16.880  39.330  13.427
36867W        W 9292  22.606  14.101   2.749
36868W        W 9293  36.929  31.377   0.387
36869W        W 9294   9.998   3.804  10.374
36870W        W 9295  39.692  21.256  14.364
36871W        W 9296   2.893  19.031   3.160
36872W        W 9297   6.176   3.136  13.947
36873W        W 9298  20.422   0.745  12.088
36874W        W 9299  41.437  32.521  11.371
36875W        W 9300  28.653  28.112   0.302
36876W        W 9301  30.626   2.155  13.077
36877W        W 9302  15.355  30.775  10.557
36878W        W 9303  11.033  15.591  13.931
36879W        W 9304  19.147  30.879   4.076
36880W        W 9305  37.945  30.885  14.497
36881W        W 9306  33.869  27.949   0.867
36882W        W 9307  38.812  28.427  14.210
36883W        W 9308  23.937  33.660  10.214
36884W        W 9309  35.409  20.006  14.877
36885W        W 9310  12.190  35.383   2.892
36886W        W 9311  35.817  23.316   3.743
36887W        W 9312  39.700  23.162   1.929
36888W        W 9313  20.946  28.808  14.756
36889W        W 9314  18.711  38.754   3.044
36890W        W 9315  25.461  35.152   0.311
36891W        W 9316  12.278  27.415  14.865
36892W        W 9317  41.132   3.492  14.280
36893W        W 9318  32.596   2.282   0.834
36894W        W 9319   3.773  25.575   3.222
36895W        W 9320  11.625  34.227   1.462
36896W        W 9321   4.021  33.492  11.636
36897W        W 9322  12.354  39.779   2.584
36898W        W 9323  15.823  28.296   3.778
36899W        W 9324  39.039  42.019   0.784
36900W        W 9325  32.121   5.402  11.165
36901W        W 9326  24.639   9.283   3.750
36902W        W 9327  42.948  36.688  13.795
36903W        W 9328  36.324  15.488  13.543
36904W        W 9329  43.125  26.496   0.173
36905W        W 9330   7.692   3.917  12.411
36906W        W 9331  17.564  36.989  13.381
36907W        W 9332  20.797  36.439  12.472
36908W        W 9333  32.068  21.190   4.356
36909W        W 9334  24.976  27.496  14.953
36910W        W 9335  31.693   7.918   4.077
36911W        W 9336  36.104  24.351   1.168
36912W        W 9337  24.177  14.653  12.093
36913W        W 9338  18.011  40.658  14.992
36914W        W 9339  23.572  30.042  13.458
36915W        W 9340  14.389  32.847   1.675
36916W        W 9341  43.915   9.825  10.327
36917W        W 9342  33.428   8.741  10.206
36918W        W 9343  33.545  37.801  11.622
36919W        W 9344   8.222  43.257   3.860
36920W        W 9345  37.775  12.590  12.155
36921W        W 9346  30.171  42.250   3.633
36922W        W 9347   6.978  10.826   4.296
36923W        W 9348   7.747  27.970  12.081
36924W        W 9349   8.889  34.179   0.236
36925W        W 9350   7.617  26.576  14.322
36926W        W 9351  40.336  42.787  14.738
36927W        W 9352  20.949  31.480  10.661
36928W        W 9353  14.324  36.397   2.306
36929W        W 9354  15.146  23.996  10.432
36930W        W 9355  36.912  21.040  12.240
36931W        W 9356  34.330  33.562   4.310
36932W        W 9357   3.467  30.352  13.885
36933W        W 9358  41.469  28.645   2.374
36934W        W 9359  31.682  40.335   1.049
36935W        W 9360  10.785  29.667  12.517
36936W        W 9361   3.109  37.608  14.347
36937W        W 9362  24.491   0.797   3.630
36938W        W 9363  29.632  27.785   1.729
36939W        W 9364  24.298  13.595   0.845
36940W        W 9365  41.927  44.819  10.977
36941W        W 9366  32.621  26.231  12.839
36942W        W 9367  42.328  29.439   1.727
36943W        W 9368  33.940  29.578   3.944
36944W        W 9369   0.005  13.750   1.464
36945W        W 9370   9.306   0.402  14.880
36946W        W 9371  14.822  13.648  14.875
36947W        W 9372  25.902  18.800   4.606
36948W        W 9373  42.832   2.364   3.137
36949W        W 9374   7.245  36.936  13.031
36950W        W 9375  18.276  25.997  12.653
36951W        W 9376  28.640   6.684  10.811
36952W        W 9377  10.433  22.892  14.535
36953W        W 9378  13.533  36.597  12.688
36954W        W 9379  32.379  44.387   3.246
36955W        W 9380   9.867  37.009  12.609
36956W        W 9381  27.619  21.227   4.192
36957W        W 9382  35.153  24.129   1.440
36958W        W 9383  26.687  24.186   0.727
36959W        W 9384  40.814   4.210  14.816
36960W        W 9385  18.176  11.822  14.091
36961W        W 9386   9.498  26.481   2.422
36962W        W 9387   6.813   0.893   0.815
36963W        W 9388  32.220  33.003   1.791
36964W        W 9389   7.696  24.292  10.802
36965W        W 9390  39.384  12.953   2.179
36966W        W 9391  14.800  29.653  12.593
36967W        W 9392   8.139  39.376  11.471
36968W        W 9393  14.534  28.291  10.308
36969W        W 9394  31.542  16.834   3.823
36970W        W 9395  20.035  13.831  12.872
36971W        W 9396  13.073   8.456  11.175
36972W        W 9397  19.122  19.564  14.793
36973W        W 9398  11.918  42.510  14.852
36974W        W 9399  38.487  36.434  11.504
36975W        W 9400  41.313  18.182   0.428
36976W        W 9401  40.287  22.196  11.140
36977W        W 9402   1.352  19.007   3.868
36978W        W 9403  23.215  34.165   3.705
36979W        W 9404  29.576  28.886  12.630
36980W        W 9405  30.541  13.147  14.993
36981W        W 9406  27.567  30.563   1.170
36982W        W 9407  18.210  24.519  12.653
36983W        W 9408   9.704   2.146   2.690
36984W        W 9409  35.631  29.933   0.688
36985W        W 9410   5.803  42.969  11.629
36986W        W 9411  18.627  38.252  12.596
36987W        W 9412  18.294  42.042  12.861
36988W        W 9413   1.059  41.032   1.713
36989W        W 9414  18.275   9.216  11.572
36990W        W 9415  31.653   7.872   3.218
36991W        W 9416  11.392   0.877   0.435
36992W        W 9417  31.718  44.343  11.571
36993W        W 9418  32.387  43.929  13.934
36994W        W 9419  11.626  25.166  10.956
36995W        W 9420   3.783  28.423   2.633
36996W        W 9421  15.890  11.420   3.347
36997W        W 9422  41.720  26.193   3.201
36998W        W 9423  21.300  28.220  11.579
36999W        W 9424   2.379   4.668  11.709
37000W        W 9425  33.194  40.195  11.619
37001W        W 9426  43.256  27.945   0.557
37002W        W 9427  39.082  34.055  12.550
37003W        W 9428  38.916   6.444   3.518
37004W        W 9429  13.760   7.332   3.207
37005W        W 9430  37.439  21.993   2.144
37006W        W 9431  10.691  27.187   4.431
37007W        W 9432  24.265  31.602   2.682
37008W        W 9433   6.312   2.798  12.640
37009W        W 9434  36.865  15.552   4.593
37010W        W 9435  41.360   8.584  13.791
37011W        W 9436  36.564   1.312  11.485
37012W        W 9437   2.841  15.614   4.405
37013W        W 9438  14.267   5.978   3.735
37014W        W 9439  30.592  37.415   1.352
37015W        W 9440  41.494  32.084  13.554
37016W        W 9441  20.962  17.858   4.448
37017W        W 9442  11.883   2.877  13.983
37018W        W 9443  15.221  37.575   2.156
37019W        W 9444   8.234  17.761  11.891
37020W        W 9445  42.758  30.992  14.029
37021W        W 9446  27.955  14.544   2.238
37022W        W 9447  41.511  21.264  11.452
37023W        W 9448  14.591  16.315   2.032
37024W        W 9449  34.043  13.340  10.834
37025W        W 9450  38.373  17.245   1.225
37026W        W 9451  13.242   4.736   4.820
37027W        W 9452   7.845  17.824   2.817
37028W        W 9453  10.523  33.557  14.958
37029W        W 9454   5.409  43.048  13.054
37030W        W 9455  37.483   3.727  13.913
37031W        W 9456  16.082  29.458   2.228
37032W        W 9457  42.102  20.242   2.413
37033W        W 9458  28.248  21.518   2.343
37034W        W 9459  40.010  26.185   1.799
37035W        W 9460  22.512  42.786   2.510
37036W        W 9461  23.080   0.895   0.481
37037W        W 9462  40.883  10.839  11.986
37038W        W 9463  36.952   3.512  11.600
37039W        W 9464  29.599  12.281  10.568
37040W        W 9465  30.904   6.405   2.778
37041W        W 9466  18.627  29.992  10.141
37042W        W 9467  28.196  28.822   4.783
37043W        W 9468  44.105  19.281  14.963
37044W        W 9469   4.433  31.949  11.610
37045W        W 9470  33.862  16.144  12.053
37046W        W 9471  12.101   2.410   3.385
37047W        W 9472  24.799  14.454   1.873
37048W        W 9473  21.329  36.971   2.964
37049W        W 9474  17.941  11.547  14.957
37050W        W 9475  18.241   7.669  13.866
37051W        W 9476  38.342  10.960   4.555
37052W        W 9477   9.854  19.952  14.475
37053W        W 9478  13.711   7.701  14.099
37054W        W 9479  18.813  30.021  11.590
37055W        W 9480  34.713  24.570   2.666
37056W        W 9481  20.002   1.051   1.721
37057W        W 9482   8.488   5.652  14.935
37058W        W 9483  31.388  13.218  14.823
37059W        W 9484  24.298  42.017   0.752
37060W        W 9485  18.454  14.858   3.193
37061W        W 9486  27.009  43.369   0.612
37062W        W 9487  40.605  19.134  12.972
37063W        W 9488   8.158  25.153   3.914
37064W        W 9489  33.983  19.326   1.983
37065W        W 9490  36.115  30.146  11.154
37066W        W 9491  41.281  33.467  13.147
37067W        W 9492  38.350  16.043   1.799
37068W        W 9493   8.276  20.248   2.844
37069W        W 9494   3.246  21.975  14.290
37070W        W 9495   3.922  21.634  13.331
37071W        W 9496   7.834   1.806   5.005
37072W        W 9497   6.674   2.801  13.003
37073W        W 9498  36.049  19.495   3.939
37074W        W 9499  19.188   6.557   3.365
37075W        W 9500   8.172  23.151   3.193
37076W        W 9501   5.811  23.736   2.710
37077W        W 9502  27.060  17.991  14.403
37078W        W 9503  21.643  30.059  10.583
37079W        W 9504   8.794  44.708   3.781
37080W        W 9505   0.346  39.580   3.149
37081W        W 9506  43.385   2.341   2.585
37082W        W 9507  30.518  19.154  12.112
37083W        W 9508  16.265  29.606  14.769
37084W        W 9509   4.223  24.492  13.767
37085W        W 9510  36.901  44.162   0.794
37086W        W 9511  39.079  37.477   4.097
37087W        W 9512  43.597   2.780  11.651
37088W        W 9513   9.006  20.483   0.224
37089W        W 9514  26.066   3.860  11.657
37090W        W 9515  29.941  20.244  11.244
37091W        W 9516  15.638  22.629   0.376
37092W        W 9517  28.156  36.092   0.373
37093W        W 9518  18.365  10.708  13.506
37094W        W 9519   4.547   3.660   5.061
37095W        W 9520  42.970  10.841  14.488
37096W        W 9521   0.205  14.647   3.751
37097W        W 9522  23.728  30.509  11.127
37098W        W 9523  40.500   9.278   2.118
37099W        W 9524  18.031  40.637  12.177
37100W        W 9525   8.665  22.271  10.766
37101W        W 9526  40.666  24.103  13.949
37102W        W 9527  23.719  18.705  14.423
37103W        W 9528  14.882  43.775   4.843
37104W        W 9529   2.634  40.761   2.844
37105W        W 9530  28.892  12.167  13.334
37106W        W 9531  26.858   7.912   2.508
37107W        W 9532   1.569  33.867  14.986
37108W        W 9533  14.426   8.738   2.612
37109W        W 9534  30.121   5.251  12.179
37110W        W 9535  42.920  35.407  14.271
37111W        W 9536   6.130  29.551   4.994
37112W        W 9537  25.920  31.201   5.520
37113W        W 9538  11.332  38.848   0.895
37114W        W 9539  38.734  43.664   4.529
37115W        W 9540  38.941  22.659  12.972
37116W        W 9541  11.891  31.334   2.650
37117W        W 9542   6.202  42.130  10.693
37118W        W 9543   3.885  22.964  11.256
37119W        W 9544   5.729  26.862   2.491
37120W        W 9545  20.710  23.469   0.765
37121W        W 9546  19.930  18.620  12.505
37122W        W 9547   7.459  27.988  12.505
37123W        W 9548  16.012   9.753  12.573
37124W        W 9549  34.881   4.215   3.561
37125W        W 9550  15.752  35.440   5.346
37126W        W 9551  31.104  19.483  11.528
37127W        W 9552  41.072  18.050   1.776
37128W        W 9553  16.198  38.634   4.075
37129W        W 9554   6.823  36.840  13.384
37130W        W 9555  29.014  27.591  10.958
37131W        W 9556  15.193  14.930   0.304
37132W        W 9557   6.448  18.390  12.127
37133W        W 9558  28.480  35.458   2.257
37134W        W 9559   1.112  30.925   3.580
37135W        W 9560   6.681   2.045   1.442
37136W        W 9561  42.809   1.401   0.768
37137W        W 9562  26.633  24.955   3.203
37138W        W 9563  14.144  15.702   2.737
37139W        W 9564  33.559  42.910  11.872
37140W        W 9565  33.355  40.413   1.313
37141W        W 9566  38.781  36.463   4.713
37142W        W 9567   9.637   9.319  11.927
37143W        W 9568  28.743  27.877  14.543
37144W        W 9569  42.010   8.615   0.713
37145W        W 9570  37.843  31.595  13.794
37146W        W 9571  37.626   8.639   1.266
37147W        W 9572   8.616   4.155   1.251
37148W        W 9573  26.463  26.667  10.779
37149W        W 9574  37.442   9.669   4.362
37150W        W 9575  38.907  23.649   1.690
37151W        W 9576  18.123  26.936   2.945
37152W        W 9577  33.449   5.799  10.493
37153W        W 9578   9.987  29.771   2.825
37154W        W 9579  33.122  18.690   4.965
37155W        W 9580  10.131  39.217  10.718
37156W        W 9581  32.083  35.611   4.683
37157W        W 9582  44.426  35.713   3.357
37158W        W 9583   0.791  23.705  13.884
37159W        W 9584  44.465  32.059   2.197
37160W        W 9585   7.702   6.293   0.688
37161W        W 9586  41.677  14.227   3.083
37162W        W 9587   1.899  27.427  14.409
37163W        W 9588  34.353  30.137  11.511
37164W        W 9589  29.898  10.807   3.340
37165W        W 9590  19.691   8.203  14.807
37166W        W 9591  35.663  41.238   1.791
37167W        W 9592  35.547  31.533   4.522
37168W        W 9593  16.840  34.103  11.060
37169W        W 9594   6.836  37.023  10.216
37170W        W 9595  36.638   3.880  14.821
37171W        W 9596   1.046  17.405  13.346
37172W        W 9597   4.969  21.795   0.746
37173W        W 9598  13.309  35.834   5.029
37174W        W 9599  37.149   6.628   1.823
37175W        W 9600   0.372  31.123  13.385
37176W        W 9601  32.910  23.101  13.591
37177W        W 9602  24.546  35.822  13.870
37178W        W 9603   4.441  20.335   1.750
37179W        W 9604   0.346  30.952   2.437
37180W        W 9605  32.526  12.864  12.963
37181W        W 9606   9.932  44.045   1.366
37182W        W 9607  21.882  43.944  12.478
37183W        W 9608  44.474  31.211  11.658
37184W        W 9609  15.677   4.788   0.114
37185W        W 9610  17.699  23.342   0.685
37186W        W 9611  36.598  11.692  13.590
37187W        W 9612  34.392   5.459   1.967
37188W        W 9613  23.198   3.217  14.925
37189W        W 9614  33.393  14.635  13.983
37190W        W 9615  40.493  35.613  12.371
37191W        W 9616  37.155   9.682   2.058
37192W        W 9617  41.463  34.325  12.961
37193W        W 9618  15.860  16.184   3.648
37194W        W 9619  11.708  27.062  10.694
37195W        W 9620  12.780  38.120  13.429
37196W        W 9621   6.205  10.833   3.705
37197W        W 9622  32.014   3.304   3.753
37198W        W 9623  16.101  26.693   4.555
37199W        W 9624  43.001   6.177   3.219
37200W        W 9625  26.756  36.457   3.903
37201W        W 9626  32.140  42.292  11.106
37202W        W 9627   1.453  10.884  13.131
37203W        W 9628  11.385   0.483  12.522
37204W        W 9629   3.241  13.231  14.826
37205W        W 9630  11.346  42.605   3.715
37206W        W 9631  16.627  38.873  13.573
37207W        W 9632  39.292  12.053  11.631
37208W        W 9633   4.712  35.957  12.857
37209W        W 9634  22.048  33.915   4.357
37210W        W 9635  38.392  18.604  10.662
37211W        W 9636  32.524   8.410   4.149
37212W        W 9637   1.372  21.475  14.963
37213W        W 9638  10.739   2.949  11.051
37214W        W 9639   4.448  44.477  13.935
37215W        W 9640  43.989  18.998  13.850
37216W        W 9641  10.045  20.492  11.556
37217W        W 9642  35.339  12.045   0.481
37218W        W 9643  20.761  42.935   1.325
37219W        W 9644  27.158  26.187  14.557
37220W        W 9645   3.742  32.418  14.194
37221W        W 9646  36.365  20.441  14.050
37222W        W 9647   4.997  16.618   2.665
37223W        W 9648   3.280   8.131  10.818
37224W        W 9649  29.317  14.587   0.338
37225W        W 9650   9.415  26.816   4.591
37226W        W 9651  35.301  29.131  12.481
37227W        W 9652  22.079  27.544  12.897
37228W        W 9653   4.948  29.898   3.154
37229W        W 9654  24.556  36.452   0.252
37230W        W 9655  23.554  38.005  14.564
37231W        W 9656  10.640  39.937   4.601
37232W        W 9657  33.684   8.841   3.696
37233W        W 9658  15.925  32.502   2.815
37234W        W 9659  21.004  11.740   3.213
37235W        W 9660  12.236  22.250   3.823
37236W        W 9661  33.949  26.264  13.541
37237W        W 9662  42.462  38.132   3.641
37238W        W 9663  25.189  17.914  12.798
37239W        W 9664  15.609  42.373  10.165
37240W        W 9665  10.489  39.268   9.934
37241W        W 9666  22.397  28.733  14.121
37242W        W 9667  16.819   1.967  13.095
37243W        W 9668  44.470  33.441  12.994
37244W        W 9669  24.335   4.979   2.893
37245W        W 9670  44.016   3.900   0.421
37246W        W 9671  27.565  28.151   1.947
37247W        W 9672  29.260   7.527   0.499
37248W        W 9673  28.542  39.787   4.520
37249W        W 9674  40.449   3.929   3.857
37250W        W 9675   4.181  37.381   3.821
37251W        W 9676  10.204  30.102  10.888
37252W        W 9677  11.159  10.250  11.569
37253W        W 9678  33.462   6.421   2.894
37254W        W 9679  11.434  20.024   2.282
37255W        W 9680  38.897  26.674   1.669
37256W        W 9681  29.710  35.394   4.340
37257W        W 9682  19.763  21.273  13.866
37258W        W 9683  12.119  41.248  12.786
37259W        W 9684  22.826   9.489   0.061
37260W        W 9685  42.328  40.057   0.675
37261W        W 9686  25.693  36.772   3.619
37262W        W 9687  28.139  13.542  13.115
37263W        W 9688   2.030  21.659  13.492
37264W        W 9689  39.324   8.684   4.115
37265W        W 9690  28.637  35.459  12.568
37266W        W 9691  10.338  35.859   2.883
37267W        W 9692   6.684  28.936   2.646
37268W        W 9693  38.128   6.596  14.451
37269W        W 9694  19.658  21.122   0.935
37270W        W 9695   2.544  11.489  10.258
37271W        W 9696  43.222  18.316  11.890
37272W        W 9697  30.913   7.860   2.793
37273W        W 9698  44.297  34.992   0.680
37274W        W 9699  43.929  36.390   3.995
37275W        W 9700   5.225  11.447  13.841
37276W        W 9701  20.114  32.833  11.519
37277W        W 9702  22.172  38.169  12.943
37278W        W 9703  19.912  39.825  13.618
37279W        W 9704  43.149   7.174  12.525
37280W        W 9705   5.962  35.973  14.196
37281W        W 9706  25.035   5.288   0.868
37282W        W 9707  25.199  19.689  13.747
37283W        W 9708  31.657  32.111   1.769
37284W        W 9709  40.363  28.173   1.808
37285W        W 9710  20.134  15.852   5.146
37286W        W 9711  10.381   9.630   3.779
37287W        W 9712   7.751  18.225   4.884
37288W        W 9713  30.084   1.970   0.316
37289W        W 9714   0.196  17.733  12.432
37290W        W 9715  21.033  43.354   4.788
37291W        W 9716  22.060  31.470   1.753
37292W        W 9717   7.943   6.819   9.876
37293W        W 9718  37.907  10.109   3.114
37294W        W 9719  11.096  18.001  12.620
37295W        W 9720   9.834  13.878   2.768
37296W        W 9721   1.105   5.397  11.100
37297W        W 9722  18.595   5.885  11.408
37298W        W 9723  32.511  33.066   3.068
37299W        W 9724  33.837  31.687   0.378
37300W        W 9725  35.445  27.934   3.370
37301W        W 9726   7.189  12.111  11.582
37302W        W 9727  34.006  34.471   2.606
37303W        W 9728  19.310   9.108  12.533
37304W        W 9729  37.919  42.091  11.241
37305W        W 9730   1.747  30.118  14.514
37306W        W 9731  41.210  23.893  11.987
37307W        W 9732   8.968  23.138   1.823
37308W        W 9733   8.354  42.846  13.836
37309W        W 9734  13.206  20.723   2.790
37310W        W 9735  31.437  13.816  12.370
37311W        W 9736  10.475   2.660  11.598
37312W        W 9737  29.215  31.181  12.578
37313W        W 9738  16.790  16.565  14.367
37314W        W 9739  22.701  14.118   0.182
37315W        W 9740  10.211   3.374  11.599
37316W        W 9741   3.184  10.807   0.989
37317W        W 9742   2.924  24.312   2.348
37318W        W 9743  13.082  36.638  13.978
37319W        W 9744  40.877  23.232   3.306
37320W        W 9745  38.059  36.981  13.616
37321W        W 9746  13.545  23.323  10.451
37322W        W 9747   5.199  24.997  13.027
37323W        W 9748  21.122  34.806  14.481
37324W        W 9749   6.249  23.927  12.489
37325W        W 9750  28.793  12.670  11.510
37326W        W 9751  26.436  40.179  14.356
37327W        W 9752  18.271   8.341  12.564
37328W        W 9753  19.172  41.565  10.750
37329W        W 9754  37.088   5.220  14.756
37330W        W 9755  37.835  32.896  13.179
37331W        W 9756  13.368  12.676  10.322
37332W        W 9757  21.941   7.457   3.353
37333W        W 9758  31.073  42.326  12.534
37334W        W 9759   4.366  18.772   1.948
37335W        W 9760  21.630  33.613  10.334
37336W        W 9761  19.663  28.917   3.815
37337W        W 9762  40.729  40.067   3.370
37338W        W 9763  43.182   2.915   4.784
37339W        W 9764   8.323   4.426   4.618
37340W        W 9765  38.012   4.723  14.011
37341W        W 9766  40.949  13.582   0.707
37342W        W 9767  38.502  29.092  11.576
37343W        W 9768   5.664  44.938  12.309
37344W        W 9769  43.350  34.220  13.045
37345W        W 9770  43.755  38.112  12.358
37346W        W 9771  18.531  24.650   3.664
37347W        W 9772  28.490  38.879   1.780
37348W        W 9773   8.751  44.309  12.606
37349W        W 9774  38.346   6.980  13.771
37350W        W 9775  39.536  31.630  11.756
37351W        W 9776   8.664  25.732  10.632
37352W        W 9777  15.350  39.253   3.848
37353W        W 9778  22.075   2.795  13.694
37354W        W 9779   6.432  19.807   1.702
37355W        W 9780  32.640  15.680   1.973
37356W        W 9781   3.881  30.754  11.936
37357W        W 9782  35.531  40.862   4.161
37358W        W 9783  39.845  16.819   2.851
37359W        W 9784  28.348   9.230  14.945
37360W        W 9785  15.489  27.047  14.647
37361W        W 9786  18.758   9.881  13.336
37362W        W 9787  35.100   8.910   4.090
37363W        W 9788  25.785  13.674  14.952
37364W        W 9789  13.511  34.899  12.117
37365W        W 9790   6.315  26.963  12.024
37366W        W 9791  30.611  24.127  14.975
37367W        W 9792   5.964   0.683  11.963
37368W        W 9793  37.866  17.656   4.629
37369W        W 9794  39.855   0.489   0.441
37370W        W 9795  29.402  16.008   0.457
37371W        W 9796  10.412  40.254   2.276
37372W        W 9797   2.026  28.490   4.833
37373W        W 9798  29.115  28.806   4.776
37374W        W 9799   4.892   8.361   1.432
37375W        W 9800   0.512  16.675   1.687
37376W        W 9801  22.581  27.406  11.548
37377W        W 9802   9.907   3.502  11.192
37378W        W 9803  25.907  42.950   0.196
37379W        W 9804  33.897  25.964  14.507
37380W        W 9805   8.761   5.104   1.258
37381W        W 9806  39.467   7.907  11.840
37382W        W 9807  29.315   0.641   1.188
37383W        W 9808  20.690  35.838   2.268
37384W        W 9809  15.283  26.110   0.451
37385W        W 9810   7.172   4.772  14.478
37386W        W 9811  18.681  21.926   3.617
37387W        W 9812  38.525  13.324   0.735
37388W        W 9813  43.907  28.322  10.943
37389W        W 9814   3.267  26.706   0.863
37390W        W 9815  17.861  32.240  13.585
37391W        W 9816  12.122  20.388  10.770
37392W        W 9817  23.615  38.574   0.505
37393W        W 9818   3.689  10.815   3.548
37394W        W 9819  39.192   4.294   3.649
37395W        W 9820   9.338  26.966   4.098
37396W        W 9821  17.536  41.946   3.963
37397W        W 9822  43.395   8.023   4.209
37398W        W 9823  43.174  31.920  13.630
37399W        W 9824  25.669  12.737   4.522
37400W        W 9825   8.895  19.127  13.274
37401W        W 9826   8.221  31.114  13.454
37402W        W 9827  15.074  44.501  12.451
37403W        W 9828  39.415  36.931  14.400
37404W        W 9829  13.301  34.813  11.088
37405W        W 9830  43.553  44.780  11.082
37406W        W 9831  30.570  35.171  13.468
37407W        W 9832   2.679  14.157  11.485
37408W        W 9833  15.227  33.127   4.240
37409W        W 9834  13.274  40.554   0.777
37410W        W 9835   6.399  31.507   2.441
37411W        W 9836  16.719   1.580  11.075
37412W        W 9837   1.524  28.613   2.782
37413W        W 9838  30.699  12.258  12.912
37414W        W 9839  34.605  17.742   4.882
37415W        W 9840  15.718  21.242   0.033
37416W        W 9841  32.387  28.773  12.079
37417W        W 9842   3.143   5.744  10.614
37418W        W 9843  25.065   1.972   2.488
37419W        W 9844   0.740  21.138  13.127
37420W        W 9845  23.689  10.617   5.581
37421W        W 9846  23.274  21.882  14.537
37422W        W 9847   6.244  23.054   2.635
37423W        W 9848  12.281  35.558  13.787
37424W        W 9849  15.675  33.138   3.270
37425W        W 9850  14.682  24.085   1.916
37426W        W 9851   1.052  16.684   1.706
37427W        W 9852  12.241   1.274   1.231
37428W        W 9853  31.947  23.205  12.229
37429W        W 9854  12.105  28.440   4.905
37430W        W 9855  13.783  22.773   3.191
37431W        W 9856   0.416  14.240  14.355
37432W        W 9857  41.791  36.528  11.963
37433W        W 9858  26.036   7.125  13.513
37434W        W 9859   1.435  37.337  14.802
37435W        W 9860  28.197  12.042   3.320
37436W        W 9861  16.714  26.886  14.695
37437W        W 9862  40.043  37.527  12.612
37438W        W 9863   4.916  15.014   0.807
37439W        W 9864  10.827  40.212  14.328
37440W        W 9865  34.913  28.994  14.830
37441W        W 9866  38.932  38.417   4.377
37442W        W 9867  27.095  35.092  12.096
37443W        W 9868  20.670   7.620  13.002
37444W        W 9869  30.036   3.314  12.364
37445W        W 9870  19.164  16.017   3.757
37446W        W 9871   5.127  15.349  10.634
37447W        W 9872   3.258  20.250   1.843
37448W        W 9873  27.874  32.404   1.576
37449W        W 9874  30.470  31.542  12.380
37450W        W 9875  19.165  17.431   2.599
37451W        W 9876  31.394  20.532  14.510
37452W        W 9877   3.972  20.597   1.679
37453W        W 9878  21.572  22.598   3.830
37454W        W 9879  18.600  24.961   0.244
37455W        W 9880  17.592  23.053   4.727
37456W        W 9881  41.047  35.407   4.171
37457W        W 9882  39.510  20.774   4.593
37458W        W 9883  18.650  24.172  12.140
37459W        W 9884  19.320  24.275   1.382
37460W        W 9885  35.925   9.242  11.991
37461W        W 9886  33.983  25.213   4.141
37462W        W 9887  14.283  18.155  10.332
37463W        W 9888  35.984  11.269   1.717
37464W        W 9889  11.715  19.813   1.178
37465W        W 9890  44.563  30.417  11.982
37466W        W 9891  25.347  43.746  10.599
37467W        W 9892   0.982  40.223  10.774
37468W        W 9893  32.271   8.163   0.261
37469W        W 9894  28.434  21.496   1.444
37470W        W 9895  21.932  17.293  11.060
37471W        W 9896  10.829  11.874   0.984
37472W        W 9897  14.287  31.104   4.197
37473W        W 9898   4.718   5.308   5.050
37474W        W 9899   5.815  33.022  13.925
37475W        W 9900  17.320  40.143   4.053
37476W        W 9901  16.475  29.919  12.761
37477W        W 9902   9.083  33.623  12.016
37478W        W 9903  11.403  40.769   2.185
37479W        W 9904   6.231  31.033   3.906
37480W        W 9905  41.574   5.468   2.307
37481W        W 9906  15.076  42.335  12.870
37482W        W 9907  42.859   6.501   3.613
37483W        W 9908   8.051  15.758  14.877
37484W        W 9909  20.318  29.468   1.695
37485W        W 9910   9.373  28.111   0.503
37486W        W 9911   0.267  18.680  14.389
37487W        W 9912  17.259   3.226  11.470
37488W        W 9913   9.701  42.971  13.336
37489W        W 9914   1.979  37.958  14.527
37490W        W 9915  26.569  19.327   0.742
37491W        W 9916  16.145  27.640   4.127
37492W        W 9917   8.483  18.644  11.297
37493W        W 9918   4.249  17.235   3.076
37494W        W 9919  40.634  16.639  11.186
37495W        W 9920  32.311  14.922  12.003
37496W        W 9921  44.071   8.960  12.396
37497W        W 9922   6.947  14.073  12.973
37498W        W 9923  22.458   1.003  13.292
37499W        W 9924  40.301  13.228  11.129
37500W        W 9925  32.831  42.507   4.171
37501W        W 9926  34.893  20.180   4.207
37502W        W 9927   8.904  30.393  10.680
37503W        W 9928  14.622   1.006  11.997
37504W        W 9929  32.031  33.005   2.290
37505W        W 9930  10.864   5.398   4.958
37506W        W 9931   6.585  20.629   4.365
37507W        W 9932   8.412  29.862  11.115
37508W        W 9933   8.275  16.587  12.475
37509W        W 9934  34.359   6.702   4.129
37510W        W 9935   6.983  35.069  13.386
37511W        W 9936  40.216  12.236   3.397
37512W        W 9937  32.101  34.094  13.973
37513W        W 9938   8.018   8.956  13.035
37514W        W 9939   7.282   0.446   3.564
37515W        W 9940  13.087  29.153  12.302
37516W        W 9941  40.803  24.960  10.688
37517W        W 9942   6.435  10.495   4.994
37518W        W 9943  12.504   6.314   2.810
37519W        W 9944  20.225  36.999  12.060
37520W        W 9945  23.690  43.062   3.657
37521W        W 9946  35.886  20.690  14.567
37522W        W 9947  44.326  23.946  13.311
37523W        W 9948  39.330   0.555   1.229
37524W        W 9949  25.968  40.018   3.124
37525W        W 9950  41.537  42.888   4.510
37526W        W 9951  30.595  44.426  12.347
37527W        W 9952  41.285  11.826  13.307
37528W        W 9953  41.449  10.707   1.513
37529W        W 9954  13.282  23.928   1.800
37530W        W 9955   4.836  16.341  14.418
37531W        W 9956  37.573  36.344  14.510
37532W        W 9957  20.432  17.136   2.846
37533W        W 9958  25.492  30.567  10.448
37534W        W 9959  40.378  16.684  14.970
37535W        W 9960  31.230  30.491   1.556
37536W        W 9961  41.791  44.677  12.449
37537W        W 9962   7.016  10.330   4.124
37538W        W 9963  18.268  11.192  13.290
37539W        W 9964  22.000  29.104   3.195
37540W        W 9965  35.514  30.532  11.852
37541W        W 9966  40.826  21.608   3.427
37542W        W 9967  43.013   0.731  14.987
37543W        W 9968  33.918   7.479  13.382
37544W        W 9969   6.156   7.900   0.740
37545W        W 9970  11.516  37.310  13.427
37546W        W 9971  22.268  31.703   2.161
37547W        W 9972   7.107  38.582   3.747
37548W        W 9973  30.844  42.388   4.179
37549W        W 9974  38.554   6.979   1.437
37550W        W 9975  30.130  25.903   1.872
37551W        W 9976  28.097   4.214   0.366
37552W        W 9977  41.599  24.175   1.683
37553W        W 9978  39.356   9.867  10.907
37554W        W 9979  21.935  26.922  12.002
37555W        W 9980  25.207  17.323   1.841
37556W        W 9981   0.798  35.451  13.637
37557W        W 9982  33.916   3.166  13.493
37558W        W 9983  23.039  30.435   1.311
37559W        W 9984   8.713  30.358   3.111
37560W        W 9985   3.398  13.325   3.337
37561W        W 9986  42.391  13.180  12.264
37562W        W 9987   6.504  23.487  14.494
37563W        W 9988  30.361  24.336   0.399
37564W        W 9989  42.397  17.227   0.343
37565W        W 9990   2.263  30.599  11.211
37566W        W 9991  26.537  29.736  13.845
37567W        W 9992   5.316   8.412   0.609
37568W        W 9993  42.373  19.559  14.450
37569W        W 9994   7.913  10.228   1.296
37570W        W 9995  38.993  25.224   0.308
37571W        W 9996  22.798   3.635   0.501
37572W        W 9997  20.051  25.696  10.578
37573W        W 9998   5.763  28.781  12.034
37574W        W 9999  33.577  15.194   3.787
37575W        W10000  32.384  19.598  10.584
37576W        W10001   6.411   2.243  13.825
37577W        W10002  35.246  28.197  11.594
37578W        W10003  33.091  29.443  11.904
37579W        W10004  43.251  26.004  10.747
37580W        W10005  25.203  12.183   3.722
37581W        W10006  33.032  31.056  11.524
37582W        W10007  30.499  16.869   2.170
37583W        W10008  44.850  44.329   1.063
37584W        W10009   8.143  24.568   1.308
37585W        W10010   8.654   8.249   1.755
37586W        W10011  23.661  17.369   3.214
37587W        W10012  19.625   4.973   3.224
37588W        W10013  44.400   4.824  13.605
37589W        W10014  23.110  24.129  14.607
37590W        W10015  11.353  15.198   0.028
37591W        W10016  13.280  21.348   0.889
37592W        W10017  31.430  38.342  12.123
37593W        W10018  44.497  44.065   4.541
37594W        W10019  24.094  34.176   2.722
37595W        W10020  32.936  39.962  13.386
37596W        W10021  16.817  34.381  11.498
37597W        W10022   1.886  25.292  12.573
37598W        W10023  19.939  17.121   1.111
37599W        W10024  22.809  23.070   4.790
37600W        W10025  34.122  25.868   4.904
37601W        W10026  14.205  42.354   4.889
37602W        W10027  42.250  28.996  14.000
37603W        W10028  28.985  14.050  11.012
37604W        W10029  43.414  38.017   0.036
37605W        W10030   4.942  15.269  14.911
37606W        W10031  12.197  22.728  14.351
37607W        W10032   6.900  19.575   1.737
37608W        W10033   2.939   1.191  14.874
37609W        W10034  28.268  12.267   9.854
37610W        W10035  27.046  31.590   1.797
37611W        W10036  13.819  19.187  14.343
37612W        W10037   1.707  12.896   1.114
37613W        W10038  41.743  34.520  10.743
37614W        W10039  24.260  14.249  14.048
37615W        W10040   5.779  21.673  13.744
37616W        W10041  44.012  17.682  11.192
37617W        W10042  37.595  18.624   4.587
37618W        W10043  31.948  31.949  10.017
37619W        W10044   5.705  35.394   3.401
37620W        W10045  42.780   0.759  13.563
37621W        W10046  35.320  35.179  11.653
37622W        W10047  11.420  41.010   4.583
37623W        W10048  27.216  30.135  14.485
37624W        W10049  29.419  23.056  11.104
37625W        W10050  28.672   9.211   0.329
37626W        W10051  31.621  11.459   1.624
37627W        W10052  14.292  34.211   4.113
37628W        W10053   1.100  35.131  13.307
37629W        W10054  39.376  22.455  12.367
37630W        W10055  34.525  37.423  11.188
37631W        W10056  29.008  26.944  13.059
37632W        W10057   6.750  18.808  11.995
37633W        W10058  31.209  35.549  14.384
37634W        W10059  16.730  41.104  14.926
37635W        W10060  22.240   2.686  14.489
37636W        W10061  33.850  19.532   3.373
37637W        W10062  18.520  36.925  10.752
37638W        W10063  15.314   0.779  12.939
37639W        W10064  26.434  22.791  14.096
37640W        W10065  10.026  16.796   0.424
37641W        W10066  29.427  16.344  12.091
37642W        W10067  19.107  11.720   1.285
37643W        W10068  13.747  40.870   1.974
37644W        W10069  13.741   1.383  12.492
37645W        W10070  11.110   8.646  12.006
37646W        W10071   2.238  22.602   4.507
37647W        W10072  15.944  24.108   1.468
37648W        W10073  19.838   4.371  12.200
37649W        W10074   9.607   9.723  14.041
37650W        W10075  36.840  39.882   1.970
37651W        W10076  24.682  29.120   1.589
37652W        W10077   8.401  38.433   9.768
37653W        W10078   6.684  32.855   1.752
37654W        W10079  11.754   6.360   0.178
37655W        W10080  16.948  12.840  11.608
37656W        W10081  25.989  11.772  14.388
37657W        W10082  11.649   5.108  11.638
37658W        W10083   0.712  36.285   0.385
37659W        W10084   1.540   1.983  12.169
37660W        W10085   4.447  28.697   3.971
37661W        W10086  22.363  10.779   3.703
37662W        W10087  41.819   4.928  13.558
37663W        W10088  13.898  39.879   2.373
37664W        W10089  35.865  10.565  12.860
37665W        W10090  22.422   2.693   4.055
37666W        W10091  40.961  12.141   0.691
37667W        W10092  32.996  13.272   3.790
37668W        W10093  16.222  27.179   4.725
37669W        W10094  40.423  18.794   4.586
37670W        W10095  10.179  18.750   3.535
37671W        W10096   9.016   4.441  12.437
37672W        W10097  16.163  29.172  10.604
37673W        W10098  13.754   5.986  10.704
37674W        W10099  29.455  20.166   0.040
37675W        W10100  29.794  10.940  12.016
37676W        W10101   4.024  19.459  12.924
37677W        W10102  37.514  18.471  13.806
37678W        W10103   3.026  18.629  14.938
37679W        W10104  39.761  15.305   1.754
37680W        W10105  24.017  26.407  13.197
37681W        W10106   7.218  36.384   4.648
37682W        W10107  42.035   6.212  11.115
37683W        W10108  23.924   7.480  10.178
37684W        W10109  21.201  13.581   3.854
37685W        W10110  29.879  12.175  11.611
37686W        W10111  29.491  10.312  10.756
37687W        W10112  16.210  15.564  13.994
37688W        W10113  44.463  39.226  12.381
37689W        W10114  30.071   3.516   2.182
37690W        W10115  35.038   6.428   3.185
37691W        W10116  42.803   4.136  11.163
37692W        W10117  15.407  17.611  14.903
37693W        W10118  19.564  25.061  12.924
37694W        W10119  33.560  23.158   4.421
37695W        W10120   0.926   4.248  14.864
37696W        W10121  21.153  21.128  10.612
37697W        W10122  13.746  19.188  12.223
37698W        W10123  26.980  21.275   3.727
37699W        W10124   6.307  30.516   0.935
37700W        W10125   9.794  33.199  11.395
37701W        W10126  33.580  20.477   4.774
37702W        W10127  10.636   1.342   0.213
37703W        W10128  20.113  19.647  12.659
37704W        W10129   8.242  27.267  13.493
37705W        W10130  29.047  32.672   1.485
37706W        W10131  13.121  41.326   3.200
37707W        W10132   7.272   2.553  14.773
37708W        W10133  28.421  37.131  12.025
37709W        W10134   8.108   5.343   0.744
37710W        W10135  18.146   0.260   3.671
37711W        W10136  40.506  32.949   0.398
37712W        W10137  12.846  38.293   2.469
37713W        W10138  33.260  25.238   2.338
37714W        W10139  25.461  31.204   2.769
37715W        W10140  27.093  16.340   3.831
37716W        W10141  37.641  43.975  12.843
37717W        W10142  32.876  40.229  12.929
37718W        W10143   6.120  28.704   2.130
37719W        W10144  27.061   0.874   1.705
37720W        W10145   9.630   9.341  12.877
37721W        W10146  26.667   4.200   3.624
37722W        W10147  36.027  33.143   0.238
37723W        W10148   2.359  17.751   2.174
37724W        W10149  23.189  30.534  11.159
37725W        W10150  33.404   5.211  13.935
37726W        W10151  37.451  44.395  10.930
37727W        W10152  14.559  30.630  10.690
37728W        W10153  21.263   1.043   2.796
37729W        W10154  37.284   8.150  14.840
37730W        W10155  13.672  24.265   5.082
37731W        W10156  28.017  18.279  11.952
37732W        W10157   4.843  38.537  12.342
37733W        W10158   0.061  17.072   2.637
37734W        W10159   8.664  43.760   0.790
37735W        W10160  23.648  24.755   1.826
37736W        W10161  21.214  44.300  13.098
37737W        W10162  27.477  39.020   3.226
37738W        W10163  31.351  30.161  12.068
37739W        W10164   8.781   4.251   3.338
37740W        W10165   9.265  43.983   3.680
37741W        W10166   3.319  19.651  11.260
37742W        W10167   0.474   5.165   1.907
37743W        W10168   3.454   2.729  10.903
37744W        W10169   2.834   9.698   4.998
37745W        W10170  12.355  35.276   4.209
37746W        W10171  13.648  31.801   2.055
37747W        W10172  42.866  20.574   3.139
37748W        W10173  22.760  33.991  14.353
37749W        W10174  19.124  25.908   2.387
37750W        W10175  31.737  19.409   5.428
37751W        W10176  43.396   2.066  14.051
37752W        W10177  35.507   3.515  13.592
37753W        W10178  17.742  36.992  13.891
37754W        W10179  43.053  42.240  13.292
37755W        W10180  20.114   2.223  11.159
37756W        W10181  27.158  23.618   4.064
37757W        W10182  35.662  44.679  13.824
37758W        W10183  38.555  31.116  11.223
37759W        W10184  18.065   5.937  12.085
37760W        W10185  42.432  20.252  11.003
37761W        W10186   7.332  31.890  12.280
37762W        W10187   7.406   9.961   2.410
37763W        W10188  40.719   6.375  11.963
37764W        W10189  37.003  41.753  11.782
37765W        W10190  18.794   9.738  13.836
37766W        W10191  13.223   7.837  14.281
37767W        W10192  44.884   9.154  11.137
37768W        W10193  39.691  43.389   4.770
37769W        W10194  23.663  25.477   4.511
37770W        W10195  22.349   0.719   2.185
37771W        W10196  39.730  27.715   3.330
37772W        W10197  17.480   0.338   4.211
37773W        W10198   3.944  11.754   3.597
37774W        W10199  21.022  41.529  11.119
37775W        W10200  43.498  31.875   4.848
37776W        W10201   1.424  31.071  14.471
37777W        W10202  11.334  23.933   2.238
37778W        W10203  24.053  42.360  14.302
37779W        W10204  35.405  36.652   2.964
37780W        W10205   5.617  25.138  12.379
37781W        W10206   0.707   8.254   5.062
37782W        W10207  26.188  34.885  11.611
37783W        W10208  40.802  36.386  11.975
37784W        W10209  30.527  35.372  11.479
37785W        W10210  42.291   4.191  11.933
37786W        W10211  41.768   9.122  11.933
37787W        W10212  40.518  37.317   2.170
37788W        W10213   9.853   8.512  10.697
37789W        W10214   0.676  26.129   3.351
37790W        W10215  29.507  23.996   4.590
37791W        W10216  24.613  10.785   9.909
37792W        W10217  21.186  18.833  13.357
37793W        W10218   4.423   1.865   3.691
37794W        W10219  36.497  30.107   3.928
37795W        W10220   5.151  35.463   0.238
37796W        W10221  22.475   3.821  11.917
37797W        W10222  37.862  16.154   2.553
37798W        W10223   6.140   6.380  10.329
37799W        W10224   4.757  34.045  14.550
37800W        W10225   8.978  18.491  13.951
37801W        W10226  17.543  12.566   2.310
37802W        W10227  13.367  38.966   0.781
37803W        W10228  30.451  34.433   4.335
37804W        W10229  33.876  33.061   0.996
37805W        W10230  34.596   6.298   1.409
37806W        W10231  28.658  31.093  10.660
37807W        W10232  11.020  33.683  14.946
37808W        W10233  27.147  20.301   3.052
37809W        W10234  13.654  34.459  12.830
37810W        W10235   6.373  12.397   3.679
37811W        W10236  12.788  21.016  13.985
37812W        W10237   7.370   0.418   0.277
37813W        W10238  25.751  19.650   5.002
37814W        W10239  10.585  14.552  11.616
37815W        W10240  20.792  34.095  10.793
37816W        W10241  40.301  30.452   3.640
37817W        W10242   8.267  28.535   1.880
37818W        W10243  30.008  19.813   4.894
37819W        W10244   6.559  16.101  14.702
37820W        W10245  17.844  12.754   4.301
37821W        W10246  24.043  37.413  10.250
37822W        W10247  38.385  25.662   4.631
37823W        W10248  44.435  32.028   3.687
37824W        W10249  26.446   1.383   0.011
37825W        W10250   8.162  11.720  12.565
37826W        W10251   4.254  37.746   4.212
37827W        W10252   9.346  10.842   0.036
37828W        W10253   6.846  39.923   1.746
37829W        W10254   3.861  13.358  11.587
37830W        W10255  31.404  23.656   2.695
37831W        W10256  38.762   3.500  10.241
37832W        W10257   4.613  25.695  11.245
37833W        W10258  26.341   3.957  12.069
37834W        W10259   3.077  28.137   2.255
37835W        W10260  13.192  16.794  12.037
37836W        W10261  30.073  29.067  10.724
37837W        W10262  41.458  41.105  12.828
37838W        W10263  23.609  18.005   4.703
37839W        W10264  22.816  31.169  12.027
37840W        W10265  14.529   4.650   1.358
37841W        W10266  41.131  29.587   2.494
37842W        W10267   2.212  31.068  14.460
37843W        W10268   7.927  18.025   0.099
37844W        W10269  24.967   2.132   4.952
37845W        W10270  41.374  42.948  13.862
37846W        W10271   4.935  33.604  11.678
37847W        W10272  31.457  27.444  11.331
37848W        W10273   6.547   3.871   0.767
37849W        W10274  41.488  27.639   0.359
37850W        W10275  16.105  16.691  10.916
37851W        W10276   0.972  18.111  11.494
37852W        W10277  33.203   3.650   2.703
37853W        W10278  36.947  37.259   0.295
37854W        W10279  28.422  24.563   4.758
37855W        W10280  15.677  34.540   0.938
37856W        W10281  31.902  24.148   1.389
37857W        W10282  13.876   1.002  12.849
37858W        W10283  16.533  24.124   2.689
37859W        W10284  21.180  26.224   0.796
37860W        W10285  32.235  31.406  10.454
37861W        W10286  40.409  23.745   4.749
37862W        W10287  42.810  31.151   1.257
37863W        W10288  29.401  24.641  14.499
37864W        W10289   9.213  15.226  11.223
37865W        W10290   1.022  25.586   1.079
37866W        W10291  18.078  31.160  14.426
37867W        W10292   8.283  19.623  11.529
37868W        W10293  29.349  14.832   3.599
37869W        W10294   8.650  33.153  11.194
37870W        W10295  16.453   6.217  12.867
37871W        W10296  41.955   4.185  10.524
37872W        W10297   7.605   6.818   4.551
37873W        W10298  42.407   3.892  13.966
37874W        W10299  43.919  31.610   4.657
37875W        W10300  17.476  31.642   3.296
37876W        W10301   9.772  23.670   2.286
37877W        W10302  41.778   1.788  11.655
37878W        W10303   2.036  36.171   0.335
37879W        W10304  17.117  20.723  10.925
37880W        W10305  29.542  26.211   3.248
37881W        W10306  44.249  15.309  10.658
37882W        W10307  28.613   6.292   1.731
37883W        W10308  44.668  22.615   4.213
37884W        W10309  21.805  13.018   1.728
37885W        W10310  40.495  21.042  10.252
37886W        W10311  12.968  31.411  10.465
37887W        W10312  13.209  28.356  11.111
37888W        W10313  44.460  25.557   0.776
37889W        W10314  33.326   9.108  14.188
37890W        W10315  17.257  31.106  11.816
37891W        W10316  31.529   2.737   2.063
37892W        W10317   3.552  10.359  13.432
37893W        W10318  10.719  22.495  10.055
37894W        W10319  43.898  19.946   2.461
37895W        W10320  19.136  20.336  13.439
37896W        W10321  27.696  15.373  12.026
37897W        W10322  25.073  11.177   2.579
37898W        W10323  30.046  22.011  14.421
37899W        W10324  31.904   6.421  14.386
37900W        W10325  31.126  43.608  13.900
37901W        W10326  40.206  13.350   1.820
37902W        W10327   0.019  12.172   3.253
37903W        W10328  41.274  13.555   3.216
37904W        W10329  22.968  34.644  14.640
37905W        W10330  41.411  18.305   1.465
37906W        W10331  19.010  20.443  11.247
37907W        W10332  37.065  23.943   3.651
37908W        W10333  26.447  24.380   2.792
37909W        W10334  25.992  28.036   3.780
37910W        W10335   3.693  44.505  10.618
37911W        W10336   0.671  21.054   3.178
37912W        W10337  17.181  16.309   3.197
37913W        W10338  36.632  21.652   1.881
37914W        W10339  19.737  26.638   4.102
37915W        W10340  42.256  15.651   1.305
37916W        W10341  23.580  32.499  13.829
37917W        W10342  14.688  37.841   4.573
37918W        W10343  22.517  44.915   4.253
37919W        W10344   6.449  19.911  11.950
37920W        W10345  19.561   3.225   2.957
37921W        W10346  14.829  13.384  13.893
37922W        W10347  11.079  15.139   2.895
37923W        W10348  17.924  32.570  14.867
37924W        W10349  20.985  25.720  14.380
37925W        W10350  44.021   1.459   2.153
37926W        W10351  30.446  15.904  10.438
37927W        W10352  15.514  22.256  14.951
37928W        W10353  42.900   9.687   2.227
37929W        W10354  44.882  31.533  10.437
37930W        W10355  31.665  43.886  10.687
37931W        W10356  37.815  24.262   4.215
37932W        W10357  28.565  37.348   0.915
37933W        W10358  40.886  42.100  12.522
37934W        W10359  23.426   7.835  12.833
37935W        W10360  41.510  34.070  10.587
37936W        W10361   6.721  17.534   3.303
37937W        W10362  39.773   9.796   3.115
37938W        W10363  40.334  39.051  10.672
37939W        W10364   3.420  17.369   3.727
37940W        W10365  10.667  19.334  11.416
37941W        W10366  34.547  11.605   4.335
37942W        W10367   6.670   1.489   1.488
37943W        W10368  23.595  14.606  14.728
37944W        W10369  18.078   4.278   3.740
37945W        W10370  24.240  42.944  14.188
37946W        W10371  32.718   4.243   5.037
37947W        W10372  40.939  27.006   3.725
37948W        W10373  39.639  26.377  11.598
37949W        W10374  29.499  40.402   3.205
37950W        W10375  43.231   1.866  11.630
37951W        W10376  40.131  17.680  14.326
37952W        W10377  35.020  20.265  12.717
37953W        W10378  33.980  20.390  11.285
37954W        W10379  23.990  18.087  10.532
37955W        W10380  28.865  30.838   2.849
37956W        W10381  27.214   6.788  14.860
37957W        W10382  43.935  41.962  10.723
37958W        W10383  39.006  23.597   0.360
37959W        W10384  26.957  26.712   1.196
37960W        W10385  28.218  30.432  13.373
37961W        W10386   6.064  17.760   4.438
37962W        W10387  37.405  26.948  11.999
37963W        W10388  30.646  17.233  12.002
37964W        W10389  31.216  27.592   3.783
37965W        W10390  34.470  14.877   1.747
37966W        W10391  16.641  28.988  13.552
37967W        W10392  26.711   8.858  12.503
37968W        W10393  38.060  33.013   1.822
37969W        W10394   5.432  43.976  12.231
37970W        W10395  33.599  19.607  13.344
37971W        W10396   0.510  10.701  13.909
37972W        W10397  43.438  37.679  11.535
37973W        W10398  25.664  38.374  10.716
37974W        W10399  41.734  38.034  10.671
37975W        W10400  12.114  39.804   3.662
37976W        W10401  31.369  37.171   3.673
37977W        W10402  29.999  25.419   1.713
37978W        W10403  27.605  36.437  14.498
37979W        W10404  14.597  16.743  13.962
37980W        W10405   9.807  12.846  11.537
37981W        W10406  34.325  11.232   3.641
37982W        W10407  40.385   0.993   0.453
37983W        W10408  22.717  25.750  10.813
37984W        W10409  38.300   0.464  12.209
37985W        W10410  36.837  40.912   3.625
37986W        W10411  43.017  17.245   0.849
37987W        W10412  32.422   0.859  13.490
37988W        W10413  31.149  34.652  11.199
37989W        W10414  27.721  17.839  10.482
37990W        W10415  33.925  21.110  14.353
37991W        W10416  21.687  27.971   2.158
37992W        W10417  14.730   9.408   3.726
37993W        W10418  37.121  12.424  11.633
37994W        W10419  31.940  16.120   1.769
37995W        W10420  15.275  29.660  10.759
37996W        W10421  15.661  15.447   1.599
37997W        W10422  17.027   1.905   4.572
37998W        W10423  21.642   2.933  13.405
37999W        W10424  32.990  15.857  13.376
38000W        W10425  44.423   2.947  13.495
38001W        W10426   6.649  29.514  12.454
38002W        W10427  20.232   3.767  11.548
38003W        W10428   3.854  23.191  13.195
38004W        W10429  30.433  20.834   2.840
38005W        W10430  36.545  20.281  10.649
38006W        W10431  17.790  42.277   1.233
38007W        W10432  12.805  34.549   3.149
38008W        W10433   6.382  20.145   4.438
38009W        W10434  12.786  14.141   3.655
38010W        W10435  37.327  31.352  12.502
38011W        W10436  10.935  40.570   1.723
38012W        W10437  37.013  25.488   0.364
38013W        W10438  12.215  27.239  11.562
38014W        W10439  15.187  38.750   5.020
38015W        W10440  28.480  40.256  13.106
38016W        W10441  20.231  31.718   1.479
38017W        W10442  10.539  38.031  11.390
38018W        W10443  25.454   7.704   4.057
38019W        W10444   6.104  29.312   1.338
38020W        W10445  42.134  11.909  11.421
38021W        W10446  24.060  27.811   4.802
38022W        W10447  38.972  26.181  11.080
38023W        W10448  29.180   6.978  13.031
38024W        W10449  42.049  32.110  12.601
38025W        W10450  16.680  15.122   0.177
38026W        W10451  13.398  22.041   2.623
38027W        W10452  24.392  29.539  11.103
38028W        W10453  21.712  33.867   0.339
38029W        W10454  14.857   7.355  11.389
38030W        W10455  11.207   0.261  14.575
38031W        W10456   7.287  17.749   0.813
38032W        W10457  16.274  42.860  14.577
38033W        W10458   7.707  27.342  10.695
38034W        W10459   7.466  24.058   4.065
38035W        W10460  33.333  15.213   3.332
38036W        W10461  30.408  26.308  13.605
38037W        W10462  31.481  40.477  14.822
38038W        W10463  35.722  36.083   3.676
38039W        W10464  13.655  13.832  11.883
38040W        W10465  43.873   5.729   0.898
38041W        W10466  24.686  41.900   4.532
38042W        W10467  42.880  42.775  11.649
38043W        W10468  24.778  24.345   4.165
38044W        W10469  18.679   9.311   1.025
38045W        W10470  26.949  34.586  14.956
38046W        W10471   7.746  34.375   0.526
38047W        W10472  14.361  30.926  13.279
38048W        W10473   2.403  28.393  12.333
38049W        W10474  36.361  33.836  13.726
38050W        W10475   0.430  29.080  10.703
38051W        W10476  11.681  43.739   0.992
38052W        W10477  33.359  12.271   3.726
38053W        W10478  20.646  20.580   4.552
38054W        W10479  12.640  28.204   3.262
38055W        W10480   4.851  35.866  10.698
38056W        W10481  37.473  31.467   4.570
38057W        W10482  39.537   6.564   3.884
38058W        W10483  29.179   2.357  13.048
38059W        W10484   4.798  30.519  10.394
38060W        W10485  40.802  22.230  11.160
38061W        W10486  37.771  19.202   4.175
38062W        W10487  41.700  40.719  12.625
38063W        W10488  31.684  18.015   1.892
38064W        W10489  43.227  32.164   3.285
38065W        W10490  18.786  38.095  13.450
38066W        W10491   6.308  39.388   2.207
38067W        W10492   5.129  18.724   4.094
38068W        W10493  35.593  19.480  10.676
38069W        W10494   1.894  30.943  13.658
38070W        W10495   8.339  23.415  11.468
38071W        W10496  44.238  20.657   3.362
38072W        W10497   3.912  28.567   0.984
38073W        W10498  21.698  33.067  11.153
38074W        W10499   3.307  35.366   4.665
38075W        W10500  31.655  41.202  10.054
38076W        W10501  33.571  31.620   1.872
38077W        W10502  38.529   1.336  13.432
38078W        W10503  42.331   9.199  12.899
38079W        W10504  10.854   1.835   3.961
38080W        W10505  22.264  22.046   0.383
38081W        W10506  41.730  17.619   0.362
38082W        W10507   6.659  38.025  12.830
38083W        W10508  22.460  13.993  12.056
38084W        W10509   1.076  35.886  12.570
38085W        W10510  12.347  36.776  12.032
38086W        W10511   9.964  38.973  12.542
38087W        W10512  35.439  25.915  12.562
38088W        W10513  28.211  36.005   1.927
38089W        W10514  20.300  11.811   4.129
38090W        W10515  30.218  36.441   3.699
38091W        W10516   3.841  21.993  14.061
38092W        W10517  16.338   9.557   0.486
38093W        W10518   0.266  15.082   4.520
38094W        W10519   6.745  26.707  13.773
38095W        W10520  24.121   1.225  11.157
38096W        W10521   9.626   6.298  13.919
38097W        W10522  44.558  35.297   2.474
38098W        W10523  12.443  12.260   0.021
38099W        W10524  13.092  20.500   4.900
38100W        W10525  44.048  25.686   3.987
38101W        W10526   7.642  36.155  12.528
38102W        W10527  28.024  22.693   1.044
38103W        W10528   0.963   3.539   0.312
38104W        W10529  13.310   0.499  12.047
38105W        W10530  38.158  28.637   2.825
38106W        W10531  21.696  27.068  14.809
38107W        W10532  35.514   6.203   3.785
38108W        W10533  13.775  36.921  11.372
38109W        W10534   0.238   6.354   0.478
38110W        W10535   9.864  43.291   1.067
38111W        W10536  20.833  19.594  13.539
38112W        W10537  23.689  20.297  13.173
38113W        W10538  41.989  14.650  12.556
38114W        W10539  25.623   5.386   2.008
38115W        W10540  21.258  11.284   3.300
38116W        W10541  34.433   0.898  12.718
38117W        W10542  16.246  33.970  14.724
38118W        W10543  33.750  22.225   3.018
38119W        W10544  19.550  41.337  12.889
38120W        W10545   9.819  12.107   3.742
38121W        W10546  40.232   4.746   2.375
38122W        W10547   4.674  27.678   2.259
38123W        W10548   8.951   4.287   1.857
38124W        W10549   0.964  35.201   3.045
38125W        W10550  31.856   7.261  10.114
38126W        W10551  17.825   0.406  12.652
38127W        W10552  17.722  30.968  13.505
38128W        W10553  34.256   5.170   3.865
38129W        W10554   6.376  37.624   3.270
38130W        W10555  38.037  41.527   4.528
38131W        W10556  27.117  37.832   2.290
38132W        W10557  29.496  15.352  12.076
38133W        W10558   1.885  34.434   1.194
38134W        W10559   8.713   2.328   1.915
38135W        W10560  41.535   4.881   4.247
38136W        W10561   9.118  14.500  14.091
38137W        W10562  24.206  10.652  14.919
38138W        W10563  12.918   6.815   4.031
38139W        W10564   7.983  34.662   1.406
38140W        W10565  31.500  40.898  14.018
38141W        W10566   7.092  18.920   3.285
38142W        W10567  28.791  35.187  14.645
38143W        W10568  19.800  31.958  12.511
38144W        W10569  13.923  37.110   4.255
38145W        W10570  10.734  27.039  11.525
38146W        W10571   1.700  34.061   0.863
38147W        W10572  31.460  28.234   2.744
38148W        W10573  42.747  27.133   3.412
38149W        W10574  32.351  34.422  13.612
38150W        W10575  27.187   2.739   4.877
38151W        W10576  30.994  32.653   3.832
38152W        W10577  35.088  34.467  13.259
38153W        W10578  16.304  14.639  12.564
38154W        W10579  28.866   5.914  11.170
38155W        W10580  36.995  33.448   3.314
38156W        W10581   1.889  27.057  14.782
38157W        W10582   6.658  24.070   0.957
38158W        W10583  34.364   8.808   2.878
38159W        W10584  26.964  36.975   3.485
38160W        W10585   2.757  33.676  12.100
38161W        W10586  19.959  15.720   0.787
38162W        W10587   6.216  32.894  10.519
38163W        W10588  22.584   6.562   1.887
38164W        W10589  34.447  18.678   3.889
38165W        W10590  26.094  13.343   2.806
38166W        W10591  29.442  25.193   3.538
38167W        W10592  21.084   2.791   3.519
38168W        W10593  15.787  36.445   2.475
38169W        W10594  42.205  29.080  11.642
38170W        W10595  37.942   1.034   2.758
38171W        W10596  20.493   5.890  11.905
38172W        W10597  12.328  16.556  13.605
38173W        W10598  29.393   5.239  10.751
38174W        W10599  27.482  20.147   0.951
38175W        W10600  44.334   1.826   0.224
38176W        W10601  12.275   9.908  12.108
38177W        W10602  13.560  31.096  13.789
38178W        W10603  22.501  14.693  13.943
38179W        W10604  22.419  26.472   1.452
38180W        W10605  35.446  33.168  11.685
38181W        W10606  23.616  30.111   4.092
38182W        W10607  39.184  21.913  14.760
38183W        W10608  38.065  39.365   4.576
38184W        W10609  28.581  41.024   4.690
38185W        W10610  16.298  35.918   3.479
38186W        W10611  16.065  12.641  13.468
38187W        W10612  22.542   0.423   4.206
38188W        W10613  19.144  17.095   3.096
38189W        W10614  12.054  35.568   1.305
38190W        W10615  12.901  10.709   2.758
38191W        W10616   9.833   6.732  10.248
38192W        W10617  43.328  12.211  13.936
38193W        W10618  29.077  37.234   4.252
38194W        W10619   1.811  36.943   1.489
38195W        W10620  30.476  23.018   1.704
38196W        W10621  19.476  21.233   1.434
38197W        W10622  34.629  31.178  12.498
38198W        W10623  28.005  12.025   0.262
38199W        W10624  42.453  20.797   3.317
38200W        W10625   2.793  37.861   3.724
38201W        W10626  19.775  29.202  11.508
38202W        W10627  15.010  37.563  14.871
38203W        W10628   8.888  23.476   2.215
38204W        W10629  21.285  14.620  10.472
38205W        W10630  23.455   0.577  13.438
38206W        W10631  39.323  18.084   3.209
38207W        W10632  40.842   4.046   1.871
38208W        W10633  10.358  33.747  13.385
38209W        W10634  33.140   2.925  13.790
38210W        W10635  28.019  36.578  11.446
38211W        W10636  38.015  10.721   2.370
38212W        W10637  16.058   0.474   4.150
38213W        W10638  18.255  27.566  12.441
38214W        W10639  37.268  13.732   2.705
38215W        W10640  31.596  25.534   2.858
38216W        W10641  13.628  39.836   3.283
38217W        W10642   6.648  35.828  10.506
38218W        W10643  26.442   3.262  13.314
38219W        W10644  29.122  20.104  10.927
38220W        W10645  13.892  26.072   2.846
38221W        W10646  37.963  41.511  11.199
38222W        W10647  10.349  40.557   4.981
38223W        W10648  42.460  16.760   4.234
38224W        W10649  13.123   3.779  12.176
38225W        W10650  39.062   7.739  14.056
38226W        W10651  35.136   9.816  14.509
38227W        W10652  40.802  11.680   3.761
38228W        W10653  41.045   9.772   1.384
38229W        W10654  27.589  37.456   2.431
38230W        W10655  44.349  35.442   4.763
38231W        W10656  14.484  37.615   1.962
38232W        W10657  44.303  20.325   0.263
38233W        W10658  25.741  31.448   1.356
38234W        W10659  37.902  32.310   0.952
38235W        W10660   3.800  16.983   3.748
38236W        W10661  38.356  14.371  13.402
38237W        W10662  23.265  27.431   1.449
38238W        W10663  26.397  41.352  13.088
38239W        W10664   5.723   0.463  11.104
38240W        W10665  33.080   5.488  11.501
38241W        W10666   8.658  27.556  12.617
38242W        W10667  10.457  33.370   2.805
38243W        W10668  16.559   9.232  14.300
38244W        W10669  32.108  43.470   0.457
38245W        W10670  22.280  10.870   1.995
38246W        W10671  24.201  12.961   1.903
38247W        W10672   3.463  38.343   0.863
38248W        W10673  17.342  20.187  10.455
38249W        W10674  16.672   6.615   2.359
38250W        W10675  20.345  35.547   2.830
38251W        W10676  18.372   3.951   0.398
38252W        W10677  16.279  41.620   0.045
38253W        W10678  30.978  27.141   4.689
38254W        W10679  10.378   1.988   9.848
38255W        W10680  29.583  23.950  12.872
38256W        W10681  17.925   2.918   5.166
38257W        W10682  14.122  14.045  11.231
38258W        W10683  24.506  25.721   0.724
38259W        W10684  39.529  20.129  13.876
38260W        W10685   1.516  25.914  12.937
38261W        W10686   5.271  15.779  14.134
38262W        W10687  40.311  43.033  12.889
38263W        W10688  10.754  42.823  13.058
38264W        W10689  41.364  38.457   2.300
38265W        W10690  16.183  38.635  14.920
38266W        W10691   9.446  31.342  13.922
38267W        W10692  42.532  20.835   0.722
38268W        W10693   3.840  28.893  14.744
38269W        W10694  21.576   6.305   1.358
38270W        W10695  23.498  43.534  13.963
38271W        W10696   5.822   3.776   0.023
38272W        W10697   1.508  10.875   0.256
38273W        W10698  19.155  39.803   2.517
38274W        W10699  16.955  19.395   4.027
38275W        W10700  26.141   4.248   3.660
38276W        W10701   1.521  40.058   4.100
38277W        W10702  36.434  38.500  13.453
38278W        W10703  22.874  30.420  10.773
38279W        W10704   5.726  36.504  13.424
38280W        W10705   4.372  32.209   4.768
38281W        W10706  41.267  40.997  13.316
38282W        W10707  21.519  22.111  11.144
38283W        W10708   2.029  15.906   0.196
38284W        W10709  32.789   1.070   3.620
38285W        W10710   1.553  43.349   3.165
38286W        W10711  24.432  38.303   3.640
38287W        W10712  27.850  21.621   1.350
38288W        W10713  20.749  19.150  13.292
38289W        W10714  42.337  37.868  13.368
38290W        W10715  42.734  30.391  11.740
38291W        W10716  14.306   6.373   1.665
38292W        W10717  19.750  34.449   0.935
38293W        W10718  13.752  26.489   1.718
38294W        W10719   9.090   8.894  14.906
38295W        W10720  18.036  44.760  11.483
38296W        W10721  32.874  34.870  10.916
38297W        W10722  32.869  40.103  14.755
38298W        W10723  38.918  43.342   3.323
38299W        W10724  13.480  26.111  12.421
38300W        W10725  11.683  16.405   2.410
38301W        W10726  23.611  40.312   0.791
38302W        W10727  11.237  41.392   0.036
38303W        W10728  34.145  16.617   3.103
38304W        W10729  41.920  14.412   0.263
38305W        W10730  43.831  14.551  13.374
38306W        W10731  13.188   0.759  11.131
38307W        W10732   2.258  25.663  13.432
38308W        W10733  43.483  16.811  13.459
38309W        W10734  29.100  11.332  12.873
38310W        W10735   0.391  21.763  14.910
38311W        W10736  36.129  23.521   3.113
38312W        W10737  40.353  18.632   1.840
38313W        W10738  27.001  13.541   2.737
38314W        W10739   9.277  30.277   0.786
38315W        W10740   9.651  37.310   0.414
38316W        W10741  42.936  43.863   1.298
38317W        W10742  23.641  15.794  12.708
38318W        W10743  18.738  43.219   1.439
38319W        W10744  16.710  20.096   1.035
38320W        W10745  24.132  21.531  10.404
38321W        W10746  20.082   7.403   0.532
38322W        W10747   8.284  12.596  10.770
38323W        W10748  16.685  33.986   1.405
38324W        W10749  39.439   4.884  14.644
38325W        W10750  34.988  14.643  12.515
38326W        W10751  20.579  37.241  10.333
38327W        W10752  40.296  17.654  11.680
38328W        W10753  38.964  41.509  12.578
38329W        W10754  11.726  42.511   3.355
38330W        W10755  28.192   6.749  14.224
38331W        W10756  30.699   3.247  14.059
38332W        W10757  21.619  18.550   4.190
38333W        W10758   0.768  10.915  12.944
38334W        W10759  24.451   2.030  11.206
38335W        W10760  20.450  42.796   3.760
38336W        W10761  40.251  15.844   5.384
38337W        W10762  18.575  14.792   1.366
38338W        W10763  36.931  19.956   2.068
38339W        W10764  32.646   0.479  13.044
38340W        W10765  42.842  10.401  11.597
38341W        W10766  32.936  10.314  11.798
38342W        W10767  39.023   1.694   2.352
38343W        W10768  40.402  35.891  13.386
38344W        W10769  32.958  26.450  10.932
38345W        W10770  22.215  39.782   4.219
38346W        W10771  22.174  40.340   1.275
38347W        W10772   6.221  32.494   3.740
38348W        W10773  40.603   4.433   4.554
38349W        W10774  26.583  30.749  13.900
38350W        W10775  28.891  23.099  11.092
38351W        W10776  12.938   1.709   1.844
38352W        W10777  23.217  31.408   4.210
38353W        W10778  17.744  11.432  12.032
38354W        W10779   7.084  18.744  11.564
38355W        W10780  41.369   7.321   3.181
38356W        W10781  23.253  34.533  11.637
38357W        W10782  41.737  44.352   1.697
38358W        W10783  40.580  21.548  13.371
38359W        W10784   9.215  30.675   2.219
38360W        W10785  30.431  44.356  11.854
38361W        W10786  44.751  25.427  12.543
38362W        W10787  35.539  17.274   3.766
38363W        W10788  17.333  22.235  10.705
38364W        W10789  34.862   1.995   1.749
38365W        W10790   6.710  27.616   1.505
38366W        W10791  10.679  30.978  13.575
38367W        W10792  12.551   1.910  11.064
38368W        W10793  25.936  37.348   1.746
38369W        W10794  16.474   2.258  13.968
38370W        W10795  21.236  25.075  12.155
38371W        W10796  31.538  16.651   1.226
38372W        W10797  36.352   0.167  14.505
38373W        W10798  34.431   1.380  14.432
38374W        W10799  26.980  21.291  11.541
38375W        W10800  25.484   6.165   0.449
38376W        W10801  11.882  12.903   3.871
38377W        W10802  35.462  31.005   2.969
38378W        W10803  16.110  32.196  11.594
38379W        W10804  13.139  29.895  12.983
38380W        W10805  23.266   4.714  11.936
38381W        W10806  19.591  36.630  11.253
38382W        W10807  34.284  33.119  13.960
38383W        W10808   9.498  13.760  11.685
38384W        W10809  13.721   0.557  13.858
38385W        W10810  30.564  44.836  12.023
38386W        W10811   9.834  40.931   0.700
38387W        W10812  27.207   5.650  13.742
38388W        W10813  41.377  34.013   3.268
38389W        W10814  23.652   0.452   3.580
38390W        W10815  35.053   4.230   0.681
38391W        W10816  33.196  18.834   1.922
38392W        W10817   7.296  33.602   1.265
38393W        W10818  43.628  30.454  10.415
38394W        W10819  44.520  23.195   1.109
38395W        W10820  25.174  39.963  12.541
38396W        W10821  11.248  23.681   4.715
38397W        W10822  23.952   1.602   4.149
38398W        W10823  42.097  25.597  11.162
38399W        W10824  32.390  10.118  10.953
38400W        W10825  37.429  12.522   3.975
38401W        W10826  33.622   4.704  12.468
38402W        W10827   4.423  23.129   0.428
38403W        W10828   6.261  14.052  10.748
38404W        W10829  15.235  44.424   0.928
38405W        W10830   8.287  16.548   2.401
38406W        W10831  26.628  28.072   3.087
38407W        W10832  29.764   0.813  11.097
38408W        W10833  21.029   5.093  11.168
38409W        W10834   0.724  31.395  11.134
38410W        W10835  36.384   2.961   0.587
38411W        W10836  14.120  24.290   1.321
38412W        W10837  20.137  38.370   3.721
38413W        W10838  43.508  34.118  11.781
38414W        W10839  43.451  35.016   0.017
38415W        W10840  10.242   6.259   2.290
38416W        W10841  41.478  13.138   2.431
38417W        W10842  42.738  27.248  13.018
38418W        W10843  35.976  42.000  10.844
38419W        W10844   2.575  18.292   4.295
38420W        W10845   9.296  38.952   3.711
38421W        W10846  32.909  35.479   0.118
38422W        W10847   6.637  34.438   2.399
38423W        W10848  24.577  11.532   3.047
38424W        W10849   0.197  44.562   4.182
38425W        W10850  39.339  10.379   3.578
38426W        W10851   8.272  21.133  11.197
38427W        W10852  29.729  26.204  10.693
38428W        W10853  28.428  23.307  14.987
38429W        W10854  20.777   7.858  10.713
38430W        W10855  21.006  36.376   3.618
38431W        W10856  43.951   3.940  13.966
38432W        W10857  13.206   4.838  10.574
38433W        W10858  38.836  44.800   4.222
38434W        W10859  35.542   3.825  10.690
38435W        W10860  27.870  39.883   4.503
38436W        W10861   1.981  18.356  14.871
38437W        W10862  17.095  25.599   0.057
38438W        W10863  37.542  15.240   4.170
38439W        W10864   9.438  26.024  14.865
38440W        W10865  21.501  12.277   2.668
38441W        W10866   7.152   2.024   3.226
38442W        W10867  41.305  27.072   2.343
38443W        W10868  27.905  40.467  11.294
38444W        W10869  30.008   8.740  12.614
38445W        W10870  41.379   6.932  12.942
38446W        W10871  11.273  13.598   4.362
38447W        W10872  29.009  23.102   3.395
38448W        W10873  33.704  34.516  14.794
38449W        W10874   1.237   3.613   1.429
38450W        W10875   6.278  37.508   0.971
38451W        W10876  22.735  35.411  12.202
38452W        W10877  17.084  23.459  13.885
38453W        W10878  29.141  28.463   2.927
38454W        W10879  36.413  26.220   3.706
38455W        W10880  35.195  14.644   1.064
38456W        W10881   3.669  19.111  12.916
38457W        W10882  25.041  18.291   1.904
38458W        W10883  18.881   3.951   2.758
38459W        W10884  25.111  20.297  13.484
38460W        W10885  23.484  23.603   4.884
38461W        W10886  29.259  38.490   4.503
38462W        W10887   2.702   6.664   1.819
38463W        W10888  23.347  27.019  13.472
38464W        W10889  19.970  17.451  13.479
38465W        W10890  28.907  42.302   0.833
38466W        W10891  13.654  40.598  11.898
38467W        W10892   6.336  33.160  10.081
38468W        W10893   2.112   4.215  13.148
38469W        W10894  27.477  24.290  12.919
38470W        W10895  38.776   6.236  10.834
38471W        W10896  44.752  42.703  14.553
38472W        W10897   0.997   9.688   0.285
38473W        W10898  26.236  37.475  13.990
38474W        W10899   6.280   0.825  14.560
38475W        W10900  19.672  21.764  12.085
38476W        W10901   6.488  11.187  14.950
38477W        W10902  37.586  25.095  11.966
38478W        W10903  30.503   1.303   2.341
38479W        W10904  37.313  39.063   3.945
38480W        W10905  16.664  10.622   0.967
38481W        W10906   4.308  13.880   4.752
38482W        W10907  28.008  33.209  14.776
38483W        W10908  21.612  23.607  11.651
38484W        W10909  31.410  16.623   3.372
38485W        W10910   7.167  32.035   5.041
38486W        W10911  42.424  38.039   2.726
38487W        W10912  17.410  32.644  14.810
38488W        W10913   3.000   3.906  14.921
38489W        W10914  40.666  35.359  12.774
38490W        W10915   2.894  23.543   0.415
38491W        W10916   6.454  30.026   2.214
38492W        W10917  17.325   9.866   3.885
38493W        W10918  15.322   1.398  11.499
38494W        W10919  29.405  11.136  14.628
38495W        W10920   1.895  44.935  10.759
38496W        W10921  20.668   6.459  13.521
38497W        W10922  23.695  38.750   4.314
38498W        W10923  26.979  35.945   4.030
38499W        W10924  24.735   1.918  13.394
38500W        W10925  29.961  34.089  12.845
38501W        W10926  19.499  34.569  12.006
38502W        W10927  11.739  26.547   2.250
38503W        W10928  17.207  41.719   1.157
38504W        W10929  15.842  28.591  13.397
38505W        W10930  26.545  28.623   3.894
38506W        W10931  44.698  12.251   0.408
38507W        W10932  44.103  31.172  14.919
38508W        W10933  10.671  20.246  11.521
38509W        W10934  40.792  42.836  13.014
38510W        W10935  15.204  20.483   1.422
38511W        W10936   0.263  15.708  10.773
38512W        W10937  18.738  27.215   2.344
38513W        W10938  44.012   8.166  11.873
38514W        W10939  16.155   0.452   2.706
38515W        W10940   9.108  39.993   1.434
38516W        W10941  37.546  27.112   2.686
38517W        W10942  37.256  11.176  12.405
38518W        W10943  30.479  19.553   4.865
38519W        W10944  39.982  31.655  14.035
38520W        W10945  18.159   1.512  13.516
38521W        W10946  33.136  24.730   2.341
38522W        W10947   5.707  38.530   3.211
38523W        W10948  23.516  12.241   2.004
38524W        W10949  13.956  11.508  13.033
38525W        W10950   8.726  22.510   4.636
38526W        W10951  40.452   9.306   3.734
38527W        W10952   7.312  15.915   1.000
38528W        W10953   9.896  31.100  13.993
38529W        W10954  24.994   2.496  13.294
38530W        W10955  17.991  20.710  13.784
38531W        W10956  37.293  22.718  11.879
38532W        W10957  17.356  42.939   0.692
38533W        W10958   7.882   5.237  10.900
38534W        W10959  30.099  24.121   3.642
38535W        W10960  29.778  29.052  10.303
38536W        W10961  30.019  41.332   2.296
38537W        W10962  33.435  14.596  13.465
38538W        W10963   7.743  38.885   4.905
38539W        W10964   6.729   1.485  13.018
38540W        W10965  41.464  23.487  14.895
38541W        W10966  33.046  42.952  11.697
38542W        W10967  21.615   2.891   3.410
38543W        W10968  31.879  24.962  12.006
38544W        W10969   1.982  10.143  14.733
38545W        W10970  31.103  19.556   4.141
38546W        W10971  40.361  15.146   3.138
38547W        W10972  30.400  38.932   1.405
38548W        W10973  10.400  10.633   2.039
38549W        W10974  31.928  28.006  12.517
38550W        W10975  16.901  43.863  12.603
38551W        W10976  34.647  36.153   0.915
38552W        W10977  24.476  41.864  12.701
38553W        W10978  18.084  13.656   0.778
38554W        W10979  41.946  43.426   5.037
38555W        W10980  17.768  19.325  11.893
38556W        W10981  39.373  13.580   4.253
38557W        W10982  39.309   8.396   4.642
38558W        W10983  35.617  10.374   2.138
38559W        W10984   6.703  14.263   1.517
38560W        W10985  11.463  27.421  12.019
38561W        W10986  31.009  32.097   0.178
38562W        W10987  16.513   6.360   3.393
38563W        W10988   9.049  18.125   3.549
38564W        W10989  35.036   0.063   1.750
38565W        W10990   2.932  31.845  12.431
38566W        W10991  32.139  12.563  12.403
38567W        W10992  12.486  42.429  12.077
38568W        W10993   2.689   3.711   1.318
38569W        W10994  29.949   6.131   0.420
38570W        W10995  38.860  27.575  12.166
38571W        W10996  23.098  10.275  13.941
38572W        W10997  13.477   4.311   4.621
38573W        W10998  32.907  11.384   0.254
38574W        W10999  43.549   9.117  10.682
38575W        W11000  10.752   8.989  14.959
38576W        W11001  34.971  23.195   3.605
38577W        W11002   9.623  29.178  14.518
38578W        W11003  38.067  15.603   1.753
38579W        W11004   1.918  12.342   1.832
38580W        W11005  44.911  15.783  10.397
38581W        W11006  19.396  17.515   4.686
38582W        W11007  27.875  25.442   1.339
38583W        W11008  22.771   3.333  13.993
38584W        W11009  34.523   7.621  13.881
38585W        W11010  39.937  29.731  14.910
38586W        W11011  27.601  23.789  12.994
38587W        W11012  26.264  16.387   0.269
38588W        W11013  30.052  37.340   2.789
38589W        W11014  18.194  29.615  14.747
38590W        W11015  22.110  28.594  13.638
38591W        W11016  36.538  37.459   3.556
38592W        W11017   9.316  26.472  10.662
38593W        W11018  19.646   7.700   0.495
38594W        W11019  15.244  16.999   3.691
38595W        W11020   8.377  23.616  13.733
38596W        W11021  39.235   0.797  13.573
38597W        W11022  35.756   6.881   4.271
38598W        W11023   2.364  36.656   2.029
38599W        W11024  34.350  35.925  14.877
38600W        W11025  14.568  28.548  13.569
38601W        W11026  14.839  18.815   4.703
38602W        W11027  37.658  42.382   4.859
38603W        W11028  32.004   0.420  11.192
38604W        W11029  40.765  38.487   3.229
38605W        W11030  41.769   2.958   2.602
38606W        W11031   3.532  15.291  10.429
38607W        W11032   5.669  32.032  13.046
38608W        W11033  34.365  21.139   9.924
38609W        W11034   0.756  39.174   0.277
38610W        W11035   5.206  29.379  12.555
38611W        W11036  33.420   2.447   1.963
38612W        W11037  40.642  14.890  12.866
38613W        W11038   2.066  15.001  12.055
38614W        W11039  11.713  16.877  14.802
38615W        W11040  30.852  14.850  12.828
38616W        W11041   1.780  10.647   1.240
38617W        W11042   4.262  20.607  12.071
38618W        W11043  19.058  14.620   1.182
38619W        W11044   6.893   0.555  12.967
38620W        W11045  37.962   5.499   4.061
38621W        W11046   1.833  35.262   4.227
38622W        W11047   9.847   1.995  14.283
38623W        W11048  10.525   6.321  12.902
38624W        W11049  43.987  40.324  13.057
38625W        W11050  21.511  12.245  14.805
38626W        W11051  25.173  36.615  11.628
38627W        W11052  35.337   9.613   4.710
38628W        W11053  43.771  12.500   2.811
38629W        W11054  33.993   4.268   3.220
38630W        W11055  22.717   6.707  13.532
38631W        W11056  19.484  42.293   1.406
38632W        W11057  44.871  11.721  12.334
38633W        W11058  21.999  28.828   4.518
38634W        W11059  28.117  38.881  10.238
38635W        W11060  21.779  10.935   1.295
38636W        W11061  39.081  36.071   2.102
38637W        W11062  40.875  16.663   3.730
38638W        W11063  44.822  38.457   2.767
38639W        W11064  13.534  42.250  13.050
38640W        W11065   5.004  40.418  12.795
38641W        W11066  25.713   4.355   4.425
38642W        W11067  38.426  41.647  13.502
38643W        W11068  27.962  30.014  13.124
38644W        W11069  42.526  15.045   2.012
38645W        W11070  24.642  44.830   0.877
38646W        W11071  18.571  42.430   3.219
38647W        W11072  36.335  23.209   3.641
38648W        W11073   3.724  44.950  13.848
38649W        W11074  16.631   0.879   2.304
38650W        W11075  18.772  14.787  14.054
38651W        W11076  11.147  44.194  12.999
38652W        W11077  31.388  19.606   1.000
38653W        W11078   5.907  14.601   4.851
38654W        W11079  29.648  40.202  11.437
38655W        W11080  12.931   5.819   1.867
38656W        W11081  19.608  16.838   3.853
38657W        W11082  36.506  42.823   3.600
38658W        W11083   8.540  24.378   4.780
38659W        W11084  38.329  31.458  13.783
38660W        W11085  20.997  41.499  14.847
38661W        W11086  43.908   0.609  14.750
38662W        W11087  19.026   8.355  12.032
38663W        W11088  18.751  39.357   1.832
38664W        W11089  12.264  38.399  14.865
38665W        W11090  35.325  20.054  12.338
38666W        W11091  44.851   6.779   3.253
38667W        W11092  25.564  13.225  14.768
38668W        W11093  14.380  34.846   4.873
38669W        W11094  40.389   8.453   1.352
38670W        W11095  43.351  36.457   2.731
38671W        W11096  23.756   5.502   1.393
38672W        W11097   0.468  13.729  12.163
38673W        W11098  25.105  41.340  12.102
38674W        W11099  25.945   0.517   2.989
38675W        W11100  20.764  20.053   3.832
38676W        W11101   8.062  39.493   2.272
38677W        W11102  30.569   1.035   0.333
38678W        W11103  34.551   8.373   1.519
38679W        W11104  38.792  19.522  13.022
38680W        W11105  23.697   8.290   3.494
38681W        W11106  20.166  23.017  13.870
38682W        W11107  13.829  25.517   9.898
38683W        W11108   8.178  23.514   1.471
38684W        W11109   7.890   0.453  13.717
38685W        W11110  29.793   8.887  11.170
38686W        W11111  29.923  13.833  13.378
38687W        W11112  23.613  14.823   1.799
38688W        W11113  26.255   6.879   0.321
38689W        W11114  33.858  36.026   4.617
38690W        W11115  37.023  21.945  10.740
38691W        W11116  30.507  11.063  11.323
38692W        W11117   5.976  35.584   3.795
38693W        W11118  22.545  24.942   0.429
38694W        W11119  29.370  41.559  12.466
38695W        W11120   2.710  29.502   3.119
38696W        W11121  22.658  24.936   2.270
38697W        W11122  33.829  19.111  10.671
38698W        W11123  27.669  17.867   2.640
38699W        W11124  40.407  14.114   3.365
38700W        W11125   2.016  40.382   2.301
38701W        W11126  11.679  33.865  13.553
38702W        W11127  30.080   2.508  11.437
38703W        W11128   4.210  19.759   0.097
38704W        W11129  13.583  23.430   4.178
38705W        W11130  21.603  29.696  13.070
38706W        W11131  14.535   9.012   3.365
38707W        W11132  34.236  10.155  11.200
38708W        W11133   8.910  18.137   1.940
38709W        W11134  17.503  39.630   1.033
38710W        W11135  29.361  15.012  11.137
38711W        W11136   3.064   5.696   1.462
38712W        W11137  23.006  44.970  13.897
38713W        W11138  13.655  19.695  10.840
38714W        W11139  37.898  17.012   0.331
38715W        W11140  10.725   5.955  10.306
38716W        W11141   6.630   5.507  14.699
38717W        W11142  29.984  38.691  12.587
38718W        W11143   6.801  28.115   1.730
38719W        W11144   5.965  43.770  12.940
38720W        W11145  44.119   1.291   2.656
38721W        W11146  21.306   7.296  11.712
38722W        W11147  16.000   6.257  11.977
38723W        W11148  28.372   8.579  11.000
38724W        W11149   9.407  15.220   2.349
38725W        W11150  10.879   6.354  14.836
38726W        W11151   3.035  34.619   3.773
38727W        W11152  43.217  23.980   4.091
38728W        W11153   0.671  43.376   4.148
38729W        W11154  32.623  43.445  13.364
38730W        W11155  24.682  37.830  11.920
38731W        W11156  43.715   4.348   3.910
38732W        W11157  30.484  14.027  13.961
38733W        W11158  23.211  34.662   5.082
38734W        W11159  21.130  17.043  11.513
38735W        W11160  22.533  40.847   4.320
38736W        W11161  17.451  34.877   4.080
38737W        W11162   4.924  16.415  12.945
38738W        W11163   5.446  12.152   1.294
38739W        W11164  20.940  29.417   2.625
38740W        W11165   5.589   4.482  11.182
38741W        W11166   7.267  13.915   0.879
38742W        W11167  17.336  25.637  11.810
38743W        W11168  12.667  28.458  14.452
38744W        W11169  10.135  26.069  13.485
38745W        W11170  20.281  25.380   2.715
38746W        W11171   0.835   5.767   3.980
38747W        W11172  22.274  32.869   2.479
38748W        W11173  43.472  30.557  14.302
38749W        W11174  17.604  15.200   4.731
38750W        W11175  44.959  18.590  12.947
38751W        W11176  20.207  16.732  10.653
38752W        W11177  41.962  43.556  12.040
38753W        W11178  26.708  31.227   2.996
38754W        W11179   2.390  21.618  12.358
38755W        W11180  16.304  14.800   0.408
38756W        W11181  11.803  37.594  10.290
38757W        W11182  20.590   2.520  14.877
38758W        W11183  14.384  30.162  14.305
38759W        W11184  43.062   2.981  11.671
38760W        W11185  44.225  25.072   2.830
38761W        W11186  44.173  27.036  14.971
38762W        W11187   1.222  43.327   1.697
38763W        W11188   1.384  12.655  14.484
38764W        W11189  36.321   2.010  10.947
38765W        W11190   2.261  20.398   2.343
38766W        W11191  13.805   3.014  10.686
38767W        W11192   8.238   5.935  14.103
38768W        W11193  37.013  32.079  10.635
38769W        W11194  12.944   3.856   1.364
38770W        W11195  20.677  13.812  12.108
38771W        W11196  12.791  23.025   1.814
38772W        W11197  35.625  20.668   1.897
38773W        W11198   9.587  25.935   2.400
38774W        W11199  36.623  18.153  14.299
38775W        W11200  24.400  29.492   0.369
38776W        W11201  31.277  22.180  13.481
38777W        W11202  44.355  22.902   4.571
38778W        W11203   0.222  31.069  12.888
38779W        W11204   5.155  42.812   3.160
38780W        W11205  36.922   4.338  12.427
38781W        W11206  38.034  28.016  12.106
38782W        W11207  14.202  22.136   3.158
38783W        W11208  35.454  20.044  10.761
38784W        W11209  31.451  32.413   3.850
38785W        W11210  23.181   0.250   4.833
38786W        W11211  24.939   0.780   4.395
38787W        W11212   4.227  31.675   0.904
38788W        W11213   8.198  18.685  12.996
38789W        W11214   3.407  19.568   0.147
38790W        W11215  35.132  33.902  11.149
38791W        W11216  22.321   9.741   3.612
38792W        W11217  43.502  10.063  12.998
38793W        W11218  20.955  37.606  12.947
38794W        W11219  13.313  30.593   5.025
38795W        W11220  16.886  29.133   2.769
38796W        W11221  42.623   7.177   4.374
38797W        W11222  30.442  13.743   2.766
38798W        W11223  10.617  39.447  12.401
38799W        W11224  27.565  13.656   1.673
38800W        W11225   8.175  39.076   0.860
38801W        W11226  25.793  37.573  11.155
38802W        W11227   9.150   9.916  13.888
38803W        W11228  12.175  40.329  12.951
38804W        W11229  38.116  36.714  11.270
38805W        W11230  33.856  17.041  10.905
38806W        W11231  12.670  22.775  10.082
38807W        W11232   3.880   6.802  13.626
38808W        W11233  17.801  37.506   4.035
38809W        W11234  40.929  40.071  11.845
38810W        W11235  28.401  18.464   2.238
38811W        W11236  29.042  15.066   4.353
38812W        W11237  21.108   8.809   4.238
38813W        W11238  26.094  34.120   0.673
38814W        W11239  44.051   8.648   0.445
38815W        W11240   3.497  11.993  14.225
38816W        W11241  12.919   6.993   2.364
38817W        W11242  36.405  37.644   1.752
38818W        W11243  11.815  38.383   3.675
38819W        W11244  30.826  43.351   2.199
38820W        W11245  18.670  44.239  13.649
38821W        W11246  12.537  21.904   0.761
38822W        W11247  28.410  18.841   4.141
38823W        W11248  19.860  20.772  10.774
38824W        W11249   3.514  16.374   1.036
38825W        W11250  17.583  14.196   4.204
38826W        W11251  21.158  20.053  10.462
38827W        W11252   5.245  21.618   2.718
38828W        W11253  15.271  39.121  13.743
38829W        W11254   3.677  27.070  11.196
38830W        W11255   7.149  34.099   1.276
38831W        W11256  21.389  10.274   1.499
38832W        W11257  14.668  41.869  11.516
38833W        W11258  25.233   7.860  12.077
38834W        W11259  27.294   5.179   3.236
38835W        W11260  31.889  44.202   1.316
38836W        W11261  43.811  35.879   0.467
38837W        W11262  32.039  13.789   3.997
38838W        W11263   6.712   7.461   4.642
38839W        W11264  25.854  31.381  13.786
38840W        W11265  40.477  39.924   0.225
38841W        W11266  14.668  10.777  11.709
38842W        W11267  38.792  12.844  10.566
38843W        W11268  10.126  40.002   1.831
38844W        W11269   7.266  36.144  14.404
38845W        W11270  11.231  17.717   4.175
38846W        W11271  27.195  10.114   1.901
38847W        W11272   7.959  10.313  12.365
38848W        W11273   4.291   2.881  11.946
38849W        W11274  20.180  32.261  12.377
38850W        W11275  43.744   1.245  12.948
38851W        W11276   6.749  34.312   0.352
38852W        W11277   4.431  39.380  12.088
38853W        W11278   6.446  21.693  12.027
38854W        W11279  33.921  10.472   0.960
38855W        W11280   8.853  25.785  12.462
38856W        W11281   3.229   9.026   2.312
38857W        W11282  41.771  17.024  13.136
38858W        W11283  11.732  16.071   1.040
38859W        W11284  28.586  15.213   3.090
38860W        W11285   8.872   8.925   2.681
38861W        W11286  37.624  29.466  14.029
38862W        W11287  31.617   1.227  14.549
38863W        W11288  32.173  14.198  10.337
38864W        W11289  21.127  16.691   5.046
38865W        W11290  19.672  16.236   2.196
38866W        W11291  24.074   2.042   2.464
38867W        W11292  15.322  44.804  11.084
38868W        W11293  28.093   2.180  14.010
38869W        W11294  40.632   4.656  10.388
38870W        W11295  18.987   8.910  11.209
38871W        W11296  19.162   1.460  10.525
38872W        W11297  30.553  18.155  10.776
38873W        W11298  40.498  30.602  11.995
38874W        W11299  29.641  18.143   2.310
38875W        W11300  40.454  17.512  11.209
38876W        W11301   3.837  20.813   2.721
38877W        W11302   6.893  28.554  14.460
38878W        W11303  41.520  44.322  14.297
38879W        W11304   5.355  22.179  10.446
38880W        W11305  29.084  26.123  12.180
38881W        W11306   0.228  43.456  11.472
38882W        W11307  11.716  31.380  10.674
38883W        W11308  44.480   7.285  11.404
38884W        W11309   9.784  30.943  10.745
38885W        W11310  11.683  11.180  10.736
38886W        W11311   4.845  43.418  14.768
38887W        W11312  11.887  28.593  10.486
38888W        W11313   7.359  31.549   2.198
38889W        W11314  32.819  20.054  11.840
38890W        W11315   7.290   1.524  12.390
38891W        W11316  10.434   1.789   2.814
38892W        W11317  18.502   1.926   2.350
38893W        W11318  43.942  12.985   2.683
38894W        W11319  21.674  43.274   3.716
38895W        W11320  33.820  33.516   4.156
38896W        W11321  34.551  20.730  13.294
38897W        W11322  23.517  24.542   0.757
38898W        W11323  10.655   9.666   1.297
38899W        W11324  31.357  12.115  13.609
38900W        W11325   2.417  12.737  10.239
38901W        W11326  31.817   3.547  12.736
38902W        W11327   6.412  37.163   3.480
38903W        W11328  11.764  20.724   1.150
38904W        W11329  41.893  39.903   3.898
38905W        W11330  15.277   5.256   0.365
38906W        W11331  19.205   4.396   0.219
38907W        W11332  28.809  11.139   4.181
38908W        W11333  38.323  43.358   5.404
38909W        W11334  37.767   0.024   1.159
38910W        W11335   3.511   6.655   0.456
38911W        W11336  28.013  41.332   2.325
38912W        W11337   7.220  26.580   2.418
38913W        W11338   3.788  42.162   4.109
38914W        W11339   2.970  43.734  12.907
38915W        W11340   5.764  19.969  12.527
38916W        W11341  21.344   4.246   1.207
38917W        W11342  33.341  31.005   0.732
38918W        W11343   7.142  33.460  12.874
38919W        W11344  16.660   8.361   3.752
38920W        W11345  11.552  39.564  11.773
38921W        W11346  13.409   6.762  13.918
38922W        W11347  13.347  20.539   1.945
38923W        W11348  16.417   0.786  10.535
38924W        W11349  25.229  23.403   2.904
38925W        W11350  39.689  40.355  14.905
38926W        W11351  14.154   6.342   2.212
38927W        W11352  41.701  21.501  13.865
38928W        W11353  25.773  16.244  11.499
38929W        W11354  31.728  16.558   0.750
38930W        W11355  33.906   7.175  14.231
38931W        W11356   9.104  34.544   0.556
38932W        W11357  38.852  18.085  14.985
38933W        W11358  35.375   6.152  14.277
38934W        W11359  32.932  26.317  13.402
38935W        W11360  20.159   7.444   4.579
38936W        W11361  30.387   8.850   0.283
38937W        W11362  35.959  11.651   4.146
38938W        W11363   5.473  11.334   0.060
38939W        W11364  36.007  44.529   0.536
38940W        W11365  43.481  40.536  12.875
38941W        W11366  29.187  12.819   3.702
38942W        W11367  24.639  14.499  14.402
38943W        W11368  25.985  13.559  12.399
38944W        W11369  19.735  44.417   3.616
38945W        W11370  22.658  22.026   4.689
38946W        W11371  33.955  21.809   1.713
38947W        W11372   7.056  43.198  14.061
38948W        W11373  43.865   4.908  11.967
38949W        W11374   9.089  27.648  12.876
38950W        W11375  15.651  29.480   3.371
38951W        W11376  44.045  16.097   2.648
38952W        W11377  41.282  20.258  10.761
38953W        W11378  10.761  16.349  12.903
38954W        W11379  29.088  44.868   1.552
38955W        W11380  44.578  22.695   0.864
38956W        W11381   0.762  29.687   2.331
38957W        W11382  25.092  32.134  13.368
38958W        W11383   9.387  25.186   0.925
38959W        W11384  10.594  25.821   3.343
38960W        W11385   3.772  15.724  10.536
38961W        W11386  42.396   0.983   2.781
38962W        W11387   2.232  34.626  12.497
38963W        W11388  15.704  10.658   3.726
38964W        W11389   2.716  35.478   3.258
38965W        W11390  18.677  11.115   2.393
38966W        W11391  44.711  43.839   0.865
38967W        W11392  14.812  20.755   1.732
38968W        W11393  20.531   9.219  10.622
38969W        W11394  13.912  44.945   3.328
38970W        W11395  23.228  32.353   4.583
38971W        W11396  43.928  37.563  11.613
38972W        W11397  43.143  40.522  10.994
38973W        W11398   8.306   3.472  14.413
38974W        W11399   8.924  26.571   3.276
38975W        W11400   2.720   7.573   0.496
38976W        W11401   7.685  34.381   0.004
38977W        W11402  24.202   9.902   1.271
38978W        W11403  16.263   7.630  11.137
38979W        W11404   6.997  16.750   3.611
38980W        W11405  19.608  24.556   4.584
38981W        W11406  31.408   4.807   1.322
38982W        W11407   9.596   9.327   2.634
38983W        W11408  31.354  12.624  14.542
38984W        W11409  32.325   7.915  11.504
38985W        W11410   2.285  44.089  12.533
38986W        W11411  42.002  27.384   0.084
38987W        W11412  30.955  17.643   0.764
38988W        W11413   2.293   7.228   0.225
38989W        W11414  10.007  11.136  11.608
38990W        W11415  21.291   6.226   1.788
38991W        W11416  20.263   0.170  14.489
38992W        W11417   7.482  41.487  10.717
38993W        W11418  26.824  21.499   0.179
38994W        W11419  11.064  24.092  12.353
38995W        W11420  33.878  36.058  11.066
38996W        W11421   2.853  43.517   3.748
38997W        W11422  44.784  10.620  14.361
38998W        W11423  11.852   9.368  14.308
38999W        W11424  39.881  30.092   3.647
39000W        W11425   2.841  12.622  10.562
39001W        W11426  36.484  27.657   4.894
39002W        W11427  19.305   2.775  11.553
39003W        W11428  40.033  36.253  13.269
39004W        W11429  37.943  25.929   3.719
39005W        W11430  39.340  12.381  13.291
39006W        W11431  22.485  31.181  11.111
39007W        W11432  24.718  19.542  13.541
39008W        W11433  22.232  35.857  11.111
39009W        W11434  27.900  44.028  13.553
39010W        W11435  35.457  21.237   4.753
39011W        W11436  42.882  20.926  13.729
39012W        W11437  29.553  26.956  14.230
39013W        W11438  35.960  24.689   1.970
39014W        W11439  37.930  37.338   3.708
39015W        W11440  21.626  15.836   0.354
39016W        W11441  29.205  23.208  13.861
39017W        W11442   1.910   7.789  11.250
39018W        W11443  42.810  25.233   0.388
39019W        W11444   9.183  36.677  10.163
39020W        W11445  34.867  29.561  11.479
39021W        W11446  41.521   9.626   2.922
39022W        W11447  31.931  22.944  14.364
39023W        W11448  13.103   6.800   0.762
39024W        W11449  27.205   1.923  12.044
39025W        W11450  16.785  28.658   1.770
39026W        W11451   3.790   5.945   0.029
39027W        W11452  13.664  14.309  12.125
39028W        W11453  36.065  33.183   2.146
39029W        W11454   8.329  42.061   2.778
39030W        W11455  23.338  23.784  10.413
39031W        W11456  20.083   1.413  13.910
39032W        W11457  39.845  29.146   3.067
39033W        W11458  25.475  37.386  12.066
39034W        W11459  33.022  34.152  12.490
39035W        W11460  34.404  30.173  10.473
39036W        W11461   4.869  18.370  11.918
39037W        W11462  28.576  31.222   3.245
39038W        W11463  37.784  26.521   0.313
39039W        W11464   3.266   2.511   1.744
39040W        W11465   6.197  33.089   1.745
39041W        W11466   3.369  15.537   4.125
39042W        W11467   6.379  10.096  10.226
39043W        W11468  31.658  14.128  11.169
39044W        W11469  44.848  23.109  12.945
39045W        W11470  31.607  19.296   2.820
39046W        W11471  39.006  42.920   3.595
39047W        W11472   9.390  30.364   2.631
39048W        W11473  12.024  39.316   0.800
39049W        W11474  38.449  20.624   1.603
39050W        W11475   0.305  15.189  14.788
39051W        W11476  11.852  17.810   0.019
39052W        W11477  28.656  10.624  10.437
39053W        W11478  14.350  15.264  12.576
39054W        W11479  43.338  12.689  11.217
39055W        W11480  28.420  37.207  14.890
39056W        W11481  28.825  33.547   2.223
39057W        W11482  40.243   3.394  13.349
39058W        W11483   0.684  22.267   4.158
39059W        W11484  34.620  14.567  10.808
39060W        W11485  20.382   2.323   4.650
39061W        W11486  20.717  21.475   4.365
39062W        W11487   5.460  38.793  13.548
39063W        W11488  43.435  35.563  14.293
39064W        W11489   9.401  17.006   9.932
39065W        W11490  24.447  31.740  12.501
39066W        W11491   4.158  16.804  14.419
39067W        W11492   4.192  35.258   1.448
39068W        W11493  37.791  36.089  12.035
39069W        W11494  18.065  35.768   0.546
39070W        W11495   2.124  21.601  11.902
39071W        W11496   0.787  16.916   2.596
39072W        W11497  37.820  26.575  13.421
39073W        W11498  39.119  14.760   3.758
39074W        W11499  38.058   8.103   3.163
39075W        W11500  22.235  14.990  14.268
39076W        W11501  14.387  13.600   3.586
39077W        W11502  18.066  30.162   1.553
39078W        W11503  37.489  19.153  14.269
39079W        W11504   2.672  15.892  14.294
39080W        W11505  11.957  19.258  11.597
39081W        W11506  13.887  23.463   0.413
39082W        W11507  24.140   5.597  13.316
39083W        W11508   9.224  31.258  12.715
39084W        W11509  27.772  37.573   4.927
39085W        W11510  26.243  39.482  14.003
39086W        W11511  32.853  14.553  14.028
39087W        W11512  13.296  20.639  10.935
39088W        W11513  25.337  24.716  14.404
39089W        W11514   2.405  10.337  14.493
39090W        W11515   5.327  19.165  13.939
39091W        W11516   9.166   0.311  14.353
39092W        W11517  30.084  13.304   1.275
39093W        W11518  25.578  40.390  10.498
39094W        W11519  23.042  40.124  14.875
39095W        W11520   3.281  36.482   1.303
39096W        W11521  40.518   7.069   0.421
39097W        W11522  14.290  21.448  11.134
39098W        W11523  24.683   6.190   3.141
39099W        W11524  11.117  44.042   4.038
39100W        W11525  28.071  40.574   4.112
39101W        W11526   0.927   8.234   2.763
39102W        W11527  23.562  38.775   0.043
39103W        W11528   6.822   6.934   2.807
39104W        W11529  16.915  10.103   1.828
39105W        W11530  21.305  34.491   3.926
39106W        W11531   7.627   9.731   0.291
39107W        W11532  41.523   5.682   1.011
39108W        W11533   8.655  14.647  14.634
39109W        W11534  43.505  28.633  10.815
39110W        W11535   8.905   7.199  12.067
39111W        W11536  38.468  40.528   3.182
39112W        W11537  23.717   7.787  10.568
39113W        W11538  19.536  26.520   3.100
39114W        W11539   8.264  20.449   4.185
39115W        W11540  14.409  23.513   0.327
39116W        W11541  25.039   5.253   2.197
39117W        W11542  14.918  10.866   2.606
39118W        W11543  40.555   5.468   3.849
39119W        W11544   1.248  13.722   2.810
39120W        W11545  26.022   6.214  13.348
39121W        W11546  10.117   5.321  14.875
39122W        W11547  24.114   3.687   3.844
39123W        W11548   6.301   5.434   1.783
39124W        W11549  34.624   2.392  12.129
39125W        W11550  11.926  43.519   3.187
39126W        W11551  37.320  29.697   3.877
39127W        W11552  10.976  20.026   0.378
39128W        W11553  36.529  15.032   2.783
39129W        W11554  30.669  14.271   3.709
39130W        W11555   3.430   4.686   3.231
39131W        W11556  10.200  12.770  13.411
39132W        W11557  37.483  36.490   3.600
39133W        W11558  29.657  22.518  11.990
39134W        W11559  37.898   7.848   4.408
39135W        W11560  30.912  36.984   4.566
39136W        W11561  25.940  20.254  12.662
39137W        W11562   2.495  25.760  13.901
39138W        W11563  26.528   5.023   1.355
39139W        W11564  10.009  41.763  13.069
39140W        W11565  16.305  30.503  10.701
39141W        W11566  42.211   1.575   1.743
39142W        W11567  27.400  28.939  14.004
39143W        W11568   2.834   8.709   4.588
39144W        W11569   7.173  40.578  10.856
39145W        W11570   2.753  24.481   4.925
39146W        W11571  39.685  29.106  14.361
39147W        W11572  44.614   7.312   9.798
39148W        W11573  32.165  43.483  13.126
39149W        W11574  15.206  39.458  14.284
39150W        W11575  43.823  36.338  13.858
39151W        W11576  10.870  34.370   3.295
39152W        W11577  26.184   0.967  14.857
39153W        W11578  17.880  38.528   2.384
39154W        W11579  18.376   5.370  10.651
39155W        W11580   9.740  20.232  12.032
39156W        W11581  10.191  20.245  12.872
39157W        W11582  15.329  11.787  11.561
39158W        W11583  14.311   2.958  12.799
39159W        W11584  21.397  14.186  14.812
39160W        W11585  28.573  44.227  12.412
39161W        W11586  16.688  20.833  14.832
39162W        W11587  35.535  41.089  11.487
39163W        W11588  20.766  36.630  14.360
39164W        W11589  15.733  41.415  11.991
39165W        W11590  40.936  12.590  13.959
39166W        W11591  44.362  29.941  12.029
39167W        W11592  40.399   5.360   3.372
39168W        W11593  41.856  30.582   1.707
39169W        W11594  23.804  22.452   0.736
39170W        W11595  20.203   6.281   4.250
39171W        W11596  30.055  26.686  12.484
39172W        W11597  21.113  32.226  12.047
39173W        W11598  28.428  29.605   4.307
39174W        W11599   1.497  30.689  13.876
39175W        W11600  35.091   7.419  12.446
39176W        W11601  23.428   1.514   2.511
39177W        W11602  21.420  11.797   1.343
39178W        W11603  10.688  21.802  13.934
39179W        W11604  19.727  39.705  10.806
39180W        W11605  43.451  35.922   4.444
39181W        W11606  28.418  17.707   0.767
39182W        W11607  32.942   1.758   3.199
39183W        W11608  35.700   4.375  14.965
39184W        W11609  11.647  14.084  13.460
39185W        W11610  31.747   8.065  13.545
39186W        W11611  22.451  29.414   3.731
39187W        W11612   2.477   8.228   2.149
39188W        W11613   1.734  34.933   1.056
39189W        W11614  32.476  34.016  10.921
39190W        W11615  38.730  43.494  11.923
39191W        W11616  18.762  25.956  12.468
39192W        W11617   6.301  28.852  10.184
39193W        W11618  12.890   9.143   5.076
39194W        W11619  21.485  44.809   3.768
39195W        W11620  43.064  41.343  12.910
39196W        W11621   9.106  12.109  11.480
39197W        W11622  44.271  32.709   1.423
39198W        W11623  33.123  27.420   2.668
39199W        W11624   9.078  21.285   2.136
39200W        W11625  44.381  34.147   3.204
39201W        W11626  36.898  39.278   4.145
39202W        W11627  43.655   7.757  13.903
39203W        W11628  18.296  24.140   3.279
39204W        W11629  26.476   7.296   0.848
39205W        W11630  22.653  10.153  11.739
39206W        W11631   8.434  35.964  13.540
39207W        W11632  23.002  28.497  10.953
39208W        W11633  31.188   6.104   3.333
39209W        W11634  11.217  37.880   2.981
39210W        W11635   8.885   1.516  14.234
39211W        W11636   8.138  21.583  11.409
39212W        W11637   7.632   7.643  12.563
39213W        W11638   5.392  28.193   2.259
39214W        W11639   1.670  39.318   3.284
39215W        W11640  28.988  22.254  13.792
39216W        W11641   8.799  34.469  10.812
39217W        W11642  27.400  17.386   1.790
39218W        W11643  38.107  33.116  11.633
39219W        W11644  22.257  18.283   3.662
39220W        W11645   3.217  32.199   1.106
39221W        W11646  43.425  28.292   4.939
39222W        W11647   3.347  18.020   1.202
39223W        W11648   5.441   1.699   0.902
39224W        W11649  36.494  41.828  14.590
39225W        W11650  19.593  17.077   3.378
39226W        W11651  34.993  17.163  14.810
39227W        W11652  12.145  14.829   0.897
39228W        W11653  15.688   8.209   3.449
39229W        W11654  35.146   5.377   4.911
39230W        W11655   0.185  14.297   3.141
39231W        W11656  16.033  39.613  12.537
39232W        W11657  32.811  18.247  14.292
39233W        W11658   9.754  21.200   2.598
39234W        W11659  43.253  29.910   4.487
39235W        W11660   7.612  33.142  12.512
39236W        W11661  25.576   8.908   0.039
39237W        W11662  33.850  11.207  11.557
39238W        W11663   3.738  32.454   2.618
39239W        W11664  36.824  16.792  14.566
39240W        W11665  37.336   3.545   4.911
39241W        W11666  22.191  24.902  14.994
39242W        W11667   7.691  10.755  12.441
39243W        W11668  39.456  17.991   1.734
39244W        W11669   2.317   1.670   3.417
39245W        W11670   8.367  13.236  12.134
39246W        W11671  43.866  25.468  14.458
39247W        W11672  18.184  16.330   3.585
39248W        W11673  40.641  44.797  14.736
39249W        W11674  12.710  29.555  12.397
39250W        W11675  36.135   8.286  12.038
39251W        W11676   5.205  24.035  13.803
39252W        W11677  34.540  16.379  14.601
39253W        W11678  44.859   8.104   0.504
39254W        W11679   4.197  11.665  12.941
39255W        W11680  24.744  42.957  11.425
39256W        W11681  32.503  21.810  10.622
39257W        W11682   8.825  38.953  14.063
39258W        W11683  40.552   0.182  11.567
39259W        W11684  26.735  24.316  11.631
39260W        W11685   4.011  33.488   3.183
39261W        W11686  10.173  40.878  12.814
39262W        W11687  14.704  14.165   1.146
39263W        W11688  20.060   9.591  12.522
39264W        W11689  44.909  18.050   4.150
39265W        W11690   0.996  26.117  11.263
39266W        W11691   1.402  36.921   4.644
39267W        W11692  40.324  36.887  11.102
39268W        W11693  14.196  43.899  13.526
39269W        W11694  41.949  16.705   1.875
39270W        W11695  12.361  44.613   0.038
39271W        W11696   8.174   5.429  10.496
39272W        W11697  35.555   6.561  10.963
39273W        W11698  28.059  30.073   4.751
39274W        W11699  44.194  13.165   5.172
39275W        W11700   7.713  27.461   4.585
39276W        W11701  26.876   3.606  14.574
39277W        W11702  16.233   6.976  13.915
39278W        W11703  10.422  41.044   1.339
39279W        W11704   1.794  22.820   4.703
39280W        W11705   5.286  12.183  12.762
39281W        W11706  38.785   0.585  11.921
39282W        W11707  32.294  11.210   2.253
39283W        W11708  41.066  36.588  13.331
39284W        W11709  17.548  10.804   0.440
39285W        W11710   4.823  18.776  11.588
39286W        W11711  42.310  31.140  13.183
39287W        W11712  37.550  36.061   4.325
39288W        W11713  42.313  25.489   2.711
39289W        W11714  13.760  17.329   0.531
39290W        W11715   8.778  14.100   3.767
39291W        W11716  39.069  44.098  11.338
39292W        W11717  26.262   1.840  14.786
39293W        W11718  30.463   7.598   2.813
39294W        W11719   5.908   2.441  14.951
39295W        W11720  37.051   1.417  10.612
39296W        W11721   8.707  26.156  11.274
39297W        W11722   8.678   9.551  13.025
39298W        W11723  41.898  27.635   4.355
39299W        W11724  20.560  18.671   4.017
39300W        W11725  17.749  40.871   0.491
39301W        W11726  14.172  11.455   3.697
39302W        W11727  41.420  30.309   4.564
39303W        W11728   6.698  32.962   4.350
39304W        W11729  37.365  30.681   4.159
39305W        W11730  40.028  12.137   2.392
39306W        W11731   8.765  19.758   0.728
39307W        W11732  27.718   5.840  12.085
39308W        W11733   8.331  14.370  11.959
39309W        W11734  31.881  41.815  12.584
39310W        W11735  29.437  14.734   1.189
39311W        W11736  39.100  41.066   2.084
39312W        W11737   8.994  44.277  13.462
39313W        W11738  25.686  42.187  14.823
39314W        W11739  39.492  43.480   2.111
39315W        W11740  23.958   2.418  13.379
39316W        W11741  42.945  37.868   4.610
39317W        W11742  25.634   2.336   2.295
39318W        W11743  12.219  12.373  10.749
39319W        W11744   9.887  16.058   1.916
39320W        W11745  33.560  17.609  13.989
39321W        W11746  27.866  21.051  11.718
39322W        W11747  39.410   6.668  11.504
39323W        W11748  13.655  10.745   4.112
39324W        W11749  27.618  26.422   2.365
39325W        W11750  18.362  14.372  11.195
39326W        W11751   3.997  18.960   4.006
39327W        W11752  27.637  36.110  14.107
39328W        W11753   4.285  26.501   0.361
39329W        W11754  26.684  31.473   4.601
39330W        W11755  34.976   4.950  12.609
39331W        W11756  38.670  18.807  11.050
39332W        W11757   8.675   8.869   3.165
39333W        W11758   6.184  10.799  14.800
39334W        W11759  40.365   7.647   0.828
39335W        W11760   8.139  33.403  13.140
39336W        W11761   0.816  15.528   2.375
39337W        W11762  31.077   7.375   1.561
39338W        W11763  17.624   9.412   0.925
39339W        W11764  29.184  13.101   4.138
39340W        W11765   9.001  17.175   1.014
39341W        W11766  13.709  38.001  14.977
39342W        W11767   4.867  15.563   1.911
39343W        W11768  35.436  24.139   5.457
39344W        W11769  15.607  25.540   1.301
39345W        W11770  34.379  34.397   0.401
39346W        W11771  11.898  38.875   4.603
39347W        W11772  12.601  26.075  12.977
39348W        W11773  27.203  26.865   3.487
39349W        W11774  14.279  11.603  11.480
39350W        W11775  14.231  24.704   2.862
39351W        W11776  40.016  32.340   0.279
39352W        W11777  27.004  31.516  14.300
39353W        W11778   9.341  26.508   1.346
39354W        W11779  21.181  37.811  12.434
39355W        W11780   9.637   5.398  11.532
39356W        W11781  20.779   7.149   2.757
39357W        W11782  44.924  12.608  13.468
39358W        W11783  30.305  18.066  14.418
39359W        W11784   0.939  41.800   3.184
39360W        W11785  16.678  15.835  12.461
39361W        W11786   4.486  10.632  12.507
39362W        W11787  32.484   6.753  12.187
39363W        W11788  38.767  11.116  10.392
39364W        W11789  41.513  22.121   0.533
39365W        W11790  23.627  23.005  14.027
39366W        W11791   5.821  30.616   4.399
39367W        W11792  39.061  31.559  14.938
39368W        W11793  10.206  44.185   0.508
39369W        W11794   1.014  14.771  10.479
39370W        W11795   6.603  22.172   1.719
39371W        W11796   9.249  26.031   3.637
39372W        W11797  36.666  35.152  13.441
39373W        W11798  20.000  26.186   3.543
39374W        W11799   1.767  29.012   1.371
39375W        W11800  19.622  38.476   3.573
39376W        W11801   0.029  20.561  12.041
39377W        W11802  27.032  41.749   3.652
39378W        W11803   5.409   5.849  11.043
39379W        W11804  38.309  37.607   4.547
39380W        W11805  30.582   2.390   4.724
39381W        W11806   8.443  21.204  13.906
39382W        W11807  25.528  32.172  13.993
39383W        W11808  27.322   1.410   1.216
39384W        W11809  28.304  26.204  10.302
39385W        W11810   2.757  40.395  13.629
39386W        W11811  24.240  42.866  11.432
39387W        W11812  37.737  28.596  11.489
39388W        W11813  12.750  29.414  11.031
39389W        W11814   8.680  38.947   3.997
39390W        W11815  39.303  37.464   3.207
39391W        W11816  18.424  17.728   4.891
39392W        W11817   2.905  25.966   0.249
39393W        W11818  41.414  33.401   0.381
39394W        W11819  37.540  18.131   1.600
39395W        W11820  44.398  31.604   0.802
39396W        W11821  36.484  25.897   2.265
39397W        W11822  27.744   4.633   3.128
39398W        W11823   7.541  12.462   1.767
39399W        W11824  42.996  25.423   0.839
39400W        W11825  34.305  14.055  13.866
39401W        W11826   0.460  24.657  11.156
39402W        W11827   6.877   2.758  10.687
39403W        W11828  37.310  40.540   0.476
39404W        W11829  20.127   6.735  11.000
39405W        W11830   3.450  13.288   2.298
39406W        W11831  29.075  14.516  11.963
39407W        W11832   9.948  20.820  10.597
39408W        W11833  38.791  13.601   2.856
39409W        W11834   1.767  29.888   0.871
39410W        W11835   0.664  33.641  14.894
39411W        W11836  13.224   5.110  11.028
39412W        W11837  12.152  19.552  11.172
39413W        W11838  44.142  12.683  13.010
39414W        W11839  21.778  33.065  13.510
39415W        W11840  18.147  44.840   3.991
39416W        W11841  23.597  31.252   1.815
39417W        W11842   4.473  19.228   0.757
39418W        W11843  38.573   5.807  14.403
39419W        W11844  33.460   2.119  12.377
39420W        W11845   5.480  25.545   0.351
39421W        W11846   9.104  13.895  11.964
39422W        W11847  13.576  26.316  13.392
39423W        W11848   0.393   9.957  13.429
39424W        W11849  42.424   0.396  13.423
39425W        W11850   1.359  23.200   1.274
39426W        W11851   3.956  36.431   1.847
39427W        W11852  35.343  19.003   2.167
39428W        W11853   0.902  31.064  13.453
39429W        W11854   8.812  28.965  14.809
39430W        W11855  42.791  27.611  14.014
39431W        W11856  38.661  30.183   1.603
39432W        W11857   1.969   2.993   0.318
39433W        W11858  21.999  38.945   2.314
39434W        W11859  24.017  40.289  13.456
39435W        W11860  43.480  38.482   3.625
39436W        W11861  11.847  44.198  11.041
39437W        W11862  19.452  36.959   1.426
39438W        W11863  29.350   3.228   0.006
39439W        W11864  39.527  15.230  13.862
39440W        W11865  21.737  10.504  13.896
39441W        W11866  23.248  28.095  14.771
39442W        W11867  36.160  24.001   3.308
39443W        W11868   8.203   2.554   1.965
39444W        W11869  10.698   9.287   9.695
39445W        W11870   7.917  20.112  10.695
39446W        W11871  38.750  14.663  11.071
39447W        W11872  32.452  31.195   0.273
39448W        W11873  12.232  23.310   5.225
39449W        W11874  43.757  35.701  11.664
39450W        W11875   6.337  30.277   3.160
39451W        W11876   0.111  13.359   4.351
39452W        W11877  36.331  22.472  13.781
39453W        W11878   2.206  18.088   3.332
39454W        W11879  16.825  24.861  11.791
39455W        W11880  23.972  32.150  14.840
39456W        W11881  36.924   8.790  13.420
39457W        W11882  31.399  10.372   0.730
39458W        W11883  28.182  16.023  12.523
39459W        W11884  36.100  41.815   3.772
39460W        W11885  20.726  11.523   4.218
39461W        W11886  10.703  10.184  13.986
39462W        W11887  35.602  34.456  13.591
39463W        W11888  26.882  18.068   3.664
39464W        W11889  44.345  20.052  13.383
39465W        W11890  31.481   0.319  12.006
39466W        W11891   1.652  28.256  13.508
39467W        W11892  34.884  29.681  10.462
39468W        W11893  17.812  26.487   4.199
39469W        W11894  42.531  25.957   2.805
39470W        W11895  10.398   0.563   2.357
39471W        W11896  31.994  36.553  14.087
39472W        W11897  15.201  27.059   0.738
39473W        W11898  20.463  42.256  12.048
39474W        W11899  31.307   7.648   1.968
39475W        W11900   6.650  14.592  14.525
39476W        W11901  25.843  23.372   1.907
39477W        W11902   2.248  10.295   2.863
39478W        W11903  39.917  16.046   2.349
39479W        W11904  44.230  17.635  12.951
39480W        W11905  33.194  42.885   4.142
39481W        W11906  33.840   6.717  12.698
39482W        W11907  10.846  20.754  14.921
39483W        W11908  42.758  31.694   4.448
39484W        W11909  43.079  38.422  14.941
39485W        W11910  26.082  43.803  12.803
39486W        W11911  26.176  13.638   1.563
39487W        W11912   6.180  15.965  13.922
39488W        W11913  16.729   6.775  14.260
39489W        W11914  40.304   2.270   2.089
39490W        W11915   6.194   2.261   3.652
39491W        W11916  31.732  14.106   3.727
39492W        W11917  38.041  15.581  11.507
39493W        W11918  36.937  28.944  12.833
39494W        W11919  16.761  31.649   3.135
39495W        W11920   6.372  23.030   1.607
39496W        W11921  44.960  34.995  13.430
39497W        W11922  10.597  30.920   0.398
39498W        W11923   4.770  29.672  12.586
39499W        W11924  12.650  42.432   0.361
39500W        W11925   6.365  42.778   0.802
39501W        W11926  37.060  12.785   1.513
39502W        W11927   6.281  22.926   4.156
39503W        W11928  37.659   4.993   5.083
39504W        W11929   9.894   0.832   4.885
39505W        W11930   7.885  37.145  12.543
39506W        W11931  42.568  42.452  14.952
39507W        W11932  28.288  10.959   1.771
39508W        W11933  39.185   9.893   2.685
39509W        W11934  28.386  16.818  12.010
39510W        W11935  40.641  19.708  13.454
39511W        W11936  30.541   3.768   3.695
39512W        W11937   4.689  40.781   0.823
39513W        W11938  35.800   6.278  12.922
39514W        W11939  19.127  19.279  10.454
39515W        W11940  27.493  18.022   3.107
39516W        W11941   3.833  16.104  14.249
39517W        W11942  31.008  12.938   3.699
39518W        W11943  22.596   6.798   4.144
39519W        W11944  15.624   6.137  10.640
39520W        W11945  39.800   2.304   3.199
39521W        W11946  39.839   9.693   0.770
39522W        W11947  23.031  17.975  11.536
39523W        W11948   9.352  41.928   3.704
39524W        W11949  39.582  24.776   0.513
39525W        W11950  29.822  17.659   4.201
39526W        W11951  37.380  14.069  14.817
39527W        W11952  26.821  13.202   4.543
39528W        W11953  13.748  32.426  12.438
39529W        W11954  37.905   2.524   1.800
39530W        W11955   5.979  32.437   3.280
39531W        W11956  43.438  29.912  13.458
39532W        W11957  31.562  43.667   4.218
39533W        W11958  22.585   3.985   4.557
39534W        W11959  36.323  27.631   0.846
39535W        W11960  35.635  21.639   4.101
39536W        W11961  36.784  22.748   5.395
39537W        W11962  23.235   3.146   1.494
39538W        W11963  20.679  28.153  12.915
39539W        W11964  37.589   1.437   4.241
39540W        W11965   1.328  31.946   3.318
39541W        W11966  27.712  26.599   1.827
39542W        W11967   3.050  17.545   3.333
39543W        W11968   2.418  28.082  13.054
39544W        W11969   1.408  30.706  10.597
39545W        W11970  34.905  11.834  11.111
39546W        W11971  15.648  25.231  10.946
39547W        W11972  33.485  10.638  10.605
39548W        W11973  34.048  12.447  12.597
39549W        W11974  32.157  23.707   1.326
39550W        W11975  36.566  43.421  14.983
39551W        W11976  39.552  26.024  12.436
39552W        W11977   7.592  16.475   0.321
39553W        W11978  21.579  13.709  12.561
39554W        W11979  22.926   7.898  12.993
39555W        W11980  31.543  31.920   4.675
39556W        W11981  13.649  15.589   3.266
39557W        W11982   0.985  28.450   3.744
39558W        W11983  43.409   5.671   4.442
39559W        W11984   9.917  35.279  12.511
39560W        W11985  22.486   1.811   1.396
39561W        W11986  20.440   4.218   1.934
39562W        W11987   1.024  24.556   0.729
39563W        W11988  17.242  21.735  13.044
39564W        W11989  24.273  30.446   3.215
39565W        W11990  33.425  33.074   0.752
39566W        W11991   8.758  34.903   2.711
39567W        W11992  32.443   0.903  10.654
39568W        W11993  15.067   8.902   3.628
39569W        W11994  17.340  30.240  12.588
39570W        W11995   3.129   0.600   3.126
39571W        W11996  37.880  25.202   5.137
39572W        W11997  28.027  32.366   2.079
39573W        W11998   0.144  12.061  12.055
39574W        W11999  11.760  13.415   2.677
39575W        W12000  35.520   0.278   3.660
39576W        W12001  15.171   9.783   1.201
39577W        W12002  44.221   2.272  13.889
39578W        W12003  30.623  12.684  11.244
39579W        W12004  13.759  38.331   4.940
39580W        W12005  35.915  23.023  14.334
39581W        W12006  21.058  20.942  13.813
39582W        W12007  28.069  38.129  13.593
39583W        W12008  37.478  17.249  11.911
39584W        W12009  14.021  25.672   0.534
39585W        W12010  32.563  37.706   4.589
39586W        W12011  35.129  31.552   3.251
39587W        W12012   8.939  22.213  14.096
39588W        W12013   5.310  18.143  13.330
39589W        W12014  33.930  38.763   0.089
39590W        W12015  25.572  28.187  12.065
39591W        W12016  19.201  34.846   4.876
39592W        W12017  32.951   7.684   4.551
39593W        W12018  39.410   6.800  12.471
39594W        W12019  20.041   3.163   1.264
39595W        W12020  25.692  30.717   2.676
39596W        W12021  41.855  18.293  14.089
39597W        W12022  30.444  18.231   3.407
39598W        W12023  13.114  12.425   4.100
39599W        W12024  11.612  12.512  10.382
39600W        W12025  30.591   3.874   4.876
39601W        W12026  33.559  36.602   0.010
39602W        W12027  26.205  19.237   4.692
39603W        W12028  41.613  11.006  11.406
39604W        W12029  42.281   3.361   0.729
39605W        W12030  17.506  36.168  12.377
39606W        W12031  29.752  39.835   2.877
39607W        W12032  25.086  41.297   0.185
39608W        W12033   4.268  20.269   3.723
39609W        W12034  31.502  31.728  12.984
39610W        W12035  21.992   5.233   2.298
39611W        W12036  11.790  13.756   0.673
39612W        W12037  33.148  28.196   1.303
39613W        W12038  18.589  44.665   1.816
39614W        W12039  40.827  27.634  11.010
39615W        W12040   8.624  31.187   1.878
39616W        W12041  11.336  42.927   2.726
39617W        W12042   3.753  11.587   0.323
39618W        W12043  34.347  23.718   3.240
39619W        W12044  12.417  40.285   0.486
39620W        W12045  37.425  10.144  14.706
39621W        W12046   0.104  27.089   0.957
39622W        W12047  44.142  32.953   2.195
39623W        W12048  33.067  40.814  12.937
39624W        W12049  15.774  20.542   3.079
39625W        W12050   3.954  14.721   3.662
39626W        W12051  41.254  10.231   0.161
39627W        W12052  44.825  21.261  12.677
39628W        W12053  35.416   2.277  12.624
39629W        W12054  16.784  34.024  12.974
39630W        W12055  28.038  27.397  14.710
39631W        W12056   8.934   2.939  10.873
39632W        W12057  36.352  19.196  11.093
39633W        W12058  41.211   8.293   1.770
39634W        W12059   0.927   3.425  11.197
39635W        W12060  33.959   3.250   4.526
39636W        W12061  17.332  20.607  13.532
39637W        W12062  31.735  18.422   5.018
39638W        W12063   8.655   7.199   0.520
39639W        W12064  30.480  25.114  12.289
39640W        W12065  13.469  44.933  12.115
39641W        W12066  14.742  41.796   1.928
39642W        W12067  10.263   3.624   3.947
39643W        W12068   4.139  18.952   0.436
39644W        W12069  19.813  17.761  13.905
39645W        W12070  44.500  22.412   4.667
39646W        W12071  30.803   6.910   2.926
39647W        W12072  10.433  40.456   1.781
39648W        W12073  17.087  36.703   4.198
39649W        W12074  25.330  31.714  13.131
39650W        W12075  28.740  43.933   2.857
39651W        W12076  19.155   8.171   0.987
39652W        W12077  40.567  12.682  13.097
39653W        W12078  17.115   7.728  14.221
39654W        W12079  26.254  23.584  11.679
39655W        W12080  31.829  11.681  11.987
39656W        W12081  30.835  43.990   2.842
39657W        W12082  17.453  14.844  12.028
39658W        W12083   5.216  14.751   2.070
39659W        W12084  35.449  21.808  12.019
39660W        W12085  28.229   6.661  13.255
39661W        W12086  41.195  36.555   2.191
39662W        W12087  32.989  12.193  12.111
39663W        W12088  43.968   7.256   0.850
39664W        W12089  22.647  22.508  13.967
39665W        W12090  10.116  30.146  13.714
39666W        W12091  12.596  27.969  14.284
39667W        W12092  36.529  32.937   3.166
39668W        W12093   8.684  22.715   1.893
39669W        W12094  30.288  41.868  12.438
39670W        W12095  12.850   3.029   4.819
39671W        W12096  41.493  23.916  11.122
39672W        W12097  10.119  18.018   1.689
39673W        W12098  12.126  10.107   2.371
39674W        W12099  43.921  31.197   3.735
39675W        W12100  36.512  36.965   0.192
39676W        W12101   5.356  13.138  14.362
39677W        W12102  18.454  33.068  11.572
39678W        W12103  10.176  34.882   2.917
39679W        W12104  25.373  21.079  12.397
39680W        W12105   7.427  44.252  12.569
39681W        W12106  27.683  13.398  13.595
39682W        W12107  33.924   1.940  12.945
39683W        W12108  37.497  11.734  10.711
39684W        W12109   2.494  39.888  10.707
39685W        W12110  40.512  44.947   0.223
39686W        W12111  34.121  18.078   2.220
39687W        W12112  39.437  35.318   2.272
39688W        W12113  37.409  11.654  12.349
39689W        W12114  39.658  17.652   2.605
39690W        W12115  11.839  32.591  12.074
39691W        W12116  39.624   1.831   2.020
39692W        W12117   6.237   6.895   4.240
39693W        W12118  32.098  38.530   1.307
39694W        W12119  20.572  28.007  11.396
39695W        W12120  32.511  17.579   0.576
39696W        W12121  38.839  43.113  11.618
39697W        W12122   6.596  19.790   3.175
39698W        W12123   1.816  22.950   2.844
39699W        W12124  14.843  21.639   2.339
39700W        W12125  25.533  34.507   1.525
39701W        W12126  36.237   6.665   4.089
39702W        W12127  10.722  39.468  14.025
39703W        W12128   1.861  39.205  10.757
39704W        W12129   2.362  31.472   4.534
39705W        W12130   1.237  15.677   0.736
39706W        W12131  11.825  26.868  14.339
39707W        W12132  15.976  32.207   4.366
39708W        W12133  42.804  33.595  11.569
39709W        W12134   4.307   1.277   0.506
39710W        W12135  11.262  32.985   2.207
39711W        W12136  27.533  18.555   2.352
39712W        W12137  27.215   8.701   2.671
39713W        W12138   7.246  25.600   2.350
39714W        W12139  17.703  13.226   3.409
39715W        W12140   8.470  11.789  13.041
39716W        W12141  24.780   9.298   4.623
39717W        W12142  30.173  22.534   1.808
39718W        W12143   5.527  35.172   1.388
39719W        W12144  30.822   9.180   3.970
39720W        W12145  25.632  30.145   3.894
39721W        W12146  36.399  24.467   3.362
39722W        W12147  16.721  30.159   2.861
39723W        W12148  37.357  30.910  12.806
39724W        W12149  44.864   7.405  13.581
39725W        W12150  20.585  20.905   0.939
39726W        W12151  17.347  37.372  13.698
39727W        W12152  42.371  30.070  13.019
39728W        W12153  37.469  43.249  11.694
39729W        W12154  37.333  20.522  14.997
39730W        W12155  39.764  29.138  13.001
39731W        W12156  25.516   9.409  11.515
39732W        W12157  31.925  41.077   2.662
39733W        W12158   6.821  23.261   2.700
39734W        W12159  36.471  32.888   2.630
39735W        W12160   4.436   5.427  13.385
39736W        W12161  43.427  38.215   1.838
39737W        W12162  42.251   9.142  14.276
39738W        W12163  25.449  20.058  12.781
39739W        W12164  27.633   2.935  10.973
39740W        W12165   6.060  44.017  12.264
39741W        W12166  41.343  42.383   3.853
39742W        W12167  10.755   3.375  13.013
39743W        W12168   9.896  37.630  11.896
39744W        W12169  44.316  17.179  14.242
39745W        W12170  19.012  10.352  12.913
39746W        W12171  32.457  19.060   0.704
39747W        W12172   6.327  14.200  13.425
39748W        W12173   6.263  35.938   0.026
39749W        W12174  21.011   7.709   4.521
39750W        W12175  16.322  10.913  11.457
39751W        W12176   0.593  38.274   3.258
39752W        W12177  27.671  26.084   0.785
39753W        W12178   7.492  18.793   0.704
39754W        W12179   3.709   7.769   1.811
39755W        W12180  35.212  25.958   3.206
39756W        W12181   1.776  42.133  11.171
39757W        W12182   1.943  31.958  11.324
39758W        W12183   4.228  37.487  11.166
39759W        W12184   3.460  15.532   2.157
39760W        W12185   4.961  39.807   3.110
39761W        W12186   2.642  12.642   0.757
39762W        W12187  26.158  21.055  14.108
39763W        W12188  39.925  14.037   3.186
39764W        W12189  30.238  17.874  12.628
39765W        W12190  22.713  17.063   0.619
39766W        W12191  35.710  17.914  10.845
39767W        W12192  32.449  11.153  11.823
39768W        W12193   0.151   7.624   3.229
39769W        W12194  33.482  20.669   4.301
39770W        W12195   1.545   8.999  11.991
39771W        W12196  11.799  36.998   0.658
39772W        W12197  25.518  20.031  13.293
39773W        W12198  41.807   6.790   2.752
39774W        W12199  29.424  34.567   0.350
39775W        W12200  14.412  41.984  11.965
39776W        W12201  19.730   8.749   4.576
39777W        W12202  14.879   9.019  11.811
39778W        W12203  25.746   5.773  13.357
39779W        W12204  14.278   5.215   0.273
39780W        W12205  39.128  34.921  14.991
39781W        W12206  27.469  27.484   1.364
39782W        W12207  27.725  26.456  13.124
39783W        W12208  36.121  42.506  10.763
39784W        W12209  43.098  42.439  13.869
39785W        W12210   9.813  32.017  14.903
39786W        W12211  24.366  24.241  10.896
39787W        W12212  29.618  26.006  13.927
39788W        W12213  33.552  21.675   3.641
39789W        W12214  23.765  23.969   2.329
39790W        W12215  10.709  10.236   2.181
39791W        W12216  21.989   2.252  11.733
39792W        W12217   4.612  34.970  14.914
39793W        W12218  39.825  18.815  11.596
39794W        W12219  23.762   6.887   1.252
39795W        W12220  39.004  11.217   0.765
39796W        W12221  18.792  11.665  12.903
39797W        W12222   4.678  19.690   2.701
39798W        W12223  42.785  20.015  12.936
39799W        W12224  36.369  35.617  13.458
39800W        W12225  36.601  28.095   0.881
39801W        W12226   9.210  37.310  12.509
39802W        W12227  13.729  23.365  12.562
39803W        W12228   3.204  44.773   1.006
39804W        W12229  39.556  43.362  13.513
39805W        W12230  22.549  37.887  11.897
39806W        W12231  14.745  32.778   0.679
39807W        W12232  15.562  39.964   1.437
39808W        W12233   6.291  17.376  14.460
39809W        W12234  25.936  28.673   1.987
39810W        W12235   4.817  18.140  13.227
39811W        W12236  28.580   2.337   3.712
39812W        W12237   1.327  12.248   3.519
39813W        W12238  22.112  19.023   4.785
39814W        W12239  29.118  12.307  14.748
39815W        W12240  20.177   8.265   0.838
39816W        W12241  11.175   5.706  12.327
39817W        W12242  31.513  43.421   3.725
39818W        W12243  33.074  27.986  12.047
39819W        W12244   7.840  20.949   1.332
39820W        W12245   0.716  27.342  11.124
39821W        W12246  27.992  11.388  11.080
39822W        W12247  21.510  21.542   0.678
39823W        W12248  35.000  20.582   0.124
39824W        W12249  12.523  11.740   2.764
39825W        W12250  43.099  33.124  10.721
39826W        W12251  22.992  18.668  13.413
39827W        W12252  10.095   2.395   3.335
39828W        W12253  23.275  40.509   0.464
39829W        W12254  21.256  35.127  12.734
39830W        W12255  29.871  14.666   4.334
39831W        W12256  19.757  35.086   1.621
39832W        W12257  18.209  14.661  10.803
39833W        W12258   8.762  40.651   0.216
39834W        W12259  11.415  38.575  13.591
39835W        W12260  10.450  42.811  13.775
39836W        W12261  24.754  15.621   9.981
39837W        W12262   6.289  24.608  13.698
39838W        W12263  29.729  32.401   5.032
39839W        W12264   4.826  22.487  11.018
39840W        W12265   5.160   9.648   0.306
39841W        W12266  25.254  17.206   0.686
39842W        W12267  36.983  14.198   2.801
39843W        W12268  40.569  21.191  11.961
39844W        W12269  28.170   5.470   3.455
39845W        W12270  19.202  44.965  14.970
39846W        W12271  24.714  43.468  13.528
39847W        W12272   3.744  27.024   2.861
39848W        W12273  25.660  30.775  10.883
39849W        W12274  20.801  41.975  11.053
39850W        W12275   6.185  24.256   0.038
39851W        W12276   9.440  27.027  14.920
39852W        W12277  13.704  33.815   2.672
39853W        W12278  18.808  24.219  14.521
39854W        W12279  33.522  35.820  10.429
39855W        W12280  14.877  24.505   5.096
39856W        W12281   8.496  37.304  13.070
39857W        W12282  30.105  19.051   3.570
39858W        W12283  11.752  44.918  10.437
39859W        W12284   5.850   0.791   2.208
39860W        W12285  32.932  16.702  13.782
39861W        W12286   5.978  15.090   4.662
39862W        W12287  14.113   6.375   4.035
39863W        W12288  19.216  26.124  12.289
39864W        W12289  31.952  40.776   1.172
39865W        W12290   3.642  37.835  13.054
39866W        W12291  18.669  25.186  10.776
39867W        W12292  33.945  19.853   1.571
39868W        W12293  41.605  36.547  11.046
39869W        W12294  30.754  34.853   4.132
39870W        W12295  14.230  38.918   0.410
39871W        W12296  24.867  22.248   2.405
39872W        W12297  15.482  10.923   1.865
39873W        W12298  24.199   1.271   1.223
39874W        W12299  29.053  25.614   3.639
39875W        W12300   8.740  41.222   3.279
39876W        W12301  40.366   9.415   1.637
39877W        W12302  43.033  18.720   4.829
39878W        W12303  42.763  39.360   1.713
39879W        W12304   2.713  41.293   4.286
39880W        W12305  37.973  25.426  13.807
39881W        W12306   0.370  32.411  11.748
39882W        W12307  27.350   4.261  14.727
39883W        W12308  17.705   2.209   0.282
39884W        W12309   5.889   5.946   1.242
39885W        W12310   9.616  41.722  13.916
39886W        W12311  19.601  25.582  12.310
39887W        W12312  20.130  15.010  11.163
39888W        W12313  25.552  43.437  12.318
39889W        W12314  15.017  25.977   1.853
39890W        W12315  21.413   9.148  11.566
39891W        W12316   8.931  15.720  14.109
39892W        W12317  27.233   7.642   4.400
39893W        W12318  22.829  26.189   3.256
39894W        W12319  34.581  16.329   3.131
39895W        W12320  19.085  28.053   1.020
39896W        W12321  34.973  32.888   2.784
39897W        W12322  19.000   2.748   4.751
39898W        W12323   9.090  22.145   2.206
39899W        W12324  34.203  18.205  14.684
39900W        W12325   5.298  19.823  11.265
39901W        W12326  21.599  24.434   4.811
39902W        W12327   4.909  25.751   1.547
39903W        W12328   9.826  39.601   3.324
39904W        W12329  34.036  30.049   2.135
39905W        W12330   4.110  32.171   3.926
39906W        W12331  13.754   9.342  13.951
39907W        W12332  44.071  15.060  12.035
39908W        W12333   4.901   3.794  11.032
39909W        W12334  34.067  21.165  12.531
39910W        W12335  38.751  25.452   4.976
39911W        W12336  33.097  38.449  10.603
39912W        W12337  11.223   2.681  11.137
39913W        W12338  44.555  37.414  14.366
39914W        W12339  20.745  15.083   0.544
39915W        W12340  31.132  29.539   2.839
39916W        W12341  42.598  25.640  11.184
39917W        W12342  21.126  27.854   5.081
39918W        W12343  23.703  40.617  14.542
39919W        W12344  44.819  17.321  14.280
39920W        W12345  43.732  12.354  12.956
39921W        W12346  32.743  41.920   0.841
39922W        W12347  26.561   5.542   1.365
39923W        W12348  12.073  10.175  11.650
39924W        W12349  13.280  24.449   1.888
39925W        W12350  37.807  18.906   0.717
39926W        W12351  27.645  36.962  11.431
39927W        W12352  30.050  29.934   4.280
39928W        W12353   5.469  19.999  10.808
39929W        W12354  35.830   8.475   2.439
39930W        W12355   4.693  14.258  14.842
39931W        W12356  28.390  26.513   3.368
39932W        W12357   1.202  29.411   2.281
39933W        W12358   9.653  30.320   4.812
39934W        W12359  31.284  29.087  14.507
39935W        W12360  17.166  19.016   3.737
39936W        W12361  17.419  13.774   1.752
39937W        W12362  24.849   3.709  12.056
39938W        W12363  27.103  16.612  14.734
39939W        W12364  13.730  33.595  12.916
39940W        W12365   1.848   5.540   3.809
39941W        W12366  18.973  33.074   5.075
39942W        W12367  13.882  14.242  11.651
39943W        W12368   8.587  24.817   3.824
39944W        W12369  44.807   3.309  13.482
39945W        W12370  11.759  35.603   1.803
39946W        W12371   8.509   3.247  13.774
39947W        W12372   0.092  41.511  11.671
39948W        W12373  14.622   4.615  12.481
39949W        W12374  24.883  10.729   2.444
39950W        W12375  22.007   4.392   4.080
39951W        W12376  34.400   5.210  10.805
39952W        W12377  36.392  34.526   4.243
39953W        W12378  16.763  17.306  10.715
39954W        W12379  17.610   7.270   2.695
39955W        W12380   5.325  20.201   3.705
39956W        W12381  13.782  14.737   4.597
39957W        W12382  12.284  16.328  14.425
39958W        W12383  28.056  28.606  12.640
39959W        W12384   4.427  42.996  13.897
39960W        W12385  33.505   8.800  12.706
39961W        W12386  17.860  38.074  11.453
39962W        W12387  27.180  26.450   4.232
39963W        W12388  13.308  39.784   0.405
39964W        W12389  10.197   4.799   4.754
39965W        W12390  28.890   5.282  10.692
39966W        W12391  20.610  38.747  10.541
39967W        W12392   3.440  37.970   4.616
39968W        W12393   8.634  12.643  12.526
39969W        W12394  14.593   0.870  13.860
39970W        W12395  10.709  25.970  11.064
39971W        W12396  36.612  21.210  14.762
39972W        W12397  10.337  17.162   1.669
39973W        W12398  33.572  30.946   4.178
39974W        W12399  24.926  23.887  14.489
39975W        W12400   8.634  44.286  10.570
39976W        W12401  41.964  23.803   1.604
39977W        W12402  20.817  34.389  12.517
39978W        W12403  13.412   1.547   2.524
39979W        W12404  33.580  25.872   3.603
39980W        W12405  24.567  39.817   4.310
39981W        W12406  37.561  17.046  14.793
39982W        W12407   7.003  36.826  12.522
39983W        W12408  30.609   5.949  14.975
39984W        W12409  43.144  43.476   3.112
39985W        W12410  27.324  43.648   1.412
39986W        W12411  22.793  19.549  13.475
39987W        W12412   1.203  41.976  11.141
39988W        W12413   1.059  43.856  12.461
39989W        W12414   2.634  36.786  13.464
39990W        W12415  43.686   8.294  12.824
39991W        W12416  34.408  12.887   1.691
39992W        W12417  12.272  19.309  10.737
39993W        W12418   0.656   4.589  13.843
39994W        W12419  22.527  12.629   0.971
39995W        W12420  11.591  32.125   4.720
39996W        W12421   8.530  21.807   4.092
39997W        W12422   6.226  15.801  14.449
39998W        W12423  19.041  31.843   3.772
39999W        W12424  20.053  12.256  12.450
40000W        W12425  21.271  43.980  12.521
40001W        W12426  43.024  26.643   2.720
40002W        W12427  39.297  40.795   3.843
40003W        W12428   5.625  43.754  13.892
40004W        W12429  41.593  26.123   0.666
40005W        W12430  44.898   7.422  11.658
40006W        W12431   2.271  37.602  14.260
40007W        W12432  12.719  12.643   2.891
40008W        W12433   6.649   7.826   1.802
40009W        W12434   9.599  10.411  14.789
40010W        W12435  39.129  36.185   4.486
40011W        W12436  44.978   8.252   1.796
40012W        W12437  39.700  11.986  12.068
40013W        W12438  12.291   1.661  14.358
40014W        W12439  24.275  25.467   1.443
40015W        W12440  36.417  30.350   1.163
40016W        W12441  44.350  10.607   2.892
40017W        W12442  33.244   0.500   1.960
40018W        W12443   1.538  16.180   4.156
40019W        W12444  13.335  22.036   1.293
40020W        W12445  36.933   5.898  12.205
40021W        W12446  42.936  39.189   4.257
40022W        W12447  18.648  33.519   1.769
40023W        W12448  41.474  17.838   0.816
40024W        W12449  37.083  25.175   4.398
40025W        W12450  28.541   1.998   0.896
40026W        W12451   9.376  12.915   3.729
40027W        W12452   6.210  27.562  10.636
40028W        W12453  30.142  22.292  14.923
40029W        W12454  15.837  22.996  11.572
40030W        W12455  33.864  41.602   2.894
40031W        W12456  28.007  42.792  10.210
40032W        W12457  42.960   1.449  11.568
40033W        W12458  27.676   2.366  14.280
40034W        W12459  41.669  14.137  11.983
40035W        W12460  10.611  20.329  14.024
40036W        W12461  17.749  44.859   4.308
40037W        W12462  20.754   0.219   0.814
40038W        W12463  15.408  23.723  13.808
40039W        W12464  20.546   8.176   1.673
40040W        W12465  35.507  35.948   3.230
40041W        W12466  18.576   0.963  12.876
40042W        W12467  31.182   5.944  10.361
40043W        W12468  30.108  40.815   2.847
40044W        W12469  14.169  10.592   1.273
40045W        W12470  27.914  21.748   2.697
40046W        W12471  36.479  39.584  14.871
40047W        W12472  33.445  27.089   0.320
40048W        W12473  23.242  34.434   4.146
40049W        W12474  17.116   8.460  11.201
40050W        W12475  28.738  12.557   0.025
40051W        W12476   2.227   8.969  11.589
40052W        W12477  26.062  37.972   4.922
40053W        W12478  13.674  11.671  12.211
40054W        W12479  39.518  38.946  10.153
40055W        W12480  26.070  19.555   2.196
40056W        W12481   3.467  42.262   3.712
40057W        W12482  33.790   2.277  14.869
40058W        W12483  28.184  29.065  13.591
40059W        W12484  17.113  25.893   0.508
40060W        W12485   6.705  24.028   4.442
40061W        W12486   4.952  15.281   3.197
40062W        W12487  13.219  37.422  10.339
40063W        W12488   8.716  20.031   4.951
40064W        W12489  22.978   9.268   2.676
40065W        W12490   4.962  32.575  14.563
40066W        W12491  34.422  16.746   3.725
40067W        W12492   0.300  23.924  13.004
40068W        W12493  31.853   5.763  14.764
40069W        W12494  13.679  27.073  11.978
40070W        W12495  29.163  25.763   0.423
40071W        W12496   6.052  20.459   4.159
40072W        W12497  28.850  13.761   4.484
40073W        W12498  16.513  23.491  10.667
40074W        W12499   1.984   6.721  11.657
40075W        W12500  37.541  10.687   1.259
40076W        W12501  33.666  22.167   1.978
40077W        W12502   4.886   1.440   3.553
40078W        W12503   3.995  23.949   4.206
40079W        W12504  36.975  44.561   1.882
40080W        W12505   5.119  29.454  10.788
40081W        W12506  38.781  25.329  12.069
40082W        W12507   9.753  31.189   4.077
40083W        W12508  23.092  23.930  12.151
40084W        W12509  24.465   6.860   0.433
40085W        W12510   7.304  15.252   2.772
40086W        W12511  15.181  11.313  11.671
40087W        W12512  23.785  38.349   1.368
40088W        W12513  33.953  29.952  11.762
40089W        W12514   0.344   9.177  12.378
40090W        W12515  42.826   9.648   1.325
40091W        W12516  39.451  36.533   3.214
40092W        W12517  21.592  22.263  12.524
40093W        W12518   6.723  19.374   2.203
40094W        W12519  12.350  15.227   2.651
40095W        W12520  32.740   1.672   1.833
40096W        W12521  26.226  16.665  14.436
40097W        W12522  28.504  13.778  10.856
40098W        W12523   5.333  25.436  13.295
40099W        W12524   8.622  34.607   0.351
40100W        W12525  44.890  24.256  12.979
40101W        W12526  39.910  39.440   4.235
40102W        W12527  42.933  28.429   0.486
40103W        W12528  28.465  16.321   3.676
40104W        W12529  35.844  15.510   4.521
40105W        W12530  39.906  19.352  14.576
40106W        W12531  40.533  43.537   0.321
40107W        W12532  38.295  31.756  12.374
40108W        W12533  31.614  15.086   3.614
40109W        W12534  31.399  15.338   0.666
40110W        W12535  10.356  38.973   2.818
40111W        W12536   9.123  25.987  10.703
40112W        W12537  31.742  21.026   2.388
40113W        W12538  23.783  42.962  14.456
40114W        W12539   9.834  31.054   0.982
40115W        W12540  42.895  17.898   4.581
40116W        W12541   3.214  29.517   5.055
40117W        W12542  41.993  10.062  10.257
40118W        W12543  14.071  30.981  13.756
40119W        W12544  26.031   3.201   0.600
40120W        W12545   1.221  15.207  14.389
40121W        W12546   2.016   0.746   0.920
40122W        W12547  15.141   9.136  14.138
40123W        W12548  22.999  12.408  10.693
40124W        W12549  20.890  24.462  14.484
40125W        W12550   6.480  12.211   4.143
40126W        W12551  38.110  40.126  14.572
40127W        W12552  26.999  20.216   0.845
40128W        W12553  43.852  36.037  12.528
40129W        W12554  39.959  25.569   3.271
40130W        W12555  28.270  40.116   4.233
40131W        W12556  34.439  26.042  10.990
40132W        W12557  43.592  31.136   2.895
40133W        W12558  38.841  10.693  11.955
40134W        W12559  27.542  37.347   0.506
40135W        W12560  10.064  16.745  10.841
40136W        W12561  17.990   3.231   3.870
40137W        W12562  12.400  37.451  14.915
40138W        W12563  18.306  37.396   4.107
40139W        W12564   8.700  39.425   3.313
40140W        W12565  29.147   0.327  14.507
40141W        W12566  35.889  38.981  13.960
40142W        W12567   3.001  10.526   0.216
40143W        W12568  37.368  25.015  10.540
40144W        W12569   5.802  28.487  13.885
40145W        W12570  22.052  43.851  13.125
40146W        W12571  26.209  12.098  14.004
40147W        W12572  30.666  26.222  12.134
40148W        W12573  42.389  11.114   1.365
40149W        W12574   8.728  30.870   2.256
40150W        W12575  30.495   7.372   4.090
40151W        W12576  25.099   9.203   0.041
40152W        W12577   7.910   9.159  13.495
40153W        W12578  37.654   7.795  14.950
40154W        W12579  34.382  25.039  14.666
40155W        W12580  16.067  39.389  13.043
40156W        W12581  19.147  31.074  13.357
40157W        W12582  42.832  16.968  14.726
40158W        W12583  25.808  25.224   0.817
40159W        W12584  16.482  14.774  13.043
40160W        W12585   1.692   5.307  11.727
40161W        W12586  41.537  28.125  13.048
40162W        W12587  25.084  34.270  14.707
40163W        W12588  23.539   9.579  10.162
40164W        W12589  34.780  30.110  14.998
40165W        W12590  43.547  39.422  14.966
40166W        W12591  40.296  19.980   4.147
40167W        W12592  29.087  19.335   0.303
40168W        W12593  26.942   1.771   4.233
40169W        W12594   0.126  28.507  13.046
40170W        W12595  14.126  26.189   1.295
40171W        W12596  23.665  30.793  14.729
40172W        W12597  20.645  35.630  12.902
40173W        W12598  32.150   4.616  14.013
40174W        W12599  20.520  36.811  14.805
40175W        W12600  36.802  10.686   2.742
40176W        W12601  28.379  21.121  11.620
40177W        W12602   2.512  26.933   3.703
40178W        W12603   5.458  20.309  14.368
40179W        W12604  35.023   7.223  13.457
40180W        W12605   4.678  44.800   4.139
40181W        W12606  25.951  11.432   1.215
40182W        W12607  29.738  11.808  10.750
40183W        W12608  22.714  20.124   1.324
40184W        W12609  44.728  40.031  12.660
40185W        W12610   2.657   2.994  11.926
40186W        W12611  31.932  32.091   3.269
40187W        W12612  32.595  25.272   3.316
40188W        W12613  22.504   8.040   1.974
40189W        W12614  19.128  15.683   2.347
40190W        W12615   5.690   3.706   4.645
40191W        W12616  12.200  42.238   1.198
40192W        W12617  40.812  17.142  13.495
40193W        W12618   3.933  11.752   4.508
40194W        W12619   5.875  17.303  14.784
40195W        W12620   2.874  20.257  10.752
40196W        W12621  40.697   3.315   3.136
40197W        W12622  26.978  29.956   2.936
40198W        W12623  26.411  19.606  11.580
40199W        W12624   7.758  28.705  10.897
40200W        W12625  37.633  13.170   0.806
40201W        W12626  34.860   5.150  13.529
40202W        W12627  24.612  32.547   4.193
40203W        W12628  12.836  19.621   5.049
40204W        W12629  23.164   8.358   3.633
40205W        W12630  44.249  20.996  14.587
40206W        W12631  10.538  21.909  12.507
40207W        W12632  25.497  35.202   2.945
40208W        W12633  21.022   6.703  14.973
40209W        W12634  33.037  40.338   0.852
40210W        W12635   1.845  15.720   0.679
40211W        W12636   1.381  37.666  11.149
40212W        W12637  42.750  25.943  10.778
40213W        W12638  13.336  30.194   2.638
40214W        W12639  35.128  34.947  10.779
40215W        W12640  33.820   6.135   0.964
40216W        W12641  26.791  14.139  11.223
40217W        W12642  28.933  33.463  10.113
40218W        W12643  22.030   1.222  13.556
40219W        W12644  26.134  19.802  12.515
40220W        W12645  26.265  21.824   3.597
40221W        W12646  11.055  34.850   0.453
40222W        W12647  23.694  34.813   4.111
40223W        W12648  36.599  30.601   2.148
40224W        W12649  15.253  13.366  11.133
40225W        W12650  40.655  23.793  11.965
40226W        W12651  19.103  14.287  10.449
40227W        W12652  27.489   6.991   3.816
40228W        W12653  18.550  16.290   0.166
40229W        W12654  24.058  32.416  12.524
40230W        W12655   5.116  18.205   0.214
40231W        W12656  13.630   7.515   5.035
40232W        W12657  43.748   6.654   4.130
40233W        W12658  27.189  19.080  12.031
40234W        W12659  11.453  38.533   4.591
40235W        W12660   2.756  33.636   4.236
40236W        W12661  19.026   8.420   1.448
40237W        W12662  38.297   9.214  14.387
40238W        W12663  37.085  33.911  11.424
40239W        W12664   9.348  26.492   3.879
40240W        W12665   8.670  12.176  11.990
40241W        W12666  25.085  17.281  14.817
40242W        W12667  39.951  27.491  14.386
40243W        W12668  19.700  18.609   2.297
40244W        W12669  31.584  29.399  14.796
40245W        W12670  44.255  37.037  10.552
40246W        W12671  13.957  37.810  11.911
40247W        W12672  12.380  12.769  14.808
40248W        W12673  26.599  37.782  10.723
40249W        W12674   9.888  18.304   2.927
40250W        W12675  28.621  26.623   4.687
40251W        W12676  19.313  28.908  12.090
40252W        W12677  43.778  41.225   1.337
40253W        W12678  30.163  14.806  13.361
40254W        W12679   1.983  32.648  12.523
40255W        W12680  33.462   9.203   0.623
40256W        W12681   5.949  17.601  11.338
40257W        W12682  36.508  23.673  10.306
40258W        W12683  22.538  32.962  12.422
40259W        W12684  38.460  31.031  14.378
40260W        W12685  14.552  22.197  12.298
40261W        W12686  14.809  44.346   3.169
40262W        W12687  41.422  23.172   1.428
40263W        W12688  15.009  30.684   3.754
40264W        W12689  20.026  42.545  11.983
40265W        W12690  15.135  26.282   4.677
40266W        W12691  17.298  37.468  11.359
40267W        W12692  42.556  36.301  11.868
40268W        W12693   8.158   2.870   1.362
40269W        W12694  12.721  42.564  12.576
40270W        W12695  29.444  32.651   4.681
40271W        W12696  26.602  30.527   1.593
40272W        W12697  11.685  27.987   1.841
40273W        W12698  34.425  15.632   3.827
40274W        W12699  30.098   8.970  13.081
40275W        W12700   0.188   1.827  13.208
40276W        W12701   0.925  23.810   0.268
40277W        W12702  29.415  20.684  14.251
40278W        W12703  32.657  11.576  14.300
40279W        W12704   8.926  28.551   4.109
40280W        W12705  18.173  21.132   1.501
40281W        W12706  36.390  33.497  14.163
40282W        W12707   5.260   8.119  13.431
40283W        W12708  21.103  17.416   3.343
40284W        W12709   3.906  35.325  10.615
40285W        W12710  43.840  42.302   1.274
40286W        W12711  17.120  21.701   1.701
40287W        W12712  31.455   9.782   3.372
40288W        W12713  29.520  32.982   1.908
40289W        W12714   9.355  29.841  12.814
40290W        W12715  44.757  25.926   2.945
40291W        W12716  18.342  29.540  14.230
40292W        W12717  44.321  26.060   0.666
40293W        W12718   8.110  11.426  13.004
40294W        W12719   5.953  28.453   3.574
40295W        W12720  42.202  21.710  13.881
40296W        W12721  32.558  29.681  12.630
40297W        W12722  14.440  43.672  11.537
40298W        W12723  29.713  29.706  13.925
40299W        W12724  14.657  35.287   4.743
40300W        W12725   9.773  38.542   0.559
40301W        W12726  43.356  44.411   4.660
40302W        W12727   1.374   5.763   3.247
40303W        W12728  43.765  22.100   4.898
40304W        W12729  21.136  33.560  12.833
40305W        W12730  34.519  38.081  11.576
40306W        W12731  41.999  17.822  14.237
40307W        W12732  36.834  10.445   4.343
40308W        W12733   5.652  36.117   4.735
40309W        W12734  37.106  18.275   1.900
40310W        W12735  15.749  10.279   2.768
40311W        W12736  12.219  13.736   2.806
40312W        W12737  21.506  11.867  13.922
40313W        W12738  30.911  16.821  12.306
40314W        W12739  15.631   5.147  10.809
40315W        W12740  40.002  23.707   2.702
40316W        W12741  37.655  33.881  11.546
40317W        W12742  30.438  11.621   2.681
40318W        W12743   9.213  28.776  14.514
40319W        W12744   8.316  29.839   1.739
40320W        W12745  37.467   0.634   5.005
40321W        W12746  24.132  27.435   2.583
40322W        W12747  38.892   6.902  12.606
40323W        W12748  16.632  14.995   3.019
40324W        W12749  15.728  23.471   3.197
40325W        W12750  23.990  16.698   0.210
40326W        W12751  33.942  27.771  11.603
40327W        W12752  39.474  33.461  14.722
40328W        W12753  17.807  14.423   3.761
40329W        W12754  29.943  22.660  11.601
40330W        W12755  30.926   1.513  11.877
40331W        W12756  29.130   5.767  13.546
40332W        W12757  18.188  32.315   1.819
40333W        W12758  14.109   8.711  12.507
40334W        W12759  10.613  20.075   0.748
40335W        W12760  32.452   9.866   4.424
40336W        W12761  21.615  44.571  12.893
40337W        W12762  29.038  36.582  12.933
40338W        W12763  14.190  37.589  14.376
40339W        W12764  29.644  39.900  12.822
40340W        W12765  42.033  32.843   2.045
40341W        W12766  16.347  42.356   0.475
40342W        W12767  16.291   2.328  11.443
40343W        W12768  32.374   7.316  14.287
40344W        W12769  30.886   3.345  13.456
40345W        W12770   8.486  31.595   2.781
40346W        W12771  20.855  31.357  12.045
40347W        W12772  16.868  12.905   0.932
40348W        W12773  43.747   6.465  10.681
40349W        W12774   8.899  38.160   3.802
40350W        W12775   7.873   2.191   1.376
40351W        W12776  38.005   5.197  14.216
40352W        W12777  42.870  42.109  11.151
40353W        W12778  24.716   2.930  11.516
40354W        W12779  39.294  40.564   2.210
40355W        W12780  19.623  33.189  13.947
40356W        W12781   5.617  39.033   4.668
40357W        W12782  40.649  43.847  11.376
40358W        W12783  10.719   4.929   4.759
40359W        W12784  22.033  39.154   1.838
40360W        W12785  42.985  26.121   1.396
40361W        W12786  37.053  14.637  10.647
40362W        W12787  38.556   1.742  13.788
40363W        W12788   0.850  20.357   2.241
40364W        W12789  24.484   4.246  10.914
40365W        W12790  18.582   6.825  12.517
40366W        W12791  37.233  34.805  14.318
40367W        W12792  37.870  24.031  13.463
40368W        W12793   9.752   5.609   1.176
40369W        W12794  15.721  29.567   1.425
40370W        W12795  18.566  11.728   3.911
40371W        W12796   9.826  33.140   0.911
40372W        W12797   6.181  33.408  10.592
40373W        W12798  27.385   4.638  14.049
40374W        W12799  22.767   8.326   2.820
40375W        W12800  41.014   2.233   4.510
40376W        W12801  30.155  20.459   2.651
40377W        W12802   1.019  33.627  12.255
40378W        W12803  14.712  21.620  13.945
40379W        W12804  16.474   4.381  14.853
40380W        W12805   3.307  12.853   3.547
40381W        W12806   0.020   4.656   3.292
40382W        W12807   2.383  44.348   0.473
40383W        W12808  34.597   0.977   3.700
40384W        W12809  18.397  20.334  11.927
40385W        W12810   9.707  33.004   3.496
40386W        W12811  28.450   5.458  10.357
40387W        W12812  18.267  33.965   4.662
40388W        W12813  42.816  37.985   1.235
40389W        W12814  26.089  39.775   3.854
40390W        W12815  24.020  42.449  12.141
40391W        W12816  34.005   9.674  14.512
40392W        W12817  30.141  30.954  12.868
40393W        W12818  43.291  27.104  11.537
40394W        W12819  39.363  40.791   1.740
40395W        W12820  11.201  18.591   1.241
40396W        W12821   8.945   4.146  14.806
40397W        W12822   2.813  29.659   0.881
40398W        W12823  14.606  34.483   0.722
40399W        W12824  39.102  14.782  11.953
40400W        W12825   1.044  19.083  11.558
40401W        W12826  42.651  43.243   3.116
40402W        W12827  34.621  27.464  10.642
40403W        W12828  41.004  18.520  13.306
40404W        W12829  10.310  32.607   3.221
40405W        W12830  25.196  26.431   2.202
40406W        W12831   1.786   0.416   2.664
40407W        W12832  25.120   0.638  13.512
40408W        W12833  15.189  44.733  12.909
40409W        W12834  26.956   7.720  12.991
40410W        W12835  24.997   0.224  12.181
40411W        W12836   5.294  43.243  10.798
40412W        W12837  26.082  34.393  12.876
40413W        W12838  36.810   3.445  14.310
40414W        W12839  15.155  44.973   4.081
40415W        W12840  37.840  30.754  10.952
40416W        W12841  29.397  27.713  13.807
40417W        W12842  30.503  31.861  11.494
40418W        W12843  30.485  31.684   0.840
40419W        W12844  27.422  19.572   3.265
40420W        W12845  26.448  26.158  10.615
40421W        W12846  27.526  41.637   0.826
40422W        W12847  12.583  22.138   0.297
40423W        W12848  43.685  23.991  12.865
40424W        W12849  41.433   8.238   1.286
40425W        W12850  25.525  26.531   1.721
40426W        W12851  29.429  20.061   3.491
40427W        W12852   0.452  27.265   4.736
40428W        W12853  40.470  38.089  14.043
40429W        W12854  21.428  40.499   4.226
40430W        W12855  43.296  23.115   2.576
40431W        W12856   2.204  44.094  10.566
40432W        W12857  37.558  31.994  14.865
40433W        W12858  44.031  34.542   1.758
40434W        W12859  20.622  20.409   1.059
40435W        W12860  33.374  20.137  13.984
40436W        W12861  11.679  38.113   1.692
40437W        W12862  42.841  12.237   2.373
40438W        W12863   8.603  39.032   1.556
40439W        W12864  11.064   2.323   3.147
40440W        W12865  26.691   3.265   2.384
40441W        W12866  31.138  30.597   4.129
40442W        W12867  32.983  39.259  11.512
40443W        W12868   6.237   9.597   4.182
40444W        W12869  42.752  23.714   4.160
40445W        W12870  28.527  28.416   2.218
40446W        W12871  21.871  16.168   3.616
40447W        W12872  43.037   8.909  11.356
40448W        W12873  29.593  40.291  11.960
40449W        W12874  40.563  33.568   0.214
40450W        W12875  35.939  32.631   0.216
40451W        W12876  22.061  28.075   3.081
40452W        W12877   4.488  24.204   5.019
40453W        W12878   2.901  26.194  14.741
40454W        W12879   0.961  17.665  14.032
40455W        W12880  19.655   6.223  14.979
40456W        W12881  21.146  15.382   5.074
40457W        W12882   3.947  27.608   1.340
40458W        W12883  13.186   4.319  14.754
40459W        W12884  35.965   3.454   3.634
40460W        W12885  28.424  40.378   0.536
40461W        W12886   1.190   6.792  14.971
40462W        W12887  14.314  44.244   3.229
40463W        W12888  27.326  38.406  12.448
40464W        W12889   1.352   8.855  14.277
40465W        W12890   9.629  26.601  13.262
40466W        W12891  43.968  43.240  13.471
40467W        W12892  40.369  20.062   0.358
40468W        W12893   5.724  42.770   2.457
40469W        W12894  19.115  17.549  11.905
40470W        W12895  35.136  23.920  11.625
40471W        W12896  12.291  38.245  14.058
40472W        W12897  17.340  26.877   0.982
40473W        W12898  18.336  14.334  12.571
40474W        W12899  32.221  32.326  14.687
40475W        W12900   8.463  32.687   2.154
40476W        W12901  19.829  31.344   3.737
40477W        W12902   6.515  39.395   0.453
40478W        W12903   4.681  43.819   1.192
40479W        W12904  19.750  21.593   1.201
40480W        W12905  39.062  14.076  12.163
40481W        W12906  37.811   4.083  11.845
40482W        W12907  23.206  37.114   2.690
40483W        W12908  37.547   3.224  10.719
40484W        W12909   3.320   4.648  14.365
40485W        W12910   5.553  10.737  11.596
40486W        W12911  28.418  44.176  14.788
40487W        W12912   5.030  16.651   1.328
40488W        W12913  27.909  23.675  13.437
40489W        W12914  21.070   3.938   5.079
40490W        W12915  23.800  41.578  14.325
40491W        W12916  18.227  39.687   4.356
40492W        W12917  40.472   6.671  10.716
40493W        W12918   0.929   3.722  14.034
40494W        W12919  26.267   2.016  12.338
40495W        W12920  31.805  15.297  12.883
40496W        W12921  13.314   7.366  10.807
40497W        W12922  22.524  28.726  11.192
40498W        W12923   3.243  24.988   1.581
40499W        W12924  22.107   3.471   4.156
40500W        W12925  12.016  44.771   0.394
40501W        W12926   2.838  33.465   2.338
40502W        W12927   1.437  42.211  11.570
40503W        W12928   7.504   6.302   4.611
40504W        W12929  20.320  14.483  14.767
40505W        W12930   2.918  22.132  13.858
40506W        W12931  25.085  25.661  14.450
40507W        W12932  14.171  36.045   0.540
40508W        W12933   0.505  23.285   3.423
40509W        W12934  25.025  15.820   2.763
40510W        W12935  35.900   4.545   4.511
40511W        W12936  12.996   2.953   2.127
40512W        W12937  38.477   4.463   3.506
40513W        W12938  43.113   8.158   1.824
40514W        W12939   0.427  32.572  13.509
40515W        W12940   8.611  36.264  10.616
40516W        W12941  21.853  26.127  11.545
40517W        W12942  37.533  39.436  12.986
40518W        W12943  44.851   9.167  12.552
40519W        W12944  23.939  33.843   3.209
40520W        W12945  34.960   9.360   3.816
40521W        W12946  20.644   2.316   3.631
40522W        W12947  18.551   0.721  13.349
40523W        W12948   8.349  14.386   3.685
40524W        W12949  13.803  23.047   4.417
40525W        W12950   0.536   4.638  11.725
40526W        W12951  39.766  29.921   4.133
40527W        W12952  25.423  13.927  11.557
40528W        W12953  24.684   4.613  14.407
40529W        W12954  17.701  24.921   1.816
40530W        W12955   4.206  12.705  12.122
40531W        W12956  23.139  32.362   2.220
40532W        W12957  31.424  12.199  14.819
40533W        W12958  33.018  11.530   3.355
40534W        W12959  33.069  13.990  12.432
40535W        W12960  12.225  19.794  12.899
40536W        W12961  34.379   4.137  14.514
40537W        W12962   5.155   3.176  14.975
40538W        W12963   0.008  34.489  10.954
40539W        W12964  11.329   1.701  12.865
40540W        W12965   8.421  34.500   2.721
40541W        W12966  35.588  29.128  13.809
40542W        W12967  18.265  35.132   4.125
40543W        W12968  35.338  41.540  11.505
40544W        W12969  16.133  31.866  10.626
40545W        W12970   9.646  22.358  12.765
40546W        W12971   5.392  10.391  14.908
40547W        W12972   1.967   0.477   3.641
40548W        W12973  27.572  12.784   3.004
40549W        W12974   0.315  41.582  13.432
40550W        W12975   1.064   2.915  13.006
40551W        W12976  26.986   9.376   2.249
40552W        W12977  42.999  26.210   4.620
40553W        W12978  24.148  18.101   0.379
40554W        W12979  18.954  11.698   4.719
40555W        W12980  11.313  13.658   3.847
40556W        W12981   0.914  31.113  14.381
40557W        W12982  37.346  26.448  11.878
40558W        W12983  18.656   5.278  13.375
40559W        W12984  21.793  36.783   2.765
40560W        W12985  31.921  19.109   3.197
40561W        W12986  41.605   6.115  14.883
40562W        W12987  44.855  24.628   4.574
40563W        W12988  23.503   2.899   0.390
40564W        W12989  28.755  39.994   4.073
40565W        W12990   7.231  26.121  11.933
40566W        W12991   5.902  18.818   4.456
40567W        W12992   8.206   8.385   0.332
40568W        W12993  40.453  12.897  14.629
40569W        W12994  19.727  22.883   1.533
40570W        W12995  26.215  25.873  11.010
40571W        W12996  37.427  10.346  12.343
40572W        W12997  11.358  44.298  11.630
40573W        W12998  28.223  38.083  11.379
40574W        W12999   0.839   9.549  11.310
40575W        W13000  10.755  11.579  11.520
40576W        W13001  31.432  25.253   5.072
40577W        W13002  24.331  43.788   3.216
40578W        W13003  39.494  24.157  11.639
40579W        W13004  30.335   3.912  14.524
40580W        W13005   1.568  44.738   2.707
40581W        W13006  21.254  24.292  11.545
40582W        W13007  40.435  26.385  12.589
40583W        W13008  17.107   1.630  12.479
40584W        W13009  20.589  13.593   1.219
40585W        W13010  42.493  39.214  12.040
40586W        W13011  11.761  26.686   0.854
40587W        W13012  26.982   7.835   3.090
40588W        W13013   0.093  16.883  14.298
40589W        W13014  43.543   0.251   1.797
40590W        W13015  27.756  23.967  11.165
40591W        W13016  31.857  33.545   0.095
40592W        W13017  43.912  34.663   2.791
40593W        W13018   1.228  40.473   4.249
40594W        W13019  42.062  32.638   3.721
40595W        W13020  32.493  14.187  14.209
40596W        W13021  20.752   9.903  13.399
40597W        W13022  37.871  33.070  10.632
40598W        W13023  28.217  11.120   3.244
40599W        W13024  17.866  21.758   3.627
40600W        W13025   5.874  34.622   0.689
40601W        W13026  35.388  26.769  13.520
40602W        W13027  37.369   9.300  14.007
40603W        W13028  29.493   9.961  10.374
40604W        W13029  27.882  16.333   1.205
40605W        W13030  34.874  11.166  10.693
40606W        W13031   1.428   1.628   3.456
40607W        W13032  21.524  15.850  13.046
40608W        W13033  40.119  44.755  13.526
40609W        W13034   1.894  43.440  14.488
40610W        W13035  23.441   5.826   2.689
40611W        W13036  20.184  35.830  13.079
40612W        W13037  36.365  44.119  14.407
40613W        W13038  12.255  37.177   0.843
40614W        W13039  10.756  21.785   0.957
40615W        W13040  33.052  28.668  10.371
40616W        W13041   0.096  30.587  13.837
40617W        W13042  42.779  30.215  12.294
40618W        W13043   0.924   1.543  12.572
40619W        W13044  33.932  16.195   3.352
40620W        W13045  21.110  27.435  11.208
40621W        W13046   7.547  22.678  12.091
40622W        W13047  39.741  17.616   1.146
40623W        W13048  40.728  32.901   3.281
40624W        W13049  15.356  44.972  12.489
40625W        W13050  19.826   6.555  13.539
40626W        W13051   9.164  37.938  13.336
40627W        W13052  21.009  25.099  14.110
40628W        W13053  10.416  43.518   4.663
40629W        W13054  36.153  40.827   0.931
40630W        W13055  44.386   1.321   4.188
40631W        W13056  32.107  41.339  14.445
40632W        W13057  29.408  26.564   4.207
40633W        W13058  21.803   2.318   2.126
40634W        W13059  28.078  20.016  11.160
40635W        W13060  14.600  15.151   1.550
40636W        W13061  19.005  44.935   2.709
40637W        W13062  38.670  33.429   0.904
40638W        W13063  19.982  11.777   0.432
40639W        W13064  12.019  12.223  11.487
40640W        W13065  43.262  43.324  14.844
40641W        W13066   9.658  42.467  14.990
40642W        W13067  39.342  31.003  13.656
40643W        W13068   5.202  43.320  12.617
40644W        W13069   3.522   2.982  12.370
40645W        W13070  27.108   1.720   2.862
40646W        W13071  20.284  35.873  14.432
40647W        W13072   1.049  36.939  11.527
40648W        W13073   9.902   8.304  12.439
40649W        W13074   9.724  28.079   1.171
40650W        W13075  39.596  38.646   1.197
40651W        W13076  25.609   1.727  10.705
40652W        W13077   2.243  33.895  12.989
40653W        W13078  33.577  43.653  11.158
40654W        W13079  24.701  16.688  14.579
40655W        W13080   6.424   4.354  11.693
40656W        W13081  26.612  39.136  13.782
40657W        W13082   1.848   0.699  14.471
40658W        W13083  27.934   3.783  13.029
40659W        W13084   8.665  19.643  13.127
40660W        W13085  41.827  34.709  12.606
40661W        W13086  36.855   6.525  11.611
40662W        W13087  27.651  37.770   1.441
40663W        W13088  19.741  39.796  14.419
40664W        W13089  41.400  12.163  12.553
40665W        W13090  20.058  22.535   1.293
40666W        W13091  12.467  28.659  10.445
40667W        W13092  25.739   5.993  12.881
40668W        W13093  23.053  25.196  10.444
40669W        W13094  41.758   4.627  14.853
40670W        W13095  16.756  37.795   4.898
40671W        W13096  36.964  15.301   2.744
40672W        W13097  13.161  11.843  14.454
40673W        W13098  17.755   6.398  11.118
40674W        W13099  28.067  42.470   3.376
40675W        W13100  13.170   5.296   2.294
40676W        W13101   9.386  18.716   4.190
40677W        W13102  22.167   9.310   0.976
40678W        W13103   8.447   7.793  11.459
40679W        W13104   4.651  37.462   1.644
40680W        W13105  38.820  15.312   3.449
40681W        W13106  20.504  40.550   0.480
40682W        W13107  39.849  39.807  14.484
40683W        W13108  33.105   6.618   0.951
40684W        W13109  20.706  10.120   4.096
40685W        W13110  44.864  12.966  13.801
40686W        W13111  25.271  18.139  13.859
40687W        W13112  22.048  34.982  10.432
40688W        W13113  32.646  33.547  14.349
40689W        W13114  42.480  43.112  11.369
40690W        W13115  13.814  16.641   1.273
40691W        W13116   4.146   7.270  12.429
40692W        W13117  44.162  17.706   1.352
40693W        W13118   1.839   1.288   2.196
40694W        W13119  36.052   1.893   3.248
40695W        W13120  35.010  38.872   1.465
40696W        W13121  28.010   2.242   2.728
40697W        W13122  32.367  43.891   2.883
40698W        W13123  14.584  41.299  10.996
40699W        W13124  43.620  29.952   3.063
40700W        W13125   6.981  13.826   1.706
40701W        W13126   0.993  41.919   0.326
40702W        W13127  38.122  25.921   1.793
40703W        W13128  29.003  11.824   0.902
40704W        W13129  43.360  16.182  14.706
40705W        W13130  13.052  27.153   1.121
40706W        W13131  13.946  29.439  13.147
40707W        W13132  33.140   2.418  12.664
40708W        W13133  14.385  19.151  12.951
40709W        W13134  22.006  16.059   4.096
40710W        W13135  15.350  44.904   0.296
40711W        W13136  29.052   5.449   3.216
40712W        W13137  42.400  40.756  11.037
40713W        W13138  40.283  12.122  14.931
40714W        W13139   1.720  28.109   2.658
40715W        W13140   1.782  32.288   3.642
40716W        W13141  37.536  13.442   4.049
40717W        W13142  35.117  19.178  14.700
40718W        W13143  10.900  15.320   3.355
40719W        W13144  42.366  10.373  10.445
40720W        W13145   2.744  31.052  11.976
40721W        W13146  28.183  33.502  14.386
40722W        W13147   4.892  20.729  13.205
40723W        W13148  31.212  20.956   2.295
40724W        W13149  31.142  36.313   1.638
40725W        W13150  37.301  11.732   4.485
40726W        W13151  44.753  39.279   3.362
40727W        W13152  20.619  42.204  10.604
40728W        W13153  39.803  37.488   3.319
40729W        W13154   1.790  16.455  12.915
40730W        W13155  23.464   5.330   4.327
40731W        W13156   1.703  24.293   1.605
40732W        W13157  43.035  26.576  12.031
40733W        W13158  30.086  31.538   1.146
40734W        W13159   4.965  32.040   1.815
40735W        W13160  33.407  28.630   1.409
40736W        W13161  39.765  42.395   2.850
40737W        W13162  32.038  38.741   0.546
40738W        W13163  43.600  29.784  12.670
40739W        W13164  23.964   9.956  11.651
40740W        W13165  20.293   0.445   3.869
40741W        W13166  12.223  39.788   0.479
40742W        W13167  32.444  29.892   2.927
40743W        W13168  11.307  26.065  14.261
40744W        W13169  17.844  10.746  13.482
40745W        W13170  18.018  44.920  10.193
40746W        W13171  44.883  38.838   3.624
40747W        W13172  35.922  24.024  14.889
40748W        W13173   2.532  29.645   1.316
40749W        W13174  19.715  43.099  11.096
40750W        W13175  12.126   2.021   4.436
40751W        W13176   2.985  41.564   3.956
40752W        W13177  41.828  18.569   1.694
40753W        W13178  19.695   2.814  13.559
40754W        W13179   0.290  30.327   1.209
40755W        W13180   9.391  27.686  12.430
40756W        W13181   7.711  18.729  10.679
40757W        W13182  23.838  35.091  11.093
40758W        W13183  23.756  30.647   3.150
40759W        W13184  31.758  23.258  11.408
40760W        W13185  17.878   0.748   1.337
40761W        W13186  16.064  44.444  11.645
40762W        W13187  37.640   5.327  11.639
40763W        W13188  44.415  23.824  12.022
40764W        W13189  13.365   7.384  11.659
40765W        W13190  29.703   4.818  11.597
40766W        W13191  24.546  38.126  12.911
40767W        W13192  30.220  21.649   2.215
40768W        W13193  27.539  35.337  11.266
40769W        W13194  21.369   4.374   5.024
40770W        W13195  38.563  23.168   3.302
40771W        W13196  26.734  35.070   3.815
40772W        W13197  14.329   5.409   1.750
40773W        W13198  18.296  26.180  11.676
40774W        W13199  11.236  26.466   1.783
40775W        W13200  36.528  18.122   1.922
40776W        W13201  23.548  41.247  11.107
40777W        W13202  35.162   8.425   4.293
40778W        W13203  17.779  38.763   4.520
40779W        W13204   0.230  18.024   4.546
40780W        W13205  29.368  25.423   2.164
40781W        W13206   5.799  26.821  14.690
40782W        W13207  16.576  33.478  12.413
40783W        W13208  10.125  43.252  11.559
40784W        W13209  35.132  39.457  12.921
40785W        W13210  22.191   8.333   2.787
40786W        W13211  40.324  20.825  11.620
40787W        W13212  39.943  29.504  12.409
40788W        W13213  32.987   0.781  12.316
40789W        W13214   0.930  11.486   1.995
40790W        W13215  26.269  18.179   2.855
40791W        W13216  29.268  41.294   2.895
40792W        W13217   1.229  28.488  14.779
40793W        W13218  36.125  36.100  13.203
40794W        W13219  15.568  29.576   2.249
40795W        W13220  29.754  22.791  10.318
40796W        W13221  36.109  27.039   2.230
40797W        W13222  38.403   2.836   4.596
40798W        W13223  38.543  10.673  11.526
40799W        W13224  27.920  18.184   2.307
40800W        W13225  30.434  13.261  13.447
40801W        W13226  31.340  34.480  14.065
40802W        W13227  21.008  33.483   2.284
40803W        W13228  31.565  30.984  13.475
40804W        W13229   3.757  39.368  12.892
40805W        W13230  43.951  27.436   2.398
40806W        W13231  18.286   7.302  12.472
40807W        W13232  30.111  40.599  10.188
40808W        W13233  12.397  22.072   2.873
40809W        W13234  35.428  11.435  14.823
40810W        W13235  24.054  30.179  12.098
40811W        W13236  24.953  24.054   3.194
40812W        W13237   8.503  21.779   3.108
40813W        W13238  44.691   7.747   3.051
40814W        W13239   3.742  22.729  12.935
40815W        W13240  35.355  30.243  10.692
40816W        W13241  27.142   6.914  12.126
40817W        W13242  39.136  15.102   0.912
40818W        W13243   7.251  10.404  14.455
40819W        W13244   3.385  27.737   0.604
40820W        W13245  17.165  29.394  13.852
40821W        W13246  37.605  26.027  12.095
40822W        W13247  28.505  24.762  11.576
40823W        W13248  26.478  32.555   0.871
40824W        W13249  44.024   6.289   1.291
40825W        W13250  30.779  13.404  11.174
40826W        W13251   4.832  39.681   3.998
40827W        W13252  37.329  27.043  14.065
40828W        W13253  13.712   0.860  11.949
40829W        W13254  11.282  22.610  14.729
40830W        W13255  22.322  16.340  12.090
40831W        W13256  42.853  21.008   5.438
40832W        W13257  33.518  44.015  10.605
40833W        W13258   5.393  28.970   3.106
40834W        W13259  21.156   5.446  14.322
40835W        W13260  35.318  10.130  11.996
40836W        W13261  10.866  12.409   2.737
40837W        W13262  31.342  35.284   0.751
40838W        W13263  33.637  28.737  11.917
40839W        W13264   8.732  31.895   2.355
40840W        W13265  42.913  30.849  11.649
40841W        W13266  21.284  30.068   3.620
40842W        W13267  28.576  42.285  12.843
40843W        W13268   1.957  25.149   1.325
40844W        W13269  20.792  17.364   4.180
40845W        W13270   8.252  14.759   0.014
40846W        W13271  19.044  38.412  12.048
40847W        W13272  10.605  43.331   4.138
40848W        W13273  11.684  44.684  12.544
40849W        W13274  21.276   9.393   5.562
40850W        W13275  42.614  35.390   3.758
40851W        W13276   5.427  41.156  14.761
40852W        W13277  42.988   5.995   1.407
40853W        W13278  14.174   5.127  12.359
40854W        W13279  23.017  39.017   2.671
40855W        W13280  29.614  20.547   3.461
40856W        W13281  35.459  36.859   0.816
40857W        W13282  40.788  40.462  13.975
40858W        W13283   3.907  43.246  11.057
40859W        W13284  32.411  18.238  10.499
40860W        W13285  38.386  30.948  14.878
40861W        W13286  11.878  27.689  11.869
40862W        W13287  19.533   8.175   0.297
40863W        W13288  34.385  13.094   4.147
40864W        W13289  25.634  40.480  11.796
40865W        W13290  12.961  36.966  10.465
40866W        W13291  15.496  40.920  11.987
40867W        W13292  10.526  24.448   4.936
40868W        W13293  39.874   3.193   4.412
40869W        W13294  39.039  15.509  14.715
40870W        W13295  18.146   0.421  13.916
40871W        W13296   1.426  17.077  10.469
40872W        W13297   8.385  37.609  13.458
40873W        W13298   0.745   6.983  13.541
40874W        W13299   4.433  28.388   1.852
40875W        W13300  15.808   8.311   0.595
40876W        W13301  43.857  36.713  11.376
40877W        W13302   8.235  44.591   1.198
40878W        W13303  33.755  36.837   1.898
40879W        W13304  18.788  44.257  10.191
40880W        W13305  38.089   1.425  12.812
40881W        W13306  21.994   6.834   2.742
40882W        W13307  22.465   6.534  13.951
40883W        W13308  43.344  20.249  12.347
40884W        W13309  41.861  17.559  13.290
40885W        W13310  43.774  34.955   1.938
40886W        W13311  15.443  31.302  12.457
40887W        W13312   4.288  35.499   2.827
40888W        W13313  24.168  31.887  10.525
40889W        W13314  17.085  20.786   0.685
40890W        W13315  38.456  23.000   0.237
40891W        W13316  32.901  28.768  14.159
40892W        W13317  31.711   4.967  13.946
40893W        W13318   8.196  23.945  12.439
40894W        W13319  20.395  18.426  12.482
40895W        W13320   0.179  11.039  12.264
40896W        W13321  36.629  11.748  10.763
40897W        W13322  40.990  30.548   1.308
40898W        W13323  32.138  36.339  11.730
40899W        W13324   1.276  35.080   0.797
40900W        W13325  25.991  21.116   0.925
40901W        W13326  10.365  21.498  14.879
40902W        W13327  36.790  35.486  12.642
40903W        W13328   7.418  32.406   4.124
40904W        W13329  25.919  33.970   0.184
40905W        W13330  30.675  24.678  12.519
40906W        W13331   0.625   2.085   9.997
40907W        W13332   9.509  42.851   0.371
40908W        W13333   5.024  11.665   2.836
40909W        W13334  36.980  14.594  13.573
40910W        W13335  23.301   3.696   0.629
40911W        W13336  23.773  12.861   0.331
40912W        W13337  21.518  11.440   0.481
40913W        W13338  30.667  43.962   2.345
40914W        W13339  30.231  39.131  12.471
40915W        W13340  11.171  32.109   1.688
40916W        W13341  15.911  26.594  11.065
40917W        W13342  10.567  12.797   3.064
40918W        W13343  13.635  39.406   0.687
40919W        W13344   9.152  20.026   3.158
40920W        W13345   3.739   2.313   2.441
40921W        W13346  14.719  41.409   0.211
40922W        W13347  21.595  27.946   4.878
40923W        W13348  24.861  10.383  10.615
40924W        W13349  12.216  33.402  13.789
40925W        W13350  18.700  29.101  14.365
40926W        W13351   3.220   8.781   2.760
40927W        W13352  35.920   6.928   2.355
40928W        W13353  21.981   9.230  11.735
40929W        W13354  22.977  34.839   0.517
40930W        W13355  14.579   1.870   4.198
40931W        W13356  35.043  20.248  13.241
40932W        W13357  27.060  30.128  12.633
40933W        W13358  34.572  41.542  13.554
40934W        W13359  35.515   5.734  11.610
40935W        W13360  17.751  40.934   1.041
40936W        W13361   5.854  15.121  11.128
40937W        W13362  18.323  21.588   3.462
40938W        W13363  43.912   1.378  14.333
40939W        W13364  35.382  38.632   3.153
40940W        W13365  44.172   5.393   1.219
40941W        W13366  16.056  42.833   2.369
40942W        W13367   0.955  23.079  14.518
40943W        W13368  31.948  44.226  14.340
40944W        W13369  16.825  20.061   2.323
40945W        W13370  22.115  22.292   1.493
40946W        W13371  35.362  15.441  11.033
40947W        W13372  43.199   9.324   4.384
40948W        W13373  36.629  11.627   2.359
40949W        W13374   9.714   6.420  14.863
40950W        W13375  39.324  42.964  12.330
40951W        W13376  19.273   4.460  14.697
40952W        W13377  25.654   0.492  13.520
40953W        W13378  12.700   8.882   3.232
40954W        W13379  18.281  21.724  12.050
40955W        W13380   4.196  43.446   3.885
40956W        W13381   7.323  16.391   0.795
40957W        W13382  12.232  27.374   0.724
40958W        W13383  44.940   1.538  14.327
40959W        W13384  13.737   5.702   2.865
40960W        W13385  10.795  30.182  12.499
40961W        W13386   7.827   6.275  13.699
40962W        W13387  23.247   8.720  10.630
40963W        W13388  37.355   9.667   0.430
40964W        W13389  41.004  42.242   1.439
40965W        W13390   8.641   5.689   9.709
40966W        W13391  12.226  44.824   2.912
40967W        W13392  34.569  44.449  14.741
40968W        W13393  26.711  39.881   2.087
40969W        W13394  28.732   4.881   3.437
40970W        W13395  16.239  39.461  14.384
40971W        W13396  25.324  19.528   0.356
40972W        W13397  12.375   9.933   2.807
40973W        W13398  31.113  16.761   5.559
40974W        W13399  10.336  14.241  13.282
40975W        W13400  22.791  43.488  10.664
40976W        W13401  27.481  35.983   4.136
40977W        W13402  33.526  42.874  10.131
40978W        W13403   3.456  34.526  11.150
40979W        W13404  30.736  41.866  14.486
40980W        W13405  41.884  35.347  14.536
40981W        W13406  33.000  41.557   3.864
40982W        W13407  23.224  23.548   4.029
40983W        W13408  34.981  12.939   3.269
40984W        W13409  44.202   7.840   4.923
40985W        W13410  10.684   6.721  12.635
40986W        W13411  34.174  11.296   4.140
40987W        W13412  19.086   2.031   1.832
40988W        W13413  34.092   8.215   0.754
40989W        W13414   4.016  30.477  12.447
40990W        W13415   2.811  18.889  13.442
40991W        W13416  38.458   3.060  14.434
40992W        W13417  15.903  23.473  13.417
40993W        W13418  21.192  24.196   0.790
40994W        W13419  34.138  18.634  11.527
40995W        W13420  15.228  35.059  10.808
40996W        W13421  19.935   9.389   1.394
40997W        W13422  16.134  44.630  13.980
40998W        W13423  27.588  20.125  10.932
40999W        W13424  17.380  29.974   1.746
41000W        W13425  19.757  37.693  13.199
41001W        W13426  15.367  30.057   2.194
41002W        W13427  12.527  15.766  12.424
41003W        W13428  13.851  26.641   1.227
41004W        W13429  28.535  14.297   2.219
41005W        W13430  42.982  36.756   4.584
41006W        W13431   0.141  12.014  11.138
41007W        W13432   0.255  20.453  13.307
41008W        W13433  28.382  14.733  10.665
41009W        W13434  42.921   6.346   4.899
41010W        W13435  22.600  43.835  14.103
41011W        W13436  34.416  10.939   1.753
41012W        W13437  18.555  39.000   3.505
41013W        W13438  20.072   9.123   2.887
41014W        W13439  22.565   9.944   2.329
41015W        W13440  37.419  12.193  13.082
41016W        W13441  28.606  16.813  13.855
41017W        W13442   0.421  27.430  12.387
41018W        W13443  34.075  41.838   1.634
41019W        W13444  32.464  24.091   2.265
41020W        W13445   1.029  14.731  14.447
41021W        W13446  35.731  36.126   2.794
41022W        W13447   1.981  11.771  12.440
41023W        W13448   8.366  32.881   3.328
41024W        W13449  20.289   5.930   3.876
41025W        W13450  25.461  33.397   0.498
41026W        W13451   6.167   9.731   0.553
41027W        W13452  43.123  15.526  11.791
41028W        W13453  25.217  44.331  12.650
41029W        W13454  40.045  14.864   2.841
41030W        W13455   2.498  37.526   0.526
41031W        W13456  14.057  18.487   5.028
41032W        W13457   4.069   5.442  11.936
41033W        W13458  41.752  31.427  11.968
41034W        W13459  35.725  10.337  10.686
41035W        W13460   7.401   6.615  11.535
41036W        W13461  37.433  25.178   3.190
41037W        W13462  28.708  20.736  11.492
41038W        W13463  35.137   5.646   0.943
41039W        W13464  34.517  11.754   0.277
41040W        W13465  39.896  24.476   0.239
41041W        W13466   7.740   0.197   4.223
41042W        W13467  13.848  17.645   3.630
41043W        W13468  31.581  15.696   0.995
41044W        W13469  43.042  42.747  13.432
41045W        W13470  21.223  10.324   3.193
41046W        W13471  12.295  33.397   1.487
41047W        W13472   9.138   0.849   4.139
41048W        W13473  14.810  43.358   0.366
41049W        W13474  26.377  25.925  11.956
41050W        W13475  23.197   0.688   2.463
41051W        W13476  30.468  41.697   0.583
41052W        W13477  22.818  33.648   5.053
41053W        W13478   7.755  36.498   3.673
41054W        W13479  38.467  27.218  10.652
41055W        W13480  36.304   1.978  12.818
41056W        W13481  19.561  20.438   2.241
41057W        W13482  20.836  23.078  12.141
41058W        W13483  24.284  14.178   3.326
41059W        W13484  35.780   2.975   2.466
41060W        W13485  38.287  26.261  11.506
41061W        W13486  27.246  24.225  14.457
41062W        W13487  23.785  20.087  14.065
41063W        W13488  12.840  33.870  12.173
41064W        W13489  39.352  36.499  14.730
41065W        W13490  22.523  43.376   0.292
41066W        W13491  30.079  12.154  14.917
41067W        W13492  29.687  21.579  13.482
41068W        W13493  14.619  12.205   2.942
41069W        W13494  30.657  28.683   3.111
41070W        W13495  28.525  36.687  12.944
41071W        W13496  28.932  16.200  14.739
41072W        W13497  25.448  28.682  12.028
41073W        W13498  33.711  26.068   0.525
41074W        W13499  14.675  38.826   1.247
41075W        W13500   1.732   9.611   4.539
41076W        W13501  17.098   7.103  13.449
41077W        W13502  26.203  32.929   2.189
41078W        W13503   6.344  17.823   0.383
41079W        W13504  23.442  13.064  12.941
41080W        W13505  31.278  26.639  14.301
41081W        W13506   8.294   7.085   2.754
41082W        W13507  43.884  20.090  10.390
41083W        W13508  36.760  42.439  14.010
41084W        W13509  27.753  13.772  14.674
41085W        W13510  39.842  31.851   0.419
41086W        W13511  37.505   9.691  13.060
41087W        W13512  41.450   7.441  11.123
41088W        W13513  12.470  18.620   4.410
41089W        W13514  30.447  16.418  13.962
41090W        W13515  11.310  29.370   3.365
41091W        W13516  33.992  27.674  12.676
41092W        W13517  38.516  27.202   4.454
41093W        W13518  34.952  27.401  11.436
41094W        W13519   3.811  20.246   2.788
41095W        W13520  14.596  43.931  10.736
41096W        W13521   1.714  41.383   3.161
41097W        W13522  34.247  24.747   4.277
41098W        W13523   2.119  17.116   4.226
41099W        W13524  12.815   4.153  12.370
41100W        W13525  29.646   9.132  11.577
41101W        W13526   5.920  43.218  13.002
41102W        W13527   5.284  20.376   1.291
41103W        W13528   6.052   9.001  12.867
41104W        W13529  26.129  31.580   2.407
41105W        W13530   4.212  33.616   3.648
41106W        W13531  25.026  42.435  13.283
41107W        W13532  25.993   9.131   2.990
41108W        W13533  21.517  39.471   3.384
41109W        W13534  32.115  21.964   0.846
41110W        W13535  17.235  20.709   3.440
41111W        W13536  42.917  17.778   0.877
41112W        W13537   3.695   0.249  14.445
41113W        W13538   5.961  34.658  12.008
41114W        W13539  20.773  24.588   2.266
41115W        W13540  38.585  37.769  13.120
41116W        W13541   5.415  11.679  13.037
41117W        W13542  27.206  19.219  13.873
41118W        W13543  25.533  36.985  14.302
41119W        W13544   3.647  11.266   3.829
41120W        W13545  16.577  33.675   3.298
41121W        W13546  37.039  29.580   3.463
41122W        W13547  39.008  25.659  13.663
41123W        W13548  25.055   5.630  12.394
41124W        W13549  13.559   3.137  13.919
41125W        W13550  12.662   7.828   4.615
41126W        W13551  33.824  32.735   2.350
41127W        W13552  14.245  18.517  10.718
41128W        W13553  32.447  29.655   2.208
41129W        W13554  38.968  29.391  10.805
41130W        W13555  15.166   6.349  12.642
41131W        W13556  31.844  29.906  10.411
41132W        W13557   1.743   2.704   2.704
41133W        W13558  26.539  27.537   1.331
41134W        W13559  31.573   3.584  11.018
41135W        W13560  32.926  20.193  14.300
41136W        W13561  23.878  30.925   0.357
41137W        W13562  12.890  12.569  12.940
41138W        W13563  25.624  15.347   2.309
41139W        W13564  35.370  15.638  12.567
41140W        W13565  20.103  43.420  14.410
41141W        W13566  24.681  30.133   3.882
41142W        W13567  15.144   7.290   3.414
41143W        W13568  26.696  18.061  14.881
41144W        W13569  39.864  30.223  13.153
41145W        W13570  27.231  16.837   3.819
41146W        W13571  44.146  12.436  14.339
41147W        W13572  23.265  12.195   3.067
41148W        W13573   0.993  34.134  10.727
41149W        W13574   5.546  20.310   1.749
41150W        W13575  43.288  30.626  13.816
41151W        W13576  34.634  19.110   0.801
41152W        W13577  41.374  16.651  14.956
41153W        W13578  25.931   6.280  12.479
41154W        W13579  40.839  33.686  13.296
41155W        W13580  25.647  15.765  11.272
41156W        W13581  41.829  28.059  11.907
41157W        W13582  12.719  41.903   3.540
41158W        W13583  24.000  13.970   1.794
41159W        W13584  12.651  18.909   3.424
41160W        W13585  40.518  26.054   4.558
41161W        W13586  36.381  18.043   0.014
41162W        W13587   3.779  34.897  11.850
41163W        W13588   2.514  27.480   0.761
41164W        W13589  11.413   5.716   0.236
41165W        W13590  35.112  36.846   3.389
41166W        W13591  13.421  43.799   4.682
41167W        W13592  21.125  29.774  14.423
41168W        W13593  18.689  29.051   4.562
41169W        W13594  31.633  18.231  14.961
41170W        W13595  43.046  14.796  14.016
41171W        W13596  41.973  35.600   4.329
41172W        W13597   8.195   2.320   0.974
41173W        W13598  37.358  11.695   1.282
41174W        W13599  21.078   6.735   2.921
41175W        W13600  17.819  22.630   1.887
41176W        W13601  37.731  34.586   0.916
41177W        W13602  35.647  40.344   1.492
41178W        W13603  19.652  35.283   0.240
41179W        W13604  39.137  21.838   1.768
41180W        W13605  14.064   1.897  10.518
41181W        W13606  13.824  42.386  11.456
41182W        W13607   4.911  36.354   3.417
41183W        W13608  17.028  42.328   3.388
41184W        W13609  10.700   2.369  13.300
41185W        W13610  24.978   3.683  10.365
41186W        W13611  29.129  34.463  14.396
41187W        W13612  22.383  34.203  11.843
41188W        W13613  32.976   4.178  10.982
41189W        W13614  12.846  26.578   1.211
41190W        W13615  19.011  16.929   2.635
41191W        W13616  37.379  15.085   1.394
41192W        W13617  39.590   8.813   0.316
41193W        W13618  37.047  10.827   4.078
41194W        W13619   5.984   7.254  13.797
41195W        W13620  20.131  33.462   0.512
41196W        W13621  19.096  17.738   0.493
41197W        W13622  43.930  42.781   1.441
41198W        W13623  10.081   6.754  11.582
41199W        W13624  32.609  39.972   2.503
41200W        W13625   1.712  33.874   2.323
41201W        W13626   3.225  27.778   0.099
41202W        W13627  33.962  28.016  13.357
41203W        W13628  22.732  42.353  11.456
41204W        W13629  25.383   6.233  11.149
41205W        W13630  15.722  18.519  11.483
41206W        W13631  20.514  15.293   3.793
41207W        W13632  32.614  37.999  13.612
41208W        W13633  37.120  11.038  14.273
41209W        W13634  38.390   0.542   3.925
41210W        W13635  11.394  37.562  12.988
41211W        W13636  41.290  42.074   5.009
41212W        W13637  29.475  13.141   2.932
41213W        W13638  25.682  26.052  13.997
41214W        W13639  38.585  41.377   1.895
41215W        W13640   2.435  39.224   0.892
41216W        W13641   9.645  44.004   1.806
41217W        W13642  39.903  37.541  13.107
41218W        W13643  44.800  33.584   2.653
41219W        W13644   3.808  25.619   2.147
41220W        W13645  42.327  13.855   0.839
41221W        W13646  25.269  14.272  10.424
41222W        W13647  39.593  30.701  11.534
41223W        W13648  18.221  29.696  12.494
41224W        W13649  39.838  13.559   0.914
41225W        W13650  35.243  16.506  13.909
41226W        W13651  16.568  34.177   0.527
41227W        W13652  30.674  15.743   1.891
41228W        W13653  12.312  26.893  14.800
41229W        W13654  38.636   4.452  14.446
41230W        W13655  37.921  37.942   4.554
41231W        W13656   5.106  18.108   2.309
41232W        W13657   4.950  17.286  14.648
41233W        W13658  36.452  41.788   0.096
41234W        W13659  10.400  24.477   1.433
41235W        W13660  24.891  33.162  14.271
41236W        W13661  44.050   2.610  13.514
41237W        W13662  27.658  13.884  12.032
41238W        W13663   0.519   8.192   2.422
41239W        W13664  28.410  41.421  11.199
41240W        W13665  26.123  30.600   1.838
41241W        W13666  23.872  25.170  11.697
41242W        W13667  35.203   7.167   1.667
41243W        W13668  41.432  30.392   3.013
41244W        W13669   4.199  43.294  13.361
41245W        W13670  23.572  33.367  12.917
41246W        W13671  27.910   9.399   3.648
41247W        W13672  43.740  21.006  10.895
41248W        W13673  43.766  42.910   0.966
41249W        W13674   4.360  31.682  10.706
41250W        W13675  28.864  38.849   0.756
41251W        W13676  17.647  34.517   3.415
41252W        W13677   8.130  37.344  11.516
41253W        W13678  17.339   8.859   2.367
41254W        W13679  37.325  16.769   1.882
41255W        W13680  23.282   6.032  12.890
41256W        W13681  10.404  16.239  12.045
41257W        W13682  31.703  43.787  14.477
41258W        W13683  34.712  26.024   3.189
41259W        W13684  35.123  34.421  10.964
41260W        W13685  17.568  18.320  10.434
41261W        W13686  28.633  31.916  10.269
41262W        W13687  22.020  10.226  12.889
41263W        W13688  37.442  34.030  12.410
41264W        W13689  39.382  36.541  11.113
41265W        W13690  15.822   4.370   2.233
41266W        W13691  15.581  38.498  13.033
41267W        W13692   6.860  31.788  13.600
41268W        W13693  44.983  40.845  13.962
41269W        W13694  44.724   9.754   2.384
41270W        W13695   7.964  39.838   0.619
41271W        W13696  35.862  40.237   0.669
41272W        W13697  36.108  38.517  10.629
41273W        W13698  26.104  17.782  11.666
41274W        W13699  41.118  27.909   4.553
41275W        W13700  31.902   0.228   1.232
41276W        W13701   3.183   5.284  13.874
41277W        W13702  16.745  32.156   3.133
41278W        W13703   2.688   9.369  10.681
41279W        W13704  33.997  38.925  10.018
41280W        W13705   1.426   3.611   3.724
41281W        W13706  12.693  19.127   0.832
41282W        W13707   9.546   5.251   0.799
41283W        W13708  17.044  35.635   1.311
41284W        W13709   5.543  16.273  12.344
41285W        W13710  25.232  14.670  12.077
41286W        W13711  11.209  14.880   3.329
41287W        W13712   5.408  14.266  10.645
41288W        W13713  10.903  14.216   4.313
41289W        W13714  31.931  23.640   2.690
41290W        W13715  12.932  26.787  13.359
41291W        W13716  13.993  44.697   0.907
41292W        W13717  43.036  16.131  11.937
41293W        W13718  15.507  24.682   4.535
41294W        W13719  39.916  28.631   3.265
41295W        W13720  24.622  42.308  11.878
41296W        W13721  23.457   0.489  10.506
41297W        W13722  44.729   5.298   2.241
41298W        W13723  32.411  27.875  13.940
41299W        W13724  26.090   6.404   2.440
41300W        W13725  29.895   1.499   0.275
41301W        W13726  37.501  37.568  13.092
41302W        W13727  42.730  14.755   0.810
41303W        W13728   5.452  19.238  12.028
41304W        W13729  25.524  20.600  10.557
41305W        W13730  30.364  17.367   1.317
41306W        W13731  28.230  10.684  10.749
41307W        W13732  28.797  17.932  13.406
41308W        W13733  29.582  19.058   3.675
41309W        W13734   3.741  27.085   2.306
41310W        W13735  20.814  44.396   5.066
41311W        W13736  17.834  34.861  12.130
41312W        W13737   0.728   8.151  12.522
41313W        W13738  26.145  30.672  11.137
41314W        W13739  14.604  33.221   2.391
41315W        W13740  39.375  35.451   2.774
41316W        W13741  36.995  19.289   0.776
41317W        W13742  11.492  18.214  12.348
41318W        W13743   2.309  31.603   1.261
41319W        W13744   2.121  19.869  11.883
41320W        W13745   1.144  38.027  12.895
41321W        W13746  26.213  27.080   0.701
41322W        W13747  17.673  14.610  13.493
41323W        W13748  10.115  34.144   4.631
41324W        W13749  26.554  30.519  10.300
41325W        W13750  12.543   1.300   0.441
41326W        W13751  21.112   7.302   2.380
41327W        W13752   4.914  24.612  12.599
41328W        W13753  19.010   6.899  14.848
41329W        W13754  20.292  23.867  11.640
41330W        W13755  35.132  40.780  11.583
41331W        W13756  41.407  13.736  11.081
41332W        W13757  39.303  17.074  14.103
41333W        W13758   4.412  40.992   3.649
41334W        W13759  38.466  15.640   3.239
41335W        W13760  12.266  34.413  13.751
41336W        W13761  35.998  41.781   1.301
41337W        W13762   2.637  24.401  13.532
41338W        W13763  18.794   1.776  14.191
41339W        W13764  29.706   6.399  13.943
41340W        W13765  18.587  31.656  10.199
41341W        W13766  34.380   5.852   3.418
41342W        W13767   6.808  33.515   3.703
41343W        W13768  29.744  38.081   4.079
41344W        W13769   7.402  30.476   0.005
41345W        W13770   5.945  18.313   3.750
41346W        W13771  29.039  20.149  12.785
41347W        W13772  22.291  27.360   1.514
41348W        W13773  15.592  31.639  12.059
41349W        W13774  20.128   2.956   3.259
41350W        W13775  14.088  29.435   4.191
41351W        W13776  26.445   7.785  10.629
41352W        W13777   6.372   8.243  14.431
41353W        W13778  13.802   1.232   2.289
41354W        W13779  16.360   4.945   3.349
41355W        W13780   1.934  34.086  10.360
41356W        W13781  36.029  37.718   4.033
41357W        W13782  14.086  20.507   2.650
41358W        W13783  32.034  28.244  13.874
41359W        W13784   6.820   7.659   1.311
41360W        W13785   1.922  35.274  11.823
41361W        W13786  14.513  18.977   1.776
41362W        W13787  33.176  26.375   0.947
41363W        W13788  36.546  24.613  11.303
41364W        W13789  10.464  27.990   0.902
41365W        W13790  43.974   6.704   3.278
41366W        W13791  16.112   2.291  14.867
41367W        W13792   7.801   4.973  11.744
41368W        W13793  20.370   7.180  10.079
41369W        W13794  12.429  40.328  12.472
41370W        W13795  25.764  30.156   1.802
41371W        W13796  21.807   5.383  11.591
41372W        W13797  19.245  14.081  13.320
41373W        W13798   1.872  37.448  14.531
41374W        W13799  17.109   5.334  12.881
41375W        W13800  22.016  14.070   4.605
41376W        W13801  19.137  21.049  13.050
41377W        W13802  39.161  39.979   1.310
41378W        W13803  24.179  19.833   2.300
41379W        W13804  17.717  32.704   4.916
41380W        W13805  10.790   7.823   3.347
41381W        W13806  34.097   5.876  12.607
41382W        W13807  28.108  39.089  11.592
41383W        W13808  13.630  28.420  11.663
41384W        W13809  44.021  14.875  14.485
41385W        W13810  38.527  42.571  13.392
41386W        W13811  20.747  29.948   3.879
41387W        W13812  42.021  22.573  10.251
41388W        W13813  41.407   9.101   2.841
41389W        W13814  12.858  28.635  13.031
41390W        W13815  38.917   6.704  11.150
41391W        W13816  14.539   8.701   1.311
41392W        W13817  44.419  19.084   1.797
41393W        W13818  14.953  26.595  13.439
41394W        W13819  42.833   1.785  12.894
41395W        W13820  14.983  39.839   2.726
41396W        W13821   9.327   4.050  13.766
41397W        W13822  18.249  14.001   1.498
41398W        W13823   5.815  35.527   2.408
41399W        W13824   0.854  13.317   1.456
41400W        W13825  30.551  30.663  12.965
41401W        W13826  16.930  12.942  12.121
41402W        W13827   1.751   4.408   3.196
41403W        W13828   2.788  13.696   2.881
41404W        W13829  35.306  18.181  10.659
41405W        W13830  43.857  37.790  14.848
41406W        W13831  23.525  24.758  11.280
41407W        W13832  13.376  13.804   3.667
41408W        W13833  16.089  31.433   0.331
41409W        W13834  43.421   7.895   1.256
41410W        W13835  19.785  39.458  13.956
41411W        W13836   0.405   1.030   3.308
41412W        W13837  16.233  26.766  14.684
41413W        W13838  11.654  40.432   1.582
41414W        W13839  23.034  12.103  13.828
41415W        W13840  36.454  11.529  14.923
41416W        W13841   2.304  14.288   0.002
41417W        W13842  27.151  25.486  10.699
41418W        W13843  10.416   4.787  13.998
41419W        W13844  14.874  21.664   0.500
41420W        W13845  19.205  44.255  13.030
41421W        W13846  27.483  38.524  11.021
41422W        W13847  44.853  41.814  13.327
41423W        W13848  40.041  24.428  14.356
41424W        W13849  20.590   8.827   3.560
41425W        W13850  10.725  40.361  13.817
41426W        W13851  19.163   5.394  11.120
41427W        W13852  32.637  40.011   3.006
41428W        W13853   3.695  25.629   5.204
41429W        W13854  17.243  16.021   2.746
41430W        W13855  37.481  23.714   0.484
41431W        W13856   2.018   7.776  12.094
41432W        W13857  28.965  17.708   3.611
41433W        W13858   6.415  33.108  10.946
41434W        W13859  44.300   6.310   2.195
41435W        W13860   3.451  37.823   1.885
41436W        W13861   3.332  11.967   0.317
41437W        W13862  15.222  19.791  11.517
41438W        W13863  35.354  12.004  13.103
41439W        W13864  44.709  29.351  12.139
41440W        W13865  43.837  36.213  11.521
41441W        W13866  18.043  32.891   1.268
41442W        W13867  25.297   5.651   2.393
41443W        W13868  38.261  42.999   3.167
41444W        W13869  16.380  38.927   4.500
41445W        W13870  21.884  22.229  12.014
41446W        W13871   5.974   9.190  14.817
41447W        W13872  22.235  11.535   5.502
41448W        W13873  17.616   8.891   0.912
41449W        W13874   8.947  21.602  13.485
41450W        W13875  39.013   9.198  13.001
41451W        W13876  34.434  32.110  11.147
41452W        W13877   2.446  27.652   4.143
41453W        W13878  10.991  41.456   1.160
41454W        W13879  10.839  26.715   0.919
41455W        W13880   7.968  44.892   0.726
41456W        W13881   9.376  44.787   1.911
41457W        W13882  33.982  44.913  11.979
41458W        W13883   7.264  16.243  11.204
41459W        W13884  15.497  22.180   3.759
41460W        W13885  29.908  39.114  12.871
41461W        W13886   0.431  40.476  13.141
41462W        W13887  31.034  35.939   2.256
41463W        W13888  40.496   1.751  13.141
41464W        W13889  38.670  38.412   0.860
41465W        W13890   2.219   9.233  12.927
41466W        W13891   4.945  36.350   4.164
41467W        W13892   9.152  27.974   2.439
41468W        W13893  14.168  34.426   1.860
41469W        W13894  30.982   9.654   4.174
41470W        W13895  19.693  38.564   1.666
41471W        W13896  20.781  30.902  11.800
41472W        W13897  36.055  35.828   1.555
41473W        W13898  42.838  34.950   2.348
41474W        W13899  36.119  11.320   3.112
41475W        W13900  24.913  17.773  10.696
41476W        W13901   0.479   5.700   2.258
41477W        W13902  21.707   5.507   2.635
41478W        W13903   5.204   0.605  11.246
41479W        W13904   9.707  28.950   0.898
41480W        W13905  24.223   8.627  10.593
41481W        W13906  28.930   0.804   4.307
41482W        W13907  19.108  30.069   5.235
41483W        W13908  33.343  22.434   2.764
41484W        W13909  32.224  17.095   4.269
41485W        W13910  30.305  24.500   1.938
41486W        W13911  42.407   7.399  12.544
41487W        W13912  11.258  11.286  12.017
41488W        W13913  36.493  43.733   3.568
41489W        W13914  22.764   0.554  11.079
41490W        W13915   4.437  16.667   0.673
41491W        W13916   4.457  33.601  11.912
41492W        W13917  28.975  16.669   0.461
41493W        W13918  34.873   4.464  12.758
41494W        W13919  31.382   8.908  12.890
41495W        W13920   3.227  34.498  11.623
41496W        W13921  36.938  36.422   1.438
41497W        W13922  29.296  41.780   3.386
41498W        W13923   6.974  34.441  14.142
41499W        W13924  41.547   1.826  12.515
41500W        W13925  39.193  14.179  14.560
41501W        W13926  18.054  43.994  14.048
41502W        W13927  15.978  22.306  10.336
41503W        W13928  19.850   9.250   0.841
41504W        W13929  24.092   3.905  10.859
41505W        W13930  39.915  34.539   3.153
41506W        W13931   3.388  21.071   2.856
41507W        W13932  43.747   8.182   2.859
41508W        W13933  36.518  23.036   1.219
41509W        W13934  11.400  30.552   1.847
41510W        W13935  30.596  31.886   0.372
41511W        W13936   4.953  10.099   4.963
41512W        W13937   5.459   8.743  11.186
41513W        W13938  15.182  38.964   1.957
41514W        W13939   9.238  40.439   3.666
41515W        W13940  33.390  16.202  11.279
41516W        W13941  20.726   5.176  13.832
41517W        W13942  33.336  25.388  12.049
41518W        W13943   3.786   9.305   2.254
41519W        W13944   6.199   4.731  14.882
41520W        W13945  31.896  43.835  13.994
41521W        W13946  16.747  25.599  12.434
41522W        W13947   8.665   2.456  14.346
41523W        W13948  14.151  11.603   1.259
41524W        W13949  13.056  43.135  13.411
41525W        W13950  36.370  23.620  14.330
41526W        W13951  25.694  23.994  13.228
41527W        W13952   4.991  42.143  13.302
41528W        W13953  12.243  34.166   3.596
41529W        W13954  35.792  32.914   0.649
41530W        W13955  12.883  43.876   4.665
41531W        W13956   8.718   6.763  11.126
41532W        W13957  34.599  32.356   3.334
41533W        W13958  26.747  17.797  10.324
41534W        W13959  34.256  14.285   0.574
41535W        W13960   2.873  26.994   2.120
41536W        W13961  17.137   9.689  14.253
41537W        W13962   9.086   7.778  12.345
41538W        W13963  32.590  44.962   3.675
41539W        W13964  26.716  17.106   1.732
41540W        W13965  28.456  12.813  10.555
41541W        W13966  40.194   7.563  10.753
41542W        W13967  43.815  32.664   3.958
41543W        W13968  44.503  31.761   5.045
41544W        W13969  21.717  36.614  12.073
41545W        W13970  15.679   3.883  13.425
41546W        W13971  27.414   3.722   4.699
41547W        W13972   6.182  39.380  12.564
41548W        W13973   0.976  11.262   1.215
41549W        W13974   8.326  18.964  10.915
41550W        W13975  33.191  23.052  13.160
41551W        W13976  26.995  39.039   0.536
41552W        W13977  15.518  42.341   2.791
41553W        W13978  25.466  17.066   4.068
41554W        W13979  33.086  25.931   4.723
41555W        W13980  13.617  10.359  11.019
41556W        W13981  39.502  18.477   4.120
41557W        W13982   6.251  27.499  11.961
41558W        W13983   0.157  31.678  12.016
41559W        W13984   0.042  24.749  12.872
41560W        W13985  17.090  43.031  13.800
41561W        W13986  10.375  16.271  10.733
41562W        W13987  31.731  42.422  11.451
41563W        W13988  16.830  22.272   0.045
41564W        W13989  39.702   1.233  14.920
41565W        W13990  10.843  25.762   1.259
41566W        W13991   3.806  35.909  12.934
41567W        W13992  33.961  39.890  11.037
41568W        W13993  33.569  42.201  10.926
41569W        W13994  21.591   8.357   0.377
41570W        W13995  38.831  11.181   2.818
41571W        W13996  18.021  22.598  14.117
41572W        W13997  10.159   6.029   1.835
41573W        W13998  24.962  40.898   3.976
41574W        W13999   3.220  28.588  12.839
41575W        W14000  13.460  37.866  14.257
41576W        W14001  21.403  32.166   2.134
41577W        W14002  14.672  38.971   2.704
41578W        W14003  34.048   5.675   2.686
41579W        W14004  16.620   7.875   0.066
41580W        W14005  35.421  41.993   1.984
41581W        W14006  13.874  44.442  10.532
41582W        W14007  10.694   8.096   0.995
41583W        W14008  34.943  15.646   1.729
41584W        W14009  17.404  19.315  11.333
41585W        W14010  25.197   9.167   4.294
41586W        W14011  39.305   0.438  11.981
41587W        W14012  27.360  38.144   3.152
41588W        W14013  39.985   1.331   4.576
41589W        W14014  19.301  12.049  11.052
41590W        W14015  42.284  25.477   4.618
41591W        W14016  30.240  12.669  12.073
41592W        W14017  34.331  26.774  12.571
41593W        W14018  11.292  39.420   0.308
41594W        W14019  27.726   7.412  12.570
41595W        W14020  34.730   4.791  14.952
41596W        W14021  23.650  19.809   2.306
41597W        W14022  33.343  21.274  10.696
41598W        W14023  19.567  30.331   5.153
41599W        W14024  24.636  42.947   4.251
41600W        W14025   7.854  30.868   2.460
41601W        W14026   4.762   1.304   0.261
41602W        W14027  39.061   6.430   4.033
41603W        W14028  33.575   4.551   3.277
41604W        W14029  40.979  25.483   3.279
41605W        W14030  32.778  16.348   1.972
41606W        W14031   5.584  39.767   1.184
41607W        W14032  24.709   3.512   1.829
41608W        W14033  39.521  10.192  14.477
41609W        W14034  22.562   4.368  14.840
41610W        W14035  33.153  37.672   2.828
41611W        W14036  16.541  17.148  12.667
41612W        W14037  37.779  30.884   4.497
41613W        W14038   6.147  17.559  13.300
41614W        W14039  25.094  43.868   4.077
41615W        W14040  13.422   6.381  12.083
41616W        W14041  20.102  19.191  12.965
41617W        W14042  17.405  34.601  12.683
41618W        W14043  32.856  27.509  13.905
41619W        W14044  13.443  33.909   1.214
41620W        W14045  43.068  38.803   3.798
41621W        W14046  14.082  34.521   0.582
41622W        W14047  13.369  22.721   2.276
41623W        W14048  30.830  17.687  11.867
41624W        W14049  34.905   4.759   0.454
41625W        W14050  36.439  27.836   2.120
41626W        W14051  31.821  23.576   4.610
41627W        W14052  42.576  28.990   0.848
41628W        W14053  19.092  22.039   2.215
41629W        W14054  30.419   8.517  12.371
41630W        W14055  16.108  43.671   3.890
41631W        W14056  42.363  26.567  10.918
41632W        W14057  17.252   9.187  12.511
41633W        W14058  19.395  29.792  12.988
41634W        W14059  34.538  41.071  13.779
41635W        W14060  25.646  17.669   1.960
41636W        W14061   7.160  42.965   0.381
41637W        W14062  32.585  13.120  14.301
41638W        W14063   4.669  12.851  11.855
41639W        W14064  43.471  35.852  10.864
41640W        W14065   5.349  34.484  14.923
41641W        W14066   1.004   6.753  11.337
41642W        W14067  14.483   2.764  12.353
41643W        W14068  18.762  42.228   0.405
41644W        W14069  44.870  33.480   3.834
41645W        W14070  32.602   1.964   2.344
41646W        W14071  16.882   2.297   1.701
41647W        W14072  14.631  36.805   2.301
41648W        W14073   4.809  18.039   3.346
41649W        W14074  28.735  44.379  14.435
41650W        W14075   4.439   2.040   3.149
41651W        W14076   4.756  31.082  14.001
41652W        W14077   1.184  40.938  12.354
41653W        W14078  34.434  31.862  10.694
41654W        W14079  13.721   0.406  14.354
41655W        W14080   1.388  43.270  11.676
41656W        W14081   8.371  10.818   0.903
41657W        W14082  21.669  25.041   0.209
41658W        W14083  19.230  28.534   0.868
41659W        W14084  37.445  40.821  12.526
41660W        W14085   5.293   8.589  12.545
41661W        W14086  30.017  43.423   0.341
41662W        W14087  41.053  42.069   0.784
41663W        W14088   5.512  18.111  13.830
41664W        W14089  25.995   2.902   1.916
41665W        W14090  20.773  14.662  10.583
41666W        W14091  39.541  13.184   0.735
41667W        W14092  29.371  42.077  12.485
41668W        W14093  30.322  43.421   2.225
41669W        W14094  36.520  29.458  11.964
41670W        W14095  36.409  18.189   5.096
41671W        W14096  16.680  13.214   2.712
41672W        W14097  31.350  22.584  13.807
41673W        W14098  41.094  42.583  12.636
41674W        W14099  25.998   9.791  12.014
41675W        W14100   0.023  12.690  14.739
41676W        W14101  10.893  43.816   2.840
41677W        W14102  34.381  34.666  12.345
41678W        W14103  36.040   2.657  14.786
41679W        W14104  24.035  10.391  13.911
41680W        W14105  38.781   5.189   4.563
41681W        W14106   4.994   0.469  13.855
41682W        W14107  32.943  32.635   2.295
41683W        W14108   5.806  32.635   1.820
41684W        W14109  13.135  38.223  11.070
41685W        W14110  13.878  39.780  14.598
41686W        W14111   6.789  17.211   2.356
41687W        W14112   1.761  31.277  11.933
41688W        W14113   8.397  10.428   1.370
41689W        W14114   3.910   3.546   2.815
41690W        W14115  36.111   0.713   4.990
41691W        W14116  43.939  33.975   2.402
41692W        W14117  28.053  41.771  11.222
41693W        W14118  15.854  20.643  14.442
41694W        W14119  14.323  43.161   0.219
41695W        W14120  38.621   0.957  11.591
41696W        W14121  43.589  28.091  13.935
41697W        W14122  40.839   4.690   4.939
41698W        W14123  24.017  18.332  13.493
41699W        W14124  20.017  12.830  14.444
41700W        W14125  26.118  25.534   3.534
41701W        W14126  26.805   5.713  10.495
41702W        W14127  12.680  44.890  10.893
41703W        W14128  31.850  41.793   2.399
41704W        W14129  39.619  25.020   0.060
41705W        W14130  20.048  11.765   1.884
41706W        W14131   9.214  30.469   1.733
41707W        W14132  26.929  10.289  10.575
41708W        W14133  31.812  24.101  12.171
41709W        W14134  43.792  31.102   4.739
41710W        W14135   6.064  37.906  12.892
41711W        W14136  26.209  15.127   3.730
41712W        W14137   0.643  38.700  11.157
41713W        W14138  41.933  24.891  11.321
41714W        W14139  24.739   5.811  10.718
41715W        W14140  12.221  33.898   0.670
41716W        W14141   2.485  10.657   4.067
41717W        W14142  25.052  17.224   4.390
41718W        W14143  25.565  17.552   0.918
41719W        W14144  25.238  15.129  14.082
41720W        W14145  31.681  17.316  10.212
41721W        W14146  35.666   1.820  12.582
41722W        W14147  27.172   4.214  13.818
41723W        W14148  37.770   8.332  12.940
41724W        W14149  31.483  19.072   0.317
41725W        W14150  24.736  16.110   4.199
41726W        W14151   0.799  34.463  11.506
41727W        W14152  14.884  20.813  12.925
41728W        W14153   8.281  30.084   4.054
41729W        W14154  35.277  42.666  13.841
41730W        W14155  28.062  26.474   4.281
41731W        W14156  26.223  42.242  12.052
41732W        W14157  33.153  19.528  11.043
41733W        W14158  12.311  29.151  10.602
41734W        W14159  44.020   6.801   4.614
41735W        W14160  43.072  36.055   3.197
41736W        W14161   7.512   3.426  11.579
41737W        W14162  23.777   1.873   0.375
41738W        W14163   6.688   6.396   4.718
41739W        W14164  15.386  13.588   0.218
41740W        W14165  22.823  26.719   1.713
41741W        W14166   5.245  28.048  11.125
41742W        W14167  17.875  44.408   0.823
41743W        W14168  29.529   6.967  11.016
41744W        W14169  16.265  30.040  13.954
41745W        W14170   5.431  22.492  14.003
41746W        W14171   3.235  15.261   1.666
41747W        W14172  37.581  38.929  12.419
41748W        W14173   9.315   7.105  10.764
41749W        W14174  33.499   4.963   1.685
41750W        W14175  22.557  13.775  11.602
41751W        W14176  17.800  37.306  11.375
41752W        W14177  27.056  15.177   2.381
41753W        W14178  43.495  24.142  10.750
41754W        W14179  42.451  20.334   0.809
41755W        W14180   1.796  34.532  10.649
41756W        W14181  25.529  19.522   2.195
41757W        W14182  18.670  37.898  10.842
41758W        W14183  19.538  31.348   4.233
41759W        W14184  13.188  27.540  14.829
41760W        W14185  31.979  26.048   3.018
41761W        W14186   1.030  18.848  12.031
41762W        W14187  40.870   3.866  12.323
41763W        W14188   4.891   0.237   3.181
41764W        W14189  35.983  35.462   4.308
41765W        W14190   7.606  24.144   0.754
41766W        W14191  35.305  34.918   4.747
41767W        W14192  11.881  28.191   3.641
41768W        W14193   9.318  14.219   0.759
41769W        W14194   4.498  27.055  13.991
41770W        W14195  29.636  26.463   3.763
41771W        W14196  13.619  32.721  10.766
41772W        W14197   0.875  35.401   0.935
41773W        W14198   0.371  12.692  12.386
41774W        W14199  21.914  11.429  13.304
41775W        W14200  21.025  25.490   1.413
41776W        W14201  31.452  38.926   2.834
41777W        W14202  15.802   1.971   5.076
41778W        W14203  32.620  11.832  12.063
41779W        W14204  19.499  27.374  11.910
41780W        W14205  29.126  42.838   4.640
41781W        W14206  20.322  25.780   0.910
41782W        W14207  10.605  32.937  10.467
41783W        W14208  13.177   6.765  10.432
41784W        W14209  31.046  10.879  11.588
41785W        W14210  26.241  38.472   1.538
41786W        W14211  25.602   7.416  13.815
41787W        W14212  25.665  11.654   4.114
41788W        W14213   1.951  26.058   3.792
41789W        W14214   6.199  34.918  14.027
41790W        W14215  43.508  33.191   0.967
41791W        W14216  28.466  10.671   3.088
41792W        W14217  23.544  43.792   1.517
41793W        W14218  44.716  40.645   4.345
41794W        W14219  24.721   4.793   3.770
41795W        W14220  22.076  38.504   1.776
41796W        W14221  38.746  37.860  14.986
41797W        W14222  44.295   4.966   3.604
41798W        W14223  14.630  11.137   4.590
41799W        W14224  40.014  26.182  12.053
41800W        W14225  28.533  12.332   0.478
41801W        W14226  22.038  20.004   1.623
41802W        W14227  29.592  19.246   3.204
41803W        W14228  33.695  32.434   0.310
41804W        W14229   6.649  17.582  13.420
41805W        W14230   2.231  10.661  14.855
41806W        W14231  27.891  35.469  13.018
41807W        W14232  25.913  41.515  13.080
41808W        W14233   7.804  22.537  14.016
41809W        W14234  22.683  13.184  13.813
41810W        W14235   3.805  44.540   2.766
41811W        W14236  11.789  32.194   3.187
41812W        W14237  27.273  43.742   0.893
41813W        W14238   7.068  36.890   1.896
41814W        W14239   3.746   6.264  11.005
41815W        W14240  16.150  41.379   2.907
41816W        W14241  18.130  20.227   4.628
41817W        W14242  41.465  32.352  10.885
41818W        W14243  10.134  26.695  14.517
41819W        W14244  18.388  10.318  14.456
41820W        W14245  18.320  34.911   4.696
41821W        W14246   7.718  14.480   2.668
41822W        W14247  18.271   0.499  14.412
41823W        W14248  21.470  21.211   1.708
41824W        W14249   3.501   6.749   3.132
41825W        W14250  44.293  42.327   2.794
41826W        W14251  17.368  14.081   0.655
41827W        W14252  39.632  13.871  14.556
41828W        W14253  42.842  36.324  14.255
41829W        W14254  12.373   8.846   0.372
41830W        W14255  28.547  31.640   2.028
41831W        W14256   0.806  39.781   4.627
41832W        W14257  44.658  38.255   2.290
41833W        W14258  21.634  22.950   2.856
41834W        W14259  31.439  31.614  14.537
41835W        W14260   6.627  14.090   1.997
41836W        W14261  38.571  10.692   3.572
41837W        W14262  10.349  15.066   2.525
41838W        W14263  41.389  43.320   9.915
41839W        W14264   7.733   2.331  10.911
41840W        W14265  27.991  16.352  14.739
41841W        W14266  21.785  13.243  13.806
41842W        W14267   5.141  11.411  11.952
41843W        W14268  42.602  32.485  13.261
41844W        W14269  28.707  29.499   0.312
41845W        W14270   9.215  36.963  13.463
41846W        W14271   2.806   5.871   0.016
41847W        W14272  44.742  23.240  13.960
41848W        W14273  25.743   4.885  14.880
41849W        W14274   1.521  26.544   4.517
41850W        W14275   8.315  17.563   2.281
41851W        W14276  43.503   1.413  11.623
41852W        W14277  40.702  33.098   0.854
41853W        W14278  39.883  20.297   3.290
41854W        W14279  17.619  12.670   3.335
41855W        W14280  15.487  39.312  13.119
41856W        W14281  20.651  39.312   1.531
41857W        W14282  38.875   5.275  10.721
41858W        W14283  15.298   8.174  13.317
41859W        W14284   9.843  35.853   4.266
41860W        W14285  27.662  11.342  10.648
41861W        W14286  37.092  11.661   3.095
41862W        W14287  34.950  12.840  13.544
41863W        W14288  44.794  16.825  12.882
41864W        W14289   7.927   1.957   3.663
41865W        W14290  26.577  29.974   2.411
41866W        W14291  28.464  14.272   2.802
41867W        W14292   7.509  11.931   2.617
41868W        W14293   2.498   7.839   1.321
41869W        W14294  28.447   8.869  11.558
41870W        W14295  34.133  16.773   1.654
41871W        W14296  21.505  34.360  12.329
41872W        W14297  37.320   7.659   4.633
41873W        W14298  33.854  16.607   1.232
41874W        W14299  19.323  24.923   0.867
41875W        W14300  21.845  32.051  13.128
41876W        W14301  42.714  40.882  13.267
41877W        W14302  29.696  29.252  11.820
41878W        W14303  24.772  28.619   1.379
41879W        W14304  19.418  13.168   2.412
41880W        W14305   8.970  21.625   0.815
41881W        W14306  43.000  42.282   4.266
41882W        W14307  12.834  26.244   0.136
41883W        W14308  39.947  15.795  14.242
41884W        W14309  35.972   3.210   0.817
41885W        W14310   8.637  31.381  13.552
41886W        W14311   2.321  41.514   1.783
41887W        W14312  18.723  39.212  13.012
41888W        W14313  18.786   8.135   4.588
41889W        W14314  37.876  23.789   2.279
41890W        W14315   0.892   4.002  13.369
41891W        W14316  22.009   1.715  10.444
41892W        W14317  27.701  14.471   1.784
41893W        W14318  13.251  20.655   3.345
41894W        W14319  29.020   7.372  14.623
41895W        W14320   8.880  34.124  13.032
41896W        W14321   4.361  38.019   2.757
41897W        W14322  32.408  10.407  14.824
41898W        W14323   2.730  37.439  12.586
41899W        W14324  28.978  35.090   4.633
41900W        W14325  12.377  33.623   3.435
41901W        W14326  20.268  34.305   3.333
41902W        W14327  19.094  44.197  13.986
41903W        W14328   3.691   4.600  13.367
41904W        W14329  20.362  24.218   3.694
41905W        W14330  19.701  22.353  11.430
41906W        W14331  32.761  28.359   3.708
41907W        W14332  21.557  11.833   3.888
41908W        W14333  24.336  40.870  11.165
41909W        W14334   0.705  29.075  12.083
41910W        W14335  19.557  19.094  13.037
41911W        W14336   7.149  13.831  14.479
41912W        W14337  42.276  21.069   2.906
41913W        W14338  13.631  20.618  14.945
41914W        W14339   1.102  32.414   1.522
41915W        W14340  31.017   8.919   1.795
41916W        W14341  23.609  44.449   2.188
41917W        W14342  27.150  12.869   0.913
41918W        W14343   6.757  26.216  12.103
41919W        W14344  24.935  44.059  11.211
41920W        W14345   5.976  38.539   0.411
41921W        W14346  33.516  20.590   2.745
41922W        W14347  14.113  40.555   4.498
41923W        W14348  17.215  42.236   2.938
41924W        W14349  15.829   9.304  12.862
41925W        W14350  10.904  15.752  14.423
41926W        W14351  19.546  16.135   4.107
41927W        W14352   8.142  24.660   4.029
41928W        W14353  19.044  29.877   1.272
41929W        W14354   5.214  15.390   1.577
41930W        W14355  15.123   4.356  12.917
41931W        W14356  24.761  15.736  13.527
41932W        W14357  28.329  24.477  12.402
41933W        W14358  30.602  28.530  12.450
41934W        W14359  39.565  12.705  13.620
41935W        W14360   1.158  11.769  11.937
41936W        W14361  36.320  19.221  13.327
41937W        W14362  22.609  11.806  14.509
41938W        W14363  42.945  10.343  14.473
41939W        W14364  27.921  44.924   2.132
41940W        W14365  41.451  39.326  12.944
41941W        W14366  17.823  24.288   0.257
41942W        W14367  42.323   9.383   4.398
41943W        W14368  42.719  20.275   1.250
41944W        W14369  34.607  38.221  14.878
41945W        W14370  22.336  30.503  10.798
41946W        W14371  32.593   1.187   4.094
41947W        W14372  22.738  36.013  14.365
41948W        W14373  34.514  18.747   4.926
41949W        W14374  14.676   9.851   4.069
41950W        W14375  25.926  27.672  12.709
41951W        W14376  21.520  33.405  12.543
41952W        W14377  38.847  16.599   1.859
41953W        W14378  17.700  38.166   0.768
41954W        W14379  33.080  11.629   2.188
41955W        W14380  26.056   5.436   2.310
41956W        W14381  34.978  37.970   4.630
41957W        W14382  40.871  44.463   4.096
41958W        W14383  30.969   3.321   5.388
41959W        W14384  13.982  24.512   9.742
41960W        W14385   7.471  44.770  12.457
41961W        W14386   0.043  17.942  11.957
41962W        W14387  18.534  18.596  12.533
41963W        W14388  26.709  36.864  11.042
41964W        W14389  39.322  17.819   2.198
41965W        W14390  28.917  25.765   1.354
41966W        W14391  40.256  19.565   0.307
41967W        W14392  37.441  32.404  13.482
41968W        W14393  18.071  33.929   2.384
41969W        W14394  16.959  22.466  11.243
41970W        W14395   5.437  26.416  12.100
41971W        W14396   8.332   5.731  10.113
41972W        W14397  29.643   4.776  10.649
41973W        W14398   7.897  30.698   0.842
41974W        W14399  44.536   6.367   1.373
41975W        W14400  25.978  15.314   4.185
41976W        W14401   2.228  14.214   1.002
41977W        W14402  10.297  20.420  11.106
41978W        W14403  43.865  18.748  10.736
41979W        W14404  24.179  44.251  14.987
41980W        W14405  39.020  28.248   2.516
41981W        W14406   2.505  38.022  11.183
41982W        W14407  33.309  17.637   2.354
41983W        W14408  35.785   1.384   3.235
41984W        W14409  17.313  40.837  12.506
41985W        W14410  27.327  17.662   4.917
41986W        W14411  33.174  19.212  12.051
41987W        W14412  15.995  36.964   1.359
41988W        W14413  34.679  24.043   2.804
41989W        W14414  40.909  15.253   2.904
41990W        W14415  43.585  13.696   2.180
41991W        W14416  17.293  44.220   3.683
41992W        W14417  28.114  42.293   4.925
41993W        W14418  14.731   9.607  12.501
41994W        W14419  12.857  41.899  12.021
41995W        W14420  31.838  26.977   4.909
41996W        W14421  23.652  18.626  12.912
41997W        W14422  42.903  29.425  10.766
41998W        W14423  15.555  26.023  13.409
41999W        W14424   5.969  39.516  11.998
42000W        W14425  36.947   3.459   4.083
42001W        W14426  17.147  25.734  10.908
42002W        W14427  43.407  19.171   2.239
42003W        W14428   4.786  34.993   4.728
42004W        W14429  23.697  15.762   3.423
42005W        W14430  32.563  12.086   4.084
42006W        W14431  25.749  21.719   1.804
42007W        W14432  33.244  28.086   2.229
42008W        W14433   6.507  32.046  14.776
42009W        W14434  26.957   7.254  14.891
42010W        W14435   8.717  23.963   4.506
42011W        W14436   2.400   2.288   1.686
42012W        W14437  14.784  13.199  11.220
42013W        W14438  15.149  27.511  14.420
42014W        W14439  38.073  42.072   2.833
42015W        W14440   9.106  27.913  10.143
42016W        W14441  15.382  20.885   3.197
42017W        W14442   4.405  25.639   1.650
42018W        W14443  29.698  10.108   2.842
42019W        W14444  30.198  26.446  11.626
42020W        W14445  42.790  38.803  12.080
42021W        W14446  31.155   4.925   3.085
42022W        W14447  17.163  27.029  10.527
42023W        W14448  22.526  44.429  10.765
42024W        W14449   3.737  40.317   1.869
42025W        W14450  22.320  32.200   1.303
42026W        W14451  15.697  40.386   4.100
42027W        W14452  10.181  23.081   3.270
42028W        W14453  14.291  19.230   3.184
42029W        W14454  18.141  15.070  12.046
42030W        W14455   9.147  30.624  14.947
42031W        W14456   4.503   8.477  13.087
42032W        W14457   6.852   1.038  12.790
42033W        W14458  33.689  41.223  11.048
42034W        W14459  39.455  44.970  12.136
42035W        W14460  38.071  18.819  14.317
42036W        W14461  40.963  35.020   1.485
42037W        W14462  27.556  31.517   1.801
42038W        W14463  44.741  40.908  14.409
42039W        W14464  29.555  42.250  13.412
42040W        W14465   6.711   0.208   1.953
42041W        W14466  34.506  21.264   3.261
42042W        W14467  10.686  26.256   1.178
42043W        W14468  15.353  38.120   4.412
42044W        W14469  36.127  15.057  14.448
42045W        W14470  18.650  38.512   4.975
42046W        W14471   4.627  22.667   0.711
42047W        W14472  42.812  35.340  14.781
42048W        W14473  35.827  36.565   1.807
42049W        W14474   1.687  20.040   1.152
42050W        W14475  18.104  17.070  12.481
42051W        W14476  43.321  24.599   1.308
42052W        W14477  44.011  29.178   0.916
42053W        W14478  14.703  16.747  14.972
42054W        W14479  28.507  42.365   4.108
42055W        W14480  39.345   7.002  11.964
42056W        W14481  23.046  19.625   4.562
42057W        W14482  15.335  39.742   4.638
42058W        W14483  10.207  34.523  11.473
42059W        W14484  11.177  15.338   4.151
42060W        W14485  22.184   2.725   0.214
42061W        W14486   1.203  10.879  12.692
42062W        W14487  15.116  43.852  10.746
42063W        W14488  26.757  23.593  10.769
42064W        W14489  15.028  21.967   5.986
42065W        W14490  40.969  33.788   2.270
42066W        W14491  29.262  35.528   4.540
42067W        W14492  21.572  27.652  11.014
42068W        W14493  28.402  14.207   1.256
42069W        W14494  13.726  32.510   1.424
42070W        W14495  23.673   1.943  11.605
42071W        W14496  10.135  28.486  10.613
42072W        W14497   3.108  32.991   0.593
42073W        W14498   5.222  27.710  13.937
42074W        W14499  10.128  37.747   0.819
42075W        W14500   6.930  14.016   3.277
42076W        W14501  41.938   0.987   0.491
42077W        W14502  30.277  26.982   2.573
42078W        W14503  22.553  40.869   4.872
42079W        W14504  34.598   1.744   3.485
42080W        W14505   2.387  25.235  11.175
42081W        W14506  39.977  20.370  14.008
42082W        W14507   8.424  13.805   2.806
42083W        W14508  43.824  25.726  13.460
42084W        W14509  13.680  38.178   1.474
42085W        W14510  12.858   0.211  11.862
42086W        W14511  20.165   4.758  10.170
42087W        W14512   5.322  23.767   0.910
42088W        W14513   7.149  28.970  12.446
42089W        W14514  19.671   9.875   4.188
42090W        W14515  13.299  24.001  14.287
42091W        W14516  32.672   0.856   2.765
42092W        W14517   3.851  15.560   0.461
42093W        W14518  42.494  18.575  12.012
42094W        W14519  34.627  18.151  12.069
42095W        W14520  40.780  21.012  11.533
42096W        W14521  10.058   3.894   2.189
42097W        W14522  30.707  26.977   2.931
42098W        W14523  37.479  23.104  14.276
42099W        W14524  44.245  28.781   4.780
42100W        W14525  20.257  23.189  14.348
42101W        W14526  44.540  16.238  10.311
42102W        W14527  10.977  14.362   5.113
42103W        W14528  29.635  36.043  12.146
42104W        W14529  25.228   2.973   4.374
42105W        W14530   0.308  16.020   3.389
42106W        W14531  13.550  19.563   2.182
42107W        W14532  23.543  18.182   3.085
42108W        W14533  33.687  22.704   1.884
42109W        W14534  20.727  38.008   4.381
42110W        W14535   7.175   5.734  13.503
42111W        W14536  28.512  24.453  13.803
42112W        W14537  20.163   6.126  14.332
42113W        W14538  22.067  17.507  14.907
42114W        W14539  36.170  42.586   0.749
42115W        W14540  10.403  29.379   2.708
42116W        W14541  36.370  24.059   2.447
42117W        W14542  15.867  37.118  14.782
42118W        W14543  38.460   3.866  13.949
42119W        W14544   5.831  31.558  13.086
42120W        W14545  15.169  19.040   1.497
42121W        W14546   5.008  40.631   0.437
42122W        W14547  20.585  40.480  13.522
42123W        W14548  22.127  10.135   2.562
42124W        W14549   3.717  24.731   1.565
42125W        W14550  36.517  37.211  11.132
42126W        W14551  44.801  24.280   0.206
42127W        W14552  29.737  40.604  10.636
42128W        W14553  23.676   5.310  12.440
42129W        W14554  29.144   5.811   1.017
42130W        W14555  27.548  14.569   0.722
42131W        W14556  12.315  19.837  10.731
42132W        W14557  30.590  41.672  12.034
42133W        W14558  40.384  32.568  14.426
42134W        W14559   8.855  32.921   0.741
42135W        W14560  39.235   9.214  14.398
42136W        W14561  44.628  42.272  11.529
42137W        W14562  26.588  36.117  10.613
42138W        W14563   5.821  26.957  11.745
42139W        W14564  11.237  28.138  13.490
42140W        W14565  29.555  32.000   0.278
42141W        W14566  18.443  12.799  12.186
42142W        W14567  30.403   5.568   3.318
42143W        W14568  26.772  29.926  14.276
42144W        W14569   3.098  37.315  10.469
42145W        W14570   5.999  26.495  12.645
42146W        W14571   4.167  30.996  12.502
42147W        W14572  19.113  15.379  11.236
42148W        W14573  20.758  28.246  10.995
42149W        W14574   2.488  28.862   0.672
42150W        W14575  31.585  28.142   0.448
42151W        W14576  28.030   6.208  14.850
42152W        W14577  25.029  29.531  12.039
42153W        W14578  12.701  30.534   4.644
42154W        W14579   7.693  31.916   1.394
42155W        W14580  28.452  38.502  10.389
42156W        W14581  30.214   6.310  13.988
42157W        W14582  29.417  29.612   4.128
42158W        W14583  19.216  24.191   4.595
42159W        W14584  14.189  21.162   1.812
42160W        W14585  43.874   3.159  13.361
42161W        W14586  41.553  31.376   0.214
42162W        W14587  18.058  25.458  11.177
42163W        W14588   3.760  12.249   3.714
42164W        W14589  29.665  35.673  14.332
42165W        W14590  41.525  26.311   2.741
42166W        W14591  25.355   5.819  11.547
42167W        W14592  28.422  10.288  13.129
42168W        W14593  40.564  38.792   1.221
42169W        W14594  32.069  20.631  10.735
42170W        W14595   1.297  13.739  12.793
42171W        W14596  39.353   8.850  12.339
42172W        W14597  27.637  31.915  13.517
42173W        W14598  31.177  42.396  13.427
42174W        W14599  11.397   4.733  12.506
42175W        W14600   0.761  36.508   3.617
42176W        W14601  24.046  41.707   4.203
42177W        W14602  17.534  37.846   2.129
42178W        W14603  12.168  15.760   0.398
42179W        W14604  18.495  24.647  14.078
42180W        W14605  26.574  32.577  12.282
42181W        W14606  30.445  11.863  11.199
42182W        W14607  12.287   1.017   4.650
42183W        W14608   6.108  36.457  11.948
42184W        W14609  42.595  27.568  12.610
42185W        W14610   4.350  30.902  11.575
42186W        W14611  41.348  39.976  11.483
42187W        W14612  10.679   5.890   2.814
42188W        W14613  15.715  11.577  14.366
42189W        W14614  33.894  14.896   4.083
42190W        W14615  20.989   8.229   4.331
42191W        W14616  16.132  13.124  12.531
42192W        W14617  38.346  26.579  13.374
42193W        W14618  14.999  35.744  12.399
42194W        W14619   9.087   7.217  10.295
42195W        W14620  36.421   1.370  13.859
42196W        W14621  22.980   8.376   4.568
42197W        W14622  17.244  38.490  14.429
42198W        W14623  40.087  26.939  13.480
42199W        W14624  21.584  25.795  12.453
42200W        W14625  39.584   8.711   4.956
42201W        W14626  16.135  18.631  14.382
42202W        W14627  27.706  41.458   1.913
42203W        W14628  42.859  43.466   3.546
42204W        W14629   8.580  42.039   4.206
42205W        W14630  33.540  14.190   1.302
42206W        W14631  44.824  31.514   1.753
42207W        W14632  24.195  23.409   2.772
42208W        W14633   3.737  11.617  13.925
42209W        W14634  31.041  25.843   3.356
42210W        W14635  31.631   0.509   0.744
42211W        W14636  27.186  41.517   1.193
42212W        W14637   5.531  33.425  12.917
42213W        W14638  41.413  12.605  10.502
42214W        W14639  30.736  33.885  12.094
42215W        W14640   2.890  30.047   2.424
42216W        W14641  23.945  33.050   1.707
42217W        W14642  31.727  42.026   0.768
42218W        W14643   4.492  34.346   5.015
42219W        W14644   7.444  41.833  11.223
42220W        W14645   0.552  22.422   1.172
42221W        W14646  10.661  14.133  11.135
42222W        W14647  19.248   2.376  13.077
42223W        W14648   4.422  10.248  14.934
42224W        W14649  29.079  26.455  14.041
42225W        W14650   0.812  15.120   4.467
42226W        W14651  28.739   9.335  12.412
42227W        W14652   0.289  23.671   4.649
42228W        W14653  36.961  29.922   0.647
42229W        W14654  23.169   2.133   1.439
42230W        W14655  21.198  43.506   3.592
42231W        W14656  36.564   8.349   3.943
42232W        W14657  17.296  34.844   3.200
42233W        W14658  25.023   4.224   3.814
42234W        W14659   0.350   1.751  10.408
42235W        W14660   4.976  17.818  14.841
42236W        W14661  38.085  39.865   2.244
42237W        W14662   7.878  10.883   4.593
42238W        W14663  17.148  15.585  10.722
42239W        W14664  19.586   6.868   4.183
42240W        W14665  32.584  12.388   1.730
42241W        W14666   4.515  41.865   2.300
42242W        W14667  11.664  13.744   4.909
42243W        W14668  17.383  28.979   2.861
42244W        W14669   3.431  41.279  14.745
42245W        W14670  28.477  34.505  13.521
42246W        W14671  17.127  44.719   0.994
42247W        W14672  12.767  29.960   1.544
42248W        W14673  37.114  44.996   0.720
42249W        W14674  38.438  26.733  14.262
42250W        W14675   7.468   7.419   5.009
42251W        W14676  40.423  20.326   4.580
42252W        W14677   8.376  40.400  10.745
42253W        W14678  11.377  38.651   3.627
42254W        W14679  13.664  42.370   4.949
42255W        W14680   8.408  42.778   3.732
42256W        W14681   2.787   0.286  12.087
42257W        W14682  15.718   2.900   1.661
42258W        W14683  28.184  36.498   0.722
42259W        W14684  34.402  31.119  14.530
42260W        W14685  33.186  29.942   2.121
42261W        W14686  19.127  31.999   3.259
42262W        W14687   9.417  25.527  11.068
42263W        W14688   0.268   1.519   3.942
42264W        W14689  11.781  12.792   1.752
42265W        W14690  38.129  21.799   1.867
42266W        W14691  32.147   8.436   3.766
42267W        W14692  38.222  20.118   4.195
42268W        W14693  22.294  29.619  14.028
42269W        W14694  43.860  37.752  13.472
42270W        W14695   0.418  34.622   2.348
42271W        W14696  38.061   2.686   2.465
42272W        W14697  28.603  15.650   0.845
42273W        W14698  35.791  31.021  11.095
42274W        W14699  20.031  40.310   4.381
42275W        W14700  14.197  12.319  12.520
42276W        W14701   3.663  19.156   0.490
42277W        W14702  32.538  29.906  14.395
42278W        W14703  11.056  42.961   4.194
42279W        W14704   5.207  13.932   4.607
42280W        W14705  32.332  37.615   2.766
42281W        W14706   1.271  12.605  11.522
42282W        W14707  12.110  13.181  14.268
42283W        W14708  19.207   9.229   3.257
42284W        W14709  42.533  27.991  14.830
42285W        W14710  27.938   6.851   3.604
42286W        W14711  22.760  37.485   4.564
42287W        W14712  42.807  25.998   2.371
42288W        W14713  44.883  28.105  13.825
42289W        W14714  41.239  23.161  11.711
42290W        W14715   1.248   4.188  12.069
42291W        W14716  29.081  31.062   3.270
42292W        W14717  36.946  20.495  11.225
42293W        W14718  44.171  42.066  14.046
42294W        W14719   4.786  40.023  12.500
42295W        W14720  22.592  17.490  11.017
42296W        W14721  10.582  13.130  14.038
42297W        W14722  27.553  13.611   1.166
42298W        W14723  34.078   0.386  13.904
42299W        W14724  42.747  11.153  11.092
42300W        W14725  16.714  15.841   2.223
42301W        W14726  40.481  23.563  12.840
42302W        W14727  19.824  40.806  12.185
42303W        W14728   5.722  30.077   1.760
42304W        W14729  34.479  27.610  12.425
42305W        W14730  13.840   6.979   2.804
42306W        W14731   8.128  15.334   2.658
42307W        W14732  35.111  15.509   0.803
42308W        W14733  26.806   0.260   2.716
42309W        W14734  34.057   0.819  11.535
42310W        W14735  39.830  12.576   3.408
42311W        W14736   3.253  33.887  14.343
42312W        W14737  13.660  19.445   0.061
42313W        W14738  41.852  41.589   3.849
42314W        W14739  42.308  24.437  14.495
42315W        W14740  41.668  25.586   3.702
42316W        W14741  44.055  25.819  12.178
42317W        W14742  44.430  25.570  11.432
42318W        W14743   2.881  30.581   4.686
42319W        W14744  32.854  34.975  14.941
42320W        W14745  38.810  40.019  14.622
42321W        W14746  34.749  28.473   3.860
42322W        W14747  11.642  25.651  12.936
42323W        W14748   9.198  35.615  10.226
42324W        W14749  19.817   1.527   1.972
42325W        W14750   3.268  15.370  11.671
42326W        W14751  30.728  13.683   2.309
42327W        W14752  44.873  42.740  12.860
42328W        W14753  19.977  15.504  11.193
42329W        W14754  21.487  26.939   3.926
42330W        W14755  25.011  24.767   2.395
42331W        W14756  16.397   4.208  13.807
42332W        W14757  16.489  16.363   2.152
42333W        W14758   5.289  26.025   1.287
42334W        W14759   9.101   7.433   2.281
42335W        W14760  25.383  35.807  12.896
42336W        W14761  16.107  10.084  13.018
42337W        W14762  37.204  29.429  11.564
42338W        W14763   9.266  22.210  10.738
42339W        W14764  16.519  16.125   0.246
42340W        W14765  24.355  19.934   3.611
42341W        W14766  13.822   9.158  12.514
42342W        W14767  13.103  36.834   1.319
42343W        W14768  21.488   2.434  13.420
42344W        W14769  26.123   6.896   1.178
42345W        W14770  27.085  40.073  11.176
42346W        W14771  36.172   0.302   1.271
42347W        W14772   3.882  26.928   3.897
42348W        W14773  15.661   2.764   1.156
42349W        W14774   7.697  18.049  13.719
42350W        W14775  29.463  23.480   1.046
42351W        W14776  20.966  44.084   0.326
42352W        W14777   8.346  42.316  11.046
42353W        W14778   7.846  22.629   2.389
42354W        W14779  14.824   6.680  10.972
42355W        W14780  15.275   5.984   3.612
42356W        W14781  35.286  39.764  11.658
42357W        W14782  32.433  41.493   1.702
42358W        W14783  21.738   2.960   0.027
42359W        W14784  15.980  12.638  12.531
42360W        W14785  37.518  11.391  12.845
42361W        W14786  32.930  31.183   3.806
42362W        W14787  39.581  44.444   0.725
42363W        W14788  37.829  36.555   0.937
42364W        W14789  14.310  37.049  12.592
42365W        W14790  31.167   4.832  11.725
42366W        W14791  36.719  23.285  10.612
42367W        W14792  35.477  17.255  10.562
42368W        W14793  39.399  32.514  11.555
42369W        W14794  19.496  42.367   2.287
42370W        W14795  12.578  10.642   0.904
42371W        W14796  23.409  35.084  11.998
42372W        W14797  39.540  13.823   3.825
42373W        W14798  37.734  22.158   1.769
42374W        W14799   4.753  33.883  10.298
42375W        W14800   9.124  38.570   4.047
42376W        W14801  36.901  33.914   1.843
42377W        W14802   1.911  27.656   4.160
42378W        W14803  27.082  19.517   1.448
42379W        W14804  35.389  28.722  13.509
42380W        W14805  14.872  35.371   2.849
42381W        W14806  18.320  22.780   1.907
42382W        W14807  15.583  37.919   2.853
42383W        W14808  43.494  30.381   3.800
42384W        W14809  18.826  33.134   2.786
42385W        W14810  11.643  23.538   2.324
42386W        W14811   6.760   1.323  11.982
42387W        W14812  28.922  33.189   1.442
42388W        W14813  18.562  14.607  13.604
42389W        W14814  22.682  37.636  14.057
42390W        W14815  32.631  11.439   1.790
42391W        W14816  11.636  12.044   2.426
42392W        W14817  18.224  35.484  10.867
42393W        W14818   5.189  30.461   2.230
42394W        W14819  23.586   1.171  12.161
42395W        W14820  26.638  25.446   1.825
42396W        W14821  36.941  15.050   3.246
42397W        W14822  42.926   6.886  13.399
42398W        W14823  36.452  38.782  14.476
42399W        W14824  22.296  36.944   2.702
42400W        W14825  25.675   1.982  14.473
42401W        W14826  36.636  41.307  12.799
42402W        W14827   6.839  38.552  14.968
42403W        W14828  22.548  43.745   4.602
42404W        W14829  31.096  13.960  13.326
42405W        W14830   6.310   0.291   4.357
42406W        W14831  18.009  34.788  12.960
42407W        W14832  22.424   0.489  13.926
42408W        W14833  44.332  34.701  10.732
42409W        W14834  36.128  15.671  11.976
42410W        W14835  40.844  25.501  14.077
42411W        W14836   3.875  13.790   5.040
42412W        W14837  32.807  30.748  11.163
42413W        W14838  41.403  32.888  11.001
42414W        W14839  37.664   1.410   0.961
42415W        W14840   4.325  39.595   0.878
42416W        W14841  21.480  40.847   0.389
42417W        W14842  20.882  31.519  11.564
42418W        W14843  12.022  24.529  10.015
42419W        W14844  40.339   2.034   4.215
42420W        W14845  16.856  31.397   1.043
42421W        W14846   7.877  27.832   1.406
42422W        W14847  43.902  17.265   1.932
42423W        W14848   8.193  31.528  12.675
42424W        W14849  25.994  27.525   0.528
42425W        W14850  25.742   6.108  14.355
42426W        W14851   9.409  18.783   4.709
42427W        W14852   2.336  35.480  13.099
42428W        W14853  23.003  24.941   3.653
42429W        W14854  40.044   8.755   2.767
42430W        W14855  36.579  12.795   4.661
42431W        W14856  39.755   9.929  13.384
42432W        W14857  18.699  33.963  11.692
42433W        W14858  34.816  44.783   2.391
42434W        W14859  17.638  30.928  11.495
42435W        W14860  24.990  13.643  11.579
42436W        W14861  37.090  39.205  13.432
42437W        W14862  27.492  16.220  11.168
42438W        W14863   3.753  36.914   1.763
42439W        W14864  28.682   1.055  12.047
42440W        W14865   5.719   1.662  12.013
42441W        W14866  41.212  44.890   5.680
42442W        W14867  40.168  11.948  11.877
42443W        W14868  27.748   0.458  14.505
42444W        W14869  28.448  23.279  11.828
42445W        W14870  34.400  36.898  11.946
42446W        W14871  40.436  19.308   4.678
42447W        W14872  13.088   6.968  13.582
42448W        W14873   1.050  22.452  11.120
42449W        W14874  17.919  33.693  11.102
42450W        W14875   0.209  14.562   0.937
42451W        W14876  43.777  31.965  12.876
42452W        W14877  32.063   2.187  10.969
42453W        W14878  13.648   4.448   1.402
42454W        W14879  19.687  42.848   2.221
42455W        W14880  16.900  30.017  12.408
42456W        W14881  14.959  33.480   1.606
42457W        W14882  30.957  38.787   4.716
42458W        W14883  21.486   4.406  13.896
42459W        W14884  35.908  19.779   0.007
42460W        W14885   6.814  17.845  13.837
42461W        W14886   7.781   6.598  13.289
42462W        W14887  32.815  10.312   2.846
42463W        W14888  39.058  43.362   4.202
42464W        W14889   3.819  17.793   1.321
42465W        W14890  30.590   6.214   3.164
42466W        W14891   0.443   4.914  14.219
42467W        W14892  36.358  39.806  14.411
42468W        W14893  30.058   4.860  10.947
42469W        W14894  33.441  32.796  12.522
42470W        W14895  11.061  11.328   4.493
42471W        W14896  17.662   1.284   4.052
42472W        W14897  33.469  22.909  11.463
42473W        W14898  22.977  22.640  13.566
42474W        W14899  10.359  16.422   1.114
42475W        W14900  22.234  37.674  12.784
42476W        W14901  11.304   7.463   0.620
42477W        W14902  23.420   0.561   1.979
42478W        W14903  18.732  17.079  11.603
42479W        W14904  38.937  42.495  10.191
42480W        W14905  19.220   1.989  10.463
42481W        W14906  35.526  17.010  11.968
42482W        W14907  12.692  37.837   3.771
42483W        W14908  11.832  20.822  11.515
42484W        W14909   1.415  12.691  12.585
42485W        W14910  28.049  24.700   1.829
42486W        W14911   3.771  28.930   2.657
42487W        W14912  16.343  32.610  14.013
42488W        W14913  11.581  14.761  13.915
42489W        W14914  24.178   6.961  13.480
42490W        W14915   5.719  26.060   1.751
42491W        W14916  26.748  34.402  14.495
42492W        W14917  29.209  32.128  14.797
42493W        W14918  43.527   2.380   4.408
42494W        W14919   6.964  40.075  11.094
42495W        W14920  13.438   8.309   3.341
42496W        W14921  26.819  41.996  12.523
42497W        W14922  35.127  31.120  10.517
42498W        W14923  14.544  23.583  12.043
42499W        W14924   4.308  35.341  12.445
42500W        W14925  27.511  14.216  14.740
42501W        W14926  34.969  34.901  13.990
42502W        W14927  13.666  10.428  14.469
42503W        W14928  25.179  43.446  14.891
42504W        W14929  41.032  40.437  14.484
42505W        W14930  17.377  32.582  13.893
42506W        W14931  28.149   7.603  14.504
42507W        W14932  12.646  28.191   0.822
42508W        W14933  43.851  33.182   3.867
42509W        W14934  32.449  39.135  11.275
42510W        W14935  31.059  10.248  10.819
42511W        W14936   3.232   7.975  14.571
42512W        W14937  19.566  41.593   3.386
42513W        W14938  22.501  15.270  14.607
42514W        W14939  16.137  44.308   0.874
42515W        W14940  11.439  12.625  14.349
42516W        W14941   0.937  21.080   3.621
42517W        W14942  19.458   5.769  14.795
42518W        W14943  22.566  44.270   4.579
42519W        W14944  32.995  15.974  11.496
42520W        W14945   8.227   7.447   4.598
42521W        W14946   2.492  15.746   3.307
42522W        W14947  17.665  13.383  12.496
42523W        W14948  43.563  35.410   0.421
42524W        W14949  36.617   5.934  14.912
42525W        W14950  14.804  20.366   4.564
42526W        W14951  40.811   2.360   2.319
42527W        W14952   6.628  25.113  12.617
42528W        W14953  19.613  31.142   5.188
42529W        W14954  14.391  30.207   2.283
42530W        W14955   6.411  27.228   3.667
42531W        W14956  12.231   5.385   0.248
42532W        W14957  13.656  32.311   1.920
42533W        W14958   3.555  40.277  11.578
42534W        W14959  15.000   2.256   2.911
42535W        W14960  14.669  18.239   2.141
42536W        W14961  42.698  43.843   0.829
42537W        W14962  43.831  30.035  11.854
42538W        W14963  40.313  24.459   4.310
42539W        W14964  15.637  14.664   0.365
42540W        W14965  43.774  39.058  11.756
42541W        W14966   2.339   7.684  10.719
42542W        W14967  38.241   7.156   4.668
42543W        W14968  22.089  31.651  13.771
42544W        W14969  10.064  27.878  12.980
42545W        W14970  28.080  38.106  14.925
42546W        W14971   1.278   1.709   1.383
42547W        W14972  41.661  11.791  12.966
42548W        W14973  26.458  11.633   2.118
42549W        W14974  39.772   8.899  11.904
42550W        W14975   7.410   0.293  13.478
42551W        W14976  38.541  24.969  14.445
42552W        W14977   3.423  23.139  10.903
42553W        W14978  44.292  14.397   1.914
42554W        W14979   9.197  30.123   4.646
42555W        W14980  26.920  18.760  13.855
42556W        W14981   6.435  31.967   0.765
42557W        W14982  32.410   8.676   1.740
42558W        W14983  29.811  13.056  11.115
42559W        W14984  28.054  41.012  12.817
42560W        W14985  17.669  20.761   2.273
42561W        W14986  38.332   9.716  14.543
42562W        W14987   6.955   1.813  12.074
42563W        W14988   5.780  31.996   4.608
42564W        W14989  31.997  19.652   0.467
42565W        W14990   5.901   5.370  10.494
42566W        W14991   8.025  43.137   1.640
42567W        W14992  39.322  28.740  14.232
42568W        W14993   1.827  25.905  11.465
42569W        W14994  19.475   9.364   1.180
42570W        W14995  39.497  37.817   4.082
42571W        W14996   5.762  27.214   0.873
42572W        W14997  25.267  33.880  10.955
42573W        W14998  42.068  23.387  10.680
42574W        W14999  11.636  31.390   3.827
42575W        W15000  25.455  12.805   4.975
42576W        W15001  14.650  14.374   2.762
42577W        W15002  33.899  34.128   3.360
42578W        W15003  25.150  20.259   0.971
42579W        W15004   6.641   7.809   0.850
42580W        W15005  44.471  40.429  12.891
42581W        W15006  33.576  39.960   0.254
42582W        W15007   9.243  25.212  10.009
42583W        W15008  12.733  28.160  12.866
42584W        W15009  33.680  18.197  14.701
42585W        W15010  34.071  26.434  14.697
42586W        W15011   4.649  43.479   2.709
42587W        W15012  20.172  41.437   0.318
42588W        W15013   1.244   3.329  13.334
42589W        W15014  23.114  33.144  11.588
42590W        W15015  21.600   9.704   4.567
42591W        W15016  31.539  28.637  10.879
42592W        W15017  40.116  14.083   2.384
42593W        W15018  39.011  28.656  12.979
42594W        W15019  13.759  42.414  14.537
42595W        W15020  35.361  42.127  13.854
42596W        W15021   0.724  29.029   1.426
42597W        W15022  44.815  16.693  10.422
42598W        W15023  28.167  34.434  10.572
42599W        W15024  13.375  24.217  10.292
42600W        W15025  39.639  31.517  13.076
42601W        W15026   5.363  10.116   0.343
42602W        W15027  25.486  32.146   2.905
42603W        W15028  13.148  22.598   1.783
42604W        W15029  43.255  13.387  10.689
42605W        W15030  24.718  39.822   1.116
42606W        W15031   2.639   9.782  14.839
42607W        W15032  41.346  14.603  11.431
42608W        W15033   6.519  14.719   4.275
42609W        W15034  43.871  29.947  13.724
42610W        W15035  18.083  22.970   0.869
42611W        W15036   1.208  30.619  13.431
42612W        W15037  23.512  33.014   4.603
42613W        W15038  24.228  44.813   0.579
42614W        W15039  16.392   0.014   2.815
42615W        W15040   3.452   3.704  13.952
42616W        W15041   1.855  14.598  14.095
42617W        W15042  40.461  31.648   2.182
42618W        W15043  23.735   1.756  12.425
42619W        W15044  12.870  24.244   3.156
42620W        W15045  30.809  38.946   1.089
42621W        W15046  34.141   1.571  11.135
42622W        W15047  33.045  34.528   2.535
42623W        W15048  40.938  39.159  14.439
42624W        W15049  28.581   7.667  10.369
42625W        W15050  38.267  34.847  14.049
42626W        W15051  38.400  36.319  11.007
42627W        W15052  41.278   9.088   3.378
42628W        W15053  31.992  26.997   4.423
42629W        W15054  44.803   9.387  12.097
42630W        W15055  16.376  28.154   0.780
42631W        W15056  13.866  29.615   1.751
42632W        W15057   1.962  16.554  10.685
42633W        W15058  13.515   0.823  14.711
42634W        W15059  28.953   9.450   4.018
42635W        W15060  25.573   4.254  14.288
42636W        W15061   9.803  32.096   1.435
42637W        W15062  21.905  29.450  13.426
42638W        W15063  40.277   5.687  14.920
42639W        W15064   6.291   2.300   1.734
42640W        W15065  11.216  30.855   1.457
42641W        W15066  27.498   8.851  11.982
42642W        W15067   7.649  35.046  10.686
42643W        W15068  29.461  21.773   2.772
42644W        W15069  10.909   6.299  11.206
42645W        W15070  23.535  44.668   3.489
42646W        W15071   9.779  34.980   3.840
42647W        W15072   3.354  16.040   3.207
42648W        W15073   6.922   2.794  14.423
42649W        W15074  23.484  24.407  14.333
42650W        W15075  15.457  37.842  11.157
42651W        W15076  19.649   4.730   2.409
42652W        W15077  35.943   8.870   4.321
42653W        W15078  18.740  29.880   3.629
42654W        W15079  41.768  34.153  13.343
42655W        W15080  23.154  35.779  13.051
42656W        W15081  34.562  25.560   1.285
42657W        W15082   4.943  12.322   3.583
42658W        W15083  22.744  34.510  11.610
42659W        W15084  43.423  19.093   1.746
42660W        W15085   5.818  41.740  13.058
42661W        W15086   4.670   3.321  11.025
42662W        W15087   3.530  37.017   4.185
42663W        W15088   5.915  39.360   1.344
42664W        W15089  27.464  26.439  12.571
42665W        W15090  36.440   5.326  11.633
42666W        W15091  33.487  29.396   3.664
42667W        W15092  17.311   7.204   4.149
42668W        W15093  34.404   5.674   3.898
42669W        W15094  41.923  13.750  10.797
42670W        W15095  10.275   0.255  12.614
42671W        W15096  16.524  37.013  11.272
42672W        W15097  22.563  18.161  12.300
42673W        W15098  41.623   9.241  13.524
42674W        W15099  43.619  24.181  11.644
42675W        W15100  40.044  23.497  14.759
42676W        W15101  44.789  42.519   2.921
42677W        W15102  18.568  23.646  12.067
42678W        W15103  28.561  42.514  12.382
42679W        W15104  41.591   9.293   2.403
42680W        W15105  32.170  29.403   4.304
42681W        W15106  13.082  31.668  14.809
42682W        W15107   8.200  21.176  11.709
42683W        W15108   0.067   0.390   1.653
42684W        W15109  17.808  16.583   3.333
42685W        W15110  16.702  20.049   4.622
42686W        W15111  38.830  17.957   3.190
42687W        W15112  33.159  28.976   2.263
42688W        W15113   3.000  26.121  11.886
42689W        W15114  41.903  23.897   4.498
42690W        W15115   4.361   8.666  12.628
42691W        W15116   8.446  16.110  14.852
42692W        W15117  30.918  18.276   1.382
42693W        W15118  25.961  20.702   0.604
42694W        W15119   7.069  41.515  11.543
42695W        W15120  24.998  31.673  11.681
42696W        W15121  37.248  20.219   3.196
42697W        W15122  14.191  30.040  13.246
42698W        W15123  38.324  39.977   1.805
42699W        W15124  42.495  37.603   4.543
42700W        W15125  23.565  21.801  13.460
42701W        W15126  21.503   6.990   2.575
42702W        W15127   6.616  28.398  14.873
42703W        W15128  18.849   7.864  11.191
42704W        W15129  43.627   1.810  14.474
42705W        W15130  12.685  24.172   1.397
42706W        W15131  44.234  26.622  12.294
42707W        W15132  19.667  34.155   3.741
42708W        W15133  28.364  14.935   2.152
42709W        W15134  16.729  12.919   4.226
42710W        W15135   8.804  42.297   1.827
42711W        W15136  22.703   3.490  12.572
42712W        W15137  14.225  26.742   0.411
42713W        W15138  14.313  14.739  14.446
42714W        W15139  14.809  16.216   2.491
42715W        W15140   3.276  28.583   4.836
42716W        W15141  18.194  38.045   3.233
42717W        W15142  33.147  20.616  11.433
42718W        W15143  11.034  14.378   2.410
42719W        W15144   3.607  33.233   4.200
42720W        W15145  10.682  35.421  14.024
42721W        W15146  38.979  18.733   4.647
42722W        W15147  39.077  19.590  11.088
42723W        W15148   8.398  23.142   4.548
42724W        W15149  31.457   4.145  12.914
42725W        W15150  22.727  44.884   3.217
42726W        W15151   8.079   1.869  13.078
42727W        W15152   0.753  10.850   3.683
42728W        W15153  35.466  23.158   2.469
42729W        W15154  27.267  32.827   3.652
42730W        W15155  16.359  29.152   4.232
42731W        W15156   8.060  34.279   4.268
42732W        W15157  25.198  25.748   3.559
42733W        W15158  12.380  40.809   4.386
42734W        W15159  23.236  17.267   0.640
42735W        W15160  18.317  31.426  14.008
42736W        W15161  34.085  14.631   4.487
42737W        W15162  43.733  18.529  13.856
42738W        W15163  13.726  43.491  12.412
42739W        W15164   0.668  33.357  12.498
42740W        W15165   9.642  27.162  11.106
42741W        W15166  44.547   4.152  12.939
42742W        W15167  38.607  28.467   1.908
42743W        W15168  42.792  32.045   1.433
42744W        W15169  40.265  35.822  14.233
42745W        W15170  32.284  19.049  14.838
42746W        W15171  42.527   9.697   2.929
42747W        W15172  39.010  16.085  14.048
42748W        W15173  22.295  36.750   3.682
42749W        W15174  19.513  17.165   4.257
42750W        W15175  42.959  41.860   2.460
42751W        W15176  38.102  21.748  12.526
42752W        W15177  40.253  24.413  11.114
42753W        W15178  43.936   0.972   4.329
42754W        W15179  39.539   8.252   2.184
42755W        W15180  42.681  27.653  11.187
42756W        W15181  22.527   1.416   2.432
42757W        W15182  14.752   5.858  14.295
42758W        W15183  14.451  12.380   2.493
42759W        W15184  22.984  18.441   3.989
42760W        W15185  42.615  37.359   0.932
42761W        W15186  27.024  41.539  14.840
42762W        W15187  13.143   0.166   2.059
42763W        W15188   1.455  13.589  14.315
42764W        W15189  41.428  13.534  11.570
42765W        W15190  11.716   2.379  14.085
42766W        W15191  15.352   4.136  14.291
42767W        W15192  28.041  43.644  13.885
42768W        W15193  36.146   5.151   0.022
42769W        W15194   4.807  40.591   5.097
42770W        W15195  13.443  44.755   0.307
42771W        W15196   2.758   4.401  11.904
42772W        W15197  37.858  44.379   0.040
42773W        W15198  29.661   8.921   1.518
42774W        W15199  41.326  34.434   0.758
42775W        W15200  11.062  20.087   1.904
42776W        W15201   3.790   4.887  14.324
42777W        W15202  15.157  14.192  13.623
42778W        W15203  31.164  35.998   4.309
42779W        W15204  37.212   4.854  11.539
42780W        W15205  24.898  24.167   1.814
42781W        W15206   5.124  37.245   2.326
42782W        W15207  43.440   1.033   1.347
42783W        W15208  27.525  17.653  10.917
42784W        W15209  23.008  36.047   3.699
42785W        W15210  42.440   1.869   3.967
42786W        W15211  29.550   6.598   1.661
42787W        W15212  26.799   6.204  14.260
42788W        W15213  25.113   1.079  10.531
42789W        W15214  38.389   3.295   1.221
42790W        W15215  27.587  24.622   4.093
42791W        W15216  30.063  10.565  10.695
42792W        W15217  24.792  29.094   0.603
42793W        W15218  32.994  38.846   4.229
42794W        W15219  12.138  34.423  14.857
42795W        W15220  39.961   4.624   2.767
42796W        W15221  28.578  39.350  11.603
42797W        W15222  42.812   5.495   1.474
42798W        W15223  36.689  36.351  11.180
42799W        W15224  28.594  13.282  13.498
42800W        W15225  11.673   0.959  12.413
42801W        W15226  34.141  15.125  11.702
42802W        W15227  31.673  14.160  11.963
42803W        W15228  19.121  40.304  13.357
42804W        W15229  31.992  25.194   4.156
42805W        W15230  25.731  36.913  11.998
42806W        W15231   8.888  38.358  13.399
42807W        W15232  42.572  23.520  14.459
42808W        W15233  41.858   6.155  11.610
42809W        W15234  16.321  33.426  13.956
42810W        W15235  16.708  41.029   3.761
42811W        W15236  28.610  44.890   4.160
42812W        W15237  21.579  29.368   1.335
42813W        W15238  27.856   7.309   1.827
42814W        W15239  10.751  27.719  11.561
42815W        W15240  22.611   7.782   0.876
42816W        W15241  14.861  27.977   4.060
42817W        W15242  13.548  28.981   0.018
42818W        W15243  29.421  35.837  12.552
42819W        W15244  13.100  33.917   4.179
42820W        W15245  36.809  43.865   0.353
42821W        W15246   5.251   9.141   4.192
42822W        W15247  35.428  28.220   4.696
42823W        W15248  30.085  13.137   4.122
42824W        W15249  23.917  13.087   4.212
42825W        W15250  32.157  22.430  13.404
42826W        W15251  37.075  20.712   3.158
42827W        W15252  16.767  44.716   0.309
42828W        W15253  15.348  30.388  13.503
42829W        W15254  22.974  23.978  11.103
42830W        W15255  23.526  36.453   1.727
42831W        W15256   4.927  34.487  12.170
42832W        W15257  38.854   8.307  11.420
42833W        W15258   0.929  24.427  12.513
42834W        W15259  34.182  15.270   0.981
42835W        W15260  36.035  43.640   0.855
42836W        W15261   1.905  22.394  13.930
42837W        W15262  29.949  37.527  11.571
42838W        W15263  34.522  22.162  13.972
42839W        W15264  37.902  13.318   1.860
42840W        W15265  11.198   5.271   1.269
42841W        W15266  22.074   1.290   2.206
42842W        W15267   8.518  29.059  12.701
42843W        W15268  43.712   0.929  11.659
42844W        W15269  29.715  24.859  11.098
42845W        W15270   3.333  38.694   0.489
42846W        W15271  28.105  39.760  14.055
42847W        W15272  39.544  42.789  11.064
42848W        W15273  19.515   2.828   4.630
42849W        W15274  21.784   0.745   0.440
42850W        W15275  31.526  33.955   0.004
42851W        W15276  37.390  44.054   3.179
42852W        W15277  25.404  17.154   0.196
42853W        W15278  12.147   5.666   1.219
42854W        W15279  30.896  29.520  13.311
42855W        W15280  26.007  15.535   4.834
42856W        W15281   7.299  28.403   0.439
42857W        W15282  19.337   6.417   2.834
42858W        W15283  30.451   7.802  12.993
42859W        W15284   1.463  31.781  11.355
42860W        W15285   2.310  17.478  12.934
42861W        W15286  27.397  44.760  10.515
42862W        W15287  16.751  30.609   1.912
42863W        W15288  14.694  34.971   3.174
42864W        W15289  44.019  43.437  12.365
42865W        W15290  41.375  28.004  12.200
42866W        W15291  41.988  37.771   0.218
42867W        W15292  32.792  42.870   3.752
42868W        W15293  24.188  41.960   1.271
42869W        W15294  28.824  44.928   1.112
42870W        W15295   2.967  41.315  11.712
42871W        W15296  43.895  28.360   4.620
42872W        W15297  36.728  32.442  13.954
42873W        W15298  36.133  40.507   4.722
42874W        W15299  30.719  25.220   2.257
42875W        W15300  30.438  26.057   0.875
42876W        W15301  32.137   4.908   1.937
42877W        W15302  40.270  29.950  11.783
42878W        W15303  27.612  14.781  12.622
42879W        W15304  34.792  34.148   1.276
42880W        W15305   0.419  21.586   0.798
42881W        W15306  38.312   0.960  12.027
42882W        W15307  39.246   2.306  12.494
42883W        W15308  27.667  23.980  13.877
42884W        W15309  25.661  30.892   4.878
42885W        W15310  12.440  39.889  14.048
42886W        W15311   0.868  39.425   4.262
42887W        W15312  39.649  17.853  14.405
42888W        W15313  15.871  21.242  12.795
42889W        W15314  31.020   6.668   4.255
42890W        W15315  20.159   9.414  11.955
42891W        W15316   3.542  37.954   0.001
42892W        W15317  31.408   1.700  11.686
42893W        W15318  39.767   3.739   3.233
42894W        W15319  16.577  34.862   2.595
42895W        W15320  30.408  27.674   2.249
42896W        W15321  29.616   8.818  14.585
42897W        W15322  27.788   7.598   2.846
42898W        W15323  18.720  44.538   3.911
42899W        W15324   2.682  33.882   2.091
42900W        W15325  20.472  33.461   2.277
42901W        W15326  42.855  15.642  10.931
42902W        W15327  13.147   2.274   0.814
42903W        W15328  16.279  40.554  14.455
42904W        W15329  36.196  15.505   4.140
42905W        W15330   7.203   5.802  11.247
42906W        W15331  40.627  22.251  14.275
42907W        W15332  14.326   3.691   1.384
42908W        W15333  24.786  18.285   2.853
42909W        W15334   9.646  41.041   3.171
42910W        W15335  23.267  22.035   0.481
42911W        W15336   3.114  34.009   4.304
42912W        W15337  36.964  44.050  11.109
42913W        W15338  43.947   3.511  11.401
42914W        W15339   5.095  32.943   2.426
42915W        W15340   8.225  21.986  10.631
42916W        W15341  22.564  21.537   2.322
42917W        W15342  29.504   9.321   1.228
42918W        W15343  23.526  10.951   4.862
42919W        W15344   8.260  35.338   4.754
42920W        W15345   9.216  34.515  13.146
42921W        W15346  40.458   6.262   5.009
42922W        W15347   2.323  42.836  10.129
42923W        W15348   4.996  18.758  13.939
42924W        W15349   7.459  40.205   2.343
42925W        W15350   4.620  20.567   0.815
42926W        W15351  34.411  41.946  10.995
42927W        W15352  38.742  25.860  14.566
42928W        W15353  22.881   2.447  13.908
42929W        W15354  36.526   8.898  12.524
42930W        W15355  40.688  29.812   2.427
42931W        W15356   3.206  10.139   3.183
42932W        W15357  17.105  12.703   2.680
42933W        W15358  41.364   9.325   4.722
42934W        W15359   8.709  36.879  14.728
42935W        W15360   2.732  13.449   1.255
42936W        W15361   2.873  24.932  11.847
42937W        W15362  43.292  13.591   3.687
42938W        W15363  30.799   4.351   2.490
42939W        W15364  25.432  32.914   4.575
42940W        W15365  21.455  27.614  11.549
42941W        W15366  19.864  32.025  10.029
42942W        W15367  24.607  14.674   4.126
42943W        W15368  33.473  23.811  13.130
42944W        W15369   4.795   4.922  13.570
42945W        W15370  33.093  20.034   3.669
42946W        W15371  29.010   4.933  12.020
42947W        W15372  12.277   5.175   1.287
42948W        W15373  36.540  17.750   2.704
42949W        W15374  40.018  14.965   4.900
42950W        W15375  33.232  42.025   1.048
42951W        W15376  15.224  13.031   2.713
42952W        W15377  18.634  24.750   2.748
42953W        W15378  41.950  10.636   0.770
42954W        W15379  38.023   3.848   1.240
42955W        W15380   5.458  26.451   1.548
42956W        W15381  35.572  36.675   2.295
42957W        W15382  10.328  36.383   2.846
42958W        W15383  30.661  10.218   1.274
42959W        W15384  21.639  31.498   4.225
42960W        W15385  36.008  20.131  12.856
42961W        W15386  24.597  32.053  13.112
42962W        W15387  39.062   0.385  12.847
42963W        W15388  29.910  29.710  11.996
42964W        W15389  15.157  43.588  13.359
42965W        W15390   3.823   0.276  11.632
42966W        W15391  32.910  13.536   3.325
42967W        W15392  16.080  43.554  13.273
42968W        W15393  36.207   9.381   2.029
42969W        W15394  18.240   5.028   4.516
42970W        W15395  33.022   0.771  12.822
42971W        W15396  32.514  10.750  12.160
42972W        W15397  31.192  44.876  13.518
42973W        W15398   8.794   4.926  12.502
42974W        W15399  29.795  30.060   1.741
42975W        W15400   8.095  27.546  13.045
42976W        W15401   5.089  35.673  11.945
42977W        W15402  43.895  39.069   2.819
42978W        W15403   6.345  36.008  12.098
42979W        W15404  32.394  31.790   1.014
42980W        W15405   2.526  23.580  11.673
42981W        W15406  41.615  32.726   4.137
42982W        W15407  42.914  26.039  14.995
42983W        W15408  37.013  24.463  12.113
42984W        W15409  20.685  26.102  11.907
42985W        W15410  31.476  23.596  14.103
42986W        W15411  12.218  15.523  12.865
42987W        W15412  38.842  38.472  11.615
42988W        W15413   8.400   7.216  11.964
42989W        W15414  43.660  27.503   4.877
42990W        W15415  23.662   9.017  13.991
42991W        W15416  34.486  10.193  13.858
42992W        W15417  43.225   6.390  10.437
42993W        W15418  34.541  35.099  13.047
42994W        W15419  11.273  43.235  13.737
42995W        W15420  10.898  43.000   1.878
42996W        W15421   9.185  40.263  11.251
42997W        W15422   3.345  33.082  12.378
42998W        W15423  26.658   2.570  13.852
42999W        W15424  22.217  18.718  14.095
43000W        W15425   3.416  15.205  12.610
43001W        W15426  21.808  15.040   4.375
43002W        W15427  26.415   4.202  13.380
43003W        W15428  11.915   5.894   3.385
43004W        W15429  33.018   1.461  11.959
43005W        W15430  18.618  41.571  13.275
43006W        W15431  21.724  10.766   0.754
43007W        W15432  32.480   4.259  13.072
43008W        W15433  25.197  29.184  13.359
43009W        W15434   5.206  44.475   0.490
43010W        W15435  44.188  44.360   4.020
43011W        W15436  30.638  42.453   1.909
43012W        W15437  12.793  39.409  13.864
43013W        W15438  13.802   6.811   3.315
43014W        W15439  31.827  42.736  12.736
43015W        W15440  14.781   6.906  12.317
43016W        W15441  38.455  13.709  14.039
43017W        W15442  28.113  33.664   1.687
43018W        W15443  27.632  42.830   4.989
43019W        W15444   6.182  40.415  11.224
43020W        W15445  18.464  27.997   2.718
43021W        W15446  12.587  25.504  11.032
43022W        W15447  31.531   3.021   0.366
43023W        W15448  19.291   6.289  12.891
43024W        W15449   6.442  10.875   4.201
43025W        W15450  10.882   4.211  12.952
43026W        W15451  32.198  16.498   1.402
43027W        W15452  32.070  16.964  10.162
43028W        W15453  16.368  27.535  14.038
43029W        W15454  15.270  17.791   3.204
43030W        W15455  41.619  29.476   2.578
43031W        W15456  43.071  14.126  13.485
43032W        W15457  37.147  18.816  12.192
43033W        W15458  12.915  17.625   0.060
43034W        W15459  28.180  35.763  11.693
43035W        W15460  11.915  32.470   0.909
43036W        W15461  38.121  16.332  14.262
43037W        W15462  24.141  32.051   3.657
43038W        W15463   4.882   6.472  14.330
43039W        W15464   1.943  26.493   3.303
43040W        W15465   7.719  36.581   4.583
43041W        W15466  17.279  43.511  12.892
43042W        W15467  32.134  34.043   2.184
43043W        W15468  30.193  41.049  11.907
43044W        W15469  26.889   3.311  11.455
43045W        W15470  19.513  25.663   3.335
43046W        W15471  41.561  30.595   2.147
43047W        W15472  34.642  22.668  13.843
43048W        W15473  25.173   6.004  12.020
43049W        W15474  37.640  11.049  11.238
43050W        W15475  33.370  40.903  14.499
43051W        W15476  18.694  32.968  14.542
43052W        W15477   6.791  29.223   0.272
43053W        W15478  22.190  30.071  11.899
43054W        W15479  21.369   5.953  13.052
43055W        W15480  42.782  28.464  13.618
43056W        W15481  20.938   9.337   1.449
43057W        W15482  25.227   6.135   2.234
43058W        W15483  27.877  36.510   2.612
43059W        W15484  20.982   4.971   2.245
43060W        W15485  37.645   3.943   5.093
43061W        W15486  14.816  28.946  10.762
43062W        W15487  22.521  31.007   3.782
43063W        W15488  25.605  33.576   0.026
43064W        W15489  38.679   4.408  13.534
43065W        W15490  39.398  17.252   1.295
43066W        W15491   9.886   6.752  13.923
43067W        W15492  11.420  26.543   2.695
43068W        W15493  19.824  37.328   1.494
43069W        W15494  16.862   4.423   4.259
43070W        W15495   6.160  29.605   2.332
43071W        W15496  17.101  40.814   2.165
43072W        W15497  31.139   2.426  13.770
43073W        W15498  16.166  17.728  14.321
43074W        W15499   7.221  27.899   3.163
43075W        W15500  29.146  38.326  12.496
43076W        W15501  41.002  31.982   1.312
43077W        W15502  34.190  28.935   4.639
43078W        W15503  16.342  26.679   1.016
43079W        W15504  40.266  13.285   3.487
43080W        W15505  34.089  36.857   0.732
43081W        W15506  39.355  19.222   0.725
43082W        W15507  37.330  21.314  11.916
43083W        W15508  16.806  43.842  11.626
43084W        W15509  30.912   3.845   0.412
43085W        W15510  12.721   6.169  13.100
43086W        W15511  11.632  37.809   2.694
43087W        W15512  32.911  39.101   0.551
43088W        W15513   3.996   9.604  13.934
43089W        W15514  36.456  44.220   3.816
43090W        W15515  14.078  25.169  13.111
43091W        W15516  10.741  42.189  11.108
43092W        W15517   7.252   1.576  14.733
43093W        W15518   9.878  10.408  14.343
43094W        W15519   7.832  24.150  11.618
43095W        W15520  37.346   0.265  14.883
43096W        W15521   0.644   4.982   0.123
43097W        W15522   0.774  12.577   2.395
43098W        W15523  24.829   2.429  12.526
43099W        W15524   8.716   1.923  11.610
43100W        W15525   7.750  38.355   0.434
43101W        W15526   6.211  22.614   3.730
43102W        W15527  13.788  13.757  13.389
43103W        W15528  38.593   3.757   4.718
43104W        W15529  31.050  33.929   0.265
43105W        W15530  40.601  32.539   3.877
43106W        W15531  37.125  44.797   3.336
43107W        W15532  43.732  15.073   1.096
43108W        W15533  42.963  44.498   4.987
43109W        W15534  11.583  16.371  11.154
43110W        W15535  25.549  16.294  10.572
43111W        W15536  40.549  11.688  11.587
43112W        W15537  40.525  13.818  10.536
43113W        W15538  27.585  35.862   4.642
43114W        W15539  27.579  23.266  13.014
43115W        W15540   2.825  27.212  10.801
43116W        W15541  16.575  33.096  11.947
43117W        W15542  24.982  41.043  10.605
43118W        W15543   2.719   6.245   2.364
43119W        W15544   2.669  38.294  12.656
43120W        W15545   0.503  39.643  11.495
43121W        W15546  12.466   3.692  14.923
43122W        W15547  32.632  19.105   5.562
43123W        W15548  38.084  39.948  13.163
43124W        W15549  33.609   6.776  11.555
43125W        W15550  24.826   0.258  13.072
43126W        W15551  17.362   6.867  12.181
43127W        W15552  23.898  43.898  13.929
43128W        W15553  12.385  34.928  13.642
43129W        W15554  33.148  42.504   3.767
43130W        W15555  21.827  12.250  12.169
43131W        W15556  14.606  31.920   0.095
43132W        W15557  37.294  35.377   3.794
43133W        W15558   2.373  14.233  11.086
43134W        W15559  35.353   0.378  11.928
43135W        W15560  23.120   9.809  11.551
43136W        W15561  32.514  28.770  12.580
43137W        W15562  39.271  29.259   0.486
43138W        W15563  35.862   6.572  11.627
43139W        W15564   5.429  42.616  11.675
43140W        W15565  28.665  29.984  12.591
43141W        W15566  40.726  28.932  14.476
43142W        W15567   0.735   5.856  14.361
43143W        W15568  21.519  18.141  10.625
43144W        W15569   7.358  14.621   4.410
43145W        W15570   8.169   7.716  11.895
43146W        W15571  19.519  14.794   0.336
43147W        W15572  12.071  23.223  14.284
43148W        W15573  28.578  17.799   1.806
43149W        W15574  44.037  16.387   1.769
43150W        W15575  10.793  12.627  11.557
43151W        W15576   5.970  33.680  12.740
43152W        W15577  24.102  37.420   3.272
43153W        W15578   0.200   6.890   1.875
43154W        W15579  37.993  35.531   2.977
43155W        W15580   7.293   5.386   4.584
43156W        W15581   2.508  14.826  12.982
43157W        W15582  17.840  24.727   0.638
43158W        W15583  40.139  42.862  10.225
43159W        W15584  10.136  34.934  12.852
43160W        W15585  10.208  43.571  13.067
43161W        W15586  16.117  12.681   3.081
43162W        W15587  32.657   8.297  11.580
43163W        W15588  17.801  30.863   2.788
43164W        W15589  16.585   6.229  11.410
43165W        W15590  13.913  19.535   0.821
43166W        W15591  11.441  42.216   1.181
43167W        W15592   6.716  26.723   5.048
43168W        W15593  33.335  22.964   4.864
43169W        W15594  20.592   3.063   1.349
43170W        W15595  44.819  18.512   1.215
43171W        W15596  24.735  11.653   2.002
43172W        W15597  44.420  36.941  11.030
43173W        W15598  25.861  37.810   1.938
43174W        W15599  13.750  37.430  14.165
43175W        W15600  33.517  28.931  13.299
43176W        W15601  16.190   3.664  12.439
43177W        W15602  33.645  35.368  10.696
43178W        W15603  20.982  29.576  11.086
43179W        W15604  42.555  29.921  13.967
43180W        W15605  18.526  43.401   4.736
43181W        W15606  15.291  18.067   0.884
43182W        W15607  10.823  33.334   0.359
43183W        W15608  17.129  10.830   2.237
43184W        W15609  19.157  21.253  10.799
43185W        W15610  37.488  39.786  12.546
43186W        W15611  26.071  40.773   2.667
43187W        W15612  34.339  41.372   2.848
43188W        W15613   8.779  38.923  13.103
43189W        W15614  42.234  37.317  10.673
43190W        W15615  20.657   5.434  11.035
43191W        W15616  29.356  28.041  12.428
43192W        W15617  26.553  35.639   2.285
43193W        W15618  31.660  23.037  10.420
43194W        W15619   0.191  12.808  11.441
43195W        W15620  18.089  27.440   0.964
43196W        W15621  21.071  26.534  13.290
43197W        W15622   0.751  21.989   0.990
43198W        W15623  25.451   3.518  11.175
43199W        W15624   9.093  17.254  14.784
43200W        W15625  31.638  42.109  12.234
43201W        W15626  43.462  22.643   2.419
43202W        W15627   8.188  14.982  13.978
43203W        W15628   2.795  39.799  13.045
43204W        W15629  19.668  30.765  13.560
43205W        W15630   3.749  14.783   4.635
43206W        W15631  22.021  15.315   1.799
43207W        W15632  19.139  24.003  13.760
43208W        W15633  25.067  20.319   2.358
43209W        W15634   0.558  26.361  11.570
43210W        W15635  20.369  21.239   3.824
43211W        W15636  25.875  10.226  10.613
43212W        W15637  35.143  40.254  11.532
43213W        W15638  17.034  14.073   0.231
43214W        W15639  41.725  43.884   3.160
43215W        W15640  35.541  34.779  14.470
43216W        W15641  43.644  39.119  12.256
43217W        W15642  21.356   3.765  10.475
43218W        W15643  37.190  18.240  14.455
43219W        W15644  26.757  27.599  14.451
43220W        W15645  22.496  28.285  13.461
43221W        W15646   8.397  32.661  10.482
43222W        W15647  22.100  30.052   2.911
43223W        W15648  21.137  12.931  12.068
43224W        W15649  43.154  23.203  12.534
43225W        W15650   2.357  33.349  12.014
43226W        W15651  26.036   7.601   0.829
43227W        W15652  23.793  37.698  11.501
43228W        W15653  41.426   7.411   2.229
43229W        W15654   4.158   1.449   1.419
43230W        W15655  42.219  28.424  14.872
43231W        W15656   3.919  35.985   3.512
43232W        W15657  23.219  21.088   0.141
43233W        W15658   3.215  39.384  11.946
43234W        W15659  41.956  34.200  12.765
43235W        W15660   3.845  17.566  14.611
43236W        W15661  27.627  22.750  11.698
43237W        W15662  26.400  12.372  13.040
43238W        W15663  32.325  16.719  12.481
43239W        W15664  26.583  40.225  12.936
43240W        W15665   8.105  20.099   0.460
43241W        W15666  40.199  40.364   0.148
43242W        W15667   0.847   3.891   1.760
43243W        W15668  26.464  24.983   1.114
43244W        W15669   8.423  11.295  12.412
43245W        W15670  40.071  44.995   4.242
43246W        W15671  22.758  20.747  13.547
43247W        W15672  28.420  13.262   4.330
43248W        W15673  22.831  21.477  13.924
43249W        W15674   1.921   7.669  14.994
43250W        W15675  30.381  12.411  13.613
43251W        W15676  19.350   6.888  13.527
43252W        W15677  43.673  14.689   3.762
43253W        W15678  39.542  40.855  13.015
43254W        W15679  16.483  23.118  14.429
43255W        W15680  28.530  15.898  11.955
43256W        W15681   9.416  30.772   0.845
43257W        W15682   6.158  22.628  12.350
43258W        W15683  39.067   5.784  11.010
43259W        W15684   2.457  24.655   2.960
43260W        W15685  35.987  35.414   1.235
43261W        W15686  44.840  21.840  12.056
43262W        W15687   8.566  38.119   0.162
43263W        W15688  13.365  33.337   3.316
43264W        W15689  43.209  28.595  12.087
43265W        W15690  23.013  16.150  14.449
43266W        W15691  20.960   3.380   0.854
43267W        W15692   0.884   9.202   0.435
43268W        W15693  27.453  43.778  12.466
43269W        W15694  17.325  30.024  10.052
43270W        W15695  43.397  34.924   1.069
43271W        W15696  32.538   1.429   0.375
43272W        W15697  19.650  10.842  10.422
43273W        W15698   9.809  22.151  13.692
43274W        W15699  43.450  33.554   1.440
43275W        W15700  29.141  12.300   3.756
43276W        W15701   6.700  16.813   1.137
43277W        W15702  23.519  30.427  13.100
43278W        W15703  20.917  25.103  10.218
43279W        W15704  23.569  41.517   3.069
43280W        W15705  19.084   9.450   0.295
43281W        W15706  13.001   9.326  13.733
43282W        W15707  11.752  15.580   3.551
43283W        W15708   6.445   2.711   3.676
43284W        W15709   6.460  39.423  12.107
43285W        W15710  38.464  10.956  10.787
43286W        W15711  20.711  22.988   2.841
43287W        W15712  14.613  21.364  14.404
43288W        W15713  33.891  18.140  11.542
43289W        W15714  12.124  25.086  13.803
43290W        W15715  12.278   0.796  13.737
43291W        W15716   7.953  30.054  10.531
43292W        W15717  32.018  32.486   0.556
43293W        W15718  22.784   5.678  11.015
43294W        W15719  24.659  11.294  14.310
43295W        W15720  27.934  34.385  14.047
43296W        W15721  42.029   6.717   0.430
43297W        W15722  35.043   7.407  14.823
43298W        W15723  44.108  28.033  14.071
43299W        W15724   7.303  22.154   1.293
43300W        W15725  36.108   9.849  14.189
43301W        W15726  24.202   3.796  14.608
43302W        W15727  37.486  26.616   0.805
43303W        W15728  27.183  21.772   3.695
43304W        W15729  10.755   3.508   1.493
43305W        W15730  18.772   9.703  14.753
43306W        W15731  27.319  13.184  12.649
43307W        W15732  26.054   9.403  13.411
43308W        W15733  40.947  31.035   1.780
43309W        W15734  10.360  13.875   2.272
43310W        W15735   4.254   8.180   2.594
43311W        W15736  32.412   9.827   2.333
43312W        W15737  34.934  19.069   2.852
43313W        W15738  44.650   0.733   0.958
43314W        W15739   3.685   6.082   2.171
43315W        W15740  13.583  43.861   1.872
43316W        W15741  42.203  29.390  12.044
43317W        W15742  14.859   3.231   1.320
43318W        W15743  44.433  13.234  13.833
43319W        W15744  24.146   0.933  12.973
43320W        W15745  26.460  14.071   1.714
43321W        W15746  16.898  41.027   1.722
43322W        W15747  38.806  13.342  13.990
43323W        W15748  43.266  10.849   3.378
43324W        W15749  18.765   8.155   0.290
43325W        W15750  41.734  38.596  13.854
43326W        W15751  26.665  13.578   0.760
43327W        W15752  38.472  30.656   1.628
43328W        W15753  10.324  17.509  14.996
43329W        W15754  38.428  36.599  12.431
43330W        W15755  26.197  10.624  14.617
43331W        W15756  35.141  16.080   2.409
43332W        W15757   8.181   4.272   0.257
43333W        W15758  30.528  28.130  12.109
43334W        W15759  34.938  42.298  11.628
43335W        W15760  33.007  20.770  12.442
43336W        W15761  20.434  19.490  10.851
43337W        W15762  38.993  40.673  14.341
43338W        W15763   1.440   5.398   4.694
43339W        W15764  13.291  15.103  13.021
43340W        W15765   0.953  29.115  13.973
43341W        W15766   7.858  40.779  12.987
43342W        W15767  21.698  28.495  14.435
43343W        W15768  25.674  35.210  14.841
43344W        W15769  14.584  42.042   2.381
43345W        W15770  37.436  42.276   1.147
43346W        W15771  10.894  14.839  12.058
43347W        W15772  24.262  43.048   0.917
43348W        W15773  17.401   5.896  10.920
43349W        W15774   6.835   8.329   1.942
43350W        W15775  18.206  24.409  11.384
43351W        W15776  35.835   4.729  13.520
43352W        W15777  26.678  28.607  10.707
43353W        W15778  33.753  38.483   2.673
43354W        W15779  21.100  30.894   3.945
43355W        W15780   6.887  38.558   0.991
43356W        W15781  24.430  20.407  11.540
43357W        W15782  31.981  20.339   4.497
43358W        W15783   2.775  28.484   0.296
43359W        W15784  39.918   4.818   1.059
43360W        W15785  36.988   4.447   4.204
43361W        W15786  29.434  17.499   0.906
43362W        W15787  39.955  19.264  14.083
43363W        W15788  38.632  11.808   4.063
43364W        W15789  24.182  24.994   2.739
43365W        W15790  12.756  15.161   4.751
43366W        W15791  11.106  37.461  10.698
43367W        W15792   1.724  40.974  12.318
43368W        W15793  16.234  35.587   0.822
43369W        W15794  20.012  25.083  13.841
43370W        W15795  38.047  36.963  13.093
43371W        W15796  29.073  17.046   2.786
43372W        W15797  28.000  18.107  10.949
43373W        W15798  28.034  42.291   3.862
43374W        W15799  11.062  11.162   0.448
43375W        W15800  29.075  26.980  11.607
43376W        W15801  33.542  30.355   3.716
43377W        W15802  41.850  29.423  11.666
43378W        W15803  32.486  32.927   4.531
43379W        W15804  14.558  14.280   1.834
43380W        W15805  24.340  42.944   0.035
43381W        W15806  36.631  20.676   3.900
43382W        W15807  30.987  28.705  11.038
43383W        W15808   1.427  11.368   4.522
43384W        W15809  24.353   7.241  12.096
43385W        W15810  36.901  26.003   5.481
43386W        W15811  14.019  21.635  11.572
43387W        W15812  23.700  41.002   1.824
43388W        W15813  34.402  31.670   1.835
43389W        W15814  12.418  30.034  13.755
43390W        W15815  17.334  35.333  14.886
43391W        W15816  25.500  17.229  12.885
43392W        W15817   8.254  20.663   3.679
43393W        W15818  33.111  19.660   5.106
43394W        W15819  10.468  20.773  10.628
43395W        W15820   3.614   9.944   0.940
43396W        W15821  32.054  17.137  14.143
43397W        W15822  31.279  22.490  11.103
43398W        W15823  35.222  28.566   1.041
43399W        W15824   8.296  15.617   3.046
43400W        W15825  44.885  16.118   3.035
43401W        W15826  42.487  36.074  11.426
43402W        W15827  27.568  16.414   3.670
43403W        W15828   6.438   0.463  11.910
43404W        W15829  38.402  28.713  13.973
43405W        W15830  31.923  42.251   4.207
43406W        W15831  43.082  43.108   3.848
43407W        W15832  15.556  17.571  12.091
43408W        W15833  17.813  15.384   3.656
43409W        W15834  26.517  31.320  14.352
43410W        W15835  44.333  16.776  12.042
43411W        W15836  11.841   3.387   2.398
43412W        W15837  22.995   6.869   1.881
43413W        W15838  30.266   0.904   0.800
43414W        W15839   6.803  12.742  13.502
43415W        W15840   7.843  18.932  11.137
43416W        W15841  20.641   4.010   4.538
43417W        W15842  18.294  17.270   3.784
43418W        W15843  11.174  24.144   0.798
43419W        W15844  14.228  14.487   4.653
43420W        W15845  25.235  42.315   0.365
43421W        W15846  16.109  13.306  14.603
43422W        W15847  29.616  41.395  11.130
43423W        W15848   4.959   9.400  11.598
43424W        W15849  32.095   5.060   4.125
43425W        W15850  22.963  30.455  14.061
43426W        W15851  44.463  17.632  13.988
43427W        W15852  41.100  44.361   0.976
43428W        W15853  44.383  22.241  13.984
43429W        W15854  28.449  32.879  12.457
43430W        W15855  10.392  35.786   3.406
43431W        W15856   5.442   6.265   1.201
43432W        W15857  10.813  21.120   2.644
43433W        W15858  27.209  12.330   2.140
43434W        W15859  20.695   1.964  13.323
43435W        W15860  21.492  35.393   2.197
43436W        W15861  31.647  14.745  13.238
43437W        W15862  26.191  32.896  10.544
43438W        W15863   1.965   1.668  10.763
43439W        W15864   4.963  11.337   0.003
43440W        W15865   6.702  17.254   1.467
43441W        W15866  14.711  26.532  12.843
43442W        W15867  31.684  44.055   1.792
43443W        W15868  24.615  23.211  13.412
43444W        W15869   2.488   1.865  13.977
43445W        W15870  25.984  19.535   0.734
43446W        W15871  41.761  10.944   3.228
43447W        W15872  15.021  39.324  12.865
43448W        W15873  23.735  21.486  12.021
43449W        W15874  19.756   4.638  13.024
43450W        W15875  10.037   6.330  13.007
43451W        W15876   1.153  43.375   1.188
43452W        W15877  13.841   8.602   1.938
43453W        W15878  43.923  33.610  14.408
43454W        W15879  35.167   8.646  14.344
43455W        W15880   0.338  38.948  13.816
43456W        W15881  27.038   9.748  13.400
43457W        W15882  31.432  19.020  14.299
43458W        W15883  21.068  41.420  12.376
43459W        W15884  40.010  38.778  14.510
43460W        W15885   4.935  30.393   4.997
43461W        W15886  27.332  25.069  13.632
43462W        W15887  24.964  37.935  12.603
43463W        W15888  15.601  43.490   1.801
43464W        W15889  23.113  40.582  13.332
43465W        W15890  36.393  30.069   2.446
43466W        W15891  23.694   4.154  12.454
43467W        W15892  42.721  10.295   1.397
43468W        W15893   5.608   0.307  14.492
43469W        W15894  36.872  23.880   1.277
43470W        W15895  40.060   8.290   4.306
43471W        W15896  21.256   2.427   1.263
43472W        W15897  13.839   6.177  12.858
43473W        W15898  32.061  26.052   4.027
43474W        W15899   4.244   9.781  12.056
43475W        W15900  25.497  25.235   4.657
43476W        W15901  19.107  38.579   3.361
43477W        W15902   8.321   9.376   2.196
43478W        W15903  29.188  10.384   2.233
43479W        W15904  34.930  37.461  13.908
43480W        W15905  12.584  29.599  14.392
43481W        W15906   5.369   1.497   1.384
43482W        W15907  19.334  28.939  11.590
43483W        W15908  20.017  24.384   2.601
43484W        W15909  26.719  19.844  11.012
43485W        W15910   2.752  17.315  11.126
43486W        W15911  16.337  27.547   3.646
43487W        W15912   5.352  25.036   0.427
43488W        W15913   6.821  34.044   4.573
43489W        W15914  21.541   0.977  10.877
43490W        W15915  22.705  26.549   3.597
43491W        W15916  33.659  35.799   3.711
43492W        W15917  22.134   3.182   3.257
43493W        W15918  11.714  33.469   2.680
43494W        W15919  15.711   8.760  11.678
43495W        W15920  38.400  44.704  13.914
43496W        W15921  37.635  41.205  12.801
43497W        W15922  10.850  20.245  14.932
43498W        W15923  36.632  39.440  10.436
43499W        W15924  22.963   3.365  11.415
43500W        W15925  41.452  20.406   3.019
43501W        W15926  26.788  14.942  10.247
43502W        W15927  20.873  42.245   3.269
43503W        W15928  30.120  34.428   3.124
43504W        W15929  18.028  29.320   4.502
43505W        W15930  20.312  28.941   2.687
43506W        W15931  14.109  12.331   2.867
43507W        W15932  22.120   3.230  11.812
43508W        W15933  27.794  40.248  14.880
43509W        W15934  20.941  12.834   4.279
43510W        W15935   1.991  10.687   4.056
43511W        W15936   3.205  29.477  12.328
43512W        W15937  12.675  30.133  12.384
43513W        W15938  38.003   4.608   3.736
43514W        W15939  24.059   5.638   1.807
43515W        W15940  23.082   9.210  10.471
43516W        W15941  36.375  20.530  14.568
43517W        W15942  37.425  28.655   3.249
43518W        W15943   2.229   3.273   3.876
43519W        W15944  32.596  25.089  11.676
43520W        W15945  18.763   8.847   4.083
43521W        W15946   8.883  28.102   0.306
43522W        W15947  37.566   4.253   0.410
43523W        W15948  38.077  37.854   2.381
43524W        W15949  32.347  31.655   4.125
43525W        W15950  29.236  31.620  11.482
43526W        W15951  37.033  29.457  12.916
43527W        W15952  37.582   0.229  13.950
43528W        W15953  43.969  38.531  13.829
43529W        W15954  13.561  21.151  14.480
43530W        W15955  12.266   9.651  13.047
43531W        W15956  12.109  37.128   2.414
43532W        W15957  35.352  11.622  13.458
43533W        W15958  16.827   2.966  11.468
43534W        W15959  11.246  39.913  13.069
43535W        W15960  26.736  43.100  14.053
43536W        W15961  38.999  36.034  14.833
43537W        W15962  41.745  28.123  13.873
43538W        W15963  18.005  25.199   4.195
43539W        W15964  40.919  23.195  14.783
43540W        W15965  19.138  34.157  14.392
43541W        W15966  32.305  39.919   3.386
43542W        W15967  26.133  33.588  12.341
43543W        W15968   8.715  38.435  12.914
43544W        W15969  25.579  25.432  13.064
43545W        W15970  37.607  38.396   1.661
43546W        W15971  40.060   3.636   4.613
43547W        W15972  39.850  30.579   3.411
43548W        W15973  31.382  14.352   1.912
43549W        W15974  40.451   6.733  14.612
43550W        W15975   1.216  13.972   5.021
43551W        W15976  16.103  17.275   4.134
43552W        W15977   7.755  21.899  14.437
43553W        W15978  21.104  10.697  12.528
43554W        W15979  24.538   9.615   2.263
43555W        W15980  42.913  42.200   4.780
43556W        W15981  35.239   2.867   3.383
43557W        W15982  15.611  23.682   5.473
43558W        W15983  29.515  32.121   0.801
43559W        W15984  25.928  13.817   2.881
43560W        W15985  28.533  32.190   4.724
43561W        W15986  31.407  20.081   1.226
43562W        W15987  37.687  41.568   0.329
43563W        W15988  35.925  36.445  11.777
43564W        W15989  28.530  18.581  14.532
43565W        W15990   4.363  29.764   2.715
43566W        W15991  13.007   6.282   2.985
43567W        W15992  32.922  37.029  12.221
43568W        W15993   2.524  31.997  10.743
43569W        W15994   6.375  17.764  11.638
43570W        W15995  14.268  19.909   4.017
43571W        W15996  41.855  35.504  13.666
43572W        W15997  32.459  34.418  14.133
43573W        W15998  24.492   3.766   3.454
43574W        W15999  35.083   4.766  10.534
43575W        W16000  32.047   7.783  14.287
43576W        W16001   5.787  19.092  14.162
43577W        W16002  21.963  11.385  11.529
43578W        W16003  20.243  10.624  13.584
43579W        W16004   1.990  35.390   2.327
43580W        W16005  13.589  15.567  13.049
43581W        W16006   0.518  36.071   1.021
43582W        W16007  31.042   6.308   1.374
43583W        W16008  18.182   7.248   0.869
43584W        W16009  31.889  15.857  11.506
43585W        W16010  32.495  42.536   3.231
43586W        W16011  21.529  35.055  10.460
43587W        W16012  18.122   2.344  13.062
43588W        W16013   5.789  22.861  13.787
43589W        W16014  14.529  39.374  11.509
43590W        W16015  16.785  28.414  11.477
43591W        W16016  24.688  15.898  12.320
43592W        W16017  40.118  22.083  12.100
43593W        W16018  16.782   9.223  11.379
43594W        W16019  23.613  28.361   1.845
43595W        W16020  34.475   7.848  11.471
43596W        W16021  29.441  15.701  10.795
43597W        W16022  29.664  14.685   0.716
43598W        W16023   4.788   2.788  12.058
43599W        W16024  44.360  29.122  12.473
43600W        W16025   2.415  13.011  14.043
43601W        W16026  33.360  11.286  11.836
43602W        W16027   7.400  13.427   0.772
43603W        W16028  35.554   6.460   0.518
43604W        W16029   7.633  12.790  12.118
43605W        W16030  10.914  23.672  12.932
43606W        W16031  17.422  43.695  11.050
43607W        W16032  35.301  39.085  11.159
43608W        W16033  23.779  40.084   2.580
43609W        W16034   2.996  33.475  12.526
43610W        W16035  35.841  20.897  13.549
43611W        W16036  11.806  39.161   1.814
43612W        W16037  36.721  17.814  12.213
43613W        W16038  36.321   3.242   4.799
43614W        W16039   4.353  16.324   0.261
43615W        W16040  11.331  10.541  12.435
43616W        W16041  37.933   1.838   1.348
43617W        W16042  25.051  17.386  13.531
43618W        W16043  12.075  18.182   4.969
43619W        W16044  18.124  43.785  14.989
43620W        W16045  25.288  19.186  10.316
43621W        W16046  39.110  29.734  13.852
43622W        W16047   6.167  12.603   1.754
43623W        W16048  22.625  42.811   4.140
43624W        W16049   6.822   5.235   1.334
43625W        W16050  40.253  26.841   9.889
43626W        W16051  12.339  22.570  12.793
43627W        W16052  20.561  35.412   1.130
43628W        W16053  30.402   7.213  14.232
43629W        W16054  30.837  24.545   1.822
43630W        W16055  16.190  15.557   3.496
43631W        W16056   2.529  29.488  13.572
43632W        W16057   6.968   3.770   0.364
43633W        W16058  26.455  32.810  14.450
43634W        W16059   2.519  14.815   3.330
43635W        W16060  42.271  24.686   1.486
43636W        W16061  24.665  17.098  13.304
43637W        W16062  18.502  15.083   0.839
43638W        W16063  34.815  29.206   1.718
43639W        W16064   3.121  30.633  11.833
43640W        W16065  34.295  40.205  13.016
43641W        W16066   4.923   7.250   0.291
43642W        W16067  33.883  11.773   0.321
43643W        W16068   8.869   0.308   2.533
43644W        W16069   9.371   3.399   4.936
43645W        W16070  33.115  34.420  12.003
43646W        W16071   1.460  18.834  13.406
43647W        W16072  21.172   6.649   3.416
43648W        W16073  12.175   2.156   3.946
43649W        W16074  20.868  30.850   1.996
43650W        W16075   8.950  27.122  12.723
43651W        W16076   5.377  11.623   1.239
43652W        W16077  40.914  42.300   5.278
43653W        W16078   1.884  32.775   3.744
43654W        W16079  44.295  15.147  11.551
43655W        W16080  18.140  32.935  13.000
43656W        W16081   7.531  36.580   3.212
43657W        W16082  24.593  17.788   0.402
43658W        W16083  16.723  39.328   0.979
43659W        W16084   6.996  10.308  13.540
43660W        W16085  16.647  35.935  11.956
43661W        W16086  35.559  23.995   1.770
43662W        W16087  41.941  24.373   3.232
43663W        W16088  13.107   4.626  11.054
43664W        W16089  40.308  43.022   2.305
43665W        W16090  22.046  13.073   2.860
43666W        W16091  44.515   4.317   4.641
43667W        W16092  23.537  25.307  11.333
43668W        W16093  12.312  19.712  12.001
43669W        W16094   8.406  12.242   2.763
43670W        W16095  14.549  42.863  13.810
43671W        W16096   4.465  32.635  11.019
43672W        W16097  11.526  10.793   0.915
43673W        W16098  26.719  27.204  12.435
43674W        W16099  18.911  29.670  12.889
43675W        W16100  24.007  38.842  14.228
43676W        W16101   2.537  36.379   1.625
43677W        W16102  24.624   7.601  13.508
43678W        W16103  26.529  34.360  13.156
43679W        W16104  17.176  17.776   3.043
43680W        W16105  27.082  31.685   0.845
43681W        W16106  21.237  40.052   0.901
43682W        W16107  13.783   4.941   0.386
43683W        W16108  15.272  29.701  12.414
43684W        W16109  34.701  40.312  12.407
43685W        W16110   4.447  22.124   4.755
43686W        W16111  37.141  29.509  10.667
43687W        W16112  42.555  36.351  13.612
43688W        W16113  37.952  36.266   2.230
43689W        W16114  38.702   0.115  13.952
43690W        W16115   1.325   6.352  11.318
43691W        W16116  37.562  30.362   0.095
43692W        W16117  41.761  29.043   1.458
43693W        W16118  23.637   3.177  12.385
43694W        W16119  10.430  36.433  12.879
43695W        W16120  20.570  28.881   1.328
43696W        W16121  11.349  21.433   9.865
43697W        W16122  28.872  40.189  12.503
43698W        W16123  24.484  19.151   4.683
43699W        W16124  15.141   2.455   2.232
43700W        W16125   3.939  40.587   4.482
43701W        W16126  16.133  34.459   4.213
43702W        W16127  39.870  16.838  14.364
43703W        W16128  20.560  23.675   4.525
43704W        W16129  31.838  20.872   0.850
43705W        W16130   9.445  20.755   1.902
43706W        W16131  35.010  24.044  11.116
43707W        W16132  36.412  10.173  11.174
43708W        W16133  38.661  11.106  11.275
43709W        W16134  17.655  14.910   2.838
43710W        W16135  31.660  34.976  13.956
43711W        W16136  35.393  20.125   4.812
43712W        W16137  21.789   8.717  10.698
43713W        W16138  10.347  40.392  14.277
43714W        W16139   2.781   3.222   4.686
43715W        W16140  20.171  14.517  11.135
43716W        W16141  44.013  32.868  11.086
43717W        W16142   5.926  27.012   3.677
43718W        W16143   1.463   7.187   4.577
43719W        W16144  14.810  27.086   3.633
43720W        W16145  27.006  42.050  14.914
43721W        W16146  17.204   2.107   3.217
43722W        W16147  20.647  29.547   2.078
43723W        W16148   0.905  14.551   4.483
43724W        W16149  38.834  11.483   4.539
43725W        W16150  12.131  43.347  14.576
43726W        W16151   1.269  17.714  11.614
43727W        W16152  38.324   4.467   2.049
43728W        W16153   3.935  44.994  12.819
43729W        W16154  44.978  13.873  10.761
43730W        W16155  25.885   1.359  13.520
43731W        W16156  18.256  35.839   3.212
43732W        W16157  34.086   9.852   3.098
43733W        W16158  14.628  37.457   0.208
43734W        W16159  38.800  32.958  13.349
43735W        W16160   1.821   8.511   3.663
43736W        W16161  20.365  13.827   2.797
43737W        W16162  10.715  19.815  14.030
43738W        W16163  26.551   7.837  13.359
43739W        W16164  22.567  41.486  11.698
43740W        W16165  26.066  15.853   1.650
43741W        W16166  15.560  11.742   3.606
43742W        W16167   5.746   1.776  12.523
43743W        W16168  44.404  43.021   3.808
43744W        W16169  17.596   1.927  10.692
43745W        W16170  28.709   9.089  14.326
43746W        W16171  19.056  18.205   0.253
43747W        W16172  38.009   6.714  13.485
43748W        W16173  30.956   0.180   4.152
43749W        W16174  29.443   0.402  13.793
43750W        W16175  21.542   8.927  13.811
43751W        W16176  24.423  33.904  11.509
43752W        W16177  14.584  21.270   4.221
43753W        W16178  29.326  17.822   4.231
43754W        W16179  27.690   3.973   3.670
43755W        W16180  36.003   4.608  10.114
43756W        W16181  17.795   6.106   0.506
43757W        W16182  29.408  18.628   2.389
43758W        W16183  34.427  25.125  14.146
43759W        W16184   0.573   4.631   4.115
43760W        W16185  15.373   2.874   4.734
43761W        W16186  30.057  38.364  12.191
43762W        W16187  13.236  32.549   1.138
43763W        W16188  17.868  41.763   3.613
43764W        W16189  31.449  37.545  12.767
43765W        W16190  37.154   3.122   2.696
43766W        W16191  42.821  25.924  11.603
43767W        W16192  31.021  10.196  12.891
43768W        W16193  43.789  33.382  13.936
43769W        W16194  25.280   2.939  10.917
43770W        W16195  43.309  15.128  11.528
43771W        W16196   3.763  31.348  12.561
43772W        W16197  31.962  11.605  13.526
43773W        W16198  19.461  43.394  12.514
43774W        W16199  18.498  31.090  12.814
43775W        W16200  27.466  22.209   0.264
43776W        W16201  17.139  43.243  12.480
43777W        W16202  31.357  11.708  11.469
43778W        W16203   2.212  28.608  13.810
43779W        W16204   6.293  41.007   0.348
43780W        W16205  35.821  39.783   0.932
43781W        W16206  15.038   6.379  13.146
43782W        W16207  29.000   7.822  13.337
43783W        W16208  33.015  37.036  10.747
43784W        W16209  32.781  17.602   2.374
43785W        W16210  11.374  24.276   1.273
43786W        W16211  31.169  16.665  13.270
43787W        W16212  43.736   6.863  13.860
43788W        W16213  29.594  18.442   3.525
43789W        W16214  14.161  20.816  14.904
43790W        W16215  14.659  21.772   0.972
43791W        W16216  12.223  11.730   2.223
43792W        W16217  41.458  26.253   3.635
43793W        W16218  19.644  15.915   1.201
43794W        W16219  38.483  43.235   2.085
43795W        W16220  42.400  25.530   0.448
43796W        W16221  38.083  43.056  11.185
43797W        W16222   6.663  29.242   4.412
43798W        W16223  13.776  43.497   3.210
43799W        W16224  13.785  13.063   4.232
43800W        W16225  19.533  16.418   1.235
43801W        W16226  23.311  36.130   0.848
43802W        W16227  16.014  37.957   1.701
43803W        W16228  38.424  21.970   3.311
43804W        W16229  21.191  22.706   3.028
43805W        W16230  14.368  20.210  11.355
43806W        W16231  16.656  20.042   3.242
43807W        W16232   9.308  13.681  13.238
43808W        W16233  42.972  24.785  13.809
43809W        W16234  39.920  35.680   4.205
43810W        W16235  39.738  19.142   2.235
43811W        W16236   5.864   8.394   0.809
43812W        W16237   1.698  11.733  12.015
43813W        W16238  20.777  31.758   2.421
43814W        W16239  37.525  26.519   3.993
43815W        W16240  24.313  37.605   4.195
43816W        W16241  10.360  36.322  10.652
43817W        W16242  39.189  26.615  13.742
43818W        W16243  36.780  24.582   5.020
43819W        W16244  19.315  14.590  11.621
43820W        W16245  12.864  23.355   3.658
43821W        W16246   8.915  22.104  13.411
43822W        W16247  39.063  28.017  10.933
43823W        W16248  21.597  17.949   3.285
43824W        W16249  21.173  43.602   0.337
43825W        W16250  15.409  36.449  14.019
43826W        W16251  27.461  35.171  13.910
43827W        W16252   7.238  37.566   3.705
43828W        W16253  23.998  36.343   2.367
43829W        W16254  31.175  36.049  12.105
43830W        W16255  44.012  43.830   4.619
43831W        W16256  14.453   2.623   5.250
43832W        W16257  21.134   4.058  10.100
43833W        W16258  33.404  21.586  14.096
43834W        W16259   1.966  36.135  12.328
43835W        W16260  29.432  28.589   3.314
43836W        W16261  27.946  28.967  13.108
43837W        W16262  31.634   5.286   1.330
43838W        W16263  10.656  17.724   0.303
43839W        W16264   1.312  27.425   2.794
43840W        W16265  27.567  10.684   0.738
43841W        W16266  21.633  39.760  13.762
43842W        W16267  42.529  34.351  11.125
43843W        W16268  14.430  17.458   0.979
43844W        W16269  42.008  33.426  14.030
43845W        W16270  20.858  23.523  10.506
43846W        W16271  23.213  35.521   4.492
43847W        W16272  41.368  40.609   3.700
43848W        W16273  10.949  19.635  13.392
43849W        W16274   5.376  22.850  12.086
43850W        W16275  14.799  21.352  11.173
43851W        W16276  11.347  23.050   3.624
43852W        W16277   4.280  17.702   3.843
43853W        W16278  35.597  43.473  10.695
43854W        W16279  21.047  24.226   0.302
43855W        W16280  10.805   0.363  14.242
43856W        W16281   9.868  16.021  11.512
43857W        W16282  35.870   5.895  14.449
43858W        W16283  30.181  14.873  12.535
43859W        W16284  23.050   4.410   1.004
43860W        W16285  38.209  20.137  11.121
43861W        W16286  23.878  16.305  14.878
43862W        W16287  37.903   9.404  14.695
43863W        W16288  42.514  31.144  14.491
43864W        W16289  30.423  24.514  11.531
43865W        W16290  32.358  18.853   3.306
43866W        W16291  13.172  25.719  12.359
43867W        W16292  34.700  27.209   4.470
43868W        W16293  34.787  14.714   2.114
43869W        W16294  12.606  32.048  13.097
43870W        W16295  35.730  44.679  14.343
43871W        W16296  32.718  11.030  14.320
43872W        W16297  15.879   8.194  11.647
43873W        W16298  37.264  43.444  10.189
43874W        W16299   8.996  17.097  13.276
43875W        W16300   7.916  38.080  10.981
43876W        W16301  33.903  11.551   1.232
43877W        W16302  40.591  20.378   2.627
43878W        W16303  40.417   8.907  12.911
43879W        W16304   5.909  44.880   1.745
43880W        W16305  36.110  27.960  10.731
43881W        W16306  15.148  17.143  12.323
43882W        W16307  25.631   9.098  13.430
43883W        W16308  33.008   1.327  13.096
43884W        W16309   1.841  29.433   2.895
43885W        W16310  30.567  42.879   3.342
43886W        W16311  10.796  20.094  13.590
43887W        W16312  31.056  38.258   0.274
43888W        W16313  12.010  10.578   0.986
43889W        W16314  16.380  13.304   4.147
43890W        W16315  27.383  44.551   0.203
43891W        W16316  10.839  11.476   3.217
43892W        W16317  30.713  13.288   4.934
43893W        W16318  40.348  29.280   4.257
43894W        W16319  25.204  17.796   1.187
43895W        W16320  11.200   3.411   4.833
43896W        W16321  15.506  43.769  13.026
43897W        W16322  24.003   8.649   3.221
43898W        W16323   3.265   7.616   0.407
43899W        W16324  29.149  27.182   2.406
43900W        W16325  42.873   8.754   3.255
43901W        W16326  16.739  39.320  14.412
43902W        W16327  37.198  20.597  13.958
43903W        W16328   7.924  13.246   2.829
43904W        W16329  35.118  21.327   3.777
43905W        W16330  40.498  43.523  12.929
43906W        W16331   7.966   4.450  14.695
43907W        W16332  38.039   6.222  11.623
43908W        W16333  44.743   8.790   3.137
43909W        W16334  38.831   5.414   0.339
43910W        W16335   7.600  12.126  10.712
43911W        W16336  33.371  12.370  10.632
43912W        W16337  38.670  17.208   3.884
43913W        W16338  37.662   6.940  12.564
43914W        W16339  33.120  21.253  11.143
43915W        W16340  25.120  23.750   0.932
43916W        W16341   8.167  19.195  13.793
43917W        W16342   1.822  32.443   2.291
43918W        W16343  19.185  36.064  10.723
43919W        W16344  34.910  25.540   2.203
43920W        W16345  14.965   2.769  14.244
43921W        W16346   6.186   4.843   2.149
43922W        W16347  38.409  42.774   0.750
43923W        W16348   2.960  26.485   0.149
43924W        W16349  22.506   6.794  11.092
43925W        W16350  11.308  40.927   0.259
43926W        W16351  30.074  11.876  14.471
43927W        W16352  43.737  16.803   1.694
43928W        W16353  36.977  34.908   1.787
43929W        W16354   9.044   3.393   1.448
43930W        W16355  19.808  44.996  11.396
43931W        W16356  24.022  39.563  12.954
43932W        W16357  42.619  29.663   2.677
43933W        W16358  25.482  10.318   4.194
43934W        W16359   2.979  29.703   3.874
43935W        W16360   4.178  40.071   3.287
43936W        W16361  18.292  42.120   3.589
43937W        W16362   4.165  43.234   2.872
43938W        W16363  39.203  32.780  13.031
43939W        W16364  25.431  14.069  14.964
43940W        W16365  19.974  25.490  11.034
43941W        W16366  39.330  26.743  13.110
43942W        W16367   6.746  28.471   4.656
43943W        W16368   7.977  21.730   3.229
43944W        W16369   3.843  44.335   1.839
43945W        W16370  32.376  31.825  11.575
43946W        W16371  43.658  41.562   3.149
43947W        W16372  26.488  26.253  11.565
43948W        W16373  32.100  23.420  11.029
43949W        W16374  22.237   6.426   4.064
43950W        W16375  16.812  34.076  14.533
43951W        W16376   5.599  15.663  11.495
43952W        W16377  32.443  20.759  11.125
43953W        W16378  13.562  27.633   2.663
43954W        W16379   3.972  17.661  14.110
43955W        W16380  38.881  43.406  11.008
43956W        W16381  22.796  22.197  14.688
43957W        W16382  28.853  13.633   0.347
43958W        W16383  27.458  30.442   2.191
43959W        W16384  37.964  37.578  10.422
43960W        W16385  14.754  14.036   4.124
43961W        W16386  32.459  13.119  11.622
43962W        W16387  41.831  43.006  10.767
43963W        W16388  36.630  11.322  11.023
43964W        W16389  22.069  25.126   4.363
43965W        W16390  42.944  19.995  14.952
43966W        W16391   2.325  22.828  14.861
43967W        W16392  27.968   3.166   3.779
43968W        W16393  36.275   7.733   2.388
43969W        W16394   2.766  17.137  12.905
43970W        W16395   5.338  14.668  13.196
43971W        W16396  39.285   2.931   3.408
43972W        W16397  36.012  29.487   0.343
43973W        W16398   0.704  25.621  14.803
43974W        W16399  28.151  34.670   3.718
43975W        W16400   4.726  21.267  11.718
43976W        W16401  17.584  18.375  10.946
43977W        W16402  12.181  31.906  11.988
43978W        W16403  43.279   3.504   3.617
43979W        W16404  24.556  24.048   4.576
43980W        W16405  34.590  19.202   4.183
43981W        W16406   3.102  33.234   4.055
43982W        W16407  29.425  13.673  12.552
43983W        W16408  13.755  41.875   3.185
43984W        W16409  26.926  25.522   0.374
43985W        W16410  11.226  39.786   3.315
43986W        W16411  19.727  42.123   4.803
43987W        W16412  32.916  44.200  13.823
43988W        W16413   7.947  20.101  12.841
43989W        W16414  37.439  25.158   3.697
43990W        W16415  17.032  30.742   1.131
43991W        W16416  20.547  32.918   2.847
43992W        W16417   5.954  33.321   4.005
43993W        W16418  39.837   6.151   3.743
43994W        W16419  32.565  42.840   1.349
43995W        W16420  27.961   3.680   4.026
43996W        W16421   0.835  17.292   3.619
43997W        W16422  17.192  26.938  14.911
43998W        W16423  43.238   4.079   4.761
43999W        W16424  34.445  37.335   2.506
44000W        W16425  23.888  41.129  12.888
44001W        W16426   4.985  30.942  14.436
44002W        W16427  41.579  44.310   3.794
44003W        W16428   2.947  29.267   3.635
44004W        W16429  19.324  37.976  12.099
44005W        W16430  44.512  26.271  13.561
44006W        W16431  12.560  37.754  10.599
44007W        W16432  15.681  22.233  12.147
44008W        W16433  21.304  24.791  14.483
44009W        W16434   2.174  44.719   0.846
44010W        W16435  43.671   1.187   1.841
44011W        W16436  43.680  36.914   4.877
44012W        W16437  14.387   2.374  12.008
44013W        W16438  25.598  30.626   1.670
44014W        W16439   1.453  20.315  12.958
44015W        W16440  16.566  34.327  14.153
44016W        W16441  34.353  25.573  12.930
44017W        W16442  31.144  31.021   2.704
44018W        W16443  44.773   9.414  14.777
44019W        W16444  12.693  43.555  13.780
44020W        W16445   2.340   0.858  14.568
44021W        W16446  19.754  30.769  10.664
44022W        W16447  32.196  23.669  13.522
44023W        W16448   7.313  44.783  14.876
44024W        W16449  19.846  28.132  13.854
44025W        W16450   3.471  30.990  11.695
44026W        W16451  24.083  21.635   2.297
44027W        W16452   3.085  36.479  13.586
44028W        W16453  12.623  24.541  12.337
44029W        W16454  34.496   3.296   4.417
44030W        W16455  13.824  31.149   3.672
44031W        W16456  36.100  25.007   4.156
44032W        W16457  39.377   9.445   0.781
44033W        W16458  34.206  23.886   2.699
44034W        W16459  30.625  32.420  13.019
44035W        W16460  25.522  32.483   0.998
44036W        W16461  25.081   3.157   1.735
44037W        W16462  17.692   6.021   2.006
44038W        W16463  20.785  28.744  11.045
44039W        W16464  39.236  17.482   1.782
44040W        W16465   1.481   8.929  13.753
44041W        W16466  36.478  23.572   9.808
44042W        W16467   9.323  23.061  13.097
44043W        W16468  19.237  35.402   2.142
44044W        W16469  44.165  29.935   1.257
44045W        W16470  31.031  15.801  11.434
44046W        W16471  29.535  37.120  14.266
44047W        W16472  36.681  35.487   0.765
44048W        W16473  36.478  44.366   1.036
44049W        W16474  22.682  31.661  12.020
44050W        W16475  14.764  35.078  12.404
44051W        W16476  26.028  25.730   3.080
44052W        W16477  35.651   0.436  12.372
44053W        W16478  12.741   1.409  13.804
44054W        W16479  25.628  28.849  14.831
44055W        W16480  38.793  20.571   1.205
44056W        W16481  20.041   4.477  11.736
44057W        W16482   1.016  41.949   4.344
44058W        W16483  13.332  10.291  10.574
44059W        W16484  38.896   9.659   0.806
44060W        W16485   3.822  35.512   4.681
44061W        W16486  43.445   2.761  12.169
44062W        W16487   0.935  26.711  13.771
44063W        W16488  42.512  30.958   3.783
44064W        W16489   6.254  18.849  12.194
44065W        W16490   5.303  18.633  13.086
44066W        W16491   9.966  24.917  12.920
44067W        W16492  24.320  25.017  12.459
44068W        W16493  36.104  37.751   3.531
44069W        W16494  34.855  27.590   2.762
44070W        W16495  18.181  41.566   0.430
44071W        W16496  30.775  17.305   2.247
44072W        W16497  23.427  34.446  14.792
44073W        W16498  14.994  35.485  13.663
44074W        W16499  39.009  18.322   4.131
44075W        W16500  15.190  30.423  11.320
44076W        W16501  16.307  29.054  14.815
44077W        W16502  34.961   3.185   2.673
44078W        W16503  16.614  23.323  12.642
44079W        W16504   4.437   9.019  11.409
44080W        W16505  32.625  33.829  12.785
44081W        W16506   2.180  19.766   5.064
44082W        W16507  15.714  15.080   1.971
44083W        W16508   7.476  15.194   0.517
44084W        W16509  24.082  10.407   1.937
44085W        W16510   0.317  44.252  11.929
44086W        W16511  14.493  31.020   4.998
44087W        W16512  30.993  34.027  14.669
44088W        W16513   3.822  41.396  13.004
44089W        W16514  28.105  33.640  12.528
44090W        W16515  43.775   9.278   1.237
44091W        W16516   4.009  22.916  11.980
44092W        W16517  29.744  11.173   2.315
44093W        W16518  31.860  17.975   2.844
44094W        W16519  27.606  15.150   4.093
44095W        W16520  30.548  11.793  13.770
44096W        W16521  12.666  18.600   0.814
44097W        W16522  37.498  15.866   0.579
44098W        W16523   8.445  39.961  14.795
44099W        W16524  43.059  31.229   3.804
44100W        W16525  17.419  31.850  10.551
44101W        W16526   3.635  12.028  11.047
44102W        W16527   5.101  31.589  14.916
44103W        W16528   6.628  16.507  14.379
44104W        W16529  42.778  27.640   3.737
44105W        W16530   2.443   6.838  14.388
44106W        W16531  34.510  35.470  10.809
44107W        W16532   7.633  44.413   3.249
44108W        W16533  21.708  18.129   2.822
44109W        W16534  42.472  17.632  10.439
44110W        W16535  13.003  23.481   1.914
44111W        W16536  11.512  12.601  13.582
44112W        W16537  40.963  26.505  14.384
44113W        W16538  40.270  30.547  14.740
44114W        W16539  26.577  18.341   3.963
44115W        W16540   5.410  24.447   1.690
44116W        W16541  22.418  13.831   1.265
44117W        W16542   8.777  31.004  13.900
44118W        W16543  21.321  43.365   2.152
44119W        W16544   8.986  40.837   4.554
44120W        W16545  43.397  32.797   1.841
44121W        W16546   6.152  43.479  13.392
44122W        W16547  27.404  33.858   0.323
44123W        W16548  23.886  28.413  11.192
44124W        W16549  32.214  36.800   3.831
44125W        W16550  11.878   7.829   2.319
44126W        W16551  38.489   3.165  13.526
44127W        W16552  13.380  24.267   2.371
44128W        W16553   1.248  23.467  13.048
44129W        W16554  13.256  43.345  12.152
44130W        W16555   1.219   4.351  14.294
44131W        W16556  43.051  22.604  13.897
44132W        W16557  13.550  40.487   2.869
44133W        W16558   7.623  20.031   3.141
44134W        W16559   6.765   2.821   0.928
44135W        W16560   1.885  22.407  12.601
44136W        W16561  15.633   7.464   4.705
44137W        W16562  42.134  12.421   3.624
44138W        W16563  26.528  21.033   0.009
44139W        W16564  44.080  42.072  12.663
44140W        W16565  34.887  16.116   1.943
44141W        W16566  42.994   6.265   4.062
44142W        W16567  15.958  25.846  14.394
44143W        W16568  38.451  28.722  14.483
44144W        W16569  23.223  40.334  10.636
44145W        W16570  14.893   2.316  12.119
44146W        W16571  30.454  19.963   1.819
44147W        W16572  44.841  10.638  12.393
44148W        W16573  22.638  42.382   0.412
44149W        W16574   1.335  20.225   0.838
44150W        W16575  18.560   1.301  10.447
44151W        W16576   3.820  41.266  12.099
44152W        W16577  26.195  31.072  14.017
44153W        W16578  32.414  35.342  14.975
44154W        W16579  29.125  43.116  12.988
44155W        W16580  31.267  39.654  14.838
44156W        W16581  10.759   9.274   3.647
44157W        W16582  21.210  42.771  12.916
44158W        W16583  27.968  27.615   0.188
44159W        W16584  15.981  13.775   2.875
44160W        W16585  29.353  17.579  12.394
44161W        W16586  15.398  38.562   3.536
44162W        W16587  20.717  28.998   0.831
44163W        W16588  19.861   0.812  10.234
44164W        W16589  10.368  25.656   2.894
44165W        W16590  32.547  25.659   2.199
44166W        W16591   7.785  25.083   2.754
44167W        W16592   1.775   7.264   4.180
44168W        W16593  40.907  24.548  13.771
44169W        W16594  40.344  29.487   2.216
44170W        W16595  28.467  32.933  10.323
44171W        W16596  31.108  21.616  10.456
44172W        W16597  29.142  32.161   2.315
44173W        W16598  42.277   5.378   1.482
44174W        W16599   6.309  21.752  10.770
44175W        W16600   2.929  12.149  13.995
44176W        W16601  19.203  42.438  10.989
44177W        W16602  22.221  28.924  12.770
44178W        W16603  41.045  21.111   4.197
44179W        W16604   9.285  18.680  14.347
44180W        W16605  24.152   9.290   3.196
44181W        W16606  35.303  21.723   0.532
44182W        W16607  43.442  14.355   3.171
44183W        W16608  33.170  19.269   0.881
44184W        W16609  24.028  16.167   2.439
44185W        W16610  26.566  19.133  11.474
44186W        W16611   9.602  20.766   1.417
44187W        W16612   2.134  43.929  11.034
44188W        W16613  12.740   9.316   4.105
44189W        W16614   7.352   8.345  11.529
44190W        W16615  24.646  22.483   0.835
44191W        W16616  43.904  37.442  12.110
44192W        W16617  29.487  40.958   3.688
44193W        W16618  13.848  43.560   1.396
44194W        W16619   5.410  35.066   2.653
44195W        W16620  18.683  41.890   2.352
44196W        W16621   9.091   1.278   3.850
44197W        W16622   9.293  41.241  13.325
44198W        W16623  43.558   4.175  14.251
44199W        W16624   5.440  16.547  13.897
44200W        W16625  27.008  32.911   0.302
44201W        W16626  21.236   1.196   1.375
44202W        W16627  29.893  28.241   1.977
44203W        W16628   9.840  29.367   4.854
44204W        W16629  23.987  37.080  13.950
44205W        W16630   8.311  39.488  14.067
44206W        W16631   8.347  39.293   4.202
44207W        W16632   6.990  40.320   2.133
44208W        W16633  19.141  13.854  14.269
44209W        W16634   8.193   0.902   1.260
44210W        W16635  36.525  40.830  12.966
44211W        W16636  41.955   2.239   1.876
44212W        W16637  26.418  24.226   3.867
44213W        W16638  34.568  44.895   0.004
44214W        W16639   2.501   2.814   0.340
44215W        W16640   6.717  44.571   3.157
44216W        W16641  38.402  35.277  12.121
44217W        W16642  27.495  21.662  14.001
44218W        W16643  39.114   1.371  12.943
44219W        W16644  25.094  13.156  14.240
44220W        W16645  31.486   2.620   1.343
44221W        W16646   4.951  16.740  13.940
44222W        W16647   3.778  28.649   4.715
44223W        W16648  36.590  35.023  11.931
44224W        W16649  33.496  33.551  13.049
44225W        W16650  29.657  35.539   2.242
44226W        W16651  25.391  17.786  14.423
44227W        W16652  27.267   9.100   0.719
44228W        W16653  13.648  29.607  10.751
44229W        W16654  11.414  42.906   1.800
44230W        W16655  37.358  40.220  11.039
44231W        W16656  18.070  30.672   0.329
44232W        W16657  19.948  18.081  11.636
44233W        W16658  17.262   0.968   2.654
44234W        W16659  36.636  17.901   9.560
44235W        W16660   5.606  11.215  12.948
44236W        W16661  35.921  38.458  13.859
44237W        W16662  37.049  12.731  13.847
44238W        W16663  29.518  35.112   4.728
44239W        W16664  42.764  24.228   2.770
44240W        W16665  11.314  37.750   3.468
44241W        W16666  39.855  13.574  12.040
44242W        W16667   1.366  30.426  11.011
44243W        W16668   0.275  42.722   3.614
44244W        W16669  44.696  23.175   0.283
44245W        W16670  29.075  21.555  13.176
44246W        W16671  28.928  44.929  12.983
44247W        W16672   8.615  42.436   4.672
44248W        W16673   2.468  41.631   0.895
44249W        W16674  39.308  22.763   2.127
44250W        W16675  14.393   8.170  13.436
44251W        W16676   8.944   8.230   0.800
44252W        W16677   1.426  29.656   2.681
44253W        W16678  15.940  27.522  10.154
44254W        W16679  29.528   6.262  13.464
44255W        W16680  28.961  33.368   0.779
44256W        W16681  41.833  30.846  14.933
44257W        W16682  25.913  10.164  14.287
44258W        W16683  12.103   4.961  13.850
44259W        W16684  41.770  40.600  10.617
44260W        W16685  44.043  22.824   1.725
44261W        W16686  20.488  14.626   0.738
44262W        W16687  26.228  23.091  11.511
44263W        W16688  15.697  34.466   4.529
44264W        W16689   5.307   9.929  13.934
44265W        W16690  23.738  42.146  11.488
44266W        W16691  44.540  23.326  14.808
44267W        W16692  27.084   5.178  11.108
44268W        W16693  14.320   3.190   3.214
44269W        W16694  14.413  31.911  12.951
44270W        W16695   3.902  30.947   0.837
44271W        W16696   7.783  36.113  14.281
44272W        W16697  27.048  24.310   1.140
44273W        W16698  44.437  35.234  13.933
44274W        W16699  31.497  15.897   5.068
44275W        W16700  23.456  12.433   0.828
44276W        W16701  27.496  41.299   4.750
44277W        W16702   2.887  13.372   4.101
44278W        W16703   0.790  44.754   4.735
44279W        W16704   8.283  36.554   3.716
44280W        W16705  35.431   9.579  12.979
44281W        W16706  26.058  35.121   1.738
44282W        W16707  37.011  41.306   2.314
44283W        W16708   0.813   8.421  12.082
44284W        W16709   9.140   8.654   3.277
44285W        W16710  23.500  40.476   3.395
44286W        W16711   8.891  37.441  10.203
44287W        W16712  13.307   5.855  11.057
44288W        W16713   9.594  22.639  13.274
44289W        W16714  16.318  14.747   1.289
44290W        W16715  39.587  27.213   4.941
44291W        W16716  35.357  34.540  14.028
44292W        W16717  34.487  38.973   3.664
44293W        W16718   4.641  27.217  11.113
44294W        W16719   4.825  24.257   2.803
44295W        W16720  28.528  23.078   3.608
44296W        W16721  18.777  39.667  10.712
44297W        W16722  33.557  39.004   2.743
44298W        W16723   5.472  27.371   2.601
44299W        W16724   4.640   1.677  11.601
44300W        W16725   0.058  41.209   2.300
44301W        W16726  10.525  10.230  10.525
44302W        W16727  40.504   1.859  12.628
44303W        W16728  15.390  31.113   0.251
44304W        W16729   7.676  42.228   4.328
44305W        W16730  38.852  36.201  11.207
44306W        W16731  30.721  20.601  11.529
44307W        W16732  11.214  21.596  13.905
44308W        W16733  18.440  23.895  13.060
44309W        W16734   3.772  41.112  13.441
44310W        W16735  10.597  21.211  11.279
44311W        W16736  33.393  26.317  14.842
44312W        W16737  16.760  41.848   0.472
44313W        W16738  40.216  42.789   5.187
44314W        W16739  33.053  38.922   1.550
44315W        W16740  39.193  19.744   1.243
44316W        W16741   1.840  12.388   2.806
44317W        W16742   5.738  23.485   0.265
44318W        W16743  24.928  13.236  14.726
44319W        W16744   2.690  31.077  14.265
44320W        W16745  28.415  12.140  11.154
44321W        W16746   6.945   1.355   1.004
44322W        W16747  38.105  36.422  12.917
44323W        W16748   2.510  20.362  11.701
44324W        W16749  27.977  25.401  11.195
44325W        W16750  22.179   9.708  11.614
44326W        W16751   1.640   5.829  14.550
44327W        W16752  26.721   1.826   1.785
44328W        W16753  20.477  17.914   3.588
44329W        W16754  14.616  31.721  14.249
44330W        W16755  32.883  44.506  14.399
44331W        W16756  15.195  16.253  13.314
44332W        W16757  37.909   5.678  12.428
44333W        W16758   0.779   4.226   3.132
44334W        W16759  27.988  21.108   0.627
44335W        W16760  12.164  23.337   2.252
44336W        W16761  12.342  15.123  13.716
44337W        W16762  39.134  27.132  12.036
44338W        W16763  30.009  22.578  13.494
44339W        W16764  32.631  10.179  11.414
44340W        W16765  13.816  20.092  10.567
44341W        W16766  34.903  15.752  11.684
44342W        W16767  35.857  18.244   2.826
44343W        W16768  16.270  36.799   3.578
44344W        W16769  36.407   2.923   0.076
44345W        W16770  25.769   6.011  10.669
44346W        W16771  28.783  40.867   0.956
44347W        W16772   2.447  31.954   4.360
44348W        W16773  17.618   5.424  11.198
44349W        W16774  16.630  40.821   0.360
44350W        W16775  16.743  26.571   4.127
44351W        W16776  19.290  43.623  11.661
44352W        W16777   9.193   2.398   0.467
44353W        W16778  33.633  23.972  11.526
44354W        W16779  18.824  32.915  10.621
44355W        W16780  20.987  24.712   0.403
44356W        W16781   8.625  12.846   4.181
44357W        W16782  24.714  29.880  14.999
44358W        W16783  31.627  22.062  14.507
44359W        W16784  13.111  28.661  14.365
44360W        W16785  20.618  26.855  12.434
44361W        W16786  26.804  42.421  11.196
44362W        W16787  19.504   2.476  13.919
44363W        W16788   9.661  42.765  14.265
44364W        W16789  25.033  44.432   3.320
44365W        W16790   5.858   3.175  14.385
44366W        W16791  11.340  28.678  11.052
44367W        W16792  27.871  30.691   0.367
44368W        W16793   3.006  35.900  13.560
44369W        W16794  11.324  36.353   1.740
44370W        W16795   0.323  13.116  13.973
44371W        W16796   2.416   8.746  11.155
44372W        W16797  43.288  13.285  14.767
44373W        W16798  11.301  16.164   0.107
44374W        W16799  22.988   1.662   1.302
44375W        W16800  11.627  44.622  13.767
44376W        W16801  40.510  11.684   0.367
44377W        W16802  31.372   1.773  13.515
44378W        W16803  43.815  20.596  11.179
44379W        W16804  27.408  23.433  12.503
44380W        W16805  25.456  13.255  13.283
44381W        W16806  30.127  42.954   0.582
44382W        W16807  30.422   9.718   1.384
44383W        W16808  21.045  10.173  11.956
44384W        W16809  43.978  28.616   0.972
44385W        W16810  32.681  36.551   3.767
44386W        W16811   4.873  38.525  13.839
44387W        W16812   1.550   2.356  13.488
44388W        W16813  40.902  20.245  12.025
44389W        W16814   3.923  34.278   2.796
44390W        W16815  38.622  42.877   5.419
44391W        W16816  41.788  19.118   3.707
44392W        W16817  12.002  23.185  13.422
44393W        W16818  15.859  25.053  14.372
44394W        W16819   0.702  43.055   3.726
44395W        W16820  29.675  27.155  10.763
44396W        W16821  26.653  17.589   3.670
44397W        W16822  42.478  24.522   1.956
44398W        W16823  26.563   7.796   1.553
44399W        W16824   5.446   8.200   2.090
44400W        W16825  34.060  39.554   4.501
44401W        W16826  16.212  38.132   0.741
44402W        W16827  34.161  33.127   3.226
44403W        W16828  15.263   2.288  11.766
44404W        W16829  15.720  41.280  11.014
44405W        W16830  34.085  12.328   3.194
44406W        W16831  44.334  34.968   4.524
44407W        W16832  31.969  37.768   4.044
44408W        W16833  25.726  28.208   4.232
44409W        W16834   1.810  25.568  11.037
44410W        W16835   2.673   3.879  13.533
44411W        W16836  29.236  28.444  10.833
44412W        W16837   8.743   9.170  10.778
44413W        W16838  27.314  19.024  13.004
44414W        W16839  24.007  44.222  13.422
44415W        W16840   8.358  41.810   0.840
44416W        W16841  19.956   3.875  10.553
44417W        W16842  23.921  28.924   3.837
44418W        W16843  21.543  20.564   0.913
44419W        W16844  36.342  22.204   4.220
44420W        W16845  17.315  44.023  11.490
44421W        W16846  14.313  37.126   2.029
44422W        W16847  31.455  31.139   1.766
44423W        W16848  24.302   8.686   2.283
44424W        W16849   1.421  20.444   0.340
44425W        W16850  31.590  40.020   0.104
44426W        W16851  12.320   9.906  13.512
44427W        W16852  42.253  33.408   4.081
44428W        W16853  13.113  26.251   2.268
44429W        W16854  43.749  20.805  13.575
44430W        W16855  29.421  23.215  12.452
44431W        W16856  16.537  10.593  14.251
44432W        W16857   3.987  29.650  14.095
44433W        W16858  19.403  14.206  14.579
44434W        W16859  31.714  26.134   0.220
44435W        W16860  40.956  17.940   3.689
44436W        W16861  41.128  11.796  11.802
44437W        W16862   6.539  21.486  13.392
44438W        W16863   0.899   5.604  13.889
44439W        W16864   1.078  44.432  10.352
44440W        W16865  31.046   2.806   4.099
44441W        W16866  24.520  22.750   1.807
44442W        W16867  40.784   5.902   0.792
44443W        W16868   0.159  17.658  10.550
44444W        W16869  10.700   2.539   0.684
44445W        W16870  43.042  15.555   2.388
44446W        W16871  24.155   0.252  13.344
44447W        W16872  18.311  28.116   2.149
44448W        W16873  41.872  39.969   0.372
44449W        W16874  26.455  10.297   2.732
44450W        W16875   4.434  24.545  10.639
44451W        W16876  43.751  37.545  13.955
44452W        W16877  30.625  38.757  12.411
44453W        W16878  26.167  11.759  11.386
44454W        W16879  41.426   7.149  14.579
44455W        W16880  28.969  18.379  10.708
44456W        W16881  26.643  21.378  11.150
44457W        W16882  14.864  25.906  11.986
44458W        W16883  17.023  12.575   3.824
44459W        W16884  31.115  41.803  14.045
44460W        W16885  14.243  13.609  14.304
44461W        W16886  22.989   6.275  14.900
44462W        W16887  30.026  32.056   2.267
44463W        W16888  11.531  16.126   0.565
44464W        W16889  12.277  44.466   2.088
44465W        W16890  33.669  27.568  13.486
44466W        W16891  28.580  16.513   2.304
44467W        W16892  16.990  38.394   3.702
44468W        W16893  10.251  39.055  13.389
44469W        W16894  24.247  37.919  13.373
44470W        W16895  43.235  41.841  12.916
44471W        W16896  11.904  28.630  13.884
44472W        W16897  25.465   9.803  11.940
44473W        W16898  21.546  30.615   4.071
44474W        W16899  42.444  13.937  14.532
44475W        W16900  44.005   4.910   1.309
44476W        W16901  25.636  17.029   0.995
44477W        W16902  22.477  31.362  11.597
44478W        W16903  29.030  36.325  14.262
44479W        W16904   0.269  32.386   2.537
44480W        W16905  42.064  15.114  11.252
44481W        W16906   3.508   6.611   5.149
44482W        W16907  35.864  11.435   4.610
44483W        W16908   1.230  22.717   3.651
44484W        W16909  23.320   7.199   2.919
44485W        W16910   8.297   6.007   4.628
44486W        W16911   3.432  22.571   1.337
44487W        W16912  35.650  44.023  12.425
44488W        W16913   5.874  10.797   0.768
44489W        W16914  13.900   0.358   2.980
44490W        W16915   0.979  27.110   1.368
44491W        W16916  13.780  36.195  12.506
44492W        W16917  16.603  33.374  11.520
44493W        W16918  35.956  17.361   2.823
44494W        W16919   2.356  25.398   0.742
44495W        W16920  19.516  30.193  12.525
44496W        W16921  13.921  44.851  13.587
44497W        W16922  40.350  16.839  13.405
44498W        W16923   7.442  39.277  13.931
44499W        W16924  31.309  14.124  11.580
44500W        W16925   4.498   9.352  14.914
44501W        W16926   4.174  33.547  10.535
44502W        W16927  36.543   1.207  10.703
44503W        W16928  30.487  17.871   3.754
44504W        W16929  12.612   8.337   3.251
44505W        W16930  31.978  21.085   0.364
44506W        W16931   0.404  34.116   4.269
44507W        W16932   8.100  34.362   3.109
44508W        W16933   0.359  27.512  14.064
44509W        W16934  13.691  17.331   1.393
44510W        W16935   9.333  30.677  10.750
44511W        W16936  19.735  25.561  13.328
44512W        W16937  44.433  10.688  13.958
44513W        W16938  23.541   4.343   4.046
44514W        W16939  31.884  23.135   2.884
44515W        W16940  41.357  43.403  11.346
44516W        W16941   8.409  41.922  12.489
44517W        W16942  26.559  27.855  13.486
44518W        W16943  32.961  23.464  14.838
44519W        W16944  33.765  12.549   2.821
44520W        W16945  29.432  16.670   2.702
44521W        W16946   5.226   5.206   0.696
44522W        W16947  10.675  32.756   2.460
44523W        W16948   4.484  20.580  13.530
44524W        W16949  20.163  38.558  14.300
44525W        W16950  42.565  14.445  14.441
44526W        W16951  34.108   2.616  13.995
44527W        W16952   7.179  26.885  11.180
44528W        W16953   7.895  31.651  14.332
44529W        W16954   2.974  28.600  14.300
44530W        W16955   9.429  44.970   3.223
44531W        W16956  23.449  40.861   2.236
44532W        W16957  17.254   2.766   0.888
44533W        W16958  21.131  41.270  13.368
44534W        W16959  33.479  17.792  12.487
44535W        W16960  38.427  43.041   1.208
44536W        W16961  39.904  40.923   3.685
44537W        W16962   3.542  33.498  13.904
44538W        W16963  38.370  21.567   4.314
44539W        W16964  34.841  26.422   1.449
44540W        W16965  26.487  38.761  13.407
44541W        W16966  35.349  30.967  12.052
44542W        W16967  35.520  40.542  13.439
44543W        W16968  23.540  37.855  12.670
44544W        W16969   8.820  23.670  11.476
44545W        W16970  26.093  36.848   2.930
44546W        W16971  12.691  42.100   3.996
44547W        W16972  33.543  28.983  12.792
44548W        W16973   8.124  40.852  10.670
44549W        W16974  21.083  18.035  12.970
44550W        W16975  36.599   7.285   1.861
44551W        W16976   6.717   8.220  13.097
44552W        W16977  30.638   1.866  11.228
44553W        W16978  18.593  26.406  10.330
44554W        W16979  31.487   9.169   1.869
44555W        W16980  20.736  14.170   4.420
44556W        W16981  29.194   8.447   3.306
44557W        W16982  40.854  39.560   3.269
44558W        W16983  41.382   8.783   1.788
44559W        W16984  23.316  21.122   1.193
44560W        W16985   0.560  18.007  13.223
44561W        W16986  13.470   6.130   2.812
44562W        W16987  42.080  26.897   2.776
44563W        W16988  42.280   2.800  11.120
44564W        W16989  10.686  30.506   0.849
44565W        W16990  18.772  39.416   1.322
44566W        W16991  34.306   1.341   3.308
44567W        W16992  12.753  41.636  14.402
44568W        W16993  38.973  32.844   4.046
44569W        W16994  20.176  40.919  10.799
44570W        W16995  17.574   0.491  10.586
44571W        W16996   3.204   0.800   2.662
44572W        W16997  14.478  32.513  13.042
44573W        W16998  11.725  27.451  13.433
44574W        W16999  26.990  40.060  14.817
44575W        W17000  41.471  29.620   2.084
44576W        W17001  44.367  41.828  11.590
44577W        W17002   9.318  39.284  13.465
44578W        W17003  19.567  39.782   0.281
44579W        W17004  32.311  20.113  11.867
44580W        W17005  42.343  12.074   2.754
44581W        W17006  21.686  27.487  14.438
44582W        W17007  37.332  11.653  14.319
44583W        W17008  31.421  41.004   2.524
44584W        W17009  34.053   9.144  14.413
44585W        W17010   1.308   6.238   1.844
44586W        W17011  27.848  26.106  12.784
44587W        W17012  37.817  10.322  10.660
44588W        W17013  37.633  11.248  14.475
44589W        W17014   6.595  12.904   1.779
44590W        W17015  32.879  38.624   4.678
44591W        W17016  36.515  42.880   3.086
44592W        W17017  31.463  13.278  12.250
44593W        W17018  40.021  42.529   0.476
44594W        W17019  29.156  38.839  12.445
44595W        W17020  29.168  27.954   4.186
44596W        W17021  26.215  42.827  12.526
44597W        W17022   3.747  41.996  13.095
44598W        W17023  40.377  13.305   3.994
44599W        W17024  43.277   4.727  11.144
44600W        W17025   9.602  20.241   4.609
44601W        W17026  24.998  11.093   0.449
44602W        W17027   0.139  23.627   4.169
44603W        W17028  18.244  40.336   2.624
44604W        W17029  34.670  18.228  14.975
44605W        W17030  38.568  17.353  14.864
44606W        W17031  40.440  18.424  11.062
44607W        W17032  25.058  10.868  12.689
44608W        W17033  25.575  13.709  14.473
44609W        W17034  11.667  18.025   4.351
44610W        W17035  14.503  39.196  12.919
44611W        W17036  20.629   1.682  10.726
44612W        W17037  25.571  38.121  12.005
44613W        W17038   0.304   7.177  13.345
44614W        W17039   2.360  29.603   4.447
44615W        W17040  36.313  31.930  10.778
44616W        W17041  11.342   1.855  11.528
44617W        W17042  10.930  13.688   1.634
44618W        W17043  44.422  27.424   2.758
44619W        W17044   0.429   4.234   4.911
44620W        W17045   7.347  13.506   3.632
44621W        W17046  41.954  17.587   0.840
44622W        W17047  39.382  27.150  14.413
44623W        W17048  19.579  13.677  11.576
44624W        W17049  34.602   7.106  10.937
44625W        W17050  44.379  20.335   4.620
44626W        W17051   7.890  43.865  11.539
44627W        W17052   7.305   7.853   1.403
44628W        W17053  35.024   1.453  10.994
44629W        W17054  16.666  16.747   3.654
44630W        W17055  33.620  12.328   0.988
44631W        W17056  13.174   1.221  13.462
44632W        W17057  13.022   0.275   3.264
44633W        W17058  39.686  20.593  14.838
44634W        W17059  29.099   8.153  14.069
44635W        W17060   9.145   6.367  14.067
44636W        W17061   4.221   5.884   0.876
44637W        W17062  22.165  39.086   0.536
44638W        W17063   4.685  10.822  14.727
44639W        W17064  13.412  15.354   1.213
44640W        W17065   2.076  16.486  12.373
44641W        W17066  12.143  22.280  12.156
44642W        W17067  39.973  20.598  12.447
44643W        W17068  12.216  15.162  11.968
44644W        W17069  31.897  18.789  10.409
44645W        W17070  24.158  18.764  14.749
44646W        W17071  38.913  18.406   5.054
44647W        W17072  31.523  34.492   3.448
44648W        W17073  19.247  13.724   0.965
44649W        W17074  29.629  24.261  14.792
44650W        W17075  17.802  19.145   4.131
44651W        W17076  36.960  41.955  13.974
44652W        W17077  17.673  19.058  12.346
44653W        W17078  12.355  43.422   0.578
44654W        W17079   7.343  12.612  11.576
44655W        W17080  43.384  42.845  12.878
44656W        W17081  23.144  28.384   4.732
44657W        W17082  25.959  11.115  14.490
44658W        W17083  34.144  33.651   3.303
44659W        W17084  27.275  14.077  12.573
44660W        W17085  41.300   8.164   3.838
44661W        W17086  43.877  25.520   4.464
44662W        W17087  21.573  20.132  12.439
44663W        W17088  11.852  15.155  10.761
44664W        W17089  20.760  27.505   0.463
44665W        W17090  32.841  21.885   4.118
44666W        W17091   7.035  25.645   1.670
44667W        W17092  36.695  18.408   0.980
44668W        W17093  29.072   0.664  13.347
44669W        W17094   5.638  14.813   3.304
44670W        W17095  41.903  34.852  11.589
44671W        W17096  12.214  13.558  12.026
44672W        W17097  44.494  34.765  14.146
44673W        W17098  27.354  25.520   4.940
44674W        W17099   2.657  38.365   2.155
44675W        W17100  28.154  14.018  12.019
44676W        W17101   2.989  11.309  14.589
44677W        W17102   1.347  44.784   3.599
44678W        W17103  28.925   1.906  12.963
44679W        W17104  40.223  44.025   2.430
44680W        W17105   8.816   0.295  13.428
44681W        W17106   3.378  28.922  13.603
44682W        W17107  10.627  16.014   3.854
44683W        W17108  12.093  31.893   2.723
44684W        W17109  21.151   1.051   4.194
44685W        W17110  27.448  28.651  14.465
44686W        W17111   8.667   2.390  11.413
44687W        W17112  40.915   7.750   0.861
44688W        W17113  33.383  16.714   3.565
44689W        W17114  38.703  21.025   2.908
44690W        W17115  39.091  38.454  12.111
44691W        W17116   9.042  40.361   3.185
44692W        W17117  37.894  19.100   1.419
44693W        W17118   2.827  12.846  12.451
44694W        W17119  28.595  12.939   2.737
44695W        W17120  34.849   8.852   0.816
44696W        W17121  29.244  13.655  13.051
44697W        W17122  23.568  12.890   3.705
44698W        W17123   7.596  35.676  13.375
44699W        W17124  35.704  41.439   3.674
44700W        W17125  22.188  18.478   5.046
44701W        W17126   2.800  15.443   0.306
44702W        W17127  26.552  17.769  13.105
44703W        W17128  24.756   3.888   0.886
44704W        W17129  28.875  37.864   1.686
44705W        W17130  12.165  28.319  11.728
44706W        W17131  18.317   5.357  12.034
44707W        W17132   1.020   0.169   1.908
44708W        W17133  34.463  37.865   0.248
44709W        W17134  12.946   7.772   4.169
44710W        W17135  35.910   5.432   2.873
44711W        W17136  10.102   2.931   2.530
44712W        W17137   0.634  30.030   0.453
44713W        W17138  35.021  21.977   3.072
44714W        W17139  38.866   1.107   0.201
44715W        W17140   0.309   9.167   4.633
44716W        W17141  44.366  19.685  11.560
44717W        W17142  15.483   0.234   4.994
44718W        W17143   2.703  27.406   2.443
44719W        W17144  30.049   6.350   3.857
44720W        W17145  39.318  26.730  11.784
44721W        W17146  17.906  10.803  12.572
44722W        W17147  28.107  31.683   0.996
44723W        W17148  39.299  33.402   2.951
44724W        W17149  18.545  30.229   2.446
44725W        W17150  29.397  31.460  11.007
44726W        W17151  10.274   5.672   0.887
44727W        W17152  24.507   4.709   3.301
44728W        W17153  44.947  19.791   0.794
44729W        W17154   0.930  11.790  13.972
44730W        W17155  26.366   3.672   2.586
44731W        W17156  24.156  41.456   1.415
44732W        W17157   2.598  11.307   0.528
44733W        W17158  14.990  30.891   2.035
44734W        W17159  44.771  42.702   4.817
44735W        W17160  23.955  33.537  14.460
44736W        W17161  14.217  33.732   0.582
44737W        W17162  34.403   1.283  11.460
44738W        W17163  14.694   5.631  12.762
44739W        W17164  33.578  41.412   4.603
44740W        W17165   2.959   5.450   3.803
44741W        W17166  30.965  30.920   1.722
44742W        W17167  11.608  35.294   1.384
44743W        W17168  21.190  10.111   0.464
44744W        W17169  22.218  35.852   3.210
44745W        W17170  10.185  35.363   1.366
44746W        W17171   2.192   6.867   2.720
44747W        W17172  36.633  40.299  11.545
44748W        W17173   9.694  13.300  11.680
44749W        W17174  40.961  26.544  13.854
44750W        W17175  29.470   6.598  12.443
44751W        W17176   2.462  21.001  12.993
44752W        W17177   4.681  41.435  12.050
44753W        W17178  26.649  26.169  11.081
44754W        W17179  23.461   6.867  10.638
44755W        W17180  10.444   0.613   5.112
44756W        W17181  32.528  19.298  11.013
44757W        W17182  17.233  43.872   0.036
44758W        W17183  27.410  29.471   0.303
44759W        W17184  13.141  13.274  11.338
44760W        W17185  34.543  27.121  13.390
44761W        W17186  27.996  25.267  13.775
44762W        W17187  31.755   5.220   3.629
44763W        W17188   0.271  28.974  14.077
44764W        W17189   3.182  31.928   3.750
44765W        W17190   7.570  35.166  11.591
44766W        W17191  28.463  28.706   1.789
44767W        W17192  23.261   4.189  12.727
44768W        W17193  31.881  11.561  11.081
44769W        W17194   3.496  42.305   2.853
44770W        W17195   6.900  35.380  10.430
44771W        W17196  39.113  33.589   2.491
44772W        W17197   3.873   2.021  14.341
44773W        W17198  13.414  17.582   2.313
44774W        W17199  40.832  34.374  14.060
44775W        W17200  40.407   4.889   2.824
44776W        W17201  37.912  33.184   0.425
44777W        W17202  17.038  37.529   0.959
44778W        W17203  26.008  20.135   3.343
44779W        W17204   2.891  31.982   1.431
44780W        W17205   1.175   1.053  14.302
44781W        W17206   8.240  14.321  14.707
44782W        W17207  12.629  34.288  11.910
44783W        W17208   3.897   6.181   4.075
44784W        W17209  21.980   8.446   4.262
44785W        W17210  25.938  22.931  13.868
44786W        W17211  38.320  12.682  12.981
44787W        W17212   9.736  17.338  11.267
44788W        W17213  37.969  26.718   1.407
44789W        W17214  41.849  26.551   0.839
44790W        W17215   9.874   9.012  10.751
44791W        W17216  29.538  25.594   2.636
44792W        W17217  38.299  14.501  11.232
44793W        W17218  32.334  40.175  14.108
44794W        W17219  32.604  24.578  11.135
44795W        W17220   6.349   2.565  14.696
44796W        W17221  23.430  25.220   3.666
44797W        W17222  19.122  41.610   4.070
44798W        W17223  44.828   5.799   0.936
44799W        W17224  15.784   3.678  12.802
44800W        W17225  22.098  35.379   0.461
44801W        W17226  11.909  32.445   2.745
44802W        W17227  26.779  13.634  11.069
44803W        W17228  31.237  15.483   3.635
44804W        W17229  16.306  39.932  12.170
44805W        W17230  42.786  14.623   3.861
44806W        W17231  39.608   2.886   1.421
44807W        W17232   7.227  41.317   3.223
44808W        W17233  13.981  15.730   2.228
44809W        W17234  28.157   4.901  11.719
44810W        W17235  16.972  17.030   0.453
44811W        W17236   5.206  30.076   0.806
44812W        W17237  10.191   2.246  14.601
44813W        W17238  36.026  14.640   4.660
44814W        W17239  12.781  32.370   1.914
44815W        W17240  38.740  35.892   4.636
44816W        W17241  11.509   0.064   1.187
44817W        W17242  29.211   7.903   2.181
44818W        W17243  36.018  27.569  11.553
44819W        W17244   3.774  29.590   4.386
44820W        W17245  27.958  34.900  14.017
44821W        W17246   8.163  16.738  14.481
44822W        W17247  44.695   3.675   2.410
44823W        W17248  34.987  28.520  11.890
44824W        W17249  18.973  22.497  11.121
44825W        W17250   5.725   7.599  12.018
44826W        W17251  22.437  14.034  14.696
44827W        W17252  19.076   0.386   3.276
44828W        W17253  40.478  28.703   3.133
44829W        W17254  39.860   0.307  12.798
44830W        W17255  30.398  18.587   2.153
44831W        W17256   4.654   2.163  11.483
44832W        W17257   7.541  22.449   4.221
44833W        W17258  22.742  16.829  14.554
44834W        W17259  18.415   9.376   1.469
44835W        W17260  40.720  12.535  12.083
44836W        W17261  32.717  39.038   5.014
44837W        W17262   2.722   7.195   3.385
44838W        W17263  32.663  35.629   1.395
44839W        W17264  40.978  19.064  13.404
44840W        W17265  16.977  25.729  13.765
44841W        W17266  38.992   5.851  11.553
44842W        W17267  35.982  19.116   3.414
44843W        W17268  11.319   4.409  10.919
44844W        W17269  37.839  25.759   0.878
44845W        W17270   5.524  37.302   1.483
44846W        W17271   4.985   7.452   4.118
44847W        W17272  39.803  40.590  11.751
44848W        W17273  17.371  10.731  11.511
44849W        W17274   6.414  28.968   3.124
44850W        W17275  17.616  20.752  10.653
44851W        W17276  44.319   4.957  12.627
44852W        W17277   7.442  30.181  10.616
44853W        W17278  32.637  42.768  12.007
44854W        W17279  13.694  20.494  13.926
44855W        W17280  36.857  39.069   1.668
44856W        W17281  31.103  19.932  13.338
44857W        W17282  25.058  32.034  10.401
44858W        W17283  40.740  38.737  10.739
44859W        W17284  13.717  10.321  13.530
44860W        W17285  21.009  43.933  13.485
44861W        W17286  15.109   4.790  14.764
44862W        W17287   5.405  19.595   0.364
44863W        W17288  18.754  32.824  13.550
44864W        W17289  35.642   6.304   1.272
44865W        W17290  23.624  32.978  14.463
44866W        W17291  40.421  28.578   2.150
44867W        W17292  21.545  31.729   3.791
44868W        W17293  42.753  25.416  13.490
44869W        W17294  17.188  10.916   1.690
44870W        W17295  30.965  28.094   2.720
44871W        W17296  41.211  33.082   4.206
44872W        W17297  10.835  14.629   1.174
44873W        W17298  41.787  20.308   0.524
44874W        W17299  41.006  24.541  14.825
44875W        W17300   0.886  18.552   1.953
44876W        W17301  28.930  40.384   2.573
44877W        W17302  35.849  18.055   1.390
44878W        W17303   5.448  39.593  13.979
44879W        W17304  20.317  25.936  14.866
44880W        W17305   0.983  30.977   1.001
44881W        W17306   9.723  39.038  11.586
44882W        W17307  42.307  26.607   1.490
44883W        W17308  40.393  39.485  13.332
44884W        W17309  30.118  27.578   1.781
44885W        W17310  33.624  16.630   1.722
44886W        W17311   3.368  16.024   2.304
44887W        W17312  21.231  34.601   4.594
44888W        W17313  44.280  37.367   2.905
44889W        W17314  30.370   3.251   0.001
44890W        W17315  32.744  35.433  11.579
44891W        W17316   5.746  16.550   3.417
44892W        W17317  33.791  32.837   3.795
44893W        W17318  32.979  20.271   1.673
44894W        W17319  42.320  16.298  11.487
44895W        W17320  20.184  44.712   1.410
44896W        W17321  35.892  21.511   4.561
44897W        W17322  29.922   7.295  14.936
44898W        W17323  24.157  15.375   1.469
44899W        W17324  35.817   1.948  13.057
44900W        W17325   1.879  41.995  13.210
44901W        W17326  38.512  44.308  10.698
44902W        W17327  35.687   4.791  11.663
44903W        W17328  24.653  25.105   1.432
44904W        W17329  34.362  35.030   2.616
44905W        W17330   3.241  37.006   3.741
44906W        W17331  19.318   5.004  14.797
44907W        W17332  32.865  36.195   3.430
44908W        W17333  16.984  23.184  13.461
44909W        W17334  36.607  43.807   2.596
44910W        W17335  20.693   8.446  11.953
44911W        W17336  15.684  36.039  14.682
44912W        W17337  28.898  24.674  13.562
44913W        W17338  15.324  34.455   2.609
44914W        W17339  23.454   2.429  11.709
44915W        W17340   1.949  43.786  12.871
44916W        W17341   3.146   0.506   2.232
44917W        W17342  40.070   1.919   1.791
44918W        W17343  15.904   3.900   1.948
44919W        W17344  16.161  34.640  14.036
44920W        W17345   4.494  28.168  13.798
44921W        W17346   6.398  28.345  10.151
44922W        W17347  42.861   5.188   0.174
44923W        W17348  26.112  31.815   1.349
44924W        W17349  11.030  30.588  14.711
44925W        W17350  39.065  43.731   2.296
44926W        W17351  39.992  21.552   0.733
44927W        W17352  18.216  15.612  12.539
44928W        W17353   5.781  40.293  11.673
44929W        W17354   0.034  41.412  13.020
44930W        W17355  31.696  36.917   3.991
44931W        W17356   2.838   3.399  11.339
44932W        W17357  35.979  25.834  10.479
44933W        W17358   6.207  24.009   2.827
44934W        W17359  11.834  39.844  14.685
44935W        W17360  37.543   5.842   3.898
44936W        W17361   8.168  28.731   3.707
44937W        W17362   0.223  28.537  10.758
44938W        W17363   5.341   5.311   2.232
44939W        W17364  37.372  37.456   4.050
44940W        W17365  36.867  13.141   2.216
44941W        W17366  14.822   3.182   4.108
44942W        W17367  34.135   0.972  14.535
44943W        W17368  11.907   7.041  11.402
44944W        W17369  14.779   8.530   3.425
44945W        W17370  30.442   1.728   3.624
44946W        W17371  13.142  17.225  10.894
44947W        W17372  18.691  30.099   0.037
44948W        W17373  39.869  17.730  12.341
44949W        W17374  36.865  28.089   1.342
44950W        W17375  24.398  14.650   1.197
44951W        W17376  14.290  27.556   1.502
44952W        W17377   5.706  33.384  11.882
44953W        W17378  27.989  17.868  14.847
44954W        W17379   1.209  36.900  13.239
44955W        W17380  15.796  41.809   2.869
44956W        W17381   7.794  32.088   4.235
44957W        W17382  26.973  20.497  12.180
44958W        W17383  10.386  20.462  14.813
44959W        W17384   9.800  11.797   4.395
44960W        W17385   8.289   3.786  14.848
44961W        W17386   0.646   5.373  11.374
44962W        W17387  38.714  39.968   4.026
44963W        W17388  31.943   3.960  11.066
44964W        W17389   0.803  15.270   0.671
44965W        W17390  19.674   7.402  12.952
44966W        W17391   5.322  33.387   0.979
44967W        W17392  12.652  36.705  13.215
44968W        W17393  14.684  19.601   4.225
44969W        W17394  24.966  10.666   1.895
44970W        W17395  14.713  23.160  13.746
44971W        W17396  27.930  10.255  10.667
44972W        W17397  42.006  12.861   1.181
44973W        W17398   4.792  21.631  12.100
44974W        W17399  26.954  38.432  11.052
44975W        W17400  10.531  21.185   1.214
44976W        W17401  42.861   4.440   2.374
44977W        W17402  37.450  14.919  12.424
44978W        W17403  43.074  16.080  14.271
44979W        W17404  39.713  44.851  13.907
44980W        W17405   3.742  17.602  10.466
44981W        W17406  28.199  44.761  13.003
44982W        W17407  14.785  39.141  13.948
44983W        W17408  10.416  35.952  13.885
44984W        W17409   0.445   9.813  12.108
44985W        W17410  36.305  26.051   1.295
44986W        W17411   7.666  21.029  13.842
44987W        W17412  18.492   9.633   2.596
44988W        W17413  17.289  18.631  14.754
44989W        W17414  22.427  38.595   4.637
44990W        W17415  29.156  28.090  11.733
44991W        W17416   7.742   9.604  14.787
44992W        W17417  32.559  32.496   1.743
44993W        W17418  24.894  22.041  13.665
44994W        W17419  38.055  22.482   2.570
44995W        W17420  31.693  11.155   4.443
44996W        W17421  42.516   7.194   4.898
44997W        W17422  25.084   4.040  14.926
44998W        W17423  28.192  20.659  11.575
44999W        W17424  34.405  30.637   0.868
45000W        W17425  43.302  20.712   2.389
45001W        W17426  17.283  33.317   2.827
45002W        W17427  20.689  21.188  10.941
45003W        W17428  19.255  35.352   4.746
45004W        W17429  44.779   2.804  11.585
45005W        W17430  22.490   7.055  13.895
45006W        W17431  27.481  33.866   3.352
45007W        W17432  41.348   8.888   0.491
45008W        W17433  27.664  19.429  14.320
45009W        W17434  36.422  22.050   3.228
45010W        W17435  10.355  19.762  12.229
45011W        W17436  11.787  35.972   5.161
45012W        W17437  25.417   4.211   3.475
45013W        W17438  18.791  40.343   0.376
45014W        W17439  18.291  30.160   2.893
45015W        W17440  14.179  31.965   3.727
45016W        W17441  35.149   0.426   2.171
45017W        W17442   6.933  18.217   3.781
45018W        W17443  38.056  43.056   2.673
45019W        W17444  11.930  22.518  10.501
45020W        W17445  43.820  35.443   1.277
45021W        W17446  37.629  11.848   4.958
45022W        W17447  23.521   9.729   2.223
45023W        W17448   7.686   7.262  11.572
45024W        W17449   8.186   9.243   5.130
45025W        W17450  41.958   3.454   2.560
45026W        W17451  27.849  21.580  14.389
45027W        W17452  11.549  16.148   4.922
45028W        W17453  35.558   3.983  11.564
45029W        W17454  12.081   8.263   1.001
45030W        W17455   9.366  32.571  11.003
45031W        W17456  30.666  22.047   4.116
45032W        W17457  41.481  42.865  14.483
45033W        W17458  18.527   1.511   2.712
45034W        W17459   5.652  32.530   4.605
45035W        W17460  26.497  11.682  14.385
45036W        W17461   7.248  15.086  13.378
45037W        W17462   7.901  35.471  12.525
45038W        W17463  26.218  31.649  13.432
45039W        W17464  18.045   0.725   2.261
45040W        W17465  22.924  13.143  14.820
45041W        W17466  21.749   7.838   2.164
45042W        W17467   4.901  31.822  13.470
45043W        W17468  38.686  35.089  12.496
45044W        W17469  39.258  25.595  12.147
45045W        W17470  34.402  35.775   1.845
45046W        W17471   4.579  19.248  11.719
45047W        W17472  28.886  34.255   0.201
45048W        W17473   4.593  19.817   1.830
45049W        W17474   8.686  18.007   0.930
45050W        W17475   7.196  24.139  10.875
45051W        W17476  10.363  27.562  10.739
45052W        W17477  37.666   0.261  13.043
45053W        W17478  20.160  24.592   4.546
45054W        W17479   7.884  28.063   9.948
45055W        W17480  43.270  36.059   0.958
45056W        W17481  36.294   0.872  11.543
45057W        W17482   9.772  38.638  13.834
45058W        W17483  29.524  10.163  14.804
45059W        W17484  27.922   8.306   2.767
45060W        W17485  36.323   9.192   4.973
45061W        W17486   9.429  24.198  14.580
45062W        W17487  24.787  38.511   2.231
45063W        W17488   5.343  15.641   0.733
45064W        W17489  40.941  35.258  12.349
45065W        W17490  15.135   7.975   0.676
45066W        W17491   4.131  16.687  12.458
45067W        W17492  14.804  21.334   3.755
45068W        W17493  40.113  22.225  14.302
45069W        W17494  43.923  24.605  11.555
45070W        W17495  29.621  24.735   3.341
45071W        W17496  20.416  16.639   1.664
45072W        W17497  38.270  10.337   3.792
45073W        W17498   2.768  11.038   4.323
45074W        W17499  38.352   3.357  12.098
45075W        W17500  37.760  22.137   0.868
45076W        W17501   9.429  21.101  10.180
45077W        W17502  43.295  30.649   3.378
45078W        W17503   0.975   1.492  13.418
45079W        W17504  30.682  37.633   0.847
45080W        W17505  44.253  11.049   0.550
45081W        W17506  42.500   7.944  11.574
45082W        W17507  28.602  28.093  11.791
45083W        W17508  24.729  24.715  10.757
45084W        W17509   9.153   4.786   1.885
45085W        W17510  10.282   0.736  10.297
45086W        W17511  14.556   5.578  11.779
45087W        W17512   6.456  12.948   4.217
45088W        W17513  21.837  19.496   2.177
45089W        W17514  33.002   4.221  14.322
45090W        W17515  32.253  21.031   2.126
45091W        W17516  33.402   9.759   2.460
45092W        W17517  37.996  41.994   0.774
45093W        W17518  41.749  22.308  14.270
45094W        W17519  25.588  36.296   3.809
45095W        W17520   0.892  44.244  12.957
45096W        W17521  19.356   0.980  13.494
45097W        W17522  17.235  28.204   4.942
45098W        W17523   4.274  40.746  12.565
45099W        W17524  18.631  13.332   5.058
45100W        W17525  10.192  25.980  11.058
45101W        W17526  19.727  44.300  14.718
45102W        W17527  12.713  25.996  12.471
45103W        W17528  16.100  13.307   1.897
45104W        W17529  22.668  19.241   3.751
45105W        W17530  22.968  36.966  12.478
45106W        W17531  20.050  25.592   4.262
45107W        W17532   8.348  13.260  11.221
45108W        W17533  44.761   1.679  11.248
45109W        W17534  10.935   8.556   4.155
45110W        W17535  39.507  42.110   4.672
45111W        W17536  44.804  38.437   4.969
45112W        W17537   0.669  35.532   2.777
45113W        W17538  36.904  34.576   3.571
45114W        W17539  18.203  28.448  12.997
45115W        W17540   7.767   3.699   1.534
45116W        W17541  44.452  25.105   1.045
45117W        W17542  30.974  11.135  13.551
45118W        W17543   3.667   5.822  11.982
45119W        W17544  25.466  44.971   1.894
45120W        W17545  30.511  34.414   4.851
45121W        W17546  10.156   7.358   3.238
45122W        W17547  17.940  16.623  11.499
45123W        W17548  33.430   3.754   1.187
45124W        W17549  25.109   3.017  14.909
45125W        W17550  25.641  44.777   5.266
45126W        W17551  14.876  28.938  14.275
45127W        W17552  36.517   9.162  14.347
45128W        W17553  15.054  11.801   2.243
45129W        W17554  28.772  40.874   4.196
45130W        W17555  34.308  13.900   2.262
45131W        W17556  29.734  35.045  11.207
45132W        W17557  44.427  39.523   2.553
45133W        W17558  27.097  37.860   3.974
45134W        W17559  34.834  39.084  12.758
45135W        W17560  34.596  16.100   1.284
45136W        W17561   2.221   9.762  12.912
45137W        W17562  13.084  23.472  10.632
45138W        W17563   1.187  42.011  13.370
45139W        W17564   7.387  39.532  12.108
45140W        W17565  22.163  36.078   0.955
45141W        W17566  31.927  12.288  10.536
45142W        W17567   6.453  18.581  13.369
45143W        W17568  27.016   6.484  13.413
45144W        W17569  10.583  21.592  14.400
45145W        W17570   5.278   3.763   0.675
45146W        W17571  32.996   2.269   0.513
45147W        W17572  14.237  35.884   3.574
45148W        W17573  40.448  30.540   1.220
45149W        W17574  14.746  16.642   3.375
45150W        W17575  17.167  25.690  10.386
45151W        W17576  28.966   8.871  11.623
45152W        W17577   3.416   7.486  12.047
45153W        W17578   8.364  44.545   2.376
45154W        W17579  37.598  30.370   2.296
45155W        W17580   6.891  37.324  12.416
45156W        W17581  18.204  11.855  11.612
45157W        W17582   0.983  10.689  13.363
45158W        W17583  10.245  10.065  11.603
45159W        W17584   4.648  16.833   2.318
45160W        W17585  26.829  32.964   5.269
45161W        W17586  24.565  24.148  14.920
45162W        W17587  39.126   9.149   4.169
45163W        W17588  15.361  38.410  12.578
45164W        W17589  40.602  23.929   4.295
45165W        W17590  31.333  19.064  13.287
45166W        W17591  17.010  35.034   0.802
45167W        W17592  19.183  25.636   4.408
45168W        W17593  27.712   6.211   3.356
45169W        W17594  39.421  15.242   2.645
45170W        W17595  15.353  10.803   2.354
45171W        W17596  37.858  15.055  12.990
45172W        W17597  41.750  14.744  14.245
45173W        W17598  22.646  20.507  14.556
45174W        W17599  25.025   0.407   2.641
45175W        W17600   1.104  27.167   3.818
45176W        W17601  32.018  31.916   1.381
45177W        W17602  41.509  42.931   0.394
45178W        W17603   6.585  32.179   5.069
45179W        W17604  22.525  11.223   2.836
45180W        W17605  17.502  40.802   3.454
45181W        W17606  12.974  15.435  13.278
45182W        W17607  36.268  42.493   4.001
45183W        W17608  30.176   6.910  11.239
45184W        W17609  35.249   4.093  14.895
45185W        W17610  29.532  19.416   4.046
45186W        W17611   2.018  19.545   3.236
45187W        W17612  28.683  29.587   4.766
45188W        W17613  35.363  26.212  14.391
45189W        W17614   5.002  41.808   1.426
45190W        W17615  43.452   6.466   3.202
45191W        W17616  20.652  41.877  12.917
45192W        W17617  34.489  30.191  14.040
45193W        W17618   6.482   3.334  10.433
45194W        W17619  42.945  36.343  11.521
45195W        W17620  30.213  14.924   0.244
45196W        W17621  27.461  24.973  14.873
45197W        W17622   3.451  15.144  14.768
45198W        W17623  22.682  40.744   2.721
45199W        W17624  34.272  10.267  14.329
45200W        W17625   7.112  44.013   4.084
45201W        W17626  37.454  17.521  14.223
45202W        W17627  26.623  11.785   5.060
45203W        W17628  39.420   8.028  14.942
45204W        W17629  31.461   3.722  13.891
45205W        W17630  44.535  22.667  12.651
45206W        W17631  40.341  16.732   3.732
45207W        W17632   1.726  28.512   0.971
45208W        W17633   9.076  36.905   0.711
45209W        W17634  17.095   1.127  12.635
45210W        W17635  23.316  30.918  11.985
45211W        W17636  24.335  28.319   1.231
45212W        W17637   7.344  41.431  13.398
45213W        W17638  28.619  24.934  12.441
45214W        W17639  21.205   8.746   0.419
45215W        W17640  23.711   7.331  11.422
45216W        W17641  25.958   7.811  13.004
45217W        W17642  29.126  12.077   4.582
45218W        W17643  21.747   5.474  13.479
45219W        W17644  42.448   2.441  10.711
45220W        W17645  16.969   3.897  11.008
45221W        W17646  41.900  43.448  10.041
45222W        W17647  24.035  41.375  11.150
45223W        W17648  43.917   7.855  13.443
45224W        W17649  35.464  30.109   1.712
45225W        W17650  38.077  24.733  10.165
45226W        W17651  11.150   9.658   3.375
45227W        W17652   4.383  34.152  10.062
45228W        W17653   2.316  23.043  12.432
45229W        W17654   9.787  24.977   1.931
45230W        W17655  31.548  38.988  10.105
45231W        W17656  21.376  23.111  12.032
45232W        W17657  16.727  35.937   3.194
45233W        W17658  16.563   4.157   4.615
45234W        W17659  34.108   6.965   1.828
45235W        W17660  17.793   8.281  11.673
45236W        W17661  37.954  26.924   4.884
45237W        W17662  21.907  29.010   2.290
45238W        W17663  43.214  23.562  13.045
45239W        W17664   3.049   7.857  12.068
45240W        W17665  33.016  32.468   2.766
45241W        W17666  42.286  33.536   2.324
45242W        W17667  14.072  23.286  14.974
45243W        W17668  38.047   8.696  10.561
45244W        W17669  36.152  34.077   4.096
45245W        W17670  39.443   7.911  12.371
45246W        W17671  13.740  34.446  11.829
45247W        W17672  38.733   4.164   3.854
45248W        W17673  35.594  32.892   4.162
45249W        W17674  23.256  40.106  13.502
45250W        W17675  39.500  20.052  14.825
45251W        W17676   2.827   6.155   0.913
45252W        W17677  28.520  41.133   2.329
45253W        W17678  35.839  12.551  14.312
45254W        W17679  43.812  35.155   0.839
45255W        W17680  19.186   1.862   9.975
45256W        W17681  20.475  41.488  13.401
45257W        W17682  44.132   1.883   3.316
45258W        W17683  41.236  25.973  13.712
45259W        W17684  30.005  20.271   1.784
45260W        W17685  22.756   7.611   2.330
45261W        W17686   4.300  38.965   1.816
45262W        W17687  15.639  17.976   1.764
45263W        W17688  42.339  43.589  11.647
45264W        W17689  24.103  29.379  13.526
45265W        W17690  43.688  18.502   0.758
45266W        W17691  41.268   8.811  11.124
45267W        W17692   1.427  38.575  14.197
45268W        W17693  34.342  31.424  10.405
45269W        W17694  22.200  10.459  13.333
45270W        W17695   8.105   5.757  14.563
45271W        W17696  37.554   5.334  14.473
45272W        W17697  25.012   0.144  13.598
45273W        W17698   7.806  43.556   1.845
45274W        W17699  35.524  26.491  14.837
45275W        W17700  30.443  21.993  11.141
45276W        W17701  32.640  32.952  12.728
45277W        W17702  28.276  38.416   1.652
45278W        W17703  42.378   6.749   4.096
45279W        W17704  12.107  30.467   0.562
45280W        W17705  34.884  26.444  12.835
45281W        W17706  35.963  41.403  12.042
45282W        W17707  36.993   7.381   2.221
45283W        W17708  40.988   6.118  14.012
45284W        W17709  40.378  11.899  14.389
45285W        W17710  16.650  22.318  13.411
45286W        W17711   0.839  11.777   0.918
45287W        W17712  37.139  20.746   1.886
45288W        W17713   1.186  28.664  13.885
45289W        W17714   3.561  25.202   4.543
45290W        W17715  26.743   0.286  13.525
45291W        W17716  15.578   7.747   3.832
45292W        W17717  26.843  11.128  13.303
45293W        W17718  41.154  41.407   3.135
45294W        W17719  23.919  12.120   0.843
45295W        W17720   7.107   5.839   3.437
45296W        W17721  20.904  18.786   0.523
45297W        W17722  23.636  37.818  13.173
45298W        W17723  28.879  28.542  13.351
45299W        W17724  16.499  26.921   3.274
45300W        W17725   5.450  36.694  14.821
45301W        W17726  42.041  11.698  11.890
45302W        W17727  33.412  15.571  13.095
45303W        W17728  35.489  17.118   2.837
45304W        W17729   1.790  15.540   3.829
45305W        W17730  34.344  36.001   4.440
45306W        W17731  22.650   4.014   2.309
45307W        W17732  22.008  20.543   1.694
45308W        W17733  36.656  26.194   0.333
45309W        W17734  42.972  39.323   0.242
45310W        W17735  41.932  28.605  13.892
45311W        W17736  21.490  39.037   2.992
45312W        W17737   1.377   8.608   0.932
45313W        W17738  44.329  37.804  11.454
45314W        W17739  18.417  17.602   2.797
45315W        W17740  24.172  22.115   2.422
45316W        W17741   2.893  17.129   0.866
45317W        W17742  37.380  33.629   1.757
45318W        W17743   0.939   2.826   2.242
45319W        W17744  43.747  39.072  12.770
45320W        W17745  35.400  17.671  14.874
45321W        W17746  23.127  41.849  14.521
45322W        W17747  34.602  29.737  14.268
45323W        W17748  23.321  41.387   0.419
45324W        W17749  26.422  28.279  11.086
45325W        W17750  10.340  37.955  14.530
45326W        W17751  27.489  44.947   3.418
45327W        W17752   6.191  33.383   4.890
45328W        W17753  40.722  33.768   2.743
45329W        W17754  18.942   7.281  13.501
45330W        W17755   8.402  13.819  14.876
45331W        W17756  30.181  17.046   5.452
45332W        W17757  15.553  15.872   0.404
45333W        W17758  17.257  30.753  13.401
45334W        W17759  29.548  30.178   1.276
45335W        W17760  30.214  15.738   2.820
45336W        W17761  40.958   1.035   3.717
45337W        W17762  25.519  11.271  13.247
45338W        W17763  18.127  34.589  11.554
45339W        W17764   2.762  28.971  11.058
45340W        W17765  34.826  35.156  11.129
45341W        W17766  41.288  41.321   0.363
45342W        W17767  42.263  44.820  10.596
45343W        W17768  40.485  23.134  11.187
45344W        W17769  31.575  34.891  12.513
45345W        W17770  17.238   1.968  14.523
45346W        W17771  10.760  40.818  11.164
45347W        W17772   7.593  37.426   5.012
45348W        W17773  41.867  35.384   0.037
45349W        W17774  41.540  32.449   3.694
45350W        W17775   6.864  37.052  11.966
45351W        W17776  35.375   9.070  12.862
45352W        W17777  32.475  25.758   4.141
45353W        W17778  21.600  15.170  12.053
45354W        W17779  20.864  22.146   0.273
45355W        W17780  13.891   1.875  13.244
45356W        W17781  13.814  23.233   1.763
45357W        W17782  15.195  21.047  14.959
45358W        W17783   1.805  44.452  13.532
45359W        W17784  32.933  39.331   1.849
45360W        W17785   9.605  16.298  10.389
45361W        W17786   7.681  33.590  12.181
45362W        W17787   0.829  11.631  13.456
45363W        W17788   7.085   9.880   3.168
45364W        W17789  11.378  22.010  10.836
45365W        W17790  22.906  39.450   2.355
45366W        W17791  28.080   1.383   2.395
45367W        W17792  36.084  10.597   1.209
45368W        W17793  37.433  35.283  14.416
45369W        W17794  40.938   1.944  11.468
45370W        W17795  29.145   4.949  14.470
45371W        W17796  31.512   4.249   4.577
45372W        W17797   9.723  20.163   0.851
45373W        W17798  36.647  30.940   0.325
45374W        W17799   2.821  32.415  10.785
45375W        W17800  27.871  38.330   0.345
45376W        W17801  44.761   9.585  10.871
45377W        W17802   1.312   8.633   3.701
45378W        W17803  14.729  30.442  14.022
45379W        W17804  42.248  14.846  14.291
45380W        W17805   3.912   1.411   3.993
45381W        W17806  33.478  23.361  13.905
45382W        W17807  44.349  19.816   4.399
45383W        W17808  43.367   7.193   2.595
45384W        W17809  37.661  11.892  12.754
45385W        W17810  31.111  16.096   3.743
45386W        W17811  10.711   0.441   0.742
45387W        W17812   3.721   9.126  11.491
45388W        W17813  44.845  13.006  11.032
45389W        W17814  43.761  13.733   3.191
45390W        W17815   7.751  19.435  14.935
45391W        W17816  14.466  37.871  12.057
45392W        W17817  30.088   5.867   1.934
45393W        W17818  42.212  40.232  13.605
45394W        W17819  29.112  41.294   3.544
45395W        W17820   7.616  44.881   0.323
45396W        W17821  39.833  36.489  12.810
45397W        W17822  31.194  22.120  11.635
45398W        W17823   0.740  38.384  11.585
45399W        W17824   0.873  16.371   2.745
45400W        W17825   3.791  24.178  13.816
45401W        W17826  22.266  24.591  13.578
45402W        W17827  15.586  13.058   4.498
45403W        W17828  29.721  16.557   1.181
45404W        W17829   0.789  44.982  12.187
45405W        W17830  22.086  37.878   2.960
45406W        W17831  41.394  27.626  10.471
45407W        W17832  35.565  41.866   0.971
45408W        W17833  22.012  43.228   0.239
45409W        W17834  16.336  36.523  11.189
45410W        W17835  38.592  29.628  13.901
45411W        W17836  38.761  35.665  12.100
45412W        W17837  26.690  32.652   4.669
45413W        W17838  27.448   1.487  11.151
45414W        W17839   6.516  16.841   3.817
45415W        W17840  34.845  41.265  12.547
45416W        W17841  25.090  39.373  11.255
45417W        W17842   9.900   5.905  14.159
45418W        W17843  24.912  17.635  14.484
45419W        W17844  20.753   3.003   5.070
45420W        W17845  39.622   6.816  10.630
45421W        W17846   5.263   5.255   4.193
45422W        W17847   9.984  12.407  11.661
45423W        W17848  24.444  27.496  14.833
45424W        W17849  26.018  16.438  11.898
45425W        W17850  37.502   2.922  13.512
45426W        W17851  12.770  34.526  12.831
45427W        W17852  22.266  11.333   3.297
45428W        W17853  15.392  24.384   0.186
45429W        W17854   2.223  16.167   3.404
45430W        W17855  22.478  17.251  14.462
45431W        W17856  13.590  19.682  12.166
45432W        W17857   7.343  34.802  14.271
45433W        W17858  11.390  15.242  11.668
45434W        W17859   2.525  22.571  14.471
45435W        W17860  44.179  44.894  12.145
45436W        W17861  35.221  42.926   4.175
45437W        W17862  40.290  32.657   4.292
45438W        W17863  12.722  32.416   0.383
45439W        W17864   1.920  37.597   0.037
45440W        W17865  44.801  23.643   5.352
45441W        W17866   5.619  34.612   2.487
45442W        W17867  42.460   0.337   4.836
45443W        W17868  34.152  43.524  14.993
45444W        W17869   1.204  21.073   1.809
45445W        W17870   3.726   0.768  10.905
45446W        W17871  13.329  19.532  13.391
45447W        W17872  44.741  40.404   3.883
45448W        W17873  43.601  19.521   0.479
45449W        W17874  19.000  25.204  13.947
45450W        W17875  14.861  36.877  12.838
45451W        W17876  18.135  42.551  13.857
45452W        W17877  29.061  35.517   4.076
45453W        W17878  23.095  16.271   0.302
45454W        W17879  35.531  40.499   3.754
45455W        W17880  31.596  12.706   4.711
45456W        W17881   1.346  26.883   4.155
45457W        W17882  21.159  19.293  11.966
45458W        W17883  24.709  13.532  12.074
45459W        W17884   0.590  41.973  14.914
45460W        W17885  43.937  10.295  12.145
45461W        W17886  12.189  14.750  10.727
45462W        W17887  22.743  24.613  10.757
45463W        W17888  31.808   3.433   2.749
45464W        W17889  35.058  10.787   3.813
45465W        W17890   9.803  22.078  10.420
45466W        W17891  28.100  30.007  14.926
45467W        W17892   2.976  43.382   1.747
45468W        W17893   7.709   7.762   4.303
45469W        W17894  24.018  42.908   3.133
45470W        W17895  16.037   3.441   3.669
45471W        W17896  20.800   4.215   3.265
45472W        W17897   4.656  18.907  12.581
45473W        W17898   2.549  13.790   4.079
45474W        W17899  43.304  35.511  14.793
45475W        W17900  19.468   9.688   4.634
45476W        W17901   5.909  16.322   1.685
45477W        W17902  39.074  27.551   0.598
45478W        W17903  12.314   2.610  14.087
45479W        W17904  18.652  11.065  14.914
45480W        W17905  28.666  26.223  10.728
45481W        W17906  28.188  33.195  13.331
45482W        W17907  12.779  22.564  10.532
45483W        W17908  24.116  35.848   2.267
45484W        W17909  42.796  30.782   5.051
45485W        W17910  40.530  40.034  10.776
45486W        W17911  13.881  24.717   5.186
45487W        W17912   6.120  20.830  11.839
45488W        W17913  43.742  38.636  12.471
45489W        W17914  24.976  14.029   0.247
45490W        W17915  37.897  20.619   1.467
45491W        W17916  33.717  13.809   2.208
45492W        W17917  17.643  40.317   3.672
45493W        W17918  11.203  42.479  14.378
45494W        W17919  17.742  22.923  11.666
45495W        W17920  11.194   0.201  12.999
45496W        W17921  19.101   8.652  11.633
45497W        W17922  23.072  34.422   0.198
45498W        W17923   9.182  17.275  12.820
45499W        W17924  35.558   1.832   3.128
45500W        W17925  11.224   8.458   2.681
45501W        W17926  37.537   8.273   3.944
45502W        W17927  20.004  35.950   2.758
45503W        W17928  15.656  36.561  10.743
45504W        W17929  19.514  12.747  11.492
45505W        W17930  31.564  36.156  14.003
45506W        W17931  41.152  21.117   2.227
45507W        W17932  32.983   7.857   3.550
45508W        W17933  20.877  40.952   0.409
45509W        W17934  31.886  23.232  12.729
45510W        W17935  10.978  21.122  10.236
45511W        W17936  31.571  43.185   3.249
45512W        W17937  20.698   8.297  10.971
45513W        W17938   2.848  29.859  12.883
45514W        W17939  10.964  20.670  11.498
45515W        W17940  21.547  16.598   3.595
45516W        W17941  21.809  15.020   0.798
45517W        W17942  10.290  23.928   3.053
45518W        W17943  17.702  23.527   4.568
45519W        W17944  15.295  20.346   3.256
45520W        W17945   4.696  21.930  12.614
45521W        W17946   4.014  38.386   1.745
45522W        W17947   2.763  11.346   0.042
45523W        W17948  41.248  11.389   0.801
45524W        W17949   4.758  18.477   3.104
45525W        W17950  35.506  21.604   3.589
45526W        W17951  23.326  37.916   4.102
45527W        W17952  20.131  17.728  12.712
45528W        W17953   4.260  23.640   1.337
45529W        W17954   8.928  34.374   2.794
45530W        W17955  11.381  40.846   1.674
45531W        W17956  35.940  18.358   0.550
45532W        W17957  43.082  39.914  10.312
45533W        W17958  33.634  29.069   1.225
45534W        W17959  31.637   5.822  14.288
45535W        W17960  11.953   1.190  10.635
45536W        W17961   1.022  33.063  10.654
45537W        W17962   6.542   4.889  14.038
45538W        W17963  22.538   6.239  12.961
45539W        W17964  31.655  41.053   3.081
45540W        W17965  20.769  15.218  13.328
45541W        W17966  30.191  34.550  12.987
45542W        W17967  42.888  16.502   3.528
45543W        W17968   7.920  21.319  10.181
45544W        W17969  28.091  13.122  13.463
45545W        W17970  41.478  33.206  14.874
45546W        W17971  18.117   2.222  10.068
45547W        W17972  41.355  30.895  10.992
45548W        W17973  13.828   3.755   1.223
45549W        W17974  10.353  37.291  13.909
45550W        W17975  43.215   7.565   3.560
45551W        W17976  27.225   1.032   3.373
45552W        W17977  19.224   1.806  10.924
45553W        W17978  13.854   8.859  10.780
45554W        W17979  32.578   0.722  12.029
45555W        W17980   4.874  27.844   1.478
45556W        W17981  31.529  13.153   3.752
45557W        W17982  20.232   7.214   4.118
45558W        W17983  30.773  18.295   3.791
45559W        W17984  14.308  34.104  14.806
45560W        W17985  38.254  41.404  14.356
45561W        W17986  24.378  12.230  14.681
45562W        W17987  20.676  26.613  12.946
45563W        W17988  15.862  13.765  13.939
45564W        W17989  44.374  43.284  10.627
45565W        W17990  34.195  39.655  13.875
45566W        W17991  23.466   7.262   3.407
45567W        W17992  26.113  29.639   2.850
45568W        W17993  15.194  36.460   1.261
45569W        W17994  30.161  18.148   2.378
45570W        W17995   1.432  38.076   2.044
45571W        W17996  22.958  12.303   0.089
45572W        W17997  39.567   9.703   1.206
45573W        W17998  30.926  26.930   1.014
45574W        W17999   7.772   8.739  10.182
45575W        W18000  16.182   9.729   2.255
45576W        W18001  35.876  43.367   2.202
45577W        W18002  25.129  34.114   0.756
45578W        W18003  23.753  14.218  13.848
45579W        W18004   0.004  30.949  14.486
45580W        W18005  22.181   4.711  12.883
45581W        W18006   0.243  37.204  13.386
45582W        W18007  33.121  23.206   3.128
45583W        W18008  38.941  27.995   0.358
45584W        W18009  32.835  37.956  10.777
45585W        W18010  11.325   3.500  13.390
45586W        W18011  19.780  10.915   0.747
45587W        W18012  30.984  32.758  14.109
45588W        W18013  42.313  25.831   2.342
45589W        W18014   3.338  39.462   5.006
45590W        W18015   7.272  14.839   3.125
45591W        W18016  10.181   4.138   3.909
45592W        W18017  19.139  44.020  13.504
45593W        W18018  39.122   9.564  11.673
45594W        W18019  22.656  17.266   3.696
45595W        W18020   7.029   4.755  12.072
45596W        W18021   0.763  21.020   0.289
45597W        W18022  37.577   6.963  13.373
45598W        W18023   8.549  27.132  13.922
45599W        W18024  35.649   9.817   3.359
45600W        W18025  27.599  12.896   4.289
45601W        W18026   0.090   0.788  12.006
45602W        W18027  26.712   7.720   0.067
45603W        W18028  22.691   2.468   2.148
45604W        W18029  38.856  36.644  12.104
45605W        W18030  20.242  22.684  13.306
45606W        W18031  31.603  37.086   4.475
45607W        W18032  22.533  21.131   2.710
45608W        W18033  30.319  10.349   4.098
45609W        W18034  22.623  37.353   2.438
45610W        W18035  24.718  38.511  14.352
45611W        W18036  16.702  21.989   3.267
45612W        W18037  35.960  14.071   2.385
45613W        W18038   1.818  33.623  10.600
45614W        W18039  20.298  19.827   2.336
45615W        W18040  16.274   2.200   3.400
45616W        W18041  42.006  18.482  11.356
45617W        W18042  29.515  14.379  12.200
45618W        W18043  20.892   4.458   2.176
45619W        W18044  29.915  12.358  14.373
45620W        W18045   0.545  37.787   4.052
45621W        W18046  33.180   6.789  14.293
45622W        W18047   3.263   2.363   2.250
45623W        W18048  32.139  36.092  11.206
45624W        W18049  14.584  14.617   2.270
45625W        W18050  34.088  18.769   2.719
45626W        W18051   9.432  30.111   4.168
45627W        W18052   6.755   9.577  13.918
45628W        W18053  43.115  21.187   2.520
45629W        W18054  11.615   6.832   3.757
45630W        W18055  26.200  19.665   1.195
45631W        W18056  27.816  34.481  12.045
45632W        W18057  21.074  31.463   3.222
45633W        W18058  21.251  29.105  10.793
45634W        W18059   2.268  33.443   3.094
45635W        W18060  22.504  12.301   1.776
45636W        W18061  31.046  11.767   4.532
45637W        W18062  20.757  43.742   3.634
45638W        W18063  43.224  29.611  11.153
45639W        W18064  32.149  24.165   4.994
45640W        W18065  18.581  18.589   4.938
45641W        W18066  16.847   1.240   1.711
45642W        W18067   9.052   0.006  10.742
45643W        W18068  14.729  16.817  11.672
45644W        W18069  27.220  28.705   2.257
45645W        W18070   9.820  26.529   3.676
45646W        W18071  40.376  12.275  12.832
45647W        W18072  23.848   3.384   3.507
45648W        W18073  21.604  18.611   1.928
45649W        W18074  30.064  26.133   3.313
45650W        W18075  22.729   1.807   0.366
45651W        W18076  29.218  29.530   1.252
45652W        W18077  15.653  27.492  14.447
45653W        W18078  19.140  29.592   2.583
45654W        W18079  40.284  44.963   0.705
45655W        W18080  41.165  27.126  10.663
45656W        W18081   1.345  29.893  11.978
45657W        W18082   8.975   5.322   9.823
45658W        W18083  41.477   1.765   2.456
45659W        W18084  34.579  38.031  14.398
45660W        W18085  42.349   1.910   0.388
45661W        W18086  16.557   8.313   2.304
45662W        W18087  41.348   1.994  14.427
45663W        W18088  31.684  27.064  11.102
45664W        W18089   0.831   0.953  10.743
45665W        W18090  23.941  37.406  11.098
45666W        W18091   8.151  10.239  14.248
45667W        W18092  36.178   3.947   3.658
45668W        W18093  25.160  12.838   4.120
45669W        W18094  18.190   5.240  11.109
45670W        W18095  11.220  25.468  13.935
45671W        W18096  17.206  43.526  11.514
45672W        W18097   2.746  15.828   1.288
45673W        W18098  42.752   9.386  11.959
45674W        W18099  11.105  39.505  12.539
45675W        W18100  37.909   9.390   3.600
45676W        W18101  22.080  30.632  13.993
45677W        W18102   6.584  20.671   4.899
45678W        W18103  34.675   0.933   1.785
45679W        W18104  29.368  26.696   3.164
45680W        W18105  41.546  22.683   2.369
45681W        W18106   5.937   3.931   3.239
45682W        W18107  36.226   3.699   4.577
45683W        W18108  36.020  25.893  14.486
45684W        W18109  27.464  27.249  14.427
45685W        W18110  41.107  25.002   3.432
45686W        W18111  44.218  11.598  14.841
45687W        W18112   9.175   8.870   3.757
45688W        W18113  26.168   6.440  13.831
45689W        W18114  13.305  12.192  13.405
45690W        W18115  14.588  40.606  13.874
45691W        W18116  32.190  35.749   1.596
45692W        W18117  13.757   4.227  13.160
45693W        W18118  43.920   3.338   1.353
45694W        W18119  42.788  34.899   3.685
45695W        W18120  21.090  25.264  14.605
45696W        W18121  29.540  37.863  11.635
45697W        W18122   6.637  43.661  13.369
45698W        W18123   9.332   7.639   3.177
45699W        W18124  20.639   8.919  14.229
45700W        W18125  30.216  20.684  12.610
45701W        W18126  26.969  29.730   2.148
45702W        W18127  29.636   5.769   1.191
45703W        W18128  30.131   5.309  11.165
45704W        W18129  20.784  26.241  14.554
45705W        W18130  26.639  13.980  13.889
45706W        W18131  25.425   1.897   2.112
45707W        W18132   1.481  41.322   0.860
45708W        W18133  20.798  42.502  13.358
45709W        W18134  43.852  34.007  12.914
45710W        W18135  37.461  24.599  11.870
45711W        W18136   2.219  17.272  11.207
45712W        W18137  34.411  33.169  11.112
45713W        W18138  44.422   8.215   0.841
45714W        W18139  33.859  27.706  13.953
45715W        W18140  14.792  35.189  11.046
45716W        W18141  36.338  20.691   0.494
45717W        W18142   9.158  17.643   0.217
45718W        W18143  44.454  41.830   2.916
45719W        W18144   3.644  15.677  11.467
45720W        W18145  31.927  31.122  14.884
45721W        W18146  42.808  26.537  13.351
45722W        W18147  11.876  40.368  10.461
45723W        W18148  21.245   8.881   5.397
45724W        W18149   8.839  32.444  10.716
45725W        W18150  26.298  41.409   1.364
45726W        W18151  21.375  15.775   0.809
45727W        W18152  14.791  21.750  10.261
45728W        W18153  34.462  33.085  14.791
45729W        W18154  24.651  37.373   3.255
45730W        W18155   3.743  40.940   0.737
45731W        W18156  44.234  15.925   1.918
45732W        W18157  18.483  36.153   2.779
45733W        W18158  27.478  40.001   3.655
45734W        W18159  39.752  12.137   1.418
45735W        W18160  15.181  24.542  10.002
45736W        W18161  41.236  15.090   3.274
45737W        W18162   1.473  22.019  14.988
45738W        W18163   2.668  25.091   2.776
45739W        W18164  26.589   7.664   5.095
45740W        W18165  37.034  21.437   3.629
45741W        W18166   7.097   0.085  13.039
45742W        W18167  13.731  41.431  14.304
45743W        W18168  14.526  16.213  12.814
45744W        W18169   5.847  25.634  12.498
45745W        W18170  22.909  32.833   0.063
45746W        W18171  23.901   0.764   1.964
45747W        W18172  38.937   6.032   2.785
45748W        W18173  28.717  19.835   3.982
45749W        W18174  17.742   4.405   0.022
45750W        W18175  38.580  42.949   2.751
45751W        W18176  23.694   0.168  11.956
45752W        W18177  37.400   5.371   2.761
45753W        W18178   4.735  44.410   0.301
45754W        W18179   2.779   2.736  13.453
45755W        W18180  26.760  18.129  14.000
45756W        W18181   6.849   5.018  14.961
45757W        W18182  40.874  21.612  12.101
45758W        W18183  37.433  14.423  12.609
45759W        W18184  14.622   4.125   1.324
45760W        W18185  32.089  40.971   4.601
45761W        W18186  25.430  33.902   0.386
45762W        W18187  22.094  28.130   3.631
45763W        W18188  14.103  30.446   4.631
45764W        W18189  19.259   8.693   3.343
45765W        W18190   2.312  22.365  10.704
45766W        W18191  16.236  44.925  11.537
45767W        W18192   1.211  12.691   0.487
45768W        W18193  15.837  31.104  11.158
45769W        W18194  39.795   3.817   0.760
45770W        W18195  24.965  22.053   3.285
45771W        W18196  43.899  29.267  14.557
45772W        W18197  25.861  12.366  14.271
45773W        W18198  14.593  12.212  12.975
45774W        W18199  36.032   9.919   3.696
45775W        W18200   8.526  10.397  12.391
45776W        W18201  18.062   6.475  12.088
45777W        W18202  31.411  13.083   2.353
45778W        W18203  31.883   2.703  12.980
45779W        W18204  40.850  23.935  13.494
45780W        W18205  21.825  39.286  13.774
45781W        W18206  18.134  15.135  11.050
45782W        W18207   4.788  36.684   4.522
45783W        W18208  37.720  19.792   0.220
45784W        W18209   6.247  11.238   2.570
45785W        W18210  27.523  17.943   0.504
45786W        W18211  33.897  18.286   5.388
45787W        W18212  31.471  17.673   2.704
45788W        W18213   1.674  24.226   3.660
45789W        W18214  30.984  25.101  12.418
45790W        W18215  15.449  28.086  14.305
45791W        W18216  26.479  28.413   0.162
45792W        W18217  42.798  10.516  14.005
45793W        W18218  31.370  21.156  10.741
45794W        W18219  18.464   9.424  10.682
45795W        W18220  19.240  39.531  14.932
45796W        W18221  16.150  16.733  12.382
45797W        W18222  37.068  18.136   3.396
45798W        W18223  15.165   3.273   2.805
45799W        W18224   7.914  30.730  13.420
45800W        W18225  38.106  43.500  13.969
45801W        W18226  14.209  23.767   1.361
45802W        W18227  26.056  20.484   4.708
45803W        W18228  26.986  42.190  10.741
45804W        W18229   0.714  13.308  12.001
45805W        W18230  15.381  15.896   4.939
45806W        W18231  36.154   3.947   2.180
45807W        W18232  22.649   2.662   0.406
45808W        W18233  23.564   1.567  13.671
45809W        W18234  36.572  18.795  13.907
45810W        W18235   0.264  39.145   0.471
45811W        W18236  27.147   1.822   1.475
45812W        W18237  12.358  22.809   4.488
45813W        W18238  21.990  44.804   3.884
45814W        W18239  15.880  19.129  11.988
45815W        W18240   1.925  22.579  11.922
45816W        W18241   3.414   6.780  11.382
45817W        W18242  33.093  35.308   3.182
45818W        W18243   4.425   9.130   3.074
45819W        W18244  28.588  16.762  12.473
45820W        W18245   6.388  21.036  13.190
45821W        W18246   2.392  40.421  12.996
45822W        W18247  16.803  33.216   4.108
45823W        W18248  24.490  34.581  12.641
45824W        W18249  29.545  29.327  12.303
45825W        W18250  14.634  35.609   3.802
45826W        W18251  21.669  42.456  11.895
45827W        W18252  24.430   3.292   1.454
45828W        W18253  25.071  14.327   2.736
45829W        W18254  42.521  30.635  14.341
45830W        W18255   9.741   1.340   4.638
45831W        W18256  30.694  11.167   4.585
45832W        W18257  42.444  13.204   2.835
45833W        W18258  20.531  43.369   4.600
45834W        W18259  43.991  41.587  12.920
45835W        W18260  40.584  19.538   4.216
45836W        W18261  20.916  41.779   5.023
45837W        W18262  30.484  14.846   1.448
45838W        W18263  35.980  21.508  12.026
45839W        W18264  44.638  19.741   3.474
45840W        W18265  29.961  35.840  14.743
45841W        W18266  40.883  22.909   4.147
45842W        W18267   3.781  21.221   1.924
45843W        W18268  37.035  25.951   2.725
45844W        W18269  23.606  15.196   4.827
45845W        W18270  28.561   8.595  14.425
45846W        W18271  26.949   8.185  14.879
45847W        W18272   1.847  12.049  11.647
45848W        W18273  33.837   2.832  10.684
45849W        W18274  11.915  12.782  14.510
45850W        W18275  10.923  35.961  13.807
45851W        W18276  25.072  11.588   2.874
45852W        W18277   0.715   6.009   2.642
45853W        W18278  40.510  28.588  13.605
45854W        W18279  21.341  16.502   2.379
45855W        W18280  13.598   7.853  10.742
45856W        W18281   2.381  18.745   3.205
45857W        W18282  43.120  20.625   1.802
45858W        W18283  22.417  17.038  13.612
45859W        W18284  44.029  21.424  14.953
45860W        W18285   5.519   0.394  13.044
45861W        W18286  12.836  10.602  14.956
45862W        W18287  26.114   8.169   3.738
45863W        W18288   0.056  29.309   1.033
45864W        W18289  19.686  31.800   4.037
45865W        W18290  21.960  39.454  12.825
45866W        W18291   9.852  41.030   2.227
45867W        W18292  35.728   6.398  14.567
45868W        W18293  38.868  30.476   2.030
45869W        W18294  25.630  32.515  14.953
45870W        W18295  24.564  10.340  10.207
45871W        W18296  22.010   5.796  12.502
45872W        W18297   1.940  34.021   0.339
45873W        W18298  43.974  39.445  12.488
45874W        W18299  40.904  31.106  10.872
45875W        W18300  16.507   5.529  10.500
45876W        W18301  19.132  11.567  11.006
45877W        W18302   0.798  31.168   3.229
45878W        W18303  20.619  25.094   3.988
45879W        W18304  22.070  37.332  13.810
45880W        W18305  42.413  23.110  10.949
45881W        W18306  17.297  39.340  14.724
45882W        W18307  43.698   9.143  12.052
45883W        W18308  30.590  11.074   3.732
45884W        W18309  37.609  43.081  13.284
45885W        W18310  43.289   0.248  11.227
45886W        W18311  17.183  38.792  12.399
45887W        W18312  42.425  18.191  13.490
45888W        W18313  12.366  24.268   3.233
45889W        W18314  28.925  17.996  14.773
45890W        W18315   4.473  21.677   4.147
45891W        W18316  30.098  18.813   4.654
45892W        W18317  11.193  22.969   4.124
45893W        W18318  44.336  27.875   1.298
45894W        W18319  36.459  32.072  11.463
45895W        W18320  33.921   1.841   1.332
45896W        W18321   7.970   4.729   0.478
45897W        W18322  43.861  30.187   0.242
45898W        W18323  38.828  33.069  11.004
45899W        W18324  30.457  35.575   0.370
45900W        W18325  33.184  43.903  11.523
45901W        W18326  35.884   8.704   0.990
45902W        W18327  14.833  11.482  10.622
45903W        W18328  28.352  26.455  11.090
45904W        W18329  18.079  39.211   4.498
45905W        W18330  12.916   7.434  14.436
45906W        W18331  33.562  33.896   2.158
45907W        W18332   6.436  35.775  14.008
45908W        W18333   0.457  40.368   0.963
45909W        W18334   4.258  41.083  11.871
45910W        W18335  22.590  10.208   2.797
45911W        W18336  10.337  33.364  11.454
45912W        W18337  34.297  13.153  14.992
45913W        W18338  40.482  23.453   2.830
45914W        W18339  19.681  41.251  14.230
45915W        W18340   5.988  18.758   0.882
45916W        W18341  22.644  23.516  13.937
45917W        W18342  15.036   5.427  13.072
45918W        W18343  32.113  19.326  12.668
45919W        W18344  22.045  28.799  11.024
45920W        W18345  17.195   9.792  14.764
45921W        W18346  27.975  16.540  14.254
45922W        W18347  40.382  26.529  11.126
45923W        W18348  34.846   5.012   3.235
45924W        W18349  11.744   6.692   1.483
45925W        W18350  10.558   2.204   0.291
45926W        W18351  44.401  36.468   3.751
45927W        W18352  25.554  17.482   4.384
45928W        W18353  43.566  42.614   5.131
45929W        W18354  33.537  17.100   9.679
45930W        W18355  14.304  15.153  11.465
45931W        W18356  43.436   2.707   1.843
45932W        W18357   5.449  33.378  14.845
45933W        W18358   1.492   5.159   0.299
45934W        W18359  24.599  36.456  14.287
45935W        W18360  38.011   4.844   1.357
45936W        W18361  12.631  25.697   4.167
45937W        W18362  13.500  13.088   1.705
45938W        W18363  42.076  40.378  11.985
45939W        W18364   2.162  34.805   4.686
45940W        W18365  11.261  43.005  11.185
45941W        W18366  31.415  20.053   3.729
45942W        W18367   8.424  23.215   2.715
45943W        W18368   0.531   3.498  12.468
45944W        W18369  29.116  14.094  12.841
45945W        W18370  16.042   1.112  11.453
45946W        W18371  36.920  40.284   4.135
45947W        W18372  10.173   6.678   3.789
45948W        W18373  43.296  16.728   0.928
45949W        W18374   7.202  44.352  14.262
45950W        W18375  15.247   4.652  13.327
45951W        W18376  35.444  12.686   4.014
45952W        W18377  20.940  42.946  11.632
45953W        W18378  34.050   8.637   0.365
45954W        W18379  41.829  33.368  13.018
45955W        W18380  35.786  29.529  13.504
45956W        W18381  27.861  31.999  13.049
45957W        W18382  38.507  37.114   2.800
45958W        W18383   6.453  26.740   3.045
45959W        W18384   5.481   9.289   2.316
45960W        W18385  18.402   0.258  10.130
45961W        W18386   9.204  27.468   1.769
45962W        W18387  34.980  43.343  13.453
45963W        W18388  25.927   0.010  14.783
45964W        W18389  14.773   4.827   2.896
45965W        W18390   0.981  24.608  12.025
45966W        W18391  23.513  37.846  12.153
45967W        W18392  10.719  31.527  11.419
45968W        W18393  35.848  16.938  12.642
45969W        W18394  18.724  44.420   3.411
45970W        W18395  34.473  14.063  10.836
45971W        W18396  29.953  21.680  11.839
45972W        W18397  31.094  38.744  10.736
45973W        W18398   9.323   8.524  10.650
45974W        W18399  31.138  41.472  13.404
45975W        W18400  12.158  21.698  14.344
45976W        W18401  13.059  19.310   2.683
45977W        W18402  27.110  35.111   4.475
45978W        W18403  32.770   4.045  13.457
45979W        W18404  38.257  24.507   4.599
45980W        W18405   2.971  17.577  13.855
45981W        W18406   5.783  36.111   0.209
45982W        W18407  29.415  11.875  12.106
45983W        W18408  40.474  36.026   2.499
45984W        W18409  35.827   0.624  11.151
45985W        W18410  29.144  39.330  12.351
45986W        W18411  21.269   0.198   3.192
45987W        W18412   0.525  26.922  10.918
45988W        W18413   1.390  11.632  11.060
45989W        W18414  31.322  21.187  13.469
45990W        W18415  37.624  43.842   3.626
45991W        W18416  41.330  37.881  12.542
45992W        W18417   0.142  12.301   2.746
45993W        W18418  26.255  35.796   3.365
45994W        W18419   6.486  38.039  11.976
45995W        W18420   5.991  42.955   2.861
45996W        W18421  17.451   9.064  10.577
45997W        W18422  26.414  44.307  13.846
45998W        W18423  39.588  42.200   3.732
45999W        W18424  23.632  22.708   4.719
46000W        W18425  35.843  23.132   5.554
46001W        W18426  11.180  39.808  12.099
46002W        W18427  15.119   2.769  11.991
46003W        W18428  24.061  33.357   1.310
46004W        W18429  30.126  43.673  11.163
46005W        W18430  36.491  20.038  13.089
46006W        W18431  25.014   9.868   1.220
46007W        W18432  37.839  34.708   4.468
46008W        W18433  25.516  39.719  11.264
46009W        W18434  10.795  29.927  13.489
46010W        W18435  12.829   2.726  10.692
46011W        W18436  27.601  35.312   4.785
46012W        W18437  41.504  21.705   2.344
46013W        W18438  25.602  12.753   1.860
46014W        W18439  16.044  32.008   2.702
46015W        W18440  14.376   1.108   0.711
46016W        W18441  32.776  44.381   4.157
46017W        W18442  32.869  37.437  12.525
46018W        W18443  29.112  22.566   0.691
46019W        W18444   0.821  32.594  10.553
46020W        W18445  13.352  38.417  12.593
46021W        W18446   2.219  26.072   3.320
46022W        W18447  19.960   0.310  13.615
46023W        W18448  32.146  19.395   2.824
46024W        W18449   6.148  43.318  12.514
46025W        W18450  30.946  16.074  10.999
46026W        W18451  17.269   3.025   1.689
46027W        W18452  39.419  36.880   2.760
46028W        W18453  23.054  32.813   3.127
46029W        W18454  20.138   5.357   1.354
46030W        W18455   3.421  25.301   2.401
46031W        W18456   6.159  23.498  10.394
46032W        W18457  24.788  17.639   3.395
46033W        W18458  38.506  41.798  14.084
46034W        W18459  24.727  42.289   0.494
46035W        W18460   7.940  27.045  12.523
46036W        W18461  27.035  10.590   0.880
46037W        W18462  25.752  21.790   4.117
46038W        W18463  22.204  17.534   1.273
46039W        W18464  40.296   5.130  10.781
46040W        W18465  12.283  39.262  11.132
46041W        W18466  24.919   4.057   4.313
46042W        W18467  38.383  28.451  12.034
46043W        W18468  33.817  40.878   2.336
46044W        W18469  15.531  28.971  12.493
46045W        W18470  30.962  30.967  11.434
46046W        W18471  22.185  38.926  14.588
46047W        W18472   6.344  13.815   4.380
46048W        W18473   9.822  44.487   1.833
46049W        W18474   2.199  18.876  11.728
46050W        W18475  15.000  10.745   1.848
46051W        W18476  30.359  40.407   2.291
46052W        W18477   1.221  38.371  12.503
46053W        W18478  19.827  34.347  10.652
46054W        W18479  43.344  36.625   4.227
46055W        W18480  39.949  17.628  13.840
46056W        W18481   8.825  39.996  12.544
46057W        W18482  26.710   5.373  12.079
46058W        W18483   8.971   2.330  13.862
46059W        W18484  42.323   2.305  13.726
46060W        W18485  24.646  39.002   2.364
46061W        W18486  30.612  34.653  13.313
46062W        W18487   7.193  16.268   2.319
46063W        W18488  28.846  22.694   2.184
46064W        W18489   8.837  29.037   0.834
46065W        W18490   5.798  41.252   1.137
46066W        W18491   3.877  30.871  12.914
46067W        W18492  33.016  40.118  11.063
46068W        W18493   1.851  20.137   3.240
46069W        W18494  33.278  29.716  13.909
46070W        W18495  40.075  38.993   3.922
46071W        W18496  25.682  30.045   0.861
46072W        W18497  39.304   4.940  13.675
46073W        W18498  42.357   8.313   1.054
46074W        W18499   5.413  25.131  11.124
46075W        W18500  11.834  38.112   4.138
46076W        W18501  16.128  12.390  13.925
46077W        W18502  43.406  17.221  12.600
46078W        W18503  44.392  43.916  11.811
46079W        W18504  34.952  15.760  10.656
46080W        W18505  30.384  12.711   2.733
46081W        W18506   3.291  41.344  13.452
46082W        W18507  44.096   4.350   4.295
46083W        W18508   2.563  36.662   0.749
46084W        W18509  26.947   0.521   1.275
46085W        W18510  19.913   9.436   4.020
46086W        W18511  41.292  31.206  11.770
46087W        W18512  22.566   8.496   4.872
46088W        W18513  11.788  30.632  12.133
46089W        W18514  38.751   0.923  14.746
46090W        W18515  33.450  12.090   2.871
46091W        W18516  12.345  30.084  11.469
46092W        W18517  38.328  14.127  12.410
46093W        W18518  42.885  15.866  12.996
46094W        W18519  26.247  15.665  12.560
46095W        W18520  33.463  10.449  14.032
46096W        W18521  37.358  30.183  10.836
46097W        W18522  15.737   0.471   4.614
46098W        W18523  11.850  30.322   2.875
46099W        W18524  13.144  40.925  14.214
46100W        W18525  18.344  38.127  10.506
46101W        W18526   7.982  18.265  12.788
46102W        W18527  26.900   6.150  12.030
46103W        W18528  16.738   6.977  13.790
46104W        W18529  23.189  34.968   4.102
46105W        W18530  25.686  42.836  11.676
46106W        W18531  12.209   7.347   4.001
46107W        W18532   6.558  27.098   0.545
46108W        W18533  43.459   5.611  11.529
46109W        W18534  41.047  25.934   3.627
46110W        W18535   8.798  30.388  13.218
46111W        W18536  15.522  38.813   0.228
46112W        W18537  26.972  27.612  11.404
46113W        W18538   6.842  21.070  12.436
46114W        W18539   0.876   1.799  13.822
46115W        W18540   1.388  29.049  12.914
46116W        W18541  34.324   7.762   0.915
46117W        W18542  24.493  43.945  12.136
46118W        W18543   2.678  34.980   0.288
46119W        W18544  30.171  31.613   0.356
46120W        W18545  24.791  23.820   4.092
46121W        W18546  41.064  42.500  11.443
46122W        W18547  10.277  19.772   9.829
46123W        W18548  21.835  10.475   0.303
46124W        W18549  16.803  12.381   0.917
46125W        W18550  42.738  28.431  14.999
46126W        W18551  20.735  31.437  14.768
46127W        W18552  20.150  23.197  13.372
46128W        W18553  34.387  39.801   2.237
46129W        W18554  35.500  28.217  13.471
46130W        W18555  30.129  28.941  11.723
46131W        W18556   1.388  25.108   3.291
46132W        W18557   7.513  34.181  10.642
46133W        W18558  39.896   8.614   1.843
46134W        W18559  32.474  17.682   1.102
46135W        W18560  40.446   0.678   2.843
46136W        W18561  17.746  43.797  12.821
46137W        W18562  33.224  26.219  10.513
46138W        W18563   8.633  27.625   4.078
46139W        W18564   5.271   2.375   2.754
46140W        W18565  30.957   4.040  13.024
46141W        W18566  36.844  27.194   0.424
46142W        W18567  43.132  34.982   4.518
46143W        W18568  29.027  39.614   4.354
46144W        W18569  16.118  17.239  14.533
46145W        W18570  42.009  34.980  10.717
46146W        W18571   4.881   6.506   0.973
46147W        W18572  30.954  16.279   5.619
46148W        W18573  18.507  14.560   3.643
46149W        W18574   0.220  41.041  11.567
46150W        W18575  36.061  13.871   0.414
46151W        W18576  32.326   6.933  11.303
46152W        W18577  19.057  11.371  14.810
46153W        W18578  25.209  29.151  14.800
46154W        W18579  28.378  19.796  11.542
46155W        W18580  34.917  17.670   0.954
46156W        W18581  15.732  13.100  10.438
46157W        W18582   8.715  21.676  13.021
46158W        W18583   0.867  25.652  11.074
46159W        W18584  17.274   1.818  10.304
46160W        W18585  38.932  34.529  10.908
46161W        W18586  20.016   0.005   1.833
46162W        W18587   6.263   4.493   1.767
46163W        W18588  20.123  44.809   4.499
46164W        W18589   3.384  22.078  12.851
46165W        W18590  40.556   9.793   0.262
46166W        W18591  17.936  28.204   3.328
46167W        W18592  41.448  13.686  14.893
46168W        W18593  35.988  12.128  11.938
46169W        W18594  33.967  44.846   1.890
46170W        W18595   8.654   2.765   4.039
46171W        W18596  34.763  35.455   3.227
46172W        W18597   5.286  22.799  13.573
46173W        W18598  12.258  10.906  11.233
46174W        W18599  39.258  42.470   9.785
46175W        W18600  33.648   6.016  14.127
46176W        W18601  13.674   7.335  14.918
46177W        W18602   9.607  44.929   4.559
46178W        W18603  39.884   6.467  11.504
46179W        W18604  17.665   5.655   3.303
46180W        W18605  16.042  12.215   3.306
46181W        W18606   5.987  15.014  14.974
46182W        W18607  42.926  34.218  12.496
46183W        W18608  14.811  23.064  10.591
46184W        W18609  26.415  21.725   2.672
46185W        W18610  39.972   9.434  13.354
46186W        W18611   3.910  18.559   1.796
46187W        W18612  44.836  20.635  13.064
46188W        W18613  43.099   4.411  10.767
46189W        W18614  37.945  41.452  12.466
46190W        W18615  36.040  30.448  13.460
46191W        W18616  38.927  12.874   3.200
46192W        W18617  36.052  43.344  14.946
46193W        W18618  37.845  37.935  13.944
46194W        W18619  43.028  43.140   2.764
46195W        W18620  11.707  39.416  12.438
46196W        W18621  23.605  17.248   1.656
46197W        W18622  29.543  21.495  12.975
46198W        W18623   2.338   1.111   2.283
46199W        W18624  33.164  35.920  12.444
46200W        W18625   4.413  10.106   2.338
46201W        W18626  36.042  39.542   3.144
46202W        W18627   4.898  28.112   1.951
46203W        W18628  27.870  11.167  13.463
46204W        W18629   4.251   5.848   3.856
46205W        W18630  16.641  44.947  14.838
46206W        W18631  28.000  42.881   2.124
46207W        W18632   2.034  26.019  11.956
46208W        W18633  18.582  39.352  14.803
46209W        W18634  27.163  24.936   0.553
46210W        W18635  17.985  32.920  10.239
46211W        W18636   4.200  25.095  12.494
46212W        W18637  37.959  17.587   2.588
46213W        W18638  44.314  23.083   0.646
46214W        W18639  42.546  11.718  11.682
46215W        W18640   6.154  14.201   3.696
46216W        W18641   5.641  24.051  13.098
46217W        W18642   0.220   5.257   2.378
46218W        W18643   5.941   6.807   1.656
46219W        W18644  22.178  32.135  13.542
46220W        W18645  13.205  18.349   1.890
46221W        W18646   1.261   9.615   0.725
46222W        W18647   6.341  19.450  11.058
46223W        W18648  12.211  14.744  11.587
46224W        W18649   1.916   5.437   0.313
46225W        W18650  16.558   4.721   0.262
46226W        W18651  37.286   6.860   4.165
46227W        W18652  28.262  41.008   4.295
46228W        W18653  18.664   3.530  13.048
46229W        W18654  12.259  19.661   0.314
46230W        W18655   0.158  21.415   4.085
46231W        W18656  42.963  33.505   3.793
46232W        W18657  13.107  19.725   1.915
46233W        W18658  20.702   4.703  12.974
46234W        W18659  31.608  30.441   2.401
46235W        W18660  12.632  25.286   3.814
46236W        W18661  24.517  42.394   4.508
46237W        W18662  44.252   3.336   5.064
46238W        W18663   5.361  17.048  13.354
46239W        W18664  25.671  10.497   0.353
46240W        W18665   7.881  32.626  14.802
46241W        W18666  29.493  33.171  11.184
46242W        W18667  17.870  20.274   2.198
46243W        W18668   7.069  30.605   3.583
46244W        W18669  18.046  27.523   4.551
46245W        W18670  24.078  36.546   4.213
46246W        W18671  23.638   1.920   1.320
46247W        W18672  39.002   3.992  11.146
46248W        W18673  30.890  16.208   4.294
46249W        W18674   5.007  29.091   4.533
46250W        W18675   6.332  29.927  12.421
46251W        W18676  38.275   8.621   3.236
46252W        W18677   9.158  24.569   0.282
46253W        W18678  15.875  43.768  11.559
46254W        W18679  44.968  11.337   0.489
46255W        W18680  29.490  19.440   2.753
46256W        W18681  15.630  30.868   0.828
46257W        W18682   7.149  17.635   3.589
46258W        W18683   2.726  30.778  13.516
46259W        W18684  11.375   7.963  13.923
46260W        W18685  38.894  38.740  14.124
46261W        W18686  13.193  24.361   9.791
46262W        W18687  16.770  26.139   0.227
46263W        W18688  33.865  11.160   2.402
46264W        W18689  23.525  13.715  11.574
46265W        W18690  14.108  31.234  11.881
46266W        W18691  27.559   6.782   1.290
46267W        W18692  41.778  42.379   9.963
46268W        W18693  20.136  26.366  14.663
46269W        W18694  30.677  37.269   4.201
46270W        W18695  28.320   3.274  12.573
46271W        W18696   5.568   4.229  14.383
46272W        W18697  39.809  11.633   1.017
46273W        W18698  10.774  27.667   1.890
46274W        W18699  10.296  21.678  12.070
46275W        W18700  38.798  25.618   0.018
46276W        W18701  33.975  21.760   1.207
46277W        W18702  20.343  25.053   4.671
46278W        W18703   1.067  40.116  14.339
46279W        W18704  41.299  17.230  13.234
46280W        W18705  12.583  23.997  13.050
46281W        W18706  43.428  34.048  12.564
46282W        W18707  34.022  35.542  11.016
46283W        W18708   9.147   8.605   4.193
46284W        W18709  20.564   8.346   0.490
46285W        W18710  19.698  15.312  14.952
46286W        W18711   3.898  29.724   2.933
46287W        W18712  36.958  15.574  12.014
46288W        W18713  32.621  34.319  12.075
46289W        W18714   4.515  34.861   1.351
46290W        W18715  27.021   8.607  12.845
46291W        W18716  28.924   1.775   2.890
46292W        W18717  37.447  11.532  11.388
46293W        W18718   9.786   8.698   1.619
46294W        W18719  31.084  36.345  13.987
46295W        W18720  12.078  20.040  11.135
46296W        W18721  15.713  41.572  10.581
46297W        W18722  29.208   4.273   2.772
46298W        W18723  15.304  41.556  12.993
46299W        W18724  41.440  31.278   3.263
46300W        W18725  31.945  30.779   0.295
46301W        W18726  15.089  26.700  14.709
46302W        W18727   5.785  28.875   4.844
46303W        W18728  34.830  31.560  10.559
46304W        W18729   4.976  21.812  14.736
46305W        W18730   7.646  28.964  12.602
46306W        W18731  27.485   2.592  11.932
46307W        W18732  17.303   7.415   0.418
46308W        W18733  44.367  36.418  12.693
46309W        W18734  43.534  28.135  14.690
46310W        W18735  36.436  42.039  13.178
46311W        W18736  30.657  20.329   2.745
46312W        W18737  14.734  21.185  13.625
46313W        W18738  44.840   7.242   1.765
46314W        W18739   6.882   8.395  11.744
46315W        W18740  39.250  20.114   4.082
46316W        W18741  44.329  36.906   0.848
46317W        W18742   9.295   5.147   0.340
46318W        W18743  30.226  43.125  12.673
46319W        W18744  37.471   4.416  11.657
46320W        W18745  43.972  26.731   3.963
46321W        W18746  38.632  20.339  11.293
46322W        W18747  44.801  27.555  14.022
46323W        W18748  33.884   7.735   4.778
46324W        W18749  22.017   9.327   3.696
46325W        W18750  43.807  29.394  11.223
46326W        W18751  44.268  21.609   2.326
46327W        W18752  15.847  40.757  13.506
46328W        W18753  23.301  18.673   4.348
46329W        W18754  43.667   2.465  12.913
46330W        W18755   5.922   3.411   3.192
46331W        W18756  30.732   7.787   3.372
46332W        W18757  15.494  42.530   3.735
46333W        W18758  44.821  20.306  13.545
46334W        W18759  27.946  11.906  11.124
46335W        W18760   1.220  36.467  12.954
46336W        W18761  38.501   3.940  10.920
46337W        W18762  26.427  11.045  11.579
46338W        W18763  19.295  37.928  11.572
46339W        W18764  17.408  41.181  10.846
46340W        W18765  13.168  24.470   5.670
46341W        W18766   7.029   9.920  14.346
46342W        W18767   1.449  13.818  13.311
46343W        W18768  14.078  18.573   2.803
46344W        W18769   3.783  34.870  11.343
46345W        W18770  23.427   9.032  11.478
46346W        W18771  44.455  17.645   0.923
46347W        W18772  41.918  36.438  10.669
46348W        W18773   3.854  10.285   4.020
46349W        W18774   0.927  27.082   4.810
46350W        W18775  18.652  16.964   4.366
46351W        W18776  42.469   6.294   1.844
46352W        W18777  32.955   4.198  11.872
46353W        W18778   6.742  38.123   2.644
46354W        W18779  41.797  14.054   2.601
46355W        W18780   6.968   7.774  11.091
46356W        W18781  18.164  18.383   3.264
46357W        W18782  39.753  38.532   4.702
46358W        W18783  14.360  44.899   1.203
46359W        W18784  40.025   2.495   0.789
46360W        W18785   6.770  10.867  11.084
46361W        W18786   9.195   6.746   1.843
46362W        W18787   5.191  24.370   3.632
46363W        W18788  38.419  25.461  14.678
46364W        W18789   7.338  36.247  11.713
46365W        W18790  24.924   9.854   3.604
46366W        W18791  12.197  44.769  11.169
46367W        W18792  12.568  14.175   4.527
46368W        W18793  37.542  21.121  11.068
46369W        W18794  10.114  37.106   3.620
46370W        W18795  21.357   9.342  13.042
46371W        W18796  18.999  30.963   2.211
46372W        W18797  24.958   6.298  14.908
46373W        W18798  34.419   8.031  14.814
46374W        W18799  32.374  32.612   4.092
46375W        W18800  15.317  32.981   2.225
46376W        W18801  41.773   3.208  13.301
46377W        W18802  19.043  34.605   2.772
46378W        W18803  33.306  23.541   2.710
46379W        W18804  39.282   4.272   4.628
46380W        W18805   4.045  21.095   1.417
46381W        W18806  39.556  41.491  11.641
46382W        W18807  28.260   7.823   0.511
46383W        W18808   0.435  33.004  14.280
46384W        W18809  22.055  15.433   4.640
46385W        W18810  44.320  30.720   2.278
46386W        W18811   8.640  20.178   3.217
46387W        W18812  18.330  39.790  10.997
46388W        W18813  35.613  11.107   1.019
46389W        W18814  31.594  28.122  13.571
46390W        W18815  21.985   3.677   4.608
46391W        W18816  28.545  33.323  14.740
46392W        W18817  19.755   9.113  11.207
46393W        W18818  17.740  19.211   0.801
46394W        W18819  31.852  43.153   1.437
46395W        W18820  44.657   2.629   1.521
46396W        W18821  37.510  28.708  12.676
46397W        W18822  13.086  21.939  10.655
46398W        W18823  18.561  12.163   0.303
46399W        W18824   9.359  23.206  12.135
46400W        W18825   2.241   0.187   3.307
46401W        W18826   6.126  18.580  13.760
46402W        W18827  21.630  23.069   1.977
46403W        W18828  36.803  25.026  11.471
46404W        W18829  26.782   6.876  12.520
46405W        W18830  37.572  13.940   4.268
46406W        W18831   8.313  33.380  14.386
46407W        W18832  10.386  34.141  14.237
46408W        W18833   0.228  39.825   2.284
46409W        W18834   1.777  29.630  10.707
46410W        W18835  24.568   3.811   2.257
46411W        W18836  30.060  44.879  11.927
46412W        W18837  38.461  12.836  12.473
46413W        W18838  19.062  24.487   0.945
46414W        W18839  29.225  42.321   1.757
46415W        W18840   3.830  25.490   2.694
46416W        W18841  33.940  11.466  12.511
46417W        W18842   0.312   7.191  12.414
46418W        W18843  40.064  40.588   4.937
46419W        W18844  10.791   2.014   4.499
46420W        W18845  35.594  31.180  11.655
46421W        W18846  18.873  15.184   1.178
46422W        W18847  21.585  33.965  13.551
46423W        W18848   3.760  34.450   2.334
46424W        W18849   9.340   5.503  12.968
46425W        W18850   7.761   8.225   4.493
46426W        W18851  40.907  37.836   0.998
46427W        W18852  15.235  12.760  12.011
46428W        W18853  40.585  16.551   1.355
46429W        W18854  44.290  10.302  13.427
46430W        W18855  26.290  28.125  13.857
46431W        W18856  12.124  31.501  13.762
46432W        W18857  44.333  41.459   2.592
46433W        W18858  12.084  23.825   2.407
46434W        W18859  30.122  31.611   4.735
46435W        W18860  36.067  33.646  10.674
46436W        W18861  31.147   3.773  14.848
46437W        W18862  15.569  35.010   5.160
46438W        W18863  25.202   5.031   1.379
46439W        W18864  39.286  12.883  14.413
46440W        W18865  37.237   8.284  10.427
46441W        W18866   6.294  42.421  12.000
46442W        W18867  12.891   9.099  13.199
46443W        W18868   3.198  20.036  14.394
46444W        W18869  22.822   9.738   2.781
46445W        W18870  44.316  14.862  14.910
46446W        W18871  19.584  21.225  13.338
46447W        W18872  32.262  43.056   2.785
46448W        W18873  34.895  36.632  12.512
46449W        W18874  38.750   5.825   0.921
46450W        W18875   1.989  37.592   2.797
46451W        W18876  32.027  15.139  13.937
46452W        W18877  19.677  41.622  10.565
46453W        W18878  36.102   1.610  14.933
46454W        W18879  10.896  18.162  11.565
46455W        W18880  29.943  21.808  12.815
46456W        W18881  15.572  29.708  11.233
46457W        W18882  22.656  16.323   1.406
46458W        W18883   7.215   0.807  14.345
46459W        W18884   5.642  44.647   0.313
46460W        W18885  22.182  31.030   3.235
46461W        W18886  35.019   1.217  13.127
46462W        W18887  30.569  15.385  14.336
46463W        W18888  41.512  27.375   1.782
46464W        W18889  29.548   7.984  11.041
46465W        W18890  10.269  39.485   2.643
46466W        W18891  24.973   4.386   0.835
46467W        W18892  30.169  19.585  13.827
46468W        W18893  38.484  22.030   5.075
46469W        W18894  42.498  26.813   3.089
46470W        W18895  37.392  30.025   3.493
46471W        W18896  12.207  31.749  13.019
46472W        W18897  42.482  17.613  11.006
46473W        W18898  44.915   4.832   2.357
46474W        W18899  27.073  16.682  11.520
46475W        W18900  10.632  32.866  11.375
46476W        W18901  23.749  32.890  12.857
46477W        W18902  38.032  25.256  11.057
46478W        W18903  16.958  37.557   3.606
46479W        W18904   7.621  20.721  14.492
46480W        W18905  16.018   7.706  11.574
46481W        W18906  24.685  40.233   1.415
46482W        W18907  38.620  40.562  13.352
46483W        W18908  19.269  28.704  14.876
46484W        W18909  33.804  10.825  14.105
46485W        W18910   2.201  41.325   4.266
46486W        W18911  25.245   6.601   0.239
46487W        W18912   9.446   7.216   1.824
46488W        W18913  24.109  38.041  13.923
46489W        W18914  21.342   3.246  14.846
46490W        W18915  36.537  43.430  10.807
46491W        W18916  30.518   0.250  13.176
46492W        W18917   9.172   5.751   2.796
46493W        W18918  21.982  37.352   1.196
46494W        W18919  17.524  19.073  14.415
46495W        W18920   5.194   4.988  11.678
46496W        W18921  33.760  32.352   3.345
46497W        W18922  15.007   5.858  11.937
46498W        W18923  23.205  23.017   1.136
46499W        W18924  15.370   3.383   1.396
46500W        W18925   3.949   3.792  14.758
46501W        W18926   8.379   1.778  10.703
46502W        W18927  23.067  19.063   1.436
46503W        W18928  23.285  21.179  12.058
46504W        W18929  37.996  32.129   3.195
46505W        W18930  34.872  12.583  14.008
46506W        W18931  25.950  31.912  10.671
46507W        W18932   6.469  13.923  13.870
46508W        W18933   1.476  43.455  11.207
46509W        W18934   6.790  17.817  12.571
46510W        W18935  16.894  15.510   2.766
46511W        W18936  26.052  10.869   0.462
46512W        W18937  20.765   8.082   3.080
46513W        W18938  22.784  12.267  14.285
46514W        W18939  37.897  33.544  10.380
46515W        W18940  36.938  39.856   5.052
46516W        W18941  16.861  44.245   2.357
46517W        W18942   4.947  42.223  14.290
46518W        W18943  18.027  42.957  14.759
46519W        W18944  14.314  24.309  14.860
46520W        W18945   3.960  18.111   0.883
46521W        W18946  42.061  18.519  10.859
46522W        W18947  32.690  20.008   5.090
46523W        W18948  35.189   2.247   3.693
46524W        W18949  11.381  20.218   4.176
46525W        W18950  44.993  27.139   2.589
46526W        W18951   6.716  30.007  14.505
46527W        W18952  33.642  27.178  14.728
46528W        W18953   7.301  36.772  10.218
46529W        W18954   9.891  43.360   4.698
46530W        W18955  37.957  17.529  11.595
46531W        W18956  14.097  15.563   0.766
46532W        W18957  10.119  17.209   2.676
46533W        W18958  42.744  31.939   3.144
46534W        W18959  16.792  30.435  14.887
46535W        W18960  11.146   2.987  14.749
46536W        W18961  21.185  32.553   0.348
46537W        W18962  33.059  32.285  11.133
46538W        W18963  15.519  31.865   3.592
46539W        W18964   4.749   4.476   0.880
46540W        W18965   0.921   8.745   5.045
46541W        W18966  35.301  22.099   4.917
46542W        W18967  38.439  42.724  13.871
46543W        W18968  33.482  37.301   1.269
46544W        W18969  26.712  15.829   0.975
46545W        W18970  35.296  33.617  13.122
46546W        W18971  22.541   8.664   0.885
46547W        W18972   0.057   7.184   2.282
46548W        W18973  14.782  31.715   2.316
46549W        W18974   6.139  36.621  12.456
46550W        W18975  43.497  20.796  13.125
46551W        W18976   3.017  19.235   4.115
46552W        W18977  16.331  36.095   1.381
46553W        W18978  31.883  20.251  11.039
46554W        W18979  14.744  10.306   0.536
46555W        W18980  38.576  36.820  14.479
46556W        W18981  21.530  37.251   3.729
46557W        W18982  44.326  31.346  12.143
46558W        W18983   7.231  18.116  13.484
46559W        W18984  26.572  12.061  11.471
46560W        W18985   0.941   9.874  12.249
46561W        W18986   4.727  40.233   0.246
46562W        W18987   8.336  33.295  11.716
46563W        W18988  22.795  18.625   4.424
46564W        W18989   2.753  40.538  11.851
46565W        W18990  25.091  18.534   0.214
46566W        W18991  31.419  31.221  13.044
46567W        W18992  23.216  27.421   4.370
46568W        W18993   4.137  38.946  13.890
46569W        W18994  41.447  40.317   0.261
46570W        W18995  44.219  17.193  13.740
46571W        W18996  36.243  10.788   1.667
46572W        W18997  11.874   0.439   2.939
46573W        W18998   3.197  25.612  10.815
46574W        W18999  14.310  31.853   1.336
46575W        W19000  32.921  27.727  11.584
46576W        W19001  40.468  12.038   1.731
46577W        W19002  39.631  13.052  14.029
46578W        W19003  23.173   0.816  10.819
46579W        W19004  22.396   4.921  13.450
46580W        W19005  35.173  13.304  10.641
46581W        W19006   8.966  42.483  11.840
46582W        W19007  42.986  44.326  12.193
46583W        W19008  13.685   7.961   1.120
46584W        W19009  30.846  36.000   0.229
46585W        W19010  38.817  11.301   1.790
46586W        W19011   7.586  16.143   1.363
46587W        W19012  34.325  41.585  13.092
46588W        W19013  12.593  31.047  12.242
46589W        W19014  10.509  30.142   2.253
46590W        W19015  24.237  10.040   2.274
46591W        W19016  20.548   4.441  11.177
46592W        W19017  40.027  41.904  14.809
46593W        W19018   3.862  31.580   1.297
46594W        W19019  11.002  22.721  13.945
46595W        W19020  10.596   3.776  13.730
46596W        W19021  35.277  34.088  11.884
46597W        W19022  14.759  15.351   4.600
46598W        W19023  44.502  13.249  14.328
46599W        W19024   6.222  27.496  12.485
46600W        W19025  36.500  28.254  14.841
46601W        W19026  33.012   1.996  14.875
46602W        W19027   3.401  29.762   3.103
46603W        W19028  36.639  23.619   4.548
46604W        W19029  24.459  28.142   4.684
46605W        W19030  23.840  20.041   3.707
46606W        W19031  21.039  37.061  10.487
46607W        W19032  19.547  19.804  13.330
46608W        W19033  29.584  41.318   3.301
46609W        W19034  16.742   3.888  11.537
46610W        W19035  19.277   9.131  11.605
46611W        W19036  20.730  30.108   4.356
46612W        W19037  36.132  20.696  11.562
46613W        W19038  16.720  21.561   2.602
46614W        W19039  19.684   1.065  14.367
46615W        W19040  35.147  40.630   1.447
46616W        W19041  34.568  19.146  12.992
46617W        W19042  37.400  30.565  11.193
46618W        W19043  42.272   6.531  14.479
46619W        W19044  28.175  29.472   1.190
46620W        W19045   2.524   9.053   5.247
46621W        W19046  24.660  14.384  11.618
46622W        W19047  41.911  20.177   1.892
46623W        W19048  14.313  25.192   3.086
46624W        W19049  44.301  43.539   0.272
46625W        W19050   2.407  18.358   5.158
46626W        W19051  33.078   5.853   3.701
46627W        W19052  26.165   3.397  12.883
46628W        W19053  28.713  34.676   3.123
46629W        W19054  14.905  27.604   2.324
46630W        W19055  16.079   2.834  12.182
46631W        W19056  15.242  19.610  13.050
46632W        W19057  41.317  35.407   2.691
46633W        W19058  35.378   8.392   3.268
46634W        W19059  22.507   5.195  13.950
46635W        W19060  37.018  23.148  11.014
46636W        W19061   9.328  26.221  14.397
46637W        W19062  34.063   2.736  14.883
46638W        W19063   9.095   9.919  10.857
46639W        W19064  20.007   7.016  12.853
46640W        W19065  16.709   2.351   5.076
46641W        W19066  11.158  27.013  12.049
46642W        W19067  33.632   0.482  10.742
46643W        W19068  12.776  38.816   3.610
46644W        W19069  36.969   7.888   4.957
46645W        W19070  18.211  18.462   2.281
46646W        W19071  44.850  40.364   3.357
46647W        W19072  43.984   8.274   3.812
46648W        W19073  37.147  35.013  13.377
46649W        W19074  21.244   2.090   2.922
46650W        W19075   8.175   0.316   3.268
46651W        W19076   3.354  42.064  11.893
46652W        W19077  16.960  41.895   4.299
46653W        W19078  34.151  34.619  14.998
46654W        W19079   8.233  40.022   0.247
46655W        W19080  19.028  17.436  11.373
46656W        W19081   8.133  19.925  13.296
46657W        W19082  16.061  37.225  11.128
46658W        W19083   9.677  43.748   1.019
46659W        W19084  40.858  24.774   1.174
46660W        W19085  32.310  31.129  12.998
46661W        W19086  28.286  35.943   2.426
46662W        W19087  18.233   6.641   1.335
46663W        W19088  14.161  37.969   3.668
46664W        W19089  23.820  42.067  12.833
46665W        W19090  43.609  15.766  14.934
46666W        W19091  29.873  39.105  10.798
46667W        W19092  21.571  25.738  10.738
46668W        W19093  14.117   4.764   1.670
46669W        W19094   1.685  32.155   0.827
46670W        W19095  42.649   3.250  11.967
46671W        W19096  26.977  21.788  11.381
46672W        W19097   3.707  36.222  12.157
46673W        W19098  14.222  17.632  11.190
46674W        W19099  23.589  43.396   1.885
46675W        W19100  31.489   2.263  13.446
46676W        W19101  39.394   2.317   2.096
46677W        W19102  34.062  39.438  11.865
46678W        W19103  10.432  18.660   1.217
46679W        W19104  18.585  16.576   1.180
46680W        W19105  25.041  22.660   1.749
46681W        W19106  32.993  38.457  11.096
46682W        W19107   4.302   8.784  10.394
46683W        W19108  39.757  36.497   2.773
46684W        W19109   2.715   6.694  12.471
46685W        W19110  37.621  33.193   0.868
46686W        W19111  27.478  30.686   4.481
46687W        W19112  29.341   8.471  11.026
46688W        W19113  24.526  12.253   4.444
46689W        W19114  34.449  24.472   3.512
46690W        W19115  13.532  19.500   2.697
46691W        W19116  41.003  15.091   4.293
46692W        W19117   8.046  37.483   0.351
46693W        W19118  29.898  15.963   2.118
46694W        W19119  25.018   2.875  12.364
46695W        W19120   0.570  22.825   0.862
46696W        W19121  14.747   3.968   2.895
46697W        W19122  23.970  29.021   3.330
46698W        W19123   6.870   9.521   4.767
46699W        W19124   4.952  42.496  14.761
46700W        W19125  21.175  42.250   2.767
46701W        W19126  33.968  19.291   2.490
46702W        W19127   3.959   4.963   4.603
46703W        W19128   8.144  43.379  11.911
46704W        W19129  12.781   5.293   1.916
46705W        W19130  12.748  35.378   2.444
46706W        W19131  15.283  35.035  12.950
46707W        W19132  12.539  15.736   2.650
46708W        W19133  43.835  18.731  13.370
46709W        W19134   0.510  43.328   2.425
46710W        W19135   3.418  32.058  12.450
46711W        W19136   5.525   6.250   3.738
46712W        W19137  42.049  37.603   4.067
46713W        W19138  10.783  23.260   4.066
46714W        W19139  21.595  11.831  13.387
46715W        W19140  30.885  37.893  13.906
46716W        W19141   0.339  10.612  12.517
46717W        W19142  38.293  11.935  11.063
46718W        W19143  11.330  32.384  11.098
46719W        W19144  33.565  19.678  11.372
46720W        W19145  22.273  13.339  11.529
46721W        W19146  39.842  20.221  12.127
46722W        W19147  31.626  17.612  11.472
46723W        W19148  36.098   0.474  12.139
46724W        W19149  24.089   6.794  11.943
46725W        W19150  22.281  30.995  13.027
46726W        W19151  20.837  35.915   0.506
46727W        W19152  10.708   6.034  11.592
46728W        W19153  25.517  24.013   3.322
46729W        W19154  38.889  42.087  14.387
46730W        W19155  15.538   3.357   4.605
46731W        W19156   3.821   1.591   2.628
46732W        W19157  29.922  32.183  10.363
46733W        W19158  11.604  25.094  11.466
46734W        W19159  36.932   0.456  10.517
46735W        W19160  24.274  38.607  14.944
46736W        W19161  41.024  10.387   2.717
46737W        W19162  34.865  38.972  14.224
46738W        W19163  20.216  30.910   3.623
46739W        W19164  16.620  29.967   1.191
46740W        W19165  32.518  23.566   1.640
46741W        W19166  32.311  12.636  10.586
46742W        W19167   4.463   3.417   0.540
46743W        W19168  24.204  44.833   2.878
46744W        W19169  31.607   4.884  13.225
46745W        W19170  31.952  41.408  12.909
46746W        W19171  39.808   3.188  12.101
46747W        W19172  36.770   1.772  12.893
46748W        W19173   6.825  17.687   2.798
46749W        W19174  28.266  31.345  11.584
46750W        W19175  43.651  41.127   3.508
46751W        W19176   5.457   5.444  12.460
46752W        W19177  39.847  13.180  10.766
46753W        W19178  12.360  33.991   2.192
46754W        W19179   1.984   7.419  12.971
46755W        W19180  14.676  12.708   1.288
46756W        W19181   1.890  18.066  12.818
46757W        W19182  38.900   2.818  14.249
46758W        W19183  19.028  27.768  13.902
46759W        W19184  34.932  14.167   1.457
46760W        W19185  11.330  16.856   1.841
46761W        W19186  31.135  32.524   0.463
46762W        W19187  10.559  26.103   2.704
46763W        W19188  33.732  10.720  14.983
46764W        W19189   1.270  34.847  14.735
46765W        W19190  25.072   4.932   4.153
46766W        W19191  32.820  10.773   1.663
46767W        W19192  36.445   7.091  10.637
46768W        W19193   1.771  16.830   4.563
46769W        W19194  42.745   2.734  11.996
46770W        W19195  31.582  24.567  12.096
46771W        W19196   0.870  32.327  11.012
46772W        W19197  21.647  38.948   4.228
46773W        W19198  34.081   0.552  11.048
46774W        W19199  16.760  26.402   1.414
46775W        W19200   0.661  26.018  13.073
46776W        W19201  42.345  35.341  13.482
46777W        W19202  20.884  38.658  11.523
46778W        W19203  40.504  17.325   1.677
46779W        W19204   6.312  27.725  12.990
46780W        W19205  15.519   1.353  13.825
46781W        W19206  21.239  28.625   2.756
46782W        W19207  11.995  33.592   1.856
46783W        W19208   1.431  23.779   3.688
46784W        W19209  44.938   7.369  11.159
46785W        W19210  11.714  14.364  11.179
46786W        W19211  43.643  44.479   2.776
46787W        W19212  33.668   7.780  10.269
46788W        W19213  33.906   8.528  12.533
46789W        W19214  39.805  36.873  11.074
46790W        W19215  16.166  39.943  14.557
46791W        W19216  31.594  31.146   0.443
46792W        W19217  29.833  28.357  10.336
46793W        W19218  43.895   1.926   0.523
46794W        W19219  12.399  38.893   2.671
46795W        W19220  23.510  26.212  14.890
46796W        W19221  16.265  44.704   0.501
46797W        W19222  37.509   0.454   4.048
46798W        W19223  29.083  21.660  11.341
46799W        W19224  31.542  18.555  14.087
46800W        W19225   9.268  42.054   1.867
46801W        W19226  18.202  38.789   4.218
46802W        W19227   5.352  35.067   0.489
46803W        W19228  23.685  37.363   4.856
46804W        W19229   8.419  31.998  11.596
46805W        W19230   0.457  26.935   2.588
46806W        W19231  31.005   0.912  10.645
46807W        W19232  19.830  32.827   2.896
46808W        W19233  11.297  10.681   0.354
46809W        W19234  29.750  24.993  13.186
46810W        W19235  14.466  25.634  12.646
46811W        W19236  25.501  19.060   1.362
46812W        W19237  18.158  17.306   5.037
46813W        W19238   7.307   2.859   0.211
46814W        W19239  32.151  43.423   1.802
46815W        W19240  26.469  21.648   1.191
46816W        W19241  10.556   6.274   1.432
46817W        W19242  43.286  13.583  14.326
46818W        W19243  44.891  39.036  12.601
46819W        W19244  25.926   7.797  10.473
46820W        W19245  14.235  28.783   2.308
46821W        W19246  17.583  35.801   4.157
46822W        W19247  28.642  18.761  13.534
46823W        W19248  14.186  39.747   1.382
46824W        W19249   8.875  40.115  11.650
46825W        W19250  42.018  39.424   4.086
46826W        W19251  19.240  44.390   1.242
46827W        W19252  16.453   4.972  10.470
46828W        W19253   6.171  35.238   2.175
46829W        W19254  31.690   4.296   0.426
46830W        W19255  23.805   2.121   0.872
46831W        W19256  20.537   5.900  12.419
46832W        W19257  33.493  39.434  13.043
46833W        W19258  15.423   3.653   1.881
46834W        W19259  31.165  27.409   0.911
46835W        W19260   2.321  38.158  13.387
46836W        W19261   0.316  14.744   2.228
46837W        W19262  38.820  36.014  12.511
46838W        W19263   4.347  10.002   0.492
46839W        W19264   0.826  35.801  10.413
46840W        W19265  17.274  18.180   3.375
46841W        W19266  34.499  39.013  13.454
46842W        W19267  15.595  36.502  12.863
46843W        W19268   7.773  14.886  14.762
46844W        W19269   6.465   2.316   4.678
46845W        W19270  37.548  30.025  13.353
46846W        W19271   9.869  40.010   0.349
46847W        W19272  24.585  11.259  14.823
46848W        W19273  16.234   8.041  12.008
46849W        W19274  15.121  13.202   0.030
46850W        W19275  32.955  42.096  14.420
46851W        W19276   4.636  23.992   0.766
46852W        W19277  19.122  21.163   1.056
46853W        W19278  19.569  44.045  13.843
46854W        W19279  36.500   9.721   3.806
46855W        W19280   5.238   4.490   1.784
46856W        W19281  12.372  37.779  12.767
46857W        W19282   0.561  37.137  12.418
46858W        W19283  25.606  33.306  11.646
46859W        W19284  43.635  33.696  10.248
46860W        W19285   9.762  27.122   4.378
46861W        W19286  30.436   9.271  10.936
46862W        W19287  21.104  27.949  13.123
46863W        W19288   5.588  29.517   3.171
46864W        W19289   1.284  25.764  11.584
46865W        W19290  20.561   4.516  14.403
46866W        W19291  30.194   0.274  12.658
46867W        W19292  21.222  34.480   1.862
46868W        W19293  33.380  18.274  11.516
46869W        W19294  26.966   9.634  12.886
46870W        W19295  41.021  23.714  11.165
46871W        W19296  40.083  37.398   0.937
46872W        W19297  19.295  32.409  11.127
46873W        W19298  40.767  35.427   3.731
46874W        W19299  37.450  14.284   4.672
46875W        W19300  39.739   3.852  14.434
46876W        W19301  33.674   7.930   3.977
46877W        W19302  28.677  32.295   1.386
46878W        W19303  10.613   1.408  14.182
46879W        W19304  44.786  11.118  12.584
46880W        W19305  13.547   7.004   0.437
46881W        W19306  14.590  19.978   0.383
46882W        W19307  28.633  31.877   3.872
46883W        W19308  24.115  23.898   3.669
46884W        W19309  31.541   1.729   3.329
46885W        W19310   3.515  21.005   2.338
46886W        W19311  29.146  19.062   2.492
46887W        W19312   3.448  13.256  11.937
46888W        W19313  23.928  32.471  11.537
46889W        W19314  16.793  34.981  14.417
46890W        W19315  30.167  27.080   3.075
46891W        W19316   2.027  38.527  12.020
46892W        W19317  18.601  39.830   1.631
46893W        W19318  40.049   7.427  14.357
46894W        W19319  25.734   4.690  10.296
46895W        W19320  19.268   5.941   4.698
46896W        W19321  13.817  39.564   3.755
46897W        W19322   9.287  37.660  14.826
46898W        W19323  43.793  40.710  13.319
46899W        W19324   4.720  17.342   5.146
46900W        W19325  31.280  42.658  11.475
46901W        W19326  12.419   4.116  13.029
46902W        W19327   9.163   8.716  12.399
46903W        W19328  15.874  36.030   1.673
46904W        W19329  28.686  17.647   1.317
46905W        W19330   1.942  16.302  11.136
46906W        W19331  28.197  41.304   0.372
46907W        W19332  13.639  20.299   0.446
46908W        W19333  13.361  36.883   3.187
46909W        W19334  19.646  29.680  10.677
46910W        W19335  11.962  25.291  10.586
46911W        W19336   4.364  17.183  12.443
46912W        W19337  30.944  40.772   0.373
46913W        W19338  22.770  33.989   0.222
46914W        W19339  40.977   8.192  13.900
46915W        W19340  23.603  31.532  14.552
46916W        W19341  36.518  18.716   2.875
46917W        W19342   5.723   1.370   3.573
46918W        W19343   9.502  18.417  13.327
46919W        W19344   5.502  27.999  12.466
46920W        W19345  10.738  27.202   2.838
46921W        W19346   7.258  14.474  13.693
46922W        W19347  44.430  12.737  14.027
46923W        W19348  15.703  15.480   5.267
46924W        W19349  42.716  21.462   4.643
46925W        W19350  30.653  33.390   3.355
46926W        W19351  22.003  14.804   0.218
46927W        W19352  41.481   1.513   1.986
46928W        W19353  12.124  28.959  14.956
46929W        W19354  16.578  35.991   0.866
46930W        W19355  28.209   1.716  14.819
46931W        W19356  31.213  37.906  13.057
46932W        W19357  39.877  24.611   1.686
46933W        W19358  17.125   8.666  13.824
46934W        W19359  14.681   8.386  14.789
46935W        W19360   9.781  14.200   0.960
46936W        W19361  32.667  22.939   4.251
46937W        W19362  30.507  21.089  12.834
46938W        W19363  29.027  22.671   4.675
46939W        W19364   4.403  22.445  14.810
46940W        W19365  18.710  37.658   0.238
46941W        W19366  36.731  19.557   1.795
46942W        W19367  34.444  29.256  14.328
46943W        W19368   0.935  36.936  11.008
46944W        W19369  10.674  36.350  12.386
46945W        W19370  39.044  13.154   2.780
46946W        W19371   0.246  12.557   4.967
46947W        W19372  16.522  27.725  14.994
46948W        W19373  32.587  16.770   1.238
46949W        W19374   7.711  33.591  14.326
46950W        W19375  42.931  37.314   4.616
46951W        W19376   8.804   6.378  12.376
46952W        W19377  35.125  30.009   4.508
46953W        W19378   4.382  20.101   0.878
46954W        W19379  18.805  30.027   2.870
46955W        W19380  18.176  11.226   2.833
46956W        W19381  26.707  25.618   2.333
46957W        W19382  27.933  35.387  13.885
46958W        W19383   9.944   6.917   0.755
46959W        W19384  30.569  30.585   9.930
46960W        W19385  44.380  14.903   1.831
46961W        W19386  33.154  17.745  13.200
46962W        W19387  22.479  34.565   2.868
46963W        W19388  27.433  44.709   2.172
46964W        W19389  38.040  18.945   4.554
46965W        W19390  10.658  24.745  14.579
46966W        W19391  38.353  44.796   2.856
46967W        W19392   5.225  16.816  14.369
46968W        W19393  41.915  33.138  12.499
46969W        W19394  42.387  39.556  13.891
46970W        W19395  14.933  20.209   3.616
46971W        W19396  20.656  40.603   1.408
46972W        W19397  38.638  19.829  11.181
46973W        W19398   2.925  42.230  13.370
46974W        W19399  19.949  44.764   2.712
46975W        W19400  24.913  27.077  14.377
46976W        W19401  35.855  37.475  11.653
46977W        W19402  37.877  31.822   0.769
46978W        W19403  16.159  18.152   1.961
46979W        W19404   3.465  38.722  13.513
46980W        W19405  12.756   4.245  10.713
46981W        W19406   3.361  29.062   0.582
46982W        W19407  42.605  26.198  11.190
46983W        W19408  38.787  22.230   0.934
46984W        W19409  37.869   9.621  12.693
46985W        W19410   9.296   9.712  11.869
46986W        W19411   4.140  20.233  14.325
46987W        W19412  38.558  43.765  14.779
46988W        W19413  12.988  34.666  14.372
46989W        W19414  11.019   8.338   1.316
46990W        W19415  25.772  38.385  12.495
46991W        W19416  17.744   0.477  14.991
46992W        W19417  16.307  42.630  11.213
46993W        W19418   0.644  36.793   3.204
46994W        W19419  37.637  28.136   0.824
46995W        W19420   2.518   1.770  14.481
46996W        W19421  39.750  30.339   4.899
46997W        W19422   3.876  15.249  12.876
46998W        W19423  29.009  22.273  14.870
46999W        W19424  26.604  43.297  11.411
47000W        W19425  16.560  29.429  12.190
47001W        W19426  22.141  44.921  12.294
47002W        W19427  39.698  37.127  12.534
47003W        W19428  22.673  16.561   0.482
47004W        W19429  35.364  14.784   4.082
47005W        W19430   5.908  23.702   1.652
47006W        W19431  26.192  14.424   0.326
47007W        W19432  32.425   2.362   0.301
47008W        W19433   1.517  42.394  13.369
47009W        W19434   9.013  33.993   3.302
47010W        W19435  20.820  25.558  11.538
47011W        W19436  35.461  33.580   4.849
47012W        W19437  23.044  38.137  13.140
47013W        W19438   5.286  31.116  14.048
47014W        W19439  43.982   5.596  11.609
47015W        W19440  30.559  11.123   2.754
47016W        W19441   8.162  17.203   4.858
47017W        W19442  31.266  35.058   0.291
47018W        W19443  38.894   3.454  11.138
47019W        W19444  20.742  19.195   0.812
47020W        W19445  29.671  13.303  14.537
47021W        W19446  17.100   4.483  11.886
47022W        W19447  16.614  14.101  14.860
47023W        W19448  35.278  41.059  10.669
47024W        W19449   4.196  39.329   2.788
47025W        W19450  23.693  28.956   2.528
47026W        W19451  26.941   4.716   1.383
47027W        W19452  33.343   5.929  12.943
47028W        W19453  21.141   1.208  13.530
47029W        W19454  32.487  39.989  11.723
47030W        W19455  14.050  30.204  12.268
47031W        W19456  36.163  30.559   2.471
47032W        W19457  36.943  40.083  12.562
47033W        W19458  28.208  18.731  12.792
47034W        W19459   1.765  36.154  14.916
47035W        W19460  10.712  20.144  10.497
47036W        W19461  11.664   4.463  13.417
47037W        W19462   9.604  38.769   4.108
47038W        W19463   2.787  24.486  13.054
47039W        W19464   3.477  37.992   3.684
47040W        W19465  31.391  33.188   4.889
47041W        W19466  21.722  43.053  10.542
47042W        W19467  35.912  39.793  12.333
47043W        W19468  17.977  23.533  14.086
47044W        W19469  26.696  28.953   0.232
47045W        W19470  33.867  39.050   0.540
47046W        W19471  38.091  32.510  14.584
47047W        W19472  24.678  43.488  11.949
47048W        W19473   1.414  20.984   0.241
47049W        W19474   0.435  13.707  11.657
47050W        W19475  19.715  41.656   0.455
47051W        W19476   5.128  18.325  14.704
47052W        W19477  28.453   3.452   0.986
47053W        W19478  34.875  29.523  11.979
47054W        W19479  18.635  10.279  11.155
47055W        W19480  33.214  17.051   4.210
47056W        W19481   0.734  10.404  12.953
47057W        W19482  24.711   2.439  11.399
47058W        W19483  15.215  18.065   3.691
47059W        W19484  42.393  20.133   5.061
47060W        W19485   6.833  15.118   1.146
47061W        W19486  23.009  28.005  11.153
47062W        W19487  36.357  36.456  13.906
47063W        W19488  16.663   7.257   4.571
47064W        W19489  10.829  27.417  13.956
47065W        W19490  32.652  27.865   3.621
47066W        W19491  41.045   9.059  11.625
47067W        W19492  10.898  39.314  11.037
47068W        W19493  28.209  32.382   1.176
47069W        W19494  31.566  35.291   4.308
47070W        W19495  39.591  12.849  13.111
47071W        W19496   2.277   4.494   4.663
47072W        W19497  18.786  18.429  10.268
47073W        W19498  17.383  17.072  10.805
47074W        W19499   9.520  34.651   3.539
47075W        W19500  14.917   4.134   1.809
47076W        W19501  16.806   1.765   4.145
47077W        W19502   7.829  19.172   3.745
47078W        W19503  41.115  10.395  11.851
47079W        W19504  13.821  25.118   3.916
47080W        W19505  28.833  35.226   0.706
47081W        W19506  29.218  15.726   3.639
47082W        W19507   2.359  36.382   4.657
47083W        W19508   0.253  42.386   0.335
47084W        W19509  40.414  22.204  10.640
47085W        W19510  12.721  10.816   1.407
47086W        W19511   4.146  11.248   0.285
47087W        W19512  27.019  10.645  12.511
47088W        W19513   2.720  33.557  13.971
47089W        W19514   2.753   8.739  14.130
47090W        W19515  17.632   3.007  14.840
47091W        W19516  33.883  40.530  12.078
47092W        W19517  14.107  21.001  13.580
47093W        W19518  33.571  41.207   0.887
47094W        W19519  17.601   3.493  11.724
47095W        W19520  20.285  10.121  13.528
47096W        W19521   3.229   5.840   0.999
47097W        W19522  15.076  24.607   1.332
47098W        W19523  24.000  27.514  11.966
47099W        W19524  26.998  22.541  12.926
47100W        W19525  12.408  33.328  11.666
47101W        W19526  15.638   4.338   3.253
47102W        W19527   4.266  24.682  14.253
47103W        W19528  43.809  36.325  11.005
47104W        W19529  29.039  20.097   4.487
47105W        W19530  14.829  34.978   1.153
47106W        W19531   2.399  15.064  11.652
47107W        W19532  38.564  34.328  13.831
47108W        W19533  33.436  42.393   1.456
47109W        W19534   8.701   9.657  14.790
47110W        W19535  17.893  32.543  14.018
47111W        W19536  20.103   6.469   4.723
47112W        W19537   4.895  27.151  10.677
47113W        W19538  31.482  24.188  11.772
47114W        W19539  20.232  25.210  10.616
47115W        W19540  39.550   8.977   1.704
47116W        W19541  37.381  36.463  13.529
47117W        W19542  13.528  17.636  10.574
47118W        W19543  18.622  41.049  13.317
47119W        W19544  27.122  38.078  12.122
47120W        W19545  34.710  19.698   4.023
47121W        W19546  43.512  34.934   4.873
47122W        W19547  18.098   8.702   1.025
47123W        W19548  24.092  37.263  11.566
47124W        W19549  44.517   0.523  14.249
47125W        W19550  32.897  21.218  13.409
47126W        W19551  29.524  11.542  11.147
47127W        W19552  14.190   0.410   4.527
47128W        W19553  31.397  42.484   4.176
47129W        W19554  26.806  25.786  12.901
47130W        W19555  31.003  31.148   4.595
47131W        W19556   6.076   1.006   0.843
47132W        W19557  44.827  10.888   0.712
47133W        W19558  43.707  23.603   1.405
47134W        W19559  18.620  20.777  14.397
47135W        W19560  22.546  12.960  12.011
47136W        W19561  10.159  40.935  10.902
47137W        W19562   9.228  38.732   3.200
47138W        W19563  33.612  35.578   4.588
47139W        W19564  18.836   1.618  14.685
47140W        W19565  17.058  37.813   2.331
47141W        W19566  28.579   1.762   3.732
47142W        W19567   3.469   0.014  13.029
47143W        W19568  10.395  43.306   1.767
47144W        W19569  25.625  44.844   4.734
47145W        W19570   6.394  43.962  14.459
47146W        W19571  44.487  18.342   4.184
47147W        W19572  34.464  37.344  10.339
47148W        W19573   2.367  34.150  12.574
47149W        W19574   1.999  21.615  14.397
47150W        W19575   6.687  20.772  14.558
47151W        W19576  10.136  36.806   0.728
47152W        W19577  12.155  41.153  14.020
47153W        W19578  18.084   5.088  12.424
47154W        W19579  31.115  33.402   0.643
47155W        W19580  36.685  13.710   1.259
47156W        W19581  17.285   9.923  12.039
47157W        W19582   8.196  36.600  10.293
47158W        W19583  41.324   0.420   0.930
47159W        W19584  40.396  43.969  14.715
47160W        W19585  22.426   7.273   0.753
47161W        W19586  43.028  20.522  14.888
47162W        W19587  10.340  31.617   0.977
47163W        W19588  40.296   4.968  12.097
47164W        W19589   7.446  23.634   0.769
47165W        W19590  26.734  16.677   3.706
47166W        W19591  14.706  28.466  14.135
47167W        W19592   3.490   6.303   2.848
47168W        W19593  40.316  18.508  13.764
47169W        W19594  32.136  13.259  10.431
47170W        W19595  18.673  16.201   3.658
47171W        W19596  37.641   2.319  13.927
47172W        W19597   9.643  20.068   1.844
47173W        W19598   0.956  17.151   4.312
47174W        W19599   8.687  34.244   0.720
47175W        W19600  16.406  25.731   1.707
47176W        W19601  32.533  15.146  13.734
47177W        W19602  26.620   1.808  13.434
47178W        W19603  10.947  33.568   3.685
47179W        W19604  40.369  39.474  11.459
47180W        W19605   8.020  29.190  10.838
47181W        W19606  14.861  36.658  11.117
47182W        W19607  39.950   5.647  11.128
47183W        W19608  18.121   6.287  14.422
47184W        W19609   9.426  11.836   0.365
47185W        W19610  36.033  19.755  11.928
47186W        W19611  22.516  25.488  14.382
47187W        W19612  29.538  12.369  12.001
47188W        W19613  17.084  20.013   1.389
47189W        W19614  28.612  14.278  10.738
47190W        W19615   9.331  36.413  12.017
47191W        W19616  32.287  12.606   2.416
47192W        W19617  21.774  23.102   3.700
47193W        W19618   7.303  29.885  11.023
47194W        W19619  30.873  19.697  10.604
47195W        W19620  26.834  40.806   4.581
47196W        W19621  26.146   6.373  11.545
47197W        W19622  15.174   8.124   1.781
47198W        W19623  30.441   4.863  14.069
47199W        W19624   2.269  38.390   0.859
47200W        W19625  18.564  42.899  14.812
47201W        W19626  17.775  11.732   1.766
47202W        W19627  38.824  44.134  14.223
47203W        W19628  11.262  31.756   3.792
47204W        W19629  38.364  26.199   3.818
47205W        W19630   9.163  19.620   3.882
47206W        W19631  18.774  21.632   4.356
47207W        W19632  12.276  34.815  10.760
47208W        W19633  29.940  36.642  14.847
47209W        W19634   4.935  25.313  11.406
47210W        W19635  14.629  18.768   3.890
47211W        W19636   7.829  29.278   3.383
47212W        W19637   2.188  30.433  14.935
47213W        W19638  23.791  22.881   0.375
47214W        W19639  11.759  38.636   9.953
47215W        W19640  26.044  31.561  14.337
47216W        W19641  20.883   1.453  11.124
47217W        W19642  35.136  29.154  11.675
47218W        W19643  32.748  16.402  14.284
47219W        W19644   0.604  35.805   1.454
47220W        W19645  27.282   2.849   2.347
47221W        W19646  22.824  41.080  14.952
47222W        W19647  17.098  11.714  13.432
47223W        W19648  13.821  31.352  10.895
47224W        W19649  15.432  43.502  11.591
47225W        W19650  15.196  28.340   2.294
47226W        W19651  19.886  15.018  13.463
47227W        W19652  28.711  41.760   1.088
47228W        W19653  39.364   8.448  14.084
47229W        W19654  18.281   1.247   3.821
47230W        W19655  15.591  39.454   4.273
47231W        W19656  22.659   0.924   4.169
47232W        W19657  37.413  21.820  11.105
47233W        W19658  26.226  23.215   1.365
47234W        W19659   3.958  44.477  13.712
47235W        W19660  18.951   7.421   2.408
47236W        W19661   9.904  17.605   4.211
47237W        W19662  37.433  16.261   1.753
47238W        W19663  21.422  37.505   0.549
47239W        W19664   9.180  42.874  11.571
47240W        W19665  31.024  31.394   1.964
47241W        W19666   0.228   4.318   0.932
47242W        W19667   6.606  31.533   4.266
47243W        W19668   2.642   5.035   3.687
47244W        W19669  39.787   7.830   0.294
47245W        W19670  27.673  36.510  14.999
47246W        W19671  15.455  34.883   1.790
47247W        W19672   6.458  29.688   1.160
47248W        W19673  20.548  19.648  13.118
47249W        W19674  24.738  18.550   4.198
47250W        W19675   9.695  41.218  13.909
47251W        W19676  24.962   2.157   1.994
47252W        W19677  20.521  40.351  10.779
47253W        W19678  29.190  13.208  12.496
47254W        W19679  28.253  41.478  12.577
47255W        W19680  20.398  17.389  10.936
47256W        W19681  19.663  36.539   4.500
47257W        W19682   9.865   3.063   1.229
47258W        W19683  38.043  38.433  12.007
47259W        W19684  11.680  15.906   2.565
47260W        W19685  17.077  30.066   9.603
47261W        W19686  22.707  19.806   3.279
47262W        W19687  25.888  41.728  12.575
47263W        W19688   7.234  22.587  10.754
47264W        W19689  18.304  24.658  13.130
47265W        W19690  35.806  20.792   3.333
47266W        W19691  38.917  33.834   3.774
47267W        W19692   1.268  39.392  10.296
47268W        W19693  27.431   4.777  11.002
47269W        W19694  29.256  42.312   3.533
47270W        W19695  40.253  42.517   1.931
47271W        W19696  19.337  13.598   3.483
47272W        W19697   3.019  15.032  11.313
47273W        W19698  10.768  34.956  14.348
47274W        W19699  44.197  32.568   3.110
47275W        W19700   4.681   0.459  14.264
47276W        W19701   6.161  35.501   0.263
47277W        W19702   6.261  15.534   1.662
47278W        W19703  32.070  29.474  10.580
47279W        W19704   3.481   5.430   3.782
47280W        W19705  16.769  14.660  14.423
47281W        W19706  25.099   7.645   1.922
47282W        W19707  22.010  26.212   2.382
47283W        W19708   3.461  31.522   3.910
47284W        W19709  26.483   6.304   4.509
47285W        W19710  24.900   1.920  12.530
47286W        W19711  28.381  32.549  12.063
47287W        W19712  15.091  21.725   1.888
47288W        W19713  20.728  12.783   3.804
47289W        W19714  21.081  37.110  11.476
47290W        W19715  35.164  24.545  11.854
47291W        W19716   3.930  41.026   2.337
47292W        W19717  33.643  22.447   0.736
47293W        W19718   5.448  44.306   0.942
47294W        W19719  42.205  25.114   4.274
47295W        W19720  29.659  44.762   2.221
47296W        W19721   6.717   9.845   2.776
47297W        W19722   1.981  11.146   3.304
47298W        W19723  28.077  21.604  13.516
47299W        W19724  36.927  21.206   3.168
47300W        W19725  19.926  15.278  13.019
47301W        W19726  28.156  18.312   4.664
47302W        W19727  30.015  16.984   1.289
47303W        W19728  18.626  41.911   3.236
47304W        W19729  27.797  36.010   3.725
47305W        W19730  32.094  14.135   1.292
47306W        W19731  17.531   1.321  12.427
47307W        W19732  15.394  17.246   1.190
47308W        W19733   3.405  38.481   4.726
47309W        W19734  22.267   3.835  10.629
47310W        W19735  35.456  23.658  14.456
47311W        W19736  13.397   9.843   3.736
47312W        W19737  31.549   0.964   2.810
47313W        W19738  19.784  42.329   2.706
47314W        W19739   0.457  43.452  12.491
47315W        W19740  16.702  26.112   0.750
47316W        W19741  14.445   2.849   1.935
47317W        W19742  25.379  38.023   1.874
47318W        W19743  12.239  28.486   3.420
47319W        W19744  21.705  21.779  12.693
47320W        W19745  36.400   6.299   0.823
47321W        W19746   2.212   7.228   3.318
47322W        W19747  42.399  32.902  12.427
47323W        W19748  32.610  18.460  13.823
47324W        W19749  40.376  21.285   4.584
47325W        W19750  33.449  44.318  12.316
47326W        W19751  28.015   3.968  11.606
47327W        W19752  40.702  37.687   1.872
47328W        W19753  19.302  15.680  13.523
47329W        W19754  38.794  36.446   1.846
47330W        W19755  26.720  32.709  12.760
47331W        W19756  17.980  22.976  10.383
47332W        W19757  41.762  35.680   0.447
47333W        W19758  10.827  29.619   3.834
47334W        W19759  29.672   5.588  14.774
47335W        W19760  34.146   1.586   0.386
47336W        W19761   8.142  21.121  10.674
47337W        W19762  40.520   3.921   2.418
47338W        W19763  42.508  12.797   3.627
47339W        W19764  37.832  40.919   1.928
47340W        W19765  18.630   4.570  13.967
47341W        W19766   7.930  18.336   2.754
47342W        W19767   4.728  39.331  13.544
47343W        W19768  38.958  17.861   4.321
47344W        W19769  43.430  36.100   3.569
47345W        W19770  11.720  36.882  10.822
47346W        W19771  37.944  28.648   3.336
47347W        W19772  43.689  28.736   4.919
47348W        W19773  22.308  39.508  13.767
47349W        W19774  29.215  37.882  13.395
47350W        W19775  44.998  19.108  13.023
47351W        W19776  40.440   2.477   1.109
47352W        W19777  43.523  40.435  11.334
47353W        W19778  26.406  40.961   1.697
47354W        W19779   6.805  28.061   2.822
47355W        W19780  18.570  43.386  13.564
47356W        W19781  16.116  30.013   3.528
47357W        W19782  44.764  23.738  10.759
47358W        W19783   5.530  13.301   1.437
47359W        W19784  27.520  10.913  13.745
47360W        W19785  20.893  34.985  13.628
47361W        W19786   1.275  27.540   1.301
47362W        W19787   8.945  15.747  13.604
47363W        W19788  32.646  13.043   1.310
47364W        W19789  18.195  36.836  12.597
47365W        W19790   5.890   8.421  14.359
47366W        W19791  42.047   8.977   4.550
47367W        W19792  43.086  30.595  12.077
47368W        W19793  29.239  31.812   4.319
47369W        W19794  41.463   2.842  10.727
47370W        W19795  33.628  22.005  14.889
47371W        W19796  11.692  36.065  11.459
47372W        W19797  25.997  14.130   1.474
47373W        W19798  12.348  18.615   2.361
47374W        W19799   2.006  33.926   1.286
47375W        W19800  30.722  39.268  13.115
47376W        W19801  31.855  22.045   0.383
47377W        W19802   7.404  23.713  14.431
47378W        W19803  13.237  33.479  12.955
47379W        W19804  20.704  41.066  14.846
47380W        W19805  35.569  35.086   2.241
47381W        W19806  24.744  37.484   2.226
47382W        W19807   5.381  12.556  14.193
47383W        W19808  24.785  38.843   3.301
47384W        W19809   9.723  37.175   1.373
47385W        W19810  29.129   9.769  10.706
47386W        W19811  20.719   0.192   4.052
47387W        W19812  22.154  18.672  12.724
47388W        W19813  22.945  36.634  11.072
47389W        W19814  14.910  15.068   3.252
47390W        W19815  41.352  40.057  14.789
47391W        W19816  26.975  43.124  14.522
47392W        W19817  14.346  30.678   3.305
47393W        W19818  10.438  19.524   2.841
47394W        W19819  19.909  28.441   3.802
47395W        W19820  40.919  34.054   1.396
47396W        W19821   9.383   9.167  12.477
47397W        W19822  33.584  40.253  10.791
47398W        W19823  27.632  28.497  12.341
47399W        W19824  31.126  32.619  14.574
47400W        W19825  25.524  15.084   0.813
47401W        W19826   0.474   6.688  12.488
47402W        W19827  37.563  17.894  11.256
47403W        W19828   8.540   2.241   2.393
47404W        W19829   1.271  12.425  13.403
47405W        W19830   8.670   4.693  11.554
47406W        W19831   6.765  35.483   1.138
47407W        W19832  40.760  10.262   1.308
47408W        W19833  29.620   2.399   3.716
47409W        W19834  37.530  31.794   3.290
47410W        W19835  36.765  27.487  14.254
47411W        W19836  27.905   6.217   0.993
47412W        W19837   9.365  14.881   2.837
47413W        W19838  39.388  15.628   0.216
47414W        W19839  17.120  32.337   1.931
47415W        W19840  19.523   9.686   0.145
47416W        W19841  15.719  44.770  12.964
47417W        W19842  11.062  20.999  14.477
47418W        W19843  39.842  43.716  11.002
47419W        W19844  32.739  19.183   1.174
47420W        W19845  33.051  37.911  11.778
47421W        W19846  21.632  43.545   0.555
47422W        W19847  23.684  25.762   2.709
47423W        W19848  22.276  42.233   4.098
47424W        W19849  19.521   8.449   1.227
47425W        W19850   0.964  37.941   2.339
47426W        W19851  18.868  43.288  13.984
47427W        W19852  14.487  29.455  13.865
47428W        W19853  15.668  28.552   3.257
47429W        W19854  38.730  20.190   4.035
47430W        W19855   3.336  41.109  12.019
47431W        W19856  32.086  39.293  11.644
47432W        W19857  18.239  30.737  10.619
47433W        W19858  19.506  14.520  12.597
47434W        W19859  16.201  11.107   0.426
47435W        W19860  30.285  35.026   2.600
47436W        W19861  30.455  32.895   4.730
47437W        W19862  31.081  18.502  14.335
47438W        W19863   6.890   6.091   0.967
47439W        W19864  24.768  22.256  11.480
47440W        W19865   2.353  13.612  12.668
47441W        W19866  23.739   2.164  14.465
47442W        W19867  35.403  44.937  10.515
47443W        W19868  41.446   6.563  11.670
47444W        W19869  20.562  29.462   3.747
47445W        W19870  21.290  23.089   4.669
47446W        W19871  42.576  29.407   1.219
47447W        W19872  37.956  35.890   0.490
47448W        W19873  20.635  13.302  11.057
47449W        W19874  15.552   2.053   3.769
47450W        W19875   4.142   9.159   0.786
47451W        W19876  31.916  37.352   1.803
47452W        W19877  34.932  14.205  11.081
47453W        W19878  23.599  29.162  13.920
47454W        W19879  28.890  41.952  12.500
47455W        W19880   7.127   0.197   0.678
47456W        W19881  33.964  36.049   1.873
47457W        W19882  29.994   1.238  12.335
47458W        W19883  23.742  23.629  10.703
47459W        W19884  18.816  34.949  14.519
47460W        W19885  38.933   3.970   1.013
47461W        W19886  23.254  13.533  13.050
47462W        W19887   3.861  31.498   2.199
47463W        W19888   2.893  13.239   0.258
47464W        W19889  14.222  37.272  11.277
47465W        W19890   6.260   5.113  10.768
47466W        W19891  17.113  30.014   3.655
47467W        W19892  21.304   9.237   0.507
47468W        W19893   6.778  11.667  12.865
47469W        W19894  39.892   4.378  11.663
47470W        W19895   6.600  24.546   0.118
47471W        W19896  13.521  25.786  14.314
47472W        W19897   2.486   2.463  11.059
47473W        W19898  33.446  44.920  14.552
47474W        W19899   8.693  38.015   5.576
47475W        W19900  44.378  35.520   1.545
47476W        W19901  18.100  41.979   4.059
47477W        W19902  29.978  43.003   3.296
47478W        W19903   6.782  22.687   1.691
47479W        W19904  42.674  23.364  11.303
47480W        W19905  21.701  37.509   2.358
47481W        W19906  14.047  43.875   2.317
47482W        W19907  15.077   9.551   2.794
47483W        W19908   4.718  17.203  11.864
47484W        W19909  14.361  19.198  14.338
47485W        W19910   6.671  33.099  11.868
47486W        W19911  38.235  38.840  14.868
47487W        W19912  25.971   8.603   0.739
47488W        W19913  17.224  13.018   4.063
47489W        W19914   8.922   5.280   2.659
47490W        W19915   7.593  12.185   0.718
47491W        W19916  40.263  16.139   1.411
47492W        W19917  29.080  32.393  13.415
47493W        W19918  26.021  19.713   1.687
47494W        W19919  22.485  35.918  13.004
47495W        W19920  26.300  18.411  12.368
47496W        W19921  12.310   0.844   2.893
47497W        W19922  41.989   1.476  12.615
47498W        W19923  29.075   7.436  10.409
47499W        W19924   0.628   3.229   2.312
47500W        W19925   1.897  37.644  12.665
47501W        W19926   0.770  34.718   4.816
47502W        W19927  26.983   6.952  10.884
47503W        W19928  39.867  22.720  10.713
47504W        W19929  12.886  19.341   2.173
47505W        W19930  16.913  15.012  11.976
47506W        W19931   9.779  27.346   2.119
47507W        W19932  22.267  28.033  12.896
47508W        W19933  18.114   1.259  10.205
47509W        W19934  14.055  27.106   1.377
47510W        W19935  31.647   7.310   3.254
47511W        W19936  38.045   5.170  12.601
47512W        W19937  15.657  30.863  14.269
47513W        W19938   9.301  28.035  14.984
47514W        W19939  40.812   9.352  12.013
47515W        W19940  27.449  13.628  11.534
47516W        W19941  20.987  31.875   0.413
47517W        W19942  16.302   3.272   0.022
47518W        W19943  44.379  23.935   3.631
47519W        W19944  18.763  10.277   0.517
47520W        W19945  32.126  29.673  12.122
47521W        W19946   7.754   3.883  11.514
47522W        W19947  14.244   1.463   4.231
47523W        W19948  38.025  36.653  14.328
47524W        W19949  27.340  34.873   4.872
47525W        W19950  35.530  29.148  12.014
47526W        W19951   5.197   0.841   2.777
47527W        W19952  23.875  11.367  14.030
47528W        W19953  35.926  16.074   4.652
47529W        W19954  35.883  42.152   4.122
47530W        W19955  43.809  36.604   2.935
47531W        W19956  30.639  14.475   0.485
47532W        W19957  27.206  15.892   1.860
47533W        W19958  16.102  24.937   3.958
47534W        W19959   5.214  35.975   0.945
47535W        W19960  34.109  17.972   4.161
47536W        W19961  42.747  42.152   3.813
47537W        W19962  29.591  18.894   1.942
47538W        W19963   4.180  44.416   3.694
47539W        W19964   5.639  19.024   3.152
47540W        W19965   6.216   8.702   2.697
47541W        W19966  29.706  39.412   0.997
47542W        W19967  25.179  21.021   2.842
47543W        W19968  13.710  40.958  12.509
47544W        W19969  28.210  41.474  10.428
47545W        W19970  33.957  42.658   1.243
47546W        W19971  41.270  43.350  14.500
47547W        W19972  18.346   6.029   1.551
47548W        W19973   2.497  11.241  14.546
47549W        W19974  40.245  34.405  10.435
47550W        W19975  13.677   6.389  13.678
47551W        W19976  10.119   5.265  12.430
47552W        W19977  14.753  36.585   0.963
47553W        W19978   1.355  35.311   3.653
47554W        W19979  25.387   9.337  13.839
47555W        W19980  40.817   8.800  12.031
47556W        W19981  30.447  37.626  14.929
47557W        W19982  15.682   5.631  10.678
47558W        W19983  18.977  26.074   1.892
47559W        W19984  36.013  40.493  11.835
47560W        W19985  41.848   0.588   4.600
47561W        W19986  10.183   0.499   1.431
47562W        W19987  22.285  38.335  11.975
47563W        W19988   3.693  44.046   2.775
47564W        W19989  17.519  27.873  14.809
47565W        W19990   1.479   6.136  10.691
47566W        W19991  13.753   4.817   4.747
47567W        W19992  10.360   2.953   0.357
47568W        W19993  22.542   1.759   0.864
47569W        W19994  22.024  28.498  12.564
47570W        W19995  32.205  31.034  13.985
47571W        W19996  22.923  39.492  12.489
47572W        W19997  19.216  32.565  14.315
47573W        W19998   8.707  10.305  12.855
47574W        W19999  20.371  18.268   0.740
47575W        W20000   5.217  41.742  10.721
47576W        W20001  10.933  44.412   2.718
47577W        W20002  20.225  32.487  14.489
47578W        W20003  10.364   6.915  13.763
47579W        W20004   3.351  36.623  12.487
47580W        W20005  44.360  40.044  10.226
47581W        W20006  15.270  17.165  13.872
47582W        W20007  23.490  36.074   1.407
47583W        W20008   5.160  15.627   3.560
47584W        W20009  11.223  14.017   4.697
47585W        W20010  11.071  35.593  12.107
47586W        W20011   5.816  25.499  13.452
47587W        W20012  23.456   3.219   3.095
47588W        W20013  33.798   3.070   3.208
47589W        W20014  18.667   5.798  12.432
47590W        W20015   0.667   3.757   3.352
47591W        W20016  19.533  38.989  11.439
47592W        W20017   0.957  40.479  12.467
47593W        W20018  20.496  44.656  12.619
47594W        W20019   4.555  16.540  14.824
47595W        W20020  35.979   9.918  10.858
47596W        W20021   1.240  32.420   0.509
47597W        W20022  23.826   9.397   4.197
47598W        W20023  19.495  34.083  12.800
47599W        W20024  40.798  25.258  11.144
47600W        W20025   1.663  24.257   3.141
47601W        W20026  34.533  23.254   3.312
47602W        W20027  23.986  42.615   0.783
47603W        W20028  26.476   6.270   2.741
47604W        W20029  40.223  29.303  12.816
47605W        W20030  12.239   5.937   0.792
47606W        W20031  28.275   7.454  11.529
47607W        W20032  16.597   3.630   3.741
47608W        W20033  23.633  42.017  10.567
47609W        W20034  17.942  37.553   0.752
47610W        W20035  26.834  20.843   4.535
47611W        W20036   5.890   3.320   1.309
47612W        W20037  28.580  33.903   3.846
47613W        W20038   5.647   5.651  14.495
47614W        W20039  10.226  31.344   2.773
47615W        W20040  26.863  12.325  12.163
47616W        W20041  17.890   6.213   1.399
47617W        W20042  42.881   7.223  13.817
47618W        W20043  15.103  12.639  10.676
47619W        W20044   2.365  40.642   0.803
47620W        W20045  35.674   4.227  12.332
47621W        W20046   0.042   0.707   3.412
47622W        W20047  16.073  12.002  14.372
47623W        W20048   8.783  25.266  12.431
47624W        W20049  15.248  20.516  13.559
47625W        W20050  34.305  13.443   0.489
47626W        W20051  43.376  38.015   4.924
47627W        W20052  12.392  14.149  11.552
47628W        W20053   2.235  37.990   0.479
47629W        W20054  26.152  16.053   2.156
47630W        W20055  28.497  41.861   1.586
47631W        W20056  44.987  20.114   3.793
47632W        W20057  31.106  27.985   4.126
47633W        W20058  16.079  24.080  14.836
47634W        W20059  24.459  36.391  12.013
47635W        W20060  44.449   4.809   4.839
47636W        W20061   8.237   8.114  12.850
47637W        W20062  20.194  25.534  14.572
47638W        W20063  41.763  11.872  11.091
47639W        W20064  36.880  24.837   1.682
47640W        W20065   1.559  36.594   3.235
47641W        W20066  26.155  38.038  14.842
47642W        W20067  22.753   6.092  10.708
47643W        W20068  11.275  15.802   0.923
47644W        W20069  43.686  16.893   0.231
47645W        W20070  27.842   7.953  12.025
47646W        W20071   2.446  42.559  14.367
47647W        W20072  27.989  35.338  10.974
47648W        W20073  35.353   7.716  12.120
47649W        W20074  13.637  13.337  11.654
47650W        W20075  42.069  17.116  11.141
47651W        W20076  32.155   0.967  11.924
47652W        W20077  22.573   8.398   2.344
47653W        W20078  33.520  44.238   4.637
47654W        W20079   5.119  43.409   3.812
47655W        W20080  26.904  14.699   2.510
47656W        W20081   8.403  38.812  14.407
47657W        W20082   0.408  17.175  10.701
47658W        W20083  33.458  42.251  14.405
47659W        W20084  41.840  19.170   1.252
47660W        W20085  37.897  22.590   3.562
47661W        W20086  41.547  13.131   2.988
47662W        W20087  42.245  15.855   0.485
47663W        W20088  31.527  13.668  11.453
47664W        W20089  34.425  36.112  14.046
47665W        W20090  20.946   9.202   2.805
47666W        W20091   3.014  24.314   4.039
47667W        W20092  36.794  22.606   4.688
47668W        W20093  38.579  30.541   2.498
47669W        W20094   2.949   1.347  11.112
47670W        W20095  39.025  40.355   3.838
47671W        W20096  25.823  14.122   3.282
47672W        W20097  37.109  18.771  13.938
47673W        W20098  21.990  41.031  13.165
47674W        W20099   3.076  23.042  13.757
47675W        W20100  26.101  24.779  13.913
47676W        W20101  42.013  19.774   2.211
47677W        W20102  14.349  30.079   1.292
47678W        W20103  17.107  33.885  14.950
47679W        W20104  32.988   6.897   2.275
47680W        W20105  33.541  14.325  10.750
47681W        W20106  43.360  14.416  10.710
47682W        W20107  43.986  44.859   2.845
47683W        W20108  23.033  25.819  13.814
47684W        W20109  42.474  44.510  13.940
47685W        W20110   4.463  39.681   3.575
47686W        W20111  28.444  18.587  10.437
47687W        W20112  42.938  34.725   4.891
47688W        W20113  18.497  37.436  10.993
47689W        W20114  27.013  29.859  13.100
47690W        W20115   3.533  10.692  13.967
47691W        W20116  31.159   4.323   0.422
47692W        W20117  24.716   7.394  14.356
47693W        W20118   0.239  37.596  13.767
47694W        W20119  16.547   9.730  12.589
47695W        W20120  28.060  12.050   4.571
47696W        W20121   9.271  17.757  11.957
47697W        W20122   5.919  17.819  14.641
47698W        W20123   6.489   7.722  14.388
47699W        W20124  32.099  12.650   4.830
47700W        W20125   5.262   4.164  12.008
47701W        W20126  31.489  17.697   0.721
47702W        W20127  11.216  24.692   3.600
47703W        W20128   1.318  10.235   1.527
47704W        W20129  12.721  12.193  14.608
47705W        W20130  36.478  31.822   1.262
47706W        W20131  18.020  25.589   0.218
47707W        W20132  31.618  41.099  11.460
47708W        W20133  44.801   7.719  12.385
47709W        W20134  14.604  38.955   3.757
47710W        W20135  17.696   4.183  14.017
47711W        W20136   0.477  13.376  13.566
47712W        W20137  37.001  18.060  12.602
47713W        W20138  34.876  22.680  10.742
47714W        W20139  14.576  14.802  12.508
47715W        W20140   2.728  14.365   4.912
47716W        W20141  33.224  38.499   2.686
47717W        W20142  43.232   5.745   1.863
47718W        W20143  37.625  18.817  12.467
47719W        W20144  28.658  39.901   0.746
47720W        W20145  30.038  11.753   3.295
47721W        W20146  38.445   7.314  11.097
47722W        W20147   8.938  20.203  10.347
47723W        W20148  31.783  16.602   1.687
47724W        W20149  41.389  28.453  11.427
47725W        W20150  20.161  22.682   3.967
47726W        W20151  35.260   9.324  10.722
47727W        W20152   8.662  15.917   5.205
47728W        W20153  32.066  32.999   1.316
47729W        W20154   4.366  20.713  12.549
47730W        W20155   3.236   9.792   2.778
47731W        W20156  33.902  23.025  14.296
47732W        W20157  28.023  40.487  12.888
47733W        W20158  14.775  24.142  13.398
47734W        W20159  35.448  36.802  13.383
47735W        W20160   9.421  15.659  14.308
47736W        W20161  37.614   4.523   1.314
47737W        W20162  10.252   6.976   4.215
47738W        W20163   9.901  30.418  12.443
47739W        W20164   0.873  10.772   1.907
47740W        W20165  21.155  28.984   4.197
47741W        W20166  12.677  13.874  14.022
47742W        W20167  15.495  31.610  12.897
47743W        W20168  15.065  31.608   3.634
47744W        W20169  15.824  25.617  14.939
47745W        W20170  25.833  17.965   3.745
47746W        W20171  19.837  12.818  13.306
47747W        W20172   2.873  24.890   3.233
47748W        W20173   2.320  35.130   4.320
47749W        W20174   6.311   8.908   0.187
47750W        W20175  18.088   4.669  11.026
47751W        W20176  39.121  29.567   1.334
47752W        W20177   4.961  32.329   3.349
47753W        W20178  17.829  16.287   1.915
47754W        W20179  29.473  13.681  14.851
47755W        W20180  14.683  40.302  12.109
47756W        W20181  19.473  29.108  13.843
47757W        W20182   9.438  19.949   3.586
47758W        W20183  15.863  16.286   3.116
47759W        W20184  29.717  20.666   2.446
47760W        W20185  38.288  13.859  14.537
47761W        W20186  39.648  40.875  11.049
47762W        W20187  44.992  24.677   2.749
47763W        W20188  37.487  32.504   3.911
47764W        W20189   8.902  22.021  11.151
47765W        W20190   8.402  38.455   2.171
47766W        W20191   5.700  10.884   1.867
47767W        W20192  22.149  27.590   3.773
47768W        W20193   2.274  32.467  10.754
47769W        W20194  31.361  21.525   1.247
47770W        W20195   1.502  43.107  14.443
47771W        W20196  10.476  23.132   4.612
47772W        W20197  18.240  42.262   2.861
47773W        W20198  37.678  33.266  13.623
47774W        W20199   1.805   6.124  12.553
47775W        W20200  43.485  21.508  10.550
47776W        W20201  22.198  44.020   2.412
47777W        W20202  42.519  40.002   3.083
47778W        W20203  38.347  20.844  14.733
47779W        W20204   9.009  44.784  11.711
47780W        W20205  38.025  17.096  13.988
47781W        W20206  10.647  15.782  12.013
47782W        W20207  42.301  21.000   3.783
47783W        W20208  19.979  35.778   4.176
47784W        W20209  39.021  26.611   0.689
47785W        W20210  11.266   4.517   3.217
47786W        W20211  26.300  27.477   2.866
47787W        W20212   9.251   4.011  11.544
47788W        W20213  16.867   8.211  13.691
47789W        W20214  37.801  35.491   3.922
47790W        W20215  15.254  29.844   2.662
47791W        W20216   5.402  42.524   2.805
47792W        W20217   9.790  13.760  12.989
47793W        W20218  25.712  19.218  14.455
47794W        W20219  31.039   4.183   4.853
47795W        W20220  32.207  23.208   1.845
47796W        W20221   0.056  18.648  12.051
47797W        W20222  19.998  21.106   4.175
47798W        W20223   0.975  32.759   0.209
47799W        W20224  33.484  33.629  12.011
47800W        W20225  41.221   9.179  12.648
47801W        W20226  11.142  40.139   4.645
47802W        W20227  22.049  19.585  11.431
47803W        W20228  15.925  24.635  13.755
47804W        W20229  28.547  35.116  11.217
47805W        W20230  15.957  28.096  11.289
47806W        W20231  40.951   9.796  14.351
47807W        W20232  23.720  33.413   4.899
47808W        W20233   5.254  13.735   0.685
47809W        W20234  44.791  40.466  11.498
47810W        W20235  18.745   3.871  14.442
47811W        W20236  37.133  28.927   2.324
47812W        W20237  26.820  19.204  12.966
47813W        W20238  35.908  11.134  14.287
47814W        W20239  30.572  42.268  12.298
47815W        W20240  42.850  20.908   2.177
47816W        W20241  29.944  12.181   4.066
47817W        W20242   5.671  21.382   4.835
47818W        W20243   0.131  41.167   5.243
47819W        W20244   1.002  26.240   2.399
47820W        W20245   9.344  13.857  12.760
47821W        W20246  16.751  40.750   1.275
47822W        W20247   8.645   8.236  10.631
47823W        W20248  33.574   5.859  14.696
47824W        W20249   7.715  29.516   0.154
47825W        W20250  40.968  25.717   2.319
47826W        W20251  38.813  14.480   4.504
47827W        W20252  24.483  14.503   3.673
47828W        W20253  18.831  44.459   4.728
47829W        W20254   4.135  25.092  14.547
47830W        W20255  13.784  20.843  12.197
47831W        W20256  44.047  18.093   4.118
47832W        W20257  19.679   7.858  10.670
47833W        W20258  21.240  40.083  12.062
47834W        W20259   1.255  41.365   3.939
47835W        W20260  28.589  15.096   4.085
47836W        W20261  22.131  23.709  11.597
47837W        W20262   4.323  12.170   3.578
47838W        W20263   7.440  37.835  13.965
47839W        W20264   5.822  38.396   0.883
47840W        W20265   1.813  38.703  10.967
47841W        W20266  32.386  41.836  13.544
47842W        W20267  44.554  27.097  11.036
47843W        W20268  21.920  35.318  12.525
47844W        W20269  38.845  16.976   4.301
47845W        W20270  28.161   4.417   2.883
47846W        W20271   6.555  22.474  11.080
47847W        W20272  37.910  32.470  12.878
47848W        W20273   2.911  17.220   3.724
47849W        W20274  17.598  29.641  13.957
47850W        W20275   4.802   3.518  11.488
47851W        W20276   4.613   2.332   3.554
47852W        W20277  37.341  37.709   3.140
47853W        W20278   1.707   7.674  11.700
47854W        W20279  11.115  38.919   0.379
47855W        W20280  11.679  16.335  12.563
47856W        W20281   1.503  16.695   3.289
47857W        W20282  24.018  14.236   4.713
47858W        W20283   5.186  14.983   2.530
47859W        W20284  42.800  15.164  11.574
47860W        W20285  25.713  13.006  12.396
47861W        W20286  33.440   1.071  12.972
47862W        W20287  23.129  42.427  12.338
47863W        W20288  31.515  35.179   2.366
47864W        W20289  29.565  38.561  12.326
47865W        W20290  33.085  22.171   4.477
47866W        W20291  36.007  21.274   4.061
47867W        W20292  28.641  21.091   1.160
47868W        W20293  22.605   4.852   1.206
47869W        W20294  14.169  13.296  11.644
47870W        W20295   0.234  37.802  11.994
47871W        W20296  23.339   4.134  14.373
47872W        W20297  42.454   4.799  14.493
47873W        W20298  21.649  25.232  10.641
47874W        W20299  20.736   6.995  13.517
47875W        W20300  40.894   4.907  14.420
47876W        W20301  17.880  25.978   4.115
47877W        W20302  36.673  31.342   1.324
47878W        W20303  22.745   3.578   1.304
47879W        W20304  36.986  15.152  12.443
47880W        W20305  37.124  25.470  11.167
47881W        W20306  16.151  15.597   0.865
47882W        W20307  13.294  23.795   4.365
47883W        W20308  22.416  20.504   2.816
47884W        W20309  14.257  14.021   4.897
47885W        W20310  19.990  32.493  10.268
47886W        W20311  21.250  26.983  11.001
47887W        W20312   4.538   3.863   3.228
47888W        W20313  20.272  31.978  14.682
47889W        W20314  12.903   3.853  11.736
47890W        W20315  35.153  27.140   1.080
47891W        W20316  29.012  39.165  12.823
47892W        W20317  40.269   9.852  13.328
47893W        W20318  14.730  41.164   5.060
47894W        W20319  22.752   5.440   3.679
47895W        W20320   8.705   5.291  10.527
47896W        W20321   8.931  37.560   1.300
47897W        W20322  26.496  37.127  14.953
47898W        W20323  23.497  10.530   3.246
47899W        W20324  19.263  20.030   2.203
47900W        W20325   6.345  29.905   0.450
47901W        W20326  24.175  24.456   2.798
47902W        W20327   1.442  31.051  13.459
47903W        W20328   4.811  40.686  13.325
47904W        W20329  39.756  25.011   3.688
47905W        W20330  35.078  23.199   2.134
47906W        W20331  39.424   2.681  13.314
47907W        W20332  33.411  13.716  11.591
47908W        W20333   5.123  24.799  12.178
47909W        W20334  17.532  14.524  14.858
47910W        W20335   4.701  44.474   3.703
47911W        W20336  32.611  11.999  14.743
47912W        W20337   6.878  32.822   3.254
47913W        W20338   7.172  17.674  12.140
47914W        W20339  30.421  10.257  13.574
47915W        W20340  43.849  14.089   1.535
47916W        W20341   6.609  18.541  11.306
47917W        W20342  31.110  17.213   3.729
47918W        W20343   5.132  15.812  11.697
47919W        W20344  33.293  38.092  10.939
47920W        W20345   7.721  21.236  11.546
47921W        W20346   9.355  37.710   5.904
47922W        W20347  37.111  10.710  12.531
47923W        W20348  10.161  17.795   0.445
47924W        W20349  27.996  40.448  10.795
47925W        W20350  19.153  22.118  14.720
47926W        W20351   1.059  35.209  14.421
47927W        W20352  17.546  17.116   2.271
47928W        W20353  31.297  27.962  10.697
47929W        W20354  40.394   0.474  12.460
47930W        W20355   0.994  20.670  12.630
47931W        W20356  27.083  34.751   2.457
47932W        W20357  15.990  21.405  14.096
47933W        W20358  23.058  24.924  13.599
47934W        W20359   2.809  21.810   0.357
47935W        W20360   5.748  13.088  11.949
47936W        W20361  36.031   4.066  14.110
47937W        W20362  19.799  28.693  14.930
47938W        W20363  13.457  18.752  12.250
47939W        W20364  24.702  20.079   2.708
47940W        W20365  23.301  22.910  14.514
47941W        W20366  21.546  12.382  13.990
47942W        W20367  41.995  29.949   1.842
47943W        W20368  27.849   9.237  14.989
47944W        W20369  15.689  16.081  13.324
47945W        W20370  30.955  13.287  12.452
47946W        W20371   5.620   3.180  12.047
47947W        W20372  31.907   2.225   0.265
47948W        W20373  37.990  27.123   2.392
47949W        W20374   6.720  39.772  14.394
47950W        W20375  22.236  16.108  10.858
47951W        W20376  38.331  12.653   4.307
47952W        W20377  27.665   1.119   4.191
47953W        W20378  25.060  11.330  10.694
47954W        W20379  44.396  28.426  14.286
47955W        W20380  19.997  32.405  14.936
47956W        W20381   6.464   2.187  11.168
47957W        W20382  15.576   1.520  14.852
47958W        W20383  37.862  12.337   1.659
47959W        W20384   1.973   8.217   2.277
47960W        W20385   5.955  34.940  12.996
47961W        W20386   2.226  37.075  14.380
47962W        W20387  25.163  31.383   2.303
47963W        W20388  18.448  18.786   1.892
47964W        W20389   7.380  44.466   1.843
47965W        W20390  18.777  25.738  14.779
47966W        W20391  17.619  25.051   3.684
47967W        W20392  15.470  38.403   2.723
47968W        W20393  21.819  20.664  13.374
47969W        W20394  19.069  22.580  14.388
47970W        W20395   3.555  33.275   3.213
47971W        W20396  26.521  23.732   0.525
47972W        W20397  37.131  28.556   1.262
47973W        W20398  38.456  44.189  13.877
47974W        W20399  28.415  15.334   4.932
47975W        W20400  35.419   1.757  11.056
47976W        W20401  41.277   1.995  13.541
47977W        W20402  13.887  20.956   2.828
47978W        W20403  13.655  33.980  12.571
47979W        W20404   5.455  37.667   1.101
47980W        W20405   5.306   4.272   2.242
47981W        W20406  31.149   2.693  12.260
47982W        W20407  28.323   3.757  14.280
47983W        W20408   3.466   9.706  12.806
47984W        W20409  17.633  37.672  11.708
47985W        W20410   1.506  40.949   0.359
47986W        W20411  33.390  32.055  13.921
47987W        W20412   2.246  37.884  13.813
47988W        W20413  35.114  32.627   3.212
47989W        W20414   9.542   4.475   1.138
47990W        W20415  24.599   3.196   0.490
47991W        W20416   3.516   9.735  10.565
47992W        W20417  26.419  15.813  13.586
47993W        W20418  13.812   7.385  10.702
47994W        W20419  37.101  26.543   1.201
47995W        W20420  14.020  14.412   4.181
47996W        W20421   1.809  23.481   1.342
47997W        W20422  17.384  39.273  13.295
47998W        W20423  25.488   0.959  12.057
47999W        W20424  41.422  28.708  13.900
48000W        W20425  22.730  40.306   1.211
48001W        W20426  44.570  27.974   2.715
48002W        W20427   2.442   6.409   2.799
48003W        W20428  32.018  36.041   4.384
48004W        W20429  18.206  33.516   2.047
48005W        W20430  34.989  29.411   0.520
48006W        W20431  12.373   7.661   2.488
48007W        W20432   0.222  22.498   4.042
48008W        W20433  32.157  11.218   0.722
48009W        W20434  32.528  13.847   1.440
48010W        W20435  21.146  16.138   4.622
48011W        W20436  16.064  29.534  11.218
48012W        W20437  16.393   7.560  12.074
48013W        W20438  18.858  34.031   1.194
48014W        W20439  26.256  15.000  13.907
48015W        W20440  40.253   4.738  13.452
48016W        W20441   9.859  35.938  14.316
48017W        W20442  33.850   5.449  10.373
48018W        W20443  16.819  25.563   4.887
48019W        W20444  16.161   0.759   4.580
48020W        W20445  14.679  20.495   3.281
48021W        W20446  31.574  10.278  13.097
48022W        W20447  38.989   4.004   5.047
48023W        W20448  25.607   4.687   2.626
48024W        W20449  21.069  26.942   1.285
48025W        W20450  22.306  33.236   1.031
48026W        W20451  40.427  22.747   1.376
48027W        W20452  22.104  24.037  12.951
48028W        W20453  26.216  43.862   3.870
48029W        W20454  43.443  25.936   2.955
48030W        W20455  31.644  23.695  11.130
48031W        W20456  36.942  31.822  11.547
48032W        W20457   4.227  36.143  12.720
48033W        W20458  25.734   4.583   3.644
48034W        W20459   9.898  18.787  11.618
48035W        W20460  42.639  14.669   2.341
48036W        W20461  34.561  31.540  12.930
48037W        W20462   7.556  12.862  13.019
48038W        W20463  15.561  26.435   3.354
48039W        W20464  15.797  32.923  12.497
48040W        W20465  31.166  22.678   1.687
48041W        W20466  15.194  19.554   0.704
48042W        W20467  44.539   0.966   0.488
48043W        W20468  17.801   4.623  11.701
48044W        W20469  31.721  22.183   4.789
48045W        W20470  29.617  16.619  11.687
48046W        W20471  33.307  14.714   3.187
48047W        W20472  37.564  42.323   0.661
48048W        W20473   6.917  42.202   4.993
48049W        W20474   5.345  30.127  13.862
48050W        W20475   4.184  36.352  13.605
48051W        W20476  24.661  31.857  11.191
48052W        W20477   1.577  29.486   3.947
48053W        W20478  38.007  16.606   4.264
48054W        W20479   5.466  13.712   1.146
48055W        W20480   6.897  35.322  12.536
48056W        W20481  43.861  38.046  13.889
48057W        W20482  11.624  10.820  12.081
48058W        W20483  38.814  42.204   1.218
48059W        W20484  38.059   2.408   0.377
48060W        W20485   1.885   5.378   0.959
48061W        W20486   0.090  44.786  13.266
48062W        W20487  28.570  25.772   0.990
48063W        W20488  36.267   5.700  11.929
48064W        W20489  27.046  17.500  11.119
48065W        W20490  30.014  38.601  10.746
48066W        W20491  42.748  28.951  13.877
48067W        W20492  17.153  28.108  14.470
48068W        W20493  33.309  16.156   2.461
48069W        W20494  32.199  14.604  12.541
48070W        W20495  27.204  23.570   2.758
48071W        W20496  26.540   5.812  11.887
48072W        W20497  21.997  10.604  10.748
48073W        W20498  17.073   9.095  13.524
48074W        W20499  26.380  40.382   0.996
48075W        W20500  26.914  40.331   0.945
48076W        W20501   8.609  22.014   0.839
48077W        W20502   2.400  15.811  12.064
48078W        W20503   9.927   4.097   1.159
48079W        W20504   9.889  16.971  14.844
48080W        W20505  30.473  25.998  11.590
48081W        W20506   0.200   5.564   1.299
48082W        W20507   9.879  16.965   1.846
48083W        W20508  37.550  24.101   0.837
48084W        W20509  15.275   2.674  13.849
48085W        W20510  18.593  17.566  14.697
48086W        W20511   4.713  17.643  14.382
48087W        W20512   2.063  31.927  14.407
48088W        W20513  37.397  25.626   0.664
48089W        W20514  31.635   1.854  11.240
48090W        W20515  19.860  15.745   4.262
48091W        W20516  27.836   3.932   3.179
48092W        W20517  30.977   0.726  12.421
48093W        W20518   9.641  41.366   0.881
48094W        W20519  15.156  26.018  10.614
48095W        W20520   7.720  14.197   1.024
48096W        W20521  28.432  31.425   1.582
48097W        W20522   9.551   4.351  13.390
48098W        W20523  31.560  35.028   1.445
48099W        W20524  26.965  27.955  11.887
48100W        W20525   2.219  22.982  11.525
48101W        W20526  16.119  24.413   4.245
48102W        W20527  17.043  29.946  12.917
48103W        W20528   5.938  37.000   2.625
48104W        W20529  44.910  41.834  13.836
48105W        W20530  29.173  17.939   0.693
48106W        W20531   4.345  10.534   4.126
48107W        W20532  34.187  43.860   1.695
48108W        W20533  34.719  19.042   0.018
48109W        W20534  40.352  32.052  14.548
48110W        W20535  27.164  22.160  14.861
48111W        W20536  12.680  28.071  14.788
48112W        W20537  20.514  27.056  13.750
48113W        W20538  33.318   9.183  10.639
48114W        W20539   5.829  25.521   4.109
48115W        W20540  25.212  26.046  13.670
48116W        W20541  16.515  27.553   4.503
48117W        W20542  17.735  11.824  10.705
48118W        W20543  17.651  37.351   0.383
48119W        W20544  39.921  12.142  13.993
48120W        W20545  26.725   7.346  10.665
48121W        W20546  42.784  23.208   2.496
48122W        W20547  15.409  40.741  11.490
48123W        W20548  33.019   7.163  12.964
48124W        W20549  18.586  25.005  13.718
48125W        W20550   8.902   8.481   2.419
48126W        W20551  18.541  27.983  12.573
48127W        W20552  43.860  27.043   0.407
48128W        W20553   3.512   5.667   2.414
48129W        W20554  25.792  36.552   0.260
48130W        W20555  10.027  21.545  11.646
48131W        W20556  33.035  14.900  13.685
48132W        W20557  10.451  31.140  11.663
48133W        W20558  10.661   7.302   2.577
48134W        W20559   8.280  25.152   4.406
48135W        W20560  39.027  36.132  12.073
48136W        W20561  43.802   5.642  12.546
48137W        W20562  33.487  44.001   1.289
48138W        W20563  30.934  44.499  11.945
48139W        W20564  36.570  40.893  10.691
48140W        W20565  21.440  35.589  14.082
48141W        W20566   5.448  20.492   0.350
48142W        W20567  17.817  44.690   4.789
48143W        W20568  39.179  39.749  12.160
48144W        W20569   7.941  43.046   0.962
48145W        W20570  24.219  40.865  11.662
48146W        W20571  27.099  36.925  10.704
48147W        W20572  42.381  30.842   1.339
48148W        W20573  28.817  31.011   0.524
48149W        W20574  30.067  18.420  13.364
48150W        W20575  38.247  38.825   1.261
48151W        W20576  36.122  30.548   1.948
48152W        W20577  37.674  17.584  12.480
48153W        W20578  44.917   2.354   3.430
48154W        W20579  44.376  24.928   5.025
48155W        W20580  27.208  37.435  11.602
48156W        W20581  16.814   6.471   5.052
48157W        W20582   1.284  10.758   1.387
48158W        W20583  14.548  32.733   2.185
48159W        W20584  20.732  40.034  14.236
48160W        W20585  39.855  12.719   0.764
48161W        W20586   6.269   1.778   3.470
48162W        W20587  12.307  29.649   2.169
48163W        W20588  36.280  36.398   3.044
48164W        W20589   2.954   3.824   2.701
48165W        W20590   7.900  32.645  14.288
48166W        W20591  10.174  28.648  14.806
48167W        W20592  30.329  37.852   1.185
48168W        W20593  10.391   3.652   3.401
48169W        W20594  36.352   3.056  11.538
48170W        W20595  16.484  31.176   2.409
48171W        W20596  29.467  12.071  14.395
48172W        W20597  31.035  23.234  14.831
48173W        W20598  44.210  38.934  10.304
48174W        W20599   7.266  37.374   4.581
48175W        W20600  16.505  40.557   0.814
48176W        W20601  35.525  25.664   2.869
48177W        W20602  19.168  24.045   3.261
48178W        W20603  37.565   3.498   1.413
48179W        W20604  36.873  34.985  13.904
48180W        W20605  26.994  28.215   4.628
48181W        W20606  25.096   5.881  14.578
48182W        W20607   3.420  15.870  14.004
48183W        W20608  41.775   8.176   0.853
48184W        W20609  22.126   1.264   4.825
48185W        W20610  17.011   1.699  14.018
48186W        W20611  20.340  39.998  13.416
48187W        W20612  27.738  13.344   3.693
48188W        W20613  25.637  44.157  10.706
48189W        W20614  14.028  10.183   2.278
48190W        W20615  11.748   8.465  12.861
48191W        W20616  39.341  38.084  13.387
48192W        W20617  38.565  15.712   2.506
48193W        W20618  40.408   8.363  12.798
48194W        W20619  15.505  27.682  13.135
48195W        W20620  11.698  21.704  10.581
48196W        W20621  34.127   1.181   3.768
48197W        W20622  37.086  17.099  13.459
48198W        W20623  15.030   8.871   1.391
48199W        W20624   7.966  38.536   0.899
48200W        W20625  29.122  12.319   2.952
48201W        W20626  41.410  22.069   1.365
48202W        W20627  43.018   7.941  12.914
48203W        W20628  38.678  20.468  14.829
48204W        W20629  34.979  16.538   3.856
48205W        W20630  40.981  16.575   3.234
48206W        W20631  41.422   7.182   1.316
48207W        W20632  41.856  33.169  11.160
48208W        W20633  34.391  41.075  14.298
48209W        W20634  34.926  11.281   4.500
48210W        W20635  30.969  29.720   0.433
48211W        W20636  39.570   1.160  13.365
48212W        W20637   5.744  11.232   3.719
48213W        W20638  35.785   4.209   3.448
48214W        W20639   4.701  20.570   3.855
48215W        W20640   5.663  20.013   1.342
48216W        W20641  24.952   6.090   0.447
48217W        W20642  16.806  13.621  10.766
48218W        W20643   9.603  33.550  12.127
48219W        W20644   6.168   8.915   5.037
48220W        W20645   3.935  33.637   4.116
48221W        W20646  21.701   1.515  13.309
48222W        W20647   8.985  37.961  10.433
48223W        W20648  18.775  23.142  14.474
48224W        W20649  11.692  25.352   4.132
48225W        W20650   9.257   5.342   1.222
48226W        W20651   2.721  31.098  10.622
48227W        W20652  29.121  26.276   0.388
48228W        W20653  13.349  36.129   3.683
48229W        W20654  24.016   2.095  10.911
48230W        W20655  43.387  17.392   4.135
48231W        W20656  27.172  38.923   4.806
48232W        W20657  32.096   2.120   4.653
48233W        W20658  13.443  24.593  11.149
48234W        W20659  21.023  44.936   1.903
48235W        W20660  30.913  19.550   0.816
48236W        W20661   6.547  33.446   0.432
48237W        W20662   7.726   4.634   3.841
48238W        W20663  11.460  35.167   0.557
48239W        W20664  19.010  42.638   4.965
48240W        W20665  29.088  43.351  10.811
48241W        W20666  37.287   3.349   1.827
48242W        W20667  37.645  23.692   4.809
48243W        W20668  25.781  14.654   1.559
48244W        W20669  11.656   3.730  13.017
48245W        W20670   9.883  42.495  11.892
48246W        W20671  11.736  34.958  12.032
48247W        W20672  12.865  24.009  13.477
48248W        W20673  15.176  33.037   3.137
48249W        W20674  39.096  44.677   3.764
48250W        W20675  37.472  29.791  11.830
48251W        W20676   3.230   8.176  11.696
48252W        W20677   2.994   6.815   3.123
48253W        W20678   5.424  19.382  14.453
48254W        W20679   9.323  17.379   1.362
48255W        W20680   7.595  40.098  13.469
48256W        W20681   3.290  32.688   2.407
48257W        W20682  34.469   2.946  12.126
48258W        W20683  33.394   4.798   4.675
48259W        W20684  15.153  24.005   2.135
48260W        W20685  15.611   0.519  10.755
48261W        W20686   9.179  17.482  14.279
48262W        W20687  24.248  25.707  14.365
48263W        W20688  42.809   9.863  10.708
48264W        W20689  37.542  30.623   1.863
48265W        W20690   7.162   5.203   0.351
48266W        W20691  26.365  44.404  12.038
48267W        W20692  32.903  21.337   4.204
48268W        W20693  42.505  40.434  13.073
48269W        W20694   1.864   1.319   4.189
48270W        W20695   6.199  41.022  11.529
48271W        W20696  29.518  41.477  10.638
48272W        W20697   3.318  18.526   2.863
48273W        W20698  22.026   0.300   2.127
48274W        W20699  37.426  12.556   1.808
48275W        W20700  23.024  42.214  11.863
48276W        W20701  16.662  33.704   0.308
48277W        W20702  30.545  25.044  11.312
48278W        W20703  37.502  34.466   3.311
48279W        W20704  28.689  39.138   1.177
48280W        W20705  27.671   0.603   0.363
48281W        W20706  43.091   1.925   3.170
48282W        W20707  44.673   4.133   2.180
48283W        W20708   8.381  31.119   1.402
48284W        W20709   5.831   9.064   2.623
48285W        W20710  12.621  14.815  14.045
48286W        W20711  16.989  33.486  11.194
48287W        W20712  42.394  43.957  13.368
48288W        W20713  33.637   0.859   0.419
48289W        W20714  40.236  22.052   2.110
48290W        W20715   8.833  31.927  10.744
48291W        W20716  17.690  21.073   1.732
48292W        W20717   5.658  11.805   4.661
48293W        W20718  23.290   1.607  11.479
48294W        W20719  29.895   8.178  11.718
48295W        W20720  14.073  19.921  13.824
48296W        W20721  34.909   0.487   4.752
48297W        W20722  22.458   6.623   5.150
48298W        W20723   9.222  41.926  12.854
48299W        W20724  22.063   6.222  13.833
48300W        W20725  28.282  32.107   4.287
48301W        W20726  13.305  32.878   0.590
48302W        W20727  25.231   3.288  12.175
48303W        W20728  10.380   3.089  12.003
48304W        W20729  30.415  25.764  10.632
48305W        W20730   1.156  31.169   1.880
48306W        W20731  20.995  10.321  12.891
48307W        W20732   2.966  28.982  12.346
48308W        W20733  26.689  23.333  11.499
48309W        W20734   6.670  38.902   5.203
48310W        W20735  22.043  30.116   0.918
48311W        W20736  25.538  20.891   0.850
48312W        W20737  22.500  36.425   4.107
48313W        W20738  16.965  31.678   0.418
48314W        W20739  31.435  21.981  12.109
48315W        W20740  34.493  22.005   1.938
48316W        W20741  39.519   2.787   0.793
48317W        W20742   3.285  42.464   4.162
48318W        W20743   7.889  28.557  11.380
48319W        W20744   7.686  32.086   2.787
48320W        W20745   2.258   3.971  10.996
48321W        W20746  11.254  36.929   1.790
48322W        W20747  32.755  14.416  14.987
48323W        W20748  44.645  25.257  11.123
48324W        W20749  14.774  33.588   3.649
48325W        W20750  16.385  33.286   0.474
48326W        W20751  20.071  23.991   3.330
48327W        W20752  20.088   4.828   1.223
48328W        W20753  37.136  35.078  10.721
48329W        W20754  34.858   7.407   1.355
48330W        W20755  42.073  40.786  12.290
48331W        W20756   2.751   0.049   2.261
48332W        W20757  15.490  44.295  14.980
48333W        W20758  28.384  23.106   1.714
48334W        W20759  24.687  30.712  14.706
48335W        W20760  41.697  32.072   5.090
48336W        W20761   4.394   6.357   1.656
48337W        W20762  31.814  40.928   2.166
48338W        W20763  24.072  25.537   3.004
48339W        W20764  20.013   3.225  12.445
48340W        W20765   9.205   7.320  13.919
48341W        W20766  23.014   0.807   1.534
48342W        W20767  37.369  24.806  13.418
48343W        W20768  24.209  13.173   3.760
48344W        W20769  16.626  12.731   2.902
48345W        W20770  34.546   7.433   1.787
48346W        W20771  34.122  32.428  11.458
48347W        W20772   1.004  24.743   2.681
48348W        W20773  26.493   3.211   0.839
48349W        W20774  27.817  30.509   4.843
48350W        W20775   7.764  21.582   0.026
48351W        W20776   4.271  16.022  11.953
48352W        W20777  21.459  38.283  12.530
48353W        W20778  41.741  24.002   2.907
48354W        W20779  25.726  11.153   4.219
48355W        W20780   9.799  21.433   3.722
48356W        W20781  24.593  13.983   3.711
48357W        W20782  27.570  12.422  13.830
48358W        W20783   2.251  17.454   3.798
48359W        W20784  29.009  16.572  13.372
48360W        W20785  35.638   3.689  14.994
48361W        W20786  36.556   4.121  10.693
48362W        W20787  34.927  11.329  13.345
48363W        W20788   1.510   1.669   4.356
48364W        W20789   1.390  17.720   1.526
48365W        W20790   5.296  15.865  10.809
48366W        W20791  13.617  23.483   4.687
48367W        W20792  43.728  37.822   1.694
48368W        W20793   3.893  22.453  11.223
48369W        W20794   9.621  33.496   1.702
48370W        W20795   7.636  44.107   4.094
48371W        W20796   2.621   0.883   1.876
48372W        W20797  42.268  23.927  14.421
48373W        W20798  10.321  10.768  13.339
48374W        W20799  44.249  40.544   1.745
48375W        W20800  41.017  32.483   0.009
48376W        W20801  43.364  20.678   0.566
48377W        W20802  12.790  22.029   4.825
48378W        W20803  19.578  19.985  10.949
48379W        W20804  16.657   1.317   1.235
48380W        W20805   1.422  36.650  11.185
48381W        W20806  24.145  10.937  10.666
48382W        W20807   4.685  25.793  10.225
48383W        W20808  37.928   7.276   2.801
48384W        W20809  43.394  37.495  12.053
48385W        W20810  18.456  35.575   0.249
48386W        W20811  17.234  20.577   9.904
48387W        W20812   9.038   3.836   0.936
48388W        W20813  26.582  27.228   4.024
48389W        W20814  30.838  13.601   3.119
48390W        W20815  44.010  42.996  13.924
48391W        W20816  39.204  30.925  10.734
48392W        W20817  36.853   6.961   0.252
48393W        W20818   5.369  34.615   2.947
48394W        W20819  20.726  11.266   3.299
48395W        W20820  33.573  21.634  13.604
48396W        W20821  36.693   8.796   0.329
48397W        W20822  38.968  39.111  14.522
48398W        W20823  13.866  19.064   2.916
48399W        W20824  19.885   0.276  12.504
48400W        W20825  40.481  32.455   0.467
48401W        W20826  37.512  12.550  14.016
48402W        W20827  16.091  34.829   3.857
48403W        W20828  11.336   7.278   3.637
48404W        W20829  36.887  16.272  11.389
48405W        W20830  42.915  39.302   1.217
48406W        W20831   0.330  11.270   2.012
48407W        W20832   5.839  16.845   1.035
48408W        W20833  17.299  21.040   1.329
48409W        W20834  37.836  34.418   2.892
48410W        W20835  19.718  36.871  12.106
48411W        W20836  19.041  35.032   0.855
48412W        W20837  11.881   4.131   0.359
48413W        W20838  42.356   2.749   0.004
48414W        W20839  43.490  18.767  12.005
48415W        W20840  30.481  44.775  12.971
48416W        W20841   8.940  35.393   3.650
48417W        W20842  43.310  15.290  10.064
48418W        W20843  31.020  11.130   1.466
48419W        W20844  32.362  22.052   0.384
48420W        W20845  38.988  32.807  14.223
48421W        W20846  11.873  43.566   1.451
48422W        W20847   2.747  25.644  10.574
48423W        W20848   3.893  13.610   1.587
48424W        W20849  21.614  30.958   3.672
48425W        W20850  29.405   3.810   2.771
48426W        W20851  12.565  12.370   0.524
48427W        W20852  34.431  12.104  13.174
48428W        W20853  38.404  15.186  12.926
48429W        W20854   3.367  28.546   3.798
48430W        W20855   5.308   2.727  10.545
48431W        W20856  37.448  44.900  13.425
48432W        W20857  26.176  15.288   0.953
48433W        W20858  16.656  17.708   2.885
48434W        W20859   3.906  30.672  10.881
48435W        W20860  27.544  34.003   1.978
48436W        W20861   0.966   5.398  14.965
48437W        W20862  35.364   4.258  12.945
48438W        W20863  16.999  32.146  12.007
48439W        W20864  18.584  10.141  12.169
48440W        W20865  25.984   4.883   3.332
48441W        W20866  28.015  40.278  13.347
48442W        W20867   9.635   2.911   0.780
48443W        W20868  17.986  35.255  13.233
48444W        W20869  33.978  41.739   0.147
48445W        W20870  44.974  22.976  14.866
48446W        W20871  16.084  44.971  14.508
48447W        W20872   1.840  26.737   4.118
48448W        W20873   7.207   5.468  13.962
48449W        W20874  11.394   6.972   0.753
48450W        W20875  40.864  11.803   1.928
48451W        W20876   2.981   0.874  10.787
48452W        W20877  31.429   4.782  10.949
48453W        W20878  35.154  14.237  12.850
48454W        W20879   7.676  35.169  14.481
48455W        W20880   6.284  44.464   2.228
48456W        W20881   8.666   4.832   2.833
48457W        W20882  18.646  12.125  10.358
48458W        W20883  39.559  18.270   2.762
48459W        W20884  37.693  25.992   2.713
48460W        W20885   5.156  24.478   1.242
48461W        W20886  35.040   6.754   0.587
48462W        W20887   8.682   8.173  14.772
48463W        W20888  23.664  31.769   0.043
48464W        W20889  36.889  17.969  13.554
48465W        W20890  31.434  28.529  13.267
48466W        W20891  31.074  31.721  13.284
48467W        W20892  33.120  12.141  13.640
48468W        W20893  10.422  44.759  11.295
48469W        W20894  34.602  32.376   0.450
48470W        W20895  38.840   6.450   1.174
48471W        W20896  27.627  36.383   3.396
48472W        W20897  15.769   2.258   0.360
48473W        W20898   5.540  36.920   2.299
48474W        W20899  24.500  28.221  11.978
48475W        W20900  27.472  33.933   5.048
48476W        W20901  35.846  34.971   4.950
48477W        W20902  22.791  16.814  10.819
48478W        W20903  29.086  27.928   2.942
48479W        W20904  18.590  14.252   0.472
48480W        W20905  37.770  19.316  12.524
48481W        W20906  11.671   8.668  13.339
48482W        W20907  35.611  43.882   1.028
48483W        W20908  28.353   6.277  14.457
48484W        W20909  13.629  39.887  10.751
48485W        W20910   4.323  11.224  12.162
48486W        W20911  10.115   4.900  12.076
48487W        W20912  21.700   6.936  11.207
48488W        W20913   6.013  34.883   1.277
48489W        W20914   9.873  27.020  13.519
48490W        W20915  34.121   0.287   2.136
48491W        W20916   4.982   5.826   1.677
48492W        W20917  25.158  28.781   0.166
48493W        W20918  18.579  37.866   4.227
48494W        W20919   5.356  10.805  13.140
48495W        W20920  24.265  24.480   4.148
48496W        W20921  21.218  15.388  13.455
48497W        W20922  26.754   9.180   0.757
48498W        W20923  18.332  17.202   1.769
48499W        W20924  11.116  32.944   3.166
48500W        W20925  28.985  12.628   0.516
48501W        W20926   3.478   1.939  12.133
48502W        W20927  20.083   3.695   0.728
48503W        W20928  14.278  43.292  13.168
48504W        W20929   5.958  13.777  11.618
48505W        W20930  21.593  21.196  10.906
48506W        W20931  17.607  23.944  14.850
48507W        W20932   9.930  16.529  11.593
48508W        W20933  32.142  32.126   4.209
48509W        W20934  13.910  32.448  11.100
48510W        W20935  32.567  23.451   4.325
48511W        W20936   2.167  28.565  14.718
48512W        W20937  19.825  27.755   2.947
48513W        W20938  27.216  33.563   4.610
48514W        W20939   9.102  38.576   4.569
48515W        W20940  21.087  44.603   4.633
48516W        W20941  37.460  28.247   1.674
48517W        W20942  35.098  11.641   3.608
48518W        W20943  13.351   1.317   4.291
48519W        W20944  20.322  42.993   3.292
48520W        W20945  32.971  24.099   3.387
48521W        W20946  40.352  41.380   2.527
48522W        W20947  27.890  43.434  13.339
48523W        W20948  26.066  20.766  11.755
48524W        W20949   4.717  39.852  13.519
48525W        W20950  35.674  18.145   3.828
48526W        W20951   8.431  22.229  13.946
48527W        W20952  24.324  15.717  10.789
48528W        W20953  32.038   2.684   2.172
48529W        W20954  30.437  15.052   3.316
48530W        W20955  10.761  28.147   3.611
48531W        W20956  18.218  21.149  10.667
48532W        W20957  42.409  10.740   0.995
48533W        W20958   3.637  20.145  13.484
48534W        W20959  43.918   6.939   3.741
48535W        W20960  12.500  34.400  11.039
48536W        W20961  25.022  43.525   0.970
48537W        W20962  42.818  30.461   3.230
48538W        W20963  29.126  26.508   1.841
48539W        W20964  44.574  14.114   4.415
48540W        W20965  28.678  26.018  12.772
48541W        W20966  30.994  18.873   3.221
48542W        W20967   6.138  26.232  13.092
48543W        W20968   6.081  38.928  12.297
48544W        W20969  33.823   5.739   1.342
48545W        W20970  28.899  27.104   4.610
48546W        W20971   5.631  19.854   2.800
48547W        W20972   1.417   8.577  13.352
48548W        W20973  12.346  12.256   2.840
48549W        W20974  21.539   7.549   2.526
48550W        W20975  32.633  41.918  12.153
48551W        W20976  35.000  41.492  12.095
48552W        W20977  42.090  17.339  14.040
48553W        W20978  15.301   1.809  13.069
48554W        W20979   7.316  25.050  10.998
48555W        W20980  24.730  15.152  13.820
48556W        W20981  31.428   5.763   1.405
48557W        W20982  22.503  23.403  14.437
48558W        W20983  29.857   2.713   0.791
48559W        W20984   2.028  38.931   3.241
48560W        W20985  37.575  34.981   3.210
48561W        W20986  42.199  43.491  11.152
48562W        W20987  35.457  15.802  14.633
48563W        W20988  12.885   7.201  11.721
48564W        W20989  35.900  26.111  14.952
48565W        W20990  40.351   1.717   2.833
48566W        W20991  31.868  44.441  10.671
48567W        W20992  28.704  14.326   3.787
48568W        W20993   6.732  30.990   4.227
48569W        W20994   6.738  18.516   3.395
48570W        W20995  34.699  44.025   4.149
48571W        W20996  13.528  44.374   1.736
48572W        W20997  22.112  12.174   2.795
48573W        W20998  24.124  34.409  14.298
48574W        W20999  26.486   3.473   1.280
48575W        W21000  25.065  19.159   0.928
48576W        W21001   7.627  10.614   2.237
48577W        W21002  24.092  18.132   3.562
48578W        W21003   4.976  16.039   2.702
48579W        W21004  36.680  40.868   0.885
48580W        W21005  37.048   1.573   3.872
48581W        W21006   8.748  11.369  10.624
48582W        W21007  15.933  30.562  14.600
48583W        W21008  39.409  13.071   4.196
48584W        W21009  30.411   7.531   0.719
48585W        W21010  44.767   5.932   2.838
48586W        W21011  36.118  23.543  13.153
48587W        W21012  11.866  25.033   1.695
48588W        W21013  18.945  41.006  14.765
48589W        W21014   7.771  22.775  10.726
48590W        W21015  21.546  39.863   0.413
48591W        W21016  22.483  39.583   3.282
48592W        W21017  38.828  35.379   0.882
48593W        W21018  16.994  40.321   3.663
48594W        W21019  38.360  38.862  12.006
48595W        W21020  17.277   6.373   3.737
48596W        W21021  29.680  20.703  13.815
48597W        W21022  12.756  41.436  14.942
48598W        W21023  24.155   6.685  14.396
48599W        W21024   3.769  41.827   3.685
48600W        W21025  10.080   0.192  12.141
48601W        W21026  44.522  17.287  11.815
48602W        W21027  19.218  43.723  13.042
48603W        W21028  44.442  19.309   2.852
48604W        W21029  19.743  42.257  14.089
48605W        W21030  27.179   5.671  12.940
48606W        W21031  23.289  42.851  12.974
48607W        W21032  11.898  16.144   3.355
48608W        W21033   4.525  31.203  11.147
48609W        W21034  26.831  44.797  13.294
48610W        W21035  24.506  14.143   0.025
48611W        W21036  13.786  39.297   4.628
48612W        W21037  22.246  26.521  13.880
48613W        W21038  26.581  16.283  14.356
48614W        W21039  43.801  44.095   4.227
48615W        W21040  28.797  19.642   3.020
48616W        W21041  32.656  11.577   4.024
48617W        W21042   5.881   0.731  13.324
48618W        W21043   7.797  23.787  10.757
48619W        W21044   8.672   8.284   4.609
48620W        W21045  34.409  25.972  14.367
48621W        W21046   0.912  10.144  14.391
48622W        W21047  44.306  23.521  10.724
48623W        W21048  10.606  44.217   4.120
48624W        W21049  10.228  17.193  10.533
48625W        W21050  42.284  15.886   3.771
48626W        W21051  13.603  23.810  11.918
48627W        W21052   6.741  24.614   4.611
48628W        W21053  42.312   8.876  13.827
48629W        W21054  26.547  25.109  14.350
48630W        W21055  28.516   5.864  13.995
48631W        W21056  35.964  37.841  12.978
48632W        W21057  42.714  21.211  14.485
48633W        W21058  44.681   8.245  12.463
48634W        W21059  25.132   8.244  13.183
48635W        W21060  25.061  14.833   2.825
48636W        W21061  25.349  14.765   1.231
48637W        W21062   0.967   9.166  14.491
48638W        W21063  32.574  32.578  13.339
48639W        W21064  18.788  35.459   1.893
48640W        W21065   8.138   6.175   0.388
48641W        W21066  14.050  17.332   1.788
48642W        W21067  27.896  43.363  12.362
48643W        W21068  36.951  18.088   4.372
48644W        W21069  28.981  35.669   0.940
48645W        W21070  29.392  27.078   4.812
48646W        W21071  23.651  33.662  12.052
48647W        W21072  42.879  23.591   1.723
48648W        W21073  32.067  10.350   3.897
48649W        W21074  41.011   7.216   0.432
48650W        W21075  40.617   2.888   1.393
48651W        W21076  31.889  11.360   3.562
48652W        W21077   2.268  41.364   3.211
48653W        W21078  30.628   0.042   0.832
48654W        W21079  17.221  41.451  10.460
48655W        W21080  10.911  28.475   3.256
48656W        W21081  28.404  10.806  11.880
48657W        W21082  43.772  30.167  11.381
48658W        W21083  13.618  23.382  13.139
48659W        W21084  40.547  42.490  11.496
48660W        W21085   8.225  35.596   2.404
48661W        W21086   5.167  36.452   1.150
48662W        W21087  26.472  34.463  11.608
48663W        W21088  13.196  39.557  10.683
48664W        W21089  16.434  17.628  13.393
48665W        W21090  19.792  41.749  11.042
48666W        W21091  43.765  44.781   0.644
48667W        W21092  12.631   0.770   4.216
48668W        W21093  25.514  32.913   4.078
48669W        W21094  30.507  17.771  13.974
48670W        W21095  40.978   7.563   4.433
48671W        W21096   2.660   3.785   4.558
48672W        W21097  34.894  29.608  10.965
48673W        W21098  34.627  32.384  11.544
48674W        W21099  33.264  31.564  10.497
48675W        W21100  40.220  16.146   0.017
48676W        W21101  17.577  35.069   2.741
48677W        W21102  36.336  37.661  12.492
48678W        W21103  36.337  29.261  14.945
48679W        W21104  30.120  11.278   3.584
48680W        W21105  16.175  26.076  11.603
48681W        W21106   3.092  32.829  10.973
48682W        W21107  32.111  10.763  11.597
48683W        W21108  17.978  36.508   4.664
48684W        W21109  42.337   2.400   3.307
48685W        W21110   6.505  24.168  13.840
48686W        W21111  14.641   3.253  13.057
48687W        W21112  10.081  15.718  14.809
48688W        W21113   9.382  43.222   2.929
48689W        W21114  39.559  17.653  14.869
48690W        W21115  35.491  36.052  13.865
48691W        W21116  14.102  24.055  10.746
48692W        W21117  28.411   3.843   4.189
48693W        W21118  10.551  16.055   0.307
48694W        W21119  17.534  11.209  14.935
48695W        W21120   0.545  10.462   4.958
48696W        W21121  22.978  35.358   2.286
48697W        W21122  35.984   9.405   0.371
48698W        W21123  32.083  32.563   2.010
48699W        W21124   9.928  35.608   2.718
48700W        W21125  41.866  19.688  11.985
48701W        W21126   7.322  22.100  11.009
48702W        W21127  20.120  19.834   1.828
48703W        W21128  32.678  40.418   0.149
48704W        W21129  24.139  44.230   4.135
48705W        W21130  40.326  12.756   3.323
48706W        W21131  13.362  23.804  11.457
48707W        W21132  14.084  42.825  13.326
48708W        W21133   6.384   5.177  12.070
48709W        W21134  23.999  33.969   0.488
48710W        W21135  16.978   8.855   0.292
48711W        W21136  20.587  43.853  14.099
48712W        W21137  37.367   0.532  14.309
48713W        W21138  43.436  30.587  12.960
48714W        W21139  35.958  24.788  14.080
48715W        W21140  38.615  30.275   2.924
48716W        W21141   5.088   9.994   3.738
48717W        W21142  15.213   4.866  13.806
48718W        W21143  23.728  10.553   4.581
48719W        W21144  13.694  23.605  14.943
48720W        W21145  40.072  40.450  12.169
48721W        W21146  37.246  15.550  11.088
48722W        W21147  12.298  30.056   2.938
48723W        W21148   5.640   4.912  12.469
48724W        W21149  44.772  36.960  14.427
48725W        W21150  35.639   3.884   2.201
48726W        W21151  15.715  23.366  12.945
48727W        W21152  24.092  36.286   0.299
48728W        W21153  17.683  13.042   2.163
48729W        W21154  44.545   3.646  10.190
48730W        W21155  44.637  39.122   4.450
48731W        W21156  30.070  30.174   0.196
48732W        W21157  15.351  25.826  12.136
48733W        W21158  15.276  24.029  13.386
48734W        W21159  33.949  31.429   2.898
48735W        W21160  39.818   3.746  14.996
48736W        W21161   4.203  41.410  13.362
48737W        W21162  34.463   7.272  12.854
48738W        W21163  38.517  21.673  14.830
48739W        W21164  19.765  24.013   2.849
48740W        W21165  10.179  17.471  12.540
48741W        W21166   5.319  17.418   1.576
48742W        W21167  38.488  25.968   1.411
48743W        W21168  16.141  27.915  10.832
48744W        W21169  12.141  18.084  13.499
48745W        W21170  39.107  21.969   2.800
48746W        W21171  16.331  31.911   2.269
48747W        W21172  38.100   2.822   1.194
48748W        W21173  17.060   9.163  14.085
48749W        W21174  35.546  31.682  11.627
48750W        W21175  41.368  13.810   1.868
48751W        W21176  33.553  19.581  14.845
48752W        W21177  38.801  23.043  13.278
48753W        W21178  27.067  23.002  13.168
48754W        W21179   2.242  27.714   2.267
48755W        W21180  37.391  10.733   3.637
48756W        W21181  36.378   3.743  14.345
48757W        W21182   1.875   0.505   1.876
48758W        W21183   0.511  24.369  12.117
48759W        W21184  23.966  28.521   0.052
48760W        W21185  44.274  20.609   3.873
48761W        W21186  16.392  32.689   3.723
48762W        W21187   3.346  33.386   4.891
48763W        W21188   0.257  13.297  11.096
48764W        W21189  11.805  28.082  12.481
48765W        W21190  25.725  35.539  13.340
48766W        W21191  41.521  32.224   9.883
48767W        W21192  10.921   3.418   2.488
48768W        W21193   9.249  12.103   4.242
48769W        W21194  23.525  35.037   3.641
48770W        W21195  38.534  29.749  12.490
48771W        W21196  28.157  14.536  12.055
48772W        W21197   6.208  20.175   0.400
48773W        W21198  25.145  34.345   1.229
48774W        W21199  29.091  13.846   2.771
48775W        W21200  12.773  20.743   3.091
48776W        W21201  33.085  18.237  11.968
48777W        W21202  10.940  40.294  12.004
48778W        W21203  18.082  14.864   1.498
48779W        W21204  26.151  21.563   0.751
48780W        W21205   8.919  12.630   3.815
48781W        W21206  15.825  32.539  14.080
48782W        W21207   8.617  32.725  12.566
48783W        W21208  17.521  34.027   3.563
48784W        W21209   7.406  44.217   1.248
48785W        W21210   9.051  19.860  13.514
48786W        W21211  36.477   4.884   4.569
48787W        W21212  12.853  34.509   4.718
48788W        W21213  27.231  27.884   4.212
48789W        W21214  35.008  17.042  10.359
48790W        W21215  16.742  30.959   4.118
48791W        W21216  23.453   5.207   1.070
48792W        W21217  38.379  19.969   3.723
48793W        W21218   5.174   0.670   0.945
48794W        W21219  35.171  27.524   2.146
48795W        W21220  36.854   0.694  13.083
48796W        W21221  23.902  35.865  14.556
48797W        W21222  26.969  42.828  11.999
48798W        W21223   1.932  35.000  12.656
48799W        W21224  28.487  21.697   3.843
48800W        W21225  15.335  40.053  13.945
48801W        W21226  31.201  19.378  12.891
48802W        W21227  26.587  29.443   1.024
48803W        W21228   7.852  39.851   3.003
48804W        W21229  27.026   9.128   3.949
48805W        W21230   6.881  44.479   2.635
48806W        W21231  43.647   9.943   0.437
48807W        W21232  18.697  26.697  14.860
48808W        W21233   9.345  14.375   2.887
48809W        W21234  42.693  16.682  13.065
48810W        W21235  37.336  20.756  12.098
48811W        W21236  44.255  27.485  14.079
48812W        W21237  24.100  22.626  11.428
48813W        W21238  13.121  20.474   0.886
48814W        W21239  38.315  36.884  14.926
48815W        W21240  37.036   6.181   0.923
48816W        W21241  40.789   3.953   2.866
48817W        W21242  40.271  43.624   4.237
48818W        W21243  20.152  44.568  10.136
48819W        W21244   0.306  41.969  11.617
48820W        W21245  33.502  35.308  14.350
48821W        W21246  23.474   8.343   9.576
48822W        W21247  25.483  42.323  14.365
48823W        W21248  40.869  22.152  13.839
48824W        W21249  28.502  26.658  14.711
48825W        W21250   1.900  17.093   0.495
48826W        W21251  32.282  32.306  11.471
48827W        W21252  28.497   1.516   2.728
48828W        W21253  32.883  26.064   4.236
48829W        W21254   3.975  22.482  13.338
48830W        W21255  35.770   9.318   0.867
48831W        W21256  12.311  44.921   1.839
48832W        W21257  24.209   9.104  11.962
48833W        W21258   0.845  27.606   2.615
48834W        W21259  37.155  42.884  13.409
48835W        W21260  15.681  30.695  13.775
48836W        W21261  12.380  28.039   2.837
48837W        W21262  16.372  23.560   3.930
48838W        W21263  35.177  19.665  11.570
48839W        W21264  23.787   5.381   3.480
48840W        W21265  20.837   9.351  13.964
48841W        W21266  42.706  15.163   2.564
48842W        W21267  13.184  33.460  12.063
48843W        W21268   2.742   9.119   2.403
48844W        W21269  44.132  38.318   1.377
48845W        W21270   3.442  43.421  11.088
48846W        W21271  24.198  17.308  13.415
48847W        W21272  34.402  11.072  13.241
48848W        W21273  31.813  18.463   2.737
48849W        W21274  35.358  22.107   1.333
48850W        W21275  18.189  36.503   3.890
48851W        W21276  18.834  41.795   3.688
48852W        W21277   0.832  33.993  11.738
48853W        W21278  37.859  23.130  12.909
48854W        W21279  20.436  37.992  13.313
48855W        W21280  13.756  12.755   4.648
48856W        W21281  15.081  43.296   2.870
48857W        W21282  14.198  23.625  12.431
48858W        W21283  18.281  40.289  13.619
48859W        W21284  37.390   7.721  14.489
48860W        W21285  37.458  22.539   3.840
48861W        W21286   1.917  19.674  12.356
48862W        W21287  35.231   9.948   3.047
48863W        W21288  36.484  36.109   1.382
48864W        W21289  40.805  44.029   0.042
48865W        W21290  34.083  11.257  13.984
48866W        W21291   9.219  11.138  10.527
48867W        W21292  40.394  39.134   0.735
48868W        W21293  44.451  10.585   0.454
48869W        W21294  43.386  12.411  12.572
48870W        W21295  35.548   7.053  11.060
48871W        W21296   9.481   0.780  10.947
48872W        W21297  24.078  39.887  11.593
48873W        W21298  25.640  10.664  10.427
48874W        W21299  42.182  16.049  12.310
48875W        W21300  30.614  28.168   3.122
48876W        W21301  42.154   7.224   2.013
48877W        W21302  22.459  29.456  10.528
48878W        W21303  32.700   9.138  12.893
48879W        W21304  11.904  17.590   3.075
48880W        W21305   9.110  30.822  11.191
48881W        W21306  20.635  36.829  10.733
48882W        W21307  14.885  16.558  10.657
48883W        W21308  14.882   8.889  12.979
48884W        W21309  27.272  37.372  12.576
48885W        W21310  42.681  34.378   0.416
48886W        W21311  42.095  27.453   1.872
48887W        W21312  27.613   4.196   1.866
48888W        W21313  33.063  29.234   2.770
48889W        W21314  32.694  23.102   1.951
48890W        W21315  40.512  12.551   1.402
48891W        W21316  24.026  14.904  13.020
48892W        W21317  11.595  21.955  13.765
48893W        W21318  12.241  35.847   2.674
48894W        W21319  23.355  15.243  10.689
48895W        W21320  25.621  40.186  14.842
48896W        W21321  29.070   2.690   3.222
48897W        W21322  12.698  24.171  11.019
48898W        W21323  19.605  37.589   0.503
48899W        W21324   1.786  11.129   4.225
48900W        W21325  26.658   0.245   3.267
48901W        W21326  21.196  33.506  11.793
48902W        W21327  13.317   5.667  12.450
48903W        W21328   1.019   3.326   4.091
48904W        W21329  19.057  42.323  12.810
48905W        W21330   3.827  28.018  13.366
48906W        W21331  36.601   1.457  14.918
48907W        W21332  32.525  41.846  11.636
48908W        W21333  44.284  40.732  12.376
48909W        W21334   1.292   2.454  14.324
48910W        W21335  29.140  12.278  12.883
48911W        W21336  38.320  14.429   3.815
48912W        W21337  42.853  30.641   1.156
48913W        W21338  17.669  44.471   2.149
48914W        W21339  41.746   5.214  14.027
48915W        W21340  39.034   0.845   5.088
48916W        W21341  15.987  35.672   1.283
48917W        W21342  33.003  22.510   4.059
48918W        W21343  18.367  31.459  13.151
48919W        W21344  29.474  26.297   0.774
48920W        W21345  31.010  10.867   2.724
48921W        W21346  44.751  42.309   3.859
48922W        W21347  29.730  18.824  11.628
48923W        W21348  12.900   2.788   3.466
48924W        W21349  12.763   9.114   2.731
48925W        W21350  14.767  12.040  14.928
48926W        W21351   9.437  34.924   4.266
48927W        W21352   8.673  21.217  10.877
48928W        W21353  14.993  23.552  10.689
48929W        W21354  34.185  38.324   1.832
48930W        W21355   8.771  16.296  13.077
48931W        W21356   5.126  21.068  14.128
48932W        W21357  41.506  14.086  10.699
48933W        W21358  22.210  24.235  11.407
48934W        W21359  40.199  39.114  10.174
48935W        W21360  14.736   8.294   3.888
48936W        W21361   9.644   2.637  12.385
48937W        W21362  39.232  29.983  12.067
48938W        W21363  29.970  39.566   1.859
48939W        W21364  12.958  19.009  10.979
48940W        W21365  33.777  11.698  13.880
48941W        W21366  43.444  15.522   0.385
48942W        W21367   3.004   2.819  14.002
48943W        W21368   2.889  28.639   2.855
48944W        W21369  10.867  14.070  12.497
48945W        W21370  41.348  16.676  11.505
48946W        W21371  25.072  35.065   0.948
48947W        W21372  40.790  21.119   0.809
48948W        W21373  42.202  44.020   0.809
48949W        W21374  30.153  33.121  11.796
48950W        W21375  13.778  40.073   1.467
48951W        W21376  36.338  24.960  10.548
48952W        W21377   5.451  12.828   0.747
48953W        W21378  15.033  11.373  12.607
48954W        W21379  29.077  25.975  11.686
48955W        W21380  39.848  25.792   2.827
48956W        W21381  26.760  34.885   5.356
48957W        W21382  28.139  43.400   1.304
48958W        W21383  17.156  22.617   0.765
48959W        W21384  37.418  28.033  10.666
48960W        W21385  34.048  37.601   2.310
48961W        W21386  22.033   6.542  11.078
48962W        W21387  16.285  32.185  13.023
48963W        W21388  17.080  11.648  12.410
48964W        W21389  40.786  30.731  11.288
48965W        W21390  20.569  39.900  12.414
48966W        W21391  21.843   3.530  10.617
48967W        W21392  16.308  17.845  11.501
48968W        W21393   2.479  28.579  13.357
48969W        W21394  42.937  19.394   2.244
48970W        W21395   9.399  35.909  11.952
48971W        W21396   6.241  19.669   2.157
48972W        W21397   7.845  36.794  10.778
48973W        W21398   0.340  43.428   1.934
48974W        W21399   7.031   3.314  12.797
48975W        W21400  19.099  43.394   3.296
48976W        W21401   0.798  13.862  14.978
48977W        W21402   4.748   1.348  10.246
48978W        W21403  30.847  40.367   2.112
48979W        W21404   0.900  31.925   1.379
48980W        W21405  33.903  20.273   1.197
48981W        W21406  28.393  30.012  12.139
48982W        W21407  12.881  44.870   4.190
48983W        W21408  35.828  19.218  11.080
48984W        W21409   8.407   5.441   1.730
48985W        W21410  40.262   5.379  13.899
48986W        W21411   8.920  28.825  14.029
48987W        W21412  37.549  38.856  14.161
48988W        W21413  18.750  26.065   3.229
48989W        W21414  17.574  35.374   4.477
48990W        W21415  36.381  13.365   0.385
48991W        W21416  36.833   7.810   2.429
48992W        W21417  11.709   1.680   4.568
48993W        W21418  13.248  42.742  13.770
48994W        W21419  41.046  11.862  12.824
48995W        W21420  32.241  27.563   3.669
48996W        W21421  43.017  19.077   3.140
48997W        W21422  10.604  18.124   4.443
48998W        W21423  23.774  34.908   0.794
48999W        W21424  17.800  31.396   0.757
49000W        W21425  32.160  10.243  13.972
49001W        W21426   6.208  41.472  13.646
49002W        W21427  38.971  28.825  11.578
49003W        W21428  41.416  36.979   2.471
49004W        W21429  25.540  22.991  12.041
49005W        W21430   4.414  25.490   0.341
49006W        W21431  18.872   3.839   0.380
49007W        W21432  14.109  23.769   4.553
49008W        W21433  18.014   1.238   2.282
49009W        W21434  12.303  15.338  11.485
49010W        W21435  18.706  18.194   1.603
49011W        W21436  33.453   7.411  12.918
49012W        W21437  33.256   3.763  13.387
49013W        W21438  36.528  18.548   4.679
49014W        W21439  37.000  28.106  14.897
49015W        W21440  16.536  27.933   3.203
49016W        W21441  28.644   0.462   1.812
49017W        W21442  18.679  13.693  11.437
49018W        W21443   3.794  32.521  13.288
49019W        W21444  38.768  30.686   4.665
49020W        W21445  42.780   9.634   3.712
49021W        W21446  38.330  36.567   3.571
49022W        W21447  12.300  19.455  14.832
49023W        W21448  43.704  13.920  12.013
49024W        W21449  35.540  40.479   1.006
49025W        W21450  10.180   3.458   0.247
49026W        W21451  29.888  15.361   2.204
49027W        W21452   1.689  37.347  10.781
49028W        W21453  34.502   0.312   4.477
49029W        W21454  35.066  39.818  13.588
49030W        W21455  12.494  21.788   5.738
49031W        W21456   7.340  14.327   3.290
49032W        W21457  14.770  22.683   0.444
49033W        W21458  26.503  39.872  12.578
49034W        W21459  37.032   8.254   4.133
49035W        W21460  27.874  36.992   0.982
49036W        W21461   3.136   8.400   3.619
49037W        W21462  26.276   6.683  13.385
49038W        W21463  22.375  23.291   1.312
49039W        W21464  39.497  10.849  13.827
49040W        W21465  20.713   3.557   5.195
49041W        W21466  31.746  28.005   5.066
49042W        W21467   9.158  11.735  14.939
49043W        W21468  24.080  37.908  11.127
49044W        W21469  17.809  18.415  13.894
49045W        W21470  34.086  11.641   4.629
49046W        W21471  17.082   0.524  10.689
49047W        W21472  43.942  27.849  13.614
49048W        W21473  12.835   8.799   4.166
49049W        W21474  27.444  42.376  13.368
49050W        W21475  15.223  17.410  14.344
49051W        W21476  15.747   6.901  11.235
49052W        W21477  20.046  14.802   2.875
49053W        W21478  13.703  32.577   0.333
49054W        W21479   5.512  41.799   3.357
49055W        W21480  43.057  44.811  11.998
49056W        W21481  33.363  41.381   3.105
49057W        W21482   0.330   4.334  10.476
49058W        W21483   7.405  38.451   0.817
49059W        W21484  17.856  39.344   3.681
49060W        W21485  24.458   2.000   1.736
49061W        W21486  20.037  36.080  12.660
49062W        W21487  28.886  21.686   4.204
49063W        W21488  21.765  16.038   1.795
49064W        W21489  33.063  21.595  13.716
49065W        W21490   7.941   8.931   1.733
49066W        W21491  13.721   9.123  11.209
49067W        W21492  20.163  26.946   4.668
49068W        W21493   4.661  14.284  13.440
49069W        W21494  14.108  10.255  12.668
49070W        W21495  32.412  41.349   3.656
49071W        W21496  19.736   0.973  13.864
49072W        W21497  43.789  14.452  11.117
49073W        W21498  41.843  24.655  14.524
49074W        W21499  30.165  30.216  13.371
49075W        W21500  20.566   8.728  11.308
49076W        W21501  43.209  40.436  10.464
49077W        W21502  35.497   9.335   1.313
49078W        W21503  40.039  19.184  10.742
49079W        W21504  28.977  11.379  12.332
49080W        W21505   6.846  13.085   2.193
49081W        W21506   6.371  10.161   1.861
49082W        W21507  31.180  20.243   2.875
49083W        W21508  15.593  21.224  13.801
49084W        W21509  21.543  19.719   1.818
49085W        W21510   4.230   7.636  14.563
49086W        W21511   5.405   2.630   2.309
49087W        W21512  31.638  22.790  12.086
49088W        W21513   4.821  19.720  12.374
49089W        W21514  43.790  29.671   1.527
49090W        W21515   9.517  27.896  10.706
49091W        W21516  33.897  32.987  12.479
49092W        W21517   2.271  31.824  13.922
49093W        W21518   4.257  29.397  10.424
49094W        W21519  17.669  43.846   4.751
49095W        W21520  35.528  41.846   3.941
49096W        W21521  32.139  14.989  10.847
49097W        W21522  15.708  10.000  11.191
49098W        W21523   0.496  24.736   2.627
49099W        W21524  39.577  22.195  14.514
49100W        W21525  43.180  22.238  13.065
49101W        W21526  27.500  25.660  13.496
49102W        W21527   7.527  32.022   3.736
49103W        W21528  40.031  14.770  11.020
49104W        W21529  16.756   3.366  12.661
49105W        W21530  26.161  42.009  14.807
49106W        W21531  31.356  44.985  13.997
49107W        W21532  39.714  24.562  10.697
49108W        W21533  12.228  32.920  11.960
49109W        W21534  32.784  15.638  13.814
49110W        W21535  38.010  17.351  13.506
49111W        W21536  16.726   2.883  12.391
49112W        W21537  10.261  34.709   0.766
49113W        W21538  35.033  44.228   3.659
49114W        W21539  19.035   2.287   9.725
49115W        W21540  23.217   5.227  12.046
49116W        W21541  36.755   3.249  10.406
49117W        W21542  15.286  22.482   1.370
49118W        W21543  40.657  27.170  10.885
49119W        W21544   3.535   6.444   1.177
49120W        W21545   3.717  28.943   1.778
49121W        W21546  22.514  44.751  14.832
49122W        W21547   6.850  43.977  14.233
49123W        W21548  28.590  35.848   0.291
49124W        W21549  32.982   2.097   3.604
49125W        W21550   7.158   9.489  12.914
49126W        W21551  32.638  19.214  10.021
49127W        W21552  21.340  29.112   2.646
49128W        W21553  19.739  24.583  13.675
49129W        W21554  24.028  25.186   0.320
49130W        W21555  42.664   8.707  14.908
49131W        W21556   6.442  36.378  14.823
49132W        W21557  28.513  36.247   3.300
49133W        W21558   0.261  16.276  11.599
49134W        W21559   3.843  35.455  13.722
49135W        W21560   0.135  26.579  14.329
49136W        W21561  44.420  20.579  14.327
49137W        W21562  44.470  34.918  12.052
49138W        W21563  16.310  22.765   4.514
49139W        W21564  36.936  21.931   3.853
49140W        W21565  31.715  11.929   1.861
49141W        W21566   2.493   3.063  13.135
49142W        W21567  39.964  19.649  10.930
49143W        W21568  12.245  29.477   3.167
49144W        W21569  26.634  30.419   1.038
49145W        W21570  36.028  13.317   1.753
49146W        W21571  38.055  37.620   1.918
49147W        W21572   7.393  40.029   2.837
49148W        W21573  32.388  13.318  11.150
49149W        W21574  34.519  44.814   2.964
49150W        W21575  36.547   5.910   4.468
49151W        W21576  42.759  30.558  10.824
49152W        W21577   4.415   7.680   3.251
49153W        W21578  23.012  41.959  12.578
49154W        W21579  22.130  24.263  12.434
49155W        W21580  11.316  31.271  12.926
49156W        W21581   5.807  24.165   4.887
49157W        W21582   6.968  38.051   5.057
49158W        W21583  44.661  43.953   1.392
49159W        W21584  41.495  32.210  14.894
49160W        W21585   7.788  16.318  11.177
49161W        W21586   5.331  37.170   0.957
49162W        W21587  35.953  34.994   2.662
49163W        W21588   6.294  33.584  11.082
49164W        W21589  39.852  36.814   4.140
49165W        W21590   8.734   8.865  10.028
49166W        W21591  13.379  12.871  12.162
49167W        W21592  44.952   1.494  14.847
49168W        W21593  41.622  38.302  12.810
49169W        W21594  27.712  38.457  13.725
49170W        W21595   8.234  39.701  12.895
49171W        W21596  11.384  12.038  12.586
49172W        W21597   1.072  43.039   4.120
49173W        W21598  14.996  11.941  13.148
49174W        W21599  37.525  32.178   2.919
49175W        W21600   0.436  41.924   3.229
49176W        W21601  35.433  23.555  13.950
49177W        W21602  44.083  36.480   1.034
49178W        W21603  14.080  37.600  12.354
49179W        W21604  36.893   3.130  13.052
49180W        W21605  11.588  38.320   2.778
49181W        W21606  40.723  22.524  11.876
49182W        W21607  20.547  13.830  11.194
49183W        W21608  35.857  21.777   1.436
49184W        W21609  42.510   9.376  13.809
49185W        W21610  28.695  40.011  12.053
49186W        W21611  44.245  14.176  10.426
49187W        W21612  33.824  19.748   2.255
49188W        W21613  16.676  21.385   0.743
49189W        W21614  30.855  18.126  11.183
49190W        W21615  19.739  42.777   1.420
49191W        W21616  33.552   8.242  14.431
49192W        W21617  36.974  35.540   0.323
49193W        W21618  27.567  10.553  11.957
49194W        W21619  16.221  19.826  14.370
49195W        W21620  19.302  35.326   1.581
49196W        W21621  21.483  27.534   3.154
49197W        W21622  24.985  36.874  13.895
49198W        W21623  22.261  32.393   1.992
49199W        W21624   1.295  11.613   0.699
49200W        W21625   2.761  18.343  14.172
49201W        W21626   6.341  27.212  12.942
49202W        W21627  35.769  40.040   2.879
49203W        W21628  24.207   5.221  11.844
49204W        W21629  36.745  37.780  14.727
49205W        W21630  28.059  20.186  11.651
49206W        W21631  39.030  32.530   2.611
49207W        W21632   1.182  37.812   0.504
49208W        W21633  38.976  22.713   1.748
49209W        W21634   9.614   7.214  10.335
49210W        W21635   9.317  23.936  10.760
49211W        W21636  30.146   3.387   1.312
49212W        W21637  35.825  29.479  14.847
49213W        W21638   7.706   0.720   4.280
49214W        W21639  39.057  40.296  11.481
49215W        W21640   0.128  10.689   4.706
49216W        W21641  26.947   6.792  11.673
49217W        W21642  31.113  32.306   1.460
49218W        W21643  16.184  31.142   2.912
49219W        W21644   0.839  24.661   1.259
49220W        W21645   0.311  16.092   0.291
49221W        W21646  13.751  43.206   0.686
49222W        W21647  15.239  16.208  14.223
49223W        W21648  39.484  38.943  14.440
49224W        W21649   1.869  20.816   0.450
49225W        W21650  31.242  23.272  11.457
49226W        W21651  37.578  39.063  13.385
49227W        W21652   2.037  39.799  11.588
49228W        W21653  17.221  40.408   3.167
49229W        W21654  22.828  32.621   4.785
49230W        W21655  11.890  21.502   2.194
49231W        W21656  44.357  30.413  14.362
49232W        W21657   0.207  24.022   0.407
49233W        W21658   0.220  35.366   1.767
49234W        W21659  15.973   3.289   4.848
49235W        W21660  11.190  39.576   3.779
49236W        W21661  26.211  31.117   2.149
49237W        W21662  13.725   8.686  14.536
49238W        W21663  15.672  32.390   1.902
49239W        W21664  29.187  16.330  11.615
49240W        W21665  13.120  21.916  11.573
49241W        W21666  19.612   5.426   1.358
49242W        W21667  32.382  19.657   3.861
49243W        W21668  10.400  34.897   1.797
49244W        W21669   2.766  34.613  14.892
49245W        W21670  10.018   8.273   4.187
49246W        W21671  33.823   9.622   4.363
49247W        W21672  42.497  24.295  12.575
49248W        W21673  23.538  39.038  14.386
49249W        W21674   7.117  12.220   2.010
49250W        W21675  25.150  21.969   4.170
49251W        W21676   9.115  23.724   0.408
49252W        W21677  11.932  25.537   1.893
49253W        W21678  39.482  38.865   0.741
49254W        W21679  38.565  24.040   0.805
49255W        W21680  32.334  35.284  13.492
49256W        W21681  18.154  21.640   1.347
49257W        W21682  20.324  37.907   4.681
49258W        W21683  42.233  43.297  14.872
49259W        W21684  36.855  26.488   5.260
49260W        W21685  39.367  41.700  10.217
49261W        W21686  34.042   5.393   4.718
49262W        W21687  17.718   8.952  12.834
49263W        W21688  16.446  21.142  13.953
49264W        W21689  14.242  24.513   0.861
49265W        W21690  19.769   3.030   0.283
49266W        W21691  15.721  17.049   0.807
49267W        W21692  26.332   8.689   1.597
49268W        W21693   3.439   1.000   2.229
49269W        W21694  29.898  31.561   2.072
49270W        W21695  29.055  38.342   1.353
49271W        W21696   5.838  20.535   3.311
49272W        W21697   4.189  35.330   5.012
49273W        W21698  22.924  36.995  10.681
49274W        W21699  12.245  27.857   0.936
49275W        W21700  26.102  18.781  12.011
49276W        W21701  12.202  22.226  11.645
49277W        W21702  24.737  25.987  13.419
49278W        W21703   5.752  44.709  13.806
49279W        W21704  31.515  20.005  13.631
49280W        W21705  12.278  24.134  13.455
49281W        W21706  22.510   0.990   5.033
49282W        W21707  35.330  38.571  11.113
49283W        W21708  17.820   9.812  13.457
49284W        W21709  28.450  11.420   0.379
49285W        W21710  42.092   1.322   0.119
49286W        W21711   6.884  17.332  12.415
49287W        W21712  34.101  17.076  14.998
49288W        W21713  37.752   8.401   2.223
49289W        W21714  31.745  24.459  12.557
49290W        W21715  34.488  42.460  14.460
49291W        W21716  20.590  41.575   3.265
49292W        W21717  35.838  29.552   4.801
49293W        W21718  36.501  18.270  12.364
49294W        W21719  27.978   4.710   3.756
49295W        W21720  14.512   9.658  14.860
49296W        W21721  18.597  30.625   2.124
49297W        W21722  21.294   8.717  12.450
49298W        W21723   9.540   0.263  12.220
49299W        W21724  38.040   2.937   0.344
49300W        W21725   6.809   8.968  10.658
49301W        W21726  17.542  19.881   3.240
49302W        W21727  23.076  33.180  10.676
49303W        W21728  26.678  31.567   0.554
49304W        W21729   6.434  19.305   1.794
49305W        W21730  10.225  27.254   5.057
49306W        W21731  10.130  43.356   0.030
49307W        W21732   3.129  40.312   5.087
49308W        W21733  26.059  12.856  13.560
49309W        W21734  13.284  11.852  11.910
49310W        W21735   0.051  28.432  12.546
49311W        W21736  33.605  17.323   4.007
49312W        W21737  17.061   6.351   2.569
49313W        W21738  41.316   7.667   4.057
49314W        W21739  13.877  16.623  13.271
49315W        W21740  26.621  41.697  10.077
49316W        W21741   0.436   5.069  13.306
49317W        W21742  42.210  26.933  14.930
49318W        W21743  42.441   6.608  12.010
49319W        W21744  25.722  15.279   3.713
49320W        W21745  41.412  25.681  10.671
49321W        W21746  10.773  27.193  10.709
49322W        W21747  41.568  19.804   1.933
49323W        W21748  43.691  23.421   4.507
49324W        W21749  10.569   0.193   3.258
49325W        W21750  41.825  31.897  11.744
49326W        W21751  18.791  29.492  10.906
49327W        W21752  39.862  36.974  13.009
49328W        W21753  20.322  17.877  14.768
49329W        W21754  12.392  17.678  14.983
49330W        W21755   1.380   0.411  12.820
49331W        W21756   3.177  22.061  11.849
49332W        W21757  35.602  27.208   2.858
49333W        W21758  12.085  35.033   1.386
49334W        W21759   6.943  35.968   4.757
49335W        W21760  29.483  24.191  10.659
49336W        W21761  12.603  18.610  14.929
49337W        W21762  42.054   6.240  13.792
49338W        W21763  31.464  10.348   2.620
49339W        W21764  40.877  37.593   0.535
49340W        W21765  24.007  33.994  13.953
49341W        W21766  31.498  13.065   4.297
49342W        W21767   8.773   6.958  13.425
49343W        W21768  28.475  18.215  13.119
49344W        W21769  20.494  22.255  11.090
49345W        W21770  44.470  35.157  13.404
49346W        W21771  29.723  32.444   0.464
49347W        W21772  39.255  43.347  11.943
49348W        W21773  26.138  16.552  13.069
49349W        W21774  11.064  28.183  12.096
49350W        W21775  11.493  15.133   3.677
49351W        W21776   9.277  29.126  14.968
49352W        W21777  42.803  40.065   0.974
49353W        W21778   0.960  30.882   1.500
49354W        W21779  16.090  28.849   1.231
49355W        W21780  34.410   3.781   4.259
49356W        W21781  39.581  44.246   0.256
49357W        W21782  44.542  11.736   2.056
49358W        W21783  41.300  41.063  13.924
49359W        W21784  13.294   3.860   0.516
49360W        W21785  38.968   7.349   3.044
49361W        W21786  43.490   5.809   0.341
49362W        W21787   0.800   7.586   4.037
49363W        W21788  33.608  40.470  14.693
49364W        W21789  36.468  23.286  12.089
49365W        W21790  17.116  25.241  11.554
49366W        W21791  31.554  22.240   2.332
49367W        W21792  26.929  27.984   3.800
49368W        W21793  42.869  12.616  10.997
49369W        W21794   3.493  26.026   4.734
49370W        W21795   5.878  17.181   2.777
49371W        W21796  24.497   2.551  13.930
49372W        W21797  28.459  11.635  11.002
49373W        W21798   6.434   9.126   4.176
49374W        W21799   7.702   5.764  12.932
49375W        W21800  11.746  20.480  12.024
49376W        W21801  38.283  37.640  12.582
49377W        W21802  33.142  36.897   0.682
49378W        W21803   6.879  25.691  12.063
49379W        W21804  26.661  35.111   2.443
49380W        W21805  14.739   6.353  14.489
49381W        W21806  19.000  40.678  11.006
49382W        W21807  29.735  33.410  11.604
49383W        W21808  22.221  20.341   1.270
49384W        W21809  36.589  14.277   4.473
49385W        W21810   7.638   9.308  12.892
49386W        W21811  22.984  29.308   0.437
49387W        W21812  13.615   1.878  10.751
49388W        W21813  29.919  41.988   3.193
49389W        W21814  35.354   2.684  11.491
49390W        W21815  23.027  28.498  12.416
49391W        W21816  38.517  32.885  11.424
49392W        W21817   8.516   9.089  12.895
49393W        W21818  18.164  23.577  14.920
49394W        W21819  28.331  44.594   9.647
49395W        W21820  20.992  42.342   0.952
49396W        W21821  18.585  24.625  12.345
49397W        W21822  12.932  16.245   1.367
49398W        W21823  26.303  34.337   2.475
49399W        W21824  19.452  36.137  11.176
49400W        W21825  41.882  23.137  14.845
49401W        W21826   3.398  10.187  13.904
49402W        W21827   5.437   9.657  12.489
49403W        W21828   8.409  39.407   1.886
49404W        W21829  37.408  12.042   2.629
49405W        W21830   3.234  10.445  14.329
49406W        W21831   1.792   5.266   2.444
49407W        W21832  39.821   2.007  13.503
49408W        W21833   8.728  31.184  14.379
49409W        W21834   8.105  44.964  13.035
49410W        W21835   9.289  36.961   1.175
49411W        W21836  21.501  24.064   2.384
49412W        W21837  31.558  21.262   4.464
49413W        W21838  22.786  11.334   3.287
49414W        W21839  32.142   3.456   4.240
49415W        W21840   9.447  34.338   2.800
49416W        W21841   0.108  17.006   0.764
49417W        W21842  41.256  11.833  14.996
49418W        W21843  43.597   0.650  11.211
49419W        W21844  29.219  21.526   0.316
49420W        W21845  41.861   4.962   2.306
49421W        W21846  35.948  39.811  14.772
49422W        W21847  27.971   2.456  12.123
49423W        W21848  31.945  38.903  10.470
49424W        W21849  17.640  10.718   1.494
49425W        W21850   6.463  24.929  11.139
49426W        W21851  28.633  38.653   1.329
49427W        W21852  44.019  40.901   3.823
49428W        W21853  14.310   2.193  14.403
49429W        W21854  43.848   4.116   2.346
49430W        W21855   5.780  26.131   3.129
49431W        W21856   8.316  37.480   0.828
49432W        W21857  29.847  34.268   0.503
49433W        W21858  22.089  32.451  10.631
49434W        W21859   9.769  27.394   2.639
49435W        W21860   0.703  37.081  11.916
49436W        W21861  13.073   2.650  11.131
49437W        W21862   7.746  14.707   0.866
49438W        W21863  33.050   5.764   3.202
49439W        W21864  18.458  35.484  13.294
49440W        W21865   3.957  40.765  12.168
49441W        W21866  27.049  35.843   3.209
49442W        W21867  11.737  10.013   3.204
49443W        W21868  33.542  11.263  14.090
49444W        W21869  19.360  24.727  11.123
49445W        W21870  22.353  10.662  12.871
49446W        W21871  17.649  44.251  14.393
49447W        W21872  12.581  19.156   4.846
49448W        W21873  28.696  10.654  10.953
49449W        W21874  11.704   2.940   4.116
49450W        W21875  37.915  36.080   3.055
49451W        W21876  37.905  34.492   1.404
49452W        W21877   1.390   3.863  12.655
49453W        W21878  44.986   1.747   4.887
49454W        W21879   5.900  16.545   4.449
49455W        W21880  35.563  24.529  14.990
49456W        W21881  23.173   9.703   4.711
49457W        W21882  39.436  26.464   0.988
49458W        W21883  35.812  24.587   4.038
49459W        W21884  12.840   3.403  13.517
49460W        W21885  21.779  35.375   0.025
49461W        W21886   3.971  37.898   1.962
49462W        W21887  12.547  32.979   1.274
49463W        W21888  35.465  39.971  14.935
49464W        W21889   6.450  39.945   3.380
49465W        W21890  41.196  21.162  11.058
49466W        W21891  34.518  35.532  12.284
49467W        W21892  26.771  16.584  12.479
49468W        W21893  11.254  31.998   0.258
49469W        W21894  23.375  21.164   0.647
49470W        W21895   3.965   7.251   1.159
49471W        W21896   4.966  14.089  10.916
49472W        W21897  24.581  44.519  13.834
49473W        W21898  36.142  36.862   4.590
49474W        W21899  35.821   3.783  13.264
49475W        W21900   8.822  44.205   3.870
49476W        W21901  24.066  32.588  14.040
49477W        W21902  22.575  14.617  13.418
49478W        W21903   4.571  36.370   3.820
49479W        W21904  44.352  18.121  10.352
49480W        W21905  18.158  25.301  12.024
49481W        W21906  34.547  35.917   2.322
49482W        W21907   5.396  31.197   4.911
49483W        W21908  19.476  23.319   4.144
49484W        W21909  18.733   6.655   4.613
49485W        W21910  38.928   6.212  13.923
49486W        W21911  14.062  24.769  13.447
49487W        W21912  41.832  39.544  13.995
49488W        W21913  12.078   6.008  11.502
49489W        W21914  10.624  22.089  10.400
49490W        W21915  35.870   0.500   4.586
49491W        W21916  43.599  17.796  12.370
49492W        W21917  13.645  41.332   1.767
49493W        W21918  14.311  31.527   2.393
49494W        W21919  19.893  12.982  12.773
49495W        W21920  26.162   0.285  13.068
49496W        W21921  32.798  21.066   2.772
49497W        W21922  42.341   6.841   1.723
49498W        W21923  33.340  38.704   0.743
49499W        W21924  25.210   0.937  13.934
49500W        W21925  12.575  30.525  14.401
49501W        W21926   9.172  40.140  14.403
49502W        W21927  32.981   5.282  10.496
49503W        W21928  24.560   4.953   4.247
49504W        W21929   2.305   0.391   2.763
49505W        W21930  34.056  35.089  11.931
49506W        W21931  42.772  27.586  12.072
49507W        W21932  28.888   3.681   4.017
49508W        W21933  20.785  10.698   3.752
49509W        W21934  31.862   8.843  11.616
49510W        W21935   7.743  30.537  12.190
49511W        W21936   7.024   7.687  14.449
49512W        W21937  22.224  12.925  13.792
49513W        W21938   1.792  14.134  14.315
49514W        W21939  39.519  38.343   2.207
49515W        W21940   7.229  22.356   3.581
49516W        W21941  18.260  20.632   1.406
49517W        W21942  16.124  30.537  12.177
49518W        W21943  29.626  42.825  12.839
49519W        W21944   3.703  30.335  11.205
49520W        W21945  24.313  40.448   3.717
49521W        W21946  18.317  18.570   1.421
49522W        W21947  29.734   5.428  13.881
49523W        W21948  17.079  10.951  12.957
49524W        W21949  15.165  34.940   3.391
49525W        W21950  35.662   8.725   3.600
49526W        W21951  34.180  28.527  11.236
49527W        W21952  35.875   3.272   4.526
49528W        W21953  21.261   6.805  11.477
49529W        W21954  15.534  17.502  13.584
49530W        W21955  17.722  35.066  10.702
49531W        W21956  43.855   0.092  14.681
49532W        W21957  19.746  17.855  10.473
49533W        W21958   7.110  27.538  12.297
49534W        W21959   9.037  29.469   0.602
49535W        W21960  20.036  19.677  13.183
49536W        W21961  16.127  35.367  14.815
49537W        W21962  42.523  23.377  11.859
49538W        W21963   1.418   7.466   2.715
49539W        W21964  31.672   3.909  10.631
49540W        W21965  44.949   8.201  14.093
49541W        W21966  37.248  31.928   4.709
49542W        W21967   2.276  36.330  11.182
49543W        W21968   0.648  35.835  11.659
49544W        W21969  25.456  43.001  12.105
49545W        W21970  10.911   0.759   4.139
49546W        W21971  14.327  31.998   3.204
49547W        W21972   9.149  44.897   2.803
49548W        W21973   7.258  22.844   4.396
49549W        W21974   3.675  17.933  12.537
49550W        W21975  26.101  20.090   0.923
49551W        W21976   0.794  17.840  11.083
49552W        W21977   0.840  28.660   1.069
49553W        W21978  19.571   6.882  12.561
49554W        W21979  44.979  36.075   2.174
49555W        W21980  35.036  16.331  12.995
49556W        W21981  14.590  24.127  13.885
49557W        W21982  37.509   0.252  11.161
49558W        W21983  16.856   4.279   1.192
49559W        W21984  32.552  29.596   3.771
49560W        W21985  33.485   4.797   3.713
49561W        W21986  33.341  38.810   2.294
49562W        W21987  18.264   7.489   4.882
49563W        W21988  38.430  39.350   2.317
49564W        W21989  27.591  40.794  12.629
49565W        W21990  28.490  12.750  12.387
49566W        W21991   0.780  25.464  14.321
49567W        W21992  12.919  37.462  14.958
49568W        W21993  22.817  13.592   1.486
49569W        W21994  14.140  16.749  14.225
49570W        W21995   6.745   8.440  13.574
49571W        W21996  41.622  41.390   3.378
49572W        W21997  30.997  42.579   3.325
49573W        W21998  39.565  28.590  11.101
49574W        W21999  28.646  33.907  10.225
49575W        W22000  22.685  22.475  12.094
49576W        W22001  21.656  21.464  11.706
49577W        W22002  42.389  41.492   2.743
49578W        W22003  32.438  21.236  14.225
49579W        W22004   9.620  10.383  10.285
49580W        W22005  35.491   0.788  11.620
49581W        W22006   4.214  18.007  12.490
49582W        W22007  12.689  36.926  13.755
49583W        W22008  19.999  44.817  12.728
49584W        W22009   7.212  16.658  13.500
49585W        W22010  31.450  22.202   2.836
49586W        W22011   4.289   3.325  14.538
49587W        W22012  22.038  22.530   0.395
49588W        W22013  10.117   6.753  14.730
49589W        W22014  13.825  36.350   4.705
49590W        W22015   0.739  23.932   4.616
49591W        W22016  43.530   4.124   0.279
49592W        W22017  15.232  22.121   4.233
49593W        W22018  39.431  26.747  11.282
49594W        W22019  38.898   9.276   1.164
49595W        W22020   9.323  20.311  13.377
49596W        W22021  18.704  36.320  10.671
49597W        W22022  33.682  33.349   3.105
49598W        W22023  20.511  37.327   2.876
49599W        W22024   8.456  39.109  11.039
49600W        W22025  15.522  22.990  14.198
49601W        W22026   2.419  16.105  12.524
49602W        W22027  15.971  42.700   4.895
49603W        W22028  23.629  15.263  12.546
49604W        W22029  18.251  30.130   4.962
49605W        W22030   2.474  16.865   1.755
49606W        W22031  14.167  20.932   0.815
49607W        W22032   0.858   3.974   2.664
49608W        W22033  18.784  38.040   3.788
49609W        W22034  13.825  13.083   2.358
49610W        W22035  41.983  25.546  12.595
49611W        W22036  34.947  28.159   4.813
49612W        W22037  42.920  24.010  12.469
49613W        W22038   7.788   5.804  13.901
49614W        W22039  20.586  34.845   0.271
49615W        W22040  41.101  40.928   2.210
49616W        W22041   0.928  28.995  13.114
49617W        W22042  18.303   8.507  13.432
49618W        W22043  24.392  10.101  13.566
49619W        W22044  15.002  35.971  13.382
49620W        W22045  43.571  30.434  12.125
49621W        W22046   4.779   7.003   0.887
49622W        W22047  33.841  18.624   0.855
49623W        W22048  35.429  10.628   4.652
49624W        W22049  19.674  41.512  11.913
49625W        W22050   1.872  21.513  10.912
49626W        W22051  33.257  23.819   5.059
49627W        W22052  27.489  35.437  12.137
49628W        W22053  16.995   8.628   4.836
49629W        W22054  35.047  14.307  13.358
49630W        W22055  10.443  23.156   3.694
49631W        W22056  14.738   0.944  11.146
49632W        W22057  16.006  21.286  10.658
49633W        W22058   2.758  30.829  12.608
49634W        W22059  36.067  30.027   3.628
49635W        W22060  25.239  13.597  14.945
49636W        W22061  32.426  16.737   3.785
49637W        W22062  26.947  31.148  12.544
49638W        W22063  25.024  20.742   3.789
49639W        W22064  20.009  22.880   0.706
49640W        W22065  20.994   2.990  10.915
49641W        W22066   9.192  36.769  14.853
49642W        W22067   7.194  29.541  13.325
49643W        W22068  15.380   5.842  11.480
49644W        W22069  36.352  13.207   2.156
49645W        W22070  42.833  35.882   2.381
49646W        W22071  40.506  36.931   3.782
49647W        W22072  20.097  37.308  10.108
49648W        W22073  16.163   8.613   4.621
49649W        W22074  26.328   5.177   3.601
49650W        W22075  29.885  20.546  14.416
49651W        W22076  20.104  28.911  14.078
49652W        W22077  18.982  31.140   2.693
49653W        W22078  37.946  31.821   3.616
49654W        W22079  22.674  28.634  12.066
49655W        W22080   6.879  15.874   0.047
49656W        W22081  35.688   0.335   4.141
49657W        W22082  38.931  43.840   5.000
49658W        W22083  27.589  32.354  14.964
49659W        W22084  29.997   7.944  12.156
49660W        W22085  16.190  14.051  11.592
49661W        W22086   3.608  18.676   3.796
49662W        W22087  37.087  35.569  14.677
49663W        W22088  16.842  36.497  12.010
49664W        W22089  41.933  33.611   3.692
49665W        W22090  35.666  35.854   4.162
49666W        W22091  14.005   4.321   2.684
49667W        W22092  41.043  39.734   1.855
49668W        W22093  23.708  20.245  11.190
49669W        W22094  43.809   6.412  11.967
49670W        W22095  18.517  24.778   4.588
49671W        W22096  27.105  36.091  11.098
49672W        W22097  44.819   4.130  14.121
49673W        W22098  35.277  20.142   3.294
49674W        W22099  30.969  28.125  14.799
49675W        W22100  17.385  24.151   1.200
49676W        W22101   1.972  37.968   1.800
49677W        W22102  38.758   7.200   4.677
49678W        W22103  13.118   3.310   1.795
49679W        W22104  25.136   6.298  13.858
49680W        W22105   6.537   1.372  10.646
49681W        W22106  18.689  23.987  14.055
49682W        W22107   8.186   7.827   2.332
49683W        W22108  16.863   3.401  13.534
49684W        W22109  17.731  27.173   2.081
49685W        W22110  33.138  23.085   3.626
49686W        W22111  28.986  20.975   3.721
49687W        W22112  38.031  14.258   2.921
49688W        W22113  11.390   8.117   2.235
49689W        W22114   4.942  17.102   2.928
49690W        W22115  31.629  33.402  10.485
49691W        W22116  23.715  26.505   4.146
49692W        W22117  15.315  10.619   2.882
49693W        W22118   6.007  25.422  12.937
49694W        W22119   3.271  19.448   3.725
49695W        W22120  27.028  39.530  13.301
49696W        W22121  19.604   9.745   1.609
49697W        W22122  29.986  22.537   2.794
49698W        W22123  38.733  31.855   0.853
49699W        W22124  26.957  26.825   4.520
49700W        W22125  17.524  21.592   0.801
49701W        W22126  24.226  22.992   5.256
49702W        W22127  41.749  15.285   0.274
49703W        W22128  18.624  27.443  13.856
49704W        W22129   3.244  26.512   1.339
49705W        W22130   4.745  39.894  12.993
49706W        W22131   4.228  30.208   0.380
49707W        W22132   0.974  13.535  12.396
49708W        W22133   9.887  19.505  14.744
49709W        W22134   3.167   7.866  13.942
49710W        W22135  23.610   8.282  12.668
49711W        W22136  12.950  11.291  14.396
49712W        W22137  34.826  35.528   0.412
49713W        W22138  32.638   0.480   1.021
49714W        W22139  28.619   0.552   0.478
49715W        W22140  12.790  14.409   4.127
49716W        W22141   5.481  35.486   2.927
49717W        W22142   4.709  24.878  10.058
49718W        W22143  41.274   1.473  10.602
49719W        W22144  32.876  17.237  13.618
49720W        W22145  12.295  39.545   4.934
49721W        W22146  12.316  24.545  10.868
49722W        W22147  42.196  20.040   3.688
49723W        W22148  14.054  38.857  12.705
49724W        W22149   5.823  34.524  11.124
49725W        W22150  31.312   9.884  11.559
49726W        W22151  44.421   0.825  10.703
49727W        W22152   7.836  23.518   2.308
49728W        W22153   8.663  25.224   1.210
49729W        W22154  24.901  29.989   2.656
49730W        W22155  26.667  34.457   0.941
49731W        W22156  24.067  18.846   2.171
49732W        W22157  43.349  20.195   0.859
49733W        W22158  26.673  26.902  14.722
49734W        W22159  17.869  22.023   0.705
49735W        W22160  42.122  21.587  12.575
49736W        W22161  18.611   1.897   0.689
49737W        W22162   5.776  18.324  10.905
49738W        W22163  43.340  44.005  10.339
49739W        W22164  44.784  38.515  13.432
49740W        W22165   2.160  34.317  12.099
49741W        W22166  10.655  32.935   3.469
49742W        W22167  22.591  43.145  13.331
49743W        W22168  24.798   5.448   4.247
49744W        W22169  37.061  12.430  13.413
49745W        W22170  41.332  38.878  12.431
49746W        W22171   5.411  17.524  14.827
49747W        W22172  17.233  10.250  12.427
49748W        W22173  27.552  29.554   2.739
49749W        W22174  10.224  27.018  11.973
49750W        W22175  16.670  23.944  11.520
49751W        W22176   4.735  25.638   2.902
49752W        W22177  19.587  40.050   2.381
49753W        W22178  37.930  42.951   3.564
49754W        W22179  43.100  28.149   4.560
49755W        W22180  30.052  18.718  13.783
49756W        W22181  16.827   6.183   1.435
49757W        W22182   0.852   2.319   3.904
49758W        W22183   1.449   4.792  13.347
49759W        W22184  31.434  19.708  14.079
49760W        W22185  12.787  15.640  14.195
49761W        W22186  34.641  36.675   1.000
49762W        W22187  38.608  18.727   4.293
49763W        W22188  29.485   4.263  10.754
49764W        W22189  32.705  23.261   3.851
49765W        W22190   8.760  16.562   2.656
49766W        W22191  32.264  33.895   3.264
49767W        W22192   2.257  17.677  14.325
49768W        W22193  24.126  20.570  13.036
49769W        W22194  10.286  34.374  10.617
49770W        W22195  18.540   6.825   0.911
49771W        W22196   7.905  16.362   1.685
49772W        W22197  23.231  33.160   0.933
49773W        W22198   4.719  29.663  10.383
49774W        W22199  16.745  12.326  12.519
49775W        W22200  20.369  24.129  12.068
49776W        W22201  19.568  10.599  13.862
49777W        W22202   1.864  44.295  11.552
49778W        W22203  44.254  29.168  11.258
49779W        W22204  34.996   6.890  12.723
49780W        W22205  27.114  36.463  14.315
49781W        W22206  37.837  29.618   2.911
49782W        W22207   6.689  43.838   1.748
49783W        W22208  42.227  42.629  10.712
49784W        W22209  44.567  41.683   4.775
49785W        W22210   6.463   3.577   1.880
49786W        W22211  41.579  43.469   2.873
49787W        W22212  38.846  44.945  12.988
49788W        W22213   4.427  26.146   1.528
49789W        W22214  30.193  14.323   2.229
49790W        W22215  38.232  11.291   3.746
49791W        W22216  14.258   4.465   2.248
49792W        W22217   8.791  25.106   4.238
49793W        W22218  26.068  28.219  12.953
49794W        W22219   8.531  23.654  11.912
49795W        W22220  19.301  23.144   0.382
49796W        W22221  37.660  33.828   3.168
49797W        W22222  33.232  41.000  11.188
49798W        W22223  41.589  20.380   0.046
49799W        W22224  34.524  16.848   0.617
49800W        W22225  43.177  10.065  12.598
49801W        W22226  42.033  26.303   0.374
49802W        W22227   9.903  20.653  12.368
49803W        W22228  33.080   5.891   4.223
49804W        W22229  12.246   8.777  12.593
49805W        W22230  39.060   4.854  10.253
49806W        W22231  30.050   2.882   4.545
49807W        W22232   2.780   7.648  14.523
49808W        W22233  38.497  29.868   4.522
49809W        W22234  41.779  17.752  12.055
49810W        W22235   4.615  18.627  11.137
49811W        W22236  25.757  13.699   1.214
49812W        W22237  36.509  23.051   2.199
49813W        W22238  15.349  31.584  13.834
49814W        W22239  33.914  18.084  12.444
49815W        W22240  24.818  43.802   2.118
49816W        W22241  28.120   3.212  13.864
49817W        W22242   3.189  24.641  14.457
49818W        W22243  17.995  31.027  11.897
49819W        W22244  17.765  23.821  12.422
49820W        W22245  12.776   5.402   3.733
49821W        W22246  41.796  15.122   0.761
49822W        W22247   5.578  10.732  12.404
49823W        W22248  32.158  17.464  10.341
49824W        W22249   6.768  43.033   3.432
49825W        W22250  14.131  20.247   0.298
49826W        W22251  18.351  31.851  12.243
49827W        W22252  15.807  39.320  13.504
49828W        W22253  21.361  10.160  11.554
49829W        W22254  14.099  28.516  14.321
49830W        W22255  35.613   1.997  14.432
49831W        W22256  39.588  28.960  10.754
49832W        W22257  19.119  12.164  14.485
49833W        W22258  36.330  41.281  14.287
49834W        W22259  32.461  43.025   3.383
49835W        W22260  23.345   3.391   3.592
49836W        W22261  19.084  20.740   2.739
49837W        W22262   4.056  38.921  11.115
49838W        W22263   7.892  36.840  13.838
49839W        W22264   0.148  23.642   1.577
49840W        W22265  40.209  37.726   4.212
49841W        W22266  34.337  26.992   4.182
49842W        W22267  24.129   5.427  11.378
49843W        W22268  27.972  37.345   1.845
49844W        W22269  25.087  20.086  14.022
49845W        W22270  41.121  32.941  13.934
49846W        W22271  22.040  44.842  12.786
49847W        W22272  18.794   3.044  13.074
49848W        W22273   6.242   7.593  12.016
49849W        W22274  11.257  28.237   2.390
49850W        W22275  25.733  41.796  11.493
49851W        W22276  18.244  25.994  13.746
49852W        W22277  28.636  16.246  12.359
49853W        W22278  39.760   7.754  10.980
49854W        W22279  36.423   5.373   3.681
49855W        W22280  18.575  24.743  10.501
49856W        W22281  38.053   8.235   4.100
49857W        W22282  33.697   0.865   1.454
49858W        W22283  34.130  17.764   4.652
49859W        W22284  28.854   1.470   0.316
49860W        W22285  22.135  24.789  12.599
49861W        W22286  20.879  19.745  12.185
49862W        W22287  26.662  30.447   2.663
49863W        W22288   1.659  39.592   4.244
49864W        W22289  38.035  36.149   0.049
49865W        W22290  37.429  26.899   4.961
49866W        W22291   7.712  11.304   0.677
49867W        W22292   1.704  27.288  12.862
49868W        W22293  42.902   0.259  13.563
49869W        W22294  28.956  33.005  14.563
49870W        W22295  12.763  44.098  13.675
49871W        W22296  23.733  35.484  13.335
49872W        W22297  10.382  28.528  13.501
49873W        W22298  26.535  12.166   1.960
49874W        W22299   9.793  20.702  14.076
49875W        W22300  38.080  30.955  11.614
49876W        W22301  37.420  41.445   1.261
49877W        W22302  11.168  28.710  11.531
49878W        W22303   7.262  14.565  12.467
49879W        W22304  35.882   1.434   2.326
49880W        W22305   9.212  27.031  10.772
49881W        W22306  12.859  34.976   5.046
49882W        W22307  23.423  11.268  12.398
49883W        W22308  15.650  30.229  11.153
49884W        W22309   0.866   6.820   9.730
49885W        W22310   1.872  41.371   2.089
49886W        W22311  22.962  20.116   2.274
49887W        W22312  25.545  17.963   4.167
49888W        W22313  30.627   5.484  11.645
49889W        W22314  12.973  23.041  13.502
49890W        W22315  42.450  37.418   2.381
49891W        W22316  36.579   8.344   4.471
49892W        W22317   1.933  19.057   4.142
49893W        W22318  21.931  37.482   0.700
49894W        W22319  30.864  32.990  14.833
49895W        W22320  34.062  23.932   4.241
49896W        W22321   4.499  40.289  11.526
49897W        W22322  31.903  34.794   3.631
49898W        W22323   2.997  44.917   0.396
49899W        W22324  34.060   9.214  12.075
49900W        W22325  11.357  38.607  11.147
49901W        W22326  17.815  28.053   4.590
49902W        W22327   7.343  33.936   3.642
49903W        W22328  32.373  35.607   2.172
49904W        W22329  44.127  15.748  14.976
49905W        W22330  24.576  29.398   4.386
49906W        W22331  30.323  18.067  11.228
49907W        W22332  39.809   1.824   0.253
49908W        W22333  18.775  26.845  11.722
49909W        W22334  11.413  36.507  10.629
49910W        W22335  15.660   8.800   4.638
49911W        W22336  10.678   6.859  14.778
49912W        W22337  42.228  13.648   1.835
49913W        W22338  43.193  30.376   4.202
49914W        W22339  10.864   7.665   4.910
49915W        W22340  22.495  15.661  14.933
49916W        W22341  30.019  23.946   0.348
49917W        W22342  24.934  26.908  11.538
49918W        W22343   5.189  16.561  12.100
49919W        W22344   0.798  43.571   3.689
49920W        W22345  22.012   9.255  14.811
49921W        W22346  38.659   1.291   3.252
49922W        W22347   9.906   8.486  14.557
49923W        W22348  34.492   1.247   2.302
49924W        W22349  26.729  16.225  13.808
49925W        W22350  41.767  18.776   4.084
49926W        W22351   2.899  15.110   4.521
49927W        W22352  31.194  26.592   0.693
49928W        W22353   2.324   5.452   3.559
49929W        W22354  26.008  36.463  13.814
49930W        W22355  26.042  17.080   4.889
49931W        W22356  15.115  14.690   0.759
49932W        W22357  11.132  32.995   1.661
49933W        W22358  37.835  26.082   3.233
49934W        W22359  39.470  26.528  12.642
49935W        W22360   7.114   1.432   1.758
49936W        W22361  11.169  34.505   1.284
49937W        W22362  33.674   2.318  13.252
49938W        W22363  18.475  27.309  10.611
49939W        W22364  15.699  16.686   3.744
49940W        W22365  43.323  36.767   0.421
49941W        W22366  22.111   5.732   2.153
49942W        W22367  43.270  41.836  11.551
49943W        W22368  21.709  12.627  11.554
49944W        W22369  24.884  12.877  12.844
49945W        W22370  23.548  42.431  11.894
49946W        W22371  19.216  18.642  13.877
49947W        W22372  22.893  21.150   2.262
49948W        W22373  36.003  18.008   1.898
49949W        W22374   6.458   1.147  14.937
49950W        W22375  26.449  16.287   1.285
49951W        W22376  44.038  26.531   4.469
49952W        W22377  25.204   7.725  12.555
49953W        W22378  14.391  22.704  12.885
49954W        W22379  11.835   2.084  11.600
49955W        W22380   1.281  32.813  12.959
49956W        W22381  27.843   0.399   2.665
49957W        W22382  33.197  30.099  12.522
49958W        W22383  33.889   6.308  11.521
49959W        W22384  15.608  33.872   3.903
49960W        W22385   7.314  38.817   2.229
49961W        W22386  21.801  34.409  11.528
49962W        W22387  13.708   0.427  10.641
49963W        W22388  22.006  14.355   1.441
49964W        W22389  17.005   4.941   5.052
49965W        W22390   6.389  40.280   0.964
49966W        W22391  34.385  36.440  12.669
49967W        W22392   6.495  27.155  13.882
49968W        W22393   9.638  28.211   1.671
49969W        W22394  37.427  36.162   2.737
49970W        W22395   5.856  33.011  12.812
49971W        W22396   1.050   0.756   0.012
49972W        W22397   7.126   8.343  13.911
49973W        W22398  39.045  22.297   1.435
49974W        W22399  36.935  18.703  13.061
49975W        W22400  29.653   7.141   4.176
49976W        W22401  43.243  20.245  12.849
49977W        W22402  36.210   9.272   4.472
49978W        W22403  29.888   3.288   1.750
49979W        W22404  26.155  30.215   0.927
49980W        W22405  32.560   5.573  10.906
49981W        W22406   9.086  42.558  12.326
49982W        W22407  20.052  11.850  14.044
49983W        W22408  25.125  17.663   4.142
49984W        W22409   9.005  37.240   2.891
49985W        W22410  10.856  18.485   0.448
49986W        W22411   2.948  44.559  11.103
49987W        W22412  26.085  31.078   0.049
49988W        W22413  14.089  15.314  13.944
49989W        W22414  41.269  10.157  12.351
49990W        W22415  23.937   1.324  13.967
49991W        W22416  44.532   3.086   3.654
49992W        W22417  37.517   4.900   2.597
49993W        W22418  29.524  20.737  10.627
49994W        W22419  16.756  35.745  12.943
49995W        W22420  35.047  19.463   3.211
49996W        W22421  14.615  44.381   2.685
49997W        W22422   9.027  30.641  12.045
49998W        W22423  20.683  38.853   9.942
49999W        W22424  27.011  13.378  14.369
50000W        W22425  35.573  17.508  14.021
50001W        W22426  31.683  26.459   4.786
50002W        W22427  29.686  23.176  10.694
50003W        W22428  22.237  35.156   0.909
50004W        W22429   3.186  13.083   0.673
50005W        W22430   7.788  18.245   4.348
50006W        W22431  31.191  37.618  14.312
50007W        W22432  28.088  40.822   4.744
50008W        W22433   1.665  12.365   0.366
50009W        W22434  12.095  26.200  11.149
50010W        W22435  29.743  21.211   1.886
50011W        W22436  25.387   4.799   4.589
50012W        W22437  17.345  20.222   2.181
50013W        W22438  38.557   6.513  12.815
50014W        W22439  37.094   4.701  14.851
50015W        W22440   2.867  28.338   4.625
50016W        W22441   2.373  26.674   1.387
50017W        W22442   4.745  40.525   1.929
50018W        W22443  29.143  30.911   0.939
50019W        W22444  30.545   2.812  10.869
50020W        W22445  30.903   3.564   0.878
50021W        W22446  22.521  20.759   2.357
50022W        W22447  17.337  40.971   4.628
50023W        W22448  24.043  16.834   1.194
50024W        W22449  21.101  33.094  12.618
50025W        W22450  37.263  43.837   4.011
50026W        W22451   3.280  35.463  11.247
50027W        W22452  41.385  43.433  12.810
50028W        W22453  27.566  20.227   4.075
50029W        W22454  23.054  37.283   3.179
50030W        W22455  26.624  23.504   4.074
50031W        W22456   2.945  12.460   1.210
50032W        W22457  12.353   8.861   1.356
50033W        W22458  24.123   4.380   3.321
50034W        W22459  42.086  24.565  14.981
50035W        W22460   8.203  25.243   3.424
50036W        W22461  25.165  19.261  13.488
50037W        W22462  26.546  26.958   0.258
50038W        W22463   2.864  39.515  14.546
50039W        W22464   8.505  38.019   4.122
50040W        W22465  32.076  44.818   4.588
50041W        W22466   5.817   5.984  14.922
50042W        W22467  14.366   3.536   2.253
50043W        W22468  38.332  40.734   3.681
50044W        W22469  21.747  23.802  13.224
50045W        W22470  21.049   3.739  10.925
50046W        W22471   8.090  17.244   1.784
50047W        W22472  21.187   9.452   1.899
50048W        W22473  18.750   5.102  14.831
50049W        W22474  23.670  15.112   2.632
50050W        W22475  40.838  31.076   4.069
50051W        W22476   0.432  41.897   0.399
50052W        W22477   9.707  26.059  12.128
50053W        W22478  40.260  22.812   3.717
50054W        W22479  11.666  17.324   1.279
50055W        W22480  38.877  37.572  10.553
50056W        W22481  20.138   3.486  12.018
50057W        W22482  14.852   7.928  11.084
50058W        W22483  18.425  31.293  11.775
50059W        W22484  33.127  29.209  13.139
50060W        W22485   7.916  13.239  11.508
50061W        W22486  27.425  42.319   0.971
50062W        W22487   8.789  42.724   1.051
50063W        W22488  23.023  17.210  11.058
50064W        W22489  39.463   1.953   3.062
50065W        W22490  18.655  41.264  11.968
50066W        W22491  15.641   1.527   3.747
50067W        W22492   3.475   3.776   2.639
50068W        W22493   6.571  38.967  12.396
50069W        W22494  35.353   8.254   2.366
50070W        W22495   8.684   7.820   2.451
50071W        W22496  42.921   4.950   2.348
50072W        W22497  34.554  41.727   4.144
50073W        W22498  42.537   5.078  12.013
50074W        W22499  31.402  12.141   3.895
50075W        W22500  29.436  24.604  11.619
50076W        W22501  24.463  29.016   3.129
50077W        W22502  40.976  37.958  13.965
50078W        W22503   8.451  26.609   4.300
50079W        W22504  28.668  11.931   9.730
50080W        W22505  32.026  35.540   0.266
50081W        W22506  14.789   4.089   4.446
50082W        W22507  18.062  20.738   4.716
50083W        W22508   6.687  43.724  11.155
50084W        W22509  36.430  10.646   3.736
50085W        W22510  43.009  21.932  13.475
50086W        W22511  23.397  10.736  10.354
50087W        W22512  28.719  40.579   0.156
50088W        W22513   5.880   1.712   1.202
50089W        W22514  39.154  18.093  13.318
50090W        W22515  12.402  40.503  13.380
50091W        W22516  38.315  20.740  10.572
50092W        W22517  42.201  13.966   0.335
50093W        W22518  25.028  34.524   1.703
50094W        W22519  34.088  12.939   2.405
50095W        W22520  38.507  43.581  13.241
50096W        W22521  23.616  25.459   2.289
50097W        W22522  18.230  15.565  12.014
50098W        W22523  41.495  13.403  12.472
50099W        W22524  15.592   7.331   3.057
50100W        W22525  25.192  14.375  11.661
50101W        W22526  40.440   4.166  12.597
50102W        W22527  27.429  32.465  11.080
50103W        W22528  32.490  41.295   4.576
50104W        W22529  28.818   7.641  12.049
50105W        W22530  27.301  26.767   2.108
50106W        W22531  10.052   0.166   2.422
50107W        W22532  34.620  31.079  10.657
50108W        W22533  42.898  18.294  10.657
50109W        W22534  12.802  31.697   4.555
50110W        W22535   8.961  25.466  13.297
50111W        W22536  40.798   2.295  12.496
50112W        W22537  36.547  27.039  14.439
50113W        W22538  25.249   8.182   0.386
50114W        W22539  29.575  23.438  12.899
50115W        W22540  36.905  13.079   4.974
50116W        W22541   9.800  12.203   4.756
50117W        W22542  27.477  32.141   0.434
50118W        W22543   5.981  31.086  13.025
50119W        W22544  20.775  12.874  10.772
50120W        W22545  24.709  30.114  10.717
50121W        W22546  25.863  36.013  13.067
50122W        W22547  43.949  35.394  13.116
50123W        W22548  14.573  23.153   4.745
50124W        W22549  35.778   5.778  12.056
50125W        W22550   2.609  15.386  11.053
50126W        W22551  37.028   0.121   2.942
50127W        W22552   0.933  22.568  13.233
50128W        W22553   0.299  33.310   1.277
50129W        W22554  11.898   8.809  13.914
50130W        W22555  25.475  25.178   1.718
50131W        W22556  10.186  29.195   3.154
50132W        W22557  18.452  22.472   4.542
50133W        W22558   6.241  23.552  12.130
50134W        W22559   8.855   3.226   4.920
50135W        W22560  33.342  34.938   2.696
50136W        W22561   1.869  35.456   3.746
50137W        W22562  33.288  41.933  14.016
50138W        W22563  17.611  15.795  12.005
50139W        W22564  24.199  14.121   0.953
50140W        W22565  31.001  31.200  11.902
50141W        W22566  39.301  29.039  11.229
50142W        W22567   7.663  32.582   0.750
50143W        W22568  26.266  30.523  13.504
50144W        W22569   6.354  32.853   2.180
50145W        W22570  32.974  38.973   1.044
50146W        W22571   3.742  29.909   1.647
50147W        W22572  10.529  11.079  11.548
50148W        W22573   9.164  25.951  13.397
50149W        W22574  18.125   2.296   2.397
50150W        W22575  44.739  37.674  12.092
50151W        W22576  44.911   0.903  13.348
50152W        W22577  25.246  35.032  13.913
50153W        W22578  26.959  18.720  10.483
50154W        W22579   6.866  37.024   5.160
50155W        W22580   5.767   6.073   2.209
50156W        W22581  25.148   8.613  11.287
50157W        W22582  29.624  27.218  13.787
50158W        W22583  35.622  35.425  14.921
50159W        W22584  30.432  18.967  12.578
50160W        W22585  14.248  41.013  11.744
50161W        W22586  30.005  16.656  10.180
50162W        W22587  38.294  29.864   1.718
50163W        W22588  41.035  21.684  14.751
50164W        W22589  18.418  40.870  11.624
50165W        W22590  38.517  27.222  14.687
50166W        W22591  34.589  42.993  14.467
50167W        W22592  25.734  25.036  12.796
50168W        W22593   7.451  22.526  13.398
50169W        W22594   7.224  41.015  12.462
50170W        W22595  18.722  40.476  11.768
50171W        W22596   3.416  40.536   2.936
50172W        W22597  22.044  33.516  10.681
50173W        W22598  41.334  24.609   1.874
50174W        W22599  36.757  20.480  13.233
50175W        W22600  11.144   7.194  14.328
50176W        W22601  38.922  43.398  14.829
50177W        W22602  37.917  12.246  13.922
50178W        W22603   3.999  33.265   1.716
50179W        W22604  41.842   1.553  12.119
50180W        W22605  33.129  24.122   4.649
50181W        W22606  38.150  25.747   2.920
50182W        W22607  34.604   1.320   4.416
50183W        W22608  41.611  24.680  11.658
50184W        W22609   8.962  22.122   4.030
50185W        W22610  19.397   3.131   0.668
50186W        W22611  44.312  19.941  12.023
50187W        W22612  30.009  35.945  10.687
50188W        W22613  18.928  23.528  14.951
50189W        W22614  35.101  14.848  11.698
50190W        W22615  38.937  23.364  13.983
50191W        W22616   7.700  29.063   2.348
50192W        W22617  18.103  43.315  11.436
50193W        W22618  20.050  37.388   0.256
50194W        W22619   9.150  14.090   4.602
50195W        W22620  44.243  13.816   0.844
50196W        W22621   5.362   6.924  14.557
50197W        W22622   9.677   9.304   4.172
50198W        W22623  42.402  42.329   4.855
50199W        W22624  16.072  17.583   0.377
50200W        W22625   6.270  12.851  14.500
50201W        W22626  35.466   9.829  11.549
50202W        W22627   9.158   8.877   4.634
50203W        W22628  44.744  12.099  12.831
50204W        W22629  21.218  25.457   2.340
50205W        W22630  30.242  13.033  13.909
50206W        W22631   2.466  27.276  14.048
50207W        W22632  27.838  32.613  13.996
50208W        W22633  17.543  33.670  14.798
50209W        W22634   3.097  43.508   0.450
50210W        W22635  44.134  32.589  14.191
50211W        W22636  14.113  28.686   3.180
50212W        W22637   0.244  24.617  14.329
50213W        W22638   3.496  15.716   2.718
50214W        W22639  31.146  22.290   1.339
50215W        W22640  44.903  12.691  14.237
50216W        W22641   4.327  22.991   3.094
50217W        W22642  28.011   5.925  14.326
50218W        W22643   1.842  14.246  12.803
50219W        W22644  18.301   3.243  14.904
50220W        W22645  26.486  36.595   1.310
50221W        W22646   5.745  21.036   1.923
50222W        W22647  31.082   2.953   3.617
50223W        W22648  23.353  34.795  12.834
50224W        W22649  32.244  44.419   0.081
50225W        W22650  28.044  23.530  12.956
50226W        W22651  34.093  29.266  13.948
50227W        W22652  36.962  15.320  12.964
50228W        W22653  11.190  16.088  13.084
50229W        W22654  23.826   5.425   3.980
50230W        W22655  24.814   2.831  10.494
50231W        W22656   8.140  32.967  12.545
50232W        W22657  20.847   0.487  11.166
50233W        W22658   7.920  33.470   4.664
50234W        W22659  18.534  18.131   1.131
50235W        W22660  40.049  40.739  12.812
50236W        W22661  33.161   9.977  12.110
50237W        W22662  13.015   0.005  14.356
50238W        W22663  32.935  13.760   0.413
50239W        W22664  27.483  43.742  10.594
50240W        W22665  43.956  32.434  12.931
50241W        W22666  12.269  19.505  12.483
50242W        W22667  26.971  27.487  10.903
50243W        W22668  41.787  15.866   1.275
50244W        W22669  34.196  33.396   1.842
50245W        W22670  30.034  33.625   4.670
50246W        W22671   3.724  31.574  11.214
50247W        W22672  11.645   9.593   0.724
50248W        W22673   6.983  27.633  14.042
50249W        W22674  11.633   3.258  12.633
50250W        W22675  17.074  20.653  11.436
50251W        W22676  37.044  11.854  10.480
50252W        W22677  39.545  33.085   0.467
50253W        W22678  27.595   0.865   2.862
50254W        W22679   1.041  25.556   0.549
50255W        W22680  33.951  43.362   0.878
50256W        W22681  43.253  12.874  10.738
50257W        W22682   9.491  23.002   1.841
50258W        W22683  36.307  37.499   3.101
50259W        W22684  20.860  38.066  11.866
50260W        W22685  33.145  21.669   0.374
50261W        W22686  35.027   4.800  13.136
50262W        W22687  20.241  11.415   3.627
50263W        W22688  42.872  21.002   4.925
50264W        W22689  34.123  31.592  13.830
50265W        W22690  26.394   0.931   0.326
50266W        W22691  42.323   2.994  13.010
50267W        W22692  39.528  28.531   1.414
50268W        W22693   1.181  26.020   3.130
50269W        W22694  35.446  37.850  12.879
50270W        W22695  26.451  29.427  11.981
50271W        W22696   7.458  18.347  12.852
50272W        W22697   8.186   3.064   1.873
50273W        W22698  31.801  34.091   3.219
50274W        W22699  12.246  29.605  11.315
50275W        W22700  43.012  42.078  11.953
50276W        W22701  40.837  33.450  12.847
50277W        W22702  21.104  25.080  13.140
50278W        W22703  36.862  22.094   0.250
50279W        W22704  43.057  12.837   0.205
50280W        W22705  19.355  30.350  13.535
50281W        W22706   1.751  42.446  12.916
50282W        W22707  44.940   6.136  10.848
50283W        W22708  21.613  31.204  11.136
50284W        W22709   5.946  12.695   2.909
50285W        W22710  40.930   7.331   1.323
50286W        W22711  23.551  11.187   0.226
50287W        W22712  23.681  34.890   2.201
50288W        W22713  31.093  27.087   0.015
50289W        W22714   1.886  14.087  13.298
50290W        W22715  19.775  16.297  14.006
50291W        W22716  29.054  10.824  13.966
50292W        W22717   2.480  17.325   1.946
50293W        W22718   9.078   6.587  13.602
50294W        W22719  19.835  28.430   3.259
50295W        W22720  10.143  22.141   2.197
50296W        W22721  39.161   2.005  10.229
50297W        W22722  29.214  40.413   0.203
50298W        W22723  18.942   2.536   1.808
50299W        W22724  23.147   1.864   2.823
50300W        W22725   0.279  34.070  11.144
50301W        W22726   6.835  31.142  10.552
50302W        W22727  30.613  31.954   4.038
50303W        W22728  21.587  33.796  11.650
50304W        W22729   4.246  38.371   0.043
50305W        W22730  38.805   4.947  14.432
50306W        W22731  20.772  20.003  14.309
50307W        W22732   9.354  16.827   2.711
50308W        W22733   5.903  12.832   1.013
50309W        W22734  37.099  21.445  10.864
50310W        W22735   9.291   1.453  13.006
50311W        W22736  30.152  10.424  12.557
50312W        W22737  16.164  43.492   3.333
50313W        W22738   1.873  15.472  12.957
50314W        W22739  27.044  10.340   3.427
50315W        W22740  19.126  44.974   1.884
50316W        W22741  11.757  20.743   3.833
50317W        W22742  30.536  32.025   3.540
50318W        W22743  13.504   9.240   3.331
50319W        W22744  18.660   1.240   1.774
50320W        W22745   6.481  13.674  11.051
50321W        W22746   5.828  38.576   3.791
50322W        W22747  25.109  18.867  13.806
50323W        W22748  20.905  41.660  13.626
50324W        W22749  19.091  37.819  10.559
50325W        W22750  23.034  17.460  11.523
50326W        W22751  25.443  44.185  13.453
50327W        W22752  31.828   7.716   1.875
50328W        W22753  37.257  19.338   4.159
50329W        W22754  32.587  34.726  12.848
50330W        W22755  38.574   8.609   0.267
50331W        W22756  18.142  24.007   0.809
50332W        W22757  22.717  36.936   3.922
50333W        W22758  40.033  10.907   0.094
50334W        W22759  28.637  42.497   0.399
50335W        W22760   3.230   8.423  11.227
50336W        W22761  41.271  39.447   2.228
50337W        W22762   6.968  28.517   2.540
50338W        W22763  44.094  14.258   4.289
50339W        W22764  35.769   6.673   3.808
50340W        W22765  28.738  33.755   0.020
50341W        W22766  34.839  19.589  13.275
50342W        W22767  21.168   6.486  11.978
50343W        W22768  33.195  10.365   3.790
50344W        W22769  32.382  41.968  12.601
50345W        W22770   7.494   7.677  14.232
50346W        W22771  27.636  34.321  10.510
50347W        W22772  25.514  41.020   1.898
50348W        W22773  21.236  26.679   3.559
50349W        W22774  20.477  20.096  12.446
50350W        W22775  10.364  26.142   0.359
50351W        W22776  38.359  17.854  14.942
50352W        W22777  13.782  30.833  11.997
50353W        W22778   2.471   9.842  10.726
50354W        W22779  36.816  41.727  13.058
50355W        W22780   1.520  26.580   1.270
50356W        W22781  38.444  12.636   1.396
50357W        W22782   8.187  22.211  14.403
50358W        W22783  28.718  28.095  13.111
50359W        W22784  18.789   1.465   0.929
50360W        W22785  27.662  12.200   2.343
50361W        W22786  44.973  37.789  10.713
50362W        W22787  32.555  10.854   0.721
50363W        W22788  11.229   7.208  12.386
50364W        W22789  20.198  12.318   0.227
50365W        W22790  26.416   6.517   4.056
50366W        W22791  27.459  30.191   4.664
50367W        W22792  44.743  17.668   0.498
50368W        W22793   1.581  23.699   4.656
50369W        W22794  44.828  31.697  14.151
50370W        W22795   4.739  30.896  10.767
50371W        W22796  12.731   6.438  12.160
50372W        W22797  26.271   3.387   3.023
50373W        W22798   9.877  12.061   1.236
50374W        W22799   7.835  37.604   4.585
50375W        W22800  14.854  35.351  12.833
50376W        W22801  15.859  41.009  11.577
50377W        W22802   9.351  43.312  13.448
50378W        W22803  28.607  25.004  13.883
50379W        W22804  37.001  26.906  12.314
50380W        W22805   9.685  22.648  13.839
50381W        W22806  26.031   7.259  11.206
50382W        W22807  27.109  32.531   4.958
50383W        W22808   2.456  37.862  12.473
50384W        W22809  34.829  36.772   4.231
50385W        W22810  36.755  38.948   0.382
50386W        W22811   2.431  11.357   4.544
50387W        W22812  18.543  21.494   1.632
50388W        W22813  27.550  24.939   3.391
50389W        W22814  15.097   6.712  11.406
50390W        W22815  29.554  41.489   0.186
50391W        W22816   6.631  34.035  11.886
50392W        W22817  14.632  24.728  14.328
50393W        W22818  32.773  26.285   3.308
50394W        W22819  20.018   0.441  14.114
50395W        W22820  13.838  38.082  11.200
50396W        W22821  41.232  41.545   3.666
50397W        W22822  15.769   3.895   2.926
50398W        W22823  30.327  42.504   4.112
50399W        W22824  40.837  41.812   1.194
50400W        W22825  22.796  36.028   1.754
50401W        W22826  29.642  36.333   2.310
50402W        W22827  22.684  38.099  14.283
50403W        W22828  17.530  23.650  11.959
50404W        W22829  42.547  22.652  14.020
50405W        W22830  39.352  21.005   3.368
50406W        W22831   0.242  20.116   3.151
50407W        W22832  44.274  15.442   4.717
50408W        W22833  39.366  29.632   2.445
50409W        W22834  28.242  10.755  13.418
50410W        W22835  24.577  27.658   4.823
50411W        W22836  16.286   4.139   2.286
50412W        W22837  16.858  28.567   4.903
50413W        W22838  21.661   9.290   3.232
50414W        W22839  12.130  42.512   0.326
50415W        W22840  13.135  39.533  14.946
50416W        W22841  18.724  18.893  13.831
50417W        W22842   0.111  37.629  12.964
50418W        W22843  42.749   2.713   4.985
50419W        W22844   9.014  21.013   0.389
50420W        W22845   6.417  35.433   2.613
50421W        W22846  11.257  35.478  11.463
50422W        W22847  40.118  34.178  11.501
50423W        W22848  32.640  34.157   2.377
50424W        W22849  28.406  32.022  12.954
50425W        W22850   5.976   5.319  11.749
50426W        W22851   2.324  44.018   4.103
50427W        W22852  30.534  16.482  11.687
50428W        W22853  32.495  10.176  12.887
50429W        W22854  23.978  25.585  11.408
50430W        W22855  28.131  38.814   1.355
50431W        W22856  37.596  15.309  14.440
50432W        W22857  25.269  40.662   3.632
50433W        W22858  16.823  37.331   2.298
50434W        W22859  43.833   4.698  14.883
50435W        W22860  32.709  17.116   0.388
50436W        W22861   2.701  34.110   4.616
50437W        W22862  13.619   7.860   0.109
50438W        W22863   3.839   8.375   4.499
50439W        W22864  30.127  13.176  12.047
50440W        W22865  25.909  24.222   1.693
50441W        W22866  38.451   5.959   2.246
50442W        W22867   8.472  27.106  12.478
50443W        W22868  39.374  22.041  11.695
50444W        W22869  36.601  42.335  12.453
50445W        W22870  11.445  19.420   5.317
50446W        W22871  16.178  15.134   2.717
50447W        W22872  41.071   2.487   1.857
50448W        W22873  36.493  30.543  10.378
50449W        W22874   7.104   9.893  13.237
50450W        W22875  24.005  41.593  12.655
50451W        W22876  42.714  39.894  14.787
50452W        W22877  20.080  31.546  14.388
50453W        W22878  13.165   0.228  13.545
50454W        W22879  24.836  13.918  13.479
50455W        W22880  17.217  16.082  10.649
50456W        W22881  31.928   7.299  10.630
50457W        W22882  33.932  13.648  13.348
50458W        W22883   5.355  27.918   1.790
50459W        W22884  19.204  28.516  10.470
50460W        W22885  26.608   4.244   1.836
50461W        W22886  11.363  24.173  11.734
50462W        W22887  41.343  11.730  10.808
50463W        W22888  39.771  20.835   4.110
50464W        W22889  18.346  35.040  11.162
50465W        W22890  22.061  43.951  14.123
50466W        W22891  28.307  25.999   0.214
50467W        W22892   1.133  11.163   2.727
50468W        W22893  42.457  36.133  14.929
50469W        W22894   3.705  27.442   1.901
50470W        W22895   2.268  37.075   0.707
50471W        W22896  30.074  30.095   1.225
50472W        W22897  19.692  13.917   3.753
50473W        W22898  31.496  17.360  12.910
50474W        W22899  32.455  40.493   4.607
50475W        W22900  20.606  21.686   3.888
50476W        W22901   7.901  10.181   2.248
50477W        W22902  10.655  13.204  12.575
50478W        W22903   2.911  24.988  13.807
50479W        W22904  24.743  30.660   4.014
50480W        W22905  16.872  17.237  11.670
50481W        W22906  11.737   8.122   4.385
50482W        W22907  38.364  28.744  12.434
50483W        W22908  31.711  36.336  14.475
50484W        W22909   2.363  32.939   4.651
50485W        W22910  37.513  13.857   0.281
50486W        W22911  33.709  40.825  11.376
50487W        W22912  13.668  27.458  14.011
50488W        W22913  18.805  40.571  14.497
50489W        W22914  31.079  27.826  12.938
50490W        W22915  17.757  43.718  11.441
50491W        W22916  39.846  17.099  11.105
50492W        W22917   7.858  13.251  12.028
50493W        W22918   3.372  22.007  10.558
50494W        W22919  33.010  17.252   1.751
50495W        W22920  38.553  35.556   0.451
50496W        W22921  33.508  31.976  10.267
50497W        W22922  16.544  23.676   3.379
50498W        W22923   8.631  26.496  13.397
50499W        W22924  41.774   9.704  14.836
50500W        W22925   3.766  33.988  12.936
50501W        W22926  11.723   8.422  11.411
50502W        W22927   4.025   2.792   1.210
50503W        W22928  15.531  41.274   0.361
50504W        W22929  41.415  38.792   0.973
50505W        W22930  20.804  29.651   1.580
50506W        W22931   9.682  21.047  14.432
50507W        W22932  14.628  24.500   3.210
50508W        W22933  37.377   6.774   3.260
50509W        W22934  16.372  19.636   4.574
50510W        W22935  35.357  26.449   5.092
50511W        W22936  27.646  32.089   5.064
50512W        W22937   7.272  19.588  14.756
50513W        W22938  21.720  36.533  13.673
50514W        W22939  12.441   4.250  12.045
50515W        W22940  44.733  13.618  12.007
50516W        W22941  39.231  24.303  11.232
50517W        W22942   2.203   7.990  12.513
50518W        W22943  14.025   7.231  11.138
50519W        W22944  15.151  18.123   1.938
50520W        W22945  35.971  29.200   4.015
50521W        W22946  32.694  16.315   3.731
50522W        W22947   7.348  37.680  13.492
50523W        W22948   7.892  10.179   4.051
50524W        W22949  40.956  34.307  14.556
50525W        W22950   4.048  39.897   1.800
50526W        W22951  10.869  21.715   3.767
50527W        W22952  31.497  10.302   2.091
50528W        W22953  13.092  10.278  11.943
50529W        W22954  38.525  44.100  13.037
50530W        W22955  26.713  34.068  11.379
50531W        W22956   4.687   6.209   4.734
50532W        W22957  17.521  32.122  10.109
50533W        W22958  16.513  27.433  11.638
50534W        W22959   6.815  37.005  14.573
50535W        W22960  15.336  37.666   4.178
50536W        W22961  38.820  28.956   3.203
50537W        W22962  13.793  24.513   2.079
50538W        W22963  12.725   7.169  14.031
50539W        W22964  18.176  28.019  12.206
50540W        W22965  20.766  25.366   2.942
50541W        W22966  20.823  21.570  11.754
50542W        W22967  42.006  15.603  11.139
50543W        W22968  16.143  43.244   2.865
50544W        W22969   1.861  41.164  11.880
50545W        W22970  42.764  40.936   4.548
50546W        W22971   3.839  13.819  13.346
50547W        W22972  24.786  37.983   0.973
50548W        W22973  25.293  36.620   0.029
50549W        W22974  39.819  11.090  12.787
50550W        W22975  24.307   6.795   2.353
50551W        W22976  33.026  22.591  13.446
50552W        W22977   9.612  10.072   3.070
50553W        W22978  37.294  30.143   0.997
50554W        W22979   0.332  28.848   2.353
50555W        W22980  31.930  32.436  14.280
50556W        W22981  10.832   5.484  13.057
50557W        W22982  28.933   1.321   0.817
50558W        W22983  18.189  18.964   2.346
50559W        W22984  23.185  26.149   1.954
50560W        W22985  40.053  14.275  14.425
50561W        W22986  10.109  22.990  14.965
50562W        W22987  42.880  16.290   0.251
50563W        W22988  39.668   9.308   3.302
50564W        W22989  28.351  35.090   0.873
50565W        W22990   3.943  22.564   4.143
50566W        W22991  10.286   5.716  12.246
50567W        W22992  34.949   9.274   4.846
50568W        W22993  14.185  10.586  10.926
50569W        W22994  44.036  37.614   4.234
50570W        W22995   1.868   3.260  11.274
50571W        W22996  43.219   5.437  13.866
50572W        W22997  23.242  40.896  14.526
50573W        W22998  14.602  27.765   0.803
50574W        W22999  20.561  33.526  13.607
50575W        W23000  17.149  28.438  14.080
50576W        W23001  40.771  13.100  13.338
50577W        W23002   5.755   7.331  12.447
50578W        W23003  35.376   7.142   2.655
50579W        W23004  25.692  19.072  12.148
50580W        W23005   3.235   5.290   2.659
50581W        W23006  14.183  29.301   2.324
50582W        W23007  28.681  18.780  10.857
50583W        W23008  41.962  38.072   2.933
50584W        W23009  10.871  24.064   4.808
50585W        W23010   9.192  11.240  12.013
50586W        W23011  44.916  43.934  14.416
50587W        W23012   0.318  42.502  14.811
50588W        W23013  11.397  36.577   2.557
50589W        W23014  42.740  35.398  11.893
50590W        W23015  12.072  18.857  12.897
50591W        W23016  17.164  38.829  14.831
50592W        W23017   6.790   2.723   0.425
50593W        W23018   2.737  37.049   2.011
50594W        W23019  20.252  18.912  13.382
50595W        W23020  16.633  27.693   2.723
50596W        W23021  17.891  36.634   3.524
50597W        W23022  27.299   9.761   1.125
50598W        W23023   7.800   6.924   5.394
50599W        W23024  12.141   2.045  12.032
50600W        W23025  14.219  17.224   0.291
50601W        W23026  31.918  10.740   4.691
50602W        W23027  26.422  15.610   4.551
50603W        W23028  34.808  22.303  11.577
50604W        W23029  20.551  26.619   0.441
50605W        W23030  17.175  36.995   1.046
50606W        W23031  13.762  44.145  14.505
50607W        W23032  16.526  16.877  11.636
50608W        W23033  12.499  32.566  12.976
50609W        W23034  36.301  18.693   0.790
50610W        W23035  14.664  44.400   2.141
50611W        W23036   7.096  38.997   4.136
50612W        W23037  43.329  20.988   3.748
50613W        W23038  18.708  11.182   0.827
50614W        W23039  42.102  43.083  13.389
50615W        W23040  10.462   0.881   2.835
50616W        W23041   7.270  20.999   2.717
50617W        W23042  41.540   4.922   3.291
50618W        W23043  23.986  39.602   4.104
50619W        W23044  13.266  31.597  11.599
50620W        W23045   5.972  38.523   1.357
50621W        W23046   4.898  44.731   3.303
50622W        W23047   8.733  38.830  11.730
50623W        W23048  30.094  41.777  14.773
50624W        W23049  33.278  31.413  11.222
50625W        W23050  22.705  33.223  11.060
50626W        W23051  36.832  19.028   4.119
50627W        W23052  24.584  42.560  13.515
50628W        W23053  34.856  39.793  10.747
50629W        W23054  37.929  44.055   2.673
50630W        W23055  44.361  16.787   4.462
50631W        W23056  44.378   0.480   2.885
50632W        W23057  17.123  36.857  10.699
50633W        W23058  16.643  32.257  10.330
50634W        W23059   6.801   6.301  14.069
50635W        W23060  11.824  33.631   0.448
50636W        W23061  31.928   5.570   0.911
50637W        W23062   7.230  25.900  12.396
50638W        W23063  28.575  38.887  12.853
50639W        W23064  39.709  29.642  10.870
50640W        W23065  13.195   0.064  14.926
50641W        W23066  10.696  30.539  13.890
50642W        W23067   3.668  20.867  12.007
50643W        W23068  31.796  41.252  10.986
50644W        W23069  27.873  40.396   4.576
50645W        W23070  31.768  41.346   0.308
50646W        W23071  36.613   4.615  10.725
50647W        W23072  39.055  43.876   4.164
50648W        W23073  38.246  23.090   3.720
50649W        W23074  14.127  24.770   4.750
50650W        W23075  44.370  36.112  10.360
50651W        W23076  41.803   2.419  13.891
50652W        W23077  24.129  44.505  14.530
50653W        W23078   6.924  35.114   3.775
50654W        W23079  21.719  15.669   4.332
50655W        W23080   7.269   6.872   1.165
50656W        W23081   7.014   3.962   4.707
50657W        W23082  16.821  34.438   1.682
50658W        W23083  43.922  28.862  13.069
50659W        W23084   9.693  37.778   1.726
50660W        W23085  26.071  23.046   2.284
50661W        W23086  40.356   1.023  12.353
50662W        W23087  24.175  13.249  12.687
50663W        W23088   8.850  36.823  11.609
50664W        W23089  31.111   0.985  13.973
50665W        W23090  15.702  33.575  10.729
50666W        W23091   7.838  15.754   2.826
50667W        W23092  42.308  33.198  12.854
50668W        W23093  14.084  23.948   3.731
50669W        W23094  42.260  20.010  12.861
50670W        W23095  31.084  32.193  10.835
50671W        W23096   9.289  40.454   0.911
50672W        W23097  28.758  41.310   2.773
50673W        W23098  34.914  13.703   4.778
50674W        W23099  12.660  11.748  11.215
50675W        W23100   9.847  44.510   2.758
50676W        W23101  35.036  34.043  14.087
50677W        W23102  31.018  39.154  10.427
50678W        W23103  44.261  37.740   2.546
50679W        W23104   8.823  10.315   3.023
50680W        W23105  37.162  33.925  13.944
50681W        W23106  24.117   7.993   1.425
50682W        W23107   4.603  25.135  13.357
50683W        W23108   6.250  10.154   2.786
50684W        W23109  30.792  25.397   3.214
50685W        W23110  29.776  33.604  11.089
50686W        W23111  30.177   7.176  11.717
50687W        W23112  44.656   7.369  10.728
50688W        W23113  28.454  42.973   3.734
50689W        W23114  15.718  28.463  14.540
50690W        W23115  26.483  24.145   4.525
50691W        W23116  21.090  25.957  12.588
50692W        W23117  25.460  36.307  10.754
50693W        W23118  24.216   7.714   0.973
50694W        W23119  27.688  14.467  10.910
50695W        W23120  26.309  16.800   2.545
50696W        W23121  17.660   4.847  12.588
50697W        W23122  27.810  12.719   3.834
50698W        W23123  22.685  43.265   3.882
50699W        W23124  23.348   1.110  13.529
50700W        W23125   9.882  37.475   3.310
50701W        W23126  23.587   5.675  13.429
50702W        W23127  18.066  21.047   4.315
50703W        W23128  34.932  37.048  13.452
50704W        W23129  21.368  19.011   4.220
50705W        W23130  25.994  35.389   2.184
50706W        W23131  24.788  41.070  12.806
50707W        W23132  11.305  27.452   0.745
50708W        W23133   7.291  20.732  14.081
50709W        W23134  31.361   8.183  10.627
50710W        W23135  36.381  34.350  13.812
50711W        W23136  28.592   3.447   0.433
50712W        W23137  26.013  18.548  12.864
50713W        W23138  18.656  44.536  12.027
50714W        W23139  19.741  19.098   2.501
50715W        W23140  34.816  20.602  12.363
50716W        W23141  17.631  29.034  14.191
50717W        W23142   3.522  16.820   4.630
50718W        W23143  12.261  41.286   2.170
50719W        W23144   8.333  18.864   1.355
50720W        W23145   7.238  30.459  12.429
50721W        W23146  14.117  16.218   2.883
50722W        W23147  13.905  17.596   0.077
50723W        W23148   5.772  35.850   3.161
50724W        W23149   5.950  10.575  14.385
50725W        W23150  24.586  23.090  11.953
50726W        W23151  18.789  29.023  10.666
50727W        W23152  22.057  39.148  11.516
50728W        W23153  32.402  23.672   0.689
50729W        W23154  18.696  13.584  10.936
50730W        W23155   4.742   8.195  13.519
50731W        W23156  25.121  14.066   3.789
50732W        W23157  34.825  23.237   1.187
50733W        W23158  20.664   1.251  13.799
50734W        W23159  28.747  32.286   4.203
50735W        W23160  25.491  15.153   4.165
50736W        W23161  17.388   6.289  13.294
50737W        W23162  27.032  11.855  12.863
50738W        W23163  19.597  30.844   4.321
50739W        W23164  23.542  11.647   0.478
50740W        W23165  44.227  13.431  12.479
50741W        W23166   5.970  16.278   2.598
50742W        W23167  28.123  10.216   2.796
50743W        W23168  29.404  14.692   4.615
50744W        W23169  41.844  38.501   2.091
50745W        W23170   0.674  36.403  12.931
50746W        W23171  29.380  19.566  11.620
50747W        W23172   8.212  19.930   4.208
50748W        W23173  40.339  16.487   0.440
50749W        W23174  34.542  32.564  14.772
50750W        W23175  20.157  18.302   0.245
50751W        W23176  32.463  22.964   1.469
50752W        W23177   8.516   2.648  13.429
50753W        W23178  38.334  34.050   2.253
50754W        W23179   1.912  32.000   1.273
50755W        W23180   1.183  10.337  11.632
50756W        W23181   4.853  22.816  13.007
50757W        W23182  13.880  21.965   1.353
50758W        W23183   9.181   7.889  13.375
50759W        W23184  37.449  15.691  10.633
50760W        W23185  30.974  25.322  13.141
50761W        W23186  31.532  35.581   1.979
50762W        W23187  16.090  21.667   1.834
50763W        W23188  20.534   9.323  14.574
50764W        W23189  42.844  44.742   1.099
50765W        W23190  30.638   7.430  13.305
50766W        W23191  21.256  19.177   0.793
50767W        W23192  17.732  15.599   2.189
50768W        W23193  27.570   0.872   4.644
50769W        W23194  24.439   4.570  13.521
50770W        W23195  40.299  42.061   0.238
50771W        W23196  29.561   7.285  14.456
50772W        W23197  40.555  31.670  14.938
50773W        W23198  35.575   8.527   0.195
50774W        W23199  32.156  36.804   2.366
50775W        W23200  31.354  15.197   3.172
50776W        W23201  37.183   0.897  13.457
50777W        W23202   7.080  37.897   5.623
50778W        W23203  31.246  36.099  14.432
50779W        W23204  29.515  39.428   2.076
50780W        W23205  33.995  34.726   0.471
50781W        W23206  23.834  18.415   1.374
50782W        W23207  20.804  24.077   1.496
50783W        W23208  32.065  10.731   2.322
50784W        W23209  27.966  31.281  14.334
50785W        W23210  43.262  36.550   3.265
50786W        W23211  18.435   0.444   0.368
50787W        W23212  33.295   7.564   0.797
50788W        W23213  22.903   0.453  13.716
50789W        W23214   6.655   0.432   4.725
50790W        W23215  26.416  36.973  13.955
50791W        W23216  22.337   8.856  12.430
50792W        W23217   3.409   0.268   3.769
50793W        W23218  41.765  43.302  13.742
50794W        W23219  39.959  35.398   2.303
50795W        W23220  29.536  30.404   4.734
50796W        W23221  19.765  40.289   0.742
50797W        W23222  27.612   4.443  12.047
50798W        W23223   1.213   2.776   4.481
50799W        W23224  21.771  32.428   1.860
50800W        W23225  27.935  21.056   3.756
50801W        W23226  20.692  26.370   4.716
50802W        W23227  25.069   6.000   1.500
50803W        W23228  37.149  18.676   0.361
50804W        W23229  35.569  36.081  10.435
50805W        W23230  31.675  15.917   5.563
50806W        W23231  30.150  41.735   3.608
50807W        W23232  31.967  31.078   1.681
50808W        W23233  28.373  17.321   0.425
50809W        W23234  11.267  18.294  13.947
50810W        W23235   8.322  16.063   3.275
50811W        W23236  18.095   1.076   4.590
50812W        W23237  24.838  40.893  11.085
50813W        W23238  41.065  31.174   0.381
50814W        W23239   7.962   3.217  12.931
50815W        W23240  26.672   6.618  12.075
50816W        W23241  16.375  12.246  11.188
50817W        W23242  27.901  38.888  14.588
50818W        W23243  17.943  44.997  10.948
50819W        W23244  19.917  33.561  11.049
50820W        W23245   8.116  10.737  13.415
50821W        W23246  25.126  39.594  13.854
50822W        W23247   1.732  38.574   3.687
50823W        W23248  30.516  31.399  10.564
50824W        W23249  33.799  10.186   2.810
50825W        W23250   2.700   8.082  11.620
50826W        W23251  26.093  13.344  13.290
50827W        W23252  20.760   5.673  10.555
50828W        W23253  29.256   7.715  14.302
50829W        W23254  22.090  24.197   0.743
50830W        W23255  19.988  38.869   3.604
50831W        W23256   1.827   9.966   2.731
50832W        W23257  32.108  35.545  11.023
50833W        W23258   6.379  29.598  12.007
50834W        W23259  35.963  20.765  12.726
50835W        W23260  23.336  19.542  13.411
50836W        W23261  23.261  32.899  13.724
50837W        W23262  21.455  12.863   0.428
50838W        W23263  29.053  25.964   3.172
50839W        W23264  40.343  32.573   2.417
50840W        W23265  42.820  23.525  10.762
50841W        W23266  29.494  18.567   0.961
50842W        W23267  32.686   1.374  10.688
50843W        W23268   1.769  38.322  13.094
50844W        W23269  13.317  24.942  13.419
50845W        W23270  36.909  28.558  13.959
50846W        W23271   4.641  27.623  10.801
50847W        W23272  34.708  36.155   3.614
50848W        W23273  31.876  21.355   2.788
50849W        W23274  17.972  41.133  14.746
50850W        W23275   1.109  37.436   4.146
50851W        W23276  38.493  35.691   2.773
50852W        W23277  44.758  26.664  11.198
50853W        W23278   8.900  26.686   2.014
50854W        W23279  11.370  37.470  14.748
50855W        W23280  18.912  36.011   4.258
50856W        W23281  10.991   1.216  14.474
50857W        W23282  29.077  21.287  12.294
50858W        W23283   0.774  24.766   0.311
50859W        W23284  10.605  24.590   1.924
50860W        W23285  39.024  27.052   3.094
50861W        W23286  27.545  43.028   3.616
50862W        W23287   5.491  37.880  14.823
50863W        W23288  10.844  15.986  10.719
50864W        W23289  22.284   0.923  11.959
50865W        W23290   4.376  27.544   2.674
50866W        W23291  16.124   2.816  10.261
50867W        W23292  35.965  15.134  11.959
50868W        W23293  33.534  23.959  10.676
50869W        W23294  29.620  37.594  13.981
50870W        W23295  24.818   1.931   0.416
50871W        W23296  37.549   6.300   1.048
50872W        W23297   3.645  34.022  13.946
50873W        W23298   7.883   9.791  12.568
50874W        W23299  31.410  10.718  12.885
50875W        W23300   4.011  44.855   1.788
50876W        W23301  29.143  20.647  12.925
50877W        W23302  40.516  31.322   1.781
50878W        W23303  11.420   9.722  12.369
50879W        W23304  29.596  40.604  10.087
50880W        W23305   2.266  30.853   2.755
50881W        W23306  35.074  33.892  14.619
50882W        W23307  15.125   7.085  11.043
50883W        W23308  29.860  36.866   3.687
50884W        W23309  20.244  14.549  13.856
50885W        W23310   8.723   8.174  12.985
50886W        W23311  11.122  17.428  12.581
50887W        W23312  41.509   4.173   4.926
50888W        W23313  10.491   8.753   9.808
50889W        W23314   1.272  37.346   2.796
50890W        W23315  29.183  24.443  14.959
50891W        W23316  17.997  25.669  13.424
50892W        W23317  36.123  41.497  13.843
50893W        W23318  43.251  41.922  14.043
50894W        W23319  36.191  28.809  14.478
50895W        W23320   4.934  26.783  12.953
50896W        W23321  23.674  17.128   3.710
50897W        W23322  43.790  43.780   1.450
50898W        W23323  40.819  16.081   2.259
50899W        W23324  36.454  27.907   3.158
50900W        W23325  20.289   7.907  13.232
50901W        W23326  23.711  15.077  13.881
50902W        W23327   2.203  15.627  12.522
50903W        W23328  26.078  15.628   2.433
50904W        W23329   2.079   1.926  10.331
50905W        W23330  29.223  36.776   2.750
50906W        W23331  11.781  12.696   1.239
50907W        W23332  29.742  32.319  10.903
50908W        W23333  21.061  12.506   2.249
50909W        W23334  22.168  13.913   3.782
50910W        W23335   2.349   9.803   3.647
50911W        W23336  37.831  20.807  14.770
50912W        W23337  11.906  19.426  13.048
50913W        W23338   1.158  26.730  14.785
50914W        W23339  13.883   6.719   4.337
50915W        W23340  24.514  33.580  11.097
50916W        W23341  35.378  31.044   1.513
50917W        W23342   6.992  20.690  11.691
50918W        W23343  10.171   0.820  12.542
50919W        W23344  42.315  19.760  11.171
50920W        W23345  32.563  41.558   4.120
50921W        W23346  31.185  23.689   3.748
50922W        W23347  25.204  14.594   4.987
50923W        W23348  42.442  35.701   0.923
50924W        W23349  12.441  42.916   0.361
50925W        W23350   0.415   0.489   3.708
50926W        W23351  23.124  37.034  11.997
50927W        W23352  37.154  28.177   3.668
50928W        W23353  40.998  30.423  13.023
50929W        W23354  41.833  44.104   9.575
50930W        W23355  22.739  28.320   4.096
50931W        W23356  38.510  20.075  12.198
50932W        W23357  32.481  39.586   1.650
50933W        W23358  31.565  38.646  13.879
50934W        W23359  22.497  37.117  13.966
50935W        W23360  17.810   9.960  11.140
50936W        W23361  32.331  12.173   4.822
50937W        W23362  17.589  41.045   4.084
50938W        W23363   0.871  32.559  14.231
50939W        W23364  36.385  18.651  11.179
50940W        W23365  43.576  14.377   4.185
50941W        W23366  27.545  11.575  13.522
50942W        W23367   6.140  16.304  14.347
50943W        W23368  39.596  11.406  12.137
50944W        W23369   9.797  29.939   1.204
50945W        W23370  36.535  34.454   2.893
50946W        W23371  42.096  27.689  11.252
50947W        W23372  37.030  44.052   2.784
50948W        W23373   5.492  22.666  14.493
50949W        W23374  27.505  29.991  14.066
50950W        W23375  38.318  25.914   2.342
50951W        W23376   3.282  17.698  10.686
50952W        W23377  14.117  21.032   4.202
50953W        W23378  25.268   1.285   3.132
50954W        W23379   9.336  32.991   1.771
50955W        W23380  34.056  12.003   1.429
50956W        W23381  11.790  31.219  12.410
50957W        W23382  25.135  16.822   2.688
50958W        W23383  10.714  39.350   2.872
50959W        W23384   0.325  38.824   3.896
50960W        W23385  42.224  16.600  11.917
50961W        W23386  44.812  40.434   0.220
50962W        W23387  21.667   8.072   9.609
50963W        W23388  38.470  18.144   5.001
50964W        W23389   8.720  15.707   3.985
50965W        W23390  10.627  41.765   2.961
50966W        W23391  21.747   1.052  13.106
50967W        W23392  17.223  20.286  14.350
50968W        W23393   0.686  32.414   0.489
50969W        W23394  38.477  22.189  13.643
50970W        W23395   8.622  21.952  11.606
50971W        W23396   8.261  36.878  14.464
50972W        W23397  33.118  31.084  10.602
50973W        W23398  15.848  36.363   0.519
50974W        W23399  44.795  44.257   3.302
50975W        W23400  33.804  30.206  13.051
50976W        W23401  28.915  16.297  10.759
50977W        W23402  14.983  20.319   0.385
50978W        W23403   1.742  11.376   1.831
50979W        W23404  31.755   8.290  14.317
50980W        W23405  30.696  25.977   4.223
50981W        W23406  28.227   7.352  12.870
50982W        W23407  16.227   7.106  11.180
50983W        W23408  42.693  16.782   0.228
50984W        W23409  19.796  44.590   0.707
50985W        W23410  24.578   7.924   1.867
50986W        W23411  44.752  40.036  12.146
50987W        W23412  26.531  22.686   0.468
50988W        W23413  34.211  11.733   2.430
50989W        W23414   0.372  38.574  12.993
50990W        W23415  31.385  31.182   2.275
50991W        W23416  20.151  35.327   3.295
50992W        W23417  32.113  35.064   2.277
50993W        W23418  43.851  26.562   0.035
50994W        W23419   4.818  18.356   4.353
50995W        W23420  31.649  43.531   1.751
50996W        W23421  33.136   2.272   1.014
50997W        W23422  41.114  10.821  11.504
50998W        W23423  35.406   3.838   3.382
50999W        W23424   3.658   8.706  13.033
51000W        W23425   2.478  41.938  10.691
51001W        W23426   1.453  25.351   0.803
51002W        W23427  31.468  38.549   0.496
51003W        W23428  30.516  30.563   3.361
51004W        W23429  27.656   8.862   1.557
51005W        W23430  39.060   4.984   4.167
51006W        W23431  30.492  33.375  14.822
51007W        W23432   4.712   4.545   1.815
51008W        W23433  33.207   9.237  12.895
51009W        W23434  35.046  26.704   3.645
51010W        W23435   7.520  32.265   3.273
51011W        W23436  36.018   4.505  12.614
51012W        W23437   6.419  16.305  11.577
51013W        W23438  43.748  21.495  11.541
51014W        W23439  24.734  12.372   0.064
51015W        W23440  36.907  37.333   4.366
51016W        W23441  16.019  42.290   2.888
51017W        W23442  32.998   7.345   3.705
51018W        W23443  22.800   4.014  12.590
51019W        W23444  32.980  16.588   2.416
51020W        W23445  32.534   5.729   1.981
51021W        W23446   1.430  15.147   4.042
51022W        W23447  23.976   8.440  13.608
51023W        W23448  17.786  13.702  14.843
51024W        W23449  36.051  38.220   3.770
51025W        W23450  37.075   1.664  14.977
51026W        W23451   7.955  44.510  14.406
51027W        W23452  11.068  18.823   0.758
51028W        W23453   3.898  13.907   4.061
51029W        W23454  21.526  19.339   4.827
51030W        W23455  22.724  23.473   3.795
51031W        W23456  29.682   1.746   3.181
51032W        W23457  34.479  10.893  10.887
51033W        W23458  15.557  39.946   3.848
51034W        W23459   0.727  37.010  13.378
51035W        W23460  24.570  22.159  10.978
51036W        W23461  14.271  31.032  10.832
51037W        W23462  33.602  38.054  13.616
51038W        W23463  13.963  13.583   0.051
51039W        W23464  22.964   7.397  10.239
51040W        W23465   3.691  23.011   4.006
51041W        W23466   4.962   4.874   3.334
51042W        W23467  44.381  32.198   2.732
51043W        W23468  10.817  19.515   3.202
51044W        W23469  12.336  29.398  14.804
51045W        W23470   1.398  18.287   1.382
51046W        W23471  28.987  20.290   0.182
51047W        W23472   3.824  10.107  10.778
51048W        W23473  36.769  33.938  11.924
51049W        W23474  40.941  42.775   3.107
51050W        W23475  12.688  11.055  14.004
51051W        W23476  30.509  36.017  13.385
51052W        W23477  39.748  30.442   0.005
51053W        W23478   9.721  12.250   0.347
51054W        W23479  16.804  39.931  12.975
51055W        W23480  33.345  20.109   0.952
51056W        W23481  22.827  32.869   4.015
51057W        W23482  13.589  28.502  12.560
51058W        W23483  11.307  18.680   2.330
51059W        W23484  27.060  35.502  11.155
51060W        W23485  17.621   4.938  13.479
51061W        W23486   6.275  38.648   1.753
51062W        W23487  37.377  30.918   4.827
51063W        W23488  37.402  36.371  10.650
51064W        W23489   7.619  44.445  10.557
51065W        W23490  21.862  44.890   1.514
51066W        W23491  14.603  34.979  10.622
51067W        W23492  33.402  37.428  12.483
51068W        W23493  28.924  12.547  13.680
51069W        W23494  40.923  21.868   1.508
51070W        W23495   9.273  24.253   3.878
51071W        W23496   0.987  43.838  13.262
51072W        W23497  19.745  15.795  12.140
51073W        W23498  26.740  35.960  13.740
51074W        W23499  20.622  38.226  10.725
51075W        W23500  32.259  19.447   5.447
51076W        W23501  33.980  38.317  13.333
51077W        W23502   2.494  40.337  14.065
51078W        W23503  36.639   1.552   4.186
51079W        W23504  18.863  21.812  13.435
51080W        W23505  36.994  26.148  13.369
51081W        W23506  13.799   2.962  12.902
51082W        W23507   3.953  11.018   2.164
51083W        W23508  20.041  41.818  14.940
51084W        W23509  12.640  27.497   1.675
51085W        W23510  30.644  30.412  13.416
51086W        W23511  32.579  28.175   0.385
51087W        W23512  26.777   9.540  10.774
51088W        W23513  27.687  28.667   4.775
51089W        W23514  40.174   1.462   1.563
51090W        W23515  11.695  42.456   4.869
51091W        W23516   3.765   2.289  11.533
51092W        W23517  19.326  11.652   3.802
51093W        W23518  29.460  17.990   3.754
51094W        W23519  15.814  42.672   1.376
51095W        W23520  15.222   3.175  13.969
51096W        W23521  28.763   2.042  12.030
51097W        W23522  23.296  11.833   1.768
51098W        W23523  30.441  29.168   0.786
51099W        W23524  13.202  44.842  11.676
51100W        W23525  28.447   7.726   2.362
51101W        W23526  15.725   3.813   4.475
51102W        W23527   4.781  35.991   4.471
51103W        W23528  17.694  43.335   4.605
51104W        W23529  13.647  14.253  11.163
51105W        W23530   8.888  29.877  11.372
51106W        W23531  28.164  33.877  10.038
51107W        W23532   8.687  21.434  12.551
51108W        W23533   0.558  30.481  11.972
51109W        W23534  26.094   1.313   0.500
51110W        W23535  11.232   1.790   4.322
51111W        W23536  15.285  42.863   1.292
51112W        W23537  30.014  27.061  14.481
51113W        W23538  10.006  33.569  14.937
51114W        W23539   9.527   9.809  10.029
51115W        W23540   8.641   9.245  12.112
51116W        W23541  30.905  44.900  14.854
51117W        W23542  32.614   6.758   0.838
51118W        W23543  10.278  36.762  13.880
51119W        W23544  40.928  23.038   0.845
51120W        W23545  22.936   1.324  13.273
51121W        W23546  41.812  16.320  14.879
51122W        W23547   3.206  43.027  11.872
51123W        W23548  12.449  29.820   4.133
51124W        W23549  25.618  12.154   1.299
51125W        W23550  39.808  15.237   3.741
51126W        W23551   5.987  28.479   3.010
51127W        W23552   8.070  36.339  10.707
51128W        W23553   2.371  26.416  12.034
51129W        W23554  37.169  19.719   4.523
51130W        W23555  37.001  44.728  12.977
51131W        W23556   0.238   1.510  13.913
51132W        W23557  13.194  19.654  14.277
51133W        W23558  22.006  16.952   4.564
51134W        W23559  17.297   1.479  10.728
51135W        W23560  33.021   0.167   2.376
51136W        W23561  42.060  43.964  11.396
51137W        W23562  37.916   0.830   0.133
51138W        W23563  24.728  22.172   3.782
51139W        W23564   3.796   6.674   3.871
51140W        W23565  18.991  30.275  11.117
51141W        W23566  33.575   2.801   4.430
51142W        W23567  15.669  40.105   4.806
51143W        W23568  37.524  31.301  14.058
51144W        W23569   4.656  38.903  12.021
51145W        W23570   4.466   1.794  11.057
51146W        W23571  41.028  24.024  14.319
51147W        W23572  12.715  12.751   3.396
51148W        W23573  26.595  39.891   4.706
51149W        W23574  31.102  32.957   2.645
51150W        W23575  32.441  10.930  14.758
51151W        W23576  26.038  19.352  12.734
51152W        W23577  35.926  30.256   1.006
51153W        W23578  23.865   0.359  13.778
51154W        W23579  26.918  21.696  10.835
51155W        W23580  31.439  15.332  13.272
51156W        W23581   8.793   2.269   2.850
51157W        W23582  13.537  35.382   0.921
51158W        W23583   2.244  26.710  11.619
51159W        W23584  44.385   2.328   3.264
51160W        W23585  20.821   4.931   1.750
51161W        W23586  12.089  29.937  12.759
51162W        W23587  11.217  23.073   0.040
51163W        W23588  19.740   1.977  13.840
51164W        W23589  16.483  19.616   1.163
51165W        W23590  37.123  22.249  11.135
51166W        W23591   5.788  13.781   2.182
51167W        W23592  23.188  41.933  10.829
51168W        W23593   4.684  20.738  14.857
51169W        W23594  11.208   8.881   0.716
51170W        W23595   3.366  37.636   5.010
51171W        W23596  15.227  26.342  12.144
51172W        W23597  26.720  27.923  14.886
51173W        W23598  36.498   7.816   1.873
51174W        W23599  41.144   6.154   4.246
51175W        W23600   4.379  28.371   0.909
51176W        W23601  11.379  19.779   1.628
51177W        W23602  12.833  30.906  10.266
51178W        W23603  18.773  28.700   1.757
51179W        W23604  41.188  38.804   1.919
51180W        W23605  38.579  29.510  10.464
51181W        W23606  40.077  36.794  10.640
51182W        W23607  26.996  17.227   4.131
51183W        W23608   9.855  14.389   2.817
51184W        W23609  43.791  20.479   0.957
51185W        W23610  35.132  24.683  14.182
51186W        W23611  15.219  29.857  11.679
51187W        W23612  28.341  31.579  11.140
51188W        W23613  19.567  33.976   0.902
51189W        W23614  35.457  36.513  11.567
51190W        W23615  44.891  20.765  14.496
51191W        W23616   5.468  10.260  10.619
51192W        W23617   4.814   6.636  12.867
51193W        W23618   2.318  33.862  13.880
51194W        W23619  12.983  42.040  10.646
51195W        W23620  14.249   2.376  10.426
51196W        W23621  44.168   1.407  13.852
51197W        W23622  27.174   8.459  13.461
51198W        W23623  27.019  43.042   2.324
51199W        W23624  23.109  23.220  10.606
51200W        W23625  11.846  15.303   4.452
51201W        W23626  31.134  33.884   1.861
51202W        W23627   2.687   6.457  11.117
51203W        W23628  36.830   7.352  14.340
51204W        W23629  22.245  11.639   1.717
51205W        W23630   1.406  26.482  13.786
51206W        W23631   1.785  16.760  13.887
51207W        W23632  25.666  33.632   1.783
51208W        W23633  24.787  43.569   3.056
51209W        W23634  38.431  21.580   4.836
51210W        W23635   2.244   6.792   0.917
51211W        W23636  19.430   1.858  13.443
51212W        W23637  12.447  33.652  12.461
51213W        W23638  16.868   3.110   0.752
51214W        W23639   9.681   4.207   0.202
51215W        W23640  38.544  13.777  10.740
51216W        W23641  18.952  35.681   1.366
51217W        W23642  20.515  41.670   0.725
51218W        W23643   5.139  37.455   1.816
51219W        W23644  11.410   9.624   1.867
51220W        W23645  37.976   5.503   2.672
51221W        W23646  39.840  32.391   4.303
51222W        W23647   6.182   1.644  13.056
51223W        W23648  17.507  21.497  11.763
51224W        W23649  25.283  32.601  11.995
51225W        W23650   0.984  37.920  12.408
51226W        W23651  40.659  18.617   5.020
51227W        W23652   9.094  10.952  13.739
51228W        W23653   4.153  31.366  14.684
51229W        W23654  22.598   8.088  13.814
51230W        W23655  44.552  27.368  11.503
51231W        W23656   4.166  44.822   4.014
51232W        W23657  25.250  27.059  13.505
51233W        W23658  12.804  32.416  13.366
51234W        W23659  34.394  37.372   1.974
51235W        W23660  43.816  22.899   4.500
51236W        W23661  35.486   9.883  12.497
51237W        W23662  39.587  40.454  10.782
51238W        W23663  33.035  21.781   1.405
51239W        W23664  34.505  23.796  11.574
51240W        W23665  36.114  17.711  11.090
51241W        W23666  41.660  44.197   4.295
51242W        W23667  44.295  12.388  11.531
51243W        W23668  27.734  21.489   2.282
51244W        W23669  25.069  44.636  13.735
51245W        W23670  13.951  24.629  12.068
51246W        W23671  34.479   1.893   2.065
51247W        W23672  27.155   5.126  12.106
51248W        W23673  40.585  28.442  13.110
51249W        W23674  30.078  44.556   4.603
51250W        W23675  17.224  33.852   2.865
51251W        W23676  34.493   9.018   4.758
51252W        W23677  25.109  32.131  11.916
51253W        W23678  31.023  14.090   3.170
51254W        W23679  18.957   0.484   4.107
51255W        W23680  29.879   5.659   0.235
51256W        W23681  27.863   7.988  14.318
51257W        W23682  43.737   9.248   3.186
51258W        W23683   9.440   0.332  13.884
51259W        W23684   9.747   9.682   2.249
51260W        W23685  43.858   6.040  10.397
51261W        W23686  19.224  42.131   3.666
51262W        W23687  15.334  29.369  12.816
51263W        W23688  29.651  36.386   1.157
51264W        W23689  20.808  26.464   2.470
51265W        W23690  43.301  22.599   0.335
51266W        W23691  42.227  34.028   3.712
51267W        W23692  33.524  19.337   4.988
51268W        W23693  28.898   2.205  13.503
51269W        W23694  22.702   0.827  14.169
51270W        W23695  33.971   3.155  12.108
51271W        W23696  33.367  17.851   1.459
51272W        W23697   2.687   0.313   3.101
51273W        W23698  29.000  18.416  13.378
51274W        W23699  11.383  32.149  14.766
51275W        W23700   8.167  41.924   0.371
51276W        W23701   7.100  14.733   0.392
51277W        W23702  14.889  28.877   1.734
51278W        W23703  39.750  44.402  14.423
51279W        W23704  24.691  32.660  12.917
51280W        W23705   0.926  34.948  11.641
51281W        W23706  27.183  11.329  12.318
51282W        W23707  35.033  14.500  13.922
51283W        W23708  36.935  16.501   2.380
51284W        W23709  38.491  18.225  14.598
51285W        W23710   2.398   3.358  10.006
51286W        W23711   1.638   6.922   2.752
51287W        W23712  23.911  36.587  13.574
51288W        W23713  29.586  11.389  12.133
51289W        W23714  21.129   3.974  14.050
51290W        W23715  43.510  32.422   3.641
51291W        W23716  23.036  26.008   1.236
51292W        W23717  32.832  15.729   0.837
51293W        W23718  10.389  31.029  11.165
51294W        W23719  11.309   0.202  12.068
51295W        W23720  24.637  37.864   3.441
51296W        W23721  18.722  13.951   1.743
51297W        W23722  27.982   8.679   0.653
51298W        W23723  44.446  23.714   4.088
51299W        W23724  40.555  35.915  11.961
51300W        W23725  37.578   3.686   3.659
51301W        W23726  26.942  33.221   4.304
51302W        W23727  12.142  35.508  12.297
51303W        W23728  36.639  32.910  11.021
51304W        W23729   0.792  20.503  13.929
51305W        W23730  19.172   3.196   2.611
51306W        W23731  21.515  40.342   3.293
51307W        W23732  35.137   4.935  14.014
51308W        W23733  41.476   2.862  13.929
51309W        W23734  25.950  43.385  11.301
51310W        W23735  44.460  30.912  14.445
51311W        W23736  18.794  36.082  12.115
51312W        W23737  34.748  31.199   2.356
51313W        W23738  22.691  32.456   3.280
51314W        W23739   3.482   3.426   4.336
51315W        W23740   3.763  18.689  12.637
51316W        W23741  13.055  38.494  14.358
51317W        W23742  18.300  32.451   0.850
51318W        W23743  31.641  17.632   1.207
51319W        W23744  20.671  44.708   3.864
51320W        W23745   5.986  44.711  11.969
51321W        W23746   0.949   7.250   4.546
51322W        W23747  18.130  19.798   2.022
51323W        W23748  26.505  28.979  14.201
51324W        W23749   2.893  40.851  11.467
51325W        W23750  10.780  20.260  11.011
51326W        W23751  16.820  17.636  12.868
51327W        W23752   1.387   6.686  14.420
51328W        W23753  29.002  33.115  11.002
51329W        W23754   9.109   1.503  14.824
51330W        W23755  24.244  13.749   1.368
51331W        W23756  32.638  39.070   2.971
51332W        W23757  22.548  38.114  13.788
51333W        W23758  10.340  28.472   4.657
51334W        W23759   8.792  17.690   2.160
51335W        W23760  43.845  27.412   2.899
51336W        W23761  10.160  31.569  11.634
51337W        W23762  41.460  36.048  11.084
51338W        W23763  29.630  37.248   0.279
51339W        W23764  43.392  35.101  12.808
51340W        W23765   2.958  11.268  11.171
51341W        W23766   6.909  29.414   1.204
51342W        W23767  37.699  23.524  14.528
51343W        W23768  20.432  19.241  14.269
51344W        W23769   2.162  31.522   1.761
51345W        W23770  23.631  25.197  14.956
51346W        W23771   3.367   5.783  13.940
51347W        W23772  24.227   7.402  11.579
51348W        W23773  39.066  18.073   3.670
51349W        W23774  26.399  13.671   2.144
51350W        W23775  23.041  41.869  13.518
51351W        W23776   0.604  26.321   0.471
51352W        W23777  20.297   2.282   3.202
51353W        W23778  41.263  42.384   0.404
51354W        W23779   5.490  43.886  14.376
51355W        W23780  34.397   6.167   4.061
51356W        W23781  11.844  34.667  13.948
51357W        W23782  14.197  17.667   4.981
51358W        W23783  19.654  30.712   1.801
51359W        W23784  36.915  18.503   4.021
51360W        W23785   6.633  22.381   0.309
51361W        W23786  28.715  21.128   1.666
51362W        W23787  10.301  39.343   3.209
51363W        W23788  13.407  20.054   3.828
51364W        W23789  44.483  10.154   0.725
51365W        W23790   3.165  16.242   2.733
51366W        W23791   0.437  22.436  12.420
51367W        W23792  30.963  44.978  13.000
51368W        W23793  10.281  16.618   0.008
51369W        W23794  35.370  16.759  10.665
51370W        W23795   2.001   1.520  11.996
51371W        W23796   4.983   9.134   2.370
51372W        W23797   4.987  11.107   2.933
51373W        W23798   9.013  19.227  11.429
51374W        W23799  17.190  41.292  14.816
51375W        W23800  31.378  14.136  14.379
51376W        W23801  31.868   4.412  14.899
51377W        W23802  13.827  14.869  12.033
51378W        W23803  23.598   2.779  13.489
51379W        W23804   4.390  20.854  11.640
51380W        W23805  18.875  10.282  10.220
51381W        W23806  18.722  29.596  14.867
51382W        W23807  21.693  41.948  11.891
51383W        W23808  20.594  42.666   0.889
51384W        W23809   3.437  22.548   4.114
51385W        W23810   9.393   2.789   3.146
51386W        W23811  17.314  33.077  13.311
51387W        W23812  36.814  42.969   4.543
51388W        W23813  21.453  33.122  13.907
51389W        W23814   9.102   0.350  11.458
51390W        W23815  18.709  26.944   1.682
51391W        W23816  44.860   2.864   0.341
51392W        W23817  12.077  15.534  11.056
51393W        W23818  31.558  35.130  12.043
51394W        W23819   8.624  35.408   4.067
51395W        W23820   4.279   8.175   3.091
51396W        W23821   5.229   5.889  13.355
51397W        W23822  22.734  17.685  14.364
51398W        W23823  42.335  17.054   3.200
51399W        W23824  39.136  17.176   3.546
51400W        W23825  23.210  20.795  13.827
51401W        W23826  39.787  44.219   2.818
51402W        W23827   1.482  30.912   0.863
51403W        W23828  26.208   5.892   4.202
51404W        W23829  42.530  15.535  13.668
51405W        W23830  33.933  18.662  14.816
51406W        W23831  10.788  28.675   3.733
51407W        W23832  18.310  24.324  14.443
51408W        W23833   1.913  41.860  14.491
51409W        W23834   7.757  19.643  14.074
51410W        W23835   2.399  32.240   2.177
51411W        W23836  28.478   0.409   3.794
51412W        W23837  26.706  11.315   0.856
51413W        W23838  15.338  12.177   0.404
51414W        W23839  41.311   2.091   0.777
51415W        W23840  35.585  30.377   4.163
51416W        W23841  25.885  36.822   0.710
51417W        W23842   3.357  31.126   3.590
51418W        W23843  26.387  40.982  14.822
51419W        W23844  28.039   6.910   2.141
51420W        W23845  37.665  30.473   3.611
51421W        W23846   4.746  27.241  14.826
51422W        W23847  42.055   6.048   4.772
51423W        W23848  19.337  21.529   3.130
51424W        W23849  37.811   5.518  12.924
51425W        W23850  17.531  28.628   2.354
51426W        W23851   9.121   7.308   0.316
51427W        W23852  16.333  12.639  12.895
51428W        W23853   7.681  10.929   3.833
51429W        W23854  11.155  10.229   4.132
51430W        W23855  22.656  32.089  10.993
51431W        W23856  41.415   0.775   0.487
51432W        W23857  44.266  11.957   1.615
51433W        W23858  40.536  32.963   2.778
51434W        W23859  19.141  38.608   1.214
51435W        W23860  17.136  32.149  14.735
51436W        W23861  38.809  25.046  11.613
51437W        W23862   3.181   0.086  13.833
51438W        W23863  35.163  33.405   0.693
51439W        W23864  18.143  10.612   1.617
51440W        W23865  13.490  16.149  14.866
51441W        W23866  22.136  22.962  13.180
51442W        W23867   1.885   8.432  13.103
51443W        W23868  44.047   0.533   3.315
51444W        W23869  38.505  26.018  14.142
51445W        W23870   9.850  17.519  12.147
51446W        W23871  20.691  41.323   4.917
51447W        W23872  43.262  27.080   3.292
51448W        W23873  16.080  31.001   2.114
51449W        W23874   1.126  16.541  12.962
51450W        W23875   5.416  12.732  13.462
51451W        W23876  36.502   5.958  12.868
51452W        W23877  17.582  24.215  13.936
51453W        W23878  17.827   1.937   4.927
51454W        W23879   9.255   0.470   0.786
51455W        W23880  37.728  37.948  14.999
51456W        W23881  44.792  18.344  13.390
51457W        W23882  34.658  42.758  11.669
51458W        W23883  28.841  40.375   0.824
51459W        W23884  35.925  29.004  13.381
51460W        W23885  11.047  27.535  12.859
51461W        W23886  40.216  24.222   1.576
51462W        W23887  14.891  34.689  10.938
51463W        W23888  44.784   7.791   2.143
51464W        W23889   5.239   2.029  14.373
51465W        W23890  36.073  43.016   1.630
51466W        W23891  40.804  18.975   2.495
51467W        W23892  42.819  41.502  14.881
51468W        W23893  32.829   8.722   4.630
51469W        W23894  15.248   6.821  12.863
51470W        W23895  26.565  38.904   3.654
51471W        W23896  15.960  20.393  13.991
51472W        W23897  28.728  36.437  12.523
51473W        W23898  27.900  20.520  11.153
51474W        W23899  43.278   6.359   2.298
51475W        W23900  26.151   1.339   3.710
51476W        W23901  38.844   6.180  11.994
51477W        W23902   8.438  30.631  10.747
51478W        W23903  16.409  29.932  12.249
51479W        W23904  42.291  23.725  13.398
51480W        W23905  35.205  30.431   3.800
51481W        W23906  28.657  25.470   4.873
51482W        W23907   3.821   1.791   1.672
51483W        W23908   0.276  37.998   1.716
51484W        W23909  28.122   2.080  12.939
51485W        W23910   4.434  26.957  12.069
51486W        W23911   2.707   2.688  14.850
51487W        W23912  17.767  11.228  13.945
51488W        W23913  15.592  22.027   2.277
51489W        W23914  18.766  19.762   3.336
51490W        W23915  38.009  39.337   0.018
51491W        W23916  27.116  14.159   0.075
51492W        W23917  24.066   3.653   0.109
51493W        W23918   4.992  26.697   3.667
51494W        W23919  29.877  26.560  12.012
51495W        W23920   7.301  25.133   2.600
51496W        W23921  39.474  32.531  14.694
51497W        W23922  12.858  40.370   3.557
51498W        W23923  33.655  43.422  11.970
51499W        W23924   6.161  27.649   4.365
51500W        W23925  41.187  34.825  11.066
51501W        W23926  17.548  31.888   0.804
51502W        W23927  40.901   0.268   1.170
51503W        W23928  37.731  19.753  13.755
51504W        W23929  34.106   1.079   0.381
51505W        W23930  23.943  35.181   2.645
51506W        W23931  16.323  40.469  12.344
51507W        W23932  28.103  28.718   3.777
51508W        W23933   5.932  11.670  12.266
51509W        W23934  12.193  12.752   2.583
51510W        W23935   3.429  33.051   1.018
51511W        W23936   5.921   7.758   3.189
51512W        W23937  14.748   0.069  14.887
51513W        W23938  33.390  24.445  10.720
51514W        W23939  14.908  14.113   3.161
51515W        W23940  11.470   0.753   2.998
51516W        W23941  10.364   5.651   3.702
51517W        W23942   8.138  26.160   4.223
51518W        W23943  39.462  31.667   4.302
51519W        W23944   2.214  11.772  13.803
51520W        W23945  32.201  39.999   4.542
51521W        W23946  18.575  10.264  10.644
51522W        W23947   3.640   5.928  10.537
51523W        W23948  29.416  31.995  13.101
51524W        W23949  32.539  33.804  10.467
51525W        W23950  26.190   2.757  13.354
51526W        W23951   4.523   2.905   1.295
51527W        W23952  28.514  33.215   4.607
51528W        W23953  31.000   9.604   0.450
51529W        W23954  34.147   1.395  10.647
51530W        W23955  33.058  11.101  13.434
51531W        W23956   2.685  42.893  13.550
51532W        W23957  25.955  14.330   2.808
51533W        W23958  12.894  10.100  14.026
51534W        W23959  33.867  17.005   4.313
51535W        W23960  26.627  24.802  13.119
51536W        W23961   2.861  12.346  12.604
51537W        W23962  17.758  41.371   0.189
51538W        W23963  37.251  20.884  11.520
51539W        W23964   7.412  40.883  13.480
51540W        W23965  13.824  31.640   2.518
51541W        W23966   5.151  10.836  14.985
51542W        W23967   9.666  19.571   3.881
51543W        W23968  20.109  36.677   4.080
51544W        W23969   1.887  19.716  10.463
51545W        W23970  19.143   4.170   0.694
51546W        W23971  15.646   8.082  10.479
51547W        W23972  35.617  12.717  10.754
51548W        W23973  39.295   4.924  11.186
51549W        W23974   1.929  15.162   2.700
51550W        W23975   0.246   3.763  11.201
51551W        W23976  19.367  40.039  14.769
51552W        W23977   0.947  39.362   2.207
51553W        W23978  25.183  37.398   3.210
51554W        W23979  30.483   6.035  11.110
51555W        W23980  30.753   8.840  12.169
51556W        W23981  27.531   3.844  12.699
51557W        W23982  44.537  36.899  12.506
51558W        W23983   6.365   4.599  10.735
51559W        W23984  32.303  12.629   1.186
51560W        W23985  21.763  33.514   4.578
51561W        W23986  13.581  21.047   1.336
51562W        W23987  23.660  28.408  14.622
51563W        W23988  34.074   8.100  14.438
51564W        W23989  25.728   7.274  14.301
51565W        W23990  43.566  12.264  11.130
51566W        W23991  20.776  31.477   4.491
51567W        W23992  32.654  38.866  11.670
51568W        W23993   9.667   5.840   2.708
51569W        W23994  35.141  26.889  12.701
51570W        W23995   7.415   4.283  14.567
51571W        W23996  44.272  15.711  11.012
51572W        W23997  43.925  28.180   1.281
51573W        W23998  21.845  31.658   2.523
51574W        W23999  43.065  23.907   2.352
51575W        W24000  32.959  35.988   0.251
51576W        W24001   1.180  21.506   3.766
51577W        W24002  30.573  23.557  12.600
51578W        W24003  22.212  13.664   0.023
51579W        W24004  42.122  19.696  13.989
51580W        W24005  12.300  38.357   4.190
51581W        W24006   1.254  11.121   1.802
51582W        W24007  20.329  11.476   9.685
51583W        W24008   0.970  35.880   4.239
51584W        W24009  35.347  34.192   2.826
51585W        W24010  37.464  29.012  11.442
51586W        W24011  32.620  25.652   2.722
51587W        W24012  40.533  23.721   1.804
51588W        W24013  25.859  35.501  10.622
51589W        W24014  11.566  32.976   0.303
51590W        W24015  21.643   1.794   0.838
51591W        W24016  26.222  28.158  10.505
51592W        W24017  39.064   1.905  14.774
51593W        W24018  17.126  11.819   1.975
51594W        W24019  42.929  35.681   2.833
51595W        W24020  42.270  29.571  12.947
51596W        W24021  14.231   3.943   0.939
51597W        W24022  26.831   5.284   3.558
51598W        W24023   0.433  27.449   1.859
51599W        W24024  35.398   6.418  10.499
51600W        W24025  13.673   0.286  13.415
51601W        W24026   5.253   1.265   4.874
51602W        W24027  28.568  19.356   4.059
51603W        W24028  26.222  36.355   4.615
51604W        W24029  20.210  35.964  12.206
51605W        W24030  36.028  41.923  14.824
51606W        W24031  31.443  19.487  13.600
51607W        W24032  10.845  16.628   2.724
51608W        W24033  37.410  31.870  12.447
51609W        W24034   2.878  33.788   1.626
51610W        W24035  43.652  43.224  12.644
51611W        W24036   5.724  36.645   0.308
51612W        W24037  18.236  40.284  10.949
51613W        W24038  39.339  14.826   2.329
51614W        W24039   7.791  32.112  12.595
51615W        W24040  42.292  42.458   0.384
51616W        W24041  34.445  19.726  12.041
51617W        W24042  20.171  15.926  12.412
51618W        W24043  40.431  44.212  10.584
51619W        W24044   2.245  32.329  12.218
51620W        W24045  38.111   2.067   2.710
51621W        W24046  37.559  40.098   3.257
51622W        W24047  42.873  20.154  10.696
51623W        W24048  18.931  13.776  12.164
51624W        W24049   8.902  42.667   3.726
51625W        W24050   9.856   2.731   4.883
51626W        W24051   8.308  13.094  10.727
51627W        W24052  39.060   8.735   2.921
51628W        W24053   9.379  28.596  13.553
51629W        W24054  24.770  42.094  13.613
51630W        W24055  36.885  27.240  11.928
51631W        W24056  33.086   9.136   4.457
51632W        W24057  16.266   6.467   2.107
51633W        W24058  10.782  26.196   1.693
51634W        W24059  38.426   7.268   1.024
51635W        W24060  16.835   4.990   0.633
51636W        W24061  23.311  42.247  13.746
51637W        W24062  15.764  27.969   1.187
51638W        W24063  16.159  22.994  12.429
51639W        W24064   5.629   4.968  13.700
51640W        W24065  18.653   5.341   3.171
51641W        W24066   0.711   1.930  13.294
51642W        W24067  36.114  12.820   1.855
51643W        W24068  42.615  42.207   1.572
51644W        W24069  43.249  37.336  10.605
51645W        W24070   4.352  40.862  14.842
51646W        W24071   2.236  29.484  14.955
51647W        W24072   3.719  19.687   3.817
51648W        W24073  19.746   1.708  11.569
51649W        W24074  37.941  44.050   0.915
51650W        W24075   1.170  41.520  10.603
51651W        W24076   4.653  40.316  14.273
51652W        W24077   5.963  44.519  12.451
51653W        W24078   9.797  32.370   4.745
51654W        W24079  28.593  33.663   9.768
51655W        W24080   9.635  23.667  12.458
51656W        W24081  25.932  40.110  11.121
51657W        W24082  30.463  17.745  10.456
51658W        W24083   2.523  21.060   0.027
51659W        W24084  24.523   3.689  12.657
51660W        W24085  44.765   8.487  11.974
51661W        W24086  29.548  26.171  11.533
51662W        W24087  39.327  27.497   4.100
51663W        W24088  29.004  24.043   4.781
51664W        W24089  39.252  30.000   3.404
51665W        W24090  41.741  33.321  10.269
51666W        W24091  26.023  42.058   2.278
51667W        W24092   3.042  23.126  10.529
51668W        W24093  30.277  13.627  13.011
51669W        W24094  37.037  12.379   1.172
51670W        W24095  35.366  34.577  11.705
51671W        W24096   9.354  43.904  12.706
51672W        W24097  23.925  24.709  12.948
51673W        W24098   5.260  21.123  11.747
51674W        W24099  38.097   7.677  11.230
51675W        W24100   0.705  29.235   4.151
51676W        W24101   2.424  12.283   4.896
51677W        W24102  35.859  11.256   2.238
51678W        W24103  37.355  17.537  14.811
51679W        W24104  10.849   6.154   9.840
51680W        W24105  29.717  31.118  12.646
51681W        W24106   9.615  23.813   0.183
51682W        W24107  37.639  40.763  13.043
51683W        W24108  37.285  27.504  14.318
51684W        W24109  19.605  44.579  12.945
51685W        W24110  32.472  37.738  14.029
51686W        W24111  33.157  43.855   4.104
51687W        W24112  33.332  41.788  14.583
51688W        W24113   7.633  14.739   0.333
51689W        W24114   3.982   4.019   1.804
51690W        W24115  28.912  35.101  10.796
51691W        W24116  28.769  34.246  14.706
51692W        W24117  13.266   6.458  14.294
51693W        W24118   9.743  10.190  13.881
51694W        W24119   6.264  33.328  12.971
51695W        W24120  42.521   8.050   4.543
51696W        W24121  41.998   0.149  12.469
51697W        W24122  27.414  30.406   0.306
51698W        W24123  11.697   0.926  13.470
51699W        W24124   2.673  11.231  12.543
51700W        W24125  15.247  13.665  10.722
51701W        W24126  35.378   5.431  13.315
51702W        W24127  19.612  24.178  12.845
51703W        W24128  20.242  34.362   4.645
51704W        W24129  43.495  12.253   1.887
51705W        W24130  30.911  31.469  10.977
51706W        W24131  25.905  40.737  12.634
51707W        W24132  20.745  41.448  14.361
51708W        W24133   1.807  18.563  11.629
51709W        W24134  27.478   1.002  13.972
51710W        W24135  11.645   9.127   0.957
51711W        W24136  25.918   8.100  14.858
51712W        W24137  11.161   5.768  11.795
51713W        W24138  41.996  35.871   3.663
51714W        W24139   8.899  43.978  12.013
51715W        W24140  20.710   2.076   1.258
51716W        W24141  21.480  21.153  14.065
51717W        W24142  25.447  25.685  11.567
51718W        W24143  33.650  23.200  13.377
51719W        W24144  12.295  39.116   3.579
51720W        W24145  30.671  37.878   0.358
51721W        W24146  32.138  21.083   3.169
51722W        W24147  16.455  32.401   0.238
51723W        W24148   9.392  20.339  10.578
51724W        W24149  41.026  18.234  11.984
51725W        W24150  32.074   1.400   0.007
51726W        W24151  12.580  43.924  10.674
51727W        W24152  29.115  43.538  11.843
51728W        W24153  37.043  28.478   4.512
51729W        W24154  34.930   0.789  12.783
51730W        W24155  12.669  17.139  12.576
51731W        W24156  44.795  14.172   4.863
51732W        W24157  18.751  19.715  11.549
51733W        W24158  37.086  26.842   2.781
51734W        W24159  25.225  39.475   4.182
51735W        W24160  43.336  22.191   4.620
51736W        W24161  44.708   7.903  10.648
51737W        W24162  44.321  38.764   2.832
51738W        W24163  44.670  29.029   3.321
51739W        W24164  17.389  22.065   1.939
51740W        W24165   2.000   8.738   1.317
51741W        W24166  40.916  21.617   0.734
51742W        W24167  31.689  13.264   2.754
51743W        W24168   2.776   3.413  12.299
51744W        W24169   2.537  32.888   0.262
51745W        W24170  29.081  12.121   2.494
51746W        W24171   4.495  22.581   2.093
51747W        W24172  42.540  12.359   3.325
51748W        W24173  40.531  17.842  14.961
51749W        W24174  20.789   2.302   3.062
51750W        W24175   5.481   0.942   0.222
51751W        W24176  15.218  23.757  12.499
51752W        W24177  13.654  28.010  12.400
51753W        W24178  26.997  32.751   4.087
51754W        W24179  23.615  42.922  10.601
51755W        W24180  21.609  40.393   1.309
51756W        W24181  14.585  43.355  11.915
51757W        W24182  31.911  12.587  10.964
51758W        W24183   8.867  32.664   1.811
51759W        W24184  32.341  13.761  12.519
51760W        W24185  39.117  41.396  14.862
51761W        W24186  23.885  24.617  10.364
51762W        W24187  23.789  18.140  13.064
51763W        W24188  38.008  24.245  14.850
51764W        W24189   5.464   9.390   4.605
51765W        W24190   3.918   7.320   1.653
51766W        W24191  42.117  12.231  10.931
51767W        W24192  24.651   1.835  10.749
51768W        W24193  30.124   8.717   1.685
51769W        W24194  18.670   6.674  14.064
51770W        W24195  16.691   4.871  14.780
51771W        W24196  37.097  31.626   1.381
51772W        W24197   5.488   3.393  12.984
51773W        W24198   6.506  43.300  13.726
51774W        W24199  39.733  24.060  14.987
51775W        W24200   2.793  15.621   2.908
51776W        W24201  29.471   8.724   4.382
51777W        W24202  38.436   0.681  13.933
51778W        W24203  14.474  22.469   5.043
51779W        W24204   2.320  25.693  11.400
51780W        W24205  22.627  18.634  12.503
51781W        W24206  12.845  42.133  14.413
51782W        W24207  23.964  23.437  13.216
51783W        W24208  21.014   2.115  11.139
51784W        W24209  43.070  40.020   3.171
51785W        W24210   5.722  24.645   2.629
51786W        W24211  32.516  27.334  12.127
51787W        W24212  29.497  23.912   0.393
51788W        W24213  42.089  29.935  13.770
51789W        W24214  23.524  36.458   4.176
51790W        W24215   5.391  20.545  14.830
51791W        W24216   6.774   2.027  12.525
51792W        W24217  15.597  32.083  11.372
51793W        W24218  29.666   7.305  11.921
51794W        W24219   4.606  32.805   0.198
51795W        W24220  29.091  22.111   2.965
51796W        W24221  18.596   0.576   3.052
51797W        W24222   0.807  43.455  11.964
51798W        W24223  27.688  41.728  11.561
51799W        W24224   1.424  27.881  10.613
51800W        W24225  10.453  38.955  12.423
51801W        W24226  39.489  18.779   4.535
51802W        W24227   4.265   4.475  14.980
51803W        W24228   9.063  39.990  10.778
51804W        W24229  36.680   3.972  11.524
51805W        W24230  13.254  16.184  13.591
51806W        W24231  37.065  36.572  14.518
51807W        W24232  18.768  34.572  13.542
51808W        W24233  22.119  41.201  14.054
51809W        W24234  38.674   2.198   0.923
51810W        W24235   4.639  29.510  11.676
51811W        W24236  24.159   1.098   2.348
51812W        W24237  43.420  37.012   0.863
51813W        W24238  23.687   4.890   2.279
51814W        W24239  21.547  34.480   2.768
51815W        W24240  17.310  23.594   2.789
51816W        W24241   0.327   7.051  11.118
51817W        W24242  39.912  20.240   1.918
51818W        W24243  27.808  31.530  11.084
51819W        W24244  35.841  40.928   4.902
51820W        W24245  31.445   7.832  11.668
51821W        W24246  21.066   5.500  12.962
51822W        W24247  17.241  36.229   4.129
51823W        W24248  23.191  18.856  14.853
51824W        W24249  12.389  25.139   3.381
51825W        W24250  32.317   3.336   2.888
51826W        W24251  44.130   6.817  10.610
51827W        W24252  12.984  26.769   2.869
51828W        W24253  28.571  42.742   3.253
51829W        W24254  32.932   9.151   3.929
51830W        W24255  33.195  44.127  14.266
51831W        W24256  12.979  42.150   2.740
51832W        W24257  20.753  19.119  14.818
51833W        W24258  12.915  37.254  11.292
51834W        W24259  18.396   4.634   4.793
51835W        W24260  42.729  39.973   2.252
51836W        W24261   0.674   8.542  11.177
51837W        W24262  32.003  24.416  10.993
51838W        W24263  22.141  23.767  13.798
51839W        W24264  27.070  31.418   4.974
51840W        W24265  26.626  14.242   4.372
51841W        W24266  38.931  15.806   0.353
51842W        W24267  29.509  34.448   0.844
51843W        W24268  23.745  37.084  14.402
51844W        W24269  22.071  21.761  11.630
51845W        W24270  13.275  16.745  11.528
51846W        W24271  30.170  29.938  11.617
51847W        W24272   2.570  17.430  12.509
51848W        W24273  30.662  44.450  14.838
51849W        W24274   9.863  28.367   2.112
51850W        W24275  43.651  23.098  12.505
51851W        W24276  41.277  14.378   4.296
51852W        W24277  30.945  26.424   4.198
51853W        W24278  21.873  31.023  11.980
51854W        W24279   5.636  17.102  12.902
51855W        W24280   3.190   6.870   1.839
51856W        W24281  23.080   4.721  10.691
51857W        W24282  11.857   5.357   3.676
51858W        W24283  21.322   6.010   0.445
51859W        W24284  33.856   7.467  10.637
51860W        W24285  30.719  18.378   9.825
51861W        W24286  39.443  35.856  12.529
51862W        W24287   2.502  31.357  13.878
51863W        W24288  12.955  44.076   3.780
51864W        W24289  20.474  42.360  12.975
51865W        W24290  35.063  41.101   1.201
51866W        W24291  39.397  30.046  12.927
51867W        W24292  25.612  30.367   2.285
51868W        W24293  38.428  15.829   0.439
51869W        W24294  14.175  42.894   4.018
51870W        W24295  20.705  37.997  13.861
51871W        W24296  17.207  18.093  10.721
51872W        W24297  27.582  29.199  10.743
51873W        W24298   3.717  31.973   3.077
51874W        W24299  34.081   7.642   2.468
51875W        W24300  13.294  29.663  11.539
51876W        W24301  24.222  11.199  11.940
51877W        W24302  20.472  23.640   3.652
51878W        W24303  34.237  27.279   2.193
51879W        W24304  21.790  41.048  14.968
51880W        W24305   8.589  41.103  11.986
51881W        W24306   8.251  24.622   2.204
51882W        W24307  22.344  27.054   0.804
51883W        W24308  26.903  13.563   4.133
51884W        W24309  20.727  32.120  13.795
51885W        W24310  33.789  20.358   1.688
51886W        W24311  17.161  19.017   4.857
51887W        W24312  16.183  32.419  14.446
51888W        W24313  40.336  37.146  12.855
51889W        W24314  22.179  38.636  13.129
51890W        W24315   3.127  25.146   4.828
51891W        W24316  14.750  13.178   2.861
51892W        W24317   6.155  22.142  14.358
51893W        W24318  12.756  31.053   2.750
51894W        W24319  31.059  14.725   4.359
51895W        W24320   3.580  13.654   1.197
51896W        W24321  16.607   1.018   4.636
51897W        W24322  30.046   2.570  14.445
51898W        W24323  21.773  40.054   0.952
51899W        W24324   4.668  40.025   2.122
51900W        W24325   2.719  29.059  14.390
51901W        W24326  34.631  23.698   1.379
51902W        W24327  26.621  34.999  10.359
51903W        W24328   5.201   7.325  14.194
51904W        W24329  36.273  41.418  14.792
51905W        W24330  43.419   3.272   4.498
51906W        W24331  16.978   1.182  14.849
51907W        W24332   1.446   1.512  14.370
51908W        W24333  26.589   2.740  10.703
51909W        W24334  26.983  32.023   2.647
51910W        W24335  19.577  14.809   2.616
51911W        W24336  37.949   9.587  14.222
51912W        W24337  16.387   2.705   2.277
51913W        W24338  33.614  39.386   3.245
51914W        W24339  18.202  19.707  14.103
51915W        W24340  27.982  38.156   4.162
51916W        W24341   4.479  29.143   4.537
51917W        W24342  12.047  14.820   2.861
51918W        W24343  18.606  15.929   0.546
51919W        W24344   0.727  15.794  10.960
51920W        W24345   2.013  16.018  10.710
51921W        W24346  22.307  44.967   2.431
51922W        W24347  38.435  35.711   0.957
51923W        W24348  12.212  26.015   1.182
51924W        W24349  17.849  32.884  14.444
51925W        W24350  10.056  14.336   0.045
51926W        W24351  17.897   5.377  14.702
51927W        W24352   1.357  10.674  10.825
51928W        W24353   9.798  32.490   3.335
51929W        W24354   3.913  32.410  11.759
51930W        W24355  37.615  42.780  14.496
51931W        W24356   2.896  15.079  11.891
51932W        W24357   7.269  17.248  10.357
51933W        W24358  20.576  29.161  14.773
51934W        W24359  29.831  30.325  11.608
51935W        W24360  28.031  23.311  10.001
51936W        W24361  44.192  19.432  11.965
51937W        W24362  34.010  34.360  13.038
51938W        W24363  29.516  15.801  14.058
51939W        W24364  27.095  15.767  14.230
51940W        W24365  11.158  18.536  14.939
51941W        W24366  15.823   2.208  10.563
51942W        W24367   1.697  10.955   3.681
51943W        W24368  30.483  31.173  11.012
51944W        W24369  10.718  11.587   2.480
51945W        W24370   8.408  34.555   9.987
51946W        W24371  25.135  38.856  11.192
51947W        W24372  37.498  15.875  12.858
51948W        W24373  14.779  26.773  10.523
51949W        W24374  13.340   8.076   3.816
51950W        W24375  30.810   7.393  13.983
51951W        W24376  40.301  21.461  13.820
51952W        W24377  22.948  35.424   3.195
51953W        W24378  14.862   4.057  10.912
51954W        W24379  36.061  30.551  12.949
51955W        W24380   1.842  12.078   4.141
51956W        W24381  29.090  13.354  10.589
51957W        W24382  43.219   4.402  12.578
51958W        W24383  29.890  21.792  13.941
51959W        W24384  14.128  31.383  10.467
51960W        W24385  20.578  12.295   2.414
51961W        W24386  31.069   3.007  11.507
51962W        W24387  30.851  33.488   4.365
51963W        W24388  15.344   2.250   4.229
51964W        W24389  10.465  30.694   3.619
51965W        W24390   7.966  27.521  12.039
51966W        W24391  33.972  13.187   1.707
51967W        W24392  22.631  12.078  11.469
51968W        W24393  32.616  20.498  13.966
51969W        W24394  42.908   4.395   4.508
51970W        W24395  41.059  11.793   2.400
51971W        W24396  43.484   0.199   0.845
51972W        W24397  44.234  39.445   1.167
51973W        W24398  36.929  18.953  11.721
51974W        W24399  12.050  26.110   3.872
51975W        W24400   1.393  22.333  10.700
51976W        W24401  23.312  35.349  13.978
51977W        W24402  42.482  19.707   1.925
51978W        W24403  38.108  21.622  10.695
51979W        W24404  20.326  44.375   4.174
51980W        W24405  34.958  41.190   4.131
51981W        W24406   7.713  21.536  14.045
51982W        W24407  10.144  40.576   3.497
51983W        W24408   8.867   0.954   1.924
51984W        W24409   2.456  18.473  11.911
51985W        W24410   0.318  24.173  13.476
51986W        W24411  22.627  22.438   1.397
51987W        W24412  29.368  35.448  12.091
51988W        W24413  10.744  42.842   1.404
51989W        W24414   2.525  44.370  10.234
51990W        W24415   3.716  44.982   3.053
51991W        W24416  20.964  32.719  14.924
51992W        W24417   9.719  17.936   1.989
51993W        W24418  17.027  33.474  13.130
51994W        W24419  23.637  23.707  13.524
51995W        W24420  22.095  10.895  12.488
51996W        W24421  35.671  38.415  14.463
51997W        W24422  36.734  31.207   4.081
51998W        W24423  16.696  16.366  13.888
51999W        W24424  39.029   4.486  11.240
52000W        W24425   5.361  42.920   0.996
52001W        W24426  28.108  14.119   3.350
52002W        W24427  12.133  15.709   1.446
52003W        W24428  14.970  14.436   4.488
52004W        W24429  38.193   0.186  13.926
52005W        W24430   1.041  24.676  14.773
52006W        W24431  27.136  42.067  13.983
52007W        W24432  31.628  32.028  12.071
52008W        W24433  25.430  44.446   1.878
52009W        W24434  42.118  20.620   1.690
52010W        W24435  42.542  39.289   2.861
52011W        W24436  13.329  17.516   3.700
52012W        W24437  32.093  27.476  10.638
52013W        W24438  17.718   2.972  11.864
52014W        W24439  24.562   0.775  12.102
52015W        W24440  26.218  12.834   2.748
52016W        W24441  23.998  24.175   3.233
52017W        W24442   2.960  39.049  14.748
52018W        W24443   7.035  34.100   0.745
52019W        W24444  39.223   4.968  13.161
52020W        W24445  35.041  32.515  13.412
52021W        W24446  13.973  27.878  13.831
52022W        W24447  16.787  20.917  13.032
52023W        W24448  21.736  22.049   4.527
52024W        W24449  38.580  17.083   1.909
52025W        W24450  12.822  25.475   2.492
52026W        W24451   7.827  15.221   1.348
52027W        W24452   8.144  14.049  10.950
52028W        W24453  42.343  24.147   0.761
52029W        W24454  27.919  27.893   2.230
52030W        W24455  40.953  37.398  10.761
52031W        W24456   8.270  23.048   0.078
52032W        W24457   2.004   9.931  12.474
52033W        W24458  25.509  44.917  12.058
52034W        W24459   9.410  37.549   2.100
52035W        W24460  38.397  31.585  14.497
52036W        W24461  43.346  21.127  13.520
52037W        W24462  11.703  11.137  13.668
52038W        W24463  10.172  32.365  13.858
52039W        W24464  39.001  41.053  13.893
52040W        W24465  12.310  33.281   3.835
52041W        W24466  19.646   8.257   1.733
52042W        W24467   1.403  29.013  14.837
52043W        W24468  44.229   5.149  11.712
52044W        W24469  16.828  38.260  12.387
52045W        W24470  20.226  38.078   1.474
52046W        W24471  25.492  23.454   0.342
52047W        W24472  15.809  21.719  13.506
52048W        W24473  23.694  19.200  13.597
52049W        W24474  20.712  20.657   2.747
52050W        W24475   8.561  39.847   3.594
52051W        W24476  36.848  30.986   1.663
52052W        W24477  31.066  26.177  14.428
52053W        W24478  32.907  44.785   2.721
52054W        W24479  25.969  10.148   1.230
52055W        W24480  14.329  17.276  14.273
52056W        W24481   9.918  13.894   0.311
52057W        W24482  11.052  14.795  14.839
52058W        W24483   8.101  40.847   1.447
52059W        W24484  36.930  30.861   0.783
52060W        W24485   4.552  15.707  13.334
52061W        W24486  40.390  41.380   0.467
52062W        W24487  42.988  23.676   3.690
52063W        W24488   2.908   2.750   2.230
52064W        W24489  19.335  12.845  13.155
52065W        W24490  24.081  41.353   1.933
52066W        W24491  30.622  20.266   2.216
52067W        W24492  18.672  13.727  14.545
52068W        W24493  17.344  10.388   0.253
52069W        W24494  15.167   3.263  13.051
52070W        W24495  14.761   5.838   3.809
52071W        W24496   7.853  23.585  14.687
52072W        W24497  18.482  18.577   0.862
52073W        W24498  34.157  33.479   0.863
52074W        W24499  28.316  42.744  12.807
52075W        W24500   0.722   5.790  12.539
52076W        W24501  13.305  12.378  11.975
52077W        W24502  15.799   3.330  12.362
52078W        W24503  27.722   7.967  12.551
52079W        W24504  16.817  21.156  11.131
52080W        W24505  21.207  10.667   2.705
52081W        W24506  34.524  30.607  12.826
52082W        W24507  42.754   8.914   1.915
52083W        W24508  19.339   7.953  11.162
52084W        W24509  36.473  28.988  11.647
52085W        W24510  25.674  38.710  11.172
52086W        W24511  33.580  12.357   3.278
52087W        W24512   8.171  32.443  12.369
52088W        W24513  12.654  33.984   1.761
52089W        W24514  11.095   3.577   3.758
52090W        W24515  19.089  28.039  10.695
52091W        W24516  27.785   2.815   1.423
52092W        W24517  37.046  18.025  11.748
52093W        W24518  28.858  28.968   1.448
52094W        W24519   5.442  40.544   1.382
52095W        W24520   8.002  36.215   1.220
52096W        W24521   1.022  23.122  12.099
52097W        W24522  19.210   7.678   3.289
52098W        W24523  35.098  20.725  10.677
52099W        W24524   3.909   3.315  13.082
52100W        W24525  24.495  22.894  10.670
52101W        W24526  34.656  31.848   3.253
52102W        W24527   4.255   9.387  13.028
52103W        W24528  27.711   1.122   1.404
52104W        W24529  13.122  12.843   1.406
52105W        W24530  35.079  10.272   3.639
52106W        W24531  10.070  30.716   5.513
52107W        W24532  41.990   4.662   3.373
52108W        W24533  38.105  16.780   1.414
52109W        W24534  21.310  21.495   1.248
52110W        W24535  18.274   8.269   1.510
52111W        W24536   7.907   1.436  14.065
52112W        W24537  31.417  10.075  14.814
52113W        W24538  16.873  42.970   0.884
52114W        W24539  39.981   9.675   1.871
52115W        W24540  38.782  31.673   2.722
52116W        W24541  19.019  13.676   1.426
52117W        W24542  36.906  36.330  13.679
52118W        W24543   8.584   2.357   3.320
52119W        W24544   4.179  15.528   4.608
52120W        W24545  32.908  29.468  13.581
52121W        W24546  33.545  26.343  13.904
52122W        W24547  22.082  40.854  13.635
52123W        W24548  24.444  17.974  10.752
52124W        W24549  40.560   1.913   2.374
52125W        W24550  37.591  35.799  11.537
52126W        W24551   5.024  30.699  12.435
52127W        W24552  32.884  25.567   4.416
52128W        W24553  28.119  36.615   4.555
52129W        W24554  21.776   3.418  13.919
52130W        W24555  39.393   1.345  12.488
52131W        W24556  34.517   4.088   0.447
52132W        W24557  16.466  20.670   2.895
52133W        W24558   2.920  12.115  11.722
52134W        W24559  26.666   8.550  11.725
52135W        W24560  20.707  16.822  12.389
52136W        W24561  28.531  39.708  14.329
52137W        W24562  28.455  12.166  13.082
52138W        W24563  35.573   4.705  10.653
52139W        W24564  19.814  39.520  14.875
52140W        W24565  17.328  25.180   3.190
52141W        W24566  39.042  21.922  10.849
52142W        W24567  12.111   9.178   0.007
52143W        W24568  40.980  38.082   0.396
52144W        W24569  10.226  23.275   2.338
52145W        W24570  34.932   9.907  13.758
52146W        W24571  41.873   7.125   4.653
52147W        W24572  39.573  28.057  10.983
52148W        W24573  33.341  43.435  14.751
52149W        W24574   1.912  25.172   3.338
52150W        W24575  12.077  30.159  11.048
52151W        W24576  19.395  31.156   1.270
52152W        W24577   0.427  43.945   2.748
52153W        W24578  34.634  41.075  13.262
52154W        W24579  35.454   1.042   3.443
52155W        W24580  20.235  11.841  14.993
52156W        W24581  11.215  40.567   4.319
52157W        W24582  45.000  20.677   1.662
52158W        W24583  44.412  31.546   2.099
52159W        W24584   4.485  10.485   0.408
52160W        W24585  43.063  42.861  10.837
52161W        W24586  30.176   4.786   4.592
52162W        W24587   0.405  39.817  14.760
52163W        W24588  23.483  23.881  14.382
52164W        W24589  10.800  35.473   4.247
52165W        W24590  30.418   6.219  14.570
52166W        W24591  43.838  28.640   3.526
52167W        W24592   6.893  19.371   3.092
52168W        W24593   9.638   7.590   4.834
52169W        W24594  11.224   6.763   5.641
52170W        W24595  42.885  39.575  10.668
52171W        W24596  11.916  27.198  12.027
52172W        W24597  40.908  15.401  11.574
52173W        W24598  10.143  13.064   4.146
52174W        W24599  32.789   9.187  11.712
52175W        W24600  36.427   7.190  11.948
52176W        W24601  11.774  42.412   4.357
52177W        W24602  12.701  29.306   2.183
52178W        W24603  10.394  43.106   2.744
52179W        W24604   2.480  26.629   3.259
52180W        W24605  34.083   3.638  13.904
52181W        W24606   6.361   8.311   4.341
52182W        W24607  25.965   0.769  11.944
52183W        W24608  19.687  43.222   2.876
52184W        W24609  31.962  33.580   4.202
52185W        W24610  25.497  15.617   4.608
52186W        W24611  21.215   0.170  13.611
52187W        W24612  18.236   3.081  13.395
52188W        W24613  28.006   1.797  11.007
52189W        W24614  21.474  17.802   4.584
52190W        W24615   5.371  17.072  13.892
52191W        W24616  26.988   1.386   1.947
52192W        W24617  30.825  24.659  14.539
52193W        W24618  21.957  40.812   1.327
52194W        W24619  35.790  21.283   3.066
52195W        W24620  26.983  38.867   3.322
52196W        W24621  23.985  28.126   2.826
52197W        W24622  41.417   7.772  12.071
52198W        W24623   2.718   0.747   2.831
52199W        W24624   5.433  11.939   0.806
52200W        W24625  23.211  44.789   1.980
52201W        W24626  11.704  11.549   2.231
52202W        W24627   6.825  21.665  10.801
52203W        W24628   1.327  21.096   4.720
52204W        W24629  13.204  29.577  12.586
52205W        W24630   0.077  22.008  11.099
52206W        W24631  34.925  12.184  12.903
52207W        W24632  17.780  40.703   1.502
52208W        W24633  24.816  40.849   3.469
52209W        W24634  22.817  15.050   4.121
52210W        W24635  36.329  27.289   1.802
52211W        W24636  37.786   7.303   3.793
52212W        W24637  35.402  10.581   1.727
52213W        W24638   0.034  33.064   4.149
52214W        W24639  43.307  37.837   1.359
52215W        W24640  10.836  16.277  14.908
52216W        W24641  41.969  43.580  13.362
52217W        W24642  39.513  43.959  14.273
52218W        W24643  41.467   2.000   1.257
52219W        W24644  18.242  25.810  12.117
52220W        W24645  44.514  32.672  13.402
52221W        W24646  10.456   0.012  13.069
52222W        W24647  40.352  33.136  12.334
52223W        W24648   8.254   6.923  13.910
52224W        W24649  18.006  29.085  10.426
52225W        W24650  15.832  28.046   2.399
52226W        W24651  13.694  25.129   4.923
52227W        W24652  42.793  24.912   2.244
52228W        W24653  29.646  44.495   2.695
52229W        W24654  16.531   3.611  13.864
52230W        W24655   6.967  30.882  14.408
52231W        W24656  42.583  33.404  11.141
52232W        W24657  40.260   2.900  12.090
52233W        W24658  22.699  28.032   3.665
52234W        W24659  23.895  35.389   2.177
52235W        W24660  42.081  16.310   4.030
52236W        W24661  27.744  44.029   0.767
52237W        W24662  19.146   1.707  11.976
52238W        W24663  31.470  20.953  11.216
52239W        W24664   1.368  20.738   2.735
52240W        W24665  28.914  38.937  13.812
52241W        W24666   2.155   9.305   4.758
52242W        W24667  43.409  25.775  12.412
52243W        W24668   7.516  29.948  13.316
52244W        W24669  28.660  29.578  14.381
52245W        W24670  31.816  29.062   0.946
52246W        W24671  18.211  12.644   0.819
52247W        W24672  38.825  33.747   1.886
52248W        W24673  35.071  41.696   4.144
52249W        W24674   9.532   6.423  13.047
52250W        W24675  28.161  38.147   2.440
52251W        W24676   6.438  42.805  11.071
52252W        W24677  30.926  43.362  14.316
52253W        W24678  43.478  28.785  10.233
52254W        W24679  33.687  13.208  13.444
52255W        W24680  10.973  17.116  13.074
52256W        W24681  37.280  33.937  11.907
52257W        W24682  29.423  33.108  12.881
52258W        W24683  20.233  29.995  13.236
52259W        W24684  21.016  13.448  11.954
52260W        W24685  21.027  35.105   4.576
52261W        W24686  15.527  39.454  12.130
52262W        W24687  25.978  37.784  11.971
52263W        W24688   4.750   9.695   3.032
52264W        W24689  15.673  44.367   3.131
52265W        W24690   9.843   2.219  13.260
52266W        W24691  29.159   1.751   3.325
52267W        W24692  31.538   0.800   1.804
52268W        W24693  34.124  35.218  10.612
52269W        W24694  29.086  16.523  12.448
52270W        W24695  18.006  36.991  10.719
52271W        W24696  41.205  33.577  13.668
52272W        W24697  18.561  16.414  12.960
52273W        W24698   4.176  18.324   2.195
52274W        W24699  36.834  40.810   2.236
52275W        W24700  15.541  35.940   0.709
52276W        W24701  27.240   2.555  13.044
52277W        W24702  21.612  38.518  10.685
52278W        W24703  29.619  33.311   0.379
52279W        W24704  35.804  35.848  11.163
52280W        W24705  21.641  21.870  14.691
52281W        W24706  27.035  31.595   2.323
52282W        W24707  30.465  39.305  13.654
52283W        W24708  39.313   6.238   2.442
52284W        W24709   6.127  31.425  11.515
52285W        W24710   9.457  44.153  13.636
52286W        W24711  22.075  32.608   1.486
52287W        W24712   2.716  25.911  13.427
52288W        W24713   8.909   2.411  12.897
52289W        W24714   0.402  35.595   0.845
52290W        W24715   9.317  17.869  11.461
52291W        W24716  25.187  27.533   4.569
52292W        W24717  32.427  26.507   0.476
52293W        W24718   9.725  18.662   2.240
52294W        W24719  27.474  26.119  11.378
52295W        W24720  18.682  25.460   1.535
52296W        W24721  39.846  43.145  13.890
52297W        W24722  19.164  33.881  10.589
52298W        W24723  35.914   7.711   2.927
52299W        W24724   4.711  25.021  12.844
52300W        W24725   8.293  43.356   4.411
52301W        W24726  29.979  28.862   4.256
52302W        W24727  21.747  17.543   1.006
52303W        W24728  34.859  35.497   1.867
52304W        W24729  34.855  15.202  14.325
52305W        W24730  18.690  25.951   0.773
52306W        W24731   5.011   0.872  12.083
52307W        W24732  37.078  35.631  11.641
52308W        W24733   4.798  42.387  12.891
52309W        W24734  16.246  11.889  13.886
52310W        W24735  32.389  10.264  12.381
52311W        W24736  33.367   5.115   4.100
52312W        W24737  12.086  20.848  13.349
52313W        W24738  26.455  41.281   4.600
52314W        W24739   8.602  17.810   3.317
52315W        W24740  11.349   6.628  11.917
52316W        W24741  33.131  35.446  13.833
52317W        W24742  26.924  18.211   2.231
52318W        W24743   8.976  22.623   4.189
52319W        W24744  25.096  28.904   4.130
52320W        W24745  39.219  10.108   4.093
52321W        W24746   5.291  33.237   2.023
52322W        W24747   6.127  15.023  10.699
52323W        W24748  15.373  23.489  13.339
52324W        W24749  16.333  16.627   3.255
52325W        W24750  39.057  18.548  13.571
52326W        W24751  44.304  21.804   1.374
52327W        W24752  23.064  21.014  12.492
52328W        W24753   2.842  21.729  11.495
52329W        W24754   6.912  12.102   4.892
52330W        W24755  33.368  25.484   4.550
52331W        W24756   1.800  16.493  14.385
52332W        W24757   0.356  31.827   3.665
52333W        W24758   3.000   0.119   4.674
52334W        W24759  20.439  20.762   2.327
52335W        W24760  27.603   9.091  13.980
52336W        W24761  19.564  34.200  14.122
52337W        W24762  24.240  30.675   2.717
52338W        W24763  26.454  18.877  11.033
52339W        W24764   8.472  43.241   0.896
52340W        W24765  25.370  10.381   3.274
52341W        W24766   0.154  26.051   0.403
52342W        W24767  40.719   5.353  12.164
52343W        W24768  13.745  40.454  12.414
52344W        W24769  11.283  37.266  13.894
52345W        W24770  21.060  28.015  12.105
52346W        W24771  38.483   8.092   0.262
52347W        W24772  13.268  38.640   3.695
52348W        W24773  15.262  28.504   4.623
52349W        W24774  14.073  28.592  13.482
52350W        W24775  14.618  10.337  12.821
52351W        W24776  38.079   7.976   2.274
52352W        W24777   3.737  20.216   3.698
52353W        W24778  13.382  29.441  14.820
52354W        W24779  27.324  14.582  11.898
52355W        W24780  32.694  13.824  11.136
52356W        W24781  26.924  22.615  10.009
52357W        W24782  31.177  28.921  11.473
52358W        W24783  27.722  30.484  13.328
52359W        W24784  22.009  18.570  15.000
52360W        W24785  41.417  20.985   3.768
52361W        W24786  18.481   0.525  11.919
52362W        W24787   6.337  37.553   0.465
52363W        W24788  43.839  37.873   4.684
52364W        W24789  40.956  11.404   2.738
52365W        W24790  28.688  13.544  13.067
52366W        W24791   7.745  20.227   4.923
52367W        W24792  38.416  29.434  10.941
52368W        W24793  40.897  40.911   1.712
52369W        W24794  36.153  37.860   2.225
52370W        W24795  20.462  22.961  12.534
52371W        W24796   1.763   7.313  14.330
52372W        W24797  10.230  17.152  14.266
52373W        W24798   7.299   5.967  13.963
52374W        W24799   5.429  13.745  13.536
52375W        W24800  21.203  10.926  14.807
52376W        W24801  31.677   7.347  14.832
52377W        W24802   9.795   3.691  12.616
52378W        W24803  10.222  19.959  13.949
52379W        W24804   1.317   4.079   1.826
52380W        W24805  36.813  15.790   0.794
52381W        W24806  13.300  14.171  10.798
52382W        W24807  21.824  15.008  12.507
52383W        W24808  16.749   4.042  14.153
52384W        W24809  29.528  11.038   0.962
52385W        W24810   7.388  43.897  14.973
52386W        W24811  14.725  25.481   4.324
52387W        W24812   0.340   0.328  12.038
52388W        W24813  23.215  30.178   0.336
52389W        W24814  36.972  34.267   4.409
52390W        W24815   2.402  13.323  13.628
52391W        W24816  10.612  43.999   4.844
52392W        W24817   4.425   3.902  11.255
52393W        W24818  17.098  34.692   1.303
52394W        W24819  19.376  24.275  11.861
52395W        W24820  24.837  21.222   0.407
52396W        W24821  14.825  23.215   0.453
52397W        W24822   6.916  30.739   2.735
52398W        W24823  39.795  21.765   0.208
52399W        W24824   9.516  19.293  11.584
52400W        W24825   5.269  25.260  12.028
52401W        W24826  33.399  30.462  13.368
52402W        W24827  39.143  34.167   1.831
52403W        W24828   4.974  30.164  11.202
52404W        W24829   3.322  24.983  11.579
52405W        W24830  16.261   8.275   4.180
52406W        W24831   5.665  34.832  11.567
52407W        W24832  34.406  22.738  14.321
52408W        W24833  16.045   0.768  14.807
52409W        W24834   1.665  22.100  13.578
52410W        W24835  39.766   1.927  14.357
52411W        W24836  18.581  25.505  11.837
52412W        W24837  37.780   8.540   3.093
52413W        W24838  22.672  32.304   1.711
52414W        W24839  43.873  20.278   3.788
52415W        W24840  22.681  15.106   1.801
52416W        W24841  42.836  37.965  14.801
52417W        W24842   9.787  30.179  14.428
52418W        W24843  40.248  40.494  10.838
52419W        W24844  35.115  41.145  11.172
52420W        W24845  26.788  20.841  10.396
52421W        W24846  13.599   7.824   3.235
52422W        W24847   9.832  31.921   3.333
52423W        W24848  31.466  27.481  13.835
52424W        W24849  24.206   7.602  10.605
52425W        W24850  22.052  27.088   2.579
52426W        W24851  30.605   4.282   4.591
52427W        W24852  36.106   8.914   3.387
52428W        W24853  27.457  30.604  12.910
52429W        W24854  41.331  11.866   0.946
52430W        W24855  40.861   8.256   2.901
52431W        W24856  11.364   6.268  10.579
52432W        W24857  42.004  37.907  14.326
52433W        W24858  34.915  16.794  11.238
52434W        W24859  19.068  10.301  10.874
52435W        W24860  35.405   9.154  13.358
52436W        W24861  38.065  19.909  12.021
52437W        W24862   8.375  16.782   4.598
52438W        W24863   4.733  43.926   1.929
52439W        W24864  18.201  30.621   2.497
52440W        W24865  19.497  17.114   2.381
52441W        W24866   4.370  22.129   0.376
52442W        W24867   1.543  44.849  14.890
52443W        W24868  28.430  10.110   0.706
52444W        W24869  18.179   8.002  13.484
52445W        W24870  35.480  43.358  14.257
52446W        W24871  15.533  36.144   3.590
52447W        W24872  21.327  34.821  10.905
52448W        W24873  22.478  26.692   0.037
52449W        W24874  40.974  36.839   1.732
52450W        W24875  16.049  41.408   1.750
52451W        W24876   4.762  11.564  10.525
52452W        W24877   5.879   9.603   2.637
52453W        W24878  26.243  14.238  10.566
52454W        W24879  27.033  28.410   3.183
52455W        W24880  43.845   2.864   0.534
52456W        W24881  19.194  39.346   2.759
52457W        W24882   7.146  11.124   3.773
52458W        W24883  23.069  13.150   0.322
52459W        W24884  23.613  33.653  11.195
52460W        W24885  40.030  27.977  10.696
52461W        W24886  38.436  39.847  14.312
52462W        W24887  21.289   3.421   0.420
52463W        W24888  21.688  20.810  14.963
52464W        W24889  43.037  43.219  14.392
52465W        W24890  10.160   5.354  11.458
52466W        W24891  21.357  33.580   2.669
52467W        W24892  17.783  27.403   4.105
52468W        W24893  16.393   2.718   4.874
52469W        W24894   2.436  30.817  13.026
52470W        W24895  39.584  28.771  11.578
52471W        W24896  12.719  21.488  13.817
52472W        W24897  43.382  40.865   3.151
52473W        W24898  37.052  38.021   4.563
52474W        W24899  40.847  41.933  14.429
52475W        W24900  32.660   7.329  14.764
52476W        W24901  39.805   0.913   3.235
52477W        W24902  39.102  44.719  11.464
52478W        W24903  19.469  42.400   3.123
52479W        W24904   8.077   7.396   3.205
52480W        W24905  19.592  24.530   2.840
52481W        W24906  14.295  14.589  12.047
52482W        W24907  26.760  10.375   0.453
52483W        W24908  17.471  42.419  12.168
52484W        W24909  18.505  11.754   4.431
52485W        W24910   2.692  28.452   2.427
52486W        W24911   7.217  33.392   0.225
52487W        W24912  10.141  24.714  11.537
52488W        W24913   9.764   3.614  13.121
52489W        W24914  24.987  38.505  11.533
52490W        W24915  18.251  28.568   3.537
52491W        W24916  12.779  32.595   4.197
52492W        W24917  25.060   0.407   1.207
52493W        W24918  24.589  18.132   4.830
52494W        W24919  30.542  11.814  10.682
52495W        W24920  44.997  37.496   3.332
52496W        W24921  42.278  18.094  12.071
52497W        W24922  26.527   0.895   4.608
52498W        W24923   4.426  19.252  11.207
52499W        W24924  41.391  32.359   1.339
52500W        W24925   4.450  18.307   1.760
52501W        W24926   9.868   5.721   0.122
52502W        W24927   0.812   8.778   3.653
52503W        W24928   4.938  16.743  11.695
52504W        W24929  38.043  36.064  10.721
52505W        W24930  35.736  33.975   1.277
52506W        W24931   9.068  40.586  11.616
52507W        W24932   5.708  39.782  11.622
52508W        W24933  41.367  36.309  13.728
52509W        W24934  31.608   6.229  11.514
52510W        W24935  19.188  32.840  14.755
52511W        W24936  39.359  35.970  13.949
52512W        W24937  27.734  22.039   1.030
52513W        W24938  10.205  13.355   0.525
52514W        W24939  43.755  10.282  11.661
52515W        W24940  33.314  10.607  11.084
52516W        W24941  42.634  23.642   2.199
52517W        W24942  23.726  22.260   2.209
52518W        W24943  35.449   7.728  14.901
52519W        W24944  34.413  17.697   1.233
52520W        W24945  12.278   3.051  14.342
52521W        W24946  20.160  44.515   3.164
52522W        W24947  26.597  28.244   2.599
52523W        W24948  29.146  31.781  10.233
52524W        W24949  26.011  25.203   1.301
52525W        W24950  42.914  30.585   4.585
52526W        W24951  11.318   1.800   0.301
52527W        W24952  40.066  32.472   3.852
52528W        W24953   0.191   6.467  12.080
52529W        W24954  34.507  22.724   4.198
52530W        W24955  44.035  22.626  13.929
52531W        W24956  11.761  16.561   1.753
52532W        W24957  25.854  12.531  12.568
52533W        W24958   0.783  20.104   3.150
52534W        W24959  16.118  31.204   1.585
52535W        W24960  16.244  27.934  10.312
52536W        W24961  15.374  29.662   4.167
52537W        W24962  17.077  21.640  11.982
52538W        W24963  38.783  21.851  13.934
52539W        W24964   0.163  26.402   3.499
52540W        W24965  12.104   3.862  12.134
52541W        W24966  37.425  14.522  13.908
52542W        W24967  20.797   5.812   1.127
52543W        W24968  35.336  19.570  10.227
52544W        W24969  22.318  39.619  12.482
52545W        W24970  17.585  10.272  11.468
52546W        W24971  39.344  21.134   4.244
52547W        W24972  29.871  14.695   4.896
52548W        W24973  19.316   7.009   2.532
52549W        W24974   5.667  26.214   0.424
52550W        W24975  10.108   3.254   3.626
52551W        W24976  44.507   6.616   4.570
52552W        W24977   1.726  42.859  13.251
52553W        W24978  42.425  27.733  14.403
52554W        W24979  33.999   1.732   2.343
52555W        W24980  39.367  17.814  11.104
52556W        W24981  39.078  30.721   3.761
52557W        W24982   7.854  37.460  10.261
52558W        W24983  11.791   2.338   2.416
52559W        W24984  38.407  35.886  11.283
52560W        W24985  13.210  32.455   2.662
52561W        W24986  17.380  34.965  11.092
52562W        W24987  38.556   2.283   2.906
52563W        W24988   6.891  15.056  11.140
52564W        W24989  32.524  43.984  14.860
52565W        W24990  30.008  44.046   1.154
52566W        W24991  25.356  26.059   1.870
52567W        W24992  13.303  29.145  11.853
52568W        W24993   9.843  36.473   3.047
52569W        W24994  23.185  43.421  12.687
52570W        W24995  11.185  10.754   4.215
52571W        W24996  16.110  40.638  13.958
52572W        W24997  31.154  10.162   1.136
52573W        W24998  18.760  19.612  12.892
52574W        W24999  38.783  23.964   1.270
52575W        W25000  23.654  13.642  10.728
52576W        W25001  17.841  33.151  13.375
52577W        W25002  17.582  26.026   0.733
52578W        W25003   9.128  16.289   2.252
52579W        W25004   0.855  39.308  11.682
52580W        W25005  13.176   6.239  13.810
52581W        W25006  27.490  37.272   2.924
52582W        W25007  29.599  29.006   0.673
52583W        W25008  30.142  40.717   4.260
52584W        W25009  28.363  40.627  13.536
52585W        W25010   2.246  31.815  12.107
52586W        W25011   9.787  39.404   2.444
52587W        W25012  32.333  41.011   1.931
52588W        W25013  34.396   2.308   1.691
52589W        W25014  30.359  26.975  11.162
52590W        W25015   5.719  37.491   4.718
52591W        W25016  12.503  36.668  10.555
52592W        W25017  28.227  22.155   2.710
52593W        W25018  32.577  15.785  12.062
52594W        W25019  41.569  38.327   3.666
52595W        W25020   2.857  38.551  11.049
52596W        W25021  31.203  18.045   0.987
52597W        W25022  30.477   3.867   2.645
52598W        W25023  29.708   5.699  11.604
52599W        W25024   9.214  29.908   1.739
52600W        W25025  15.836  11.744  11.521
52601W        W25026  25.635  30.523   4.509
52602W        W25027  17.803  40.240  13.449
52603W        W25028  35.423  27.680   4.750
52604W        W25029  12.683  35.834  11.579
52605W        W25030  20.043  23.653  12.081
52606W        W25031   7.578   7.161   2.369
52607W        W25032  33.947  13.669  12.178
52608W        W25033  20.755  28.662   3.576
52609W        W25034  38.574  29.236  12.430
52610W        W25035  16.239  14.101   3.702
52611W        W25036  24.744  18.022   1.342
52612W        W25037  40.417  35.864   0.275
52613W        W25038   2.895  35.517  14.850
52614W        W25039   1.006  17.301  12.440
52615W        W25040  22.538  43.706  13.289
52616W        W25041  33.038  27.575   4.266
52617W        W25042  38.434  38.866  13.880
52618W        W25043  38.369  38.519   3.035
52619W        W25044  13.072  28.666  12.540
52620W        W25045  21.646   1.166   3.620
52621W        W25046  10.327  32.072  12.493
52622W        W25047  15.742  33.597  11.634
52623W        W25048  42.737  14.214   4.691
52624W        W25049  14.872  15.816  14.258
52625W        W25050   4.730  27.448   1.788
52626W        W25051  25.862  22.655  10.837
52627W        W25052  25.491  25.289   2.766
52628W        W25053   9.656   5.216   3.286
52629W        W25054  17.179  16.294  13.071
52630W        W25055  42.021  20.935  13.337
52631W        W25056  39.974   0.443  14.342
52632W        W25057   8.151  27.502   3.326
52633W        W25058  24.169  43.937   0.841
52634W        W25059  44.297  15.629   3.362
52635W        W25060  23.961   9.384   0.403
52636W        W25061  12.252  22.806   5.029
52637W        W25062   8.016   3.579  11.102
52638W        W25063  35.726  29.054   0.332
52639W        W25064   9.771  12.597   3.590
52640W        W25065  41.814  21.692  11.681
52641W        W25066   7.120  36.645  14.360
52642W        W25067   7.249  20.610  12.125
52643W        W25068  22.024   1.728   3.253
52644W        W25069  22.513   0.507  13.388
52645W        W25070   9.084  15.344   2.759
52646W        W25071  19.761  39.979  10.367
52647W        W25072  23.567  12.257  14.486
52648W        W25073  21.546  15.318   4.731
52649W        W25074   3.785   7.386  10.326
52650W        W25075  12.242   6.827   0.229
52651W        W25076  20.663   2.405   4.184
52652W        W25077  18.860   6.258   2.705
52653W        W25078  36.433   8.140  12.961
52654W        W25079  21.757  18.009   4.217
52655W        W25080  36.449  18.248   0.531
52656W        W25081  22.813  44.924   1.140
52657W        W25082  30.905  17.676   1.909
52658W        W25083  34.696  16.935  11.718
52659W        W25084  30.678  20.096   4.185
52660W        W25085  20.508  31.905   2.849
52661W        W25086  28.948  26.686  10.535
52662W        W25087  43.835  11.661   1.706
52663W        W25088  20.041  42.604  13.805
52664W        W25089  13.891  25.687   5.558
52665W        W25090  41.801  29.486   1.703
52666W        W25091  29.381   9.776   0.455
52667W        W25092  40.999  31.970  14.886
52668W        W25093  35.413  27.239  14.409
52669W        W25094   2.461  41.988  13.422
52670W        W25095   8.840  39.553  11.021
52671W        W25096  25.735  35.031  12.523
52672W        W25097  44.702  23.337  10.422
52673W        W25098   4.929  36.914  12.076
52674W        W25099   9.184   6.981   4.530
52675W        W25100  44.214   5.812  12.865
52676W        W25101  37.004  44.227  13.161
52677W        W25102  21.070  11.177   2.846
52678W        W25103   1.689   0.815  10.936
52679W        W25104  43.410  21.247  10.076
52680W        W25105  34.070  42.341  13.423
52681W        W25106  23.005  10.901   4.998
52682W        W25107  39.833  38.447  13.242
52683W        W25108  13.808  18.601   4.585
52684W        W25109  34.291  42.251   1.323
52685W        W25110  43.203  39.035  14.874
52686W        W25111  42.948  27.011   1.413
52687W        W25112  25.313  40.162   3.784
52688W        W25113  12.368  20.306   2.824
52689W        W25114  27.946   0.784   3.842
52690W        W25115  25.650  40.541  10.993
52691W        W25116  28.469   3.539  13.429
52692W        W25117  40.952   9.589  11.570
52693W        W25118  15.083  14.591  14.931
52694W        W25119  27.978  33.140  12.475
52695W        W25120  38.028  44.206   5.047
52696W        W25121   4.806  42.518  10.727
52697W        W25122  24.754  15.017   3.714
52698W        W25123   3.388  15.983  13.007
52699W        W25124   2.478  43.794   4.551
52700W        W25125   5.407  33.928   4.556
52701W        W25126  17.711  36.301  11.097
52702W        W25127   2.513   3.004   2.936
52703W        W25128  37.417  28.626   0.844
52704W        W25129  11.161  43.765  13.464
52705W        W25130  32.043   6.517  11.985
52706W        W25131  31.189  39.537   2.792
52707W        W25132   4.175  31.189   1.905
52708W        W25133  13.872   7.453   0.394
52709W        W25134   8.934  15.374   3.625
52710W        W25135  18.537   1.255  11.007
52711W        W25136  16.658  15.638   0.331
52712W        W25137  32.972  44.228  10.546
52713W        W25138   5.731  29.122  11.195
52714W        W25139  20.722  18.864  10.764
52715W        W25140  33.252  22.424   1.758
52716W        W25141  35.789  44.710   4.098
52717W        W25142  16.121   8.096   4.684
52718W        W25143   8.170  15.582  13.971
52719W        W25144  38.752  11.582  11.122
52720W        W25145  21.612  37.089   0.853
52721W        W25146  17.749  26.075  13.877
52722W        W25147  42.115   1.862  13.923
52723W        W25148  11.446  13.252  14.977
52724W        W25149  33.564  20.986   4.762
52725W        W25150  30.212  43.660  13.613
52726W        W25151   6.230   0.862   1.701
52727W        W25152  18.150  15.725  14.870
52728W        W25153  31.919  42.516  10.678
52729W        W25154  26.510  24.357   5.114
52730W        W25155  42.002  20.608   3.101
52731W        W25156  32.864   7.256  11.387
52732W        W25157  16.193  11.273  12.147
52733W        W25158  31.928  43.744   2.129
52734W        W25159  15.638  15.344  12.914
52735W        W25160   2.281   4.670  13.429
52736W        W25161  30.943  44.029   0.314
52737W        W25162   0.390  31.510   2.453
52738W        W25163  39.960  28.945  12.537
52739W        W25164   2.208  37.447  12.320
52740W        W25165   6.582  42.990   1.218
52741W        W25166  14.849  26.927   0.353
52742W        W25167   2.200   2.977  11.014
52743W        W25168  24.441  44.488  10.898
52744W        W25169  35.433  17.768  12.747
52745W        W25170  32.224  43.067   4.412
52746W        W25171  15.604   6.774   0.367
52747W        W25172  25.739   4.445   4.940
52748W        W25173  28.600  39.971   3.177
52749W        W25174  31.829  30.360  12.876
52750W        W25175  33.398  31.992   0.392
52751W        W25176  15.009  20.301   1.881
52752W        W25177  38.739   7.265   5.197
52753W        W25178  16.228  40.749   1.210
52754W        W25179  17.666   1.884  14.883
52755W        W25180  16.770   9.755  12.101
52756W        W25181  31.755  37.537   2.760
52757W        W25182   8.168  12.294  11.963
52758W        W25183  36.927  11.396  13.325
52759W        W25184  40.143  23.302   3.845
52760W        W25185  25.929  36.403   2.649
52761W        W25186  25.133  39.633  12.152
52762W        W25187  27.646  21.285   2.739
52763W        W25188  35.655  30.616   1.757
52764W        W25189  19.974  34.807   1.257
52765W        W25190  30.941  44.290  14.399
52766W        W25191  25.149  34.032  10.428
52767W        W25192  40.107  40.236  14.641
52768W        W25193  23.170  15.030  12.585
52769W        W25194  14.298  30.583  12.526
52770W        W25195  28.291   9.704   1.398
52771W        W25196  34.857  41.032   0.235
52772W        W25197  17.196  17.829   2.131
52773W        W25198   7.368   0.107  12.084
52774W        W25199   8.970  13.401   5.124
52775W        W25200  42.328   1.469   2.255
52776W        W25201  23.077  24.992  11.874
52777W        W25202  28.861   8.710  13.438
52778W        W25203  16.143  22.501  12.157
52779W        W25204  16.311  42.355   3.997
52780W        W25205   9.452  27.471   1.311
52781W        W25206  37.178  15.679   4.184
52782W        W25207  12.598   9.010  14.941
52783W        W25208  40.305  18.064  14.012
52784W        W25209  18.065  29.970  14.330
52785W        W25210   5.675  26.643   2.022
52786W        W25211  36.164  10.686  14.507
52787W        W25212  19.268  11.854  12.858
52788W        W25213  15.108   7.456  11.932
52789W        W25214   9.472  29.830   2.806
52790W        W25215  17.247  37.003  14.050
52791W        W25216  11.493  17.859   3.264
52792W        W25217  10.101  32.913  10.623
52793W        W25218  43.939  36.819  10.887
52794W        W25219  19.488   6.309   0.992
52795W        W25220  27.714  19.339   1.969
52796W        W25221  16.441  12.398  14.325
52797W        W25222  42.932  24.204   3.690
52798W        W25223   6.865   5.939   1.851
52799W        W25224  19.368  15.715  12.566
52800W        W25225  44.517  43.987  11.324
52801W        W25226  44.015   6.679  13.452
52802W        W25227  17.415  24.147   9.967
52803W        W25228  43.404  33.448  14.406
52804W        W25229  43.519   6.181   4.104
52805W        W25230  11.703  12.453  12.580
52806W        W25231  19.980  16.589   4.180
52807W        W25232  36.609  35.043   4.255
52808W        W25233  28.085   3.950   1.745
52809W        W25234   7.950   8.315  12.001
52810W        W25235  25.024  22.631  14.973
52811W        W25236  20.595  37.094   4.097
52812W        W25237  20.446  15.368  11.025
52813W        W25238  10.064  28.239   3.096
52814W        W25239  18.500   6.211  12.162
52815W        W25240  44.981  41.048   4.186
52816W        W25241  11.330   5.993  11.030
52817W        W25242  21.561  26.315  12.416
52818W        W25243   4.797  20.319   4.640
52819W        W25244  29.009  29.587   2.269
52820W        W25245  39.946  19.722  11.982
52821W        W25246  41.174  18.568  10.833
52822W        W25247  14.215  24.187   2.802
52823W        W25248  42.762  15.062   3.092
52824W        W25249  18.164  17.661  13.966
52825W        W25250  25.194   9.814  11.519
52826W        W25251  38.341   2.963  13.072
52827W        W25252  31.448  44.889   4.188
52828W        W25253   9.153  41.798   2.333
52829W        W25254  44.528  32.942   0.764
52830W        W25255  19.082  27.025  14.467
52831W        W25256   1.210   0.436   3.134
52832W        W25257  23.604  33.497   2.385
52833W        W25258  37.343  24.137   4.067
52834W        W25259  41.189  30.203  14.813
52835W        W25260  10.021  26.395   5.113
52836W        W25261  25.531  12.282   0.243
52837W        W25262  10.585  15.242   2.935
52838W        W25263   8.750  14.694  11.100
52839W        W25264  44.181  37.477  10.866
52840W        W25265  43.486   7.277  13.987
52841W        W25266   1.204  10.150   4.762
52842W        W25267  30.927   6.161   4.335
52843W        W25268  12.477  28.989   1.858
52844W        W25269   3.956  41.471   4.608
52845W        W25270   0.783  41.621  10.936
52846W        W25271  16.945   0.926  13.084
52847W        W25272  15.493   5.978   2.220
52848W        W25273   3.775  21.042  14.006
52849W        W25274  23.452  18.840   0.498
52850W        W25275  34.443  34.627  12.841
52851W        W25276   3.906  17.028   1.795
52852W        W25277  40.938  21.572   3.945
52853W        W25278  43.988   4.208   3.425
52854W        W25279  23.504   0.705   0.277
52855W        W25280  37.308  44.004   0.473
52856W        W25281   3.418  25.321   0.315
52857W        W25282  16.442  41.407  14.610
52858W        W25283  31.808  18.223  14.421
52859W        W25284  10.041  19.357  12.171
52860W        W25285   7.574   7.786   9.828
52861W        W25286   7.242  31.421  12.031
52862W        W25287  26.059  29.535  13.719
52863W        W25288   2.537  24.440   1.985
52864W        W25289  34.644  29.121   4.876
52865W        W25290  15.825  22.134  13.163
52866W        W25291  26.051  35.560   1.273
52867W        W25292   2.954   4.697  10.661
52868W        W25293  33.498  40.122  12.468
52869W        W25294  17.350  15.611   4.511
52870W        W25295   1.782  20.960   4.989
52871W        W25296  39.876  33.533  10.968
52872W        W25297   2.332   2.910   4.658
52873W        W25298  25.247  22.137   3.688
52874W        W25299  22.743  13.574   2.964
52875W        W25300  16.657  35.262  13.087
52876W        W25301  42.465  29.754  13.428
52877W        W25302  22.582  33.641  12.871
52878W        W25303  26.158  31.101  11.830
52879W        W25304   1.100  35.923   1.610
52880W        W25305   2.440  44.698  13.969
52881W        W25306  33.539   7.289   3.219
52882W        W25307  32.452  28.222  13.551
52883W        W25308  23.494  31.381  12.971
52884W        W25309  36.082  30.665  14.839
52885W        W25310  30.025  29.673   2.067
52886W        W25311  14.739  27.103  13.504
52887W        W25312  17.180  38.033  14.081
52888W        W25313  17.387  17.039   4.403
52889W        W25314   8.619  18.713   2.572
52890W        W25315  32.322  40.377   3.609
52891W        W25316  31.621  19.813   0.017
52892W        W25317   4.420  28.125   4.683
52893W        W25318  38.830  38.041   2.711
52894W        W25319  35.122   7.827  12.762
52895W        W25320  41.612   2.365  10.849
52896W        W25321  26.068  15.821   2.927
52897W        W25322   6.509  28.985   1.762
52898W        W25323  13.913  32.406   3.815
52899W        W25324  38.944  39.313  13.332
52900W        W25325  11.769  30.941  11.517
52901W        W25326  13.912  43.932  12.607
52902W        W25327  41.916  42.853   0.024
52903W        W25328  19.200   7.694  10.750
52904W        W25329  41.042   5.643   3.857
52905W        W25330  23.831  13.447   2.833
52906W        W25331  24.964  15.326  14.503
52907W        W25332  14.321  16.089   2.436
52908W        W25333  24.852   8.942  14.328
52909W        W25334  18.542  29.978  14.569
52910W        W25335  29.975  33.855  14.336
52911W        W25336  11.428  42.694  14.806
52912W        W25337  22.094  22.012  12.440
52913W        W25338  20.663   1.224   4.127
52914W        W25339  31.955   8.921   1.867
52915W        W25340  33.232   1.948  11.937
52916W        W25341  26.946   5.862  11.561
52917W        W25342  15.501  21.552   5.119
52918W        W25343  12.268  28.924   4.613
52919W        W25344  15.680  23.599   9.897
52920W        W25345  43.508   3.250   0.193
52921W        W25346   1.414  28.089  12.940
52922W        W25347  26.908  28.882   4.149
52923W        W25348  33.039  34.412   3.038
52924W        W25349   2.846  39.745  10.322
52925W        W25350  13.503  12.206   1.253
52926W        W25351  44.791   3.821   3.929
52927W        W25352   0.068  17.074   4.817
52928W        W25353  27.458  38.827   0.358
52929W        W25354  42.042  16.157  14.320
52930W        W25355  27.176  17.625  13.047
52931W        W25356  29.415   7.226   0.881
52932W        W25357   6.466  15.069   0.766
52933W        W25358  21.234  26.486   4.037
52934W        W25359  17.125   2.272  11.868
52935W        W25360  20.989   9.381   3.816
52936W        W25361  27.920   4.467  11.627
52937W        W25362  38.824  27.034  12.423
52938W        W25363  35.976  26.488   1.937
52939W        W25364  22.624  40.564  10.673
52940W        W25365   9.295   4.654  10.857
52941W        W25366   5.860   0.296   4.101
52942W        W25367  28.907  39.145  10.636
52943W        W25368  31.401   7.952  11.112
52944W        W25369   3.642  25.429   3.706
52945W        W25370  42.988  39.302  12.167
52946W        W25371  15.540  34.104  11.531
52947W        W25372   0.834   2.410   4.986
52948W        W25373  30.514   0.471   4.229
52949W        W25374  25.977  10.798  12.256
52950W        W25375  11.083  21.092   2.145
52951W        W25376  27.571  36.381  13.122
52952W        W25377  42.333   6.106  12.902
52953W        W25378   4.764   9.319   3.901
52954W        W25379  13.804  27.552  11.643
52955W        W25380  12.692   6.530   2.386
52956W        W25381   5.514  21.534   3.324
52957W        W25382  34.322  22.267   2.353
52958W        W25383  13.855   9.603   2.219
52959W        W25384   8.356  26.179   1.014
52960W        W25385   2.854  10.997  11.606
52961W        W25386  25.670  18.983  12.652
52962W        W25387  14.836   8.451  13.409
52963W        W25388  29.063  21.245  14.845
52964W        W25389  32.549  10.302   4.162
52965W        W25390  35.397  42.288   3.703
52966W        W25391  39.924   7.739  12.354
52967W        W25392   7.102  13.262   1.593
52968W        W25393   6.436  10.400   0.032
52969W        W25394   6.428  19.313   0.566
52970W        W25395  23.581  21.866   3.157
52971W        W25396   2.893  11.426  12.985
52972W        W25397  39.310   3.592   4.192
52973W        W25398  32.095  22.052  11.729
52974W        W25399   0.980  36.396  12.487
52975W        W25400  30.102   7.444  12.151
52976W        W25401  19.949  17.959  13.441
52977W        W25402  26.881  38.719   2.721
52978W        W25403  19.526  12.785   0.250
52979W        W25404  32.606  12.139   0.272
52980W        W25405  10.316  20.695   2.124
52981W        W25406   9.356  33.930  13.000
52982W        W25407  35.359  40.008   0.788
52983W        W25408   6.804  39.002  11.031
52984W        W25409  22.161   5.783   2.666
52985W        W25410  16.130  41.550  11.104
52986W        W25411  14.179   8.771   4.889
52987W        W25412  19.215  30.908   0.303
52988W        W25413  30.211  14.621   1.820
52989W        W25414  31.611   0.017  12.466
52990W        W25415  41.113  19.637   1.785
52991W        W25416  31.289  40.567  10.650
52992W        W25417  43.538  37.524   4.137
52993W        W25418  10.541  41.649  10.553
52994W        W25419   1.579  44.489   3.233
52995W        W25420   4.736  21.243   1.880
52996W        W25421  32.163   2.355  10.505
52997W        W25422  38.483  28.149  14.507
52998W        W25423  29.517   1.825  12.905
52999W        W25424  21.972  11.700   0.426
53000W        W25425  43.998  24.544  12.101
53001W        W25426  26.228  21.524   3.111
53002W        W25427  11.375  33.482   4.433
53003W        W25428   5.641  42.378  11.163
53004W        W25429  29.635  33.675   0.020
53005W        W25430  23.017  36.363   4.133
53006W        W25431   1.924  19.126   2.219
53007W        W25432  23.057  14.332   1.893
53008W        W25433  20.355  35.947  10.744
53009W        W25434  11.635  28.418  14.304
53010W        W25435  25.829  20.370  14.923
53011W        W25436  12.327  23.752  12.558
53012W        W25437  33.424   2.064  12.882
53013W        W25438  10.132  43.870  11.559
53014W        W25439  43.207   0.024  14.365
53015W        W25440   0.983  12.311  11.910
53016W        W25441  35.248  40.132   2.754
53017W        W25442  36.938  44.934  10.659
53018W        W25443  38.765  36.566  13.612
53019W        W25444  39.229  33.646  12.242
53020W        W25445  17.245  14.395  13.291
53021W        W25446   7.129   7.937  11.811
53022W        W25447  42.504  41.395   0.878
53023W        W25448  31.714  16.111  14.478
53024W        W25449  26.557  38.071   2.336
53025W        W25450  13.062  41.460   0.385
53026W        W25451  38.423  15.346   3.785
53027W        W25452  12.791  38.506   1.507
53028W        W25453  24.056  26.567  10.253
53029W        W25454  33.874  14.821  11.176
53030W        W25455  31.534   6.295  11.999
53031W        W25456  26.931   1.946   2.413
53032W        W25457  24.952  35.536   4.378
53033W        W25458  16.879  11.338   1.750
53034W        W25459  24.087  29.567   0.880
53035W        W25460   8.443   2.775  12.102
53036W        W25461  18.038   8.667  10.768
53037W        W25462   4.484  42.260  13.285
53038W        W25463  38.637  38.902  10.688
53039W        W25464   2.835   0.868  12.892
53040W        W25465  39.028  30.880  14.463
53041W        W25466  42.018  35.826  14.770
53042W        W25467  41.395  14.270   4.781
53043W        W25468  25.058  13.652  14.447
53044W        W25469  41.777   6.365  14.466
53045W        W25470   0.320  42.466  12.853
53046W        W25471   4.461  11.575  11.826
53047W        W25472  37.617  29.450   0.369
53048W        W25473  38.801  37.663   1.342
53049W        W25474  32.634  21.715  14.600
53050W        W25475  34.586  18.681   3.339
53051W        W25476  41.831   4.274  11.014
53052W        W25477  19.343  37.448  13.352
53053W        W25478  44.807   3.269   2.708
53054W        W25479   3.381  41.103  11.494
53055W        W25480  34.069  10.730  14.541
53056W        W25481  29.759  23.237   4.600
53057W        W25482  27.009  43.894  13.233
53058W        W25483  20.710  32.938   1.260
53059W        W25484  38.525  13.340  12.130
53060W        W25485  29.252   0.733  11.102
53061W        W25486  37.140  13.205   3.441
53062W        W25487   2.928  15.444   4.904
53063W        W25488  11.114  33.904   3.230
53064W        W25489  11.288  40.489   2.962
53065W        W25490  32.003   5.165  12.980
53066W        W25491  44.792   5.860  14.459
53067W        W25492  40.763  18.015   3.203
53068W        W25493  15.006  35.145  10.343
53069W        W25494  29.150  42.725   2.594
53070W        W25495   4.854  41.650   0.445
53071W        W25496  38.268  29.914   3.066
53072W        W25497  27.090  10.730  13.534
53073W        W25498  29.047  16.615   4.223
53074W        W25499   7.452  34.148   2.123
53075W        W25500   6.260   9.412  13.081
53076W        W25501  12.181  24.724  12.136
53077W        W25502   0.674  21.662  13.069
53078W        W25503  39.939  27.727  12.015
53079W        W25504  19.137  11.960  13.976
53080W        W25505  22.513   7.567   1.736
53081W        W25506  27.002  17.269   2.127
53082W        W25507  21.136  16.802  13.512
53083W        W25508  14.107  30.515  10.453
53084W        W25509  20.018  42.913  14.237
53085W        W25510  37.125  30.950  13.958
53086W        W25511  25.276   7.427   1.253
53087W        W25512   3.783  10.102   2.186
53088W        W25513  36.456  16.136   0.990
53089W        W25514  35.108  25.884  11.519
53090W        W25515  11.789   6.720  10.970
53091W        W25516  34.434  44.527  13.402
53092W        W25517  41.996  20.162   0.973
53093W        W25518   8.052   0.459  14.721
53094W        W25519   5.449   7.846   0.300
53095W        W25520  24.146  24.480   1.391
53096W        W25521  11.347  14.640   3.770
53097W        W25522  32.950  38.039  14.017
53098W        W25523  26.241  24.521   4.254
53099W        W25524  40.366  37.818  13.589
53100W        W25525  39.534  11.849   0.312
53101W        W25526  23.600   3.896  10.694
53102W        W25527  18.221  29.198  12.523
53103W        W25528   4.758   3.799   4.187
53104W        W25529  16.868  42.481   1.273
53105W        W25530  13.231  36.406   4.121
53106W        W25531   7.731  21.727  11.747
53107W        W25532   1.844  23.306   4.814
53108W        W25533   2.688  23.577   0.893
53109W        W25534  41.843  21.688   0.568
53110W        W25535  29.231  42.947  14.109
53111W        W25536   8.312  42.057   3.302
53112W        W25537   0.409  28.430   4.245
53113W        W25538  33.489  11.803   3.519
53114W        W25539  25.245  28.379   0.497
53115W        W25540  44.176  18.078   0.962
53116W        W25541  35.981  41.890   0.355
53117W        W25542  39.826   2.905  14.578
53118W        W25543  22.211  15.363  12.439
53119W        W25544  25.491  23.278   4.234
53120W        W25545  40.517  17.308   0.804
53121W        W25546  29.542   4.787  12.089
53122W        W25547  12.740  25.015  12.171
53123W        W25548  19.954  16.675  11.887
53124W        W25549   1.248  17.910   1.049
53125W        W25550   7.963  27.724   0.303
53126W        W25551  33.002   3.818   3.195
53127W        W25552  37.292   3.793   1.004
53128W        W25553  35.688  44.326  12.928
53129W        W25554  43.918  37.289  14.859
53130W        W25555  41.119  30.037  13.342
53131W        W25556   1.595  15.180  12.127
53132W        W25557   6.717  13.295  12.601
53133W        W25558  44.770  30.010  10.452
53134W        W25559  14.311   8.792   2.115
53135W        W25560   0.159  17.639  13.385
53136W        W25561  25.265  20.354   4.601
53137W        W25562  29.634   5.266   1.347
53138W        W25563  29.482  26.399  11.085
53139W        W25564   2.180  42.966   1.923
53140W        W25565  27.107  25.125   4.674
53141W        W25566   1.237  22.765   5.050
53142W        W25567  28.847  24.562   3.539
53143W        W25568  35.906  29.113   2.593
53144W        W25569  19.003  38.105  14.283
53145W        W25570  22.935  13.623  12.658
53146W        W25571  15.576  20.656  10.680
53147W        W25572   3.778   2.788  11.906
53148W        W25573  37.567  17.776   0.286
53149W        W25574  11.170  37.809  13.776
53150W        W25575   6.236  22.271  10.744
53151W        W25576  16.655  29.054  10.732
53152W        W25577  22.236  10.075  12.037
53153W        W25578  33.849  43.297   4.636
53154W        W25579  18.388  44.263   0.977
53155W        W25580  11.974  25.704   0.861
53156W        W25581  15.615  33.089  11.661
53157W        W25582  34.004  26.368  11.823
53158W        W25583  41.891  23.576   3.636
53159W        W25584  29.866   6.841   3.161
53160W        W25585  22.015  30.476  14.500
53161W        W25586   4.175   2.846  12.885
53162W        W25587  10.169  20.068   1.712
53163W        W25588   9.415  41.620  12.464
53164W        W25589  24.678  11.834  11.202
53165W        W25590  18.047  15.022   2.341
53166W        W25591  19.216  37.647   4.356
53167W        W25592  30.018  19.573   2.129
53168W        W25593  41.816  24.640   1.705
53169W        W25594  32.923  44.769  12.888
53170W        W25595  42.282  20.747  11.558
53171W        W25596  34.453  23.640  10.712
53172W        W25597  31.606   8.387   3.150
53173W        W25598  30.920  36.638  12.680
53174W        W25599   5.238  11.169   2.111
53175W        W25600  29.645  29.035   2.302
53176W        W25601  33.467  26.483   1.377
53177W        W25602  10.201  17.324  11.028
53178W        W25603  33.922  40.097   2.179
53179W        W25604  41.523  17.425   1.918
53180W        W25605   5.362  16.299  14.425
53181W        W25606  29.199  23.084  14.373
53182W        W25607  33.227  23.490  13.457
53183W        W25608  23.059   2.047  11.333
53184W        W25609  20.006  35.366   0.644
53185W        W25610  40.773  18.746  10.576
53186W        W25611  27.583  23.434  14.803
53187W        W25612  16.601  24.483  11.510
53188W        W25613  10.260  35.837  13.384
53189W        W25614  40.839  17.042   4.152
53190W        W25615  35.899   6.176   1.729
53191W        W25616   6.714  36.835   0.056
53192W        W25617  43.547  24.435  11.195
53193W        W25618  35.123  17.071   1.589
53194W        W25619  13.270  16.636  14.885
53195W        W25620  42.346  13.407  12.734
53196W        W25621   0.799  14.281   1.672
53197W        W25622   9.331   1.944  12.519
53198W        W25623  10.303  35.161  14.258
53199W        W25624  16.617  20.677  11.156
53200W        W25625  18.053  20.158   1.324
53201W        W25626   8.131  44.369  11.461
53202W        W25627  43.364  36.096  11.713
53203W        W25628  10.652   5.304   0.971
53204W        W25629  30.065  36.009   2.355
53205W        W25630   1.189  17.056   3.872
53206W        W25631  36.847   4.407  12.945
53207W        W25632  42.696   3.909   2.870
53208W        W25633  30.001  36.312  13.318
53209W        W25634  13.558  43.045  13.409
53210W        W25635  24.463  44.020   1.713
53211W        W25636   9.030  14.632   0.614
53212W        W25637  33.992  14.245  10.468
53213W        W25638  16.698  17.103   0.909
53214W        W25639  39.627  22.728   2.821
53215W        W25640  30.481  10.723   4.741
53216W        W25641   1.440  18.217  12.604
53217W        W25642  25.231   8.810   5.090
53218W        W25643   5.829  40.514  13.527
53219W        W25644  21.193  30.176   2.248
53220W        W25645   2.191   2.302  13.787
53221W        W25646  31.905   3.141   4.621
53222W        W25647  34.838  11.293   2.292
53223W        W25648   3.752  26.126  13.400
53224W        W25649  21.213  10.796   0.688
53225W        W25650  16.988   6.027  11.175
53226W        W25651   0.205  18.108  13.605
53227W        W25652  19.186  26.010  11.791
53228W        W25653  27.131   5.009   1.823
53229W        W25654  16.155  13.848  13.318
53230W        W25655  22.193  43.592   2.145
53231W        W25656  18.257   1.958   2.799
53232W        W25657  27.691   0.046   0.311
53233W        W25658  36.648   6.453  13.474
53234W        W25659  28.758  40.075   0.273
53235W        W25660  24.799  13.881   4.700
53236W        W25661  39.759  32.513  13.840
53237W        W25662  35.414  13.715   3.146
53238W        W25663  11.796   5.415   2.234
53239W        W25664  14.290  32.375   1.430
53240W        W25665  10.425  17.061   0.265
53241W        W25666  40.347   2.019  13.554
53242W        W25667  19.949  33.461  13.024
53243W        W25668  21.743   9.215   4.658
53244W        W25669  21.669  17.180  14.867
53245W        W25670  11.105  25.947  11.913
53246W        W25671  40.840  11.618   4.639
53247W        W25672  37.390  24.103  12.107
53248W        W25673  28.087   8.949  10.681
53249W        W25674  37.491  36.038   3.349
53250W        W25675   3.907  16.123   0.802
53251W        W25676  41.292  41.408  11.422
53252W        W25677  30.219  22.556   4.208
53253W        W25678  27.549  15.322  11.230
53254W        W25679  29.200  10.435  12.503
53255W        W25680  41.825  43.408   2.414
53256W        W25681   2.866  21.212  14.311
53257W        W25682  41.105  37.289  13.353
53258W        W25683   1.192  39.833   0.918
53259W        W25684   7.883   9.663   5.043
53260W        W25685  36.990  17.182  13.983
53261W        W25686  44.294  12.724   4.907
53262W        W25687  35.909   2.875  10.631
53263W        W25688  37.461  18.275   0.337
53264W        W25689   6.891  22.043   3.848
53265W        W25690  31.462  40.839   3.977
53266W        W25691  31.149  37.918   3.181
53267W        W25692  27.925  40.299   0.439
53268W        W25693  22.020   8.698   0.954
53269W        W25694   9.121  18.279   4.050
53270W        W25695   0.537  22.480  11.912
53271W        W25696   7.709   3.757   1.006
53272W        W25697  34.193   8.785  11.113
53273W        W25698  17.347  24.464  11.139
53274W        W25699  23.200   3.668  12.644
53275W        W25700  18.785  44.956  11.553
53276W        W25701  19.676  10.178   1.869
53277W        W25702  32.047  10.238  10.554
53278W        W25703  41.773   2.791  11.140
53279W        W25704  44.690  12.069  11.346
53280W        W25705   7.630  39.139  13.358
53281W        W25706   4.322  12.221  13.427
53282W        W25707  22.486  30.402   3.755
53283W        W25708  24.151  19.047   9.786
53284W        W25709  24.128   8.985   4.103
53285W        W25710   2.237   2.129   3.215
53286W        W25711  35.386  12.276  10.626
53287W        W25712  14.040  34.987   0.301
53288W        W25713  40.954   0.660  13.308
53289W        W25714  39.579  16.183   2.797
53290W        W25715  34.418  32.108   4.807
53291W        W25716   2.138  21.057  11.155
53292W        W25717  34.946   0.286   1.259
53293W        W25718  16.282  29.045  11.108
53294W        W25719  42.956  30.136   4.875
53295W        W25720  12.592  18.169  13.785
53296W        W25721  38.852  11.155   2.295
53297W        W25722  25.257  22.170  14.005
53298W        W25723  42.185  28.248   2.630
53299W        W25724   5.212   2.398   4.176
53300W        W25725   0.340  27.684  11.151
53301W        W25726   7.789  38.238   2.695
53302W        W25727   5.640  11.260  11.998
53303W        W25728  17.217  44.752   0.021
53304W        W25729  30.490  28.056   4.781
53305W        W25730  10.765  40.292   4.223
53306W        W25731  33.123  30.246  14.466
53307W        W25732  39.057  22.007  13.521
53308W        W25733  11.868  32.420   1.406
53309W        W25734  26.217  35.450   4.483
53310W        W25735  35.108  23.428  14.804
53311W        W25736  40.055  32.615  13.433
53312W        W25737  29.019   3.223  10.708
53313W        W25738  32.209  19.529   3.356
53314W        W25739  22.089  30.711   3.625
53315W        W25740  30.631   1.930   4.488
53316W        W25741  33.598   2.854   1.680
53317W        W25742  21.555  43.552  14.462
53318W        W25743  31.832  18.788   0.009
53319W        W25744  33.470  19.098  11.067
53320W        W25745  23.733   1.127   0.508
53321W        W25746  27.281  17.610   2.390
53322W        W25747  28.999  21.687   0.777
53323W        W25748  37.065  17.214   4.985
53324W        W25749  41.710  15.791   0.424
53325W        W25750   8.105  18.495  10.953
53326W        W25751  36.556  36.944   3.657
53327W        W25752  18.885  15.835  13.800
53328W        W25753  37.323  42.940  12.853
53329W        W25754  27.106  13.030   0.387
53330W        W25755  22.538  38.946  11.625
53331W        W25756  15.098  30.360   0.679
53332W        W25757  40.096  18.104  14.959
53333W        W25758  40.519   7.202   2.276
53334W        W25759  23.228  17.769   0.456
53335W        W25760  12.958  14.748  13.619
53336W        W25761  10.812  42.576  14.713
53337W        W25762   4.244  11.157  11.646
53338W        W25763  41.998  31.708  11.192
53339W        W25764  43.377  23.539  14.936
53340W        W25765  20.683  33.142   4.684
53341W        W25766  30.355  13.838  10.750
53342W        W25767  24.482  27.948  13.580
53343W        W25768   1.190  11.853   4.442
53344W        W25769  41.461  43.352  13.317
53345W        W25770  33.785  35.928  14.827
53346W        W25771  30.908  17.863  13.677
53347W        W25772  12.605   1.439  12.768
53348W        W25773   7.383   0.860  12.627
53349W        W25774  21.543  24.193  10.572
53350W        W25775   6.443  33.047   1.300
53351W        W25776  28.539  25.271  11.494
53352W        W25777  15.132  36.019   4.375
53353W        W25778  19.206  13.648   2.474
53354W        W25779   8.563  15.611  14.910
53355W        W25780  13.159  38.317   1.204
53356W        W25781  16.370   2.839  14.036
53357W        W25782   2.213  22.674  13.075
53358W        W25783  38.896  20.573   2.701
53359W        W25784  43.743  16.514   4.109
53360W        W25785  24.516  35.376   0.217
53361W        W25786  30.652   8.739  14.850
53362W        W25787  41.269  12.813   4.530
53363W        W25788  44.057  22.987  14.605
53364W        W25789   4.353  10.276  12.166
53365W        W25790  19.940  34.152   2.225
53366W        W25791  32.105   5.640   3.545
53367W        W25792   0.394   3.764   4.681
53368W        W25793  39.104  39.377   4.618
53369W        W25794  30.867  15.073  11.033
53370W        W25795  42.580  43.104   1.160
53371W        W25796  41.407  11.157   2.848
53372W        W25797  10.512  35.630   2.316
53373W        W25798   3.313  16.536   2.280
53374W        W25799  24.247   9.589   0.014
53375W        W25800  38.523  24.640   2.281
53376W        W25801  16.516  21.629  14.223
53377W        W25802   1.022   6.589  11.811
53378W        W25803  42.445  28.226  13.286
53379W        W25804   1.229  31.361  11.221
53380W        W25805  16.325  14.068  13.954
53381W        W25806  27.994  32.204  12.080
53382W        W25807  19.596   9.655   0.651
53383W        W25808  24.571  36.115   1.412
53384W        W25809  25.911  27.699   1.012
53385W        W25810   3.310  20.537  10.840
53386W        W25811  40.361  27.484  13.512
53387W        W25812  35.584   9.091  11.079
53388W        W25813  16.699  35.283  11.507
53389W        W25814  34.796  27.906  10.429
53390W        W25815  25.013  18.792  14.738
53391W        W25816  26.630  24.449   3.264
53392W        W25817  42.019  34.968   0.757
53393W        W25818  21.235  34.940   0.802
53394W        W25819  17.737  19.581   2.826
53395W        W25820  20.775   8.192   2.140
53396W        W25821  30.038  27.289   2.226
53397W        W25822  36.634  22.717  10.168
53398W        W25823  40.145   4.042   3.424
53399W        W25824  10.798  34.327  10.662
53400W        W25825  13.296   6.467   5.145
53401W        W25826  34.815  21.163  13.033
53402W        W25827  11.777  19.704   4.541
53403W        W25828  19.342  20.234   3.703
53404W        W25829   2.600  26.936  11.911
53405W        W25830  41.552  18.072  14.919
53406W        W25831  23.353  27.166  12.529
53407W        W25832   1.706  24.921   0.935
53408W        W25833  36.580  25.472   3.278
53409W        W25834  38.542  35.654   3.779
53410W        W25835  16.386  23.480   2.178
53411W        W25836   5.868  36.000  14.698
53412W        W25837  26.768  37.326  12.435
53413W        W25838   1.365   5.519   1.247
53414W        W25839  38.852  15.051  10.687
53415W        W25840  10.612  36.988   3.617
53416W        W25841  10.789  13.644   4.549
53417W        W25842  16.223  34.073   4.554
53418W        W25843  40.543  40.351  11.235
53419W        W25844   2.787  11.841  12.702
53420W        W25845  35.834   1.976   1.277
53421W        W25846  40.422   2.937  10.818
53422W        W25847  38.512  29.140  13.707
53423W        W25848  23.200   8.865  11.930
53424W        W25849  18.141  24.674   3.269
53425W        W25850  21.242  28.726  11.614
53426W        W25851  28.760  22.200   0.844
53427W        W25852   6.976  36.339  13.428
53428W        W25853  37.924   3.383   1.049
53429W        W25854  21.696  28.388   4.590
53430W        W25855  28.476  44.904  11.669
53431W        W25856   9.128  20.744  12.999
53432W        W25857   3.892  35.808   3.990
53433W        W25858  18.736  12.696  10.990
53434W        W25859  21.682   4.002   0.864
53435W        W25860  38.757  35.242   1.822
53436W        W25861  14.138  40.920  13.447
53437W        W25862  14.163  38.394   2.150
53438W        W25863  13.876  10.337  10.568
53439W        W25864  21.718   3.963   2.801
53440W        W25865  28.715  31.812   4.383
53441W        W25866  15.402  17.566  13.064
53442W        W25867  39.356   7.965   1.770
53443W        W25868  18.290   5.854  13.752
53444W        W25869  27.378  11.151  13.277
53445W        W25870  13.363  29.685  13.973
53446W        W25871  22.538  14.141  11.170
53447W        W25872  36.343   2.684   2.397
53448W        W25873  17.708  24.648   1.135
53449W        W25874  42.802   3.830   0.230
53450W        W25875  23.143   3.707   2.353
53451W        W25876  22.110  13.708   0.858
53452W        W25877  12.710  27.949  11.996
53453W        W25878  13.091  13.376  13.414
53454W        W25879   4.365  19.060   4.349
53455W        W25880  40.060  33.478  12.075
53456W        W25881   7.371  23.861  11.663
53457W        W25882  39.992  17.738   3.916
53458W        W25883  34.816  41.517  13.022
53459W        W25884   7.077  24.181  11.967
53460W        W25885  16.532   9.188   2.811
53461W        W25886   6.790  32.637  13.164
53462W        W25887  14.611  31.146   3.197
53463W        W25888  19.259  11.320   4.183
53464W        W25889  23.872  30.339  14.900
53465W        W25890  40.872  27.448   1.132
53466W        W25891   9.164  42.455   2.655
53467W        W25892  29.866  24.591   4.711
53468W        W25893  41.743  34.583   4.145
53469W        W25894  35.380  26.725  14.394
53470W        W25895  20.188  31.667   2.377
53471W        W25896  43.348  16.139  11.473
53472W        W25897   9.972   6.128  11.047
53473W        W25898  37.466  27.217   1.660
53474W        W25899  12.327  43.843   3.293
53475W        W25900  39.027  20.118  13.943
53476W        W25901   0.070  36.990  12.529
53477W        W25902  12.089  21.735  11.487
53478W        W25903  30.773   4.156   2.964
53479W        W25904  14.838  10.370   2.831
53480W        W25905  17.110  18.202  12.947
53481W        W25906  23.430  27.040   4.701
53482W        W25907  24.233  38.116  11.980
53483W        W25908  10.834  43.979  14.874
53484W        W25909  22.573  18.737  13.019
53485W        W25910  10.323   1.741   0.318
53486W        W25911  32.090   6.934  13.029
53487W        W25912  23.039  41.707  11.679
53488W        W25913   4.307  20.630  10.757
53489W        W25914  22.933  24.418   3.628
53490W        W25915  14.421  30.062   4.109
53491W        W25916  41.058  31.579   3.942
53492W        W25917  40.811  41.810   3.153
53493W        W25918  17.149  25.515  12.788
53494W        W25919   7.711  34.653  12.166
53495W        W25920  22.064  20.565   0.830
53496W        W25921  22.610  22.945   1.888
53497W        W25922  32.357   5.685  11.812
53498W        W25923   6.376  36.764   1.122
53499W        W25924  37.927  27.929  12.634
53500W        W25925  31.036  37.107   1.421
53501W        W25926   6.953  29.039   3.077
53502W        W25927  11.537  34.846  12.801
53503W        W25928  30.372  21.272  10.633
53504W        W25929  13.962  16.192   1.482
53505W        W25930   6.931  24.994   2.267
53506W        W25931   1.927  25.782  12.403
53507W        W25932  41.476  27.291   3.812
53508W        W25933   1.373   0.885   3.267
53509W        W25934  34.619  37.739   2.227
53510W        W25935  35.663  39.783   0.442
53511W        W25936  13.350   3.858  13.481
53512W        W25937  28.573  13.109  11.168
53513W        W25938  29.657  14.670  13.989
53514W        W25939  37.897  17.697   1.578
53515W        W25940   7.135  27.689   0.778
53516W        W25941  21.985  25.115   4.937
53517W        W25942  34.192  40.337  12.449
53518W        W25943   4.680  21.306  13.941
53519W        W25944   1.731   5.335  13.866
53520W        W25945  43.228  43.796   0.761
53521W        W25946   9.199  42.497  14.094
53522W        W25947  10.730   4.433   0.992
53523W        W25948  34.856  30.958  12.035
53524W        W25949  20.857  30.617   1.290
53525W        W25950   6.808  32.326  11.170
53526W        W25951  34.418  32.015   2.288
53527W        W25952  38.782  18.225   2.760
53528W        W25953   5.945  26.378   2.386
53529W        W25954  25.584  27.040   1.852
53530W        W25955  10.226   6.462  12.427
53531W        W25956  34.263  14.562  13.131
53532W        W25957  16.609   7.946   0.593
53533W        W25958  21.170  15.947   5.115
53534W        W25959  14.193  33.686   4.228
53535W        W25960  33.905  42.570  12.102
53536W        W25961  16.848  39.291   3.664
53537W        W25962  43.697   2.364  11.971
53538W        W25963   4.968   8.911  11.455
53539W        W25964  23.170  10.280   4.053
53540W        W25965  33.380   9.952   1.460
53541W        W25966   7.938  39.830  13.775
53542W        W25967  38.794  38.586   3.405
53543W        W25968  22.110  30.059  10.877
53544W        W25969  36.228  26.619   4.326
53545W        W25970  28.683   1.937  14.843
53546W        W25971  34.502  10.236   1.246
53547W        W25972  13.257   1.079   0.085
53548W        W25973  23.794  27.893  11.633
53549W        W25974   8.289  41.380  13.382
53550W        W25975  42.096  32.921   4.180
53551W        W25976  11.019   6.430  10.242
53552W        W25977  30.091  22.802   3.255
53553W        W25978   8.002  18.663  13.468
53554W        W25979  27.582  18.125  12.155
53555W        W25980  24.385  39.936   0.722
53556W        W25981  27.488  29.994  11.841
53557W        W25982  31.168  35.525   1.175
53558W        W25983  13.191   3.318  10.596
53559W        W25984  27.257  39.971  12.196
53560W        W25985  41.816  20.593  12.051
53561W        W25986  24.738  22.001  12.887
53562W        W25987   3.485  29.836  13.815
53563W        W25988   5.422  24.706  12.627
53564W        W25989  15.072  17.228  10.980
53565W        W25990  44.454   3.698  11.628
53566W        W25991  44.837  34.809  11.490
53567W        W25992  21.119  14.325   2.780
53568W        W25993   9.745  19.313  13.323
53569W        W25994  33.623   9.686   0.456
53570W        W25995  42.555   4.746   4.162
53571W        W25996  12.609  24.550  14.523
53572W        W25997   3.301  42.538  11.188
53573W        W25998  33.510  33.856  12.636
53574W        W25999  10.659  24.763   0.482
53575W        W26000  36.901  23.177  13.527
53576W        W26001   7.617  25.868  14.857
53577W        W26002   9.318  22.245  13.120
53578W        W26003   7.857   2.371  14.833
53579W        W26004  31.342  19.028  11.575
53580W        W26005  10.943  38.404  13.424
53581W        W26006  17.576  26.556  13.842
53582W        W26007  21.118   3.651  14.486
53583W        W26008  17.883  15.893   3.583
53584W        W26009  33.049  21.535   2.396
53585W        W26010  36.909   7.952  13.014
53586W        W26011   3.819   8.653  10.251
53587W        W26012  37.003   3.463   0.636
53588W        W26013  30.957  22.073  13.074
53589W        W26014  42.987   1.768   1.097
53590W        W26015   9.156   3.024   2.726
53591W        W26016   7.261  29.695   0.946
53592W        W26017  23.328  25.721   3.591
53593W        W26018   1.857  26.824  12.597
53594W        W26019   4.865   7.158   3.708
53595W        W26020   8.223  16.097  12.451
53596W        W26021  25.880  38.164   0.728
53597W        W26022  34.908  26.426  11.892
53598W        W26023  25.947   3.304   2.614
53599W        W26024   4.295  19.762  12.521
53600W        W26025  22.186  24.128   4.084
53601W        W26026  35.048  32.686   0.426
53602W        W26027  16.635   9.420   4.549
53603W        W26028  10.872   0.064   0.001
53604W        W26029  12.191   4.637  13.419
53605W        W26030  22.003   3.769   3.754
53606W        W26031  31.110  24.638   1.372
53607W        W26032  12.364  11.893  12.140
53608W        W26033  33.052  16.788  11.943
53609W        W26034  27.418  35.589   3.812
53610W        W26035  10.819  10.730   2.334
53611W        W26036  23.608  27.013   1.420
53612W        W26037  32.471  24.782   3.514
53613W        W26038  17.752  11.648  14.355
53614W        W26039  28.988  35.373   2.407
53615W        W26040  22.620  14.905   1.319
53616W        W26041   2.211   5.526   2.689
53617W        W26042  39.886   2.243   4.071
53618W        W26043  43.541  25.545   4.084
53619W        W26044  17.812  30.698   3.697
53620W        W26045   7.548  17.599  11.168
53621W        W26046  39.577  10.724  11.498
53622W        W26047  28.402   7.328   4.110
53623W        W26048  17.705  35.361  11.115
53624W        W26049   3.425  41.630  13.881
53625W        W26050  23.675  32.483  14.349
53626W        W26051  15.299  10.312   0.714
53627W        W26052  14.389  11.697   0.024
53628W        W26053   9.101   9.908   1.237
53629W        W26054  20.815  21.053   4.678
53630W        W26055  23.096   3.270  11.883
53631W        W26056   7.416  15.890   4.076
53632W        W26057  19.865  21.251   3.688
53633W        W26058  17.634  24.055   1.947
53634W        W26059  37.782  39.936  11.073
53635W        W26060   4.758   2.771   0.405
53636W        W26061   0.966  34.134  14.133
53637W        W26062  25.675  18.223  11.024
53638W        W26063  41.143  14.461   3.829
53639W        W26064  32.308  42.829  12.902
53640W        W26065  20.311  10.852  12.016
53641W        W26066   1.178  35.513  12.952
53642W        W26067  31.335  42.899  11.942
53643W        W26068  13.506  10.319   3.865
53644W        W26069   8.061  17.652  11.101
53645W        W26070  12.112  33.416  12.091
53646W        W26071  31.956  22.177   3.765
53647W        W26072   4.531   7.253  13.920
53648W        W26073  27.458  25.947  13.991
53649W        W26074  38.057  15.178   4.141
53650W        W26075  10.224  44.239  12.378
53651W        W26076  22.618  22.810  12.489
53652W        W26077   7.330  12.533   0.380
53653W        W26078  38.501   2.418  11.707
53654W        W26079  23.441  29.217  11.242
53655W        W26080  29.598  38.370  12.798
53656W        W26081  13.749  11.744  11.691
53657W        W26082  37.525  33.515  13.187
53658W        W26083  41.471  21.082   1.383
53659W        W26084   9.385  20.101   0.393
53660W        W26085   4.877  37.089  11.598
53661W        W26086  35.552  10.100   3.804
53662W        W26087  18.485  38.755  14.858
53663W        W26088  31.584  17.055  13.943
53664W        W26089   2.742   8.218   3.878
53665W        W26090  21.216  10.751   2.149
53666W        W26091  30.483  29.421  10.787
53667W        W26092  18.091  18.034  11.675
53668W        W26093   7.986  37.489   1.399
53669W        W26094  12.185   6.737   4.601
53670W        W26095  14.847  36.859  13.893
53671W        W26096  18.557  16.803  12.519
53672W        W26097   7.837   6.671   2.350
53673W        W26098  37.528   7.328  10.636
53674W        W26099   0.644  17.699  13.619
53675W        W26100  20.058   3.249   4.214
53676W        W26101  40.496  28.358   1.186
53677W        W26102  10.198  23.702   2.024
53678W        W26103   2.324  22.304  14.911
53679W        W26104  28.459  41.414  12.117
53680W        W26105  20.723  35.161   1.573
53681W        W26106  30.414  43.984  14.840
53682W        W26107  28.172  33.996  14.787
53683W        W26108  40.821  39.106   0.438
53684W        W26109  15.051  21.168   0.582
53685W        W26110  24.214  40.680  14.707
53686W        W26111  40.832  11.656   0.928
53687W        W26112  15.508  11.793   5.006
53688W        W26113  37.413  42.484  11.125
53689W        W26114  33.637   5.448  14.395
53690W        W26115   5.312   3.183   2.114
53691W        W26116  34.682  10.720   1.368
53692W        W26117   1.284  13.077   4.092
53693W        W26118   3.171  22.184   1.110
53694W        W26119  30.453  12.436  12.481
53695W        W26120  19.729   1.260  10.494
53696W        W26121  43.896   5.370  14.343
53697W        W26122  41.625  44.824  14.274
53698W        W26123  31.893  36.414  14.968
53699W        W26124  20.766  21.646   3.093
53700W        W26125  38.312  18.411   2.632
53701W        W26126  30.448  11.212  14.956
53702W        W26127   3.932  19.965  12.864
53703W        W26128  43.154  44.847   4.313
53704W        W26129   4.291  22.774  13.920
53705W        W26130   8.597  28.519  10.510
53706W        W26131  42.381  25.674  11.652
53707W        W26132  11.109  41.684  12.050
53708W        W26133  28.415  14.870  14.970
53709W        W26134  39.967  35.666  12.465
53710W        W26135  37.498  12.757  13.504
53711W        W26136  22.671  14.819  14.445
53712W        W26137  24.308  23.971   4.136
53713W        W26138  10.376  42.098  10.758
53714W        W26139   2.321   1.156  11.408
53715W        W26140  34.926   7.945  13.947
53716W        W26141  11.773  16.812   1.259
53717W        W26142  28.270  29.458  11.501
53718W        W26143  22.794  22.137   3.661
53719W        W26144  42.445  34.993  11.513
53720W        W26145  22.740  20.584   1.912
53721W        W26146   7.279  38.827   3.181
53722W        W26147  27.093  13.651   1.446
53723W        W26148  37.041   3.750   4.519
53724W        W26149  15.030  23.626   3.709
53725W        W26150  18.707  41.446  13.946
53726W        W26151  13.649   0.882  10.920
53727W        W26152   7.161  23.980  14.823
53728W        W26153   8.519  23.555  13.208
53729W        W26154   8.201   2.801  14.851
53730W        W26155  18.632  27.811  10.618
53731W        W26156  29.682   7.168   0.412
53732W        W26157  36.478  23.559   1.646
53733W        W26158  12.772  43.862  14.725
53734W        W26159  35.601  16.243   0.437
53735W        W26160  33.487  28.458   3.176
53736W        W26161  26.964  40.103  12.584
53737W        W26162  31.057  23.930   2.352
53738W        W26163  20.202  41.515  14.381
53739W        W26164   6.153   5.728  14.575
53740W        W26165  26.501  39.557   2.439
53741W        W26166  20.343  22.221  11.952
53742W        W26167   7.760  25.817  10.762
53743W        W26168   2.964   0.241   0.798
53744W        W26169   6.144   0.501  13.707
53745W        W26170  36.908   6.634  14.863
53746W        W26171   9.195  40.500   1.873
53747W        W26172  16.450  35.486   0.270
53748W        W26173  27.466  24.811  12.838
53749W        W26174  17.161  42.033   0.177
53750W        W26175  25.446  16.042   3.092
53751W        W26176  10.322   5.651  10.351
53752W        W26177  22.997   8.141  11.300
53753W        W26178   6.787  31.538   0.773
53754W        W26179  28.449   6.594   2.355
53755W        W26180  15.538   1.910  11.524
53756W        W26181  21.221  10.508  14.503
53757W        W26182   9.800  17.465   3.729
53758W        W26183  44.245  44.184   3.300
53759W        W26184   4.230  25.704  12.762
53760W        W26185  29.531   1.485   2.771
53761W        W26186  24.184  39.007  13.778
53762W        W26187  41.306  19.128   2.421
53763W        W26188  22.685  16.663   0.992
53764W        W26189  12.087  27.781  13.577
53765W        W26190  17.058  20.112   0.175
53766W        W26191  11.388  32.083   2.161
53767W        W26192   9.209  18.010  14.232
53768W        W26193   4.130   8.090  14.317
53769W        W26194  14.641  20.901  14.115
53770W        W26195  21.188  35.764   2.370
53771W        W26196   4.745   6.769  14.979
53772W        W26197  34.743  16.523  12.583
53773W        W26198  27.116  12.766   4.455
53774W        W26199  36.797  17.472  10.681
53775W        W26200  37.731  34.726  14.127
53776W        W26201  40.124  13.753  14.444
53777W        W26202  13.338  20.707  14.248
53778W        W26203  25.112  13.856   4.275
53779W        W26204  13.989  40.461   1.777
53780W        W26205   7.979  27.485   2.844
53781W        W26206  22.078  15.687  13.772
53782W        W26207  27.598  35.350  13.432
53783W        W26208  32.494  26.121   2.905
53784W        W26209  16.177   2.224   2.289
53785W        W26210   9.680   4.786   1.961
53786W        W26211  40.268  22.618   5.102
53787W        W26212  31.013  17.740   3.770
53788W        W26213  16.239   9.641  14.444
53789W        W26214  13.248  36.921  11.542
53790W        W26215  21.220  24.919  14.987
53791W        W26216  42.238  23.525   4.322
53792W        W26217  34.060  26.549   4.262
53793W        W26218   2.103  24.841  11.439
53794W        W26219  23.197  17.595  14.129
53795W        W26220  44.438   9.116  11.437
53796W        W26221   5.266  40.026  14.233
53797W        W26222  27.118  33.485  11.512
53798W        W26223  30.864  40.404   5.080
53799W        W26224  14.186  33.194   0.422
53800W        W26225  12.810  18.893   2.410
53801W        W26226  34.058  16.614   0.756
53802W        W26227  42.339   9.676  14.784
53803W        W26228  29.085   6.696  13.451
53804W        W26229   6.335   6.279  12.176
53805W        W26230  31.549   8.936  13.399
53806W        W26231  44.979   8.700  13.930
53807W        W26232  40.862  25.169  12.723
53808W        W26233  36.464  39.644   4.917
53809W        W26234   0.210  33.782   2.920
53810W        W26235   6.126  25.170  12.492
53811W        W26236  31.103  35.743   0.655
53812W        W26237  22.470  41.642   4.841
53813W        W26238  22.276   6.324  10.616
53814W        W26239  36.417  14.630  13.324
53815W        W26240  38.936   4.551   2.713
53816W        W26241  27.980  16.852   1.053
53817W        W26242  28.396  23.550   2.408
53818W        W26243  12.625  23.732   4.739
53819W        W26244   4.179  25.981   1.987
53820W        W26245   2.834  23.741   2.594
53821W        W26246  19.258  39.994   0.746
53822W        W26247  20.412  12.912   0.371
53823W        W26248  37.014   1.367   1.770
53824W        W26249  40.087   9.143   2.421
53825W        W26250  12.109  34.504   1.362
53826W        W26251   8.739  14.288  13.814
53827W        W26252  33.349  23.998  11.993
53828W        W26253  44.096   9.954  11.443
53829W        W26254  32.365  43.329   1.335
53830W        W26255   3.165  27.905  14.469
53831W        W26256   4.259  36.830   3.668
53832W        W26257  42.062  17.875  11.651
53833W        W26258  31.567  22.649   2.005
53834W        W26259  40.932  26.580   1.688
53835W        W26260  12.297  18.837  14.074
53836W        W26261  39.322  44.905   4.162
53837W        W26262  14.213  19.786   3.225
53838W        W26263  12.315   3.831   0.884
53839W        W26264  41.164  10.683   3.768
53840W        W26265   4.544  13.940  11.687
53841W        W26266   6.762   0.639  12.441
53842W        W26267  24.750  30.570  14.196
53843W        W26268  35.350  11.319   2.261
53844W        W26269  36.619  27.777   0.020
53845W        W26270  16.323  37.900   3.186
53846W        W26271  42.376  27.263   4.292
53847W        W26272  15.768  18.233  13.625
53848W        W26273  39.327  33.614  12.732
53849W        W26274   7.182  37.389   2.646
53850W        W26275  28.047  43.939   5.193
53851W        W26276  32.470  30.672  12.315
53852W        W26277   8.113  24.625   5.058
53853W        W26278  24.232  36.172   0.991
53854W        W26279   8.959  37.905   0.435
53855W        W26280  27.090   0.222  11.198
53856W        W26281  15.655  26.488  12.622
53857W        W26282  32.765  37.904   2.011
53858W        W26283   2.951  19.346  11.051
53859W        W26284  19.983  44.991   3.588
53860W        W26285  22.120  18.356   4.145
53861W        W26286  42.937  10.937  11.527
53862W        W26287  11.826  44.278   2.793
53863W        W26288  14.184  16.740  14.760
53864W        W26289  39.478  37.861   3.530
53865W        W26290  24.398  10.732   3.230
53866W        W26291  33.417   2.307  13.680
53867W        W26292  31.450  44.259  14.468
53868W        W26293  10.601  17.286  12.751
53869W        W26294   5.649   3.247  13.916
53870W        W26295  28.084   8.520  11.434
53871W        W26296  29.559  22.794   2.672
53872W        W26297  30.556  36.807  11.658
53873W        W26298  37.658  15.690   4.379
53874W        W26299  24.294  11.609  11.664
53875W        W26300  18.684  36.067   5.322
53876W        W26301  11.174  19.827  10.954
53877W        W26302   0.011  15.867   2.231
53878W        W26303   2.682  22.181  13.410
53879W        W26304   6.283  41.745   5.242
53880W        W26305  28.359  11.133  14.958
53881W        W26306   5.751  23.326   3.319
53882W        W26307  19.374  41.125  11.682
53883W        W26308  28.319   0.698   4.782
53884W        W26309  41.602  33.007   0.773
53885W        W26310  31.023  29.649   5.070
53886W        W26311  44.426   7.708  11.101
53887W        W26312   3.863  31.489  14.286
53888W        W26313   4.391  29.446   1.830
53889W        W26314   7.697  40.882   2.635
53890W        W26315  18.285  12.325   1.221
53891W        W26316  32.409  14.826  14.938
53892W        W26317  22.772  20.161   3.695
53893W        W26318  33.388  16.807   2.677
53894W        W26319  21.647  44.304   2.333
53895W        W26320   3.125  21.309  11.056
53896W        W26321  22.696  18.785   1.132
53897W        W26322   7.771  20.326   2.750
53898W        W26323  33.080  13.570  12.126
53899W        W26324  15.061  42.875   5.103
53900W        W26325  36.446   1.515   0.435
53901W        W26326  12.674   4.997  11.153
53902W        W26327   7.894   9.641  12.063
53903W        W26328  28.005  25.314   2.632
53904W        W26329  37.155  21.153   1.302
53905W        W26330   7.488  36.693  12.534
53906W        W26331  18.779  29.093   4.069
53907W        W26332   3.716  19.444  10.317
53908W        W26333  29.459  28.917   0.192
53909W        W26334  44.545  34.536   1.759
53910W        W26335  39.534  42.352  13.555
53911W        W26336  42.447  27.257   2.788
53912W        W26337  40.782  32.566  13.970
53913W        W26338   8.299   6.477   3.573
53914W        W26339  15.308   0.257   3.261
53915W        W26340  18.788  19.445   3.759
53916W        W26341   7.435  28.394  11.136
53917W        W26342  41.605  11.135  14.410
53918W        W26343  35.687  23.653   5.437
53919W        W26344  12.218  33.073  13.355
53920W        W26345  22.261  22.770  13.735
53921W        W26346  33.734  36.398   3.138
53922W        W26347  26.025  30.954   4.211
53923W        W26348  40.903  30.387  13.981
53924W        W26349  39.117  36.976   3.181
53925W        W26350  24.685  40.548  12.048
53926W        W26351  20.225  27.376   1.760
53927W        W26352  14.803  42.524   2.351
53928W        W26353  17.116  22.122  13.368
53929W        W26354  22.067   9.720  14.552
53930W        W26355   8.301   8.677  10.243
53931W        W26356   3.565   0.280  12.601
53932W        W26357  31.609  35.334   2.864
53933W        W26358  11.267   3.513   1.671
53934W        W26359  11.917  20.479   0.329
53935W        W26360  18.302  40.545   4.627
53936W        W26361  37.700   1.948  11.232
53937W        W26362  41.573  24.477  12.503
53938W        W26363  32.888  12.672  11.977
53939W        W26364   7.451  30.552  14.041
53940W        W26365  39.748  12.253   0.017
53941W        W26366   2.695  21.054   0.898
53942W        W26367  18.621   8.806  11.546
53943W        W26368  23.425  35.456  11.608
53944W        W26369  33.608  30.743   1.703
53945W        W26370  18.031  38.317   3.641
53946W        W26371  37.146   0.230  13.059
53947W        W26372  23.064  16.562   3.338
53948W        W26373  41.340  27.587  10.973
53949W        W26374  18.297  34.974  14.542
53950W        W26375  20.715   1.416   3.079
53951W        W26376  23.361  31.030   0.346
53952W        W26377  37.607  41.348  13.702
53953W        W26378  36.440  37.889  14.298
53954W        W26379   1.421  35.617  14.291
53955W        W26380  28.125  13.083  12.022
53956W        W26381  17.030  37.098   3.823
53957W        W26382  32.912  25.573   1.691
53958W        W26383  25.031  10.093  12.881
53959W        W26384  28.451   2.852   0.200
53960W        W26385  14.229   7.443  12.847
53961W        W26386  14.351  30.639   0.005
53962W        W26387   4.181  31.354   2.612
53963W        W26388   6.607  10.189  11.997
53964W        W26389  30.158  20.559  13.960
53965W        W26390  14.574  19.588  14.801
53966W        W26391  26.725  29.053  13.281
53967W        W26392   0.502  26.924  10.414
53968W        W26393   9.419  39.765   0.205
53969W        W26394   5.969  31.935  11.669
53970W        W26395  18.787  18.264  11.099
53971W        W26396   4.336  44.682  12.877
53972W        W26397  26.081  41.726   0.255
53973W        W26398  44.359  40.125  13.972
53974W        W26399  13.543  11.513  12.689
53975W        W26400  28.920  37.052  10.688
53976W        W26401  18.227  19.112  11.779
53977W        W26402  36.713  29.087   3.309
53978W        W26403   2.523  40.078   2.613
53979W        W26404  39.998  44.635   5.192
53980W        W26405  25.512  20.550   4.167
53981W        W26406   9.750  33.071  11.899
53982W        W26407  13.613  38.798   4.743
53983W        W26408  33.018   7.424  11.891
53984W        W26409  26.426  22.453   0.953
53985W        W26410  35.134  27.482  10.549
53986W        W26411   5.871  36.047  10.089
53987W        W26412  29.675  38.065   3.284
53988W        W26413  25.060  23.301  11.189
53989W        W26414  28.215   8.890   1.059
53990W        W26415  27.268  31.533  14.790
53991W        W26416   4.222  34.245  13.085
53992W        W26417  19.771  13.320  13.120
53993W        W26418  10.418  37.459   1.143
53994W        W26419  11.870   5.183  11.180
53995W        W26420   5.873  12.443   2.472
53996W        W26421  28.894  26.454   4.253
53997W        W26422  29.098   9.924  14.965
53998W        W26423   8.133  15.357  12.098
53999W        W26424  29.059  35.442  11.616
54000W        W26425   1.240   5.890  14.930
54001W        W26426  28.734  17.358  11.304
54002W        W26427   5.053  39.225   3.939
54003W        W26428  38.456  18.251   0.264
54004W        W26429  28.563   8.359  11.650
54005W        W26430  19.765  13.558   5.058
54006W        W26431  19.235  22.778  12.963
54007W        W26432   5.289  10.425  12.029
54008W        W26433   9.329   7.679  10.415
54009W        W26434   6.709  14.548  11.191
54010W        W26435   9.794  34.526   1.338
54011W        W26436  31.321  29.405  13.585
54012W        W26437  42.542  34.478  14.478
54013W        W26438  40.567   8.632   2.702
54014W        W26439  32.773  34.650   0.708
54015W        W26440  22.608  36.289   2.203
54016W        W26441  35.742   0.523   2.847
54017W        W26442  22.525  23.828  11.276
54018W        W26443  35.594  12.658   2.209
54019W        W26444   4.698  12.359   0.752
54020W        W26445   5.307   9.815   1.678
54021W        W26446  38.900  23.473  10.697
54022W        W26447  22.274  30.407   0.508
54023W        W26448  38.199  42.579   2.801
54024W        W26449  30.711  28.106  13.668
54025W        W26450  36.107  14.220   0.835
54026W        W26451  39.952  35.611   1.380
54027W        W26452  11.051  26.630   0.390
54028W        W26453  42.821  19.699  11.650
54029W        W26454   9.290   0.807  14.275
54030W        W26455  16.257  13.614  12.489
54031W        W26456  14.771   3.642  13.372
54032W        W26457  40.251  22.291  13.047
54033W        W26458  27.802  23.211   0.899
54034W        W26459   8.298  43.919  10.807
54035W        W26460  18.528  42.045  12.389
54036W        W26461  35.993  18.008  10.426
54037W        W26462  35.929  44.896  10.537
54038W        W26463   5.787  17.682   1.628
54039W        W26464  44.447   3.697   1.704
54040W        W26465  38.385  36.836  11.967
54041W        W26466  31.179  17.770   1.440
54042W        W26467  44.375  41.384  10.081
54043W        W26468  43.364   8.100  14.257
54044W        W26469  12.686  24.287   4.590
54045W        W26470  36.437  16.165   3.661
54046W        W26471  16.756   5.297  12.318
54047W        W26472  10.643  22.322  13.998
54048W        W26473   9.902  10.257   1.307
54049W        W26474  13.800   2.956   3.215
54050W        W26475   3.193  27.628  11.912
54051W        W26476   2.366  19.473  13.063
54052W        W26477  39.499   6.245  12.406
54053W        W26478  27.326   6.286   2.487
54054W        W26479  17.309  10.961  14.031
54055W        W26480  28.156  29.928   3.266
54056W        W26481  27.703  20.587   2.326
54057W        W26482  31.677   9.417   3.071
54058W        W26483  26.029  29.739  12.002
54059W        W26484   0.851  42.997   0.481
54060W        W26485   0.437  20.909  13.761
54061W        W26486  23.038  20.158   1.733
54062W        W26487   8.097  26.566   0.773
54063W        W26488  24.697  26.638  11.051
54064W        W26489  26.642  12.677  14.337
54065W        W26490  20.634  21.459  13.558
54066W        W26491  43.266  32.010  14.537
54067W        W26492  22.014  32.850   4.205
54068W        W26493  39.387  42.229  14.465
54069W        W26494   4.566  14.543  12.965
54070W        W26495  43.882  42.342   4.385
54071W        W26496  38.419  12.034   2.012
54072W        W26497  11.810   0.385   3.771
54073W        W26498  12.338  42.921   2.873
54074W        W26499   7.768  26.067  11.206
54075W        W26500  42.824   3.476  12.399
54076W        W26501  23.551  30.108   0.787
54077W        W26502  39.661  27.212  13.080
54078W        W26503  39.162  23.610   1.228
54079W        W26504  11.774  34.944   0.941
54080W        W26505   1.989  19.485   1.854
54081W        W26506  39.799   4.791   3.593
54082W        W26507  12.137  37.022  14.795
54083W        W26508  34.963  35.685  12.505
54084W        W26509   1.290   9.394  11.705
54085W        W26510  12.329   9.582   2.098
54086W        W26511  37.589  39.985   2.146
54087W        W26512  17.051  41.928   3.776
54088W        W26513  42.446  31.732   1.817
54089W        W26514   7.754  16.709   4.349
54090W        W26515  21.546  20.463   2.317
54091W        W26516  14.522  35.439  14.541
54092W        W26517   9.199  24.397  11.568
54093W        W26518  41.275  25.111  10.840
54094W        W26519  39.753  34.042  11.087
54095W        W26520  28.659  16.416  11.853
54096W        W26521   5.967  10.227  13.640
54097W        W26522  38.905  35.685  13.810
54098W        W26523  18.836  11.308   0.336
54099W        W26524  36.222  10.926  12.661
54100W        W26525  21.286  38.762  12.483
54101W        W26526  28.699  31.919  13.875
54102W        W26527  14.300  17.987  13.531
54103W        W26528   8.708  27.612   1.044
54104W        W26529  36.324   2.561  13.527
54105W        W26530  24.500  17.202   0.308
54106W        W26531  26.191   1.822   1.851
54107W        W26532   6.270  22.605   2.390
54108W        W26533   4.850  24.151  11.931
54109W        W26534  39.544  42.880   3.676
54110W        W26535   5.163   8.232   0.135
54111W        W26536  17.651   3.416  11.217
54112W        W26537  24.952   3.484   2.690
54113W        W26538  17.109  12.700   5.029
54114W        W26539   9.505  27.508   4.058
54115W        W26540  42.953  18.705   0.486
54116W        W26541  17.597  18.383  11.456
54117W        W26542   2.030  14.186  11.460
54118W        W26543  31.519  19.505  14.558
54119W        W26544   6.494  18.250  12.626
54120W        W26545  35.992  15.288   0.751
54121W        W26546  31.440  41.719   0.474
54122W        W26547  31.456  29.198   1.818
54123W        W26548  13.271  11.378  12.186
54124W        W26549  38.457   4.173   4.303
54125W        W26550  10.981  36.152  10.993
54126W        W26551  42.701  28.029  12.379
54127W        W26552  13.329  26.923   3.677
54128W        W26553  32.454  20.083   0.813
54129W        W26554  38.259  26.567   0.504
54130W        W26555   8.653   9.820   4.405
54131W        W26556  42.741  25.554  14.994
54132W        W26557  32.994  18.723  14.107
54133W        W26558  37.459  44.030   4.481
54134W        W26559  23.087  36.299   3.282
54135W        W26560  27.389  40.503   0.770
54136W        W26561  25.352  13.785  13.438
54137W        W26562  19.330  32.390   0.835
54138W        W26563  16.046  16.278   4.181
54139W        W26564  24.717  37.268   4.122
54140W        W26565  14.888  13.710  11.109
54141W        W26566  25.313  17.863  11.006
54142W        W26567  15.522  44.288   2.223
54143W        W26568  34.371  43.190   4.644
54144W        W26569  22.090   4.215  11.944
54145W        W26570  31.442  30.945   4.364
54146W        W26571  36.472  21.519   2.907
54147W        W26572  40.197  40.160   1.076
54148W        W26573  15.679  29.063  10.423
54149W        W26574   7.946  41.339  10.475
54150W        W26575  24.968  41.827   4.102
54151W        W26576   9.390  39.998  11.646
54152W        W26577   9.971  35.745  12.869
54153W        W26578  15.631   3.743   0.473
54154W        W26579  41.414  12.657   3.125
54155W        W26580  11.074  18.534  12.464
54156W        W26581  22.581  40.181  10.325
54157W        W26582  24.085  26.865   0.469
54158W        W26583  33.982   7.507   3.012
54159W        W26584  35.886  14.269   2.875
54160W        W26585  14.210  24.771   4.249
54161W        W26586   9.486  18.072   3.227
54162W        W26587   6.026   5.780  14.064
54163W        W26588   1.548  19.709   3.310
54164W        W26589  11.060   1.689   1.455
54165W        W26590   1.917  20.251   0.272
54166W        W26591  41.758  44.277  12.944
54167W        W26592  16.252  30.632   0.025
54168W        W26593   1.971  37.933   0.909
54169W        W26594  16.727  19.178   1.875
54170W        W26595  31.393  44.827   0.393
54171W        W26596  16.518  16.321  11.562
54172W        W26597   2.485   5.705  14.105
54173W        W26598  44.201   3.259   3.302
54174W        W26599   6.416  12.145   1.180
54175W        W26600  37.509   8.915  11.549
54176W        W26601  41.344  36.471   1.706
54177W        W26602   0.904  12.973  10.286
54178W        W26603  18.326  27.039  11.029
54179W        W26604  25.084  33.179  13.531
54180W        W26605  31.352   9.946   0.303
54181W        W26606  17.040  10.841   0.319
54182W        W26607   6.261   1.870  12.607
54183W        W26608  36.035  15.603  14.791
54184W        W26609  42.365  23.839   1.295
54185W        W26610  27.149   6.763   4.121
54186W        W26611  44.804  22.005  13.843
54187W        W26612  11.336  14.066  12.269
54188W        W26613  39.626   8.816  14.380
54189W        W26614  20.599  20.495   0.543
54190W        W26615  32.678  22.918   2.478
54191W        W26616  34.454  37.172   2.993
54192W        W26617  22.198  37.991   1.908
54193W        W26618  10.746  41.286   4.082
54194W        W26619  39.651   5.686   3.820
54195W        W26620  27.940  14.257  14.418
54196W        W26621   1.518  30.685  12.155
54197W        W26622  18.663  18.397  13.880
54198W        W26623  37.976  11.304  14.043
54199W        W26624   7.372  38.990  12.071
54200W        W26625  23.481   1.011   1.746
54201W        W26626  33.923  30.316   1.698
54202W        W26627  31.679  18.638   0.499
54203W        W26628  17.840   6.957  12.081
54204W        W26629  38.200  25.186   5.555
54205W        W26630  24.943  42.050   1.757
54206W        W26631  14.554  11.765   4.216
54207W        W26632  17.349  10.403  11.901
54208W        W26633  18.514   4.982  14.296
54209W        W26634  29.303  40.881   3.218
54210W        W26635  34.515  24.188  14.369
54211W        W26636  30.180  40.935  13.222
54212W        W26637  20.486   9.701  11.297
54213W        W26638  10.651  30.144  11.164
54214W        W26639  15.239  12.909  12.932
54215W        W26640   8.950  11.601  12.991
54216W        W26641  35.038  44.616  14.989
54217W        W26642  13.550  29.088  11.409
54218W        W26643  25.415  16.635  11.394
54219W        W26644  22.943  36.061  10.531
54220W        W26645  14.710   9.444   2.449
54221W        W26646   4.245  33.530   1.350
54222W        W26647   1.440  34.028   4.423
54223W        W26648  12.276  18.309   1.941
54224W        W26649  33.631   1.470   0.272
54225W        W26650  14.341  13.137   4.307
54226W        W26651  16.361  10.025  11.960
54227W        W26652  13.118   0.281   1.543
54228W        W26653  32.957  21.663   4.620
54229W        W26654  42.855  33.171   1.825
54230W        W26655   2.032  44.577   4.586
54231W        W26656  21.905  44.825  13.300
54232W        W26657  20.211   0.228   1.394
54233W        W26658  23.833  11.587   3.619
54234W        W26659  36.682  28.946  14.617
54235W        W26660  42.423  20.243   1.902
54236W        W26661  19.779  11.691  10.443
54237W        W26662  33.503  40.449   0.437
54238W        W26663  28.877  31.999  14.379
54239W        W26664  30.943  23.476  11.039
54240W        W26665  43.553  22.569  14.884
54241W        W26666  33.205  34.531  14.957
54242W        W26667  18.094  34.338   2.700
54243W        W26668  19.599  13.303   0.386
54244W        W26669  36.515   5.338   0.973
54245W        W26670  33.607  43.377  12.909
54246W        W26671   8.989  19.655   2.762
54247W        W26672  17.163  37.577   0.326
54248W        W26673  33.477  34.380  12.628
54249W        W26674   7.411  40.518  12.475
54250W        W26675  25.557  16.839  13.786
54251W        W26676   4.464  25.514  13.824
54252W        W26677  16.721  28.017   4.681
54253W        W26678  15.139  11.254   1.613
54254W        W26679  42.717  19.472   0.871
54255W        W26680   6.861  36.420   1.797
54256W        W26681  37.819   9.433  13.757
54257W        W26682  23.755  13.907  11.157
54258W        W26683  31.885  37.656  10.564
54259W        W26684   7.875  19.579   3.185
54260W        W26685  32.606  33.945  13.978
54261W        W26686   8.716  39.831   4.755
54262W        W26687  26.737  33.869  14.483
54263W        W26688  39.892  18.569   0.003
54264W        W26689   9.794   7.797   4.392
54265W        W26690  26.529  42.779   4.543
54266W        W26691  14.767  24.599  14.980
54267W        W26692   8.825  36.125   1.365
54268W        W26693  14.891  22.587   2.291
54269W        W26694  37.596   2.688   0.418
54270W        W26695  34.177  25.250   1.591
54271W        W26696   8.354  32.457   3.045
54272W        W26697   6.105  30.412  10.769
54273W        W26698   2.412  14.800  14.838
54274W        W26699   2.524  31.131   1.240
54275W        W26700  11.817  17.243  13.354
54276W        W26701  13.383  40.777  13.795
54277W        W26702  26.615  18.880   1.977
54278W        W26703  19.545   6.713  13.987
54279W        W26704  19.746  30.707   5.443
54280W        W26705  24.451   8.934  12.891
54281W        W26706  15.663  27.954   4.777
54282W        W26707  28.647  43.536   4.621
54283W        W26708  30.884  34.885   3.637
54284W        W26709  22.418  35.062  11.967
54285W        W26710  16.049   1.874   3.735
54286W        W26711  29.544  30.975   2.702
54287W        W26712  27.629  11.378  13.990
54288W        W26713  41.449  12.256  11.716
54289W        W26714   7.410  31.859  14.449
54290W        W26715   0.248   9.338  12.852
54291W        W26716   9.591  38.296   2.929
54292W        W26717  31.607  44.976   2.421
54293W        W26718   6.842  24.366  14.300
54294W        W26719  34.454  11.582  13.328
54295W        W26720  35.798  36.440   3.235
54296W        W26721  36.969  42.256   3.277
54297W        W26722  11.072  13.309  14.132
54298W        W26723  16.198  33.953  12.306
54299W        W26724  17.196  32.730  10.530
54300W        W26725  18.553  43.350   0.968
54301W        W26726  30.377  13.029   3.192
54302W        W26727  39.933  31.416  10.974
54303W        W26728   9.547  15.748  14.796
54304W        W26729  30.220  18.596   0.290
54305W        W26730   3.069  23.231   0.817
54306W        W26731  44.456  35.842  12.681
54307W        W26732  29.250  38.723   0.420
54308W        W26733   9.371  18.289   2.182
54309W        W26734  28.629   6.130   2.653
54310W        W26735  19.806  39.303   0.334
54311W        W26736  24.261   1.804   3.778
54312W        W26737  18.147  23.654   3.134
54313W        W26738  10.191   0.464   4.634
54314W        W26739  32.573  35.069  12.474
54315W        W26740   8.316  44.782  11.713
54316W        W26741  19.728  18.420  11.221
54317W        W26742  11.527  38.528  14.216
54318W        W26743  21.970  39.985  12.602
54319W        W26744  16.480   7.887  12.473
54320W        W26745   1.465   4.492   4.116
54321W        W26746  23.091  16.807   0.315
54322W        W26747  37.775  29.456  14.859
54323W        W26748  15.130  36.449   3.442
54324W        W26749  17.879   2.356  11.600
54325W        W26750  11.788  34.626  10.743
54326W        W26751   2.411  17.686  10.727
54327W        W26752  29.949  19.752   4.314
54328W        W26753  21.557   0.781   3.965
54329W        W26754  40.306  44.005   3.276
54330W        W26755  39.526  28.197   3.356
54331W        W26756  34.834  35.149  12.506
54332W        W26757  26.994  22.567   2.864
54333W        W26758   0.479  15.616   3.113
54334W        W26759  23.733  33.025  13.930
54335W        W26760  37.670  13.359  11.176
54336W        W26761  38.957  26.531  11.457
54337W        W26762  44.759  36.231   4.713
54338W        W26763  26.086  21.300   0.042
54339W        W26764  21.097  14.578  10.987
54340W        W26765  22.875  44.991   0.609
54341W        W26766  25.442  29.103   1.146
54342W        W26767  33.896  37.153   3.885
54343W        W26768   1.492  14.508  14.552
54344W        W26769  16.062  26.518   0.600
54345W        W26770  24.983  13.654  13.914
54346W        W26771  43.882  10.683  10.883
54347W        W26772  39.850   9.352   1.474
54348W        W26773  24.446  35.272  13.912
54349W        W26774   3.924  21.049   0.038
54350W        W26775  33.731  37.893  14.671
54351W        W26776  34.288  22.922   0.499
54352W        W26777  11.277  28.843   3.631
54353W        W26778  13.170  15.458   5.003
54354W        W26779   6.249  23.462   2.935
54355W        W26780  12.610  16.469   1.716
54356W        W26781  20.282  28.059  10.940
54357W        W26782  13.556  16.355   1.862
54358W        W26783  39.474  12.782   4.629
54359W        W26784  18.762  32.675  11.732
54360W        W26785  21.820  32.074   1.228
54361W        W26786  26.643  35.484  13.484
54362W        W26787  24.616   4.437   4.131
54363W        W26788  43.889  41.075   0.488
54364W        W26789  20.762  41.942  14.906
54365W        W26790   7.726  14.828  14.237
54366W        W26791   5.634  32.043  12.047
54367W        W26792  10.750  38.588  10.545
54368W        W26793  18.268  23.124  12.795
54369W        W26794  17.797  10.726  14.910
54370W        W26795  24.210  23.660  12.807
54371W        W26796  13.265  36.143  12.359
54372W        W26797  28.074  26.640   4.790
54373W        W26798  34.571  32.552   0.951
54374W        W26799  29.991  44.906  13.003
54375W        W26800  18.082  18.213  13.092
54376W        W26801  21.073  25.061   2.660
54377W        W26802  43.938  18.083  11.595
54378W        W26803  12.894  16.260   4.177
54379W        W26804   3.938  12.589   0.249
54380W        W26805  25.550   9.699   1.213
54381W        W26806  42.904  42.775   1.459
54382W        W26807   2.227  26.717  13.388
54383W        W26808  28.539   7.513  14.821
54384W        W26809  12.115  34.036   1.607
54385W        W26810  20.232  25.152  12.070
54386W        W26811   2.905  38.436   0.310
54387W        W26812  36.970  33.646   0.396
54388W        W26813  41.824  40.558  11.570
54389W        W26814  22.847   6.352  10.248
54390W        W26815  44.871  24.713   1.825
54391W        W26816  27.898  41.732  10.109
54392W        W26817   2.002   2.899  10.534
54393W        W26818   7.292   9.416  14.991
54394W        W26819  10.523   7.677  13.515
54395W        W26820   4.039  22.602   2.302
54396W        W26821  40.824  28.254   2.239
54397W        W26822  23.447  20.693  12.351
54398W        W26823  43.362  25.991   0.252
54399W        W26824  33.622  17.985  12.938
54400W        W26825  13.156   2.469   2.111
54401W        W26826  10.458  21.101  10.229
54402W        W26827  34.688  10.366   0.264
54403W        W26828  34.571   9.723   1.277
54404W        W26829  28.041   8.204  13.866
54405W        W26830  21.571  13.280  14.824
54406W        W26831  38.057   2.885  12.630
54407W        W26832  10.590  23.230  14.915
54408W        W26833  29.946  35.747   0.320
54409W        W26834  21.321   4.694  14.877
54410W        W26835  36.966  15.704  14.396
54411W        W26836  24.664   2.434   0.683
54412W        W26837   6.245   7.929   2.243
54413W        W26838  33.000  44.587   1.483
54414W        W26839  20.988  12.225  13.254
54415W        W26840  39.279  30.233  13.844
54416W        W26841  16.271  23.292   0.284
54417W        W26842   0.439  18.073  10.752
54418W        W26843  21.131  20.728  14.289
54419W        W26844   3.444  32.140  11.611
54420W        W26845   6.779  11.208   2.566
54421W        W26846  34.561  38.512   3.400
54422W        W26847  27.469  24.549   3.043
54423W        W26848  24.073  30.066   0.698
54424W        W26849   1.302  23.018  13.626
54425W        W26850  19.801  29.598  14.704
54426W        W26851   0.706  32.892   3.765
54427W        W26852  10.882  11.317  11.101
54428W        W26853  36.055  34.600   4.620
54429W        W26854  41.265  13.815  11.963
54430W        W26855  13.568  31.062  12.412
54431W        W26856   2.440   3.356   4.330
54432W        W26857  18.234  43.887  13.069
54433W        W26858  37.395  44.458   5.077
54434W        W26859  11.916   6.937  13.101
54435W        W26860  19.140   2.476   4.288
54436W        W26861   4.961   0.542  10.621
54437W        W26862  41.450  15.842   0.870
54438W        W26863  43.457  29.429   4.746
54439W        W26864   8.105  26.133   3.262
54440W        W26865  18.314  35.071   0.073
54441W        W26866  11.136  42.251  14.915
54442W        W26867  28.920  40.517  12.923
54443W        W26868   2.563  26.390   4.555
54444W        W26869  15.895  14.068   3.288
54445W        W26870   6.641  38.379   3.580
54446W        W26871  38.172  25.661  12.531
54447W        W26872  32.544  24.734   4.514
54448W        W26873  20.052   6.791  10.211
54449W        W26874   8.365  30.011  13.245
54450W        W26875  14.655   4.851   1.832
54451W        W26876   2.810  17.386  13.374
54452W        W26877  39.774  42.814  13.488
54453W        W26878   4.648  20.136   0.401
54454W        W26879  41.829  27.198   1.399
54455W        W26880   0.441   2.252  10.582
54456W        W26881  10.462  23.517   3.321
54457W        W26882   2.743  32.367   4.252
54458W        W26883   4.000  44.799   3.431
54459W        W26884   7.168   7.672   2.404
54460W        W26885   9.796  40.738  12.491
54461W        W26886  42.389   6.136   0.952
54462W        W26887  27.053   6.942   2.550
54463W        W26888   5.911  33.134  11.053
54464W        W26889   3.006  43.763  14.996
54465W        W26890  38.872  10.321  14.997
54466W        W26891  22.150  43.286   1.168
54467W        W26892  22.425  20.772  12.208
54468W        W26893   4.728   1.921  14.372
54469W        W26894  16.742  42.920  14.290
54470W        W26895   9.820  15.802  10.265
54471W        W26896  44.961  16.348  12.989
54472W        W26897  29.016  19.185  13.075
54473W        W26898  22.587   1.933  11.149
54474W        W26899  40.960  43.379  11.660
54475W        W26900  39.502   2.189  11.506
54476W        W26901  29.605  32.053   1.845
54477W        W26902  44.408  22.466   3.762
54478W        W26903  44.509  25.726  10.939
54479W        W26904  40.965   7.296  11.063
54480W        W26905  42.834  13.668   3.481
54481W        W26906  34.387   9.687   0.801
54482W        W26907  38.525  31.371   4.187
54483W        W26908  18.583   6.405   2.260
54484W        W26909  41.043  34.515   1.644
54485W        W26910  10.891   7.910  11.150
54486W        W26911  28.609  11.305   4.664
54487W        W26912  25.736   7.640  12.036
54488W        W26913  34.368  39.102   0.279
54489W        W26914  14.683  18.292   4.662
54490W        W26915  13.644   1.835  11.763
54491W        W26916  35.609  24.242  10.603
54492W        W26917  42.951   3.914   2.294
54493W        W26918  15.102   7.698  13.901
54494W        W26919   8.794  37.653  14.946
54495W        W26920  10.862  11.670   1.985
54496W        W26921   7.505   1.316   2.887
54497W        W26922  33.052  16.645   0.466
54498W        W26923  42.095  20.452   4.151
54499W        W26924  32.420  20.291  14.393
54500W        W26925   1.255  24.459   2.311
54501W        W26926   2.232  42.414  10.614
54502W        W26927  28.208   7.203   1.345
54503W        W26928  13.120   9.898  11.595
54504W        W26929  35.459   0.862  12.115
54505W        W26930  38.441  32.544   2.851
54506W        W26931  24.714  19.547   1.372
54507W        W26932  43.988  40.523   4.645
54508W        W26933   2.544  14.126   2.717
54509W        W26934  39.380   3.414  11.864
54510W        W26935  37.423  44.894  10.808
54511W        W26936  23.588  20.857   4.811
54512W        W26937  21.669  40.736   3.595
54513W        W26938  35.869  26.964  14.311
54514W        W26939   0.983   1.806   3.713
54515W        W26940  44.767  20.212   3.357
54516W        W26941  10.135   1.329   0.018
54517W        W26942  34.908  14.267  14.393
54518W        W26943  32.601  24.948  13.350
54519W        W26944  44.279   6.643  11.970
54520W        W26945  44.449  30.033   1.707
54521W        W26946  11.751  38.337  10.921
54522W        W26947  39.404  35.599   3.274
54523W        W26948  42.776  23.483  13.576
54524W        W26949  31.383  14.613  11.953
54525W        W26950   0.916   7.758  11.118
54526W        W26951  38.250   0.900   4.698
54527W        W26952  28.405   2.843  13.007
54528W        W26953  37.944  22.923   0.402
54529W        W26954  12.780  25.160   0.030
54530W        W26955   1.863   6.450  13.872
54531W        W26956   8.870  23.442   0.980
54532W        W26957  16.787   2.550   0.746
54533W        W26958  38.440  34.491   1.419
54534W        W26959  36.494  18.487  14.770
54535W        W26960  13.329  17.054   2.290
54536W        W26961   6.722  12.639  14.040
54537W        W26962  19.155   1.892   4.656
54538W        W26963  17.057  25.745  11.403
54539W        W26964  36.122  11.522  12.947
54540W        W26965   8.626  28.941   3.846
54541W        W26966  34.482  29.694  12.266
54542W        W26967  19.691  10.700   4.688
54543W        W26968  37.840  22.333   4.257
54544W        W26969  28.423  41.012  13.950
54545W        W26970   4.009  12.750   0.749
54546W        W26971   1.274  42.931   3.245
54547W        W26972  24.270  22.686  12.687
54548W        W26973  24.655  23.617  12.032
54549W        W26974  31.666  42.295   2.189
54550W        W26975  30.960  23.949  13.089
54551W        W26976  12.439  40.894   1.719
54552W        W26977  28.940  23.202  12.609
54553W        W26978  26.520   7.505   2.521
54554W        W26979   6.683  41.863   2.482
54555W        W26980  26.656  19.791   0.988
54556W        W26981  10.637   0.860  14.308
54557W        W26982  32.011  16.649   4.060
54558W        W26983  23.148  37.135   3.657
54559W        W26984  22.301  41.564   1.676
54560W        W26985  33.422   1.827   0.786
54561W        W26986  41.064  37.447  13.865
54562W        W26987  17.011  34.631   2.162
54563W        W26988  39.963  37.127   1.383
54564W        W26989  14.051  28.002  14.319
54565W        W26990  32.920  44.333   3.262
54566W        W26991  34.950  24.958  10.574
54567W        W26992  21.712   6.997  11.726
54568W        W26993  37.400  11.088  14.934
54569W        W26994   4.767  37.097   2.707
54570W        W26995  37.479  14.819  14.324
54571W        W26996   4.275  24.599   4.722
54572W        W26997  33.770  35.934   9.969
54573W        W26998  26.194  19.570   4.074
54574W        W26999  13.367  16.810  10.629
54575W        W27000  39.877  11.706   4.557
54576W        W27001  11.896  29.163  13.875
54577W        W27002  16.703  38.031  11.858
54578W        W27003  11.707  15.073   1.979
54579W        W27004  15.369  27.583  10.663
54580W        W27005  27.669  33.962   0.764
54581W        W27006  39.856   3.699   2.691
54582W        W27007  18.866  19.982   4.396
54583W        W27008   5.789  33.766  12.256
54584W        W27009   8.608   0.047  13.859
54585W        W27010   1.778   4.192  12.165
54586W        W27011  18.148  18.264  12.128
54587W        W27012  22.587   7.297   0.265
54588W        W27013  44.368  41.186   3.510
54589W        W27014  10.813  32.999   5.038
54590W        W27015  37.111  40.118  14.447
54591W        W27016  26.982  41.713   2.703
54592W        W27017  34.019  24.935   0.734
54593W        W27018  40.647  30.457   1.693
54594W        W27019  11.258   0.293  14.022
54595W        W27020   4.291  10.417  10.794
54596W        W27021  23.135  43.915  11.386
54597W        W27022   0.256  31.313   3.697
54598W        W27023   8.168  27.014  10.917
54599W        W27024   6.629  30.429   5.004
54600W        W27025  28.617  11.471  11.884
54601W        W27026  37.856   1.122  13.775
54602W        W27027  23.685  31.652  11.187
54603W        W27028  14.813  20.743  10.587
54604W        W27029  23.714  21.697  12.489
54605W        W27030   2.060   9.786   4.141
54606W        W27031  14.617  23.519   2.729
54607W        W27032  34.463  31.165   3.745
54608W        W27033  38.413  27.749  10.550
54609W        W27034  13.056  27.760  13.387
54610W        W27035  12.089  29.846  14.843
54611W        W27036   1.206   1.304  13.851
54612W        W27037   5.699  41.949  10.790
54613W        W27038   5.342  25.950   4.318
54614W        W27039   7.935  25.579  12.091
54615W        W27040   4.716  31.663  11.092
54616W        W27041   0.414  29.926  13.987
54617W        W27042   0.701  20.961   4.080
54618W        W27043   6.716   6.634   4.221
54619W        W27044  43.480   6.764  14.335
54620W        W27045   9.853  22.727   2.194
54621W        W27046  21.267  13.805   2.943
54622W        W27047  33.308  40.711  11.670
54623W        W27048  37.200  31.557  14.946
54624W        W27049   3.809   2.024   5.160
54625W        W27050   8.497  25.374  13.871
54626W        W27051  44.189  14.267   2.408
54627W        W27052  26.393  29.102  12.830
54628W        W27053  11.553  28.639   1.628
54629W        W27054   8.807   5.775   1.843
54630W        W27055  27.725  13.783   4.274
54631W        W27056  28.280  35.834  13.016
54632W        W27057  20.235  14.137  11.484
54633W        W27058  38.890  31.194   2.841
54634W        W27059  10.701  35.536   3.058
54635W        W27060  17.103  16.049   4.398
54636W        W27061  29.072  19.174   3.968
54637W        W27062  17.793   7.860  11.988
54638W        W27063   9.975  25.905   0.024
54639W        W27064  36.803   1.381   4.642
54640W        W27065  37.908  37.566  14.348
54641W        W27066  42.001  13.117  10.997
54642W        W27067   8.147   4.793   2.881
54643W        W27068   4.922  19.183  11.209
54644W        W27069  20.154  25.660   2.253
54645W        W27070  27.227  29.198  12.352
54646W        W27071  30.603   5.094  12.126
54647W        W27072  23.979   6.717   2.755
54648W        W27073  31.473   6.400  10.238
54649W        W27074  26.075  37.285  12.068
54650W        W27075   4.246   2.282   4.967
54651W        W27076  35.846   9.050   4.829
54652W        W27077   3.150  34.380   4.677
54653W        W27078   0.477  40.321   1.495
54654W        W27079  29.080  34.958  14.260
54655W        W27080  32.033  22.584  10.423
54656W        W27081  22.769   6.998   4.631
54657W        W27082  30.869  14.437   1.823
54658W        W27083  15.878  14.401  12.693
54659W        W27084   4.684   2.273   4.048
54660W        W27085  12.391  39.889   2.061
54661W        W27086   2.930  37.526   1.834
54662W        W27087  10.650  23.086   3.071
54663W        W27088  42.420   2.855  14.486
54664W        W27089   7.532  35.651   0.742
54665W        W27090   4.611  31.112   1.655
54666W        W27091  38.795  35.386   4.544
54667W        W27092   5.100  15.996   4.042
54668W        W27093  29.570   7.737  13.310
54669W        W27094  30.927  39.629  11.846
54670W        W27095  28.127  25.185   3.144
54671W        W27096  27.570  11.191  14.492
54672W        W27097  26.048  18.214   1.478
54673W        W27098  33.673   5.806   0.198
54674W        W27099  35.514   0.764   3.869
54675W        W27100  38.743  43.537  14.344
54676W        W27101  26.315  23.236  12.379
54677W        W27102  35.096   0.979   4.661
54678W        W27103  23.582  35.988  13.251
54679W        W27104  29.056   7.148  12.537
54680W        W27105   2.941  23.800   4.088
54681W        W27106   3.518   4.747   4.468
54682W        W27107  18.825   3.253  10.724
54683W        W27108  19.156  29.614   4.988
54684W        W27109  37.373  38.186   2.873
54685W        W27110  25.830  44.406  12.072
54686W        W27111  11.027  34.604   2.845
54687W        W27112  13.563  27.135  11.487
54688W        W27113   1.280   9.889   1.148
54689W        W27114  37.500  19.593  14.599
54690W        W27115  24.014   2.237   3.609
54691W        W27116  14.833  36.424   2.031
54692W        W27117  26.825  35.624   3.638
54693W        W27118  14.601  32.606   3.343
54694W        W27119  33.406   6.603   2.413
54695W        W27120   5.387   4.002   0.210
54696W        W27121  43.852  20.562   0.428
54697W        W27122  20.839  30.118  10.422
54698W        W27123  35.883  35.078  11.157
54699W        W27124  20.552  35.350   0.223
54700W        W27125   9.517  31.964   3.751
54701W        W27126   6.932   3.066   3.287
54702W        W27127  26.510  44.839   0.955
54703W        W27128  43.383  14.861  10.937
54704W        W27129  15.513  23.749   2.373
54705W        W27130  21.720   8.876   0.373
54706W        W27131  15.312  19.201   2.365
54707W        W27132  34.398   0.151   1.317
54708W        W27133  17.333  38.976  12.865
54709W        W27134   4.085  16.612   3.185
54710W        W27135  12.696  29.210   3.142
54711W        W27136  12.350  14.453  11.978
54712W        W27137  16.462  36.299  14.339
54713W        W27138   2.472  26.050  14.467
54714W        W27139   9.790   3.412  14.879
54715W        W27140  40.459  11.884  10.532
54716W        W27141  43.627  32.719   0.787
54717W        W27142  36.760  18.470  11.529
54718W        W27143  25.223  42.556   4.455
54719W        W27144  17.685  26.490   0.930
54720W        W27145  28.664  35.332   1.200
54721W        W27146  22.922  12.376   2.691
54722W        W27147  31.426  24.460  13.817
54723W        W27148  43.857  29.961  10.520
54724W        W27149   2.993  23.996   0.677
54725W        W27150   4.332  11.857  13.799
54726W        W27151  20.225  37.565   1.728
54727W        W27152  31.906  37.408  10.028
54728W        W27153  25.742   7.956  13.732
54729W        W27154  33.855   3.671  12.070
54730W        W27155  42.937  27.525   0.522
54731W        W27156  22.525   9.925  10.907
54732W        W27157   5.429  24.059   1.342
54733W        W27158  10.225  41.750  11.967
54734W        W27159  17.249  30.436  13.815
54735W        W27160  34.113   5.724   0.889
54736W        W27161  27.137  12.517   0.549
54737W        W27162  12.131   7.468   2.028
54738W        W27163   4.063  15.324  10.727
54739W        W27164   2.230  35.728  11.996
54740W        W27165  40.749  27.311  11.423
54741W        W27166  24.228  39.572   3.592
54742W        W27167  13.071  21.186   1.343
54743W        W27168  15.324  29.033  14.516
54744W        W27169  26.748  25.870  14.591
54745W        W27170  35.906  36.153  12.196
54746W        W27171   6.419  15.638  14.940
54747W        W27172   7.208   6.656  13.386
54748W        W27173  38.832  20.702   0.275
54749W        W27174  25.513  10.798  12.471
54750W        W27175  35.909  12.070  14.509
54751W        W27176  42.259   0.825   0.835
54752W        W27177  27.087  38.176  14.954
54753W        W27178   0.856  31.501   2.749
54754W        W27179  12.815   1.973  13.091
54755W        W27180   1.062  11.229  13.240
54756W        W27181   1.837  27.783  13.546
54757W        W27182  12.610  35.353  13.457
54758W        W27183   9.616  32.645  14.670
54759W        W27184  20.719   8.795  10.816
54760W        W27185  24.395   7.911  11.446
54761W        W27186  35.932   7.394  11.042
54762W        W27187  14.364  10.178  10.637
54763W        W27188  31.376   2.828  13.995
54764W        W27189   2.779   6.327   0.261
54765W        W27190  15.733  10.806   0.058
54766W        W27191  13.891  26.616  11.440
54767W        W27192  33.051   4.435   1.187
54768W        W27193  13.308  31.070  13.334
54769W        W27194  36.850  26.711  13.491
54770W        W27195  39.321  29.133   3.190
54771W        W27196  19.811  41.737  12.761
54772W        W27197  26.649  18.154   0.804
54773W        W27198   3.296   1.323   0.279
54774W        W27199  25.528   7.141  11.150
54775W        W27200  26.459  21.055   3.167
54776W        W27201  23.193   0.300  10.927
54777W        W27202  36.083  15.057  12.506
54778W        W27203   1.359  23.169   4.642
54779W        W27204  43.896  22.996  11.058
54780W        W27205  27.409  29.844  11.332
54781W        W27206  20.533  29.062   2.202
54782W        W27207  14.462  20.966  11.296
54783W        W27208  43.773  26.427   2.236
54784W        W27209  40.160  36.383   0.164
54785W        W27210   4.701  35.353   1.375
54786W        W27211  44.339  28.627  14.778
54787W        W27212  43.050   4.162   0.523
54788W        W27213  38.610  11.088  12.198
54789W        W27214  23.107  41.461  12.477
54790W        W27215   4.743   9.845  14.408
54791W        W27216   2.594  40.651   5.062
54792W        W27217  10.276   6.658   4.625
54793W        W27218   1.754  38.426   0.963
54794W        W27219  18.740  40.260  10.788
54795W        W27220  28.483   9.626   4.130
54796W        W27221   1.998  35.977   3.767
54797W        W27222  31.414   9.833  12.887
54798W        W27223  38.408  31.280  12.482
54799W        W27224  13.590   5.642  12.016
54800W        W27225  30.930  44.674   3.987
54801W        W27226  32.965   8.806  13.927
54802W        W27227  28.846  14.283   0.967
54803W        W27228  24.607   7.623   4.467
54804W        W27229   4.808   5.607  12.970
54805W        W27230  34.584   0.948  13.211
54806W        W27231  39.962  35.863   0.003
54807W        W27232  18.998  33.967   3.252
54808W        W27233   5.912  24.112  14.438
54809W        W27234  15.805  12.672   0.237
54810W        W27235  36.749  41.278   0.445
54811W        W27236  10.793  44.814   4.474
54812W        W27237   5.982   7.662   2.635
54813W        W27238  39.576  24.736   3.176
54814W        W27239  40.543  41.208  14.863
54815W        W27240  17.634  20.896  10.025
54816W        W27241  23.401  25.294  13.406
54817W        W27242   9.279  41.420  10.672
54818W        W27243  12.896  32.142  10.332
54819W        W27244   4.514  33.696  14.855
54820W        W27245  15.562  11.735   2.247
54821W        W27246   7.695  13.876  12.689
54822W        W27247   0.718  17.041  11.504
54823W        W27248  43.250   2.855  14.845
54824W        W27249  36.322   7.509   3.749
54825W        W27250  30.213  42.565  12.671
54826W        W27251  21.651  44.781  14.960
54827W        W27252   0.507  44.997  14.842
54828W        W27253  27.594  20.069   3.185
54829W        W27254   2.889   3.335   2.870
54830W        W27255   3.924   4.006  11.452
54831W        W27256  14.241  22.588   0.576
54832W        W27257  31.545  35.401   3.380
54833W        W27258  35.757  19.274   1.953
54834W        W27259  36.873  24.808   0.062
54835W        W27260  39.850  32.961   1.281
54836W        W27261  26.173  14.597   2.400
54837W        W27262  36.407  43.086   1.237
54838W        W27263  38.048   8.908   3.659
54839W        W27264  17.818   5.293  10.743
54840W        W27265  28.886  10.891  12.628
54841W        W27266  44.406   5.286   4.545
54842W        W27267  10.145  21.833  14.528
54843W        W27268  22.422  21.227  12.975
54844W        W27269  15.600  20.318  12.689
54845W        W27270  12.651  26.441  11.972
54846W        W27271  38.305  15.883   3.659
54847W        W27272  12.142  11.164  14.780
54848W        W27273   4.426  14.566  11.976
54849W        W27274  36.986  14.843  14.021
54850W        W27275  14.977  21.457   5.071
54851W        W27276   1.196   5.308  11.593
54852W        W27277   5.604  16.577   2.413
54853W        W27278   5.398  28.235  11.596
54854W        W27279  15.447  14.709  12.106
54855W        W27280  16.168  25.559   2.193
54856W        W27281  36.049  12.660   4.737
54857W        W27282  23.074  17.347   1.929
54858W        W27283  37.937  27.684   4.128
54859W        W27284  26.696  27.715   4.194
54860W        W27285  17.094  33.047  12.845
54861W        W27286  19.358  26.500   4.933
54862W        W27287   8.988  12.102  12.965
54863W        W27288  42.605  43.553   2.718
54864W        W27289  28.002  17.299   0.035
54865W        W27290  24.240  36.271  13.928
54866W        W27291  27.169  39.900  11.666
54867W        W27292  17.772  36.552  12.584
54868W        W27293  44.671  37.336  10.769
54869W        W27294  31.575  18.113   1.385
54870W        W27295  28.149  36.010   1.428
54871W        W27296  18.228  17.286   4.475
54872W        W27297  36.575  12.766  11.591
54873W        W27298  41.349  29.118   4.121
54874W        W27299   0.395  15.718  13.581
54875W        W27300  20.172   0.775  14.468
54876W        W27301  27.434  19.135  11.095
54877W        W27302  34.938  38.656  12.521
54878W        W27303  31.756  18.726   9.908
54879W        W27304  23.117  24.695   3.208
54880W        W27305  42.297   3.400  10.785
54881W        W27306   3.402  17.750  14.419
54882W        W27307  26.338   1.783   0.821
54883W        W27308  14.269  44.694  11.662
54884W        W27309  22.558  19.499  12.998
54885W        W27310   7.372  31.011   2.275
54886W        W27311   3.328  33.604   2.555
54887W        W27312  24.452  23.906   3.251
54888W        W27313  38.817   5.257  12.977
54889W        W27314  38.232  37.958   0.136
54890W        W27315  20.243   0.799   0.362
54891W        W27316   9.606  39.780   1.519
54892W        W27317   0.508  43.187   4.610
54893W        W27318  27.381  15.640   4.143
54894W        W27319  17.117  32.586   1.445
54895W        W27320  11.792  10.913   1.925
54896W        W27321   8.401  36.854  11.358
54897W        W27322  39.758   6.221  11.952
54898W        W27323  14.675  19.312   4.656
54899W        W27324  33.056  37.572   1.458
54900W        W27325  16.266  15.059   0.878
54901W        W27326  24.188  41.962   4.623
54902W        W27327  27.577  40.013  13.372
54903W        W27328  44.452  37.882  10.062
54904W        W27329  26.049  11.768   2.475
54905W        W27330  16.381  13.019   0.628
54906W        W27331  10.426   4.186  14.757
54907W        W27332  25.745  31.464  13.295
54908W        W27333  38.336  28.238   0.002
54909W        W27334  25.134  10.588  11.160
54910W        W27335   0.769   3.385   0.815
54911W        W27336  42.082   4.809  13.995
54912W        W27337   3.402  12.315  13.840
54913W        W27338  25.755  18.444   0.880
54914W        W27339  42.942  10.336  12.227
54915W        W27340  39.983   3.923   4.145
54916W        W27341   2.498  32.484  14.894
54917W        W27342  12.197  33.853   0.131
54918W        W27343  17.818   9.269   3.277
54919W        W27344  19.624  21.067  11.714
54920W        W27345   8.048  12.080  12.935
54921W        W27346  33.490  16.638   0.770
54922W        W27347  18.620   2.386   2.178
54923W        W27348  32.603   3.941  12.655
54924W        W27349   8.832  43.988  11.499
54925W        W27350  32.278  19.643   4.912
54926W        W27351  21.989  36.677   0.460
54927W        W27352   8.212  35.973  14.546
54928W        W27353  44.908  13.722   2.357
54929W        W27354   7.924  15.068   2.197
54930W        W27355  22.571  42.493  11.937
54931W        W27356  43.869   9.199  14.218
54932W        W27357  42.391   9.775   0.905
54933W        W27358  18.275  26.063  13.204
54934W        W27359  28.216  33.463  11.203
54935W        W27360  22.219  25.245  12.335
54936W        W27361   7.483  10.131   4.367
54937W        W27362   0.733  31.213   2.198
54938W        W27363   6.249   5.615   3.707
54939W        W27364  29.057  19.403  14.463
54940W        W27365  38.261  22.169   0.927
54941W        W27366   6.024  10.329   0.896
54942W        W27367  25.989  16.285  13.479
54943W        W27368  36.828  29.012   0.549
54944W        W27369  17.039  23.122   1.874
54945W        W27370  18.169  36.470   1.367
54946W        W27371   9.791  43.329  11.162
54947W        W27372  18.309  42.117  11.927
54948W        W27373  36.339  36.726   2.078
54949W        W27374  22.667   5.655  13.773
54950W        W27375  32.419  33.474  13.835
54951W        W27376  42.089  15.348  12.918
54952W        W27377   2.388  11.841  10.627
54953W        W27378  16.433  31.040  11.672
54954W        W27379  23.957  30.718  11.993
54955W        W27380  13.808  23.732   1.698
54956W        W27381  23.707  25.055  10.911
54957W        W27382  33.439   7.600   3.624
54958W        W27383  33.994  24.837   3.789
54959W        W27384  18.963  35.925   2.852
54960W        W27385  30.409  13.792  13.490
54961W        W27386  33.102  12.045   3.314
54962W        W27387  34.050   4.306   2.716
54963W        W27388  25.343  26.026  11.996
54964W        W27389  24.170  24.722   1.845
54965W        W27390   7.246  32.949   4.317
54966W        W27391  17.351  13.649  11.002
54967W        W27392  14.532  35.552  12.452
54968W        W27393  31.232  42.967  10.647
54969W        W27394  21.275   3.781  11.418
54970W        W27395  19.013  30.089   9.794
54971W        W27396   7.219  41.145   4.581
54972W        W27397  16.760  16.189   2.910
54973W        W27398  32.031  21.625   3.966
54974W        W27399  37.467  26.154  12.614
54975W        W27400  10.864   9.669  13.533
54976W        W27401  13.292  42.808  12.110
54977W        W27402  41.740  10.491  12.496
54978W        W27403  26.086   9.155  10.670
54979W        W27404   7.698   6.427   2.815
54980W        W27405  14.121  41.878  11.539
54981W        W27406   0.486  23.407   1.266
54982W        W27407  22.064  42.500  13.012
54983W        W27408  25.495  40.425   0.763
54984W        W27409   5.688  30.325   0.886
54985W        W27410  31.948  10.159  12.608
54986W        W27411  18.749   7.942   3.183
54987W        W27412  43.747  42.827  14.346
54988W        W27413  21.666  13.095  12.901
54989W        W27414  17.299  27.671  11.433
54990W        W27415  32.048  16.128  14.864
54991W        W27416   8.841   2.644   2.520
54992W        W27417  10.136  12.373  13.753
54993W        W27418  10.164  30.449  11.939
54994W        W27419   3.332  10.887  11.862
54995W        W27420  38.576  40.282   3.611
54996W        W27421  25.700  13.980  12.594
54997W        W27422   9.127  34.098  12.550
54998W        W27423   8.339   8.431  11.599
54999W        W27424  27.573   7.845   1.276
55000W        W27425  31.854  23.455  14.394
55001W        W27426   5.296  32.443  11.529
55002W        W27427  41.417  40.109  12.021
55003W        W27428  29.674  26.659   4.649
55004W        W27429  29.429   2.809  13.900
55005W        W27430   5.833  27.735  12.183
55006W        W27431  44.215  37.474   3.771
55007W        W27432  11.523  13.703  12.625
55008W        W27433  33.041  30.777  14.543
55009W        W27434  34.919  26.873  11.452
55010W        W27435   8.013  36.131  10.142
55011W        W27436   1.954  31.838  13.491
55012W        W27437  42.474  28.532  14.034
55013W        W27438  24.779  35.459  12.066
55014W        W27439  12.572   2.756  14.692
55015W        W27440   0.749  33.293   5.094
55016W        W27441   0.313  27.637  12.834
55017W        W27442  25.067  43.279  10.634
55018W        W27443  42.444  36.722  13.253
55019W        W27444  32.389  14.717   3.387
55020W        W27445  21.788  21.165   3.575
55021W        W27446  10.042  14.555  11.545
55022W        W27447  19.040   0.046  13.542
55023W        W27448  14.137  21.193   0.356
55024W        W27449  12.418  11.407  11.958
55025W        W27450  33.044  12.372   0.461
55026W        W27451  27.177  18.304  14.792
55027W        W27452  43.491  36.429   1.843
55028W        W27453  34.082  41.492  14.365
55029W        W27454  21.133  25.104  10.695
55030W        W27455   7.144   7.151   3.328
55031W        W27456   9.383  14.629   2.000
55032W        W27457   6.578   1.598  14.688
55033W        W27458   7.971  28.479  13.933
55034W        W27459   4.962  20.451   2.293
55035W        W27460   1.251   4.282   0.786
55036W        W27461   8.853  38.347   2.380
55037W        W27462   5.469  15.397   2.597
55038W        W27463  31.015  31.578   0.922
55039W        W27464  12.929  37.982  14.324
55040W        W27465  38.875   2.862  13.745
55041W        W27466  12.209   9.975   5.124
55042W        W27467   7.720  33.193  13.988
55043W        W27468  25.200  12.800  14.789
55044W        W27469  37.086  38.921  14.981
55045W        W27470   2.545  20.811   3.185
55046W        W27471  11.346   1.473   1.850
55047W        W27472  35.820  18.832   0.735
55048W        W27473   3.729  32.951   2.425
55049W        W27474  18.752  33.563   3.872
55050W        W27475  13.040  18.835   1.941
55051W        W27476  13.667  25.348   0.697
55052W        W27477   9.977  25.561   0.818
55053W        W27478  13.848  38.256  11.694
55054W        W27479   9.835  16.121   3.372
55055W        W27480   4.436  24.995  13.865
55056W        W27481  33.726   1.982   0.351
55057W        W27482  11.597  33.096   4.698
55058W        W27483  14.745  29.061   0.001
55059W        W27484  13.265  29.815   4.631
55060W        W27485  37.360  32.873   2.167
55061W        W27486   7.850  36.944   5.041
55062W        W27487  34.003  43.808  14.567
55063W        W27488  17.549  10.847   3.444
55064W        W27489   4.233  32.861  13.457
55065W        W27490   1.025  35.385   0.427
55066W        W27491  13.216   4.839   4.006
55067W        W27492  10.324  19.065   2.636
55068W        W27493  35.548   9.583  11.079
55069W        W27494  36.505  17.073  14.850
55070W        W27495  13.722   7.198   4.093
55071W        W27496  12.828  41.744   3.081
55072W        W27497  19.809  13.491   2.394
55073W        W27498  23.484  10.698   0.424
55074W        W27499  11.584  29.518  14.072
55075W        W27500  14.074  24.141  13.876
55076W        W27501  23.235  37.081  11.078
55077W        W27502  38.343  39.793   2.711
55078W        W27503  16.491  32.861  11.492
55079W        W27504  44.453  39.828   3.072
55080W        W27505  13.167  37.376  12.438
55081W        W27506  38.960  41.064   0.840
55082W        W27507   3.701   6.919   1.882
55083W        W27508   0.226  33.089   3.684
55084W        W27509  25.198   4.462   0.332
55085W        W27510  39.929  33.894  10.073
55086W        W27511  23.779  23.995   4.110
55087W        W27512  30.882  27.649  13.437
55088W        W27513  34.479  36.981   4.561
55089W        W27514  41.442  10.629   2.977
55090W        W27515  19.151   0.604  14.959
55091W        W27516  35.309  25.546   4.974
55092W        W27517  26.107  30.212  14.499
55093W        W27518   5.430  42.871  11.212
55094W        W27519  26.169  18.975  14.344
55095W        W27520  10.480  35.921  12.918
55096W        W27521  16.829  25.439   1.753
55097W        W27522  14.898   0.945  14.276
55098W        W27523  30.539  40.455   4.038
55099W        W27524  34.961  44.776  13.073
55100W        W27525  13.403   6.800   4.198
55101W        W27526  40.423  13.645   3.179
55102W        W27527  29.241  32.774  10.206
55103W        W27528  17.137  37.233   3.237
55104W        W27529   2.266  12.569  14.446
55105W        W27530  26.976  35.436   2.691
55106W        W27531   5.878  13.584   4.230
55107W        W27532  21.176  37.441   2.731
55108W        W27533  20.711  14.747   0.116
55109W        W27534  27.255  42.146  14.480
55110W        W27535   1.551  16.440  12.443
55111W        W27536   8.475   6.488   1.300
55112W        W27537  20.437  23.229  14.891
55113W        W27538  11.640  36.166  12.308
55114W        W27539  44.139  19.692   3.041
55115W        W27540   9.187  31.607  11.272
55116W        W27541  31.065   8.169  12.878
55117W        W27542   4.804   4.419   4.281
55118W        W27543  18.143  11.758   0.960
55119W        W27544  11.159  23.542  14.824
55120W        W27545  42.042  28.424  12.855
55121W        W27546  21.754   1.868   1.859
55122W        W27547  27.948  13.749  11.574
55123W        W27548  42.377  35.740  10.307
55124W        W27549  26.709  11.697   0.450
55125W        W27550   5.785  16.419  14.722
55126W        W27551  20.045  26.457   0.402
55127W        W27552  43.207  39.725  14.741
55128W        W27553  16.824  22.920  11.505
55129W        W27554  10.302  32.615  10.075
55130W        W27555  42.011  35.039  13.846
55131W        W27556   8.141  41.844  14.862
55132W        W27557   6.154  13.521  10.678
55133W        W27558  42.397  18.288  11.599
55134W        W27559   6.981   9.642  11.591
55135W        W27560  27.015  19.038  13.430
55136W        W27561  34.958  30.800   5.194
55137W        W27562   2.447   2.747   1.306
55138W        W27563  23.259  24.199   4.121
55139W        W27564  28.184  30.671   3.853
55140W        W27565  17.985  13.061   2.951
55141W        W27566  19.029   5.596   0.971
55142W        W27567  38.615  30.172  10.383
55143W        W27568   3.131  22.571  11.640
55144W        W27569  17.275  15.041   1.351
55145W        W27570  25.987  39.929  13.846
55146W        W27571   6.337  17.838   2.891
55147W        W27572  24.996  14.524   0.437
55148W        W27573  27.539  25.437  13.964
55149W        W27574  11.760  13.048   2.321
55150W        W27575  24.730  30.213  14.575
55151W        W27576  42.992  11.118  14.922
55152W        W27577  36.805  27.045  13.933
55153W        W27578  33.566  18.268   1.207
55154W        W27579  34.325  43.543   2.074
55155W        W27580  18.277  23.301  14.471
55156W        W27581   3.664  21.889  11.964
55157W        W27582  35.461   8.094  12.428
55158W        W27583  15.229  32.759  14.687
55159W        W27584  23.550  14.859  13.343
55160W        W27585  10.203  15.842   3.098
55161W        W27586  17.150  39.829  11.738
55162W        W27587  15.428  24.906   0.063
55163W        W27588  10.067  36.340   1.392
55164W        W27589  23.031   5.264   4.593
55165W        W27590  38.968  30.408  10.733
55166W        W27591  19.700   9.642  11.214
55167W        W27592   3.805  16.156  13.752
55168W        W27593   7.372   8.160   2.662
55169W        W27594  30.944  41.060   1.850
55170W        W27595   5.126  21.580  11.046
55171W        W27596   7.460  36.170  13.453
55172W        W27597  24.712   9.056   9.754
55173W        W27598   1.534  41.269  11.499
55174W        W27599  22.573  38.529   0.166
55175W        W27600  42.002  40.440  12.926
55176W        W27601   7.151  16.595  14.366
55177W        W27602  13.829   0.313  12.109
55178W        W27603  22.300  19.285  13.870
55179W        W27604  29.436  11.812   2.248
55180W        W27605  34.944  10.792   4.836
55181W        W27606  23.160  44.656  12.535
55182W        W27607  13.720  16.890   3.142
55183W        W27608  12.346  13.486  11.023
55184W        W27609   3.294  24.507   1.356
55185W        W27610  34.476  36.676  14.026
55186W        W27611  23.820  10.656   0.888
55187W        W27612   1.408   6.992  11.157
55188W        W27613  38.571   7.524   1.465
55189W        W27614   8.616  40.703   3.238
55190W        W27615   8.841   9.159  11.317
55191W        W27616  23.457  22.221   4.492
55192W        W27617  23.237  13.743   4.646
55193W        W27618  26.688   2.772   4.686
55194W        W27619  44.041   6.215   4.112
55195W        W27620  17.273  20.065  13.864
55196W        W27621  12.799   9.419   2.310
55197W        W27622  34.348  24.007  12.865
55198W        W27623  28.473  40.784  13.064
55199W        W27624  13.772  12.301   3.677
55200W        W27625   9.618  30.702  11.185
55201W        W27626  12.854  36.569   3.278
55202W        W27627  40.023  44.489   2.406
55203W        W27628  38.273  23.915  11.076
55204W        W27629  10.606  14.154   3.367
55205W        W27630  22.664  11.133   5.498
55206W        W27631  11.623  42.521   2.469
55207W        W27632  17.738   4.735  13.975
55208W        W27633  32.038  23.975   3.243
55209W        W27634  25.982  19.039   2.170
55210W        W27635  15.627   9.892  14.024
55211W        W27636   4.511  22.987  12.059
55212W        W27637  43.192  17.260  13.481
55213W        W27638  12.761  41.028  10.728
55214W        W27639  42.278  12.225  14.017
55215W        W27640   1.975   7.274  13.860
55216W        W27641  30.929  29.014  11.911
55217W        W27642  10.213  23.065  14.037
55218W        W27643  25.926  39.343   1.334
55219W        W27644  23.275  36.860  14.314
55220W        W27645  39.082  39.101   2.301
55221W        W27646  27.114   6.301  12.902
55222W        W27647  23.238  13.337   1.732
55223W        W27648   7.667  29.512  12.585
55224W        W27649   9.647  14.106   4.639
55225W        W27650  35.345   0.198   2.871
55226W        W27651   7.750  28.395  13.028
55227W        W27652  31.537  18.360  13.168
55228W        W27653  23.565  20.581  14.824
55229W        W27654  43.005   7.313  10.725
55230W        W27655   6.266  32.971  14.784
55231W        W27656  19.051   3.872   3.743
55232W        W27657  27.468   5.292   4.141
55233W        W27658  35.348  11.705  11.494
55234W        W27659  29.093  13.593  12.164
55235W        W27660  38.259  10.576  11.090
55236W        W27661  28.628   6.506  14.969
55237W        W27662  11.792   8.157  13.319
55238W        W27663  34.388   1.779   1.545
55239W        W27664  38.187  16.376  13.749
55240W        W27665   3.406   2.873   2.138
55241W        W27666   1.400   3.322  10.994
55242W        W27667  39.743  35.559   4.679
55243W        W27668  13.551  35.451  14.486
55244W        W27669  33.502  38.545   3.133
55245W        W27670   9.272   6.784  11.209
55246W        W27671  38.770  20.566  13.885
55247W        W27672  30.262  43.017  10.489
55248W        W27673   6.652   1.419   4.734
55249W        W27674  43.275   9.770   3.593
55250W        W27675  43.990  10.002   0.827
55251W        W27676  20.870  10.324  10.614
55252W        W27677   4.997   4.767   0.541
55253W        W27678  24.118  25.902  13.900
55254W        W27679   4.130  42.698   2.321
55255W        W27680  31.626  13.230   1.354
55256W        W27681  38.426  19.211  11.213
55257W        W27682  30.891   8.369   0.731
55258W        W27683   7.342   2.736   3.708
55259W        W27684   4.878   9.639  13.946
55260W        W27685  43.364  10.051  14.387
55261W        W27686   1.408  40.484  12.185
55262W        W27687  40.253   8.883  11.128
55263W        W27688  41.859  12.064  14.337
55264W        W27689  27.423  28.198  11.985
55265W        W27690  40.423  32.965   4.695
55266W        W27691  34.430   9.723   2.734
55267W        W27692  28.369  41.889   3.924
55268W        W27693  28.907  43.121  12.155
55269W        W27694  40.153   7.319   4.038
55270W        W27695  23.031  22.637  14.910
55271W        W27696  39.406  38.373  12.941
55272W        W27697  22.594  14.122   3.274
55273W        W27698   7.665  23.199   3.183
55274W        W27699  36.193  22.274  10.786
55275W        W27700   1.500   8.834   4.137
55276W        W27701  34.070  30.019  13.450
55277W        W27702  40.465  36.735   1.876
55278W        W27703  29.414  12.825  10.613
55279W        W27704   9.842   5.624  10.216
55280W        W27705  29.599  44.827   4.598
55281W        W27706   8.962  20.272   0.691
55282W        W27707  14.640  23.075   1.958
55283W        W27708  13.161  16.096   3.767
55284W        W27709  17.798  10.111   0.386
55285W        W27710  22.624  14.814   3.679
55286W        W27711  36.127  10.621   4.181
55287W        W27712  44.762  22.964   2.280
55288W        W27713  34.048   1.126  13.280
55289W        W27714  22.954  10.172   4.584
55290W        W27715  23.275  41.109   0.883
55291W        W27716  12.977  38.295   0.377
55292W        W27717  21.715   8.298  13.025
55293W        W27718  17.437  25.651   9.934
55294W        W27719  33.853  28.177  12.836
55295W        W27720  12.057   3.359   4.605
55296W        W27721  41.636   0.964   4.292
55297W        W27722   3.277  27.082  14.348
55298W        W27723  25.685   5.544   1.514
55299W        W27724  34.987  31.193   1.888
55300W        W27725  22.448  32.511  11.660
55301W        W27726  10.370   0.043   1.539
55302W        W27727  30.520   1.663  13.018
55303W        W27728   5.653  36.486   5.107
55304W        W27729  29.111  23.145   1.311
55305W        W27730  16.155  11.745   4.163
55306W        W27731  22.283  27.360   4.766
55307W        W27732   8.658  25.194  12.964
55308W        W27733   5.925  41.336   1.657
55309W        W27734  44.358  40.233  11.471
55310W        W27735   1.063  40.619  11.074
55311W        W27736  18.147  34.952  13.980
55312W        W27737  39.123  21.599  10.448
55313W        W27738  26.433   6.779   2.577
55314W        W27739  32.467  26.029  11.528
55315W        W27740  18.950  39.014  14.955
55316W        W27741   2.260   2.616   2.676
55317W        W27742  17.210  31.051   4.642
55318W        W27743   3.939  17.133   0.718
55319W        W27744  19.106   5.527   2.276
55320W        W27745  22.054  21.442  13.481
55321W        W27746  26.287  32.502   2.884
55322W        W27747  42.467  37.068   4.536
55323W        W27748  36.533  36.566  13.410
55324W        W27749  31.066   0.439  13.939
55325W        W27750  42.632  33.674   3.116
55326W        W27751  25.657   2.493  14.372
55327W        W27752   1.354   3.529  11.458
55328W        W27753  34.377  30.132  10.994
55329W        W27754  29.148  35.428  12.579
55330W        W27755  19.917  15.007   0.939
55331W        W27756  38.126  43.365  10.515
55332W        W27757   8.271  28.850   4.603
55333W        W27758  37.941  14.572   0.340
55334W        W27759   9.717   5.770   4.038
55335W        W27760  36.775  14.221  10.412
55336W        W27761  12.347  34.006  14.652
55337W        W27762  44.301  25.198  12.722
55338W        W27763   0.511  10.586   0.270
55339W        W27764  18.238   7.789   3.052
55340W        W27765   5.476  18.576  14.999
55341W        W27766   9.554  30.569  12.088
55342W        W27767  37.774  23.296  11.495
55343W        W27768  28.338  23.115   0.829
55344W        W27769   5.782   5.580   2.437
55345W        W27770  12.021  38.018  11.556
55346W        W27771  11.829   6.376   4.093
55347W        W27772  31.847  42.786   4.146
55348W        W27773  20.659  17.593  12.052
55349W        W27774  24.685  20.050   0.678
55350W        W27775  40.517  16.787   0.832
55351W        W27776  22.545  41.021  14.337
55352W        W27777   3.920   7.741   1.334
55353W        W27778  24.514   9.697  13.940
55354W        W27779   7.186  15.030  10.728
55355W        W27780  39.284   5.303   1.290
55356W        W27781  20.411  18.305  14.285
55357W        W27782  31.333  33.471   0.104
55358W        W27783  42.099   3.833  11.529
55359W        W27784   9.747  13.290  14.468
55360W        W27785  43.848  10.403  13.182
55361W        W27786  40.447  25.222   2.716
55362W        W27787  14.873  43.074  10.892
55363W        W27788  30.157  17.648   0.429
55364W        W27789  15.655  17.003  13.532
55365W        W27790  28.403  17.875  11.195
55366W        W27791  28.098  19.494  11.124
55367W        W27792  39.830  41.446   2.408
55368W        W27793  19.351   5.376  11.997
55369W        W27794   2.793  40.719  10.576
55370W        W27795  16.876  12.196  13.433
55371W        W27796  21.254   6.779  14.252
55372W        W27797  39.070  20.630  13.469
55373W        W27798  21.225   3.055   2.597
55374W        W27799  10.606  28.309  12.338
55375W        W27800  37.564  43.261   2.818
55376W        W27801   8.765   9.129   1.228
55377W        W27802  31.097  21.308  11.158
55378W        W27803  44.954  33.608  13.103
55379W        W27804  15.459  19.452  13.496
55380W        W27805  22.019  21.645   3.662
55381W        W27806  14.256  26.429   0.842
55382W        W27807  27.720   9.016   0.992
55383W        W27808  40.304  13.274  12.036
55384W        W27809  38.401  13.423   3.658
55385W        W27810  39.746   6.595  13.403
55386W        W27811  11.286   3.513  10.868
55387W        W27812  41.223  16.553  11.994
55388W        W27813   9.205  23.375  11.672
55389W        W27814  35.532  18.306  11.117
55390W        W27815  30.985  41.597  14.884
55391W        W27816   9.728  33.719  13.403
55392W        W27817  12.540  38.833  12.387
55393W        W27818  18.133  30.637   1.239
55394W        W27819  28.619  16.698  10.554
55395W        W27820  11.232  43.065  12.293
55396W        W27821  39.060  21.485  13.423
55397W        W27822  33.136  24.560  11.165
55398W        W27823  19.552  18.822   4.379
55399W        W27824  35.840  10.713   0.775
55400W        W27825  13.380  10.208  13.892
55401W        W27826  42.925  15.567   4.736
55402W        W27827  40.221  14.718   2.262
55403W        W27828  14.607  33.147  13.496
55404W        W27829   6.867  22.885  10.974
55405W        W27830   5.419  26.728   0.041
55406W        W27831  29.967  14.659  12.084
55407W        W27832  10.384  17.904   3.096
55408W        W27833  39.146  44.807   0.749
55409W        W27834  12.646  27.964   1.296
55410W        W27835   0.393  31.429  11.535
55411W        W27836  31.576  31.355   3.555
55412W        W27837  20.645  27.483  11.449
55413W        W27838  33.429   8.145   3.580
55414W        W27839  20.276  22.050  10.663
55415W        W27840   8.287  21.200   1.218
55416W        W27841  43.274  44.511   1.328
55417W        W27842  35.717  42.926   4.309
55418W        W27843   9.759  22.242  10.928
55419W        W27844  13.255   0.319   4.438
55420W        W27845  26.140   5.906  13.764
55421W        W27846  19.794   8.902   1.266
55422W        W27847   9.721   0.546   2.564
55423W        W27848  43.873  13.295   3.905
55424W        W27849   3.769  11.195  10.732
55425W        W27850  35.871  24.071   4.164
55426W        W27851  16.212  16.863   1.883
55427W        W27852  20.048   6.813  12.372
55428W        W27853   1.090   9.295   2.474
55429W        W27854  27.686  34.093  11.739
55430W        W27855  38.977  18.968  14.499
55431W        W27856  30.166   3.780   4.615
55432W        W27857  19.542   6.277   2.364
55433W        W27858  33.875   3.922   2.024
55434W        W27859  33.405  17.727   0.028
55435W        W27860  27.092  18.591  12.266
55436W        W27861  37.685  16.290  13.120
55437W        W27862  42.411  33.360   2.781
55438W        W27863  32.510   6.266   2.649
55439W        W27864  44.030  10.826   3.259
55440W        W27865  12.657  43.114   3.742
55441W        W27866   6.444  11.585   3.289
55442W        W27867  34.589  34.543  14.735
55443W        W27868  38.929   4.101   1.510
55444W        W27869  10.089  34.892  10.990
55445W        W27870  42.090  24.660  12.588
55446W        W27871  17.077  28.774  11.702
55447W        W27872   4.877  22.022   2.644
55448W        W27873  22.720  39.897   4.269
55449W        W27874  23.594  23.855   1.821
55450W        W27875  20.347  10.696   0.817
55451W        W27876  10.211  23.134   1.323
55452W        W27877  28.831  21.985  11.644
55453W        W27878  10.313  39.846   3.249
55454W        W27879  20.227   1.558   0.014
55455W        W27880  14.654  19.359  10.824
55456W        W27881  42.971   8.324   2.307
55457W        W27882  41.475   7.791   1.021
55458W        W27883  13.675  32.706  14.360
55459W        W27884  38.630  14.867   3.750
55460W        W27885  24.948   3.924  14.038
55461W        W27886  32.602  29.110   3.597
55462W        W27887  31.685  19.214  12.930
55463W        W27888  31.408  42.804   1.363
55464W        W27889  31.633  24.882  10.264
55465W        W27890  38.357   1.714   1.680
55466W        W27891   8.590   1.502   3.872
55467W        W27892  13.720  28.102   5.042
55468W        W27893   1.389  16.420   4.601
55469W        W27894   4.974  33.553   2.290
55470W        W27895  23.651  32.402   0.699
55471W        W27896  16.356   4.717   2.340
55472W        W27897   0.817  13.321  14.937
55473W        W27898  22.284  31.175   1.389
55474W        W27899  13.568  18.341   1.177
55475W        W27900  26.582  29.948   0.738
55476W        W27901   3.752   0.796  14.288
55477W        W27902  16.547   5.285   2.741
55478W        W27903   5.264   6.254   2.228
55479W        W27904   3.185   8.871  13.861
55480W        W27905  23.249  11.458   0.921
55481W        W27906  33.167  44.298   2.804
55482W        W27907  22.134  43.224  13.810
55483W        W27908  33.637  25.183   1.984
55484W        W27909   9.547   6.106   1.073
55485W        W27910  34.920  18.436  10.914
55486W        W27911   0.919   0.429  14.494
55487W        W27912   6.377  15.090  11.143
55488W        W27913  19.141  19.253   2.653
55489W        W27914  27.025   7.445   2.338
55490W        W27915  34.159  40.579  11.566
55491W        W27916  43.851  30.150  14.357
55492W        W27917  34.742   2.220   0.184
55493W        W27918  34.729  20.069  12.346
55494W        W27919  16.284  12.342   2.260
55495W        W27920   2.887  41.823  13.023
55496W        W27921  41.938   3.760   0.818
55497W        W27922  43.235  35.486  10.504
55498W        W27923  11.610   7.235   3.195
55499W        W27924  33.108  38.948  13.577
55500W        W27925   9.274  37.113   4.068
55501W        W27926  41.461  27.435   4.589
55502W        W27927   5.386  34.302  13.482
55503W        W27928  35.376   8.548   1.906
55504W        W27929  32.471  26.532  13.247
55505W        W27930   4.686  21.186  13.012
55506W        W27931  11.195  19.982   3.320
55507W        W27932   8.355  35.097  12.483
55508W        W27933  44.331  23.736   2.710
55509W        W27934  28.582  37.899   4.546
55510W        W27935   8.652  29.476   0.232
55511W        W27936  26.239  28.312   2.225
55512W        W27937  23.265  31.911  11.379
55513W        W27938  14.115   6.199  11.013
55514W        W27939  34.677  25.079   1.437
55515W        W27940  15.858  24.985  13.371
55516W        W27941  31.566   8.489  13.846
55517W        W27942  32.432   1.885  13.125
55518W        W27943  19.629  29.422   1.302
55519W        W27944  30.097  20.715   3.238
55520W        W27945  38.889  27.594   3.686
55521W        W27946  39.886   7.143  13.948
55522W        W27947  25.039  17.887  13.325
55523W        W27948  13.712  27.545  12.172
55524W        W27949  39.292   0.000   2.498
55525W        W27950  20.416  17.230   0.861
55526W        W27951  42.627  15.052   4.101
55527W        W27952  12.202   8.271  11.273
55528W        W27953  18.611  24.269   0.774
55529W        W27954  42.616   5.794   3.242
55530W        W27955  21.846  23.058   4.652
55531W        W27956  16.179  18.292  12.947
55532W        W27957  36.455  39.115  12.070
55533W        W27958  10.386  17.821   0.930
55534W        W27959  16.604  42.793  13.816
55535W        W27960  35.491  24.240  11.105
55536W        W27961  30.501  24.090  13.302
55537W        W27962   8.818  43.247   3.170
55538W        W27963  11.166   9.703   4.278
55539W        W27964  17.053  10.748   3.628
55540W        W27965  38.811  28.423  10.736
55541W        W27966  24.906  23.505   2.421
55542W        W27967  25.529  27.200   0.305
55543W        W27968  44.694  17.782  13.100
55544W        W27969   0.351  39.071  12.865
55545W        W27970  30.617  31.693   1.861
55546W        W27971   3.211   9.323  10.614
55547W        W27972  26.724   5.508  11.287
55548W        W27973  27.036  39.493   0.286
55549W        W27974  29.491   0.904  12.416
55550W        W27975  39.766  44.339   4.818
55551W        W27976  26.514  20.157  14.230
55552W        W27977  36.473  41.900  12.675
55553W        W27978  30.753  37.114  12.576
55554W        W27979  33.468  44.498   0.574
55555W        W27980  40.466  30.634   2.678
55556W        W27981  34.027  15.187   4.493
55557W        W27982   8.764  24.288  12.552
55558W        W27983  21.746  10.833   2.639
55559W        W27984  28.185  11.427   1.008
55560W        W27985  35.053   1.737   3.745
55561W        W27986  10.784  11.820   1.500
55562W        W27987  12.692  22.811  10.967
55563W        W27988   0.804   1.406   4.034
55564W        W27989  27.689   1.246   3.680
55565W        W27990  37.501  26.135  13.172
55566W        W27991  14.292  24.802   0.063
55567W        W27992  15.055  21.088  14.458
55568W        W27993   5.187  33.216   0.518
55569W        W27994  33.235   9.395  11.590
55570W        W27995  13.722  22.941   4.910
55571W        W27996  23.556  36.114   0.357
55572W        W27997   8.897  42.468   0.448
55573W        W27998   7.476  39.884  14.813
55574W        W27999   6.136  28.381  12.467
55575W        W28000  18.772   9.791  11.376
55576W        W28001  38.444   5.303  14.485
55577W        W28002  35.590  11.248  11.998
55578W        W28003  12.870  28.840  13.954
55579W        W28004  12.004  24.987  13.301
55580W        W28005  42.785  12.784   0.758
55581W        W28006  20.028   4.637  12.575
55582W        W28007  28.557  21.756  12.013
55583W        W28008   2.963   8.358  13.810
55584W        W28009  27.111  17.667   3.893
55585W        W28010   1.621  10.989   2.648
55586W        W28011  13.259  32.155  11.573
55587W        W28012  24.013  38.611   3.782
55588W        W28013  19.026  43.060   2.700
55589W        W28014  40.555  18.054   2.709
55590W        W28015  12.518  41.597   0.397
55591W        W28016  15.733  14.310  11.881
55592W        W28017  41.381  19.467  11.239
55593W        W28018  26.554  15.359   2.441
55594W        W28019  31.112  33.885   0.819
55595W        W28020  29.139  36.080   1.877
55596W        W28021  11.719  22.981   1.338
55597W        W28022  21.437  27.073  11.967
55598W        W28023  30.274  28.439   0.299
55599W        W28024  29.080   1.152  14.984
55600W        W28025  15.203  11.350   2.645
55601W        W28026  43.594  44.418  11.595
55602W        W28027  16.047   0.342  11.994
55603W        W28028  29.233  29.522   3.255
55604W        W28029  21.382  16.367   1.874
55605W        W28030  12.760  33.779  14.441
55606W        W28031   3.859  29.044   0.780
55607W        W28032  15.848  19.738   3.701
55608W        W28033  33.087  33.363  11.083
55609W        W28034  24.706   0.953  13.853
55610W        W28035  42.661  24.572  10.930
55611W        W28036  24.847   8.435  14.512
55612W        W28037  20.306  14.542   3.253
55613W        W28038  43.844  19.724  14.810
55614W        W28039  10.389  11.363  11.152
55615W        W28040  42.384   2.938   1.985
55616W        W28041   6.928  17.703  14.318
55617W        W28042  31.849  14.642  13.969
55618W        W28043  17.305   4.545   1.304
55619W        W28044  17.802  31.163  13.981
55620W        W28045   9.217   9.634   4.311
55621W        W28046  12.598  38.950   2.180
55622W        W28047  23.656  32.553   4.334
55623W        W28048   9.854  22.828  11.479
55624W        W28049  38.949  18.098  11.031
55625W        W28050  37.051  40.729  10.655
55626W        W28051  24.875  40.010   2.522
55627W        W28052   0.513  44.288   3.307
55628W        W28053  37.493  10.883  13.014
55629W        W28054  18.525  27.387   3.199
55630W        W28055  23.013  25.139  14.530
55631W        W28056   2.137   0.618   2.303
55632W        W28057  28.436  26.831  12.505
55633W        W28058  39.048  36.570   1.293
55634W        W28059  14.113  43.444  11.203
55635W        W28060  28.538  29.160  14.907
55636W        W28061  25.773  37.812   3.670
55637W        W28062  17.823  12.323   0.988
55638W        W28063  16.285   2.445   0.915
55639W        W28064   3.441  29.073   3.618
55640W        W28065  20.856  21.771   1.414
55641W        W28066  38.597  10.166  11.018
55642W        W28067  34.018   7.388   4.415
55643W        W28068  32.595  30.179   0.265
55644W        W28069  23.623  43.199  12.572
55645W        W28070  13.007   2.311  12.428
55646W        W28071  17.490  37.200  10.959
55647W        W28072  33.614  34.893   2.240
55648W        W28073  24.578  16.006   0.302
55649W        W28074  23.332  23.102   4.964
55650W        W28075  14.211  22.775   4.643
55651W        W28076   7.119   3.785   2.741
55652W        W28077  30.032   7.284   3.880
55653W        W28078   8.276  26.434  11.516
55654W        W28079  38.387  14.689   0.712
55655W        W28080  33.372  26.640  11.181
55656W        W28081  25.483   9.489   2.629
55657W        W28082  20.772  11.106  11.080
55658W        W28083  18.254  26.155   3.223
55659W        W28084  38.437  31.847   3.291
55660W        W28085  39.380  44.349  11.714
55661W        W28086  20.552  10.156  14.762
55662W        W28087  44.925   7.870  11.111
55663W        W28088   0.701   7.433  12.114
55664W        W28089  40.375  29.484  14.731
55665W        W28090   2.047  19.721  10.950
55666W        W28091  33.335  40.435  12.083
55667W        W28092  20.555  38.323   1.138
55668W        W28093  29.606  40.841  13.260
55669W        W28094   0.428   4.381   3.470
55670W        W28095  32.898  44.232  12.941
55671W        W28096   9.973  18.137   3.395
55672W        W28097   5.298  16.382   1.810
55673W        W28098  28.667  43.521  11.039
55674W        W28099  28.668  20.350  12.481
55675W        W28100  17.831  44.186  13.626
55676W        W28101   3.727  41.801   0.883
55677W        W28102  44.890  38.350  12.923
55678W        W28103  15.678  12.624  13.082
55679W        W28104  12.425   6.811  13.102
55680W        W28105  26.838  44.243   4.444
55681W        W28106  23.973  34.477   0.530
55682W        W28107   4.484  21.555  14.516
55683W        W28108  19.752  14.900   3.751
55684W        W28109  16.814  23.076   4.042
55685W        W28110  24.197  21.011  11.024
55686W        W28111  26.499  28.153   3.582
55687W        W28112  38.420  39.305  14.691
55688W        W28113  24.119  18.770   1.146
55689W        W28114  25.700   0.971   0.932
55690W        W28115  32.890   9.839   1.669
55691W        W28116  24.222  11.516   5.215
55692W        W28117  20.130   7.978  14.973
55693W        W28118  34.923  30.858   1.383
55694W        W28119   1.028  26.232  14.031
55695W        W28120  19.303  21.596  14.884
55696W        W28121  12.111   3.930   4.914
55697W        W28122   5.747  12.222   2.926
55698W        W28123  40.841  40.454  10.741
55699W        W28124  16.719   4.263   2.725
55700W        W28125  36.765  29.895  12.911
55701W        W28126  14.165  20.710  14.003
55702W        W28127  35.890  10.384   1.659
55703W        W28128   5.998  24.613  11.151
55704W        W28129  13.591  18.537  12.994
55705W        W28130  17.976  24.815   4.541
55706W        W28131   6.755  41.286   2.964
55707W        W28132  18.976  34.498  14.726
55708W        W28133  18.007  25.137  12.919
55709W        W28134   7.724  27.979   4.539
55710W        W28135  43.380  24.457  13.732
55711W        W28136  33.917  26.556  12.830
55712W        W28137  32.954  39.873  11.961
55713W        W28138  33.514   6.313  10.640
55714W        W28139  24.037  23.987   1.483
55715W        W28140  34.421  10.765   2.666
55716W        W28141  25.417  24.193   1.841
55717W        W28142  19.474  14.745   0.857
55718W        W28143  12.815  36.023   3.274
55719W        W28144  27.412   8.193   2.928
55720W        W28145   2.218  40.891  12.160
55721W        W28146  31.391   5.412   1.792
55722W        W28147  14.865  33.007   1.869
55723W        W28148  29.440  25.167  14.715
55724W        W28149  13.285  11.339   0.710
55725W        W28150  16.276  37.026   1.903
55726W        W28151  24.208  28.029   3.300
55727W        W28152  13.937  18.895  14.770
55728W        W28153  17.654   8.575  10.429
55729W        W28154   7.123  40.504  11.356
55730W        W28155  34.142  43.360  12.867
55731W        W28156   8.206  17.638   4.534
55732W        W28157  33.105  44.874  11.162
55733W        W28158  10.194   7.951   1.806
55734W        W28159  38.096  37.483  13.870
55735W        W28160  42.881   6.604   0.438
55736W        W28161  19.792  34.143   2.733
55737W        W28162   2.197   0.350  14.598
55738W        W28163  29.856  38.520   1.817
55739W        W28164  18.867  44.414   2.329
55740W        W28165  20.887   4.656   4.983
55741W        W28166  34.983  30.374  14.523
55742W        W28167  13.906  27.918   2.411
55743W        W28168   5.745   4.036   2.380
55744W        W28169  24.600  29.957  13.459
55745W        W28170  34.385  11.309  12.743
55746W        W28171   2.336  34.560   2.401
55747W        W28172  43.892  16.802  13.895
55748W        W28173  18.031  19.736   3.294
55749W        W28174  38.498  25.633  13.730
55750W        W28175   9.377   9.330   2.122
55751W        W28176  43.295  35.601   4.056
55752W        W28177   7.804  42.444  14.120
55753W        W28178  16.418  35.846   4.076
55754W        W28179   9.908  32.561  11.042
55755W        W28180   1.728  11.741   1.424
55756W        W28181  29.971  13.311  11.559
55757W        W28182  17.400  32.178  13.296
55758W        W28183  16.167  33.084  12.861
55759W        W28184  20.174  16.045  13.788
55760W        W28185  23.743  34.065  14.393
55761W        W28186  29.110  14.782  13.332
55762W        W28187  21.587   1.435  12.276
55763W        W28188  29.729  29.525  14.411
55764W        W28189   5.399   3.981  11.133
55765W        W28190  16.990  18.485  12.526
55766W        W28191   6.355   6.619   3.820
55767W        W28192  36.641  35.814   2.410
55768W        W28193   4.254  23.230  12.883
55769W        W28194  38.454  17.231   3.418
55770W        W28195  15.218  36.700   0.795
55771W        W28196  40.972  27.781   0.740
55772W        W28197   1.344  11.084   0.725
55773W        W28198  34.983  11.808   4.599
55774W        W28199  35.990   9.933  13.677
55775W        W28200  29.941   3.749  11.179
55776W        W28201  39.009   2.536   2.815
55777W        W28202  39.883  10.144  13.891
55778W        W28203  36.327  43.622   0.391
55779W        W28204  42.020  22.656  13.995
55780W        W28205  44.299   1.421  11.210
55781W        W28206  25.987   2.381   3.561
55782W        W28207  31.309  28.679   1.769
55783W        W28208  39.804  23.937   3.146
55784W        W28209  37.344   7.661   2.474
55785W        W28210  22.590  26.215   2.795
55786W        W28211   7.813   3.328   4.094
55787W        W28212  15.978   4.903  13.098
55788W        W28213  28.952  11.644   2.418
55789W        W28214  40.102  12.605  14.870
55790W        W28215  28.385  41.963  12.467
55791W        W28216   5.587  25.002  13.409
55792W        W28217   0.882  27.687   4.162
55793W        W28218  13.248  32.521   1.656
55794W        W28219  38.912  36.721  11.238
55795W        W28220  30.892   8.556  12.575
55796W        W28221  36.396  37.651  13.820
55797W        W28222  18.707   9.811   1.297
55798W        W28223  37.605  19.512   2.473
55799W        W28224  43.531   5.423   2.617
55800W        W28225  14.703  35.960  11.574
55801W        W28226  25.266   5.793  10.662
55802W        W28227  41.002  20.615   4.443
55803W        W28228  43.803  18.280   3.289
55804W        W28229  10.324  29.738  11.254
55805W        W28230   2.878   5.171  12.412
55806W        W28231  28.197  29.714   0.334
55807W        W28232  22.979  39.970   2.425
55808W        W28233  28.209  35.194   3.691
55809W        W28234  43.931  10.341  12.673
55810W        W28235  18.679  21.079  10.914
55811W        W28236  24.721  44.466  10.468
55812W        W28237   8.837  14.857  11.948
55813W        W28238   9.683  14.632   3.225
55814W        W28239   8.887  43.319  14.360
55815W        W28240  36.161  26.547   1.453
55816W        W28241  22.484  43.851   0.514
55817W        W28242   1.495  10.713   4.077
55818W        W28243  12.349  22.304   1.459
55819W        W28244  40.788  34.268   3.570
55820W        W28245  44.259  39.783   4.497
55821W        W28246  11.837  13.799   3.873
55822W        W28247  20.486  34.890   1.205
55823W        W28248  33.812  40.064  14.437
55824W        W28249  19.620  16.734   0.807
55825W        W28250   2.321  24.250  14.896
55826W        W28251  32.840  21.801  12.293
55827W        W28252  28.974  13.853   3.662
55828W        W28253   5.664  29.259  14.984
55829W        W28254  13.540   7.819   0.630
55830W        W28255  28.238  44.252  14.294
55831W        W28256  12.909  25.740  13.244
55832W        W28257  35.100  33.145   3.239
55833W        W28258  23.015  42.812   2.249
55834W        W28259  23.125  32.366   1.317
55835W        W28260   9.758  29.207   1.894
55836W        W28261  36.917   6.184   1.748
55837W        W28262  29.469  22.424   4.551
55838W        W28263   7.895   5.815  12.429
55839W        W28264  34.099  15.680  12.089
55840W        W28265  28.121  19.306  13.145
55841W        W28266   7.153  32.683   0.684
55842W        W28267  22.121  42.209  12.082
55843W        W28268  22.213  29.339  12.440
55844W        W28269  25.762  29.414   2.547
55845W        W28270  40.788  36.681  12.886
55846W        W28271  20.620  35.984   0.982
55847W        W28272   2.681  34.860   0.794
55848W        W28273  24.431   0.776   4.534
55849W        W28274  11.496  25.532   0.895
55850W        W28275  26.543  15.535  11.692
55851W        W28276  10.648  34.117   4.652
55852W        W28277   0.477  44.724   2.539
55853W        W28278   6.887  34.426  12.164
55854W        W28279  27.721  11.193   0.871
55855W        W28280  17.838  23.533   2.745
55856W        W28281  31.996   0.778   4.572
55857W        W28282  39.096  17.508   3.975
55858W        W28283  26.111   3.282  14.222
55859W        W28284  21.036  23.089   0.944
55860W        W28285  33.346  38.371   4.652
55861W        W28286  32.134  27.572   2.754
55862W        W28287  24.203   3.474  10.000
55863W        W28288  41.807  41.931  13.995
55864W        W28289   1.475  30.633   3.812
55865W        W28290  19.707  29.959  13.373
55866W        W28291  32.342   9.278   0.831
55867W        W28292  27.578   7.207  12.096
55868W        W28293  20.597  32.543   3.215
55869W        W28294  43.801  19.076  11.145
55870W        W28295  30.212  14.284  13.358
55871W        W28296   3.228  39.151   0.208
55872W        W28297  27.543  25.797  10.586
55873W        W28298  41.236  20.176  12.898
55874W        W28299  24.086  32.204  11.990
55875W        W28300  29.862   0.877   2.101
55876W        W28301  39.546  21.107  11.960
55877W        W28302  26.829  28.565  13.436
55878W        W28303  33.009   4.944   1.274
55879W        W28304  30.494  27.005  14.704
55880W        W28305  35.811   4.858   0.308
55881W        W28306  23.027  18.318  12.474
55882W        W28307   2.572   1.131  11.838
55883W        W28308  24.520  33.619   1.315
55884W        W28309  33.311  29.985   1.315
55885W        W28310  40.994  13.769  10.777
55886W        W28311  35.659   1.853   1.755
55887W        W28312  24.413  41.444   4.528
55888W        W28313  15.762  38.102  10.410
55889W        W28314  13.005  18.048  13.512
55890W        W28315  12.779  42.481   4.378
55891W        W28316  32.490  15.878   3.506
55892W        W28317  42.689  42.264  11.604
55893W        W28318  43.052   0.944  12.449
55894W        W28319  23.561   5.825   3.592
55895W        W28320  25.014  39.993  13.350
55896W        W28321  41.315  43.469   2.426
55897W        W28322  33.170  34.926  13.230
55898W        W28323  14.684  23.514   0.861
55899W        W28324  31.774  27.166   2.757
55900W        W28325  30.995  10.352  12.377
55901W        W28326  22.219  22.453   2.364
55902W        W28327  17.288  23.745  10.709
55903W        W28328  20.830  15.994   0.826
55904W        W28329   7.111   5.900   3.936
55905W        W28330  24.071   9.168   0.855
55906W        W28331   9.044  24.123  11.154
55907W        W28332   5.903  30.566   1.815
55908W        W28333  13.437   5.899   1.981
55909W        W28334  42.664   9.289  13.307
55910W        W28335  24.052   6.618   4.277
55911W        W28336   6.934   4.465  12.474
55912W        W28337   1.640  27.812  14.201
55913W        W28338  32.561  42.030   3.171
55914W        W28339  28.631  25.476  12.592
55915W        W28340  20.639   3.793   0.833
55916W        W28341  16.672  31.534   1.584
55917W        W28342   0.740  23.430   4.788
55918W        W28343  16.353  28.577  13.429
55919W        W28344  36.957  30.022   3.213
55920W        W28345  25.263  35.615  11.971
55921W        W28346  21.077  37.929   3.232
55922W        W28347  40.324  20.225   0.878
55923W        W28348  44.692  20.574   1.032
55924W        W28349  10.207  18.880  12.032
55925W        W28350  36.485  44.791   1.842
55926W        W28351  28.088  20.647  14.403
55927W        W28352  10.838  24.573  14.082
55928W        W28353  11.003   9.211  14.515
55929W        W28354  24.213  20.963   3.641
55930W        W28355   7.858  11.244  13.462
55931W        W28356   4.011  42.594  10.314
55932W        W28357  18.523  26.589   3.106
55933W        W28358  11.673   8.449  14.742
55934W        W28359  11.574  42.891  10.808
55935W        W28360  29.373  35.559   2.721
55936W        W28361   3.363  36.645  13.991
55937W        W28362   2.862  40.334   2.234
55938W        W28363  16.202  18.810   4.233
55939W        W28364   6.828  30.509   4.063
55940W        W28365  38.964  33.588   1.332
55941W        W28366  42.553  28.583  12.927
55942W        W28367   7.429  34.627  10.987
55943W        W28368  35.533  10.393  12.484
55944W        W28369   9.471   1.684   1.562
55945W        W28370  42.814  40.019  11.556
55946W        W28371  35.544   1.474   3.703
55947W        W28372  39.118  39.015   4.134
55948W        W28373  31.720  11.355   3.071
55949W        W28374  16.222  43.658  11.199
55950W        W28375  40.959  42.862  14.728
55951W        W28376  37.457  23.426   2.457
55952W        W28377   6.309  25.294   4.102
55953W        W28378  43.736  13.682   0.719
55954W        W28379  25.560  26.942  12.462
55955W        W28380   7.291  43.879  14.474
55956W        W28381  33.450  27.012   3.288
55957W        W28382  39.024  24.141   2.849
55958W        W28383  18.671  21.825   1.248
55959W        W28384  12.767  36.894  12.757
55960W        W28385  13.673   7.673   3.738
55961W        W28386  13.974   5.281   0.773
55962W        W28387  30.036   6.595  13.562
55963W        W28388   7.769  15.400   4.117
55964W        W28389  37.763  32.744  13.659
55965W        W28390   5.022  22.756  14.210
55966W        W28391  24.550  35.270  10.739
55967W        W28392  12.650  28.198  11.548
55968W        W28393  36.952  44.062   1.845
55969W        W28394  25.005  18.735   2.189
55970W        W28395  35.912  30.438  11.518
55971W        W28396  17.797   7.275   4.276
55972W        W28397  29.559   2.170   4.808
55973W        W28398   7.345   6.963  13.808
55974W        W28399  28.108  23.078  14.629
55975W        W28400  23.717  30.348  14.416
55976W        W28401  38.506  13.212   2.637
55977W        W28402  17.062  28.104  13.561
55978W        W28403   0.618  14.922  11.409
55979W        W28404  30.452  43.019  11.700
55980W        W28405   4.972  15.298   5.038
55981W        W28406   5.160  21.081  13.610
55982W        W28407  39.072   9.596  12.190
55983W        W28408  15.340  14.447  11.289
55984W        W28409  22.661  29.147  14.012
55985W        W28410  28.833  26.101   3.625
55986W        W28411  22.222  11.355   5.022
55987W        W28412   4.457   8.879  10.903
55988W        W28413  16.187   8.376  12.439
55989W        W28414   2.822  31.034   2.854
55990W        W28415   0.840   8.335  13.842
55991W        W28416  10.709  15.656  10.227
55992W        W28417  40.063  43.234  13.418
55993W        W28418  36.562  17.808   4.137
55994W        W28419  42.864  29.440  14.598
55995W        W28420  40.940  17.856  14.511
55996W        W28421  33.969  17.047  10.396
55997W        W28422  35.802   2.353   1.900
55998W        W28423  23.953  32.003   2.658
55999W        W28424  36.655   5.701   3.988
56000W        W28425  34.952  18.657   3.747
56001W        W28426  12.195  31.196   2.177
56002W        W28427  43.261   7.119  13.038
56003W        W28428   0.729  23.156  11.639
56004W        W28429   4.995   4.030   1.027
56005W        W28430   2.870   9.213   1.472
56006W        W28431  24.803  27.003  13.248
56007W        W28432  26.701   9.141  11.643
56008W        W28433  19.087  40.824  13.303
56009W        W28434  38.494   0.289   0.661
56010W        W28435   9.908  19.180   3.627
56011W        W28436  14.674  31.402   2.735
56012W        W28437  43.474  32.437  14.785
56013W        W28438  31.636  37.346  14.386
56014W        W28439  21.876  41.929   4.276
56015W        W28440  24.282   4.875  14.977
56016W        W28441  33.447   3.283   4.639
56017W        W28442   9.993  22.569  12.461
56018W        W28443   6.434  43.568   2.345
56019W        W28444  15.564  37.342  11.146
56020W        W28445  38.582  33.469  13.096
56021W        W28446  19.523  30.172  12.001
56022W        W28447  31.430   8.947   1.409
56023W        W28448  15.546  17.331  12.566
56024W        W28449  39.443  14.295   1.385
56025W        W28450   2.327  40.205   4.886
56026W        W28451  27.943  28.526   2.799
56027W        W28452   6.095   1.154   0.320
56028W        W28453   4.622  17.527  10.898
56029W        W28454  15.629  21.125   2.424
56030W        W28455   0.361  30.560   0.315
56031W        W28456   9.530  37.178  14.898
56032W        W28457  34.099  31.025   4.124
56033W        W28458  28.745  13.296   2.306
56034W        W28459   8.537  29.508  12.020
56035W        W28460  12.196  11.121  10.736
56036W        W28461   8.695  26.069   3.328
56037W        W28462  11.286  29.478   1.372
56038W        W28463  21.004  12.091   0.602
56039W        W28464  14.131   1.934  11.915
56040W        W28465  21.976   6.214  14.798
56041W        W28466  24.511  20.629  12.340
56042W        W28467   6.816   3.971  14.052
56043W        W28468  12.061  14.705  14.882
56044W        W28469   0.849  18.267   4.605
56045W        W28470  10.831  23.751  11.049
56046W        W28471  10.627  32.396  10.414
56047W        W28472   6.562  11.808   9.883
56048W        W28473   8.685  25.299  10.913
56049W        W28474  24.658  13.386   4.663
56050W        W28475  26.723  11.804   1.081
56051W        W28476  10.982  31.157  12.235
56052W        W28477   0.311   6.682  13.316
56053W        W28478  17.811  32.118   4.212
56054W        W28479  36.822  20.205  13.962
56055W        W28480  12.624  33.379  13.452
56056W        W28481  25.007  26.579  13.503
56057W        W28482   5.836   4.449   4.108
56058W        W28483  38.871   2.325  13.480
56059W        W28484  34.726  26.699   1.036
56060W        W28485  31.873  27.259  14.054
56061W        W28486   8.578  30.622  12.309
56062W        W28487  39.077   0.454  13.920
56063W        W28488   0.787  11.391  12.007
56064W        W28489  30.588  43.919   3.559
56065W        W28490   4.485  37.968  12.119
56066W        W28491   4.742  19.085  13.606
56067W        W28492  17.240  12.130  10.700
56068W        W28493  11.173   4.879  12.067
56069W        W28494  42.873  38.145   4.164
56070W        W28495  24.263  34.781  11.058
56071W        W28496   4.336  34.621   4.083
56072W        W28497  10.942  17.677   1.811
56073W        W28498   9.214  30.327  11.128
56074W        W28499  35.210  28.484   1.830
56075W        W28500   8.445  42.515  11.952
56076W        W28501  39.943  29.367   0.747
56077W        W28502  40.294   2.567   4.164
56078W        W28503  20.043  32.892  13.863
56079W        W28504   3.627  42.122  13.614
56080W        W28505  14.436  33.200  14.932
56081W        W28506   2.148  24.124   1.874
56082W        W28507  35.759  29.953  11.645
56083W        W28508   7.879   9.666   2.289
56084W        W28509   8.411  15.724  11.630
56085W        W28510  31.833  39.739   3.223
56086W        W28511   4.314  40.564   3.408
56087W        W28512  11.393   0.233   2.219
56088W        W28513   1.003  17.618   3.260
56089W        W28514   8.188  18.803   3.756
56090W        W28515  14.554  31.145   0.679
56091W        W28516   9.863  25.661   3.618
56092W        W28517  30.800   1.758   2.207
56093W        W28518  41.591   3.900   1.421
56094W        W28519  35.010  22.126   1.769
56095W        W28520   6.929   3.251   4.236
56096W        W28521  37.941  35.533   0.880
56097W        W28522   4.889  13.833   2.495
56098W        W28523   6.968  44.396  13.313
56099W        W28524  17.169  44.390   0.426
56100W        W28525  16.110  39.938   0.068
56101W        W28526  15.011  40.914  11.795
56102W        W28527  39.349  42.961  12.830
56103W        W28528  37.008  34.545  10.754
56104W        W28529   6.269  32.291   2.881
56105W        W28530   4.315  21.086  14.716
56106W        W28531  35.374  43.182  13.778
56107W        W28532  34.926  17.014  12.522
56108W        W28533  44.504  19.344   4.229
56109W        W28534  33.000  39.754   3.239
56110W        W28535   6.665  26.122  14.548
56111W        W28536  27.425  22.446  12.603
56112W        W28537  26.585  10.815   0.703
56113W        W28538   8.842   9.858  12.102
56114W        W28539   0.005   9.184   4.127
56115W        W28540  11.186   9.356   0.978
56116W        W28541  39.485  34.475  13.937
56117W        W28542  21.930  35.748  14.009
56118W        W28543  25.855  11.652   4.629
56119W        W28544  17.582   6.440  14.285
56120W        W28545  40.472   1.926   1.479
56121W        W28546  39.839  20.111  11.649
56122W        W28547  27.199  14.264  10.528
56123W        W28548   7.246   1.368  12.878
56124W        W28549  11.186  17.733   2.271
56125W        W28550  34.419   4.651  14.516
56126W        W28551  16.328  17.782  12.913
56127W        W28552  24.724   8.236   3.803
56128W        W28553  28.035  31.428   2.516
56129W        W28554   8.775  15.987   3.537
56130W        W28555  23.254  32.155   3.693
56131W        W28556  29.168   3.196   2.287
56132W        W28557  14.516   8.371  11.155
56133W        W28558   1.473   8.096  13.072
56134W        W28559  20.170  37.860  12.501
56135W        W28560  44.980  34.590  14.235
56136W        W28561  28.634  20.186  10.740
56137W        W28562  37.472  25.531   4.446
56138W        W28563  11.988  25.046   4.483
56139W        W28564  31.915  18.300  10.625
56140W        W28565  20.842  40.033  11.468
56141W        W28566  15.334  13.777   1.853
56142W        W28567  11.836  21.247  10.753
56143W        W28568  23.751   6.227   4.840
56144W        W28569   1.241   8.802   2.473
56145W        W28570   0.556  25.453   3.943
56146W        W28571  32.388   3.303   4.728
56147W        W28572   3.781  12.070   1.149
56148W        W28573  39.224  15.238   3.109
56149W        W28574  30.577  38.776   4.284
56150W        W28575  37.959  28.529   0.836
56151W        W28576   7.673  37.347   2.842
56152W        W28577  13.694  33.226  14.393
56153W        W28578  30.358   4.466   0.843
56154W        W28579  25.737  13.227   4.778
56155W        W28580  37.761  24.536   4.729
56156W        W28581  31.915  10.347   0.777
56157W        W28582  32.008  39.227   3.204
56158W        W28583  32.943  32.388  11.997
56159W        W28584  31.518  20.598  10.827
56160W        W28585  30.509  33.116  13.453
56161W        W28586  39.890   4.884   0.556
56162W        W28587  31.174  23.617   3.159
56163W        W28588   4.257  12.488   4.412
56164W        W28589  19.309  43.348   3.790
56165W        W28590  34.457  19.318  13.509
56166W        W28591  29.247  42.865  14.941
56167W        W28592  23.702  16.862   2.453
56168W        W28593  19.044  27.630  11.922
56169W        W28594  12.300  26.292  13.488
56170W        W28595   2.893  13.123  13.859
56171W        W28596  24.261  31.052  10.601
56172W        W28597   6.403  29.128   2.267
56173W        W28598  28.126  43.217  12.786
56174W        W28599  44.350  30.397   3.563
56175W        W28600  35.810  21.164  14.368
56176W        W28601   2.959  17.230   2.832
56177W        W28602  36.123  24.384  10.645
56178W        W28603   2.331  29.942  13.145
56179W        W28604  27.543  44.497   3.132
56180W        W28605   5.223   9.659   3.325
56181W        W28606  14.790  19.845   0.866
56182W        W28607   9.582   4.852  11.219
56183W        W28608  33.163  23.664  11.043
56184W        W28609  11.110  35.780   3.323
56185W        W28610   5.628  36.625   4.618
56186W        W28611  24.651  11.842  12.639
56187W        W28612  44.471  34.143   4.126
56188W        W28613  35.036  22.918  14.637
56189W        W28614   4.248  41.955  12.932
56190W        W28615  23.627  16.725   1.510
56191W        W28616   3.021  24.567   0.483
56192W        W28617  22.723  16.660   4.631
56193W        W28618  37.112  41.015  13.833
56194W        W28619  39.742  17.547   1.666
56195W        W28620  42.875  33.363  13.794
56196W        W28621   5.238  34.124   0.312
56197W        W28622  18.450  16.115   1.015
56198W        W28623   2.302   8.715  12.891
56199W        W28624   3.535  42.834   2.239
56200W        W28625  33.469  15.141  13.875
56201W        W28626  22.880   2.206  12.561
56202W        W28627  44.357  23.263  12.840
56203W        W28628  39.771  30.207  13.683
56204W        W28629   8.797  42.996  14.806
56205W        W28630  18.665   6.144  10.409
56206W        W28631  24.432  11.801  10.739
56207W        W28632   5.005  22.141   4.722
56208W        W28633   3.074  34.169  11.214
56209W        W28634   5.260   5.796   3.002
56210W        W28635   0.925  32.701   4.688
56211W        W28636   0.822   3.542  13.555
56212W        W28637  32.933  20.277   0.651
56213W        W28638  27.603  40.001  11.359
56214W        W28639   3.418  39.585  13.786
56215W        W28640  12.679  23.523  13.555
56216W        W28641   5.151  23.095   1.403
56217W        W28642   9.759  29.380  10.639
56218W        W28643  38.528   6.582   3.819
56219W        W28644  34.188   3.119   2.224
56220W        W28645  17.215   2.721  14.986
56221W        W28646   3.367  23.541  14.794
56222W        W28647  34.470  27.400  14.850
56223W        W28648  19.212   5.909   0.250
56224W        W28649  28.486  18.145  10.751
56225W        W28650  17.190  18.281  14.367
56226W        W28651   6.208  19.761  12.727
56227W        W28652  10.329   9.865   0.945
56228W        W28653  30.245  20.754   4.478
56229W        W28654  26.535  26.398   0.249
56230W        W28655  43.062  27.561   3.321
56231W        W28656  24.280  28.772   1.447
56232W        W28657  28.891  33.245   4.144
56233W        W28658  17.998   5.133  14.253
56234W        W28659  40.528  35.071   1.139
56235W        W28660  31.060   5.364  11.016
56236W        W28661  23.538  12.774  11.106
56237W        W28662   5.223  14.621   0.888
56238W        W28663  31.359   8.429  13.368
56239W        W28664  20.987  15.019   3.962
56240W        W28665   3.445  16.246   1.847
56241W        W28666  15.861  26.976  14.999
56242W        W28667  10.644   9.260  12.787
56243W        W28668  22.205  24.205   1.266
56244W        W28669   6.243  37.476   4.726
56245W        W28670  13.347   1.028   4.742
56246W        W28671  20.158  33.949   3.700
56247W        W28672  26.925  29.083  11.926
56248W        W28673  21.553  44.998  11.628
56249W        W28674  11.649  22.772   3.291
56250W        W28675  31.863  23.566   1.740
56251W        W28676  25.716  42.322   3.123
56252W        W28677  38.370  40.344  12.962
56253W        W28678  38.550  44.291   3.071
56254W        W28679  29.959  17.418   1.643
56255W        W28680  13.427   7.238  10.329
56256W        W28681   0.969  21.561  10.736
56257W        W28682  12.581  29.618  10.594
56258W        W28683  25.067  28.844   1.784
56259W        W28684   1.463  16.959   1.950
56260W        W28685   8.946   0.768  11.746
56261W        W28686  15.325  13.901  13.223
56262W        W28687  20.476   4.879  12.525
56263W        W28688   3.509  11.477  13.433
56264W        W28689   1.848  40.921   4.424
56265W        W28690  44.836   1.569   4.261
56266W        W28691   6.318  38.862  10.183
56267W        W28692   9.713  21.224   3.110
56268W        W28693  35.113  31.386  13.820
56269W        W28694  22.435   8.001  11.512
56270W        W28695  12.658  15.270  12.890
56271W        W28696  39.389   6.975  11.081
56272W        W28697   2.650  20.250  13.473
56273W        W28698   5.190  15.748  10.292
56274W        W28699  42.884  21.543   0.841
56275W        W28700  33.127  14.349   0.356
56276W        W28701  11.749  40.600  12.841
56277W        W28702  43.340   6.380   1.198
56278W        W28703   4.916   3.360  12.909
56279W        W28704  11.925  26.123   3.083
56280W        W28705   6.380   9.711   2.393
56281W        W28706   3.951   2.221   3.289
56282W        W28707  14.653  21.583   4.629
56283W        W28708  12.394   6.104  12.368
56284W        W28709   7.607   0.365  12.512
56285W        W28710  30.564  35.430  14.343
56286W        W28711  24.592  10.962  12.853
56287W        W28712  20.485  36.299  14.890
56288W        W28713   0.342  20.738  14.227
56289W        W28714  36.165  36.738   3.933
56290W        W28715   6.432  41.873  11.100
56291W        W28716  24.120  11.271   1.962
56292W        W28717  23.711  20.303  12.121
56293W        W28718  27.931  41.030   3.890
56294W        W28719  18.615   7.758   2.149
56295W        W28720  38.422  24.615   9.781
56296W        W28721  22.170  24.613  14.566
56297W        W28722  18.473  30.548  14.824
56298W        W28723  34.612  10.490  11.138
56299W        W28724  27.341  20.225   3.595
56300W        W28725  21.780  28.718  12.157
56301W        W28726  10.147   4.031  11.828
56302W        W28727  20.228  18.310   4.503
56303W        W28728  27.376  34.420  10.939
56304W        W28729   1.431  37.852  14.952
56305W        W28730  24.192  29.613   1.399
56306W        W28731  42.926  18.392   1.342
56307W        W28732  27.488   5.949   3.732
56308W        W28733   2.384  20.138   0.057
56309W        W28734  41.322   9.338  13.119
56310W        W28735   8.620  30.519   1.286
56311W        W28736  43.126  44.460   2.733
56312W        W28737  36.179   2.604  14.289
56313W        W28738  44.007  39.882   0.934
56314W        W28739   4.695  40.868  11.659
56315W        W28740   7.227  30.942  14.848
56316W        W28741  21.474   5.642   1.627
56317W        W28742   0.899  12.666  12.575
56318W        W28743  22.406  14.699   5.001
56319W        W28744  41.384  30.176  11.519
56320W        W28745   0.452  13.615  10.726
56321W        W28746  19.110  18.732   3.676
56322W        W28747  30.430   7.118  12.357
56323W        W28748  39.410   9.939  13.816
56324W        W28749  37.069  25.242  13.347
56325W        W28750  19.255   7.130  13.061
56326W        W28751  40.268  22.278   3.694
56327W        W28752   3.771  24.031   1.381
56328W        W28753  24.657   6.256  12.963
56329W        W28754  22.278   0.352  11.140
56330W        W28755   9.275  28.265  14.520
56331W        W28756   9.585  41.990  14.774
56332W        W28757   5.394  27.175  11.542
56333W        W28758  31.571  36.005   0.738
56334W        W28759  40.634  13.906   1.127
56335W        W28760  21.971  13.026  14.530
56336W        W28761  19.380   6.345  13.430
56337W        W28762  34.143  39.891  13.419
56338W        W28763  18.757  32.534   1.887
56339W        W28764  13.246  18.467  12.616
56340W        W28765  24.661  41.775   0.464
56341W        W28766  37.787   8.284  14.792
56342W        W28767  30.681  24.529   3.283
56343W        W28768  39.226  39.893   3.963
56344W        W28769  35.949  31.707   2.969
56345W        W28770  30.500  40.659  12.025
56346W        W28771   9.261  27.931   1.418
56347W        W28772   8.551  37.557   0.371
56348W        W28773  16.261  29.451  12.602
56349W        W28774  10.697  13.170  10.700
56350W        W28775  32.464  24.709  12.918
56351W        W28776  36.051  24.533  11.117
56352W        W28777   2.206   2.043  11.108
56353W        W28778  36.441   6.718  11.080
56354W        W28779  22.022  21.459  10.765
56355W        W28780   8.290  22.708  13.774
56356W        W28781  11.878  20.416  13.127
56357W        W28782  21.054  43.780  14.452
56358W        W28783   0.451  26.281  13.474
56359W        W28784  16.266  20.044  11.172
56360W        W28785  23.087  41.233   2.233
56361W        W28786  14.581  32.916   3.832
56362W        W28787  37.953  42.901  10.172
56363W        W28788  39.592  33.125  10.763
56364W        W28789  11.632  41.866  13.808
56365W        W28790  18.130  10.245  13.443
56366W        W28791  19.036   1.741   3.189
56367W        W28792  41.797  28.213  14.613
56368W        W28793  42.152  37.122   0.896
56369W        W28794  12.507  29.185  11.473
56370W        W28795  44.847  16.665   2.827
56371W        W28796  33.577  27.397   2.940
56372W        W28797   9.671  35.823   0.846
56373W        W28798  29.862  16.639  14.456
56374W        W28799  43.438  29.348  12.509
56375W        W28800  39.750   5.662   0.813
56376W        W28801  20.176  10.671  11.556
56377W        W28802  35.810  10.108  12.143
56378W        W28803   8.841   5.202   4.717
56379W        W28804  16.516  19.558  11.351
56380W        W28805   6.660  36.381  12.447
56381W        W28806  27.733  29.091   3.580
56382W        W28807  42.791  21.669  11.610
56383W        W28808  12.629  10.357   0.363
56384W        W28809   5.306  26.562   0.513
56385W        W28810  20.264  34.283  12.455
56386W        W28811  28.460  28.035   4.557
56387W        W28812  36.913  10.844   0.856
56388W        W28813  11.821  24.069   1.491
56389W        W28814  37.901  36.837   4.103
56390W        W28815  41.545  29.359  13.305
56391W        W28816  43.025  29.267   0.905
56392W        W28817  27.702  29.912   0.402
56393W        W28818  28.905  36.522   3.076
56394W        W28819   5.743  33.434   1.281
56395W        W28820  26.708  25.651   0.898
56396W        W28821  10.593  40.988   1.846
56397W        W28822  12.269  16.768  14.088
56398W        W28823  39.007  21.808   0.720
56399W        W28824  42.990   7.015   3.626
56400W        W28825  25.566  44.499  13.828
56401W        W28826   1.499  20.375   4.083
56402W        W28827  33.095  20.816  13.168
56403W        W28828  26.797  22.585   4.108
56404W        W28829   4.779  17.795   0.323
56405W        W28830  43.993  35.542  12.618
56406W        W28831  18.108  29.691   4.101
56407W        W28832  20.956  40.060   1.357
56408W        W28833  40.668  42.431   1.115
56409W        W28834  34.521   6.682  12.053
56410W        W28835  40.553   3.505   4.622
56411W        W28836  41.093  17.329  14.505
56412W        W28837  39.336  31.011   2.560
56413W        W28838   8.257  38.910  13.919
56414W        W28839  36.131  30.958  13.279
56415W        W28840   6.483   5.837   1.460
56416W        W28841  15.729  44.716   1.304
56417W        W28842  35.340  38.820  12.856
56418W        W28843  33.491  40.780  10.808
56419W        W28844  28.862  28.869   2.805
56420W        W28845   9.053  33.228  13.689
56421W        W28846  24.155   7.349   4.608
56422W        W28847  44.845  19.570   2.615
56423W        W28848   1.879  39.262   0.459
56424W        W28849  19.301   9.454   2.288
56425W        W28850  30.005  21.079   0.318
56426W        W28851   4.370  34.042  10.585
56427W        W28852  12.179  18.831   1.925
56428W        W28853  31.249   4.256   2.751
56429W        W28854  32.530  15.108   0.505
56430W        W28855  34.659  30.414   1.337
56431W        W28856   2.707  34.129   0.059
56432W        W28857  38.537  31.932  10.499
56433W        W28858  14.640  39.891   3.104
56434W        W28859   1.528  35.398   0.359
56435W        W28860  25.581   7.774   0.611
56436W        W28861  17.045   8.428   2.402
56437W        W28862  36.067   7.254   0.070
56438W        W28863  16.062  41.926   4.142
56439W        W28864  29.414   3.010   0.866
56440W        W28865  30.960   9.781   1.449
56441W        W28866  10.368  30.909  13.990
56442W        W28867  19.489  23.257   3.286
56443W        W28868  40.077  25.532  12.645
56444W        W28869  22.989  37.907  10.561
56445W        W28870  12.216  39.602  10.752
56446W        W28871  14.804  11.664   1.805
56447W        W28872   9.704  11.874  13.242
56448W        W28873  11.313  20.602  14.287
56449W        W28874  20.722   3.423   0.387
56450W        W28875  10.961  29.892   1.224
56451W        W28876  17.477  17.628  13.359
56452W        W28877  32.346  40.945  13.580
56453W        W28878  15.313  23.829   4.525
56454W        W28879  40.689  28.410  14.083
56455W        W28880   6.198  37.860   4.168
56456W        W28881   2.313  37.399  10.420
56457W        W28882  34.660   1.365  12.427
56458W        W28883  13.363  24.964  10.452
56459W        W28884  11.226   3.695   4.384
56460W        W28885  23.265  23.171  11.123
56461W        W28886  34.853  32.298   1.312
56462W        W28887  41.938  41.522  14.302
56463W        W28888  44.373  22.838  13.114
56464W        W28889   8.615   5.127   0.755
56465W        W28890  15.082  22.632   1.821
56466W        W28891  26.742   4.961  14.914
56467W        W28892  15.666  12.227  14.959
56468W        W28893  26.040  41.497  11.176
56469W        W28894  15.134  34.540   2.068
56470W        W28895   4.848  44.180   3.274
56471W        W28896   4.964   8.311   4.684
56472W        W28897  14.125  16.561   0.832
56473W        W28898   5.796   2.088   1.787
56474W        W28899   8.334  35.978  14.054
56475W        W28900   7.801  23.290   0.586
56476W        W28901  41.500   8.648  14.273
56477W        W28902   6.262  12.888  13.969
56478W        W28903  18.237  44.959   4.514
56479W        W28904  34.364   8.369  12.334
56480W        W28905  25.641  22.274  14.386
56481W        W28906   4.799   7.734  13.997
56482W        W28907  37.255   0.058   1.216
56483W        W28908   2.815  16.113   3.127
56484W        W28909  19.693  16.808  14.018
56485W        W28910  10.264  29.373   4.507
56486W        W28911  12.644  25.124   1.480
56487W        W28912  10.746  24.827   3.395
56488W        W28913  21.540   9.775   4.068
56489W        W28914  40.279  29.017   1.440
56490W        W28915  18.664  33.220  13.891
56491W        W28916  14.751  39.112   1.707
56492W        W28917  18.511  42.932  13.871
56493W        W28918  32.398  31.698  14.996
56494W        W28919   0.677   6.601   4.307
56495W        W28920  17.804  40.064   0.902
56496W        W28921   3.335   1.481  13.934
56497W        W28922   7.058  28.115  14.201
56498W        W28923  24.677  25.900   3.702
56499W        W28924   8.691  13.239   2.344
56500W        W28925  41.469   7.355   3.681
56501W        W28926  15.346  25.413  14.972
56502W        W28927  32.571   6.103   4.210
56503W        W28928  34.573  25.100  12.028
56504W        W28929   7.748   6.113   4.145
56505W        W28930  14.927  26.159  14.492
56506W        W28931  10.620   5.246  10.508
56507W        W28932  10.730  24.751   4.427
56508W        W28933  15.987   2.909  14.395
56509W        W28934  34.563  44.422  11.258
56510W        W28935  22.206  16.622   0.277
56511W        W28936   6.013  37.367   4.271
56512W        W28937   8.839   5.789  12.671
56513W        W28938  37.103  10.529  13.039
56514W        W28939  28.928  43.855   1.892
56515W        W28940  40.916  22.673  13.903
56516W        W28941  24.461  26.183  12.080
56517W        W28942  41.294  33.112  14.412
56518W        W28943  23.207  34.344  14.289
56519W        W28944  19.640  43.242  14.197
56520W        W28945  14.393  34.521   3.146
56521W        W28946  39.141  41.794   2.302
56522W        W28947   5.515   0.269   3.716
56523W        W28948   5.254  11.145  11.508
56524W        W28949  24.954  37.491   3.696
56525W        W28950  23.236  15.681  14.542
56526W        W28951  26.026   0.043   2.254
56527W        W28952  33.089  15.121  10.470
56528W        W28953  28.895  35.914  12.572
56529W        W28954  16.611  24.532   3.335
56530W        W28955  19.737  37.881   0.077
56531W        W28956  25.083  12.048   1.963
56532W        W28957  42.455   7.707  11.096
56533W        W28958   1.979  43.417   0.824
56534W        W28959   9.475   1.675   3.709
56535W        W28960  38.492  12.445  11.111
56536W        W28961  34.630  11.602   3.828
56537W        W28962  32.186   7.106   3.036
56538W        W28963   8.377  34.083   0.302
56539W        W28964  23.523   9.875  11.891
56540W        W28965   6.686  44.776  13.529
56541W        W28966  13.271  43.920  12.061
56542W        W28967  35.060  39.817   1.936
56543W        W28968  25.971  32.026   3.083
56544W        W28969  13.823  28.131  13.386
56545W        W28970  19.138  42.584   3.919
56546W        W28971  27.172  27.567   2.869
56547W        W28972  40.329  38.522  11.871
56548W        W28973   4.473  16.615  11.039
56549W        W28974   2.884  29.852  13.408
56550W        W28975  23.073  20.743   4.298
56551W        W28976  18.016  21.477  11.694
56552W        W28977  38.133  25.201   1.502
56553W        W28978  37.306  12.086  14.023
56554W        W28979  23.734   6.322   3.334
56555W        W28980  38.993  22.698   2.674
56556W        W28981  30.075  20.770   1.662
56557W        W28982  27.844   4.651   1.347
56558W        W28983  31.901   0.916   0.853
56559W        W28984  42.536  29.340   4.005
56560W        W28985  37.227  33.658   2.907
56561W        W28986  44.844  37.981  13.794
56562W        W28987  14.570  30.934  13.888
56563W        W28988   0.348  24.911   1.239
56564W        W28989  40.997   3.250  11.192
56565W        W28990  43.836  11.210  14.124
56566W        W28991  23.042   2.956  13.790
56567W        W28992   1.901  27.640  10.512
56568W        W28993  43.881  12.733   4.398
56569W        W28994   5.673  37.356  12.068
56570W        W28995  38.117  33.576   3.142
56571W        W28996  20.237  40.515  14.316
56572W        W28997  18.037   3.751   3.786
56573W        W28998  39.253  21.746   0.242
56574W        W28999  34.059  38.516  12.842
56575W        W29000  26.207  36.401  12.404
56576W        W29001  10.335   3.646  10.033
56577W        W29002  28.916   4.923  13.992
56578W        W29003  32.059  27.916   4.038
56579W        W29004  33.101  11.553   0.900
56580W        W29005  34.892  36.449  14.246
56581W        W29006   8.773  21.327   1.738
56582W        W29007  42.041   1.518   0.602
56583W        W29008  35.080  32.422   4.545
56584W        W29009  44.056  27.638   3.305
56585W        W29010  38.428  43.413   2.551
56586W        W29011  33.147   8.185   4.380
56587W        W29012   6.230  29.377  13.344
56588W        W29013  22.064  24.997  10.424
56589W        W29014  24.127  20.290  12.519
56590W        W29015   8.739  24.252  10.730
56591W        W29016   5.834  36.333   4.114
56592W        W29017  43.479   6.919   3.454
56593W        W29018   0.910  24.049  12.041
56594W        W29019  39.864  14.239   4.573
56595W        W29020  17.762   0.241   1.460
56596W        W29021  34.355  20.251   0.777
56597W        W29022  31.141  30.207   0.427
56598W        W29023  39.065  11.513   3.144
56599W        W29024  24.973   8.929  12.848
56600W        W29025  10.286  27.441  13.361
56601W        W29026  19.583  33.148  11.928
56602W        W29027   1.500  37.355  12.394
56603W        W29028  29.024  41.343  13.762
56604W        W29029  32.439  13.343   0.938
56605W        W29030  30.521  42.982  11.192
56606W        W29031  26.708  36.342   4.829
56607W        W29032   6.884  14.659   4.648
56608W        W29033  31.124   8.392  11.036
56609W        W29034  17.141  20.242   3.650
56610W        W29035  42.291  35.468  13.982
56611W        W29036  15.965   9.853  14.831
56612W        W29037  42.836   3.209   3.153
56613W        W29038   4.475   4.211  13.085
56614W        W29039  23.312   2.378   2.813
56615W        W29040  14.249  37.341  13.925
56616W        W29041  20.223  30.894  12.976
56617W        W29042  19.032  20.998  12.022
56618W        W29043  11.751  14.182   1.451
56619W        W29044  29.024  44.204  12.664
56620W        W29045  16.090  41.836  14.604
56621W        W29046  24.618   6.754   4.189
56622W        W29047  16.035   0.487  14.372
56623W        W29048  29.454  30.271  12.852
56624W        W29049  20.006  38.466   3.232
56625W        W29050  31.947   4.331   2.790
56626W        W29051  33.613  16.094   2.903
56627W        W29052   8.251  14.025   2.273
56628W        W29053  36.033   7.818   4.510
56629W        W29054   1.516  23.747  14.507
56630W        W29055  21.923  26.123  13.838
56631W        W29056  41.392  20.087   5.076
56632W        W29057   0.852  25.514  13.461
56633W        W29058  38.106  34.034   0.495
56634W        W29059  39.578   0.710  10.311
56635W        W29060  14.821  14.682  12.068
56636W        W29061  33.312  33.532   4.024
56637W        W29062  33.045  14.254  10.425
56638W        W29063  24.666  24.716  13.797
56639W        W29064  20.168   4.927   3.238
56640W        W29065   4.910  19.542  10.352
56641W        W29066  26.082   2.850   3.836
56642W        W29067  36.538  24.576  14.268
56643W        W29068  38.901  17.251   0.302
56644W        W29069  13.722   4.778   2.727
56645W        W29070  18.163   0.942  13.589
56646W        W29071  11.846   1.942   2.069
56647W        W29072  12.887  32.087  14.071
56648W        W29073  16.308  38.874  11.749
56649W        W29074   8.300  35.097   3.821
56650W        W29075  15.752   6.874   3.207
56651W        W29076  21.083   3.678   4.630
56652W        W29077  28.126   5.249  13.936
56653W        W29078  25.937  15.170  14.809
56654W        W29079  21.587   3.412   4.198
56655W        W29080  28.926   7.823  10.732
56656W        W29081  27.839  14.894  11.145
56657W        W29082  30.183  43.600   3.700
56658W        W29083  19.189  23.961  14.279
56659W        W29084  36.108   1.535   1.869
56660W        W29085  15.354  20.520  14.432
56661W        W29086   8.674   5.414  12.343
56662W        W29087   5.286  31.930   1.240
56663W        W29088  39.544  34.394  10.752
56664W        W29089  34.432  35.989  12.926
56665W        W29090  27.658  27.569   4.680
56666W        W29091  35.431  39.872   1.597
56667W        W29092  41.294  29.486   0.805
56668W        W29093  40.408  43.939   1.963
56669W        W29094  18.796  40.873   1.281
56670W        W29095  14.511  30.761  11.207
56671W        W29096   7.605   3.529  13.816
56672W        W29097  43.359  16.511   4.569
56673W        W29098  18.766  39.549   3.303
56674W        W29099  44.553  13.117  10.559
56675W        W29100  11.803  11.752  11.391
56676W        W29101  16.776  38.796  14.070
56677W        W29102  24.564  21.667  13.769
56678W        W29103  23.232  13.325   3.709
56679W        W29104  44.769  34.993  12.913
56680W        W29105  37.030  30.544   1.855
56681W        W29106  18.283  13.153  13.005
56682W        W29107   3.436  30.620   2.168
56683W        W29108   7.880  13.025  12.503
56684W        W29109  19.606  36.335  11.701
56685W        W29110   2.301  12.094  11.077
56686W        W29111   9.906  12.237   3.228
56687W        W29112  12.268  16.058   2.338
56688W        W29113  16.053  15.594   1.904
56689W        W29114  30.381   6.612  11.938
56690W        W29115  19.255  29.482  12.575
56691W        W29116  43.512  28.447   1.100
56692W        W29117  31.912  19.556   2.382
56693W        W29118  24.273  11.170  11.093
56694W        W29119  39.270  26.177  12.973
56695W        W29120  38.536  17.542   4.333
56696W        W29121  44.555   2.671   0.950
56697W        W29122  33.069  35.550   4.543
56698W        W29123  18.758  39.365   3.828
56699W        W29124   8.828  26.367   1.147
56700W        W29125  33.306  32.428   5.045
56701W        W29126  26.037  29.817   3.655
56702W        W29127   7.267  21.261   0.745
56703W        W29128  16.131   5.053   4.718
56704W        W29129  13.787  15.074   1.446
56705W        W29130  37.441  33.344  10.538
56706W        W29131  30.398   3.884   0.381
56707W        W29132  44.911  39.791   3.366
56708W        W29133  26.925   3.329  13.451
56709W        W29134  36.483  40.991   4.178
56710W        W29135  20.932  44.383  12.495
56711W        W29136  23.353  17.718   2.880
56712W        W29137   1.985  41.475  13.156
56713W        W29138  19.605  36.933  10.760
56714W        W29139   6.670   8.576   0.462
56715W        W29140  38.990  35.832  12.955
56716W        W29141   8.924  12.540  14.810
56717W        W29142  20.707  34.669   0.778
56718W        W29143   7.714  36.233   2.066
56719W        W29144  21.141  32.191  12.597
56720W        W29145   0.358  17.786   2.490
56721W        W29146  18.138   7.300   2.841
56722W        W29147  29.196   5.466  13.973
56723W        W29148   2.380  21.532   0.219
56724W        W29149   0.969  13.126   3.381
56725W        W29150  20.751  40.570  14.012
56726W        W29151  34.163  39.862   2.693
56727W        W29152   2.707  28.488   3.302
56728W        W29153  36.406  27.994  14.352
56729W        W29154   3.061  10.099  13.519
56730W        W29155  28.265  12.360  10.708
56731W        W29156  24.294  43.316   4.432
56732W        W29157  29.704  10.097   3.826
56733W        W29158   7.434  26.578   1.947
56734W        W29159  23.592  24.951  14.328
56735W        W29160   4.728  12.267  14.679
56736W        W29161   2.865  14.566  14.788
56737W        W29162  13.571  30.886  12.899
56738W        W29163  13.605   6.894  14.479
56739W        W29164   3.792  25.645   1.158
56740W        W29165   2.945  24.592   2.808
56741W        W29166   6.462  43.397   4.142
56742W        W29167  31.826  19.782   9.708
56743W        W29168  35.177  28.486   2.403
56744W        W29169  22.667  34.539  10.556
56745W        W29170  28.902   0.313   4.165
56746W        W29171  44.997  17.589   0.975
56747W        W29172  27.038  42.514   1.432
56748W        W29173   3.406   9.591   0.333
56749W        W29174   6.138  22.123  12.028
56750W        W29175  39.463  26.120   2.864
56751W        W29176  28.612  11.369   1.769
56752W        W29177  13.768   1.124   3.544
56753W        W29178  22.394  44.964   0.811
56754W        W29179   2.183   2.133   2.527
56755W        W29180  13.071  34.850   1.139
56756W        W29181   9.242  27.305   4.471
56757W        W29182  25.639  16.681  10.936
56758W        W29183  26.951  22.059  13.195
56759W        W29184   2.160  16.107  11.552
56760W        W29185  21.194   2.274  12.576
56761W        W29186  28.277   2.840   2.327
56762W        W29187  31.460  25.982   4.850
56763W        W29188  17.047   1.420   5.238
56764W        W29189  11.406  44.984   1.721
56765W        W29190  42.991  24.018  13.522
56766W        W29191  27.830   5.507   0.912
56767W        W29192  10.368  29.619  13.049
56768W        W29193  13.233  40.043   4.595
56769W        W29194  44.547   0.670   3.344
56770W        W29195  37.446  17.345   3.320
56771W        W29196  31.351  18.688   4.832
56772W        W29197  11.228  41.054   4.098
56773W        W29198   6.047  13.784   0.273
56774W        W29199  43.213  43.896   3.391
56775W        W29200  32.564  23.172  10.910
56776W        W29201  40.125  23.936  11.145
56777W        W29202  13.627   2.693  14.756
56778W        W29203  32.665  12.083  13.396
56779W        W29204  26.722  22.573  11.886
56780W        W29205   3.653  23.196  12.715
56781W        W29206  27.070  27.721   1.159
56782W        W29207  33.853  12.154   1.942
56783W        W29208   6.441  26.396   2.076
56784W        W29209  22.047  11.713  10.358
56785W        W29210  42.872  37.122   2.432
56786W        W29211  22.499   3.134  14.399
56787W        W29212  30.415  13.510  13.911
56788W        W29213   3.656  28.684   2.214
56789W        W29214  40.216  27.630   0.079
56790W        W29215  34.046   8.755   4.724
56791W        W29216   0.744  37.924  14.904
56792W        W29217  26.271  31.322   1.314
56793W        W29218  18.088   2.772  10.712
56794W        W29219  42.083  29.039   1.907
56795W        W29220  19.017   1.376  11.077
56796W        W29221  12.543  29.021  13.141
56797W        W29222   3.939  15.601   0.972
56798W        W29223  41.118  39.116  13.892
56799W        W29224  19.690  36.372   2.809
56800W        W29225  11.405  26.030  13.750
56801W        W29226  15.528  20.682  13.951
56802W        W29227  14.300  34.958  12.621
56803W        W29228   5.676  39.530  13.424
56804W        W29229  12.124  35.375   3.765
56805W        W29230  35.465  21.690   3.074
56806W        W29231  17.667  40.893   1.968
56807W        W29232  13.131   5.734   0.249
56808W        W29233  17.023  36.340  12.447
56809W        W29234  37.885  32.660   0.436
56810W        W29235  12.306  17.533  12.087
56811W        W29236  18.270  44.283  14.968
56812W        W29237  31.397  16.186   0.946
56813W        W29238  43.804   8.309  12.328
56814W        W29239  10.016  35.059  10.001
56815W        W29240  13.863   3.007   4.851
56816W        W29241  32.855  14.290   0.792
56817W        W29242  40.057  23.063   2.743
56818W        W29243  38.382  41.515   3.275
56819W        W29244  11.428  20.541  11.637
56820W        W29245  21.622  18.538  13.511
56821W        W29246  31.915  11.834   1.367
56822W        W29247  25.925   2.420   4.079
56823W        W29248  28.156  25.018   0.790
56824W        W29249   1.310   5.321   2.967
56825W        W29250  13.347   9.825  12.579
56826W        W29251  37.162  29.691  12.487
56827W        W29252  39.805  39.992   3.211
56828W        W29253  17.336  19.530   4.751
56829W        W29254   5.728  30.251  12.070
56830W        W29255  11.243  29.310   3.883
56831W        W29256  25.157  28.709  11.586
56832W        W29257   3.860  36.689  14.945
56833W        W29258   4.469  13.972   5.208
56834W        W29259   2.922   4.270  13.774
56835W        W29260  37.407  23.705  10.825
56836W        W29261  33.036  11.317   2.818
56837W        W29262   0.396  22.896  12.938
56838W        W29263   3.284  19.055  11.970
56839W        W29264  42.336  12.805   3.145
56840W        W29265   4.403  10.888  11.037
56841W        W29266  31.082  34.781  10.703
56842W        W29267  31.099  40.945   1.338
56843W        W29268  16.409  16.294  12.416
56844W        W29269  37.901  11.402  10.532
56845W        W29270  24.114  26.067   2.793
56846W        W29271  27.622  40.108  10.357
56847W        W29272  26.547  21.587  11.630
56848W        W29273  25.454  12.763  13.518
56849W        W29274  44.176   6.387  11.502
56850W        W29275   7.761  32.189  12.089
56851W        W29276  26.445   5.314   0.922
56852W        W29277   8.527   8.556   2.766
56853W        W29278   0.470  24.427  13.906
56854W        W29279   7.413  41.945  13.448
56855W        W29280  24.437  10.619  13.653
56856W        W29281   1.274  40.622  14.425
56857W        W29282  35.333  27.504  11.018
56858W        W29283  38.827  26.023   2.265
56859W        W29284   6.238  38.134   1.797
56860W        W29285  26.092  38.270   2.569
56861W        W29286  34.164  13.046   1.235
56862W        W29287  13.869  26.706   2.729
56863W        W29288  38.828   7.186  14.755
56864W        W29289  43.546  19.083  11.583
56865W        W29290   3.643  39.006  12.118
56866W        W29291   6.250  33.900  13.713
56867W        W29292  32.103  41.914  12.097
56868W        W29293  17.118  24.581   1.421
56869W        W29294  28.138  14.064   2.417
56870W        W29295  13.268  20.801  11.945
56871W        W29296  10.959  29.905   2.167
56872W        W29297  26.600  20.676   4.997
56873W        W29298   0.502   6.728   2.256
56874W        W29299  28.562  35.831   1.192
56875W        W29300   1.421  19.755  12.333
56876W        W29301  17.661  28.569   3.048
56877W        W29302  33.500  42.473  10.449
56878W        W29303  26.608  11.217   3.290
56879W        W29304   1.675  41.797   2.804
56880W        W29305  39.938  23.284   1.419
56881W        W29306   8.637  38.900  10.596
56882W        W29307  17.225  43.710   3.398
56883W        W29308   9.367  41.299   0.354
56884W        W29309  29.832  22.765  12.920
56885W        W29310  36.405  26.776   1.866
56886W        W29311  30.109   4.268   4.423
56887W        W29312  18.432  29.134  13.911
56888W        W29313  20.977  22.104  11.114
56889W        W29314  29.072  35.168   3.698
56890W        W29315  28.214  33.530  10.695
56891W        W29316  43.520  28.699  14.761
56892W        W29317  12.355   4.140  14.721
56893W        W29318  21.669   0.327  13.423
56894W        W29319   5.184   8.674   5.151
56895W        W29320  14.675   4.618  12.998
56896W        W29321  10.762  40.762  12.074
56897W        W29322  29.074  11.114   1.677
56898W        W29323  24.808   1.993  11.667
56899W        W29324   2.284  20.587  12.118
56900W        W29325  23.456  13.682  12.605
56901W        W29326  14.298  35.553  14.990
56902W        W29327  14.840  42.640  12.548
56903W        W29328  39.944  26.084  14.830
56904W        W29329  18.147   8.819   3.808
56905W        W29330  18.785  22.994  12.873
56906W        W29331  35.900  43.345   1.265
56907W        W29332   6.470  17.873  13.004
56908W        W29333  13.129  19.989   4.771
56909W        W29334  26.310  36.667  14.805
56910W        W29335  21.190   7.885   3.352
56911W        W29336  35.363  40.752  14.419
56912W        W29337  37.834  14.339   1.340
56913W        W29338  41.305   0.308  12.023
56914W        W29339  40.422  11.843  12.528
56915W        W29340  12.778  32.619   0.892
56916W        W29341  20.556  22.718   2.371
56917W        W29342  40.961   9.138   3.796
56918W        W29343  36.597  42.303   3.653
56919W        W29344  17.007  40.861   3.337
56920W        W29345  29.626  19.657   1.309
56921W        W29346  43.124   2.989  13.378
56922W        W29347   8.378  30.193  12.767
56923W        W29348  23.087  41.836   0.407
56924W        W29349  29.120   8.928   2.598
56925W        W29350  29.197  22.334  13.331
56926W        W29351  43.099  33.595  13.368
56927W        W29352  13.832  32.909   0.740
56928W        W29353  17.500  10.366   4.491
56929W        W29354  40.316  15.180  14.721
56930W        W29355  29.327  38.458   1.788
56931W        W29356   6.187  25.666  11.567
56932W        W29357  44.604  11.569  13.988
56933W        W29358  39.378  32.046  14.499
56934W        W29359  42.432  35.497   1.843
56935W        W29360  26.380  35.105  14.340
56936W        W29361  30.023  17.229  10.237
56937W        W29362   0.834   2.432  12.868
56938W        W29363  28.885   6.747   3.584
56939W        W29364  22.170  22.636  11.444
56940W        W29365  23.859  29.613  13.944
56941W        W29366  25.223  38.328   2.449
56942W        W29367  14.783   9.943   2.133
56943W        W29368  14.398   6.804   4.230
56944W        W29369  27.153  30.184  13.514
56945W        W29370  15.302  13.459   4.328
56946W        W29371  38.556  19.727  13.448
56947W        W29372   2.506  15.061   1.001
56948W        W29373  34.697  14.150   1.951
56949W        W29374  40.376  17.387   2.208
56950W        W29375  30.369  23.496   4.928
56951W        W29376  29.981  12.140  11.092
56952W        W29377  31.590  26.627   3.544
56953W        W29378   7.263  44.193   2.363
56954W        W29379  28.706  38.265   4.171
56955W        W29380  33.895  35.452  13.415
56956W        W29381  23.191  19.925  14.729
56957W        W29382  20.029  36.880   1.705
56958W        W29383  22.549  24.587  12.392
56959W        W29384  34.974   7.973   2.179
56960W        W29385  20.275  10.872   3.804
56961W        W29386  30.090  16.843  12.487
56962W        W29387  37.821  11.348   1.937
56963W        W29388  26.045  17.116  14.575
56964W        W29389  41.162  26.266   3.222
56965W        W29390  19.160  24.655  11.573
56966W        W29391  12.784  32.923   0.455
56967W        W29392  43.633   9.520  13.740
56968W        W29393  30.683  14.781   0.043
56969W        W29394   6.398   6.792   2.468
56970W        W29395  28.167  32.464  12.975
56971W        W29396  30.451   4.720   2.642
56972W        W29397  44.253   5.397   2.135
56973W        W29398  34.942  38.939  13.722
56974W        W29399  12.868  22.313   0.856
56975W        W29400  25.154  37.812  12.140
56976W        W29401  36.389  27.537  14.604
56977W        W29402  38.867  32.433  12.840
56978W        W29403   6.972  25.130   1.768
56979W        W29404  31.621  27.195  13.395
56980W        W29405   4.919  17.239  14.121
56981W        W29406  20.275  34.441   2.482
56982W        W29407  30.040  12.632  14.775
56983W        W29408  19.949  43.284   2.422
56984W        W29409  36.615  31.243  13.990
56985W        W29410  22.975   7.289  13.959
56986W        W29411   0.798  16.583   1.232
56987W        W29412  37.136  30.593  14.920
56988W        W29413  35.874  38.727   3.742
56989W        W29414  32.409   2.910   0.396
56990W        W29415  41.630  36.304  11.514
56991W        W29416  13.094  40.779   4.150
56992W        W29417  41.945   4.980  14.483
56993W        W29418  22.104  34.040   2.830
56994W        W29419  23.510  42.914   4.152
56995W        W29420  18.252  32.045   0.522
56996W        W29421   7.934   2.323  12.895
56997W        W29422  11.127  14.821  11.624
56998W        W29423   9.459  13.753   1.628
56999W        W29424  16.332  22.726  13.092
57000W        W29425   0.916  14.419  13.685
57001W        W29426  36.381  42.055   2.221
57002W        W29427  10.908  12.225   1.839
57003W        W29428  37.315  25.163   1.787
57004W        W29429  23.397  35.489   1.997
57005W        W29430  12.374  25.611   2.752
57006W        W29431   9.380  12.702  14.668
57007W        W29432  42.943  44.513  14.164
57008W        W29433  17.715  18.327  14.857
57009W        W29434  44.363  38.335   0.213
57010W        W29435  37.014   7.376  12.162
57011W        W29436  14.076  21.667   1.822
57012W        W29437  26.603  37.543   0.783
57013W        W29438  32.904  11.164   3.720
57014W        W29439  16.056  33.538  13.077
57015W        W29440  42.918   3.696   1.817
57016W        W29441  22.474   1.479   4.156
57017W        W29442  24.962  31.086  13.478
57018W        W29443  31.663  24.075  10.708
57019W        W29444  14.510  32.885  10.109
57020W        W29445  30.956  12.907  14.800
57021W        W29446  24.392  13.287  14.765
57022W        W29447  34.445   5.456  11.672
57023W        W29448  41.968  44.027   3.603
57024W        W29449   7.579  15.522  13.371
57025W        W29450  26.233  18.113  13.971
57026W        W29451   0.277  29.535  10.456
57027W        W29452  40.402  34.485   4.302
57028W        W29453   7.673   8.824  12.689
57029W        W29454  25.946   9.904  13.344
57030W        W29455   3.715  11.177   1.693
57031W        W29456  12.689  27.170  11.740
57032W        W29457  17.857  44.740   3.006
57033W        W29458  32.880  12.800  11.003
57034W        W29459  27.791  30.881  12.025
57035W        W29460  18.805  25.593  14.284
57036W        W29461  14.723   5.316   3.749
57037W        W29462  13.505   0.331  12.517
57038W        W29463  40.508  14.280   0.780
57039W        W29464   0.305  44.195   0.250
57040W        W29465  19.159  41.097   4.042
57041W        W29466   8.469  42.912   4.610
57042W        W29467   3.250  35.883  14.974
57043W        W29468   4.983   7.161  13.751
57044W        W29469  18.764  16.168   2.744
57045W        W29470  30.723  44.901  12.523
57046W        W29471  10.744  33.197   1.377
57047W        W29472  16.376  18.164   0.032
57048W        W29473   8.804  31.017  12.562
57049W        W29474  33.925  32.663  10.495
57050W        W29475  40.725  40.594   4.153
57051W        W29476  17.776  13.273   0.645
57052W        W29477  27.504   7.337   0.655
57053W        W29478   5.254   8.557   3.492
57054W        W29479  22.770  33.367   3.885
57055W        W29480  33.515  34.954   3.193
57056W        W29481   1.961  26.145  12.796
57057W        W29482  15.582  19.531  11.238
57058W        W29483  18.744   8.265   2.195
57059W        W29484  35.579  24.075   0.302
57060W        W29485  36.107  43.128   0.789
57061W        W29486  19.686  36.071  10.372
57062W        W29487  19.591  36.419  10.748
57063W        W29488  44.430  43.028   1.247
57064W        W29489  15.496  41.265   1.208
57065W        W29490   8.838   9.233   2.229
57066W        W29491   0.623  40.047  12.919
57067W        W29492  18.720  15.753  10.138
57068W        W29493  31.406  34.945  11.548
57069W        W29494  40.252  27.058   2.279
57070W        W29495  40.529   4.830   4.214
57071W        W29496   2.980  31.121  13.840
57072W        W29497  33.452   0.108  12.064
57073W        W29498   7.229  33.840  14.425
57074W        W29499  19.845  10.146  13.849
57075W        W29500  17.258  33.649   2.392
57076W        W29501  28.174  29.476   4.747
57077W        W29502  21.320  17.678  10.587
57078W        W29503  19.033   4.459   4.102
57079W        W29504   3.172  15.892  11.600
57080W        W29505   7.505  39.986   3.378
57081W        W29506  21.637   5.951   3.160
57082W        W29507   7.102   5.488  14.893
57083W        W29508  44.883  29.710   4.436
57084W        W29509   7.017  21.498  11.239
57085W        W29510  31.956  22.300   2.722
57086W        W29511   8.685  17.513  14.013
57087W        W29512  18.046  37.411  12.159
57088W        W29513  30.834  42.756   3.774
57089W        W29514  27.523  42.951   2.761
57090W        W29515  21.213  32.646  12.373
57091W        W29516  42.869  10.896   1.158
57092W        W29517   6.764  44.435  10.828
57093W        W29518  36.411   0.684  14.442
57094W        W29519   1.330  13.213   1.294
57095W        W29520  29.431   0.301   1.550
57096W        W29521   4.505  16.253  10.574
57097W        W29522  40.206  20.935  13.753
57098W        W29523  21.904  25.591  13.113
57099W        W29524  33.883  30.387  11.527
57100W        W29525  14.302  29.693  11.548
57101W        W29526   6.072   5.185   4.607
57102W        W29527  20.091   4.655  13.409
57103W        W29528   6.684  34.439   5.503
57104W        W29529   8.226  40.594   1.905
57105W        W29530  25.616  38.297   1.187
57106W        W29531  19.206  29.089   5.040
57107W        W29532   1.042  16.319  12.502
57108W        W29533  44.016  32.101  14.220
57109W        W29534   5.909  10.388  14.964
57110W        W29535   6.900  20.667   0.080
57111W        W29536   2.240  15.185  14.512
57112W        W29537   2.487  13.295   3.769
57113W        W29538   5.863  10.776  11.995
57114W        W29539  37.844  18.360  13.416
57115W        W29540  39.371  21.766  11.223
57116W        W29541  17.662  29.645  14.940
57117W        W29542  42.613  20.606   4.212
57118W        W29543  43.925  12.878  13.922
57119W        W29544  22.243  13.304   1.694
57120W        W29545   2.857  32.187   2.894
57121W        W29546  19.499  23.100  14.841
57122W        W29547  14.151  15.697   0.249
57123W        W29548  39.386  38.749  13.918
57124W        W29549  44.426  33.118   4.950
57125W        W29550  36.505  11.787  12.176
57126W        W29551  21.192  34.153   4.307
57127W        W29552  11.490  12.313   1.852
57128W        W29553  13.404  10.323   4.369
57129W        W29554  15.116  44.681  14.892
57130W        W29555  23.437   6.750   2.657
57131W        W29556  15.129   8.808   4.506
57132W        W29557  21.949  18.087  13.330
57133W        W29558   7.821  43.953  10.585
57134W        W29559   8.656  21.746  13.939
57135W        W29560  21.075  16.175  11.169
57136W        W29561  26.049   4.226   1.455
57137W        W29562  40.368  26.977   3.259
57138W        W29563   0.321  41.407   4.338
57139W        W29564  18.114  30.203   4.167
57140W        W29565   4.939  44.851  14.558
57141W        W29566   7.548  41.678  12.537
57142W        W29567   1.511  40.489   3.820
57143W        W29568  35.153  14.372   1.894
57144W        W29569  16.072   8.614   3.771
57145W        W29570  18.191  41.316  13.452
57146W        W29571  10.707  41.972  11.992
57147W        W29572  37.308  34.835   0.825
57148W        W29573  32.921  31.288   2.719
57149W        W29574  13.661  24.144   9.878
57150W        W29575   0.328  24.725  13.488
57151W        W29576  10.826  17.996   3.946
57152W        W29577   5.244  36.831  13.834
57153W        W29578  37.867  19.778  10.789
57154W        W29579  10.385  20.040   2.869
57155W        W29580   5.399   9.871  14.869
57156W        W29581  24.207  40.176  10.550
57157W        W29582   4.466  40.029  11.974
57158W        W29583  13.793   5.371  11.616
57159W        W29584  21.188  35.927  11.247
57160W        W29585  36.512  12.674  13.329
57161W        W29586  10.463  24.133  14.989
57162W        W29587  32.482  25.738  11.104
57163W        W29588  11.795  23.110   5.419
57164W        W29589  29.670  38.525  13.759
57165W        W29590  35.288  28.671  12.717
57166W        W29591  29.539   7.109  12.378
57167W        W29592  23.590   8.210   0.592
57168W        W29593   3.811  43.242   1.303
57169W        W29594  42.902   9.702  13.577
57170W        W29595  17.623  43.246  11.600
57171W        W29596  40.884  44.588   5.412
57172W        W29597  11.604  15.203  13.389
57173W        W29598  20.575  34.673   3.068
57174W        W29599  36.032  36.306  11.247
57175W        W29600  12.441  32.213   0.767
57176W        W29601   0.007  36.793   0.948
57177W        W29602   2.416  15.694  10.667
57178W        W29603  39.812  28.597   3.797
57179W        W29604  19.441   0.501  10.198
57180W        W29605  38.919   2.783  13.251
57181W        W29606  40.475  38.423   2.617
57182W        W29607  38.494  41.282   1.009
57183W        W29608  20.964  11.256  13.477
57184W        W29609  23.985  17.337  14.598
57185W        W29610  13.591  18.686   3.104
57186W        W29611  13.256  32.385   4.136
57187W        W29612   0.315   1.688   0.502
57188W        W29613  39.618  29.276   2.183
57189W        W29614  40.340  26.019   0.820
57190W        W29615  28.004  29.960   1.410
57191W        W29616  33.529  31.071  14.215
57192W        W29617   1.589   2.861  12.010
57193W        W29618  38.797  41.180   3.252
57194W        W29619   4.919   6.770   3.344
57195W        W29620  30.686   1.395   1.874
57196W        W29621   5.407   6.937  12.475
57197W        W29622   6.676  17.240  12.906
57198W        W29623  22.779  10.489   3.742
57199W        W29624  15.795  28.371  11.707
57200W        W29625  33.216  18.286   1.893
57201W        W29626  21.759  28.828   2.737
57202W        W29627  27.956  11.350   2.809
57203W        W29628  16.345  38.086  14.106
57204W        W29629  14.917  18.683   1.214
57205W        W29630  37.819  38.445   2.930
57206W        W29631  17.091   7.780   1.774
57207W        W29632  24.196  13.740  14.932
57208W        W29633  17.830  18.720  10.657
57209W        W29634   0.730  25.197   2.712
57210W        W29635  42.356  20.021   2.801
57211W        W29636  31.625   0.941  14.019
57212W        W29637  31.924  33.681   1.218
57213W        W29638  18.802  27.684  11.478
57214W        W29639   2.693  28.118  13.527
57215W        W29640  20.104  22.012   0.675
57216W        W29641  23.999  39.067   0.791
57217W        W29642   7.861  21.418  14.534
57218W        W29643  44.862   0.796   2.915
57219W        W29644  42.919  22.703   2.604
57220W        W29645  33.526   4.697  13.913
57221W        W29646  13.573  15.592  10.683
57222W        W29647  25.115  33.184   3.822
57223W        W29648  30.453   9.851   3.322
57224W        W29649  19.650  23.177  11.437
57225W        W29650   6.938  16.925  11.597
57226W        W29651  15.604  22.060  11.138
57227W        W29652  38.379  17.040  12.368
57228W        W29653  39.291  34.856  13.627
57229W        W29654  43.389  42.073   1.211
57230W        W29655  26.020  44.673   0.830
57231W        W29656   5.265  39.814  12.489
57232W        W29657  38.225  33.802  12.109
57233W        W29658  10.705   6.790   4.864
57234W        W29659  24.940  16.117   2.337
57235W        W29660  26.160   4.990  12.114
57236W        W29661  12.482  16.594   0.523
57237W        W29662   4.937  11.513  13.416
57238W        W29663  40.249  33.350   0.572
57239W        W29664  27.497  32.457   1.962
57240W        W29665  33.037   8.809   3.142
57241W        W29666  41.651  10.198   2.200
57242W        W29667  13.301  14.280   0.715
57243W        W29668  21.542  43.202  12.609
57244W        W29669  41.367  34.975   4.154
57245W        W29670   2.446  20.030   3.687
57246W        W29671   5.324  38.964   0.272
57247W        W29672  19.037  30.438  10.617
57248W        W29673  10.394  30.092   4.959
57249W        W29674  30.366  24.414  14.552
57250W        W29675  35.780  38.598   0.350
57251W        W29676  12.295  10.209   0.745
57252W        W29677  19.796  38.809  10.426
57253W        W29678  16.280  37.593   4.070
57254W        W29679  17.200  30.141  14.246
57255W        W29680  34.109   2.286   0.824
57256W        W29681  40.665  14.049  13.915
57257W        W29682  40.893  41.368   2.435
57258W        W29683  37.123  32.736  12.501
57259W        W29684  41.405  25.181  14.852
57260W        W29685  14.274  26.941  12.153
57261W        W29686  28.199  42.665   0.654
57262W        W29687  43.920  11.069   2.631
57263W        W29688  33.400  15.633   2.542
57264W        W29689  19.028  33.384   4.416
57265W        W29690  12.580   1.649   4.172
57266W        W29691  11.561  14.029  14.374
57267W        W29692  42.726  36.451   3.191
57268W        W29693  37.697  19.358  13.357
57269W        W29694  36.144  41.126  12.663
57270W        W29695  10.270   8.520  12.144
57271W        W29696   8.007  14.483   1.357
57272W        W29697  15.073  27.117   4.621
57273W        W29698  28.335  30.494   4.828
57274W        W29699   9.434  18.807   1.406
57275W        W29700  17.477  36.946   1.452
57276W        W29701  35.417  36.198  11.168
57277W        W29702  43.558  37.626  14.449
57278W        W29703   3.768   3.348  14.982
57279W        W29704  17.315   2.740   3.109
57280W        W29705  21.573  24.760   1.237
57281W        W29706   5.760   1.063   1.662
57282W        W29707  32.899  23.736   2.385
57283W        W29708  22.073  36.983  14.456
57284W        W29709  40.925  42.760   1.471
57285W        W29710   5.452   1.882   4.116
57286W        W29711  27.606  38.516  14.941
57287W        W29712   5.670  18.492   1.285
57288W        W29713  30.630  39.905  11.542
57289W        W29714  38.324   4.249  11.992
57290W        W29715  34.005  42.526  10.569
57291W        W29716  35.489  12.114   4.171
57292W        W29717  13.381  40.300   3.327
57293W        W29718  42.217  15.196   2.416
57294W        W29719  25.949   1.716  11.092
57295W        W29720   9.794   0.471  12.603
57296W        W29721   0.511  36.653  12.520
57297W        W29722  24.174   7.336  12.875
57298W        W29723  42.273  41.031   1.221
57299W        W29724   8.839   6.321  11.878
57300W        W29725  25.732  32.939   4.979
57301W        W29726  41.551  25.116  13.497
57302W        W29727   5.763  33.533   4.597
57303W        W29728  44.055  10.213   3.735
57304W        W29729   1.621  30.446   4.286
57305W        W29730  20.151  29.105  11.194
57306W        W29731  29.484  34.874  12.535
57307W        W29732  41.936  12.842   2.316
57308W        W29733  26.122  28.530   3.636
57309W        W29734  17.995   8.231   3.309
57310W        W29735   4.880  10.594   2.994
57311W        W29736  16.672  38.385   4.100
57312W        W29737  35.193  10.819   2.214
57313W        W29738  26.605  37.549   2.406
57314W        W29739   7.968  27.960  13.877
57315W        W29740  14.227  35.509   1.400
57316W        W29741  41.048  19.605  12.529
57317W        W29742  22.525  39.956   0.357
57318W        W29743  10.454  13.828   1.742
57319W        W29744  23.213   4.930  11.155
57320W        W29745  42.758  33.982   3.676
57321W        W29746  20.801  26.372  12.496
57322W        W29747  32.902  42.288  13.943
57323W        W29748  38.787  23.178   2.750
57324W        W29749  21.596  20.235   1.842
57325W        W29750   4.013  12.173  12.810
57326W        W29751   7.786  14.195  13.777
57327W        W29752  42.934  22.607  11.960
57328W        W29753   9.418  15.825   4.237
57329W        W29754  39.767  33.054   4.641
57330W        W29755  17.773  27.255   2.721
57331W        W29756  44.002  38.833   0.866
57332W        W29757   6.243  17.782   3.390
57333W        W29758  28.070   1.766   3.825
57334W        W29759   5.811   8.072  13.912
57335W        W29760  25.623  19.997   0.265
57336W        W29761  41.140   0.886   4.218
57337W        W29762  20.790  22.256  14.006
57338W        W29763   8.981  27.438  12.240
57339W        W29764  40.786  27.282   3.272
57340W        W29765  22.080  29.696   2.479
57341W        W29766   5.735  44.964  14.912
57342W        W29767   7.798  43.457   1.288
57343W        W29768   3.908  38.504  12.293
57344W        W29769   2.438  11.669   5.056
57345W        W29770  11.676  31.598   1.009
57346W        W29771  18.211  30.665  11.621
57347W        W29772   5.268  24.589  11.257
57348W        W29773  13.912  15.285  12.326
57349W        W29774   4.833  32.471  14.081
57350W        W29775  36.358  10.408   2.628
57351W        W29776  38.036  42.498   0.483
57352W        W29777  29.404   5.325  13.489
57353W        W29778  38.304  19.259  12.480
57354W        W29779   4.437  18.049  11.985
57355W        W29780  36.329  40.344   0.382
57356W        W29781  42.033   3.132   0.244
57357W        W29782  11.864  10.613  13.085
57358W        W29783   1.084  24.959  11.183
57359W        W29784  35.062  44.013   1.835
57360W        W29785  38.378  44.437  14.432
57361W        W29786  33.920  17.613  11.587
57362W        W29787  18.816  24.990   1.739
57363W        W29788  28.623  27.046   1.877
57364W        W29789   5.281  16.949  10.848
57365W        W29790   1.615  14.023   4.187
57366W        W29791  29.108  24.175   4.276
57367W        W29792  22.104  20.744  11.518
57368W        W29793  12.340  23.398  14.697
57369W        W29794  38.713  38.966  14.983
57370W        W29795  33.709  22.465  11.448
57371W        W29796   5.853  35.671  12.379
57372W        W29797  22.883  42.548  12.827
57373W        W29798  31.499   8.258   1.360
57374W        W29799  13.891  40.326  10.531
57375W        W29800  23.970  11.730  12.047
57376W        W29801   7.814   7.758   4.802
57377W        W29802  17.841  15.388   2.668
57378W        W29803   6.390  38.785  14.832
57379W        W29804  32.759  11.878  11.066
57380W        W29805  40.890  35.864   1.919
57381W        W29806  23.583  32.719  13.335
57382W        W29807  14.669  19.745   1.394
57383W        W29808  13.767  28.727   0.391
57384W        W29809  23.261  34.163   4.592
57385W        W29810  36.826  43.892  14.367
57386W        W29811  40.504  36.586  14.836
57387W        W29812  38.944  19.150   2.920
57388W        W29813  11.207  27.594  14.320
57389W        W29814  14.012  21.047  10.878
57390W        W29815  13.629  25.882   9.587
57391W        W29816   2.556  27.576  13.001
57392W        W29817  20.686  21.028   1.949
57393W        W29818  25.232  31.164  13.963
57394W        W29819   3.831  17.597  12.964
57395W        W29820   6.378  19.740  11.463
57396W        W29821   1.263   1.829   0.878
57397W        W29822   3.767  35.187   0.281
57398W        W29823   6.630  30.391  10.799
57399W        W29824  41.347  32.942   3.710
57400W        W29825  24.419   1.384  14.889
57401W        W29826  36.564  39.433   1.898
57402W        W29827  13.073   0.722  12.473
57403W        W29828  30.159  15.840  11.479
57404W        W29829  33.525  16.680   4.056
57405W        W29830  26.229   3.777   1.776
57406W        W29831  36.916  16.161   3.412
57407W        W29832  16.938   4.736  10.657
57408W        W29833  36.432  37.248   2.638
57409W        W29834  43.852  18.292   0.005
57410W        W29835   0.832   9.350  12.189
57411W        W29836  37.371   2.158  12.130
57412W        W29837   0.415   7.313  11.575
57413W        W29838  16.773  36.894  12.652
57414W        W29839   2.843  30.660   0.160
57415W        W29840  43.979  18.187   0.492
57416W        W29841  11.447  13.036   1.396
57417W        W29842  25.661  27.894  13.067
57418W        W29843  27.027  38.107  12.946
57419W        W29844  25.994  13.914   1.957
57420W        W29845   1.066  44.534  11.238
57421W        W29846   6.854  10.183   5.002
57422W        W29847  40.355   6.683   1.708
57423W        W29848  27.396  20.190   4.595
57424W        W29849   3.279  21.674   1.246
57425W        W29850  13.777  30.170   2.929
57426W        W29851   8.443  14.051  12.930
57427W        W29852  14.696  11.758   3.206
57428W        W29853  23.606  37.470   2.375
57429W        W29854   0.249  25.128   4.527
57430W        W29855  35.111  14.201   0.398
57431W        W29856   3.139  38.947  12.236
57432W        W29857  13.159  34.940  11.713
57433W        W29858  16.871  20.596   0.245
57434W        W29859  13.673  40.908   0.285
57435W        W29860  17.571  19.319  10.484
57436W        W29861  32.937  32.286   3.588
57437W        W29862   2.217  30.065  11.021
57438W        W29863  12.816   2.726   0.174
57439W        W29864   2.979  21.304  12.338
57440W        W29865  44.755  22.218   0.767
57441W        W29866   1.230  42.918  14.014
57442W        W29867  28.530  39.987  13.855
57443W        W29868  24.052   4.859  13.094
57444W        W29869   5.199  19.076  10.779
57445W        W29870   1.816  37.031   0.408
57446W        W29871   4.870  43.664   3.175
57447W        W29872   0.794  39.110   3.841
57448W        W29873  41.304   6.724   2.594
57449W        W29874  44.716  21.506   1.306
57450W        W29875  44.798   2.163  11.120
57451W        W29876  10.243   1.429   4.662
57452W        W29877  33.923  37.097  11.127
57453W        W29878  16.758  31.699  12.094
57454W        W29879  34.177   5.319   1.252
57455W        W29880   8.287  13.983  13.908
57456W        W29881  35.656  27.738  13.479
57457W        W29882   2.635   0.538   2.362
57458W        W29883  38.965  36.603   4.233
57459W        W29884  10.447   0.935   1.307
57460W        W29885  26.413  26.725  11.721
57461W        W29886  10.746  10.814  11.108
57462W        W29887  39.791  31.961  12.824
57463W        W29888  16.034   7.487  14.021
57464W        W29889  21.304  22.149  14.382
57465W        W29890   7.900  22.662   3.268
57466W        W29891  10.354  33.756  12.004
57467W        W29892  23.996  38.807   1.264
57468W        W29893   2.485  17.226  13.766
57469W        W29894  16.713  43.446  11.297
57470W        W29895   5.405  26.990  12.995
57471W        W29896   0.708  33.305  10.982
57472W        W29897  43.630   3.732   4.653
57473W        W29898  27.096  28.927  11.452
57474W        W29899  31.565  18.315  10.221
57475W        W29900  28.558  42.241   1.222
57476W        W29901  40.259  12.754  11.992
57477W        W29902  38.941  29.122  10.346
57478W        W29903  38.442  25.158  12.438
57479W        W29904  28.193  29.552  13.947
57480W        W29905  24.185  37.463   4.674
57481W        W29906   3.986  21.222   3.850
57482W        W29907   8.761   6.273  12.882
57483W        W29908  14.371  28.066   3.783
57484W        W29909  33.881  41.441  11.494
57485W        W29910  41.443  22.461  14.689
57486W        W29911  42.910  41.946   0.205
57487W        W29912   7.182  18.526  12.020
57488W        W29913  41.904  13.804  11.649
57489W        W29914  26.539   6.303   0.686
57490W        W29915   3.400  38.867  11.218
57491W        W29916  19.650  27.967   3.415
57492W        W29917  36.571  17.066   4.939
57493W        W29918  15.060  17.612   1.754
57494W        W29919  23.481  37.169  13.949
57495W        W29920  35.636   1.063  13.576
57496W        W29921  34.598  30.608  14.870
57497W        W29922  35.319  10.817  14.019
57498W        W29923  28.556  22.331  14.550
57499W        W29924   3.982  24.658   3.692
57500W        W29925  42.303  26.415  14.908
57501W        W29926  12.320  12.826   4.631
57502W        W29927  44.305  38.066  14.755
57503W        W29928  36.890  43.831  10.648
57504W        W29929  23.783   7.230   1.667
57505W        W29930  41.926  13.276   2.621
57506W        W29931  37.813  15.990   3.557
57507W        W29932  40.676  41.819   2.613
57508W        W29933  20.676  30.168   3.424
57509W        W29934  13.748  12.071   3.203
57510W        W29935   9.124   5.464  11.581
57511W        W29936  41.471  23.772  14.430
57512W        W29937  24.161  12.670   0.620
57513W        W29938  23.255  26.603   4.413
57514W        W29939   8.163  14.281   4.675
57515W        W29940  17.201  30.273   3.033
57516W        W29941  33.508  29.454  10.752
57517W        W29942  15.810   5.889  11.131
57518W        W29943  37.340   1.443   4.707
57519W        W29944  14.150  33.889   1.777
57520W        W29945  17.210   3.268  14.990
57521W        W29946  29.556  10.691  13.845
57522W        W29947   6.652  20.669   3.857
57523W        W29948  39.133   7.139   2.626
57524W        W29949  26.463  21.568  14.800
57525W        W29950  42.433  29.346  12.490
57526W        W29951  23.488  44.532  10.612
57527W        W29952  20.596  30.495   1.737
57528W        W29953  41.922  26.049   3.664
57529W        W29954   4.694  25.649   3.436
57530W        W29955  15.525  27.041   4.106
57531W        W29956   8.662   4.895  14.372
57532W        W29957  34.531   4.190  11.733
57533W        W29958   1.958   3.461   5.309
57534W        W29959  16.664   8.695  14.922
57535W        W29960  13.872  28.469  12.128
57536W        W29961  44.200  21.486  14.443
57537W        W29962  24.199  10.117  11.025
57538W        W29963   1.987   9.671   3.213
57539W        W29964  41.352  43.470  13.995
57540W        W29965   2.130   0.457  10.118
57541W        W29966   8.213  38.263  14.746
57542W        W29967  33.953  23.669  12.974
57543W        W29968  36.955   9.893  10.548
57544W        W29969  18.722   1.957  10.290
57545W        W29970   4.954  22.030   3.831
57546W        W29971  35.123  38.020   3.726
57547W        W29972  20.690  30.062  14.453
57548W        W29973  32.868  24.685  14.552
57549W        W29974  21.599  23.517   0.136
57550W        W29975  20.260   1.046  10.480
57551W        W29976  23.668  10.176   1.682
57552W        W29977  16.474  28.104  11.180
57553W        W29978  17.797   8.191  10.745
57554W        W29979  31.049  13.774   4.310
57555W        W29980   2.509   1.377  13.381
57556W        W29981   4.648   4.005  10.017
57557W        W29982  40.860  21.709  12.970
57558W        W29983  10.007   1.384   4.183
57559W        W29984  27.756  33.126   3.649
57560W        W29985   3.909  35.359  14.794
57561W        W29986  18.232  22.302   1.782
57562W        W29987  42.851  10.690   0.680
57563W        W29988  10.249  29.069  10.564
57564W        W29989  22.894   1.219  14.753
57565W        W29990  19.767  30.399   1.380
57566W        W29991  38.814   5.465   1.352
57567W        W29992   2.680  14.537   1.723
57568W        W29993  36.920  40.025  11.203
57569W        W29994  34.539  40.445   0.717
57570W        W29995  19.319  36.447   3.173
57571W        W29996  24.896  21.278  12.348
57572W        W29997   2.226  26.369   2.885
57573W        W29998  15.802  39.028   1.748
57574W        W29999  31.054   8.604  13.968
57575W        W30000  23.312  15.668  13.142
57576W        W30001  42.879  44.687   2.329
57577W        W30002  26.023  34.495   4.030
57578W        W30003   4.206  34.147   2.264
57579W        W30004   4.504  21.701   3.217
57580W        W30005   7.927  19.780   5.084
57581W        W30006  29.925  20.979   2.794
57582W        W30007  39.910  19.573   3.614
57583W        W30008   7.834  44.954  13.497
57584W        W30009  14.716   9.796  10.777
57585W        W30010   4.452  28.075  11.594
57586W        W30011   7.112   0.245  12.555
57587W        W30012   0.986  25.255  10.782
57588W        W30013  10.174  35.220   0.848
57589W        W30014   8.667   1.693  12.468
57590W        W30015  20.623  14.518  11.394
57591W        W30016  29.613  32.378   2.323
57592W        W30017  39.110  33.295  10.603
57593W        W30018   4.447  41.311   5.012
57594W        W30019   1.693  28.115   4.040
57595W        W30020   6.708  10.420   4.540
57596W        W30021   0.939  34.915  13.747
57597W        W30022  16.117  17.513   3.680
57598W        W30023   7.404  38.338   2.335
57599W        W30024   7.338  31.228   1.776
57600W        W30025  22.515   4.308  11.658
57601W        W30026  34.824  36.305  12.907
57602W        W30027  36.424   7.795   0.344
57603W        W30028  29.131  19.217   3.473
57604W        W30029   2.004  26.767  10.386
57605W        W30030  16.829  21.434  12.961
57606W        W30031  10.658  27.087   1.268
57607W        W30032  17.465   0.231  12.955
57608W        W30033  28.975  19.572  13.959
57609W        W30034   8.133  42.459   4.509
57610W        W30035  10.235  34.788  13.348
57611W        W30036  17.714  10.130   2.116
57612W        W30037   0.411  16.142   2.899
57613W        W30038  19.823  29.181  10.768
57614W        W30039   5.416  27.883  13.468
57615W        W30040  28.538  30.919  14.017
57616W        W30041  27.369  33.667   1.118
57617W        W30042  13.339  34.025  12.137
57618W        W30043  11.126  27.357  11.621
57619W        W30044   6.781  11.733  12.323
57620W        W30045   7.356   5.866   4.382
57621W        W30046   4.425  42.295   3.003
57622W        W30047  20.412  11.106  14.184
57623W        W30048   4.911  34.501  11.642
57624W        W30049  27.037   2.799   1.853
57625W        W30050  18.606  37.396   3.688
57626W        W30051   0.314  22.092   1.504
57627W        W30052  43.879  10.189  14.457
57628W        W30053  12.089  38.917   2.216
57629W        W30054  25.136  30.795   0.890
57630W        W30055  29.157  27.088  12.094
57631W        W30056  32.130  28.535   2.049
57632W        W30057  29.451   1.225  11.163
57633W        W30058  24.096   0.221  12.413
57634W        W30059  36.749  20.641  13.707
57635W        W30060  30.521  43.437  11.413
57636W        W30061  39.808  37.557   5.135
57637W        W30062  16.649  27.127   0.698
57638W        W30063   7.987  35.005  13.420
57639W        W30064  31.709  37.808  13.522
57640W        W30065  36.841   3.992  14.336
57641W        W30066  29.708  15.674   0.072
57642W        W30067   8.376   5.256   2.723
57643W        W30068   2.537  31.893   1.817
57644W        W30069   2.019  38.658  13.433
57645W        W30070   6.234  38.201  10.973
57646W        W30071  30.647  20.979  11.122
57647W        W30072   0.962  17.235   0.344
57648W        W30073   1.283  14.569   2.729
57649W        W30074  10.608  38.522   4.278
57650W        W30075  16.123   4.507  11.889
57651W        W30076  17.508   5.194  11.660
57652W        W30077  21.659   9.925   2.243
57653W        W30078  34.377  13.170   3.387
57654W        W30079  30.001  14.310   3.098
57655W        W30080  31.828  15.671   4.304
57656W        W30081  43.447   2.327  10.976
57657W        W30082  42.878   7.618   0.189
57658W        W30083  30.556   9.281   1.694
57659W        W30084   2.258   2.823   4.142
57660W        W30085  42.288  17.258   4.077
57661W        W30086   9.668  42.317  12.560
57662W        W30087  43.903  20.645  14.422
57663W        W30088   6.807  40.307   4.597
57664W        W30089   1.710  12.592  13.603
57665W        W30090  23.227  36.869   4.083
57666W        W30091   3.334  25.512  14.464
57667W        W30092  32.137  25.148  10.582
57668W        W30093  32.893  15.147  14.623
57669W        W30094   9.641  26.150   2.868
57670W        W30095   4.639  27.525   3.152
57671W        W30096   5.412   4.554   3.721
57672W        W30097   7.665  10.712  10.538
57673W        W30098   8.091  17.290  10.705
57674W        W30099  32.076   5.663  12.819
57675W        W30100   4.408  28.121   2.301
57676W        W30101  25.529  36.139  14.992
57677W        W30102  29.102   7.358  10.941
57678W        W30103  39.306  13.770  12.849
57679W        W30104   9.316  16.191  10.869
57680W        W30105  19.178  26.952  13.593
57681W        W30106   3.795  16.325   2.262
57682W        W30107  31.147  14.324  11.119
57683W        W30108  44.418  13.438   2.304
57684W        W30109  33.174   0.350  12.555
57685W        W30110  15.516  10.954   0.953
57686W        W30111   0.856  11.573   4.156
57687W        W30112  32.137  21.597  13.330
57688W        W30113   3.624  10.605   2.318
57689W        W30114  18.731   9.849  12.836
57690W        W30115  40.954  11.398   4.187
57691W        W30116  18.511  37.959  14.403
57692W        W30117  42.058   5.706  11.298
57693W        W30118  12.821   4.670   0.718
57694W        W30119  29.106  14.082  12.343
57695W        W30120  22.538  23.941   0.280
57696W        W30121  20.144  17.165   2.150
57697W        W30122  14.081  12.182  11.662
57698W        W30123  40.993  30.097  10.734
57699W        W30124   2.202  40.264  13.626
57700W        W30125  42.291  27.223  14.396
57701W        W30126  37.496  37.594  12.115
57702W        W30127   3.745  16.655  11.942
57703W        W30128  42.317  16.522  14.006
57704W        W30129  41.868  23.929   0.521
57705W        W30130  34.058  27.876  14.388
57706W        W30131  14.365  43.038  10.977
57707W        W30132  18.686  38.281   3.295
57708W        W30133  28.450   8.683   4.250
57709W        W30134  17.983   0.719  11.939
57710W        W30135  29.380   2.511   2.848
57711W        W30136  10.557  32.403   2.811
57712W        W30137   7.501  21.640  11.291
57713W        W30138   0.359  21.322   2.777
57714W        W30139  15.690  41.915  14.211
57715W        W30140  27.820  30.987  12.894
57716W        W30141  29.858  31.125  13.274
57717W        W30142  32.517  39.679  12.562
57718W        W30143  21.548  44.231  12.136
57719W        W30144  13.693  13.099  12.544
57720W        W30145  24.066  32.789  11.097
57721W        W30146  12.874  34.897  13.471
57722W        W30147  33.820  38.751   0.972
57723W        W30148  26.776   6.267   1.187
57724W        W30149  36.503  43.721  12.076
57725W        W30150  28.450  37.522   1.802
57726W        W30151  32.095  42.358  12.981
57727W        W30152  25.195  36.321  11.208
57728W        W30153  42.939  12.741   2.640
57729W        W30154  13.475   8.121  11.189
57730W        W30155  24.556   8.749  12.066
57731W        W30156  18.629  28.279   4.931
57732W        W30157   1.420  30.975  14.982
57733W        W30158  29.422  33.042   1.378
57734W        W30159  16.250   6.427  10.638
57735W        W30160  44.913  10.441  14.833
57736W        W30161  16.047  24.134  10.178
57737W        W30162  27.079  26.178   3.335
57738W        W30163  43.904  33.930  10.975
57739W        W30164  30.414   5.304  12.591
57740W        W30165  22.765  40.348  13.663
57741W        W30166  15.001  20.601   2.901
57742W        W30167  35.287  34.842   1.787
57743W        W30168  30.020  16.979   9.785
57744W        W30169  10.552   3.844  12.985
57745W        W30170  15.666  18.968   2.035
57746W        W30171   4.243  11.703   3.191
57747W        W30172  32.642  19.179   2.593
57748W        W30173  20.603  19.153   0.309
57749W        W30174  15.352  20.599  13.051
57750W        W30175  39.068   0.649   2.300
57751W        W30176   0.894  15.723  14.478
57752W        W30177  44.718  42.636  11.178
57753W        W30178  41.989   7.701   0.231
57754W        W30179  36.570  15.873  12.132
57755W        W30180  39.594  17.648  10.666
57756W        W30181   2.765  40.122  12.131
57757W        W30182  35.772  33.482  14.922
57758W        W30183  42.382  21.676   2.417
57759W        W30184  36.320  14.588   4.173
57760W        W30185  25.077  18.784  12.783
57761W        W30186  34.468  13.837   0.170
57762W        W30187  42.378  21.713   0.718
57763W        W30188  31.581  33.160   1.301
57764W        W30189   0.785  19.297  11.982
57765W        W30190  21.695  25.046  11.934
57766W        W30191  20.705   9.339   0.964
57767W        W30192  14.079   0.760  11.222
57768W        W30193  42.445  14.804  14.793
57769W        W30194   9.567  21.447   4.206
57770W        W30195  17.110  33.505  14.565
57771W        W30196  32.318  40.358   1.118
57772W        W30197  30.151  32.581  10.661
57773W        W30198  12.567   6.973  13.589
57774W        W30199   5.937  24.181   1.382
57775W        W30200  40.304   1.982  11.138
57776W        W30201   4.262   6.183  12.633
57777W        W30202   1.998  21.116   0.054
57778W        W30203  11.869  40.505  13.389
57779W        W30204   6.941  41.765  13.339
57780W        W30205   1.531  36.067   4.143
57781W        W30206   1.500  11.273   3.102
57782W        W30207  41.452  26.769  13.901
57783W        W30208   6.178  33.512   0.803
57784W        W30209  25.518  20.496   0.441
57785W        W30210   5.656  33.356   0.309
57786W        W30211  41.606  43.929  13.923
57787W        W30212  39.417  28.693   3.438
57788W        W30213  24.174  33.235  11.995
57789W        W30214  35.940  22.299   1.488
57790W        W30215  32.668  33.497   3.326
57791W        W30216  21.765  21.995   0.564
57792W        W30217   8.180  20.570   0.878
57793W        W30218  30.664  30.407   0.381
57794W        W30219  26.178  37.784  13.470
57795W        W30220   7.459   6.732   0.292
57796W        W30221  39.343  24.860  10.479
57797W        W30222   9.718  15.741   4.744
57798W        W30223  39.316  24.094   1.338
57799W        W30224   4.320  31.032   4.129
57800W        W30225  30.247  12.135  14.043
57801W        W30226  42.994  17.150   2.797
57802W        W30227  24.972   3.072   5.255
57803W        W30228  27.456  39.830   4.151
57804W        W30229   0.051  36.042  14.778
57805W        W30230  34.068  29.065  11.208
57806W        W30231  42.546  16.865   1.275
57807W        W30232  15.771  20.269   2.605
57808W        W30233  17.720  14.890  10.861
57809W        W30234  29.804  41.291  13.390
57810W        W30235  16.351  15.218  11.220
57811W        W30236  18.275   4.365   1.682
57812W        W30237  40.752   9.630  13.331
57813W        W30238  28.863  23.188   4.403
57814W        W30239  25.649  15.822  10.757
57815W        W30240   6.360  12.487  11.481
57816W        W30241  13.362  11.828   0.896
57817W        W30242  28.168  27.157  11.862
57818W        W30243  27.828  24.662   2.656
57819W        W30244  44.897  13.101   2.967
57820W        W30245  41.834   3.061  14.692
57821W        W30246  37.419  21.191   1.908
57822W        W30247  26.109  32.868  13.977
57823W        W30248  16.164  35.041   4.316
57824W        W30249  13.698  28.215  10.914
57825W        W30250  26.658  18.715  12.597
57826W        W30251  41.153   8.213  10.648
57827W        W30252   5.604  28.670   2.138
57828W        W30253  12.250   6.897   0.740
57829W        W30254  16.087  26.451   0.063
57830W        W30255  26.470   8.698   2.153
57831W        W30256  27.036   0.730   2.684
57832W        W30257  16.367  13.190   2.318
57833W        W30258  42.924  11.817   3.724
57834W        W30259  17.700   1.550  12.914
57835W        W30260  37.865  30.319  11.233
57836W        W30261  16.860  27.052  11.485
57837W        W30262  27.557  14.229   4.539
57838W        W30263  24.896  44.783  13.260
57839W        W30264  10.636  37.642  12.489
57840W        W30265   2.733  38.985   4.040
57841W        W30266   0.557  20.280  14.318
57842W        W30267  25.753   7.332   3.734
57843W        W30268  19.672  25.604   2.024
57844W        W30269  10.790   3.439  10.725
57845W        W30270   5.927   5.238   2.859
57846W        W30271  25.262   4.215   1.758
57847W        W30272  13.080   4.891  12.788
57848W        W30273  19.631  32.623  13.072
57849W        W30274  21.137   9.311   3.301
57850W        W30275   3.400  22.281  13.912
57851W        W30276  41.859   9.450   4.651
57852W        W30277  31.223  33.028   1.640
57853W        W30278   7.819  38.490  10.643
57854W        W30279   9.760  38.087   0.976
57855W        W30280  13.241  41.836   3.398
57856W        W30281  21.609   4.508  11.634
57857W        W30282  28.810  13.821   2.121
57858W        W30283  18.185  14.433   1.233
57859W        W30284  33.043  19.501   0.000
57860W        W30285  30.603  17.103   0.432
57861W        W30286  34.497  34.117   3.185
57862W        W30287  21.633  20.519  11.536
57863W        W30288  20.853  30.418  12.009
57864W        W30289  37.146  33.905   4.069
57865W        W30290   2.845  36.374   2.761
57866W        W30291  26.103  38.576  10.891
57867W        W30292  22.464  20.978  14.422
57868W        W30293  17.139  10.545   0.720
57869W        W30294  32.055   7.382  11.110
57870W        W30295  29.659   0.504  10.710
57871W        W30296   9.376   5.695  14.240
57872W        W30297   5.759   9.603  11.088
57873W        W30298  20.866  31.388   0.274
57874W        W30299  19.616  20.297  13.656
57875W        W30300  18.314  19.466  12.707
57876W        W30301  13.367  34.537   4.845
57877W        W30302   8.367  35.034   4.345
57878W        W30303  34.785  42.444  12.090
57879W        W30304  18.711  22.529  13.764
57880W        W30305  34.759  31.570   0.001
57881W        W30306  19.602  38.811   0.340
57882W        W30307  28.123  42.648   2.892
57883W        W30308  18.730  40.092   2.539
57884W        W30309   6.811  24.699  12.367
57885W        W30310  10.331   4.304  13.832
57886W        W30311  14.292  34.846   3.709
57887W        W30312  32.311  30.347   0.702
57888W        W30313  27.657  29.385  13.001
57889W        W30314  36.165  35.587   0.775
57890W        W30315  31.448  16.005  14.010
57891W        W30316   4.265   6.358  10.959
57892W        W30317   2.731  19.826  14.351
57893W        W30318  26.390  22.140   1.384
57894W        W30319  32.922  26.008  11.199
57895W        W30320  28.913  22.482  11.567
57896W        W30321  14.379  34.811  11.071
57897W        W30322  35.171  41.013   2.720
57898W        W30323  23.989  31.620   1.860
57899W        W30324   5.769  33.180   0.801
57900W        W30325   3.132   0.156  14.409
57901W        W30326   0.336   7.712  12.493
57902W        W30327  29.040  26.424   2.792
57903W        W30328  23.569  17.736   2.422
57904W        W30329   9.331   0.435   1.299
57905W        W30330  25.151  33.604   0.924
57906W        W30331  39.574  37.968  10.569
57907W        W30332  18.111  19.266  14.887
57908W        W30333   7.566  22.539  11.139
57909W        W30334   4.248  17.022  11.963
57910W        W30335  26.100  24.633  12.188
57911W        W30336  20.132  25.884   2.710
57912W        W30337  40.436  26.067  11.300
57913W        W30338   2.768  28.142  12.074
57914W        W30339  44.847  32.624   1.743
57915W        W30340  16.004  33.841   3.575
57916W        W30341  38.824   5.448  14.812
57917W        W30342   5.641   8.815   3.722
57918W        W30343  35.523   2.310  14.868
57919W        W30344   4.853  17.581   4.154
57920W        W30345  37.927  44.210   4.324
57921W        W30346  14.974  25.683  12.466
57922W        W30347  26.532  15.836  11.248
57923W        W30348  17.284   2.040   1.918
57924W        W30349  42.037  22.651   2.219
57925W        W30350   2.880  39.296  10.600
57926W        W30351  21.702   6.506  11.555
57927W        W30352  15.011  20.593   4.117
57928W        W30353  14.334  21.195   9.878
57929W        W30354  39.984  37.897  13.975
57930W        W30355  32.030  21.687   1.289
57931W        W30356  36.873  14.130  13.381
57932W        W30357  40.501  27.644  14.648
57933W        W30358  35.112   2.943   1.287
57934W        W30359  29.151  26.814   1.433
57935W        W30360  34.210   2.207  10.528
57936W        W30361  14.345  15.379   2.374
57937W        W30362  12.794  19.621  14.918
57938W        W30363  10.269  28.834   4.294
57939W        W30364  36.184  26.012   1.811
57940W        W30365   5.168   9.219  12.979
57941W        W30366   1.082  43.278  14.840
57942W        W30367  23.766  40.470   0.342
57943W        W30368   1.786  31.943  14.863
57944W        W30369  35.760  19.527   2.656
57945W        W30370  31.699  25.632  11.426
57946W        W30371   5.880  27.211  12.198
57947W        W30372  26.153   7.148   4.691
57948W        W30373  12.824  32.669  14.916
57949W        W30374   3.178  39.029  12.792
57950W        W30375   9.897  41.820   3.698
57951W        W30376  25.766   2.859   2.372
57952W        W30377   1.845  32.944   1.371
57953W        W30378  17.301  24.124   0.230
57954W        W30379  28.993  13.148  11.443
57955W        W30380  41.209  27.624   3.239
57956W        W30381  20.380  30.269  10.627
57957W        W30382  12.634  44.499  11.253
57958W        W30383  25.777  16.597  12.337
57959W        W30384  12.088  44.253   0.309
57960W        W30385   4.319  28.213   0.419
57961W        W30386   8.738   4.311   2.333
57962W        W30387  14.975  18.199  14.110
57963W        W30388  42.274  43.947  10.511
57964W        W30389  34.614  27.464  13.919
57965W        W30390  29.990   3.839  11.684
57966W        W30391  21.010  40.993  11.127
57967W        W30392   4.154   2.313   3.805
57968W        W30393  20.315  27.546  10.749
57969W        W30394  44.588  17.097   1.642
57970W        W30395   7.509  33.989   0.929
57971W        W30396  25.539  10.754   4.481
57972W        W30397  33.054  12.846  14.356
57973W        W30398  26.898  14.893  13.091
57974W        W30399   2.804  14.165  12.849
57975W        W30400   1.224  14.796  13.899
57976W        W30401  35.545   7.500   0.377
57977W        W30402  23.212  32.634  14.670
57978W        W30403  18.771  19.650   2.807
57979W        W30404  12.820  37.786  11.100
57980W        W30405  42.891   9.849  14.488
57981W        W30406  38.457  21.564   0.757
57982W        W30407  10.982  41.497   3.223
57983W        W30408  35.907   5.715  10.684
57984W        W30409   4.659  40.475  12.365
57985W        W30410   0.441  42.749   0.685
57986W        W30411   3.678  22.020  14.570
57987W        W30412  26.387   3.192   4.674
57988W        W30413  44.321   0.448  11.069
57989W        W30414  29.205   8.242   4.499
57990W        W30415  30.891  14.044  14.561
57991W        W30416  32.124  26.091   4.628
57992W        W30417  13.198  44.125   2.884
57993W        W30418   9.814  27.381   0.941
57994W        W30419   2.793   6.736   3.579
57995W        W30420  29.535   7.317   3.695
57996W        W30421  41.115  35.116  14.068
57997W        W30422   8.283  17.064   4.157
57998W        W30423  24.595  29.186  12.653
57999W        W30424  42.931  28.019  13.364
58000W        W30425  31.921  10.891   3.166
58001W        W30426  32.361  18.649   2.143
58002W        W30427  40.900  14.366   4.646
58003W        W30428  38.563  37.949   2.253
58004W        W30429   2.741   7.722  12.484
58005W        W30430  18.032  11.141  11.130
58006W        W30431  44.975  37.924   4.689
58007W        W30432  12.097  32.256  13.072
58008W        W30433  32.066  17.809   4.634
58009W        W30434   2.224  17.998  11.980
58010W        W30435   7.808  44.432   1.515
58011W        W30436  43.825  16.040  12.442
58012W        W30437  23.742  22.683  12.624
58013W        W30438  18.878  30.056   4.103
58014W        W30439  32.215   4.093  14.002
58015W        W30440  34.461  42.061   2.334
58016W        W30441  18.156   5.708   2.719
58017W        W30442  10.009  14.721  13.919
58018W        W30443   7.187  27.077   4.057
58019W        W30444   3.779  38.408   3.812
58020W        W30445  39.601   6.461   2.825
58021W        W30446  34.699  24.695  13.747
58022W        W30447  35.822   3.506  11.588
58023W        W30448  10.385  26.444  11.752
58024W        W30449   7.225   7.957  12.801
58025W        W30450  40.875  27.567  13.338
58026W        W30451  28.385  35.658  12.152
58027W        W30452  43.511  15.331  11.113
58028W        W30453   0.130  42.279  11.988
58029W        W30454   6.387  34.384  11.530
58030W        W30455  11.388  25.759   3.791
58031W        W30456   2.746   2.329  10.650
58032W        W30457   8.490  24.052  13.972
58033W        W30458   1.185  21.419  12.009
58034W        W30459   6.944  24.741   2.723
58035W        W30460  20.128  11.921   3.645
58036W        W30461   1.897  28.159  13.072
58037W        W30462  42.264  11.892   1.877
58038W        W30463   5.381  30.442  11.199
58039W        W30464  33.205  17.244  12.091
58040W        W30465  32.010  42.730   2.348
58041W        W30466  38.541   3.909  13.421
58042W        W30467  23.492   4.907   0.221
58043W        W30468  42.609  20.482  14.029
58044W        W30469  22.669  20.714   0.036
58045W        W30470  26.164  16.760  11.529
58046W        W30471  36.357  31.100  11.866
58047W        W30472  25.798  43.549  14.012
58048W        W30473  42.477  39.264   0.115
58049W        W30474  31.404  26.718   0.225
58050W        W30475  26.845  25.678   4.746
58051W        W30476  24.680  34.320  10.401
58052W        W30477  18.775   6.952   2.261
58053W        W30478  10.792  12.326  12.000
58054W        W30479  21.615  35.387  13.054
58055W        W30480  26.786  17.209  10.692
58056W        W30481   8.423  36.989   3.441
58057W        W30482   8.410   2.762   4.556
58058W        W30483   3.423  23.030   0.493
58059W        W30484  32.886  10.692   3.512
58060W        W30485  20.590  30.861   9.781
58061W        W30486  29.222  32.066  13.968
58062W        W30487   1.121  13.322   2.183
58063W        W30488   6.684  39.452  12.581
58064W        W30489  23.718  27.656   2.854
58065W        W30490   8.266  38.886   5.017
58066W        W30491  30.158  27.107  13.508
58067W        W30492  29.877  33.408   2.641
58068W        W30493  36.041  13.378  14.186
58069W        W30494  20.706  41.421   0.282
58070W        W30495  27.491  36.570  10.635
58071W        W30496  10.832  42.356  12.830
58072W        W30497  36.445  13.314   4.698
58073W        W30498  38.952  38.466   2.942
58074W        W30499   9.778  10.345  12.359
58075W        W30500   4.784   1.995   1.923
58076W        W30501  29.596   4.344   1.274
58077W        W30502  42.896   4.478   5.009
58078W        W30503  37.427  39.003   2.942
58079W        W30504   6.413  15.208   4.415
58080W        W30505  16.164  31.125  14.904
58081W        W30506  29.685   4.865  10.094
58082W        W30507  37.395  33.423   1.277
58083W        W30508  10.022  36.205   5.242
58084W        W30509  33.676  30.668  11.894
58085W        W30510  44.145  12.661   1.440
58086W        W30511  25.103  24.844   4.572
58087W        W30512  11.205  15.530   1.468
58088W        W30513  32.518  35.674   0.406
58089W        W30514  32.005  29.562   4.774
58090W        W30515  38.368   8.893  11.894
58091W        W30516  20.339  14.393   0.277
58092W        W30517  12.694   7.652  10.680
58093W        W30518  29.406  22.448  12.866
58094W        W30519  24.034  30.352   2.240
58095W        W30520   2.867   8.714  13.459
58096W        W30521  15.634  32.511  10.657
58097W        W30522  14.731  22.999   0.994
58098W        W30523  31.585  26.474  13.922
58099W        W30524  19.811  23.220   2.411
58100W        W30525   9.803  20.257   1.358
58101W        W30526  38.800   9.417   0.251
58102W        W30527  25.644  28.925   2.357
58103W        W30528  43.752  35.708   2.799
58104W        W30529  14.065   2.817   1.582
58105W        W30530  21.726  19.054  13.857
58106W        W30531  15.228   8.215  13.842
58107W        W30532  38.139  40.749  13.226
58108W        W30533  21.839   5.162   3.732
58109W        W30534  24.989  16.042   1.405
58110W        W30535  25.101  19.728  13.238
58111W        W30536  30.588  14.039  13.048
58112W        W30537   9.997  29.166  11.046
58113W        W30538  35.555  32.633   2.813
58114W        W30539   4.776  16.249  13.876
58115W        W30540   0.077   4.116  13.090
58116W        W30541   2.178  23.928  12.444
58117W        W30542  34.843   2.220  13.985
58118W        W30543  35.071  25.891   0.423
58119W        W30544  32.513  29.405   4.726
58120W        W30545  39.985  37.528   0.401
58121W        W30546  32.637  40.262  10.709
58122W        W30547  26.964  41.366  11.934
58123W        W30548  28.615  13.783  12.192
58124W        W30549  10.856  29.934   4.240
58125W        W30550  22.476  41.754  13.177
58126W        W30551  15.523  18.101   2.810
58127W        W30552  13.351  29.583   5.095
58128W        W30553  21.118  36.472  10.743
58129W        W30554  26.053  40.512   3.132
58130W        W30555  15.304  34.320  14.998
58131W        W30556  15.217   4.567  11.931
58132W        W30557  44.835  14.141   1.138
58133W        W30558  29.142  19.499  12.071
58134W        W30559   6.412  30.150   1.357
58135W        W30560   7.164  38.428  12.997
58136W        W30561  39.816   8.616  14.901
58137W        W30562  15.903   2.202   3.035
58138W        W30563  15.353  36.163   2.659
58139W        W30564   0.556  37.449   1.662
58140W        W30565   6.502   4.764   3.047
58141W        W30566  13.176  28.165  10.614
58142W        W30567  42.797  31.569  14.446
58143W        W30568  23.036  21.121   4.683
58144W        W30569  41.004  24.991  14.088
58145W        W30570   9.806   9.741  11.634
58146W        W30571   9.272  44.295   2.009
58147W        W30572   8.624  35.423   0.344
58148W        W30573  34.976   2.935   5.161
58149W        W30574  32.934  36.451   4.225
58150W        W30575  25.137  11.985   1.446
58151W        W30576  39.292  26.640   4.321
58152W        W30577  25.775  42.044  13.022
58153W        W30578  21.277  12.149  10.734
58154W        W30579  43.372   5.901  10.583
58155W        W30580   2.501   6.762   0.357
58156W        W30581  23.203  39.770  11.533
58157W        W30582  15.509  40.382   0.794
58158W        W30583  19.513   9.179   0.420
58159W        W30584  13.645  25.153   1.947
58160W        W30585   0.530   6.431  12.942
58161W        W30586  44.290  42.879  12.014
58162W        W30587   8.089   6.819  12.900
58163W        W30588  22.717  10.693   0.761
58164W        W30589  24.724  34.891   3.205
58165W        W30590  16.314   7.243  11.656
58166W        W30591  36.607  24.198   3.751
58167W        W30592  30.120   7.902   1.011
58168W        W30593   5.976  19.198  12.919
58169W        W30594  15.552   4.669  12.887
58170W        W30595   4.818  22.665  10.520
58171W        W30596  38.045  12.182  11.922
58172W        W30597  32.055  10.299   4.936
58173W        W30598   5.803  16.668   2.903
58174W        W30599   6.201  13.254  11.219
58175W        W30600   2.810  39.046   2.693
58176W        W30601  15.098  22.758  14.495
58177W        W30602   8.932  13.577  11.531
58178W        W30603  23.845  26.537   1.477
58179W        W30604  23.933   9.184  11.550
58180W        W30605   5.288  39.005  10.788
58181W        W30606  40.826  44.108   2.734
58182W        W30607  25.958   7.083   1.627
58183W        W30608  41.896  34.599  13.110
58184W        W30609  24.333  28.320  10.356
58185W        W30610  11.209  29.679  11.093
58186W        W30611  44.566  22.637   2.899
58187W        W30612  15.783   0.011   3.750
58188W        W30613  15.224  36.870  11.466
58189W        W30614  25.704  35.951   1.377
58190W        W30615  34.161   8.843   3.884
58191W        W30616  26.313  38.518  14.612
58192W        W30617  38.581   4.711   4.491
58193W        W30618  21.917  32.074   2.231
58194W        W30619   2.121  35.099   1.840
58195W        W30620  35.900  35.464  13.619
58196W        W30621   1.772  20.344   4.533
58197W        W30622  24.307  33.100   2.131
58198W        W30623  27.722  35.125   2.235
58199W        W30624  34.652  15.372   3.211
58200W        W30625  28.901  39.839   1.942
58201W        W30626  22.804   7.897  10.150
58202W        W30627  18.558  10.289  12.646
58203W        W30628  16.625   9.725  14.085
58204W        W30629   8.229  24.959   0.422
58205W        W30630  29.537  43.512   1.477
58206W        W30631  26.478  14.658   4.646
58207W        W30632  22.164  33.142  14.351
58208W        W30633   0.022  42.617  12.381
58209W        W30634  15.271  22.571  11.708
58210W        W30635   2.496  19.733  13.528
58211W        W30636   1.393  33.322   0.653
58212W        W30637   9.638  36.105   1.278
58213W        W30638  13.456  12.082  11.036
58214W        W30639   1.269  32.567   4.326
58215W        W30640  29.488   7.814   4.421
58216W        W30641  43.555  22.589  12.925
58217W        W30642   3.917  38.191   2.386
58218W        W30643  23.715   5.003  12.017
58219W        W30644  37.756   8.946  14.983
58220W        W30645  41.246  30.052  12.032
58221W        W30646  42.320  33.024  14.720
58222W        W30647   9.703  15.147  13.945
58223W        W30648  38.454   2.904  11.860
58224W        W30649  33.646   3.401  11.665
58225W        W30650  29.509   3.507   3.627
58226W        W30651  36.992   9.124   3.702
58227W        W30652  26.118  30.088  11.611
58228W        W30653   5.082  29.391   3.150
58229W        W30654   0.987  24.458  11.132
58230W        W30655  18.507   2.414   2.715
58231W        W30656  10.796  41.995  13.411
58232W        W30657  37.266  36.306   1.831
58233W        W30658  28.959  28.738   4.279
58234W        W30659   9.750  43.945   3.489
58235W        W30660  38.907   7.156  10.927
58236W        W30661  35.355  37.760  13.742
58237W        W30662  25.015  25.922   3.114
58238W        W30663  29.652  27.576  11.088
58239W        W30664   7.015  23.358  14.547
58240W        W30665  11.597  41.857  12.990
58241W        W30666  19.707  24.411   0.133
58242W        W30667  13.089   9.403  11.783
58243W        W30668  40.638  14.919   1.761
58244W        W30669  40.416  43.196  10.511
58245W        W30670   1.754  31.496  14.323
58246W        W30671   1.672   4.826  13.829
58247W        W30672   9.293  17.988  10.971
58248W        W30673   0.411  29.402   3.276
58249W        W30674  28.530  22.803  12.024
58250W        W30675   5.210  22.619   1.570
58251W        W30676  14.955  20.164  14.375
58252W        W30677  22.638  12.647  11.056
58253W        W30678  18.979  31.661   2.869
58254W        W30679   0.121  27.919  14.273
58255W        W30680  31.451  44.066  11.155
58256W        W30681  38.418  26.404   0.958
58257W        W30682  16.505  35.560  11.099
58258W        W30683  39.419  30.737   4.163
58259W        W30684  40.984  42.390  14.926
58260W        W30685  21.816  22.309  14.499
58261W        W30686   7.432   1.305  13.379
58262W        W30687  22.335  15.199   0.963
58263W        W30688  43.828  27.099  12.776
58264W        W30689  14.893   5.390  12.136
58265W        W30690  27.692  20.566  11.632
58266W        W30691   7.232  39.938  13.136
58267W        W30692  23.393  22.661   4.246
58268W        W30693  41.797  43.244   1.470
58269W        W30694  42.839   8.982  13.706
58270W        W30695  14.291   3.893   4.606
58271W        W30696  20.193  16.472  13.277
58272W        W30697  13.178  41.770   2.387
58273W        W30698   9.563  39.521  11.526
58274W        W30699  29.865  29.079   2.774
58275W        W30700  36.581  31.412  12.177
58276W        W30701  23.349   8.053   5.382
58277W        W30702  17.022  34.902  14.899
58278W        W30703  38.305  41.339   2.350
58279W        W30704  31.313  20.977  12.081
58280W        W30705   4.732  24.206  13.749
58281W        W30706   0.306  27.910   1.323
58282W        W30707   1.332  29.670  12.475
58283W        W30708  39.062  13.221  12.374
58284W        W30709  27.783  17.233  11.079
58285W        W30710  16.161  25.647  10.392
58286W        W30711  13.558  20.199   3.323
58287W        W30712  39.449  18.651  14.757
58288W        W30713  26.495   2.770  14.735
58289W        W30714  21.498  16.579   0.632
58290W        W30715  17.038   1.612   3.121
58291W        W30716  33.188   1.951   1.793
58292W        W30717  11.943  13.955   0.221
58293W        W30718   5.675   7.682   1.558
58294W        W30719  38.871  39.572  14.288
58295W        W30720  10.301  25.645   4.667
58296W        W30721   1.454  12.652   1.494
58297W        W30722  13.082  34.228   2.557
58298W        W30723   0.255  20.432  12.800
58299W        W30724  34.809  20.485  11.044
58300W        W30725  27.285  30.367   3.317
58301W        W30726  23.265   6.451   3.092
58302W        W30727  38.426  43.663  12.319
58303W        W30728  17.260  41.542   0.264
58304W        W30729  14.249  27.440   0.999
58305W        W30730   4.868  34.710   4.255
58306W        W30731  15.121  17.733   0.327
58307W        W30732   0.168  19.942  12.646
58308W        W30733   6.266  19.541  10.054
58309W        W30734  41.889   1.046  11.128
58310W        W30735  32.656  18.042   0.758
58311W        W30736  32.164   1.361  13.146
58312W        W30737   4.583  32.067  13.841
58313W        W30738  40.845  25.501  14.600
58314W        W30739  26.481  43.836   4.453
58315W        W30740   2.801  14.763   3.758
58316W        W30741  24.590  23.622   3.664
58317W        W30742  15.345  21.922   0.489
58318W        W30743  31.504   2.854  11.268
58319W        W30744  18.142  35.398  14.273
58320W        W30745  12.920  12.740  11.861
58321W        W30746  40.296   4.843   1.892
58322W        W30747  41.762   3.206   2.129
58323W        W30748  41.582  11.835   3.311
58324W        W30749   2.651  34.180  12.129
58325W        W30750  14.153   1.460  13.717
58326W        W30751  22.865  15.543   1.586
58327W        W30752  17.500  19.480   0.363
58328W        W30753  39.334   3.401  12.966
58329W        W30754  17.771  27.013   0.738
58330W        W30755  28.026  30.783  11.576
58331W        W30756  32.599  27.996  14.416
58332W        W30757   1.332  34.945  10.706
58333W        W30758   0.510   3.855  14.380
58334W        W30759   0.182  26.562   0.257
58335W        W30760  42.990  15.622  13.427
58336W        W30761  29.115  31.344  13.524
58337W        W30762  20.250  31.835   9.680
58338W        W30763   4.874  14.570  11.119
58339W        W30764  41.307  15.886   2.199
58340W        W30765  35.061   9.592  11.803
58341W        W30766  30.129  36.274   2.818
58342W        W30767  42.533  27.489   0.842
58343W        W30768   1.396  22.803  10.447
58344W        W30769  21.997  22.691   1.941
58345W        W30770  43.553  17.695  14.228
58346W        W30771  24.954  28.060  13.419
58347W        W30772  40.481  13.166  12.920
58348W        W30773  44.039  38.776  14.973
58349W        W30774  31.876  31.597   4.369
58350W        W30775  38.006  15.107   0.360
58351W        W30776   7.686  26.113  13.473
58352W        W30777  19.270  28.844   2.824
58353W        W30778   3.634  38.055  13.905
58354W        W30779  29.851  33.597   4.188
58355W        W30780   4.415  42.527  12.087
58356W        W30781  21.612   5.269  14.473
58357W        W30782  31.504  30.061  14.295
58358W        W30783   7.788   9.885  13.063
58359W        W30784   2.840  26.448   0.652
58360W        W30785   7.280  16.314  13.883
58361W        W30786  28.681  34.508  12.416
58362W        W30787  39.468  41.973   9.775
58363W        W30788  40.041  30.692  13.033
58364W        W30789  37.127   4.697   1.173
58365W        W30790  12.025  44.309  12.413
58366W        W30791  10.161  37.784  14.057
58367W        W30792  41.048  17.059  14.956
58368W        W30793  34.580  13.057  13.886
58369W        W30794  17.649  28.479   0.305
58370W        W30795  13.335  20.256   4.303
58371W        W30796  30.552  41.857   0.026
58372W        W30797  41.831  32.486  10.548
58373W        W30798   1.010  39.592   0.478
58374W        W30799   3.363  43.497  11.670
58375W        W30800  40.295  16.054   3.215
58376W        W30801  19.638  34.138   1.811
58377W        W30802  20.653  15.914   3.920
58378W        W30803  41.634  33.524   3.175
58379W        W30804  37.170  34.002   3.320
58380W        W30805  26.666  26.007  13.343
58381W        W30806  14.814  44.377  12.002
58382W        W30807  27.677   9.353  12.350
58383W        W30808   1.863  33.525  12.065
58384W        W30809  23.532  44.257   1.260
58385W        W30810   1.201  10.873   4.477
58386W        W30811  18.658  44.920   4.859
58387W        W30812  23.626  15.158   1.153
58388W        W30813   5.450  44.530   1.758
58389W        W30814  16.210  42.840  12.473
58390W        W30815   7.181  13.243  13.050
58391W        W30816  18.149  18.753   3.647
58392W        W30817  43.226  32.691   3.312
58393W        W30818  36.568  34.552   1.523
58394W        W30819  27.361  26.486   1.464
58395W        W30820  16.017  36.043   0.920
58396W        W30821  28.970   8.429   2.808
58397W        W30822  11.712  38.759  10.589
58398W        W30823  12.744  20.522  13.820
58399W        W30824   4.995  12.692  14.945
58400W        W30825  36.096   2.896  11.102
58401W        W30826  13.635   9.868   4.212
58402W        W30827  38.379   7.568   0.319
58403W        W30828  34.090  11.435   3.237
58404W        W30829  41.315  39.488   0.711
58405W        W30830  32.198  34.528  11.853
58406W        W30831  41.443  36.904  13.498
58407W        W30832   3.765  44.256   1.333
58408W        W30833  11.157  42.400   2.658
58409W        W30834  38.858  27.155   1.439
58410W        W30835   7.948  21.169   3.638
58411W        W30836   8.191   6.436  14.042
58412W        W30837  44.417  23.602  12.474
58413W        W30838  36.060   5.956  13.941
58414W        W30839  23.946  15.165  13.444
58415W        W30840  12.887  15.684   4.637
58416W        W30841  12.111  42.013   4.007
58417W        W30842   4.812   5.931   4.307
58418W        W30843   1.381  34.383   2.466
58419W        W30844  23.281   0.556  12.906
58420W        W30845   5.140  21.074  14.693
58421W        W30846  27.147  18.649  11.753
58422W        W30847  23.761  21.521  13.886
58423W        W30848   2.937  36.517   1.924
58424W        W30849   6.833  30.449   3.158
58425W        W30850   2.805  26.680  10.837
58426W        W30851   7.651  20.088  13.823
58427W        W30852  27.069  29.445  11.590
58428W        W30853  24.949   0.591   0.732
58429W        W30854   0.527  30.718   2.009
58430W        W30855  16.051  38.992   3.128
58431W        W30856  21.642   4.702   3.612
58432W        W30857  12.221  36.982  10.868
58433W        W30858  10.327   9.720  14.448
58434W        W30859  44.943  12.530   3.688
58435W        W30860   9.201   9.423   0.452
58436W        W30861  39.298  16.082   3.261
58437W        W30862  38.115  30.358   3.862
58438W        W30863  11.123  25.510  13.076
58439W        W30864  27.058  29.551   2.613
58440W        W30865   9.402  10.096  11.572
58441W        W30866  13.243  44.789   4.563
58442W        W30867  39.731  38.032   4.894
58443W        W30868  20.042  24.297  14.741
58444W        W30869  23.089  15.168   3.186
58445W        W30870   0.727  18.824   3.764
58446W        W30871  21.546  43.800  11.247
58447W        W30872  33.991   6.746   3.574
58448W        W30873   3.277  35.814  11.613
58449W        W30874  20.040   2.170  14.231
58450W        W30875  32.873  20.439  11.044
58451W        W30876  35.906  20.276  14.245
58452W        W30877  11.661  37.423   4.516
58453W        W30878   1.662  34.919   1.556
58454W        W30879  25.759   1.712   0.470
58455W        W30880   0.152  29.993  11.228
58456W        W30881  27.977  24.474   1.352
58457W        W30882  39.820   6.357  14.513
58458W        W30883  18.804  31.432   1.949
58459W        W30884  32.224  11.629   2.691
58460W        W30885  24.188  31.319   3.085
58461W        W30886   6.990   3.389  11.646
58462W        W30887  26.936   8.892  12.016
58463W        W30888  42.979  27.701   1.030
58464W        W30889   6.465  43.476  14.229
58465W        W30890  40.457  44.955  11.120
58466W        W30891  16.495  34.601   2.082
58467W        W30892  41.443  43.779   3.759
58468W        W30893  12.750  15.620  11.536
58469W        W30894  39.911  17.134   1.384
58470W        W30895  27.515  17.476   3.199
58471W        W30896   7.337  37.109  14.414
58472W        W30897  24.648   4.178  12.745
58473W        W30898  30.198   2.616   3.190
58474W        W30899  40.334  42.050   1.140
58475W        W30900   9.738  40.328   3.701
58476W        W30901   6.486  30.733  14.343
58477W        W30902  31.999  38.472   4.518
58478W        W30903  33.861  24.416   4.303
58479W        W30904  35.527  32.641   4.632
58480W        W30905   3.915  32.696  12.809
58481W        W30906  17.095  32.404  10.120
58482W        W30907  32.951  13.557  13.814
58483W        W30908  29.471  21.874  12.603
58484W        W30909  33.539  44.621  11.925
58485W        W30910  28.682   0.368  11.596
58486W        W30911  37.506  15.521  11.517
58487W        W30912  22.092   5.394  14.264
58488W        W30913   6.314  33.866  12.373
58489W        W30914   7.721  26.436   2.347
58490W        W30915  30.367  18.691  10.103
58491W        W30916  33.916  34.681  12.592
58492W        W30917  28.429  18.103  14.717
58493W        W30918  22.208  14.372  15.000
58494W        W30919  37.051  27.631   4.601
58495W        W30920   8.585  32.231  12.083
58496W        W30921   2.313  15.628   1.010
58497W        W30922  22.728  24.593  13.853
58498W        W30923   6.878  10.265  11.553
58499W        W30924   5.109  14.214   2.824
58500W        W30925   1.856  21.606   0.107
58501W        W30926  33.844   8.868   2.811
58502W        W30927  21.030  34.798   1.278
58503W        W30928   6.659  38.395  13.191
58504W        W30929  26.055  44.734  13.865
58505W        W30930  29.930  10.016   4.269
58506W        W30931   7.629   2.874   2.785
58507W        W30932  30.116   4.919   2.166
58508W        W30933  21.523  18.323   0.776
58509W        W30934  32.121  15.694  10.190
58510W        W30935  18.679  34.395   3.294
58511W        W30936  37.585  22.364  10.244
58512W        W30937  30.718  34.422  10.629
58513W        W30938  20.223  38.171  13.963
58514W        W30939  38.147  42.511   3.706
58515W        W30940   7.282  29.040   1.223
58516W        W30941  37.866  11.926   1.271
58517W        W30942  18.216  35.250   0.620
58518W        W30943  11.836  42.735  13.864
58519W        W30944  18.616  37.346   1.713
58520W        W30945  29.573  41.292  12.885
58521W        W30946   0.045  44.200   3.832
58522W        W30947  44.835   2.375  11.980
58523W        W30948  17.093   1.209  12.144
58524W        W30949  29.616  30.266   5.217
58525W        W30950  15.702  33.293   0.439
58526W        W30951  29.842  29.989  11.214
58527W        W30952  11.338  25.474  11.701
58528W        W30953  19.939  10.220   3.587
58529W        W30954   2.731  24.881   0.795
58530W        W30955  36.472  30.306   3.437
58531W        W30956  18.723  21.069  11.445
58532W        W30957  30.374  12.671  13.009
58533W        W30958  15.855  17.362  14.956
58534W        W30959  34.409  31.647   2.846
58535W        W30960  22.267  12.168  14.340
58536W        W30961   4.877  40.120  11.153
58537W        W30962  40.496   2.451   3.654
58538W        W30963   5.666  39.069  12.045
58539W        W30964   6.481  39.986   4.853
58540W        W30965  18.568  23.462   4.604
58541W        W30966   2.971  29.109  11.870
58542W        W30967   2.782  32.842   1.827
58543W        W30968  44.119  32.146   4.625
58544W        W30969  16.726  36.000   3.719
58545W        W30970  44.680  19.598  11.957
58546W        W30971  16.762  41.298  11.968
58547W        W30972  12.010  25.616  14.862
58548W        W30973   2.368   9.242  12.008
58549W        W30974   8.344  38.470  10.619
58550W        W30975  10.636  39.569   0.865
58551W        W30976  20.621  26.854   4.892
58552W        W30977  34.312  15.708  12.575
58553W        W30978  24.559  15.132   1.265
58554W        W30979  20.867  38.479   2.607
58555W        W30980  11.819  39.412   4.634
58556W        W30981  33.858   9.551  11.745
58557W        W30982  18.233  37.897   4.739
58558W        W30983  18.092  39.308  11.852
58559W        W30984  35.075  27.955   2.439
58560W        W30985  20.361  31.729  10.168
58561W        W30986  41.281   7.892   4.676
58562W        W30987  33.418  40.211   4.327
58563W        W30988  29.297  42.900  10.741
58564W        W30989  27.632  11.711   4.580
58565W        W30990  14.845  11.890  12.156
58566W        W30991  40.318   6.692   4.041
58567W        W30992  26.189   8.363  11.614
58568W        W30993  42.255  35.994   2.722
58569W        W30994  20.295  12.347  11.474
58570W        W30995  19.770  11.193  12.155
58571W        W30996  16.236  42.598  14.136
58572W        W30997  28.962   4.438   3.608
58573W        W30998  13.343  34.604   1.589
58574W        W30999   6.890  19.524   4.083
58575W        W31000  32.028  27.100   0.477
58576W        W31001  44.284  20.282  11.047
58577W        W31002  11.974  39.894  13.796
58578W        W31003   3.749  42.343  12.011
58579W        W31004  18.746  36.687  12.423
58580W        W31005  13.437  14.751   3.781
58581W        W31006  36.563  36.012   3.691
58582W        W31007   1.314  16.848   2.447
58583W        W31008  39.466  39.871  14.806
58584W        W31009   3.727  24.979  12.318
58585W        W31010   3.958  40.866  13.960
58586W        W31011  24.735  10.134   2.478
58587W        W31012  28.986   2.922  11.123
58588W        W31013  28.866  23.352  13.503
58589W        W31014  18.123  13.729   2.389
58590W        W31015  17.096  36.578  11.572
58591W        W31016  24.017  12.692  10.914
58592W        W31017   2.217  16.759  11.083
58593W        W31018  33.910  43.206   3.673
58594W        W31019  23.085  39.575  12.008
58595W        W31020   1.807  19.709   0.232
58596W        W31021  43.916  21.505   1.582
58597W        W31022  18.235  29.980   3.672
58598W        W31023   4.841   5.376   2.337
58599W        W31024  24.888  14.741   0.921
58600W        W31025  13.710  15.647   4.143
58601W        W31026  12.150   3.227  10.983
58602W        W31027  35.943   2.711   0.729
58603W        W31028  37.484  10.759  14.002
58604W        W31029  37.983  32.368  13.384
58605W        W31030  30.038  10.182  14.911
58606W        W31031   0.021  37.987   2.625
58607W        W31032  24.780  39.354   4.462
58608W        W31033   3.227  40.428  12.395
58609W        W31034   1.666  26.103   1.191
58610W        W31035  37.308  28.753  13.557
58611W        W31036  10.589  44.966  12.303
58612W        W31037   5.004  38.769   3.694
58613W        W31038  24.854   7.898  11.742
58614W        W31039  35.543  39.936  10.801
58615W        W31040   5.750   5.489  14.999
58616W        W31041  23.743  29.355   2.212
58617W        W31042  21.483  29.634  11.156
58618W        W31043  21.525   4.372  14.434
58619W        W31044  25.508  40.451   1.887
58620W        W31045   6.342   7.096  10.655
58621W        W31046  30.825  22.551  12.919
58622W        W31047  35.104  26.465  13.860
58623W        W31048  33.578  28.252   4.584
58624W        W31049   6.311  27.172  11.563
58625W        W31050  19.157  30.589   4.971
58626W        W31051  24.019   2.988  14.278
58627W        W31052  22.067  42.520   2.648
58628W        W31053  16.658  10.466   2.948
58629W        W31054  13.164  27.381   3.909
58630W        W31055   2.644  26.668  14.760
58631W        W31056   5.753  23.588  11.218
58632W        W31057  36.965   8.749   2.870
58633W        W31058  20.693  31.348  10.239
58634W        W31059  40.034   7.847   1.220
58635W        W31060  17.013   1.914  10.748
58636W        W31061  14.100  23.490  14.491
58637W        W31062  31.104  35.024   3.197
58638W        W31063   4.835  22.712   0.240
58639W        W31064   7.322  36.903   1.442
58640W        W31065  21.881  38.962  10.641
58641W        W31066   8.464  42.852   0.209
58642W        W31067  23.422  43.888   2.006
58643W        W31068  38.606  36.779   1.501
58644W        W31069  16.609  27.663   0.776
58645W        W31070  34.627  31.548  13.836
58646W        W31071  13.554  20.207  12.950
58647W        W31072  29.555  11.197  13.608
58648W        W31073  22.604   6.789   0.465
58649W        W31074  31.354  30.674   0.485
58650W        W31075  21.586   9.997  13.811
58651W        W31076  13.060   3.168  13.906
58652W        W31077  17.992  42.223  14.250
58653W        W31078  27.003  30.376  13.064
58654W        W31079  25.629   3.474   0.850
58655W        W31080  28.381  42.528  13.271
58656W        W31081  42.912  12.194  12.432
58657W        W31082  22.729  41.284   4.561
58658W        W31083  29.433  24.597  13.946
58659W        W31084   0.062  37.456   1.804
58660W        W31085  11.763  17.560  14.030
58661W        W31086   8.943  27.614   0.109
58662W        W31087  17.347  31.472  13.907
58663W        W31088  29.330   9.229  14.722
58664W        W31089  18.074  23.161   3.891
58665W        W31090  16.685  23.126   4.548
58666W        W31091  28.766  30.319   5.033
58667W        W31092  41.997  40.808   0.839
58668W        W31093  21.283   8.009   0.643
58669W        W31094  14.846  30.897   2.790
58670W        W31095  38.708  41.726   0.520
58671W        W31096   5.899  18.565   1.753
58672W        W31097  37.592  14.181   0.688
58673W        W31098   4.952   6.949   1.377
58674W        W31099  30.468   9.751   0.418
58675W        W31100  15.563  23.802   1.356
58676W        W31101   0.127  37.324  14.260
58677W        W31102  20.046  36.568  14.813
58678W        W31103  20.287  20.221   0.216
58679W        W31104  20.811  27.425  13.418
58680W        W31105  44.914  27.172   1.731
58681W        W31106  24.101  26.624   4.905
58682W        W31107  25.293  11.788  14.888
58683W        W31108  24.211  42.813   3.604
58684W        W31109  39.292   2.573   4.140
58685W        W31110   2.497  25.230  14.000
58686W        W31111  17.756  30.804   4.569
58687W        W31112  38.870  10.009  10.167
58688W        W31113   4.650  21.063  13.498
58689W        W31114  37.633  25.650  11.105
58690W        W31115  40.781  37.980   4.057
58691W        W31116  12.910  31.521   0.286
58692W        W31117  35.410  27.756  14.481
58693W        W31118  44.435  24.171   1.247
58694W        W31119  32.241   2.623   4.522
58695W        W31120  25.404   9.799   3.422
58696W        W31121  22.188   0.780  12.890
58697W        W31122  42.638  13.720   0.447
58698W        W31123  20.263  23.619  11.174
58699W        W31124  40.659   4.745  10.895
58700W        W31125  15.651  23.418   4.566
58701W        W31126  26.720   3.777   1.628
58702W        W31127  34.612  35.441   4.548
58703W        W31128  25.924  12.744   3.601
58704W        W31129  10.763  43.710  11.089
58705W        W31130  21.717  10.335   1.904
58706W        W31131  14.315  20.620   1.225
58707W        W31132  21.137   0.305  11.560
58708W        W31133  25.080  22.472   4.053
58709W        W31134  38.426  32.015   0.459
58710W        W31135  35.791  13.599   2.365
58711W        W31136  22.213  35.168   1.814
58712W        W31137  25.707  27.571  10.888
58713W        W31138  35.817  23.171   0.476
58714W        W31139  23.557   3.713   3.201
58715W        W31140  39.341   4.412  13.912
58716W        W31141  32.142   6.479  13.932
58717W        W31142   0.550  25.049   3.596
58718W        W31143   0.785  41.515   4.093
58719W        W31144  15.149   9.833  10.492
58720W        W31145  33.837  39.339   4.088
58721W        W31146  15.727  28.600   0.449
58722W        W31147   2.106   8.507  12.487
58723W        W31148  16.728  34.250   3.337
58724W        W31149   1.658   3.931   2.257
58725W        W31150  31.198   6.881   1.919
58726W        W31151  39.260  18.555  13.081
58727W        W31152  11.696  18.332  11.106
58728W        W31153  11.094  16.824   4.281
58729W        W31154  40.010  13.737  10.648
58730W        W31155   6.369  31.440  12.348
58731W        W31156  34.978  21.368  13.465
58732W        W31157  34.052  41.230  13.923
58733W        W31158  40.202   7.145   0.838
58734W        W31159   1.828  10.461   3.619
58735W        W31160  36.335  14.031   2.778
58736W        W31161  29.138  29.702   4.550
58737W        W31162  11.288   9.092   1.946
58738W        W31163  31.800  28.263  14.953
58739W        W31164  43.972  13.490   2.754
58740W        W31165   3.996  27.760   4.270
58741W        W31166  31.631  18.463   3.966
58742W        W31167   7.932  21.774   0.896
58743W        W31168  42.242  11.906   4.527
58744W        W31169  34.329   5.853   1.335
58745W        W31170   2.384   2.563   0.773
58746W        W31171   5.109   1.091  11.080
58747W        W31172  19.271  40.990   4.521
58748W        W31173  14.427  25.904   2.144
58749W        W31174   9.238   9.642  12.362
58750W        W31175  20.176  12.347   1.186
58751W        W31176  10.619  21.646  13.092
58752W        W31177  19.350  29.327   2.969
58753W        W31178  43.461  31.324  12.433
58754W        W31179  30.767  12.779  12.708
58755W        W31180   9.407  11.852   2.491
58756W        W31181  37.473  38.797  14.656
58757W        W31182  15.720  15.311   3.492
58758W        W31183  32.122  34.583   4.055
58759W        W31184  18.003   6.703  14.736
58760W        W31185   1.924   0.316  11.572
58761W        W31186  28.578  38.645   3.733
58762W        W31187  27.914   6.811   4.652
58763W        W31188  19.990  13.159  12.309
58764W        W31189  27.248  30.973  12.119
58765W        W31190  22.504  18.191   1.748
58766W        W31191  23.117   4.878   3.698
58767W        W31192  29.092  30.374  10.364
58768W        W31193  36.823  31.065  14.432
58769W        W31194  19.265  39.004  12.304
58770W        W31195  31.405  36.489   4.025
58771W        W31196  42.746  37.488  13.429
58772W        W31197  11.715  24.433  12.144
58773W        W31198  32.604   4.170   1.071
58774W        W31199  12.409  25.297  13.432
58775W        W31200  42.918  16.830   4.504
58776W        W31201  12.214   8.253   4.186
58777W        W31202  33.452   2.257   4.305
58778W        W31203  34.059  16.079  10.532
58779W        W31204  32.956   9.937   4.596
58780W        W31205   0.318  40.627  13.626
58781W        W31206   8.743  40.514   2.738
58782W        W31207  14.280  20.654  10.595
58783W        W31208  38.108  25.749   4.190
58784W        W31209  39.903  40.963  12.350
58785W        W31210   7.682  31.320  14.682
58786W        W31211   7.115  19.555   2.659
58787W        W31212  38.591   9.158  10.563
58788W        W31213  36.011  40.797   1.438
58789W        W31214  43.837  43.003  11.770
58790W        W31215  35.380  25.594  12.986
58791W        W31216  42.956  26.110   0.889
58792W        W31217  31.587   2.225   2.189
58793W        W31218  16.582  36.855   4.348
58794W        W31219  36.520  33.232   1.621
58795W        W31220   2.399  23.237  11.098
58796W        W31221  20.113  37.898   3.440
58797W        W31222  32.401  10.336  11.863
58798W        W31223   1.784  17.498  14.513
58799W        W31224  38.873  42.494   0.749
58800W        W31225   5.402   0.025   4.149
58801W        W31226  12.390  41.983   0.738
58802W        W31227   9.800  29.923   0.696
58803W        W31228  25.598  14.275  14.539
58804W        W31229  36.873  24.804   0.916
58805W        W31230  10.366  26.414  11.256
58806W        W31231  10.424   8.839   5.041
58807W        W31232  31.232  28.078   5.032
58808W        W31233   5.170  28.900  13.468
58809W        W31234  37.933  19.970   2.416
58810W        W31235  25.928  23.544   2.404
58811W        W31236  19.999  19.171   4.527
58812W        W31237  18.236  12.374   4.339
58813W        W31238   2.502  17.754  13.878
58814W        W31239  29.448  44.249  10.870
58815W        W31240   4.851  31.405   3.807
58816W        W31241  26.169  19.972   4.836
58817W        W31242  24.557  34.124   1.400
58818W        W31243  27.128   5.419   2.780
58819W        W31244  20.312   0.672   4.741
58820W        W31245  23.657  35.101  14.281
58821W        W31246  30.508  17.074  11.543
58822W        W31247  20.530  44.256  12.165
58823W        W31248  11.256   6.232  11.567
58824W        W31249  19.211  23.493   2.404
58825W        W31250  31.368  32.902   4.452
58826W        W31251   9.299  23.879  11.528
58827W        W31252  36.989  13.777  12.215
58828W        W31253  28.623  16.808   4.452
58829W        W31254  39.917   3.408  11.148
58830W        W31255  30.138  17.222  12.115
58831W        W31256  29.440  27.677  13.300
58832W        W31257  32.801  36.090  12.096
58833W        W31258  16.563   1.355   5.020
58834W        W31259  30.674  14.630   4.662
58835W        W31260  15.381   0.956  13.458
58836W        W31261  14.128  30.680   9.740
58837W        W31262  23.914  41.508   4.669
58838W        W31263  18.538  15.264  12.343
58839W        W31264  35.422  26.267  13.504
58840W        W31265  18.052  41.210   1.380
58841W        W31266  41.896  24.306  12.921
58842W        W31267   1.821  34.779  11.593
58843W        W31268  39.491   3.856  11.620
58844W        W31269  28.236  10.208  12.605
58845W        W31270  33.964  19.529   0.996
58846W        W31271  28.688  22.454  13.365
58847W        W31272  34.451  24.275   4.179
58848W        W31273  29.639  13.384  11.963
58849W        W31274  37.580   7.935   2.112
58850W        W31275  31.473  12.230   0.774
58851W        W31276  30.572  43.404  12.985
58852W        W31277  23.778   5.841  13.921
58853W        W31278  30.422  18.110   0.406
58854W        W31279  35.539  27.829   0.159
58855W        W31280   8.507  11.820   2.479
58856W        W31281   1.440   4.350  12.531
58857W        W31282   0.441  17.619  11.991
58858W        W31283  40.483  42.189  13.343
58859W        W31284  41.072  22.538   2.197
58860W        W31285   6.979  30.028   2.214
58861W        W31286   5.960  39.065  14.617
58862W        W31287  13.500  26.107   4.346
58863W        W31288  12.833  40.639  14.518
58864W        W31289  26.355  29.524   4.358
58865W        W31290   0.864   2.367   4.442
58866W        W31291  16.140   4.674  13.973
58867W        W31292   4.881  29.044  11.687
58868W        W31293  11.561  21.232  12.424
58869W        W31294  37.927   8.426  11.009
58870W        W31295   1.307  15.485   3.636
58871W        W31296  41.323   8.650   3.660
58872W        W31297  26.558   2.274  14.863
58873W        W31298  22.768  36.493   3.676
58874W        W31299   6.584  12.408  13.047
58875W        W31300  15.217  35.445  11.167
58876W        W31301  19.133  37.039   3.085
58877W        W31302  14.669  12.427  14.022
58878W        W31303  44.065  26.986   2.746
58879W        W31304  37.386   2.413   1.759
58880W        W31305   5.004  14.299  13.036
58881W        W31306  34.044  40.739   3.214
58882W        W31307  21.588  40.040  14.223
58883W        W31308  10.212  12.859  12.526
58884W        W31309  24.664  27.162  12.786
58885W        W31310  21.197  31.410  13.680
58886W        W31311  38.882   5.033   2.894
58887W        W31312   9.377  42.470  10.909
58888W        W31313   6.719  32.025   1.612
58889W        W31314   4.286  16.887   0.243
58890W        W31315   4.916  13.776  14.845
58891W        W31316  31.953  25.161   0.298
58892W        W31317   8.891  19.993  11.296
58893W        W31318  30.640  34.435   3.864
58894W        W31319  38.075  10.181   2.372
58895W        W31320   9.799   4.347   2.187
58896W        W31321  39.740   4.752   2.285
58897W        W31322  37.236  37.376  13.507
58898W        W31323  18.130  36.094  13.027
58899W        W31324  34.506  27.570   1.498
58900W        W31325   2.133  20.261   1.054
58901W        W31326  26.522  38.371  12.996
58902W        W31327  11.287  22.704  12.122
58903W        W31328   3.628  10.848  11.449
58904W        W31329  39.055  16.801   3.165
58905W        W31330   5.842  25.644   1.134
58906W        W31331  28.362   6.190   1.260
58907W        W31332  38.328   5.502  12.887
58908W        W31333   8.502  12.754   2.673
58909W        W31334   9.762  16.947   3.650
58910W        W31335  23.597  15.364   3.078
58911W        W31336  27.520  22.638   3.751
58912W        W31337  25.239  27.589  14.374
58913W        W31338   7.133   8.798  11.457
58914W        W31339  18.601  19.357  13.996
58915W        W31340   7.298  25.304  13.044
58916W        W31341  23.787  16.177   0.788
58917W        W31342  34.948   2.495  11.225
58918W        W31343  11.889   7.966  12.845
58919W        W31344  40.000  14.462   0.746
58920W        W31345  43.590   5.569   3.587
58921W        W31346   9.892  31.115   1.488
58922W        W31347  31.467  43.663  13.108
58923W        W31348  43.742  27.190   1.478
58924W        W31349  37.349   3.758   4.105
58925W        W31350   2.083  44.847  14.906
58926W        W31351  21.028  44.834  10.611
58927W        W31352  26.573  18.383   0.310
58928W        W31353  29.073   1.183   2.133
58929W        W31354  31.404   6.234   2.824
58930W        W31355   8.085  12.480   1.850
58931W        W31356  35.523  43.703  11.516
58932W        W31357  41.303  40.649  10.369
58933W        W31358  10.099   4.155  14.331
58934W        W31359  32.161  29.748   3.399
58935W        W31360  15.206  17.099   1.646
58936W        W31361  36.164   2.629   3.774
58937W        W31362   7.656  24.902   5.058
58938W        W31363  16.023  36.368  12.501
58939W        W31364   2.361  19.176  13.479
58940W        W31365  23.869  39.418   2.330
58941W        W31366  28.385  13.910   4.694
58942W        W31367  16.571  14.114  13.477
58943W        W31368  24.667  29.390  13.548
58944W        W31369  13.810  44.412   4.496
58945W        W31370  40.718  32.719  12.655
58946W        W31371  23.709  22.116   2.695
58947W        W31372   4.805   4.809   4.724
58948W        W31373  10.667  26.043  11.600
58949W        W31374  15.935  11.564  10.083
58950W        W31375  33.453  23.129   1.368
58951W        W31376  15.359  16.264   3.130
58952W        W31377  16.360  17.042   2.881
58953W        W31378  26.202   7.553  14.426
58954W        W31379   7.837  43.231  14.538
58955W        W31380  10.592  23.941  11.478
58956W        W31381   3.417  39.001   4.782
58957W        W31382  42.325  13.077  13.147
58958W        W31383   8.245  10.904   0.042
58959W        W31384  35.060  16.607  13.433
58960W        W31385  42.321  37.318  12.047
58961W        W31386  24.735  36.648  11.220
58962W        W31387   9.203  40.755   4.082
58963W        W31388  36.598   7.249   3.249
58964W        W31389  17.302   9.996  13.444
58965W        W31390  39.990  29.247   2.567
58966W        W31391  40.574   7.463   2.756
58967W        W31392  27.141  35.586  13.407
58968W        W31393  23.738  15.322   0.180
58969W        W31394  32.587   2.795  14.867
58970W        W31395  23.787  15.221   3.899
58971W        W31396  17.306  23.593  12.454
58972W        W31397  10.151   6.889   1.468
58973W        W31398  28.643  33.651  13.453
58974W        W31399  27.946  30.955   2.706
58975W        W31400  19.799  22.835  13.542
58976W        W31401   6.310  44.866   4.076
58977W        W31402  17.606  29.486   0.490
58978W        W31403  26.552  29.728  12.412
58979W        W31404  27.011   0.072  12.463
58980W        W31405  26.936  44.048  14.985
58981W        W31406  28.130   9.422   0.950
58982W        W31407  41.773  17.131   1.590
58983W        W31408  17.722   9.692   2.414
58984W        W31409   5.499  29.148  11.652
58985W        W31410  23.177  32.290   3.191
58986W        W31411  17.539  32.097  13.950
58987W        W31412  33.712  23.717   0.248
58988W        W31413  29.312  42.785  12.028
58989W        W31414  37.473  24.123   4.573
58990W        W31415  36.549   6.215   0.341
58991W        W31416  31.866  44.931  13.778
58992W        W31417  12.646  43.053   1.289
58993W        W31418  23.291  19.939   1.296
58994W        W31419  31.321   2.978  12.651
58995W        W31420   6.950   1.826   0.489
58996W        W31421  13.663   4.657   4.220
58997W        W31422  19.867  39.829   1.969
58998W        W31423  28.928  40.714  12.438
58999W        W31424  39.995  28.460  11.636
59000W        W31425   9.749   0.376   0.212
59001W        W31426  10.332  34.052   0.663
59002W        W31427   3.468  40.817   4.446
59003W        W31428  38.958   3.111   3.044
59004W        W31429  15.832  29.682   3.821
59005W        W31430  20.145  33.731  12.442
59006W        W31431  33.946  29.463  13.474
59007W        W31432  42.453  23.797  12.394
59008W        W31433  41.095   7.285  10.571
59009W        W31434  24.978  39.326   3.206
59010W        W31435  26.778  41.814   4.566
59011W        W31436  20.485  24.207   2.456
59012W        W31437  26.560   6.690  14.311
59013W        W31438  36.281  34.500  12.509
59014W        W31439  18.533   7.639   3.668
59015W        W31440  38.781   4.213   1.982
59016W        W31441   6.766   7.265  12.967
59017W        W31442  36.171  27.112  14.812
59018W        W31443  33.009  23.608   3.573
59019W        W31444   1.111   8.907   2.983
59020W        W31445  38.400  18.069  12.212
59021W        W31446  34.460   5.074   1.625
59022W        W31447  30.340  25.187   3.065
59023W        W31448  17.869  21.718  14.887
59024W        W31449  12.672  11.969   2.313
59025W        W31450  42.855  35.807   4.188
59026W        W31451  13.253  43.291   0.463
59027W        W31452  17.686   2.622  13.856
59028W        W31453  11.291  38.428  10.675
59029W        W31454  39.228  15.514  12.855
59030W        W31455  25.989  16.559   2.204
59031W        W31456   2.330  40.393   3.365
59032W        W31457   7.869  30.308  14.860
59033W        W31458  42.064  35.332  11.680
59034W        W31459   3.448  26.558   3.945
59035W        W31460   9.098  18.841   2.264
59036W        W31461  17.820  27.013  13.940
59037W        W31462  24.512  30.899  11.154
59038W        W31463  18.484  22.704  12.590
59039W        W31464  44.528  12.684   1.074
59040W        W31465   1.562   9.194   2.255
59041W        W31466  10.728   0.120  13.768
59042W        W31467  40.323  22.510  12.315
59043W        W31468   4.055   0.870   0.277
59044W        W31469  31.410  38.427   2.344
59045W        W31470  36.981  28.075  10.370
59046W        W31471  24.127   2.209  13.815
59047W        W31472  36.112  34.351   1.385
59048W        W31473   4.716  13.079   0.153
59049W        W31474   8.682  43.059   4.156
59050W        W31475  37.060  25.488  13.896
59051W        W31476  12.683  34.540   0.235
59052W        W31477   5.660  35.483  14.332
59053W        W31478  23.396  36.667   0.688
59054W        W31479  17.862  23.229   3.186
59055W        W31480  14.309  19.802  12.450
59056W        W31481   2.785  44.810   1.353
59057W        W31482  32.212  13.983  14.998
59058W        W31483  27.216  18.571  13.315
59059W        W31484   4.386  31.154   0.814
59060W        W31485   7.746   2.707  11.278
59061W        W31486  26.478  26.206  12.880
59062W        W31487  12.363  37.656   0.727
59063W        W31488  21.499  26.866   4.836
59064W        W31489   0.800  38.094   3.703
59065W        W31490  32.000  34.351   9.855
59066W        W31491  32.456  15.166  11.554
59067W        W31492  18.475  20.627  13.926
59068W        W31493  19.611   6.727   3.678
59069W        W31494  40.998  44.503   0.023
59070W        W31495   3.734  34.940   3.645
59071W        W31496   9.292  29.255   0.990
59072W        W31497  34.846  11.194   3.570
59073W        W31498  43.392  26.501  10.710
59074W        W31499  11.186  27.013  12.916
59075W        W31500  18.243  13.130  11.844
59076W        W31501   2.810   5.325   2.104
59077W        W31502   6.153   3.911  11.652
59078W        W31503  29.615  30.834   2.177
59079W        W31504  11.708  18.520  14.078
59080W        W31505   4.891   4.510   9.898
59081W        W31506  19.584  35.639   0.636
59082W        W31507  22.627  17.777  11.965
59083W        W31508  34.098  36.611   1.173
59084W        W31509  24.546   8.088  12.282
59085W        W31510   6.809   2.445   1.724
59086W        W31511   7.709   7.164   0.522
59087W        W31512  11.582  32.332  11.540
59088W        W31513  12.034  10.196  14.776
59089W        W31514  39.950  41.945  11.563
59090W        W31515  41.150   4.371   2.946
59091W        W31516  29.973   7.919   2.815
59092W        W31517  17.765  35.606  10.669
59093W        W31518  40.880  10.822  12.741
59094W        W31519  17.019   8.759  10.787
59095W        W31520   6.634  31.455  11.482
59096W        W31521  22.131  30.879  13.521
59097W        W31522  38.334  35.822   3.252
59098W        W31523  12.743  21.778  14.866
59099W        W31524   8.362  12.510  14.051
59100W        W31525  42.583  24.708  14.924
59101W        W31526  27.641  15.787  14.846
59102W        W31527  35.420   3.808  14.490
59103W        W31528  30.509  35.112   1.614
59104W        W31529   3.681  26.479  11.179
59105W        W31530  40.767  25.165   4.336
59106W        W31531  16.966  10.576  13.892
59107W        W31532  26.391  42.731  12.028
59108W        W31533   0.383  34.331   3.774
59109W        W31534   0.290  23.117   4.711
59110W        W31535  44.908  36.626   1.458
59111W        W31536  37.769  34.585   5.048
59112W        W31537   8.692  13.341   3.207
59113W        W31538   6.388  28.611  11.503
59114W        W31539  38.440  20.000  13.050
59115W        W31540  33.401   7.283  14.256
59116W        W31541  17.075   9.143   4.434
59117W        W31542   4.072   0.404  12.537
59118W        W31543   9.453  39.501  13.922
59119W        W31544  13.148  30.883   2.260
59120W        W31545   1.328   3.827  13.156
59121W        W31546  22.167  10.510   5.119
59122W        W31547  44.376   4.883   2.213
59123W        W31548   6.822  39.573  11.085
59124W        W31549  22.946  36.007  14.862
59125W        W31550  11.846  18.105   1.722
59126W        W31551   1.258  38.424  11.611
59127W        W31552  36.366  42.045   4.270
59128W        W31553   7.524  12.985   1.712
59129W        W31554  31.629   3.295   1.038
59130W        W31555  21.285  11.278   1.432
59131W        W31556  31.577  38.097   4.004
59132W        W31557  36.562  43.375   0.818
59133W        W31558  25.276  30.493  12.291
59134W        W31559   7.678  29.710  11.607
59135W        W31560  40.220  10.097   3.154
59136W        W31561  26.552  26.478   3.241
59137W        W31562   8.891  26.392   4.593
59138W        W31563  23.733  35.430  14.825
59139W        W31564  13.320   6.967   3.214
59140W        W31565  37.996  18.072   2.393
59141W        W31566  13.035  32.933   3.297
59142W        W31567  44.306  33.395  13.909
59143W        W31568  10.487  29.584  12.105
59144W        W31569  27.054  19.656  12.811
59145W        W31570  22.456   4.495   1.845
59146W        W31571  20.503   3.971   3.674
59147W        W31572  26.020  25.225  14.242
59148W        W31573   3.002   9.807  10.712
59149W        W31574  16.293  17.779   3.262
59150W        W31575  31.955  32.086   0.892
59151W        W31576  31.036  19.771   0.362
59152W        W31577  20.604  36.619   3.849
59153W        W31578  30.890  21.720  10.903
59154W        W31579  44.449  27.825  13.744
59155W        W31580  32.853  11.355  12.099
59156W        W31581  37.739  11.155   3.664
59157W        W31582  22.535  26.183  14.824
59158W        W31583  32.505  32.347   2.246
59159W        W31584  27.661   5.837   1.788
59160W        W31585  44.996  12.570  12.038
59161W        W31586  33.085  12.064   2.457
59162W        W31587  17.535  27.541   3.251
59163W        W31588  23.647  35.626   1.583
59164W        W31589   9.449  11.149  11.573
59165W        W31590  44.959   6.263   3.185
59166W        W31591  42.508   2.950  10.680
59167W        W31592  13.628  22.631  10.924
59168W        W31593  29.734  25.055   2.148
59169W        W31594   6.911  18.818  14.852
59170W        W31595   3.861  33.870   1.500
59171W        W31596  27.646  21.536   3.753
59172W        W31597  26.430  27.742   1.807
59173W        W31598  12.381  17.576  12.658
59174W        W31599  20.735  23.112   1.387
59175W        W31600  22.473  28.354   3.222
59176W        W31601  21.247  44.416  14.109
59177W        W31602   4.420   7.221   3.475
59178W        W31603  31.842  12.081  11.022
59179W        W31604   4.223   0.230  14.343
59180W        W31605  17.628   4.931  12.089
59181W        W31606  32.646  19.777   3.454
59182W        W31607  10.756  33.573   2.320
59183W        W31608  17.771  12.299   4.569
59184W        W31609   4.719  15.814   2.327
59185W        W31610  42.419  18.764   3.752
59186W        W31611  30.473  22.712  10.502
59187W        W31612  30.708  26.432  12.990
59188W        W31613   4.972  26.520   2.796
59189W        W31614  17.260  30.876   1.795
59190W        W31615  39.507  31.824   1.300
59191W        W31616  11.362  16.700  11.490
59192W        W31617  12.702   6.789  11.246
59193W        W31618  39.953   1.810   3.256
59194W        W31619  17.710  16.268  12.867
59195W        W31620  10.388  31.220   3.251
59196W        W31621  40.786  33.362  14.554
59197W        W31622  33.154  20.384   2.322
59198W        W31623  30.595  15.028  11.506
59199W        W31624  38.847  13.771   0.827
59200W        W31625  44.968   3.351   3.753
59201W        W31626   9.825  43.675  14.743
59202W        W31627  15.837  27.278   3.737
59203W        W31628   1.278  33.348  12.984
59204W        W31629  34.681  21.803  14.328
59205W        W31630  35.152   0.877  13.733
59206W        W31631  24.790  11.798   4.043
59207W        W31632  16.255  21.091  14.984
59208W        W31633  37.073  19.578   2.380
59209W        W31634  21.497  44.751  13.809
59210W        W31635  42.197  16.048   0.988
59211W        W31636  37.074   7.128   1.769
59212W        W31637  42.366  34.595   0.779
59213W        W31638  16.232  26.653   4.058
59214W        W31639   0.657  29.048  13.563
59215W        W31640   7.951  26.897   2.299
59216W        W31641   5.970  14.227   2.453
59217W        W31642  23.571  37.904   3.639
59218W        W31643   5.440  19.308  11.176
59219W        W31644   7.813   7.425  10.666
59220W        W31645  21.356  24.041   3.602
59221W        W31646  12.572  33.160   3.156
59222W        W31647  39.583  40.981  14.970
59223W        W31648  28.044   3.428  11.635
59224W        W31649  32.640  12.676   0.355
59225W        W31650  35.644  33.076  14.370
59226W        W31651   9.368  38.623   1.345
59227W        W31652  26.009   4.812  11.225
59228W        W31653  16.206   0.967  12.811
59229W        W31654  10.365  14.213  12.444
59230W        W31655  32.076  14.882  11.355
59231W        W31656  43.346  13.118   1.407
59232W        W31657  34.186  14.032  13.135
59233W        W31658  14.235   5.857   2.025
59234W        W31659  34.531   8.780   4.262
59235W        W31660  35.003  21.818   3.634
59236W        W31661  39.418  31.629   4.832
59237W        W31662  13.802  10.565  13.106
59238W        W31663  37.932  17.254  12.165
59239W        W31664  41.688  16.668  14.516
59240W        W31665  28.809  41.552  13.326
59241W        W31666  10.230  22.210  10.711
59242W        W31667   5.303  21.498  13.900
59243W        W31668  23.651  26.623   2.413
59244W        W31669  21.399  17.071  11.042
59245W        W31670   2.708  10.705   1.175
59246W        W31671  14.759  26.025  11.458
59247W        W31672  13.654  20.037  14.977
59248W        W31673  44.612   2.403   2.231
59249W        W31674   9.164  34.622  12.641
59250W        W31675  34.953   0.417   3.177
59251W        W31676  18.598   9.097   3.683
59252W        W31677  10.129  14.848   0.733
59253W        W31678  35.864  23.501   0.893
59254W        W31679   4.534  33.685  13.836
59255W        W31680  36.032   0.822  13.795
59256W        W31681   8.111   0.990   0.736
59257W        W31682   8.555  22.119   3.682
59258W        W31683  25.464  19.631   2.744
59259W        W31684  18.527  25.548   0.195
59260W        W31685  11.635  33.265   1.106
59261W        W31686  28.721  23.649  12.592
59262W        W31687   7.473   9.742   4.720
59263W        W31688   6.440  17.543  11.155
59264W        W31689  13.731   3.710   0.186
59265W        W31690  38.449  39.994   3.204
59266W        W31691  28.792  21.542   2.386
59267W        W31692   6.644  38.799  10.584
59268W        W31693   3.369  34.023  12.555
59269W        W31694  39.916  22.125   1.688
59270W        W31695  35.856   4.467  14.430
59271W        W31696  31.116  33.009   0.311
59272W        W31697  33.387   6.305  14.499
59273W        W31698   9.239  36.757  11.030
59274W        W31699   3.901  42.515   3.636
59275W        W31700  21.514  41.492  14.941
59276W        W31701  18.050  24.712  10.509
59277W        W31702  35.982  43.278   4.638
59278W        W31703  11.702  12.199   1.091
59279W        W31704  11.430  41.829   4.604
59280W        W31705  36.267   6.165   4.871
59281W        W31706  40.623  36.396   4.098
59282W        W31707   6.857  32.608  12.662
59283W        W31708  27.118  39.307   1.825
59284W        W31709   4.021  13.870  11.616
59285W        W31710   6.386  32.891   3.386
59286W        W31711  21.435  35.486   0.830
59287W        W31712  17.892   8.758   3.324
59288W        W31713   3.129  26.635  14.580
59289W        W31714   4.291  33.541   0.325
59290W        W31715  29.479   7.244  13.423
59291W        W31716   2.663  21.717   4.744
59292W        W31717  30.971  16.191   3.067
59293W        W31718  32.859  23.169  14.432
59294W        W31719   7.653  25.295  13.449
59295W        W31720  33.905  16.774   2.643
59296W        W31721  19.559  20.908   4.803
59297W        W31722   9.263  28.905   2.343
59298W        W31723   4.062  26.325   0.883
59299W        W31724  24.454  37.873   1.963
59300W        W31725  39.915  44.728  11.129
59301W        W31726  44.312  29.885   0.276
59302W        W31727   6.330  37.081  11.947
59303W        W31728   9.902  19.153  11.254
59304W        W31729  12.942  33.894   1.346
59305W        W31730  30.553  19.928   0.877
59306W        W31731  18.140   0.790  13.046
59307W        W31732  32.941  38.921  14.581
59308W        W31733  31.108  35.829  13.973
59309W        W31734  34.406   8.941  10.671
59310W        W31735  27.813  36.098   2.284
59311W        W31736  18.121   1.296  10.732
59312W        W31737  19.264   8.945   2.357
59313W        W31738  39.677  42.842   5.261
59314W        W31739  21.074  39.471  10.646
59315W        W31740   8.691  32.688   2.684
59316W        W31741  14.028  20.927   5.018
59317W        W31742  25.122   9.804  13.763
59318W        W31743  21.574  12.750   3.875
59319W        W31744  35.097  35.422  14.966
59320W        W31745  36.407  38.523   1.224
59321W        W31746  15.073  15.863   2.924
59322W        W31747  31.028   4.872  11.253
59323W        W31748  24.195  41.366  14.582
59324W        W31749  27.889  10.278  13.532
59325W        W31750  17.773   9.322  12.462
59326W        W31751  27.481  33.138  11.683
59327W        W31752  40.991   6.640   4.373
59328W        W31753  39.460  10.664   2.209
59329W        W31754  24.109  21.064  13.424
59330W        W31755  20.961  13.006  13.395
59331W        W31756  20.187  30.561  11.524
59332W        W31757   4.857  31.075   4.207
59333W        W31758   2.485   5.396  14.627
59334W        W31759   6.060  35.542  12.812
59335W        W31760  35.660  26.993  14.793
59336W        W31761  31.058  43.908  10.872
59337W        W31762  26.390  14.411   5.125
59338W        W31763  10.527  31.054   1.787
59339W        W31764  21.128  31.722  12.376
59340W        W31765   5.093  11.780  10.102
59341W        W31766  15.728  42.471   1.861
59342W        W31767  24.633  19.688   3.239
59343W        W31768   8.715  36.566   2.209
59344W        W31769   3.621  36.723  11.671
59345W        W31770  28.742  35.596  14.305
59346W        W31771  14.668   5.209   3.238
59347W        W31772  10.693  31.538   2.848
59348W        W31773  36.556  16.071  12.599
59349W        W31774  17.350   9.354   2.483
59350W        W31775  44.484   0.248   0.831
59351W        W31776  24.608  18.554  14.460
59352W        W31777  19.281  24.965  13.380
59353W        W31778  10.040   7.998  14.400
59354W        W31779  29.443  11.570  12.585
59355W        W31780  38.811  24.724  13.406
59356W        W31781  30.070  35.411   3.519
59357W        W31782   7.876   2.961   2.303
59358W        W31783  36.114  16.247   0.272
59359W        W31784  21.072  33.540  12.302
59360W        W31785  32.902   7.270   1.271
59361W        W31786   0.579  35.011   4.442
59362W        W31787  15.215  34.942   2.857
59363W        W31788  17.101   8.382   0.026
59364W        W31789  32.528   7.825   3.286
59365W        W31790  21.771  23.663  10.669
59366W        W31791  26.475  20.515  11.564
59367W        W31792  15.798  21.225  11.466
59368W        W31793  31.685  34.085  12.984
59369W        W31794   1.157  13.065  12.324
59370W        W31795   1.183   3.124   4.856
59371W        W31796  34.742   7.016  11.710
59372W        W31797  35.210   5.926  13.714
59373W        W31798  36.360  33.317  13.650
59374W        W31799   4.977  44.230  12.430
59375W        W31800  15.152  29.399  11.181
59376W        W31801  14.300  26.644   4.651
59377W        W31802   7.941   6.659   0.403
59378W        W31803   4.987  20.608   2.805
59379W        W31804  28.212  41.882   4.487
59380W        W31805  26.667  42.839   3.202
59381W        W31806  31.387  38.090  14.876
59382W        W31807  24.087  11.855  10.357
59383W        W31808  17.185  30.422   1.603
59384W        W31809  39.581  23.968   0.819
59385W        W31810  17.280  31.427   0.750
59386W        W31811  44.860   9.965  10.540
59387W        W31812  36.926  13.513   3.066
59388W        W31813  32.865  25.163   2.708
59389W        W31814  30.669  34.796  13.795
59390W        W31815   4.667  12.430  13.731
59391W        W31816  13.631   8.959   2.930
59392W        W31817  28.233  27.546   2.460
59393W        W31818  32.116  35.248  13.965
59394W        W31819  20.643   0.066   2.272
59395W        W31820  43.462  43.953  11.425
59396W        W31821  39.595  17.473   4.090
59397W        W31822  41.345  44.008   1.769
59398W        W31823  21.244  29.916   1.757
59399W        W31824  16.069  32.540  14.921
59400W        W31825   1.294  20.624  13.788
59401W        W31826  29.393   9.885   4.276
59402W        W31827  15.538  41.578   0.796
59403W        W31828  12.188  19.829   2.811
59404W        W31829   9.683  24.532  13.824
59405W        W31830   5.055  23.074  10.760
59406W        W31831  25.853  41.948  14.377
59407W        W31832   4.741  29.558   0.425
59408W        W31833  36.658  21.789   4.277
59409W        W31834  32.111  34.671  10.384
59410W        W31835   8.732  43.439  12.218
59411W        W31836  19.236  20.166   4.708
59412W        W31837  40.843  22.493  12.399
59413W        W31838  28.849  34.163  11.037
59414W        W31839   3.719  28.697  11.929
59415W        W31840  14.328   2.785   4.774
59416W        W31841   2.976  26.393  11.243
59417W        W31842  37.804  19.375   3.681
59418W        W31843  29.966  29.488  14.873
59419W        W31844   3.255  23.957  10.392
59420W        W31845  38.863   1.480  11.089
59421W        W31846  29.352  23.239  13.349
59422W        W31847  11.200  25.925  10.879
59423W        W31848  31.918  42.083  14.996
59424W        W31849  18.837  15.058   2.868
59425W        W31850  26.131  34.132  13.375
59426W        W31851  40.885  23.740   2.599
59427W        W31852  23.627   6.822   3.133
59428W        W31853   7.156  23.089  14.118
59429W        W31854  23.532   5.292   0.565
59430W        W31855  28.650  21.259  12.016
59431W        W31856  36.107  14.304   1.740
59432W        W31857   1.538  17.290  12.464
59433W        W31858  18.112  30.002   9.959
59434W        W31859   3.942  40.314   3.676
59435W        W31860   5.408  31.631  12.798
59436W        W31861   9.786  23.176  11.847
59437W        W31862  35.158   8.828   3.548
59438W        W31863   3.466  29.959  11.567
59439W        W31864   3.420   4.974   1.382
59440W        W31865  16.791  37.545   4.084
59441W        W31866  34.627  39.823  12.820
59442W        W31867   6.353   9.195   3.255
59443W        W31868  23.181  10.956   1.933
59444W        W31869   4.711  35.598   4.102
59445W        W31870  42.760  23.449   4.612
59446W        W31871  11.309  23.749   3.356
59447W        W31872  24.250  24.194   2.340
59448W        W31873  34.148  34.655  14.477
59449W        W31874  15.664  33.668   3.242
59450W        W31875  30.489   1.749  11.720
59451W        W31876  24.581   1.031   4.096
59452W        W31877  13.026  28.577   0.965
59453W        W31878  31.687   6.640   2.637
59454W        W31879  12.256  43.428   2.804
59455W        W31880  36.936  33.531   1.491
59456W        W31881  31.559  17.546   1.720
59457W        W31882  29.960  12.417   2.666
59458W        W31883   0.893  41.400  12.408
59459W        W31884  35.465  41.363  11.961
59460W        W31885   4.913  34.429   2.775
59461W        W31886  35.595  42.748   3.832
59462W        W31887  42.428  38.993  12.944
59463W        W31888   9.747  15.461  13.498
59464W        W31889  15.073  13.150   3.602
59465W        W31890   8.246  27.786  13.475
59466W        W31891   4.960  33.493  14.766
59467W        W31892  34.335  37.581  11.640
59468W        W31893  18.190  42.546   3.895
59469W        W31894   1.858   1.781   3.171
59470W        W31895  32.631  37.801   0.304
59471W        W31896  28.544   5.725  12.984
59472W        W31897   3.119  33.332  12.993
59473W        W31898   2.277  11.912   2.396
59474W        W31899  21.067   9.744  10.230
59475W        W31900  36.004  23.161   5.065
59476W        W31901   9.920   3.111  13.099
59477W        W31902  39.377  41.687   4.363
59478W        W31903  19.726  26.660  14.893
59479W        W31904  41.074   3.267  13.811
59480W        W31905  17.752  35.954   2.317
59481W        W31906   9.922  39.356   1.554
59482W        W31907  42.388  12.618   2.656
59483W        W31908  42.727  21.739   0.311
59484W        W31909  32.438   6.728   0.350
59485W        W31910  26.041  28.559  14.030
59486W        W31911   7.822   1.745   2.201
59487W        W31912  42.067  24.196   1.899
59488W        W31913  37.230  24.511   2.819
59489W        W31914  30.474  40.411  14.917
59490W        W31915  31.594  41.775  13.040
59491W        W31916  21.147  13.032   4.725
59492W        W31917  30.953  17.294  10.671
59493W        W31918  41.398  20.351   4.640
59494W        W31919   0.322  15.208  10.631
59495W        W31920  11.422  40.617  10.543
59496W        W31921  13.717  12.257  14.772
59497W        W31922  30.173  39.960   2.113
59498W        W31923  16.076   0.509   5.031
59499W        W31924  14.874  29.907   3.898
59500W        W31925  34.102  23.969   0.581
59501W        W31926   7.741   3.345   3.069
59502W        W31927  19.701  40.712  14.145
59503W        W31928  32.007   7.824   5.038
59504W        W31929  21.553  15.032  14.875
59505W        W31930   9.321  29.542  11.533
59506W        W31931  41.958  42.751   3.285
59507W        W31932  15.023   1.857  11.568
59508W        W31933  44.508  41.126  13.853
59509W        W31934  22.829   7.402   2.926
59510W        W31935  31.809  15.318   2.304
59511W        W31936  24.155  42.402  11.652
59512W        W31937   0.643  32.045  13.338
59513W        W31938  43.354   4.361   2.231
59514W        W31939   4.842  19.056  13.077
59515W        W31940  44.236  40.587   4.198
59516W        W31941  14.845   6.533   4.207
59517W        W31942  15.242   1.476   4.518
59518W        W31943   1.852  36.440   0.736
59519W        W31944  35.612  33.906  14.252
59520W        W31945   9.845  38.769   1.546
59521W        W31946  18.842  25.031   1.125
59522W        W31947  43.877  15.062  13.403
59523W        W31948   0.489  37.001   2.753
59524W        W31949  15.819  38.150  10.916
59525W        W31950  13.416  34.135   2.959
59526W        W31951   9.656  10.573   0.870
59527W        W31952  14.123  37.452   1.628
59528W        W31953  36.370   3.288  12.943
59529W        W31954  17.671  15.385  10.979
59530W        W31955  27.998  25.529  13.336
59531W        W31956  32.183  28.558   0.183
59532W        W31957  19.975  17.383   0.635
59533W        W31958  38.490  12.396  12.133
59534W        W31959  13.742   3.850   4.558
59535W        W31960   5.683  22.273  11.068
59536W        W31961  10.769  33.530  11.119
59537W        W31962  37.372  18.165   4.674
59538W        W31963   0.807   8.769   2.185
59539W        W31964  22.037  30.974  10.921
59540W        W31965  44.222   7.719   0.811
59541W        W31966  30.495  31.376  14.054
59542W        W31967   1.960  28.946   0.751
59543W        W31968  31.637   8.710   0.122
59544W        W31969  18.732  12.116   3.612
59545W        W31970   9.093  20.177   4.523
59546W        W31971   2.356  44.548   4.124
59547W        W31972  33.655  33.541  13.564
59548W        W31973  10.558  14.545  10.832
59549W        W31974   6.959  33.014   3.877
59550W        W31975  38.334  40.433   1.515
59551W        W31976  26.283  42.954  13.826
59552W        W31977   4.969   5.149   3.761
59553W        W31978  44.393  21.613   0.868
59554W        W31979  40.025   4.405   1.966
59555W        W31980  22.674   4.795  13.034
59556W        W31981  38.908  18.708  11.846
59557W        W31982   6.179   5.333   0.354
59558W        W31983  15.213   4.126  13.404
59559W        W31984  21.700  44.736  12.041
59560W        W31985  24.761   8.616   1.516
59561W        W31986  28.435  31.907   0.392
59562W        W31987  33.913  41.902  11.229
59563W        W31988   8.277   8.931  10.668
59564W        W31989  19.498  11.786  12.283
59565W        W31990  38.978  13.095  10.985
59566W        W31991  36.173  11.857  13.346
59567W        W31992  19.186  40.940  14.297
59568W        W31993  44.704   6.379  14.487
59569W        W31994  24.302  23.108  11.493
59570W        W31995  29.905  42.327  11.692
59571W        W31996  21.003  40.937  12.979
59572W        W31997  19.734  42.488   1.835
59573W        W31998  29.056  44.122  13.163
59574W        W31999  14.710  36.139   3.606
59575W        W32000  22.492  44.979  13.987
59576W        W32001  19.702  15.715   3.037
59577W        W32002  37.951   5.858  13.901
59578W        W32003  43.111  20.540  14.030
59579W        W32004  26.714  21.225  11.967
59580W        W32005  35.686  22.127  14.263
59581W        W32006  38.800  28.468  12.557
59582W        W32007  41.053  26.646   2.175
59583W        W32008   1.254  24.659  11.543
59584W        W32009  43.249  38.774  12.357
59585W        W32010  36.614  34.069  11.217
59586W        W32011  33.785  35.934   2.678
59587W        W32012  15.748  26.024  11.879
59588W        W32013  30.923  29.342  12.805
59589W        W32014  25.305  21.480   0.414
59590W        W32015  21.561   3.838  14.284
59591W        W32016  40.323  36.822  14.381
59592W        W32017  19.589   9.914  12.484
59593W        W32018  14.153  11.637  11.997
59594W        W32019  13.396  22.631   0.289
59595W        W32020  15.052  21.099  12.490
59596W        W32021  10.293  43.763   4.220
59597W        W32022  37.165  31.856   2.197
59598W        W32023   4.765   9.723  11.245
59599W        W32024  13.104  42.275   3.632
59600W        W32025  27.034  30.517   4.806
59601W        W32026  20.526   7.554   3.883
59602W        W32027  40.951   1.389   0.820
59603W        W32028   9.905   0.879   2.971
59604W        W32029  33.212  11.123   0.625
59605W        W32030  15.335   3.470  14.878
59606W        W32031   7.443  13.455   2.834
59607W        W32032  22.617   7.116  10.669
59608W        W32033  22.176  36.894  11.885
59609W        W32034  16.969   2.821   2.541
59610W        W32035   3.256  13.153  12.433
59611W        W32036  38.077  25.073  14.688
59612W        W32037  44.076   0.386   4.203
59613W        W32038  43.953  16.843  14.428
59614W        W32039  10.290   5.778   3.179
59615W        W32040  13.183  41.424  12.006
59616W        W32041   8.764  36.511  11.224
59617W        W32042  31.742  36.680  11.673
59618W        W32043  20.299   7.298   2.856
59619W        W32044   5.415  33.791  13.478
59620W        W32045  32.359  42.593   0.167
59621W        W32046  14.768  30.851   0.294
59622W        W32047   7.601  29.200  12.163
59623W        W32048   0.980  28.992   4.584
59624W        W32049  15.264  30.301  10.816
59625W        W32050   1.241  41.899  14.061
59626W        W32051   3.705  24.154  13.303
59627W        W32052  38.983  16.076  12.546
59628W        W32053  38.586  25.147  13.955
59629W        W32054  12.844   3.194   0.389
59630W        W32055  23.834  21.666  14.704
59631W        W32056  34.631   4.874   0.883
59632W        W32057  25.808  26.161   2.747
59633W        W32058  10.627   7.807   3.824
59634W        W32059  23.280   0.378  14.672
59635W        W32060  34.757  42.790  14.910
59636W        W32061  33.445  36.590  11.158
59637W        W32062  12.745  15.080   3.859
59638W        W32063  22.589  43.118  10.980
59639W        W32064   2.828  15.128   3.101
59640W        W32065  43.330   6.212   9.943
59641W        W32066  18.577   8.391  14.873
59642W        W32067  13.495   3.106  12.474
59643W        W32068  10.483  17.374   0.673
59644W        W32069  16.590  24.553   1.486
59645W        W32070  10.047  21.594   2.797
59646W        W32071   1.353  34.959   3.268
59647W        W32072  12.244   6.434   0.949
59648W        W32073  33.624  22.173   3.522
59649W        W32074  37.519  34.391  14.480
59650W        W32075  36.867  24.690   4.530
59651W        W32076  14.729  41.063   3.756
59652W        W32077  43.482  11.160   2.921
59653W        W32078   5.409  29.187  12.991
59654W        W32079  23.457  13.331  13.486
59655W        W32080   4.561  14.054   2.108
59656W        W32081  35.155   2.981  11.109
59657W        W32082  30.213  18.212  11.898
59658W        W32083   7.169  29.506  12.430
59659W        W32084   1.849  28.592  11.645
59660W        W32085  19.031  32.084   1.821
59661W        W32086  40.519  39.869   3.818
59662W        W32087  25.753  32.337  11.996
59663W        W32088  30.948  14.643  10.721
59664W        W32089  30.265  20.007  12.157
59665W        W32090  40.315  15.505  10.352
59666W        W32091   5.197   1.209   0.991
59667W        W32092  14.666  10.852   4.115
59668W        W32093  29.732  14.584   2.102
59669W        W32094  42.954  31.564  12.942
59670W        W32095   4.194  29.148   4.090
59671W        W32096  13.863  44.953   1.386
59672W        W32097  24.229  43.504  13.771
59673W        W32098  23.694   3.767  14.427
59674W        W32099   6.188  40.679  13.065
59675W        W32100   9.078  35.027   2.310
59676W        W32101   5.051  40.787  12.432
59677W        W32102   9.301  14.040  13.952
59678W        W32103  24.005  28.298   0.821
59679W        W32104  39.617   4.429  14.388
59680W        W32105  11.871  35.825  13.204
59681W        W32106  20.052  44.414  11.970
59682W        W32107  43.701  32.003   4.378
59683W        W32108  23.523  34.093   1.915
59684W        W32109  42.877   7.351  12.128
59685W        W32110  20.309   9.188   0.610
59686W        W32111  39.368  23.711  13.882
59687W        W32112  29.578   2.393  10.654
59688W        W32113  19.268  20.688  11.644
59689W        W32114  17.891  14.731  11.752
59690W        W32115  16.644  19.509   2.291
59691W        W32116   8.440   0.839  10.416
59692W        W32117   1.312  35.610   3.229
59693W        W32118  36.774   1.779  11.417
59694W        W32119  14.278  36.482   1.265
59695W        W32120  21.683  12.378  11.071
59696W        W32121  26.145   4.718  11.695
59697W        W32122   9.415  34.461   0.971
59698W        W32123   2.362  17.118  14.258
59699W        W32124  11.295  40.593   4.868
59700W        W32125  20.190  16.566  13.796
59701W        W32126  37.817  31.377   2.667
59702W        W32127  25.634   2.245  10.730
59703W        W32128   5.697   7.761   3.681
59704W        W32129  12.477  24.895  13.114
59705W        W32130   4.441  22.821  11.188
59706W        W32131  34.896  23.152   4.131
59707W        W32132  16.097  28.735   4.060
59708W        W32133  33.314  29.136   0.780
59709W        W32134  32.082  30.971  12.522
59710W        W32135  15.896  21.007   0.927
59711W        W32136  21.088   1.751   3.295
59712W        W32137  35.077  30.841  12.512
59713W        W32138  33.876  24.763   1.749
59714W        W32139  36.042  36.800   0.388
59715W        W32140  25.711   4.903  13.414
59716W        W32141  33.538   9.631  14.278
59717W        W32142   4.385  40.927   2.084
59718W        W32143  15.641  19.729   0.458
59719W        W32144  36.580   3.341  14.776
59720W        W32145  12.668  13.294  10.625
59721W        W32146  44.767   3.160   2.211
59722W        W32147  29.053  22.695  14.057
59723W        W32148  32.633  18.462   4.247
59724W        W32149  13.148  29.941   0.714
59725W        W32150  15.858  34.116  10.720
59726W        W32151  14.774  39.461   3.404
59727W        W32152  29.432   8.400  14.357
59728W        W32153  42.759   3.215   0.901
59729W        W32154  11.276  13.798  11.830
59730W        W32155  21.714  35.151  13.921
59731W        W32156  28.665  24.138   2.634
59732W        W32157  23.787  32.619   4.840
59733W        W32158   4.765  24.397   3.305
59734W        W32159   4.919  16.953   0.931
59735W        W32160   5.174  30.178  12.941
59736W        W32161  16.825  14.737   4.450
59737W        W32162   7.679  39.556  11.672
59738W        W32163  15.675  33.399   3.735
59739W        W32164   0.934  29.751  11.562
59740W        W32165  31.995   1.873  10.343
59741W        W32166   7.470  28.361  13.995
59742W        W32167  26.011  30.623  13.068
59743W        W32168  38.910  43.244   2.374
59744W        W32169  28.152  23.568   1.016
59745W        W32170  26.939  11.259  11.846
59746W        W32171  28.628   4.076   3.782
59747W        W32172   5.319  31.059   1.073
59748W        W32173  32.927  42.512  10.787
59749W        W32174   4.419  23.752  12.895
59750W        W32175   0.427  36.684   1.251
59751W        W32176  28.859  22.329  12.481
59752W        W32177   6.728  31.002   1.029
59753W        W32178  35.856  43.951   0.443
59754W        W32179  15.757  15.975   1.709
59755W        W32180  17.126  15.268   0.906
59756W        W32181  24.878  40.541  13.487
59757W        W32182  35.437  40.106   4.714
59758W        W32183  40.080  18.514   1.433
59759W        W32184  14.779   1.928   0.279
59760W        W32185   4.248  35.520   4.395
59761W        W32186  41.517  13.770  13.954
59762W        W32187  12.799  27.010   3.852
59763W        W32188   1.078   1.267   0.778
59764W        W32189   7.754   0.885   1.553
59765W        W32190  29.172  43.838   4.238
59766W        W32191  13.330  36.359   3.209
59767W        W32192  44.810   4.045  10.420
59768W        W32193  16.022  22.533  11.667
59769W        W32194  33.901   2.421  11.474
59770W        W32195   5.803  40.344  13.012
59771W        W32196   9.270   4.225   3.185
59772W        W32197  13.486  44.163   3.728
59773W        W32198   6.361   5.996   1.928
59774W        W32199  26.503  26.196  14.248
59775W        W32200  18.082  15.353  13.553
59776W        W32201  21.349  35.085  14.913
59777W        W32202   2.220  27.533  11.084
59778W        W32203  31.506  31.633   1.915
59779W        W32204  18.196  10.386  13.956
59780W        W32205  35.319  20.476  11.084
59781W        W32206  19.672  37.588  11.454
59782W        W32207  40.779   0.484  12.844
59783W        W32208  10.563   9.757  11.114
59784W        W32209  12.757   6.989  14.719
59785W        W32210  36.584  41.342  10.987
59786W        W32211   6.817   8.966  13.582
59787W        W32212  26.135  11.082   3.127
59788W        W32213  44.835  22.167   2.863
59789W        W32214  39.220  11.753  12.043
59790W        W32215   4.392  32.832   1.991
59791W        W32216  40.879  36.962   2.246
59792W        W32217  37.496  12.346   0.457
59793W        W32218  15.208  36.981   4.661
59794W        W32219  41.210  34.551   2.152
59795W        W32220  11.887  41.854   4.982
59796W        W32221   9.216  29.814  13.798
59797W        W32222  43.469  20.975   2.826
59798W        W32223  26.127  27.866   4.257
59799W        W32224   4.357  43.052   0.957
59800W        W32225   3.226   1.479   3.356
59801W        W32226  39.916  32.365   2.672
59802W        W32227  43.074  14.286   4.101
59803W        W32228  39.981   2.018  10.730
59804W        W32229  40.435  34.562  11.659
59805W        W32230  35.587   4.273  10.967
59806W        W32231  19.748   9.690   2.150
59807W        W32232  33.511  10.849   4.472
59808W        W32233  12.772  43.369   2.841
59809W        W32234   6.367   6.270   4.253
59810W        W32235  17.196  25.507   2.411
59811W        W32236   0.327   7.769   4.157
59812W        W32237  35.662   8.082  11.936
59813W        W32238  23.110   5.957   1.655
59814W        W32239  36.458  41.533   4.287
59815W        W32240  33.941   5.504  10.884
59816W        W32241   8.687  11.359  11.981
59817W        W32242  25.233  28.205  11.635
59818W        W32243  35.475  35.367   4.169
59819W        W32244  30.442  11.342  14.038
59820W        W32245  11.301   8.580   4.983
59821W        W32246  38.432  13.742   1.887
59822W        W32247  26.563  28.476  14.121
59823W        W32248  44.982   9.660   3.234
59824W        W32249  24.632  20.558  12.825
59825W        W32250  39.782   3.313   2.336
59826W        W32251  11.441  30.096   2.120
59827W        W32252  28.595  20.121  13.534
59828W        W32253  16.688  10.005   3.182
59829W        W32254  12.512  10.132  11.027
59830W        W32255  37.074  35.965   4.147
59831W        W32256   2.383   0.974   0.554
59832W        W32257  27.984  16.963   0.470
59833W        W32258  27.204  13.643   3.223
59834W        W32259  27.856  38.568   4.472
59835W        W32260  11.836   0.485  13.750
59836W        W32261  34.553  20.203  12.964
59837W        W32262  38.024  33.373   4.117
59838W        W32263  44.942  15.415   4.137
59839W        W32264  10.623  22.769   1.741
59840W        W32265  25.801  16.260   1.829
59841W        W32266  43.622  10.144  10.637
59842W        W32267   7.899  34.508  13.605
59843W        W32268   2.270  21.199  14.583
59844W        W32269   8.233  28.499  14.756
59845W        W32270  36.097  21.777  12.465
59846W        W32271  42.337  32.348   2.936
59847W        W32272   5.156  15.994  12.167
59848W        W32273  23.112   2.965   3.784
59849W        W32274  40.220  20.686  14.905
59850W        W32275  21.251  29.845   4.076
59851W        W32276  12.241  11.770   1.689
59852W        W32277  22.631   7.572   3.819
59853W        W32278   3.570  30.157   2.822
59854W        W32279  21.039  32.051   4.739
59855W        W32280  20.324  15.882  14.857
59856W        W32281  28.098  44.833   4.237
59857W        W32282   5.324  33.877  11.449
59858W        W32283  37.133  39.488   1.758
59859W        W32284  10.150  11.219  14.821
59860W        W32285   3.582  23.724  13.530
59861W        W32286  26.118  38.220   2.070
59862W        W32287   4.425  44.491   3.237
59863W        W32288  16.576  13.131  11.426
59864W        W32289  43.613  41.742  14.944
59865W        W32290  15.205  11.309   2.118
59866W        W32291   1.703  35.063   0.007
59867W        W32292  44.980  39.462  12.900
59868W        W32293   7.774   4.678  13.333
59869W        W32294  44.617  39.870  13.128
59870W        W32295  22.255  35.140   0.011
59871W        W32296  43.563  13.241  13.734
59872W        W32297  30.113  33.117   2.246
59873W        W32298  26.931  11.874   2.192
59874W        W32299  16.719  13.048   3.725
59875W        W32300  26.374  16.087  11.922
59876W        W32301  36.110  10.806   2.416
59877W        W32302  42.329   5.232  14.245
59878W        W32303  37.161  10.142   2.343
59879W        W32304  24.981  36.921   3.227
59880W        W32305  13.552  42.861  14.374
59881W        W32306  38.023  15.812  12.379
59882W        W32307  18.424   2.426  10.452
59883W        W32308  36.581  30.563   5.157
59884W        W32309  21.045  17.915   0.282
59885W        W32310  25.426  43.439  11.394
59886W        W32311  40.966  32.075  10.224
59887W        W32312  16.225  19.281  10.684
59888W        W32313   0.748   2.745   0.014
59889W        W32314   2.754  21.118   1.919
59890W        W32315   3.666   2.659  12.754
59891W        W32316  26.561  35.777  11.857
59892W        W32317  20.224  39.225   4.138
59893W        W32318  15.556  27.396   2.420
59894W        W32319  15.255   2.328  14.383
59895W        W32320   1.507  25.245   3.788
59896W        W32321  37.967   1.337   0.308
59897W        W32322  31.099   7.401  12.181
59898W        W32323  31.921   0.847  10.443
59899W        W32324  13.454  31.655   4.567
59900W        W32325   0.968  37.369  13.065
59901W        W32326  44.305  12.357   2.391
59902W        W32327  12.541  29.898  11.037
59903W        W32328   1.197   2.209  10.806
59904W        W32329  30.743  18.989   0.786
59905W        W32330  28.977   9.300   1.150
59906W        W32331  27.945  15.089  14.846
59907W        W32332   8.899   7.914   1.467
59908W        W32333   1.481   9.807   3.125
59909W        W32334  23.932  15.600  11.918
59910W        W32335   4.325   2.711   4.131
59911W        W32336  38.074  26.131  13.310
59912W        W32337  11.924  19.175   3.922
59913W        W32338  33.535  22.097  10.386
59914W        W32339  32.638  29.079  10.877
59915W        W32340   9.256  26.961   3.203
59916W        W32341  12.654  38.316   3.420
59917W        W32342  16.774   5.268  13.289
59918W        W32343  37.622   9.389   4.784
59919W        W32344  13.301  16.103   0.880
59920W        W32345  13.133  34.221   1.907
59921W        W32346  31.180  18.726  11.971
59922W        W32347  36.905   5.125   3.669
59923W        W32348  11.104   8.199   1.804
59924W        W32349  10.683  29.700   1.629
59925W        W32350  21.684  30.868  14.289
59926W        W32351   7.685  36.654   2.387
59927W        W32352   3.509  24.057  14.922
59928W        W32353  31.571  35.550  12.894
59929W        W32354  30.344  17.705   4.204
59930W        W32355  18.608  19.496  14.867
59931W        W32356  15.308  22.607   4.606
59932W        W32357  42.922  33.427   5.240
59933W        W32358  19.657   8.994   3.168
59934W        W32359  43.871  23.622  12.448
59935W        W32360  30.032  25.565   4.641
59936W        W32361  19.485  16.533  12.630
59937W        W32362  13.733  12.561  11.786
59938W        W32363  19.067  34.954  13.751
59939W        W32364  33.494  22.175   4.037
59940W        W32365   7.134   9.897   0.225
59941W        W32366  33.338  12.722   4.157
59942W        W32367  22.243  19.508  13.404
59943W        W32368   0.970  33.415   2.864
59944W        W32369   5.224  24.209  12.787
59945W        W32370  20.393   8.798   0.295
59946W        W32371   9.894  30.279   0.337
59947W        W32372  34.147  38.038   4.850
59948W        W32373  27.982  34.131   9.635
59949W        W32374  39.412  13.277  13.352
59950W        W32375  27.294  32.088  10.189
59951W        W32376  10.152  14.111   4.688
59952W        W32377  26.663   8.232  10.460
59953W        W32378  22.019   6.375   1.121
59954W        W32379   0.364  43.965   4.757
59955W        W32380  16.373  35.649  14.037
59956W        W32381  14.522   4.392   2.692
59957W        W32382   5.799   3.189   2.702
59958W        W32383   5.317  36.537  10.422
59959W        W32384   8.105   7.629  11.087
59960W        W32385  43.276  20.255   0.282
59961W        W32386  36.413   7.929   4.182
59962W        W32387   7.904   9.903   0.838
59963W        W32388  40.416  33.773   3.243
59964W        W32389   9.237   6.118  10.647
59965W        W32390   9.069  14.645  12.367
59966W        W32391  32.602  15.736   1.301
59967W        W32392  36.552  25.624  13.939
59968W        W32393  30.127  11.615   1.750
59969W        W32394  35.186   1.514  14.951
59970W        W32395  23.232  22.200  13.606
59971W        W32396   6.830  15.393  12.440
59972W        W32397  41.572  11.910  12.102
59973W        W32398  29.139  38.789   2.711
59974W        W32399  27.176  25.396   0.814
59975W        W32400  11.191  29.204   2.708
59976W        W32401  11.356  21.186   0.802
59977W        W32402  39.457  23.842   4.158
59978W        W32403  10.663  32.451  11.704
59979W        W32404  16.139   5.627   1.941
59980W        W32405   9.537  27.884  11.477
59981W        W32406  42.609  20.708   1.753
59982W        W32407  29.485  16.074   0.985
59983W        W32408   5.325  35.966   1.475
59984W        W32409  30.932  32.471   2.368
59985W        W32410  38.432   4.582   4.012
59986W        W32411  17.109  11.627   4.167
59987W        W32412  15.727  24.015   3.357
59988W        W32413  14.987   4.870   4.488
59989W        W32414  15.063  20.477   0.906
59990W        W32415  35.608   6.349   3.272
59991W        W32416  31.318  22.158  14.090
59992W        W32417  41.028  11.779   1.438
59993W        W32418  44.698  26.416   0.413
59994W        W32419  25.678  38.408  14.230
59995W        W32420  13.290  21.035  14.968
59996W        W32421  12.838   5.366  11.631
59997W        W32422  38.435  20.663   4.591
59998W        W32423  27.429   3.659   3.355
59999W        W32424  19.942   3.151   0.749
60000W        W32425  11.182  28.109  14.474
60001W        W32426  43.969  40.498  11.646
60002W        W32427  23.079  30.857   2.972
60003W        W32428   7.298  14.574   4.924
60004W        W32429   4.275  13.283   3.994
60005W        W32430  32.905   1.506   4.421
60006W        W32431   4.468  26.462  14.777
60007W        W32432  25.150  33.312   0.087
60008W        W32433   0.672  16.531  11.426
60009W        W32434   6.256   4.075  10.784
60010W        W32435   6.479  34.497  13.952
60011W        W32436  24.003  38.860   0.305
60012W        W32437  21.329  14.797   4.257
60013W        W32438  23.959  31.122   2.639
60014W        W32439  43.624   2.813   3.292
60015W        W32440  27.005  34.490   1.359
60016W        W32441  39.490  20.509  12.667
60017W        W32442  23.416  36.889  12.848
60018W        W32443  18.122  13.186  12.375
60019W        W32444  30.912   3.664  13.858
60020W        W32445  42.934  40.582   0.969
60021W        W32446  29.979  13.405  13.645
60022W        W32447  13.491   0.260   0.304
60023W        W32448  28.148  18.630   1.271
60024W        W32449  25.448  42.395   0.857
60025W        W32450  10.175   7.710   3.608
60026W        W32451   3.378  19.458  10.744
60027W        W32452   5.113  18.726  11.162
60028W        W32453  32.791  33.083  13.275
60029W        W32454  27.992  43.578  11.345
60030W        W32455   6.763  33.388  13.637
60031W        W32456  30.217  41.605  13.466
60032W        W32457   3.045  11.301  10.262
60033W        W32458  12.551   9.936  11.514
60034W        W32459  10.168  24.229  11.358
60035W        W32460  15.113  26.214   3.278
60036W        W32461  37.567  18.448  14.822
60037W        W32462  21.038  16.616   3.697
60038W        W32463   9.235  11.309   3.818
60039W        W32464  38.373  12.933   3.834
60040W        W32465  13.238   0.613  10.643
60041W        W32466  15.549  19.790  12.174
60042W        W32467  18.556  34.512  14.423
60043W        W32468  42.862  15.126  13.398
60044W        W32469  11.612  44.575   1.397
60045W        W32470   8.826  17.009  12.440
60046W        W32471  34.540  33.399   1.395
60047W        W32472  25.688  43.955   0.780
60048W        W32473  37.906  19.219  11.104
60049W        W32474  21.082  32.210  14.953
60050W        W32475  28.513  42.330   3.596
60051W        W32476  29.111   0.467   0.375
60052W        W32477  34.977  14.359   2.418
60053W        W32478  35.546  35.026   3.428
60054W        W32479  33.201  17.838   0.534
60055W        W32480  35.167  23.768  12.969
60056W        W32481  30.370  19.724  10.666
60057W        W32482   7.819  11.757   0.919
60058W        W32483  10.937   2.968  14.270
60059W        W32484   1.809  37.768   2.257
60060W        W32485  30.074  15.933   4.770
60061W        W32486   9.689  34.827  12.620
60062W        W32487   5.442  14.790  12.376
60063W        W32488   3.560   1.787   0.304
60064W        W32489  17.804   9.857  12.944
60065W        W32490  38.389  21.733  14.326
60066W        W32491  15.555  16.792   0.362
60067W        W32492   3.706  11.237  12.515
60068W        W32493  28.313  43.605  13.069
60069W        W32494  36.461  22.282  12.393
60070W        W32495  33.488  16.550  12.099
60071W        W32496  12.140  20.776  12.847
60072W        W32497  15.202  41.119   3.246
60073W        W32498   2.896  39.880   2.931
60074W        W32499  27.923   1.313  14.039
60075W        W32500  33.298  23.727  14.335
60076W        W32501   5.127  24.905   5.028
60077W        W32502   2.220  13.173   1.511
60078W        W32503   0.572  40.917   2.916
60079W        W32504  21.983  19.126  14.309
60080W        W32505  36.764  13.761   2.636
60081W        W32506   6.062   9.591   3.461
60082W        W32507  21.699  29.005   4.124
60083W        W32508  10.206   7.235   2.297
60084W        W32509  41.863  35.233  12.356
60085W        W32510   8.968  12.573   2.875
60086W        W32511   5.735  19.998  11.501
60087W        W32512   2.697  33.527  10.870
60088W        W32513  10.404  30.403   2.684
60089W        W32514  20.995  16.375  12.438
60090W        W32515  42.197  26.613  12.518
60091W        W32516  11.943   3.786  14.982
60092W        W32517   1.932   7.328   2.628
60093W        W32518  17.535  27.144  14.353
60094W        W32519  22.453   2.400   3.025
60095W        W32520  17.231  30.527  10.795
60096W        W32521  38.033   9.690   2.099
60097W        W32522  23.578  27.803  13.778
60098W        W32523  39.448  27.898   1.972
60099W        W32524  19.697  13.028   4.970
60100W        W32525  40.600   1.188  11.292
60101W        W32526  36.069  12.896  13.985
60102W        W32527  22.522  14.294   4.634
60103W        W32528  32.417  16.906  12.958
60104W        W32529  22.217   5.170   4.636
60105W        W32530  13.231  28.702  11.546
60106W        W32531  35.174  18.092   3.217
60107W        W32532  12.277  41.398  14.483
60108W        W32533  32.302  21.103   2.626
60109W        W32534   6.161  35.510   4.996
60110W        W32535  17.310  29.716  12.522
60111W        W32536  16.109  31.198   4.183
60112W        W32537   6.858  23.150   4.529
60113W        W32538  32.948  24.520   0.837
60114W        W32539  33.086   2.741   0.316
60115W        W32540   9.066  15.214  12.230
60116W        W32541  10.924  29.688  14.828
60117W        W32542   3.220  32.447   3.735
60118W        W32543  18.012  24.249   4.167
60119W        W32544  10.332  24.585   3.720
60120W        W32545   4.987  19.530  11.583
60121W        W32546  38.159   0.290   0.262
60122W        W32547   9.902  34.863   1.913
60123W        W32548  31.602  36.626  12.153
60124W        W32549   9.659   8.420  13.973
60125W        W32550  39.285  32.816  11.088
60126W        W32551  43.276   7.861   2.224
60127W        W32552   7.927   7.137  11.121
60128W        W32553  30.632  22.199   1.242
60129W        W32554  36.972  33.605  10.605
60130W        W32555  27.190  40.947  10.707
60131W        W32556   1.979   9.681   1.406
60132W        W32557  32.340   4.581   4.850
60133W        W32558  14.244   0.973   1.355
60134W        W32559  30.674  42.351  13.581
60135W        W32560  28.009  26.964   4.102
60136W        W32561  10.335  29.465  14.516
60137W        W32562  36.722  26.032  12.383
60138W        W32563   8.336  34.571  13.875
60139W        W32564  27.445   4.568  11.477
60140W        W32565   7.042  13.592  10.842
60141W        W32566  12.244   6.638   2.180
60142W        W32567  30.078  25.725   2.636
60143W        W32568  30.902  40.937   2.366
60144W        W32569  28.464   8.674   2.014
60145W        W32570  16.149  41.850  10.698
60146W        W32571  29.513   3.019   2.687
60147W        W32572  22.847  38.773   2.256
60148W        W32573  19.299  18.706  10.581
60149W        W32574  40.283  18.007   0.447
60150W        W32575  33.791   6.521   1.789
60151W        W32576  15.069  37.325   3.726
60152W        W32577   8.659  23.479   0.486
60153W        W32578  40.114  41.489  11.369
60154W        W32579  29.194  26.230  10.691
60155W        W32580  43.886  33.494  10.681
60156W        W32581  39.491  27.873  11.816
60157W        W32582  43.253  26.294  12.435
60158W        W32583  28.407  20.935   2.634
60159W        W32584  39.891  14.249  10.515
60160W        W32585  20.934  33.288   2.791
60161W        W32586  13.339  13.148   2.199
60162W        W32587   8.522  22.948  12.352
60163W        W32588  18.621  17.144   2.941
60164W        W32589   2.395   8.198  10.793
60165W        W32590  35.562   0.805   2.429
60166W        W32591  34.561  43.345  10.567
60167W        W32592  33.063  12.184   1.504
60168W        W32593  15.767   5.999   2.706
60169W        W32594  16.382   7.774   4.330
60170W        W32595   8.685  20.436   1.607
60171W        W32596  44.006  35.122  12.234
60172W        W32597  18.101  12.701   4.742
60173W        W32598   8.079   2.329   3.301
60174W        W32599   3.220  15.080  10.829
60175W        W32600   3.335   7.250  11.187
60176W        W32601  34.879  23.526  12.571
60177W        W32602  33.481  17.031   4.646
60178W        W32603  38.117  27.946  11.211
60179W        W32604  35.283  41.089   3.737
60180W        W32605  43.743  25.917  12.864
60181W        W32606  27.404  43.112   4.081
60182W        W32607  44.840   5.004   0.492
60183W        W32608  43.047  17.757  14.027
60184W        W32609   6.171  38.657  14.346
60185W        W32610  31.969  23.657  11.964
60186W        W32611   3.924   4.923  12.893
60187W        W32612  12.825  44.020  11.146
60188W        W32613  29.260  40.426  10.627
60189W        W32614   6.396  32.392  13.372
60190W        W32615  35.058  40.323  14.468
60191W        W32616  15.838  35.072   1.009
60192W        W32617   4.142  26.227  14.442
60193W        W32618  43.488  40.049   1.609
60194W        W32619  39.956  20.559  11.389
60195W        W32620  43.993  26.205  10.225
60196W        W32621  20.109  39.230   3.249
60197W        W32622  41.978  44.797   9.381
60198W        W32623  40.846   1.680  13.533
60199W        W32624  31.962  32.554  12.416
60200W        W32625  15.630  40.907   3.393
60201W        W32626  13.405  37.881   4.354
60202W        W32627  40.981   6.139   1.405
60203W        W32628  39.802   9.162  11.090
60204W        W32629  38.082   9.207  10.618
60205W        W32630  36.381   4.363   4.426
60206W        W32631  31.673  39.569  11.535
60207W        W32632  36.949  24.522   0.500
60208W        W32633  27.060  20.969   4.964
60209W        W32634   4.422  40.754   1.604
60210W        W32635  12.432   9.886  12.612
60211W        W32636  28.657  29.743   2.630
60212W        W32637  36.851  28.394   4.035
60213W        W32638  16.897  10.605  12.608
60214W        W32639   3.691   9.451   0.744
60215W        W32640  26.945  19.835   1.863
60216W        W32641  29.656   1.501  11.560
60217W        W32642  12.719  18.078  11.935
60218W        W32643  42.012  30.440   1.237
60219W        W32644  26.530  22.727   1.828
60220W        W32645  24.099  26.521  12.207
60221W        W32646  24.354  10.480  10.671
60222W        W32647  13.293  31.086  10.723
60223W        W32648  17.705   6.692   1.307
60224W        W32649  31.414  32.384   4.445
60225W        W32650  23.560  24.445   3.203
60226W        W32651   9.576  21.359  12.407
60227W        W32652   8.344  22.179   4.749
60228W        W32653  29.370   9.706  14.528
60229W        W32654  22.433  22.029   1.134
60230W        W32655   2.123  18.122   1.907
60231W        W32656  29.798  10.580   1.016
60232W        W32657   0.959  38.022  13.621
60233W        W32658  31.657   0.708  14.476
60234W        W32659   7.338  12.902   0.773
60235W        W32660  37.385  42.741   4.612
60236W        W32661  40.985   0.504   3.714
60237W        W32662  21.251   9.635  12.566
60238W        W32663  29.611  10.338  12.814
60239W        W32664  29.775  30.489   4.248
60240W        W32665  40.042  41.431  10.778
60241W        W32666  26.946   6.474   2.795
60242W        W32667  37.865  15.393  14.915
60243W        W32668  22.069  21.572   0.508
60244W        W32669  32.920  30.612  10.648
60245W        W32670   8.605  22.778  10.737
60246W        W32671  12.284  22.056  12.605
60247W        W32672  27.411   6.272  12.054
60248W        W32673   6.226  16.725   3.232
60249W        W32674  11.638  41.405   4.843
60250W        W32675  34.418   2.597   0.316
60251W        W32676  39.718  37.817  12.330
60252W        W32677  20.348  35.421   5.028
60253W        W32678  44.096  33.367  11.136
60254W        W32679  11.861  28.595  12.528
60255W        W32680  15.860   2.117   4.207
60256W        W32681  31.605   0.869   4.240
60257W        W32682  34.560  16.002   4.216
60258W        W32683  43.336  11.302   2.190
60259W        W32684   5.548  28.465  14.355
60260W        W32685   2.814   9.695  12.096
60261W        W32686  24.537  35.811  10.772
60262W        W32687  25.983  32.099  11.516
60263W        W32688  26.829  30.631  12.110
60264W        W32689  22.199  43.816  11.937
60265W        W32690  36.070  25.531   3.372
60266W        W32691  43.150   6.598  13.015
60267W        W32692   8.796  19.269   0.929
60268W        W32693  11.805  15.549  14.232
60269W        W32694  43.406  38.351  13.131
60270W        W32695  38.073  13.582  10.638
60271W        W32696   9.386  22.885  11.696
60272W        W32697  39.984   3.916  11.836
60273W        W32698  18.148  21.735   0.343
60274W        W32699   7.256  30.058   3.252
60275W        W32700  13.903  13.748   3.749
60276W        W32701  33.719  27.146  12.967
60277W        W32702   6.012  39.404  14.170
60278W        W32703  36.854  19.540  12.571
60279W        W32704   7.237   1.070  13.881
60280W        W32705  19.645  19.579   3.858
60281W        W32706  15.059   8.353   1.338
60282W        W32707  17.269  15.100  10.714
60283W        W32708  20.965   9.207  12.536
60284W        W32709  27.968  11.729   4.168
60285W        W32710  26.564   3.969  14.348
60286W        W32711   2.805  16.883  13.501
60287W        W32712  36.940  14.699  12.677
60288W        W32713   8.758  41.814   1.987
60289W        W32714  17.329   2.827  13.167
60290W        W32715  31.102  11.685   3.192
60291W        W32716  11.286  26.341  11.587
60292W        W32717  39.345   5.405  12.925
60293W        W32718  22.038   1.814   2.350
60294W        W32719  13.627  38.983  14.002
60295W        W32720  33.493   4.761   1.205
60296W        W32721   0.386   5.366  13.929
60297W        W32722   0.203  37.345  10.683
60298W        W32723  12.720  27.634   0.046
60299W        W32724  19.059  28.541  11.839
60300W        W32725  20.931   2.172   0.069
60301W        W32726  23.763  40.042   3.173
60302W        W32727  23.267  12.097   0.461
60303W        W32728   9.426  28.769  11.043
60304W        W32729  36.058  38.771   2.428
60305W        W32730  13.424  10.790   2.704
60306W        W32731  32.400   8.843  11.627
60307W        W32732  14.756  38.978  11.253
60308W        W32733  42.230  35.034  14.332
60309W        W32734  18.308   1.353  13.996
60310W        W32735   4.678  17.818   4.573
60311W        W32736   6.490  32.422   2.453
60312W        W32737  33.001  42.571   1.243
60313W        W32738  19.450  38.877  13.654
60314W        W32739  17.609  16.518  14.592
60315W        W32740  23.997  44.529   3.735
60316W        W32741  32.937  19.075   3.419
60317W        W32742   4.051  44.300  13.064
60318W        W32743  23.104  34.677  13.272
60319W        W32744  22.269  30.663   1.443
60320W        W32745  40.537  30.471   3.178
60321W        W32746  36.406   5.861  11.449
60322W        W32747  39.411  31.159  14.872
60323W        W32748  37.939  12.562   0.265
60324W        W32749  40.055   7.334   2.756
60325W        W32750  25.242   7.145   0.198
60326W        W32751   2.671  42.502  11.939
60327W        W32752  35.496   1.741  11.559
60328W        W32753  43.087  12.130  10.967
60329W        W32754   3.283  26.777  11.257
60330W        W32755  16.698  35.103   2.150
60331W        W32756  14.153   1.421   3.706
60332W        W32757  30.903  23.646   1.925
60333W        W32758  10.444  28.898   1.296
60334W        W32759  37.879  17.628   4.111
60335W        W32760  21.240   2.841  11.739
60336W        W32761  34.673  43.324  12.953
60337W        W32762  33.435  18.299  12.511
60338W        W32763  37.116  35.586  10.666
60339W        W32764  35.004  34.184   2.344
60340W        W32765  32.274  23.886   4.524
60341W        W32766  41.778  20.153  12.897
60342W        W32767  35.527  14.467   3.701
60343W        W32768   2.305  16.603   4.237
60344W        W32769  32.169  25.106  14.287
60345W        W32770  42.654  25.592  13.975
60346W        W32771  18.849  12.194  12.979
60347W        W32772  43.797  16.051   2.189
60348W        W32773  33.571  24.955   1.000
60349W        W32774   6.601  16.625  12.085
60350W        W32775  20.580   5.389  12.484
60351W        W32776  25.724  13.110   1.012
60352W        W32777  35.588  18.713   2.895
60353W        W32778  18.533  25.089  12.969
60354W        W32779  16.537  16.838  10.677
60355W        W32780   5.937  21.557  12.018
60356W        W32781  44.800  29.351  12.638
60357W        W32782  33.665   8.385  12.987
60358W        W32783  25.032   8.160   1.927
60359W        W32784  14.155  17.104   1.304
60360W        W32785  33.269  34.523   0.820
60361W        W32786  22.021   6.179   3.639
60362W        W32787  33.350  10.132  13.173
60363W        W32788   5.786  15.948  12.025
60364W        W32789  25.882   5.473  13.910
60365W        W32790  25.534  37.908  12.477
60366W        W32791  41.772  25.148  14.436
60367W        W32792  13.848  22.655  14.322
60368W        W32793  43.734  17.562  11.622
60369W        W32794  29.350   1.630   1.450
60370W        W32795  43.381   3.905  12.243
60371W        W32796  10.494  30.641   4.594
60372W        W32797   4.786   5.158  11.207
60373W        W32798  22.357  16.302   3.762
60374W        W32799  42.757  24.002  11.989
60375W        W32800   3.716   3.448  14.445
60376W        W32801   3.423   4.798  11.532
60377W        W32802  34.924  27.644  14.834
60378W        W32803  11.213  19.760  13.829
60379W        W32804  39.041   1.928  13.796
60380W        W32805  27.132   0.765   0.685
60381W        W32806  19.622   4.019  11.374
60382W        W32807  18.711  44.532  14.088
60383W        W32808  10.351   3.964   4.379
60384W        W32809  24.219  41.228  13.330
60385W        W32810  22.467   1.462   3.316
60386W        W32811  16.206  33.535   0.043
60387W        W32812  33.027  26.058   2.888
60388W        W32813   4.913  26.283   2.332
60389W        W32814   6.355  41.598   2.766
60390W        W32815  21.751   3.260  11.038
60391W        W32816  34.329   4.610  11.508
60392W        W32817  18.066   7.415  12.027
60393W        W32818   4.899  14.791   3.391
60394W        W32819  25.235  29.979  12.929
60395W        W32820   2.572   1.303   2.780
60396W        W32821  41.938  16.550   3.587
60397W        W32822  26.177  37.946   4.414
60398W        W32823   2.941  13.247   3.076
60399W        W32824  28.076   3.761  12.050
60400W        W32825   4.345   5.275  12.909
60401W        W32826   4.889  36.469  13.936
60402W        W32827  30.374   8.329   0.731
60403W        W32828  17.267  25.107   0.007
60404W        W32829   4.871  16.919  14.980
60405W        W32830  24.410   2.119  12.531
60406W        W32831  33.999   6.011   1.778
60407W        W32832  38.879  36.188  13.938
60408W        W32833  31.148  33.592  12.566
60409W        W32834  40.235  17.765   1.736
60410W        W32835  33.963   5.421  12.424
60411W        W32836  24.071   0.551  14.257
60412W        W32837  34.926  18.511   1.337
60413W        W32838  44.549  25.034   4.528
60414W        W32839  14.807  37.346   4.705
60415W        W32840  30.672  19.980  11.009
60416W        W32841  43.549  31.073  14.432
60417W        W32842  15.294  23.531  10.269
60418W        W32843  14.249   6.635   3.088
60419W        W32844  42.755  28.186   1.921
60420W        W32845   9.607  31.145  12.397
60421W        W32846   9.594  42.123  11.226
60422W        W32847   0.612  18.601   2.391
60423W        W32848  16.600  29.023   1.368
60424W        W32849   0.521  13.579  12.632
60425W        W32850   8.266  27.534   1.288
60426W        W32851  31.312  11.636  11.991
60427W        W32852  13.984  39.376   1.090
60428W        W32853  19.175  35.453   0.040
60429W        W32854  12.154   9.314  12.643
60430W        W32855  25.234  31.205  13.044
60431W        W32856  24.156  41.260   5.049
60432W        W32857  10.863   1.753  12.643
60433W        W32858  35.411  41.283   3.255
60434W        W32859  43.556   5.950   3.239
60435W        W32860  34.943  40.541   2.666
60436W        W32861   1.150  11.806  12.857
60437W        W32862   5.120   5.703   0.788
60438W        W32863  40.380  34.480   3.767
60439W        W32864  16.276  28.581   1.637
60440W        W32865  24.448  24.130   0.779
60441W        W32866  42.797  25.149  11.161
60442W        W32867  33.277  25.781  12.928
60443W        W32868  24.297  33.498   1.771
60444W        W32869  35.908  10.869   4.605
60445W        W32870  23.504  43.553  13.108
60446W        W32871  39.720   0.749  12.056
60447W        W32872  27.385  27.687  12.085
60448W        W32873  23.786   5.954  12.105
60449W        W32874  11.591  20.960   2.165
60450W        W32875  14.231  32.047  11.043
60451W        W32876  37.800   8.418   0.787
60452W        W32877   0.460  28.989   0.946
60453W        W32878  40.646  12.775  12.575
60454W        W32879  14.675  30.342   0.397
60455W        W32880  17.624  14.071  14.448
60456W        W32881  14.618  12.224   3.456
60457W        W32882  33.134  12.532   2.256
60458W        W32883  10.171  33.028   3.695
60459W        W32884  30.437  29.657   0.725
60460W        W32885  10.222  10.312  12.627
60461W        W32886   4.603  41.744  13.300
60462W        W32887  40.784   2.839   2.904
60463W        W32888   5.440  10.853   2.837
60464W        W32889  33.570   7.214   4.592
60465W        W32890  10.884   0.862   0.997
60466W        W32891  28.296  26.307  12.955
60467W        W32892  40.799   9.413   0.904
60468W        W32893   1.456  21.113   3.590
60469W        W32894  15.719   7.392  12.506
60470W        W32895  17.277  44.870  14.044
60471W        W32896  37.646  28.322  13.520
60472W        W32897  14.398  11.900   0.899
60473W        W32898  30.132  28.902  13.030
60474W        W32899  24.007  42.438   4.561
60475W        W32900  38.806   1.831  11.887
60476W        W32901  43.810  20.199   0.041
60477W        W32902   8.668  16.698   1.718
60478W        W32903  39.100  18.820   4.150
60479W        W32904  29.470  32.592   5.440
60480W        W32905  38.942  16.070  10.707
60481W        W32906  44.295  34.065   1.676
60482W        W32907  20.363  20.481   4.111
60483W        W32908  23.129  16.056  12.518
60484W        W32909  38.179  23.229  11.899
60485W        W32910   6.142  35.866   4.620
60486W        W32911  36.937  35.961  10.952
60487W        W32912  11.769  31.562  11.879
60488W        W32913  16.130  14.580  10.691
60489W        W32914  17.677  19.450  13.968
60490W        W32915  41.913   4.429   2.304
60491W        W32916  37.423   8.642   4.837
60492W        W32917  37.988  16.656   3.288
60493W        W32918  26.859  20.242   2.161
60494W        W32919  25.581  31.988  14.904
60495W        W32920  24.498  43.168   2.191
60496W        W32921  26.459  33.895   3.206
60497W        W32922   8.382  44.044   3.637
60498W        W32923   1.318   0.520  13.339
60499W        W32924   7.667  28.734   0.325
60500W        W32925  31.552   5.929   0.931
60501W        W32926  31.133   3.973  11.682
60502W        W32927   8.445  26.589  13.887
60503W        W32928   2.790  36.335  14.505
60504W        W32929   5.235  26.632  12.556
60505W        W32930  22.525  30.383   1.099
60506W        W32931  15.303   1.384  10.398
60507W        W32932  13.646  40.518  12.915
60508W        W32933  28.326  25.544  14.043
60509W        W32934  35.903  17.341   5.061
60510W        W32935  20.559   7.683   0.019
60511W        W32936  26.074  28.081  11.920
60512W        W32937  33.133  19.646  13.576
60513W        W32938   1.754  32.584  12.976
60514W        W32939   5.455   5.406  13.452
60515W        W32940  23.533  34.533   3.430
60516W        W32941  30.353  12.400   1.326
60517W        W32942  39.659  37.900   3.018
60518W        W32943   1.008  20.072   3.601
60519W        W32944  15.397  21.568   4.188
60520W        W32945  19.329  38.871   0.775
60521W        W32946  17.102  20.716  11.962
60522W        W32947  42.975  34.957  11.468
60523W        W32948  36.203  23.491   5.421
60524W        W32949   4.204  34.528  13.519
60525W        W32950  20.740  16.258   3.118
60526W        W32951  11.341  22.277  11.711
60527W        W32952  30.538  19.058  14.411
60528W        W32953  35.123  18.458   9.912
60529W        W32954  17.240  32.096   0.258
60530W        W32955  44.785  13.993  12.884
60531W        W32956  12.242  30.921  12.991
60532W        W32957  37.344  30.926  13.357
60533W        W32958  27.978   7.895   2.476
60534W        W32959  17.234  18.043  11.610
60535W        W32960  30.352   2.473   1.493
60536W        W32961  44.428  18.353   2.438
60537W        W32962  22.063  33.501   0.296
60538W        W32963  32.549   9.681  13.028
60539W        W32964   3.908   3.222  11.612
60540W        W32965   8.433   9.844  13.373
60541W        W32966  42.041  38.426  12.373
60542W        W32967  14.733  36.070   1.690
60543W        W32968  39.992   3.908   1.240
60544W        W32969  12.286  16.382  11.352
60545W        W32970  15.676  11.217   2.351
60546W        W32971  25.113   1.737  12.949
60547W        W32972  33.973  30.079   3.667
60548W        W32973  27.445  19.810   0.546
60549W        W32974  37.882  28.511  11.977
60550W        W32975  33.417  18.207   0.215
60551W        W32976  19.674  35.498   2.421
60552W        W32977  34.820  33.910   3.665
60553W        W32978  37.059  18.153  11.245
60554W        W32979  25.290  38.918   3.158
60555W        W32980   4.269  44.691   0.805
60556W        W32981  19.580  22.714  14.515
60557W        W32982   8.179  18.519  12.234
60558W        W32983  44.832  44.797   3.258
60559W        W32984  27.140  33.721  14.899
60560W        W32985  31.376  21.255   2.701
60561W        W32986  16.275   4.195  14.367
60562W        W32987  21.669  31.495  12.068
60563W        W32988  19.831   2.777  11.603
60564W        W32989   8.462  18.660   4.649
60565W        W32990   0.915  44.638   3.281
60566W        W32991  25.113  24.970  10.460
60567W        W32992  26.577  40.493   3.751
60568W        W32993  34.401   8.484   1.998
60569W        W32994  29.675  25.220  10.731
60570W        W32995   2.803  28.671  10.645
60571W        W32996  41.073  13.028  13.734
60572W        W32997  42.227   3.713   2.902
60573W        W32998  28.912   3.897   0.186
60574W        W32999   7.935  18.296  10.483
60575W        W33000  14.486  28.521  12.350
60576W        W33001   4.881  25.533  13.538
60577W        W33002  31.669  36.567   2.347
60578W        W33003  41.838   9.872  11.590
60579W        W33004  36.008  16.179   2.418
60580W        W33005  14.069   3.253  13.978
60581W        W33006   3.684  24.185  10.653
60582W        W33007   3.350  19.568  14.581
60583W        W33008  21.846  38.169  12.200
60584W        W33009  42.033  13.916  13.072
60585W        W33010  16.757  29.634   2.797
60586W        W33011  18.942  36.040  11.191
60587W        W33012  30.552  27.933   0.371
60588W        W33013   7.390  42.515   0.461
60589W        W33014  43.245  17.649   0.278
60590W        W33015  22.723   5.798   0.142
60591W        W33016  34.441  37.855   2.684
60592W        W33017   0.580  26.458   1.735
60593W        W33018  34.661  34.123   0.750
60594W        W33019   8.786  19.057   4.603
60595W        W33020  38.354  16.886  13.600
60596W        W33021  31.562  19.767  10.205
60597W        W33022  42.511  26.103   4.823
60598W        W33023  31.621  10.178   4.668
60599W        W33024   1.919  27.908   1.660
60600W        W33025   8.778  27.160   0.744
60601W        W33026   3.911   8.881   4.313
60602W        W33027  29.894  30.919  13.767
60603W        W33028  36.797  22.659  11.014
60604W        W33029  24.609   5.630  14.568
60605W        W33030  24.722  25.458  13.412
60606W        W33031  18.225  33.258   1.598
60607W        W33032  32.189  23.085   4.331
60608W        W33033   5.171  43.506   2.782
60609W        W33034  41.352   3.847   1.875
60610W        W33035  30.018  16.474   2.028
60611W        W33036  38.990  31.720   1.295
60612W        W33037  43.002  41.296  11.471
60613W        W33038  38.675   9.287   2.445
60614W        W33039  44.830  29.695   3.906
60615W        W33040  22.286  12.063   0.241
60616W        W33041  40.594   4.334   3.195
60617W        W33042  27.721   9.395   1.844
60618W        W33043  29.160   5.332   3.750
60619W        W33044   1.739  12.213   2.319
60620W        W33045   7.451  17.090   2.751
60621W        W33046  10.201   8.692   0.372
60622W        W33047  20.269  11.698   2.796
60623W        W33048  21.530  33.162   2.915
60624W        W33049   6.807   4.445   1.689
60625W        W33050  29.744  19.595  12.915
60626W        W33051  33.852  31.908   3.107
60627W        W33052  34.257   4.505  12.011
60628W        W33053  38.435  38.450  10.544
60629W        W33054   0.328  32.378  13.047
60630W        W33055  44.306  22.618   0.414
60631W        W33056  39.286   4.800   3.491
60632W        W33057  30.975  42.862   2.299
60633W        W33058   9.065  23.497  10.693
60634W        W33059  38.363  29.186   1.450
60635W        W33060  10.727  42.380   2.300
60636W        W33061  17.543   9.775  11.570
60637W        W33062  31.493  16.390   5.582
60638W        W33063  42.823  41.226   2.691
60639W        W33064  16.901  31.164   0.462
60640W        W33065  17.591   7.536  14.098
60641W        W33066   7.710  16.205   3.573
60642W        W33067  22.671  18.269   4.772
60643W        W33068   0.086   3.276  11.026
60644W        W33069  37.432  33.489  14.033
60645W        W33070  23.686   8.265   4.502
60646W        W33071  43.243  21.548  11.900
60647W        W33072  14.640  43.540  12.384
60648W        W33073  34.926  18.048   4.608
60649W        W33074  32.598  34.504   2.806
60650W        W33075  42.359  37.089   3.662
60651W        W33076   0.714  35.546   1.891
60652W        W33077  15.897  43.262  11.492
60653W        W33078  37.376   0.716  13.005
60654W        W33079  21.915   0.598  13.891
60655W        W33080  36.316   1.979  13.385
60656W        W33081  39.727  10.862   2.787
60657W        W33082   9.612  39.023  12.091
60658W        W33083  38.635  34.266   1.875
60659W        W33084  17.585  29.915   2.871
60660W        W33085  18.836   5.693  10.617
60661W        W33086  43.828  16.776   4.538
60662W        W33087  43.153  18.950   0.024
60663W        W33088  35.964  26.072   2.295
60664W        W33089   5.179  32.082  14.755
60665W        W33090  40.948  14.744   1.303
60666W        W33091  16.545  36.979   4.865
60667W        W33092   2.789   6.844  11.962
60668W        W33093  18.262   3.803  12.789
60669W        W33094  20.856  10.274  11.489
60670W        W33095  10.325  35.903   4.880
60671W        W33096  38.940  35.592   5.031
60672W        W33097  20.833  39.002  12.329
60673W        W33098  36.308  31.867  14.274
60674W        W33099   8.362  39.506   0.044
60675W        W33100   8.792  33.117   4.159
60676W        W33101  37.876  43.463  11.416
60677W        W33102  27.225   9.230  14.325
60678W        W33103  33.946  20.111  14.311
60679W        W33104  24.624  20.263  11.995
60680W        W33105   8.286   5.534  12.654
60681W        W33106  30.938  36.824  14.816
60682W        W33107  30.681  23.195   2.153
60683W        W33108   3.946  21.275   2.430
60684W        W33109   2.357  18.653  10.905
60685W        W33110   9.210  38.566   2.697
60686W        W33111  39.805  38.593   3.673
60687W        W33112   9.157  12.272   2.212
60688W        W33113  41.332  28.936  10.722
60689W        W33114  15.494  29.364   4.594
60690W        W33115  12.625  23.160   1.214
60691W        W33116   0.863  11.283   0.710
60692W        W33117  26.248  38.294  13.406
60693W        W33118  33.711  22.116   9.884
60694W        W33119   3.354  26.319  12.189
60695W        W33120  20.698  35.099  13.016
60696W        W33121  39.082  12.443  14.182
60697W        W33122  29.018  24.436   1.713
60698W        W33123  11.986  35.952  11.049
60699W        W33124   1.824  17.032  12.115
60700W        W33125   5.266   5.408   0.213
60701W        W33126  20.299  42.516  11.531
60702W        W33127   0.113  12.290  11.580
60703W        W33128  12.899  23.225   0.757
60704W        W33129  22.397  28.843   2.410
60705W        W33130  27.185  40.958  11.222
60706W        W33131   5.652  30.482  11.624
60707W        W33132  20.689  42.346   0.221
60708W        W33133   1.975  34.211  14.815
60709W        W33134   8.695  31.955  13.923
60710W        W33135  35.992  31.444  11.956
60711W        W33136  21.632  37.753   4.547
60712W        W33137  44.966  18.177  12.578
60713W        W33138  26.087  35.789  11.566
60714W        W33139   7.115  44.963   2.726
60715W        W33140  20.449  42.280  14.703
60716W        W33141  14.285  19.774  11.615
60717W        W33142  15.793  16.358  10.654
60718W        W33143  37.966   0.205  10.594
60719W        W33144   6.842  28.090  10.342
60720W        W33145  18.771   1.445  12.936
60721W        W33146   9.279  15.980   0.906
60722W        W33147  12.072  37.881   2.959
60723W        W33148   4.012   6.770   0.450
60724W        W33149  26.771  26.633   2.187
60725W        W33150  19.496  40.073   2.889
60726W        W33151   9.736  36.712  11.886
60727W        W33152  28.635  42.054  13.320
60728W        W33153  44.315  40.116  14.798
60729W        W33154  10.301  19.879   5.089
60730W        W33155  12.218  12.980   1.176
60731W        W33156  23.527  39.823   0.818
60732W        W33157  44.959  40.077   2.928
60733W        W33158  12.559  10.121  13.086
60734W        W33159  12.289  39.531   3.235
60735W        W33160  17.326   8.841   4.095
60736W        W33161  14.787  35.076   4.228
60737W        W33162  22.594  43.035   1.002
60738W        W33163  34.817  29.590   4.505
60739W        W33164  35.330  15.316   1.567
60740W        W33165   1.099  33.024  11.168
60741W        W33166  39.092  26.604   3.627
60742W        W33167  37.287  43.466  14.230
60743W        W33168   5.023  40.213  13.284
60744W        W33169   4.219  32.186  11.197
60745W        W33170  10.333  34.369   1.193
60746W        W33171   5.240   4.779  10.252
60747W        W33172  26.520   9.504   3.833
60748W        W33173   1.396  19.931   0.428
60749W        W33174  44.861   1.897   0.402
60750W        W33175  28.211  14.273  13.497
60751W        W33176  43.097   3.273   4.088
60752W        W33177  12.767   7.515  12.148
60753W        W33178  35.777  38.086  12.542
60754W        W33179  38.598  32.104   1.459
60755W        W33180  16.467  11.107   0.909
60756W        W33181   2.651  21.238   4.043
60757W        W33182  43.711  14.042   4.569
60758W        W33183  33.636   9.085  11.604
60759W        W33184   4.768   6.318   2.435
60760W        W33185  31.879  32.594  10.681
60761W        W33186  37.154  43.792  12.866
60762W        W33187   9.756   4.934   2.864
60763W        W33188  37.585  22.735  12.321
60764W        W33189  44.543   7.387  14.953
60765W        W33190   4.863  10.810   1.898
60766W        W33191  44.297   3.467  13.480
60767W        W33192  42.596  35.866  12.119
60768W        W33193  38.840   2.847   4.315
60769W        W33194  37.289  31.507   3.717
60770W        W33195  15.176  41.251   2.394
60771W        W33196  20.548  10.185   2.175
60772W        W33197   2.825  38.848   2.185
60773W        W33198  43.269   3.457   1.104
60774W        W33199   7.316  14.743  11.177
60775W        W33200  11.245  13.364   3.262
60776W        W33201  38.818  23.646   3.633
60777W        W33202  34.097  13.661   1.866
60778W        W33203  44.333   2.711  10.616
60779W        W33204  35.004  27.910  13.554
60780W        W33205  25.090  17.984   3.129
60781W        W33206   2.058  44.429  11.093
60782W        W33207  16.849   2.573   4.642
60783W        W33208  43.290  20.347   4.515
60784W        W33209  42.494  36.363  11.013
60785W        W33210  19.221  34.421   3.221
60786W        W33211  17.214   2.182   4.962
60787W        W33212   2.931  43.403  11.407
60788W        W33213   7.262  30.175   3.765
60789W        W33214  26.943   4.367  14.262
60790W        W33215  15.248  32.020   3.181
60791W        W33216  44.123  31.503   2.817
60792W        W33217  38.134  19.081   1.908
60793W        W33218  28.019  19.222   3.277
60794W        W33219  11.150   3.746  12.916
60795W        W33220  44.769  21.479  11.692
60796W        W33221   7.694  18.044  11.436
60797W        W33222  44.197  16.310   1.226
60798W        W33223  29.750   9.207  13.366
60799W        W33224  14.780  44.320   3.693
60800W        W33225  40.480   0.538   0.959
60801W        W33226  23.460  38.091   0.431
60802W        W33227  23.123  40.996   4.147
60803W        W33228  36.057  38.616   2.938
60804W        W33229  27.219  27.268  13.278
60805W        W33230  25.077  20.770   1.036
60806W        W33231  37.401   7.655   3.542
60807W        W33232  19.482  20.732  13.999
60808W        W33233  33.150  13.739  12.944
60809W        W33234   2.863  42.022  12.024
60810W        W33235  28.088  20.509   1.433
60811W        W33236  28.833  12.750  12.017
60812W        W33237  31.938   5.848   1.536
60813W        W33238   9.030   3.882   2.217
60814W        W33239  27.939  13.830   3.794
60815W        W33240  41.562  17.239  11.154
60816W        W33241   3.997  30.353   1.519
60817W        W33242   7.436  29.991  12.439
60818W        W33243  40.192  37.105  12.338
60819W        W33244  31.537  23.312  13.113
60820W        W33245  11.746   7.948  11.648
60821W        W33246  42.140  41.316   3.445
60822W        W33247  17.727  13.095   3.915
60823W        W33248  17.874  29.548   3.663
60824W        W33249  15.816  20.127   0.719
60825W        W33250  10.632  39.110  10.654
60826W        W33251   5.839  33.820   4.164
60827W        W33252   1.203  22.005   2.378
60828W        W33253  14.189  12.107   1.331
60829W        W33254  30.503   5.117   3.008
60830W        W33255  21.486  14.717  11.329
60831W        W33256  10.654   2.850  14.691
60832W        W33257  20.648  36.638  12.946
60833W        W33258   5.803  18.154  11.947
60834W        W33259  22.504   3.389   0.883
60835W        W33260  23.093   9.796   4.216
60836W        W33261  22.279  42.093  11.159
60837W        W33262   2.500   3.552   0.729
60838W        W33263  36.131  14.828  10.737
60839W        W33264  41.086  16.406  13.905
60840W        W33265  30.187  25.649  13.361
60841W        W33266  33.403  13.718  14.060
60842W        W33267  15.076  41.362   1.898
60843W        W33268   2.762  15.701  12.970
60844W        W33269  36.797  29.520   3.013
60845W        W33270  20.190  32.908   4.653
60846W        W33271  25.395  14.613  13.847
60847W        W33272   0.494  10.444   2.076
60848W        W33273   1.949  25.349  11.473
60849W        W33274  32.970  10.009   4.083
60850W        W33275   9.163  35.605   3.229
60851W        W33276  37.101  41.788   3.144
60852W        W33277  37.866   5.623   3.531
60853W        W33278  28.510  17.601   3.321
60854W        W33279  39.395  32.714   2.914
60855W        W33280   9.205   8.863   1.301
60856W        W33281  21.250  11.195  10.773
60857W        W33282  38.499  13.370  14.423
60858W        W33283  10.606  32.935   3.980
60859W        W33284  36.593  11.727  10.236
60860W        W33285  42.426  37.593   1.897
60861W        W33286  38.022  30.650  13.778
60862W        W33287  22.494  22.473   4.122
60863W        W33288   9.339   6.858   4.997
60864W        W33289  34.065  42.902  12.529
60865W        W33290  34.862   7.784   5.396
60866W        W33291  27.029  39.525   2.284
60867W        W33292   8.101  30.545   3.909
60868W        W33293  32.488  31.365  11.362
60869W        W33294  43.337  22.672   3.905
60870W        W33295  16.969  36.758   3.400
60871W        W33296   8.501  16.749  12.927
60872W        W33297  39.547  43.410   3.576
60873W        W33298   3.013  32.032  14.356
60874W        W33299  27.641  23.005   1.362
60875W        W33300   3.510   5.763   0.556
60876W        W33301  21.566  39.497  14.210
60877W        W33302   6.690  12.986   3.193
60878W        W33303  27.430   8.717  10.680
60879W        W33304  35.006  41.384   2.373
60880W        W33305  19.724   4.370  14.471
60881W        W33306  10.161  41.973   1.260
60882W        W33307   4.094  29.330   2.670
60883W        W33308  40.100  10.337  13.441
60884W        W33309  22.783  33.627   1.781
60885W        W33310  38.848   1.757  14.325
60886W        W33311  26.686   0.042  14.484
60887W        W33312  40.863  38.245   4.490
60888W        W33313  20.634  13.099   1.499
60889W        W33314  43.751   7.344  10.730
60890W        W33315  31.480  31.986  11.168
60891W        W33316  11.369   7.809  10.352
60892W        W33317  43.374  39.306  10.620
60893W        W33318   6.293   5.560   4.984
60894W        W33319  29.605   1.917  14.917
60895W        W33320   3.243  14.166  12.494
60896W        W33321   2.707  38.793  12.851
60897W        W33322  31.051  21.797   3.305
60898W        W33323   6.002  36.053   5.098
60899W        W33324  37.623  14.839   4.913
60900W        W33325   2.874  15.620  11.970
60901W        W33326  15.224  15.267  14.886
60902W        W33327  26.108  11.196   4.630
60903W        W33328  21.000  35.539  14.932
60904W        W33329   8.816   3.204   9.914
60905W        W33330  20.099  21.251  13.465
60906W        W33331  14.605  20.728  11.917
60907W        W33332  26.617  23.468   4.936
60908W        W33333  39.559  40.590  10.277
60909W        W33334   8.278  10.778  14.147
60910W        W33335  21.696  40.520   1.807
60911W        W33336  17.803  27.494   0.081
60912W        W33337  36.606   2.315  14.444
60913W        W33338   8.766  39.510   1.411
60914W        W33339  27.007  28.589   3.679
60915W        W33340  17.705  11.376   0.839
60916W        W33341  33.347  21.928   4.973
60917W        W33342  44.838  26.624  12.945
60918W        W33343  31.206  24.448   3.222
60919W        W33344   0.696   1.434   1.709
60920W        W33345  39.827  23.137  13.864
60921W        W33346  41.698   7.245   1.779
60922W        W33347  32.385  10.755   3.898
60923W        W33348  39.510  43.475  14.519
60924W        W33349   0.550  31.488  13.075
60925W        W33350   4.823  11.085   1.462
60926W        W33351  24.135  12.871  14.075
60927W        W33352   5.952   7.768   4.200
60928W        W33353  18.770  35.120   4.125
60929W        W33354  18.991  40.869  11.916
60930W        W33355  14.865   7.068   4.243
60931W        W33356  35.904  22.105   3.306
60932W        W33357  33.518  39.170   0.954
60933W        W33358  26.570   2.297  11.538
60934W        W33359  32.677  41.943  10.717
60935W        W33360  43.799  40.319  14.972
60936W        W33361   1.470  31.939   4.309
60937W        W33362  11.880  33.582  14.547
60938W        W33363   0.360  26.707  13.149
60939W        W33364  39.346  16.012  12.917
60940W        W33365   2.661   9.229   4.762
60941W        W33366  43.401  32.279   0.949
60942W        W33367  43.949   4.062  10.536
60943W        W33368  31.461  41.367  14.724
60944W        W33369  23.156  17.120   3.647
60945W        W33370  15.149  28.105  12.390
60946W        W33371  38.143   0.838   2.249
60947W        W33372  40.024  29.880   0.479
60948W        W33373  27.888  10.707   4.515
60949W        W33374   4.938  42.925  11.019
60950W        W33375  24.433  17.482  14.372
60951W        W33376  31.134  14.779  12.381
60952W        W33377   1.878  22.499  10.392
60953W        W33378  43.719  25.607   1.320
60954W        W33379  41.505  22.577   4.821
60955W        W33380   4.961  38.243   0.711
60956W        W33381  41.785  24.862   3.061
60957W        W33382  19.733  18.541   0.009
60958W        W33383  22.741  41.821   1.595
60959W        W33384   0.778  39.972  11.199
60960W        W33385  21.213   1.761  12.438
60961W        W33386  34.402  10.135   4.261
60962W        W33387  42.568  20.020   2.332
60963W        W33388  33.490  28.365   0.056
60964W        W33389  10.672  34.311  11.499
60965W        W33390   6.693  40.455   3.625
60966W        W33391  23.008  28.168   0.261
60967W        W33392  36.132  33.296   0.742
60968W        W33393   4.920  26.205  13.824
60969W        W33394   7.796  14.238   3.124
60970W        W33395  17.315  19.627  12.478
60971W        W33396  44.070  35.413  13.613
60972W        W33397  22.633  24.816   3.314
60973W        W33398  32.641  18.302  10.956
60974W        W33399   5.541   1.883  13.906
60975W        W33400   9.306  26.265  13.008
60976W        W33401  20.605  12.971  12.679
60977W        W33402  16.703   3.847  12.474
60978W        W33403  26.734   9.244   3.403
60979W        W33404  39.386  10.431   2.666
60980W        W33405   1.496  14.717  10.304
60981W        W33406  21.312   0.809   2.328
60982W        W33407  37.885   2.682  10.729
60983W        W33408   0.848  13.631   1.882
60984W        W33409  27.607   9.233  10.581
60985W        W33410  10.666  19.371  14.412
60986W        W33411  28.386   4.697   2.445
60987W        W33412   7.111  23.714   2.800
60988W        W33413   0.935  11.312   3.732
60989W        W33414  39.695   6.189   3.257
60990W        W33415  33.362   1.732   4.192
60991W        W33416  10.263  41.431   1.682
60992W        W33417  44.397  39.133   0.790
60993W        W33418  11.768  21.115   3.488
60994W        W33419   7.214  35.972   1.898
60995W        W33420  29.485   8.890   5.356
60996W        W33421  37.276   2.416  12.564
60997W        W33422  31.124  34.405   0.934
60998W        W33423  18.554  11.671   0.608
60999W        W33424   2.133  26.018   1.387
61000W        W33425  14.184  22.534  13.353
61001W        W33426  29.513  16.295   1.968
61002W        W33427  15.115   0.212  12.065
61003W        W33428  15.051  22.294   9.792
61004W        W33429   5.788  18.116  11.407
61005W        W33430   6.386  34.305   4.676
61006W        W33431  34.087   2.989   0.369
61007W        W33432   9.396  44.213   2.826
61008W        W33433  44.514  35.601   1.077
61009W        W33434  27.891  12.333  11.991
61010W        W33435  12.604  29.891  14.841
61011W        W33436  40.227   3.021   3.455
61012W        W33437  11.752   6.226  11.169
61013W        W33438   3.918  34.523   0.778
61014W        W33439  15.079   6.935  11.880
61015W        W33440  18.307  35.906  11.530
61016W        W33441  34.884  28.691   3.407
61017W        W33442  14.568  30.220   4.585
61018W        W33443  29.139  27.669  14.259
61019W        W33444  40.772  31.803  14.348
61020W        W33445  32.064  35.224   1.414
61021W        W33446  20.109   9.034   3.785
61022W        W33447   6.188  16.473   3.691
61023W        W33448  33.361  33.429   2.177
61024W        W33449  37.150  35.940  13.377
61025W        W33450  30.169  35.659   4.493
61026W        W33451  19.259  43.493  14.505
61027W        W33452  18.160  33.900  11.914
61028W        W33453  19.777  39.371   1.689
61029W        W33454  25.986  26.531  11.546
61030W        W33455   7.665  42.740  13.276
61031W        W33456  23.793   7.611   2.250
61032W        W33457  34.968  38.608  14.848
61033W        W33458  36.989  23.217   4.480
61034W        W33459  28.630  13.612  13.907
61035W        W33460   9.931  15.900  13.261
61036W        W33461   1.737  37.257   2.457
61037W        W33462  16.799   8.111   4.187
61038W        W33463   5.719  36.210  10.542
61039W        W33464  23.690  36.883   1.519
61040W        W33465  12.169  16.490   1.382
61041W        W33466  42.920   4.693   3.263
61042W        W33467  11.965  44.732  13.039
61043W        W33468   9.584  15.346   2.815
61044W        W33469   9.357  38.444   0.859
61045W        W33470   4.734  32.809  12.331
61046W        W33471  44.551   0.744  12.018
61047W        W33472   2.343  32.171  10.280
61048W        W33473  16.616  43.656  10.815
61049W        W33474  43.436  43.028   4.837
61050W        W33475  39.096  43.834  14.578
61051W        W33476  19.225  29.999   2.267
61052W        W33477  26.475  34.883  12.051
61053W        W33478  16.580  26.194  11.905
61054W        W33479  18.145  29.604  10.321
61055W        W33480   7.642   9.368   2.679
61056W        W33481  43.586  11.253   0.328
61057W        W33482   7.871   8.671   1.098
61058W        W33483   9.728  22.306   4.532
61059W        W33484   6.559  36.578  10.296
61060W        W33485  35.010  16.563   1.725
61061W        W33486  39.913   5.933  11.553
61062W        W33487  26.470  12.279   4.288
61063W        W33488  25.610  44.480   0.453
61064W        W33489   0.668  34.027   2.286
61065W        W33490  14.709  25.699   1.167
61066W        W33491  32.381  37.473   3.589
61067W        W33492  11.115  30.304  12.945
61068W        W33493  16.639  13.250  12.427
61069W        W33494  33.022  36.771  14.896
61070W        W33495   9.635  38.812   2.883
61071W        W33496   5.158  35.700  12.828
61072W        W33497  34.292  12.586  13.016
61073W        W33498  44.329  11.891  11.651
61074W        W33499  38.256  15.568   0.862
61075W        W33500  14.618  36.454  10.706
61076W        W33501  36.483   6.770   0.616
61077W        W33502  32.132   9.627   3.164
61078W        W33503  42.218   7.077   0.825
61079W        W33504  31.830  13.634  14.883
61080W        W33505  17.782  24.555   2.753
61081W        W33506  43.077   3.758  13.913
61082W        W33507  33.889  12.620   1.395
61083W        W33508  37.535  31.143   1.858
61084W        W33509  33.864  41.690  12.632
61085W        W33510  10.132  27.375  12.863
61086W        W33511  23.186   1.988  11.816
61087W        W33512  23.466  11.708  13.908
61088W        W33513   7.165  27.040  12.151
61089W        W33514  42.294   4.371   1.202
61090W        W33515  12.236   4.181   2.324
61091W        W33516  21.346   4.196   1.996
61092W        W33517  35.507  33.961   3.263
61093W        W33518  34.890   1.308  14.171
61094W        W33519  24.203   0.382  14.738
61095W        W33520  26.625   6.459  13.086
61096W        W33521  15.388  31.505   3.227
61097W        W33522  33.486  41.739  10.702
61098W        W33523  21.057  34.512   2.924
61099W        W33524  37.707  34.890  14.620
61100W        W33525  42.843  27.573   2.843
61101W        W33526  13.744  28.934   2.364
61102W        W33527  11.295  40.259   1.928
61103W        W33528  33.628  19.116  13.889
61104W        W33529  29.133  10.050  13.535
61105W        W33530  44.880   6.124  14.021
61106W        W33531  44.837  12.146   2.340
61107W        W33532  33.277  20.959  12.056
61108W        W33533  21.240   0.398   0.768
61109W        W33534  37.353  11.808  11.833
61110W        W33535  31.499  12.765   1.888
61111W        W33536   0.985   0.476  12.473
61112W        W33537  18.556   8.746  12.448
61113W        W33538  13.277   4.320   4.133
61114W        W33539  38.249  42.431   9.733
61115W        W33540  40.837  36.371   1.877
61116W        W33541  31.671   9.738  11.908
61117W        W33542   7.621  28.223   3.272
61118W        W33543  16.541  12.256   3.117
61119W        W33544  28.298  44.936   3.745
61120W        W33545   0.381   6.176  11.124
61121W        W33546  27.727  35.178   3.922
61122W        W33547   2.301  31.874  13.033
61123W        W33548  22.203   6.447   3.232
61124W        W33549  27.172  40.028   1.317
61125W        W33550  40.172  44.079   5.035
61126W        W33551  20.815  12.836  14.554
61127W        W33552  10.740   0.465  10.452
61128W        W33553  40.773  17.110   2.080
61129W        W33554   4.960  14.163   4.212
61130W        W33555   7.603  26.415   0.965
61131W        W33556  40.718  28.071  10.026
61132W        W33557  11.115  10.150  13.119
61133W        W33558  10.166  23.531   4.718
61134W        W33559  23.464  36.983  10.623
61135W        W33560   3.694  17.023  12.761
61136W        W33561  23.697  44.926   2.358
61137W        W33562   3.394   9.898  11.028
61138W        W33563  36.401  36.385  11.589
61139W        W33564   0.397  43.443   2.934
61140W        W33565  15.746  14.185  11.387
61141W        W33566   8.945  10.701  13.077
61142W        W33567  34.490  18.720   4.405
61143W        W33568   8.882   7.622   2.889
61144W        W33569  11.804  22.989  12.127
61145W        W33570  40.405  40.273  12.580
61146W        W33571  34.165   6.788  13.995
61147W        W33572  10.733  35.245   1.584
61148W        W33573  30.975  13.938   1.867
61149W        W33574  35.509  10.640  13.583
61150W        W33575   7.222  21.489   4.431
61151W        W33576  24.966  23.125  10.716
61152W        W33577  26.760  43.373   3.174
61153W        W33578  32.004  10.686   0.007
61154W        W33579  26.220   7.269  11.692
61155W        W33580  41.397  23.286   0.879
61156W        W33581  20.276  43.251  11.149
61157W        W33582   5.711  38.321   2.731
61158W        W33583  34.023  36.406  14.816
61159W        W33584  28.890  20.216   2.510
61160W        W33585   3.666  14.663  14.318
61161W        W33586  31.503  31.481  11.024
61162W        W33587   7.134  11.606   4.073
61163W        W33588  35.879  31.820   4.784
61164W        W33589   1.655  15.641  12.497
61165W        W33590  15.400  34.882   1.265
61166W        W33591  31.033  42.419   0.435
61167W        W33592   7.599  33.097  13.434
61168W        W33593  40.073  14.775  12.676
61169W        W33594   3.498  34.068  10.605
61170W        W33595  33.531  17.250  10.203
61171W        W33596  36.437  39.334   3.390
61172W        W33597  28.085  25.153   0.287
61173W        W33598  18.669  19.028   0.629
61174W        W33599  37.434  15.313   2.432
61175W        W33600   3.696  16.768   1.362
61176W        W33601  13.718  39.109  12.053
61177W        W33602  11.231   3.223  12.946
61178W        W33603   8.425  11.513   4.014
61179W        W33604  16.203  25.583  11.427
61180W        W33605  22.709  40.067   3.368
61181W        W33606  23.050  29.021   4.481
61182W        W33607   0.397  42.637   1.221
61183W        W33608  35.045   2.016  11.439
61184W        W33609  11.662  42.404  12.476
61185W        W33610   5.369   0.534   4.140
61186W        W33611  21.276  17.571   4.167
61187W        W33612  15.607  41.460   4.706
61188W        W33613   6.423   5.052   5.018
61189W        W33614  29.161  30.799  12.036
61190W        W33615  42.337  35.835   2.234
61191W        W33616  40.515  38.854  14.490
61192W        W33617   4.703  31.968  14.933
61193W        W33618  30.434  23.057  12.542
61194W        W33619  21.250  31.893  10.676
61195W        W33620  41.440   0.837   3.779
61196W        W33621  23.640   9.599  11.437
61197W        W33622   1.813   7.860   1.871
61198W        W33623  16.208  14.617   3.844
61199W        W33624  13.282  17.532  12.415
61200W        W33625   3.700  22.728   0.855
61201W        W33626  21.259  14.832   1.906
61202W        W33627  30.512  43.471  11.935
61203W        W33628   7.812   3.010  11.669
61204W        W33629  20.028  30.630   4.062
61205W        W33630  11.806  17.073   1.714
61206W        W33631   9.748  12.042  13.705
61207W        W33632  11.831   5.765  13.898
61208W        W33633  27.932   9.331   4.495
61209W        W33634  20.135  28.852  13.565
61210W        W33635  12.002  40.109  14.268
61211W        W33636   0.486  38.014  12.374
61212W        W33637  22.813  14.148   4.133
61213W        W33638  16.070  10.776   0.858
61214W        W33639  40.719  16.597  12.112
61215W        W33640  32.725  28.634  13.610
61216W        W33641  22.051   1.207   4.322
61217W        W33642  36.174   2.967   1.567
61218W        W33643   3.248  42.211  12.899
61219W        W33644  35.973  39.705  11.002
61220W        W33645  15.266  15.508   3.284
61221W        W33646  22.184  25.299  13.967
61222W        W33647  20.232  21.568   4.236
61223W        W33648   3.734  42.699   4.084
61224W        W33649   3.201  27.603  13.891
61225W        W33650  14.727  23.314  11.114
61226W        W33651  40.474   1.680  11.526
61227W        W33652  38.842  40.156  13.077
61228W        W33653  38.542  32.097  12.645
61229W        W33654   4.034  11.395  10.329
61230W        W33655  31.690  36.266  11.384
61231W        W33656  41.291  43.161  14.994
61232W        W33657  23.315  30.851   3.453
61233W        W33658  25.816   6.505   1.340
61234W        W33659  36.061  28.678   2.810
61235W        W33660  10.623  37.906   0.912
61236W        W33661  26.371  41.421  12.093
61237W        W33662  21.510  40.506   0.797
61238W        W33663  18.007  18.490  12.573
61239W        W33664  21.972  35.851   1.404
61240W        W33665  37.832  32.154   0.380
61241W        W33666  25.105  43.306  13.203
61242W        W33667  43.495  39.364   2.430
61243W        W33668  31.089   8.062   2.308
61244W        W33669   7.835   6.149   1.166
61245W        W33670   9.115   5.229  12.053
61246W        W33671  36.393  22.081   1.653
61247W        W33672  23.992  36.614   1.921
61248W        W33673  42.341   8.297  14.521
61249W        W33674  32.472   9.446  12.031
61250W        W33675   1.755   6.745   4.524
61251W        W33676  20.816  42.947  13.602
61252W        W33677   8.424   5.496   4.559
61253W        W33678  24.873  28.571  11.093
61254W        W33679  21.537  27.944   4.363
61255W        W33680  24.772   5.020  14.997
61256W        W33681  36.341  32.977   3.664
61257W        W33682  18.699  41.703   0.291
61258W        W33683   8.314  31.055  12.508
61259W        W33684  36.099   8.544   3.799
61260W        W33685  28.117  19.558   1.345
61261W        W33686  28.119   0.441  10.708
61262W        W33687  20.190   2.413   2.251
61263W        W33688  26.542   5.859   0.979
61264W        W33689   7.171  31.189   2.702
61265W        W33690  37.040  43.519   2.736
61266W        W33691  14.506  18.357   2.603
61267W        W33692  44.709   7.927  11.564
61268W        W33693   4.742  34.015   0.971
61269W        W33694  28.096  39.986   4.996
61270W        W33695  32.183   7.329  12.190
61271W        W33696  12.323  30.072  14.430
61272W        W33697  25.142   5.508  11.896
61273W        W33698   2.721   1.235   4.847
61274W        W33699  21.557   7.255   2.104
61275W        W33700   2.960   1.480  14.389
61276W        W33701  34.140   3.220   0.852
61277W        W33702  13.180  22.222  12.575
61278W        W33703  19.237   0.976   0.321
61279W        W33704  10.168  37.378  11.538
61280W        W33705   0.140   1.296   2.945
61281W        W33706   5.155  29.543  11.685
61282W        W33707  14.826  39.950   4.622
61283W        W33708  16.912  17.208  14.102
61284W        W33709  10.764   6.685   9.870
61285W        W33710   7.176  39.328  10.815
61286W        W33711  34.300  38.949   0.812
61287W        W33712  16.602  24.251   4.133
61288W        W33713  34.898  36.549   1.817
61289W        W33714  12.179  12.386  13.859
61290W        W33715  16.557  36.003   0.339
61291W        W33716  10.894   9.171   1.403
61292W        W33717  27.085  30.656   2.903
61293W        W33718   2.125  43.056  10.865
61294W        W33719  20.619  18.244   3.150
61295W        W33720  10.887  23.694   4.323
61296W        W33721   6.667  27.674   2.010
61297W        W33722   3.490  18.086   2.656
61298W        W33723  38.407   9.105   0.347
61299W        W33724   4.156   0.353   1.827
61300W        W33725   9.713  12.942  13.439
61301W        W33726  43.310  36.017  14.575
61302W        W33727  39.527  21.320   0.332
61303W        W33728   8.676  29.413   4.076
61304W        W33729  42.926  40.301   1.431
61305W        W33730  22.553  43.993   4.140
61306W        W33731   3.882  39.587   1.296
61307W        W33732  35.319  28.998   1.694
61308W        W33733  19.609  18.759  11.618
61309W        W33734  29.372  17.725   4.929
61310W        W33735   0.429  44.077   4.236
61311W        W33736  24.817  27.227   3.614
61312W        W33737  27.125  20.963   4.117
61313W        W33738  13.676  38.795   3.098
61314W        W33739  23.086  30.979  13.935
61315W        W33740  32.078  42.679   1.411
61316W        W33741  13.824   6.104  11.953
61317W        W33742   7.114  19.226   1.408
61318W        W33743  38.875  11.666   3.600
61319W        W33744  20.151  21.956  14.717
61320W        W33745  24.163   7.500   3.614
61321W        W33746  36.404   3.491   0.770
61322W        W33747  31.601  34.606  13.006
61323W        W33748  21.515  13.286  11.942
61324W        W33749  41.816  15.379  11.636
61325W        W33750  34.199  36.404  13.694
61326W        W33751  14.613  18.241  14.492
61327W        W33752   4.192  43.412   3.352
61328W        W33753  21.926  10.237   4.772
61329W        W33754   3.888  16.197  12.750
61330W        W33755   9.749  17.554   2.367
61331W        W33756  27.981  28.452  13.126
61332W        W33757  18.021   7.753   3.528
61333W        W33758   3.667  39.088   0.486
61334W        W33759  19.932  21.512   0.698
61335W        W33760  26.450   0.627   2.956
61336W        W33761   4.967   8.230  14.103
61337W        W33762  32.323   5.648  14.001
61338W        W33763  44.617  26.657  11.933
61339W        W33764  30.376  27.630  13.466
61340W        W33765  29.938  10.104   1.688
61341W        W33766  36.993  16.254  14.271
61342W        W33767  44.861  28.546   0.391
61343W        W33768  24.540   9.515   1.315
61344W        W33769  18.076   3.543   0.298
61345W        W33770  43.448  43.938   3.863
61346W        W33771  34.593   2.693  12.563
61347W        W33772  26.086   1.273  11.974
61348W        W33773  32.455  37.055   1.448
61349W        W33774  12.089  34.919  11.640
61350W        W33775   8.926  43.993  13.019
61351W        W33776  43.802   2.620   2.474
61352W        W33777  11.713  44.292  12.866
61353W        W33778  40.943   3.526   1.815
61354W        W33779  14.219  42.931   0.812
61355W        W33780  24.478  39.412   0.844
61356W        W33781  36.409  30.094   5.075
61357W        W33782  16.886  39.322  11.654
61358W        W33783  30.605  42.906  14.902
61359W        W33784  11.302   8.349   4.523
61360W        W33785  30.307  21.568  13.748
61361W        W33786  42.335   7.830   3.202
61362W        W33787   0.785   2.403   1.960
61363W        W33788  20.980  20.624  12.122
61364W        W33789  20.726  28.243   3.271
61365W        W33790  26.852  10.925   2.148
61366W        W33791  13.692   2.332  11.660
61367W        W33792  38.629  38.088   0.440
61368W        W33793  25.643  21.752  14.436
61369W        W33794  31.877  20.290   1.969
61370W        W33795  38.419  30.825   2.099
61371W        W33796  20.128  20.181   4.470
61372W        W33797   8.702  36.151   4.513
61373W        W33798  43.579  23.804  14.389
61374W        W33799  26.840  17.458  13.445
61375W        W33800   9.102   0.714  13.257
61376W        W33801  10.428  42.791  10.082
61377W        W33802  28.312   9.504  13.455
61378W        W33803  14.771  35.969  10.637
61379W        W33804  27.024   1.005   1.141
61380W        W33805  11.573  42.169  14.667
61381W        W33806   7.278  18.141  14.435
61382W        W33807   9.264  39.530   1.222
61383W        W33808   4.275   3.274  12.489
61384W        W33809  40.145  11.490  12.824
61385W        W33810  13.041  26.525  11.114
61386W        W33811  31.861  25.653   0.435
61387W        W33812  35.858   5.966   3.498
61388W        W33813  10.205  13.473  12.834
61389W        W33814  18.302  15.169   2.756
61390W        W33815   5.203  15.284   4.535
61391W        W33816  33.479  43.465   1.151
61392W        W33817   7.794   4.201   1.288
61393W        W33818  28.691  35.199   3.252
61394W        W33819   1.715   2.255  13.972
61395W        W33820  21.092   4.310   0.172
61396W        W33821  39.906  33.443  10.453
61397W        W33822  38.632  19.009   3.858
61398W        W33823  10.692  39.448   3.884
61399W        W33824  37.686  21.186  11.568
61400W        W33825  41.545   8.802  12.848
61401W        W33826   7.913  24.154   0.336
61402W        W33827  15.489   9.645  12.473
61403W        W33828  23.486   7.334  14.039
61404W        W33829  21.254  22.144  10.675
61405W        W33830  19.549   8.300  12.897
61406W        W33831  31.814  35.034   0.986
61407W        W33832  14.255   3.721  14.944
61408W        W33833  19.300  44.397   0.722
61409W        W33834   8.168   7.744   4.115
61410W        W33835   1.311  44.932   3.115
61411W        W33836  21.124  43.063   0.375
61412W        W33837  22.800  41.394   0.381
61413W        W33838  13.366  14.314  10.318
61414W        W33839  40.053   6.241   1.852
61415W        W33840  31.606  28.679  14.682
61416W        W33841  37.962  44.845   3.230
61417W        W33842  29.542   9.194   0.199
61418W        W33843  26.140  29.501  11.568
61419W        W33844  29.553  30.012   4.416
61420W        W33845  20.628  30.992   1.023
61421W        W33846  19.812  34.998  12.082
61422W        W33847  35.443  35.593  11.958
61423W        W33848  27.227  33.372   0.270
61424W        W33849  10.694  19.153   1.910
61425W        W33850  23.731  23.669   2.786
61426W        W33851  19.768   3.324  10.779
61427W        W33852   2.349  33.655   4.556
61428W        W33853  29.119   2.709  14.320
61429W        W33854  27.655  19.579  12.952
61430W        W33855  33.380  14.045   1.785
61431W        W33856  43.240  11.249   1.204
61432W        W33857   2.451  11.130  11.094
61433W        W33858   0.535  33.167   2.308
61434W        W33859  41.820   9.215  13.007
61435W        W33860  35.298  29.586  12.270
61436W        W33861  27.004  24.445  13.101
61437W        W33862   0.945  43.331  13.826
61438W        W33863   3.509  10.805  12.325
61439W        W33864  23.478  11.267  14.738
61440W        W33865  38.445  41.345  12.561
61441W        W33866  16.059  17.980  12.511
61442W        W33867  39.396  36.193  12.967
61443W        W33868  24.573  12.667   0.946
61444W        W33869  30.739  31.511   4.282
61445W        W33870   7.139  39.245  13.471
61446W        W33871   0.083  22.197   0.391
61447W        W33872  21.322  37.369  12.657
61448W        W33873   3.293  25.405   1.180
61449W        W33874   4.479  44.002   3.734
61450W        W33875   6.840  18.157   0.712
61451W        W33876  17.538  33.913   0.249
61452W        W33877  23.005  28.897  11.283
61453W        W33878  37.575  13.916   2.142
61454W        W33879  33.472  34.381   1.268
61455W        W33880  37.977  14.856  14.888
61456W        W33881  30.538  18.534  14.418
61457W        W33882   8.813  27.163   1.859
61458W        W33883  43.938   0.929   4.833
61459W        W33884  36.637  18.441   3.297
61460W        W33885  35.032   4.177  11.705
61461W        W33886   0.703  14.847   0.965
61462W        W33887   1.432  31.083   1.396
61463W        W33888  33.501   1.816  14.874
61464W        W33889  10.799  27.985   2.342
61465W        W33890  37.751  44.403  12.584
61466W        W33891  13.200  37.498   4.646
61467W        W33892   1.197  15.729  11.129
61468W        W33893  28.675  29.148   3.195
61469W        W33894  25.647  27.544  11.403
61470W        W33895  39.425  20.334  10.820
61471W        W33896   1.944  32.346  13.488
61472W        W33897  30.107   0.445  10.470
61473W        W33898   8.318  32.185   2.194
61474W        W33899  31.935  17.306   4.642
61475W        W33900  23.110  35.323   0.377
61476W        W33901  11.381  38.789   2.684
61477W        W33902  27.768   2.731  14.654
61478W        W33903  41.152  26.513  11.469
61479W        W33904   5.749  15.201  12.631
61480W        W33905  32.511  24.148  10.810
61481W        W33906   6.195   8.974  12.369
61482W        W33907  26.268  41.880  12.891
61483W        W33908  44.255   8.028   3.084
61484W        W33909  19.710  32.440  14.493
61485W        W33910  19.192  24.492  13.580
61486W        W33911   0.783  32.681   0.929
61487W        W33912  30.973   0.496  11.966
61488W        W33913  27.620  44.225   2.177
61489W        W33914  11.814   9.767  13.554
61490W        W33915  26.127  12.391   3.917
61491W        W33916  44.284  10.185  10.212
61492W        W33917  34.804   0.082  12.115
61493W        W33918  23.292  40.889   3.159
61494W        W33919  40.747  10.248   3.635
61495W        W33920  27.012  19.779   0.025
61496W        W33921  24.533  41.279  13.724
61497W        W33922  29.050  25.407  11.683
61498W        W33923  43.437   0.844  14.709
61499W        W33924   9.723   4.306   4.166
61500W        W33925   5.778  20.323  13.494
61501W        W33926  14.727  34.622  14.908
61502W        W33927  39.892  30.916  14.822
61503W        W33928  12.689  44.865   2.685
61504W        W33929  17.184   8.955  11.217
61505W        W33930  28.931  24.830  10.431
61506W        W33931  39.435  44.363   5.202
61507W        W33932  10.613  28.979  13.014
61508W        W33933   4.958   0.180   2.186
61509W        W33934  37.912  10.159   0.919
61510W        W33935  26.609   8.840  14.217
61511W        W33936  36.881  21.188   1.760
61512W        W33937  22.339  26.895   1.720
61513W        W33938  37.946  35.928   3.585
61514W        W33939  42.099  44.979   2.778
61515W        W33940  30.680  43.751   1.873
61516W        W33941  40.903  38.594   0.409
61517W        W33942  24.224   5.705  12.069
61518W        W33943  23.048   7.467   4.605
61519W        W33944  43.393  17.772   3.532
61520W        W33945   9.633  42.131  13.041
61521W        W33946  25.972  21.993  13.355
61522W        W33947  28.100  23.589   1.557
61523W        W33948  28.624   2.408   0.390
61524W        W33949  43.034  26.074  13.408
61525W        W33950   1.721   7.285   3.127
61526W        W33951  28.026  31.708   5.111
61527W        W33952  23.150  15.095   1.418
61528W        W33953  21.082   2.752  13.316
61529W        W33954  36.497  21.651  14.433
61530W        W33955  43.269   8.431   2.912
61531W        W33956  41.213   6.343   3.212
61532W        W33957  41.480  14.067  11.511
61533W        W33958  23.017  42.376  11.038
61534W        W33959  43.393  37.993  11.121
61535W        W33960  15.830  42.470  13.421
61536W        W33961  32.792  13.149   4.731
61537W        W33962  17.659  21.160   3.641
61538W        W33963  24.297  11.193  10.223
61539W        W33964  15.839  37.840  14.064
61540W        W33965  19.956  42.946   3.672
61541W        W33966  12.834  32.142  14.930
61542W        W33967  25.233  42.596   3.168
61543W        W33968   2.810  27.824  11.656
61544W        W33969  28.938   4.390  12.470
61545W        W33970  14.335  27.586  10.735
61546W        W33971  25.466  28.194  13.437
61547W        W33972  44.967  34.676  11.963
61548W        W33973   4.746  33.368   1.352
61549W        W33974  34.410  33.920  10.616
61550W        W33975   5.942  10.707   2.755
61551W        W33976  11.349   3.487   2.185
61552W        W33977   7.673  40.369  11.319
61553W        W33978  12.759  19.845   0.392
61554W        W33979  26.469  22.733  12.311
61555W        W33980  29.158  11.823  14.953
61556W        W33981  39.942   4.788   4.095
61557W        W33982  15.114   5.749   1.418
61558W        W33983   2.827   2.265  12.983
61559W        W33984   5.482   7.202  13.753
61560W        W33985  26.183  11.851   3.817
61561W        W33986   7.301   9.257   4.887
61562W        W33987  44.010   2.557   4.347
61563W        W33988  32.646  36.016   3.865
61564W        W33989   8.335   0.553   3.716
61565W        W33990  32.636  38.582  14.879
61566W        W33991  39.894  37.616   3.806
61567W        W33992   1.494  42.160  14.531
61568W        W33993  27.183  35.186   2.206
61569W        W33994  25.722  19.518   1.277
61570W        W33995  42.909  16.643   2.632
61571W        W33996  11.756  44.075   1.442
61572W        W33997  25.121  34.380  11.333
61573W        W33998  14.778  42.993   0.002
61574W        W33999  11.696   6.204  10.192
61575W        W34000  29.058   3.454   4.457
61576W        W34001   2.298  19.253   0.836
61577W        W34002  33.869  31.410  14.798
61578W        W34003  22.588  40.340   2.251
61579W        W34004   2.233   5.002   2.642
61580W        W34005  10.753  12.311   1.273
61581W        W34006  38.997  15.584  12.377
61582W        W34007  21.510  22.695  10.553
61583W        W34008  18.008  26.242   1.882
61584W        W34009  41.984  31.466   1.799
61585W        W34010  33.403  31.551  14.993
61586W        W34011  15.239  35.169   0.865
61587W        W34012  14.104  41.597   4.339
61588W        W34013  35.560  28.039   0.648
61589W        W34014  16.672  20.120  14.190
61590W        W34015  33.418  29.511   3.146
61591W        W34016  18.723   1.060   4.021
61592W        W34017  10.300   3.843  12.489
61593W        W34018  12.786  16.039   0.893
61594W        W34019  24.936  19.841   4.797
61595W        W34020  28.314  32.819  11.631
61596W        W34021  17.520  44.811   3.375
61597W        W34022  43.797   1.508  11.199
61598W        W34023  29.166  17.557  13.327
61599W        W34024  41.263  32.008  14.435
61600W        W34025  17.206   9.789   2.229
61601W        W34026   0.287  13.817  11.171
61602W        W34027  41.846  10.298   4.512
61603W        W34028  40.304  26.547   1.052
61604W        W34029  23.462  12.653  10.602
61605W        W34030   7.441  28.494   2.335
61606W        W34031  24.508  36.976   1.984
61607W        W34032   6.941  32.545   4.184
61608W        W34033  28.867  43.330  13.401
61609W        W34034  29.168  39.291   2.787
61610W        W34035   7.270   2.920   1.120
61611W        W34036  31.167  32.614   3.348
61612W        W34037   3.162  33.439   3.572
61613W        W34038  23.136  10.693  11.874
61614W        W34039  43.364  21.765   4.922
61615W        W34040  29.978  12.622   0.295
61616W        W34041   7.441  27.855  11.099
61617W        W34042   5.927  18.632  14.463
61618W        W34043  16.759  43.307   0.226
61619W        W34044  41.314  42.385  10.240
61620W        W34045  37.528  14.668   1.661
61621W        W34046  15.824   3.615  11.918
61622W        W34047  11.729  26.614   1.723
61623W        W34048   6.441   3.267   1.454
61624W        W34049   7.741  33.983   4.578
61625W        W34050  23.729  32.375  12.953
61626W        W34051  18.518  41.830  11.508
61627W        W34052  24.582  25.231  13.868
61628W        W34053  25.163  19.821  12.301
61629W        W34054  27.839  29.057   1.279
61630W        W34055  43.832  32.084   2.873
61631W        W34056  35.704  35.337   0.812
61632W        W34057  11.244  29.352  12.544
61633W        W34058  30.359  12.300  11.461
61634W        W34059  32.485  14.144  13.341
61635W        W34060  34.100   0.581   4.687
61636W        W34061  36.348  11.806  11.693
61637W        W34062  25.485  35.423   1.216
61638W        W34063  12.336  27.804  11.653
61639W        W34064  36.880  25.531  12.949
61640W        W34065  23.928   1.232  13.453
61641W        W34066  19.529  26.075  14.112
61642W        W34067  18.296  38.932   0.706
61643W        W34068  35.647   7.120  14.105
61644W        W34069   7.161  35.935  10.589
61645W        W34070  27.165  15.879   0.755
61646W        W34071  28.159   3.281   1.451
61647W        W34072   2.295  37.065   1.732
61648W        W34073  18.336  40.622   2.194
61649W        W34074  36.165  10.186  13.090
61650W        W34075  21.635  38.646   1.065
61651W        W34076  17.261  16.772  14.335
61652W        W34077  24.269  41.925  11.825
61653W        W34078  11.636  41.124   3.761
61654W        W34079  35.651   7.239   0.807
61655W        W34080  20.061   0.528   1.801
61656W        W34081  10.948  37.071   3.243
61657W        W34082  34.132   2.833  11.173
61658W        W34083  28.095  29.965  11.723
61659W        W34084  18.661  32.576   0.476
61660W        W34085  39.258   5.864   1.795
61661W        W34086   0.562  10.245   1.570
61662W        W34087  10.653  38.964   0.865
61663W        W34088   7.859  39.749   1.877
61664W        W34089  11.635  35.937   0.611
61665W        W34090  16.131  11.177   1.323
61666W        W34091  34.417  39.196  13.931
61667W        W34092  16.886  23.583   2.403
61668W        W34093  22.123   0.691   1.301
61669W        W34094  30.808  42.729   2.860
61670W        W34095  44.361   0.122  14.547
61671W        W34096  36.032   4.737   2.692
61672W        W34097  29.127  25.517  14.963
61673W        W34098  42.012   2.315   0.377
61674W        W34099  28.106  37.831  12.164
61675W        W34100  23.019  43.316  11.178
61676W        W34101  42.808  22.680  14.457
61677W        W34102   4.219   5.148   4.171
61678W        W34103  22.163  10.866   0.499
61679W        W34104   8.415  26.816  14.366
61680W        W34105  24.576  19.029   0.885
61681W        W34106  27.199   9.528   3.693
61682W        W34107   1.529  19.835   4.143
61683W        W34108  36.264  44.682   2.336
61684W        W34109   5.267   4.427   2.746
61685W        W34110  43.667  22.089  12.134
61686W        W34111  20.065  36.128  13.998
61687W        W34112  35.859  27.462  14.547
61688W        W34113   1.100   2.248   1.533
61689W        W34114   5.153   0.223  14.280
61690W        W34115  32.845  35.295  13.439
61691W        W34116  40.572  18.625   1.302
61692W        W34117  28.665  18.305   3.079
61693W        W34118  39.583  41.893  13.130
61694W        W34119  17.774   5.204   1.985
61695W        W34120  29.261   3.573  12.463
61696W        W34121  37.979   6.915   0.835
61697W        W34122   6.291   3.281  12.430
61698W        W34123  11.656  26.073   2.622
61699W        W34124  44.075  27.786   1.739
61700W        W34125  41.944   0.330   3.583
61701W        W34126  16.487  13.121  11.931
61702W        W34127   5.505  38.852  14.769
61703W        W34128  16.481  10.679  13.737
61704W        W34129  20.568  42.021  13.431
61705W        W34130  14.165  41.510  11.905
61706W        W34131   7.755  20.838   2.725
61707W        W34132  36.905  21.765   5.016
61708W        W34133  36.792  29.216   2.039
61709W        W34134  44.395  28.922   2.888
61710W        W34135  15.949  38.636  11.442
61711W        W34136  31.918   6.625  13.482
61712W        W34137   1.300   2.140   4.624
61713W        W34138  19.261  31.995  10.785
61714W        W34139   5.541  10.050  11.099
61715W        W34140  18.626   6.593   3.668
61716W        W34141  34.578  23.140  10.702
61717W        W34142  24.290   5.868  13.800
61718W        W34143  40.081  41.005   1.238
61719W        W34144  43.435  14.337  14.636
61720W        W34145  39.958   0.699  13.108
61721W        W34146  34.245   2.088   0.363
61722W        W34147  31.222  38.929   0.775
61723W        W34148  24.005  36.604  11.943
61724W        W34149  21.199   9.141   2.341
61725W        W34150  37.079  43.025  14.445
61726W        W34151  19.018   8.415  12.823
61727W        W34152   8.425  13.992   5.053
61728W        W34153  20.758   5.959   4.077
61729W        W34154  29.933  23.446   0.309
61730W        W34155  13.326  12.700  14.333
61731W        W34156  13.948  24.359   4.408
61732W        W34157  38.101  27.644  11.625
61733W        W34158  17.406  21.455  14.956
61734W        W34159  40.224  14.833   4.428
61735W        W34160   3.892   2.351   1.471
61736W        W34161  38.538  35.959  14.558
61737W        W34162  21.154  13.341   0.187
61738W        W34163  37.914  15.538  12.858
61739W        W34164   1.440  42.905  14.909
61740W        W34165  17.744  33.066   4.536
61741W        W34166  43.362  42.772   0.692
61742W        W34167   2.766  15.431  11.523
61743W        W34168   7.940  41.477   0.225
61744W        W34169  33.706  44.804  12.407
61745W        W34170  39.488  42.839   2.818
61746W        W34171   0.443   3.686   0.392
61747W        W34172  39.239   0.932  11.889
61748W        W34173  30.616  13.413   1.385
61749W        W34174   4.446   5.931   0.369
61750W        W34175   5.217  25.747  14.845
61751W        W34176  35.854  20.826   2.371
61752W        W34177   4.395  34.492   0.974
61753W        W34178   4.206  32.317  13.549
61754W        W34179  37.569  13.768  11.464
61755W        W34180  30.930  18.098   0.510
61756W        W34181  14.901  30.677  13.557
61757W        W34182  12.666  43.213  11.806
61758W        W34183  12.245  38.089   3.756
61759W        W34184   3.332  12.260   2.398
61760W        W34185  22.196  32.375   4.136
61761W        W34186  39.421  19.116   3.121
61762W        W34187  20.138  33.983   1.773
61763W        W34188   1.973  15.720   3.352
61764W        W34189  43.767   7.742   2.216
61765W        W34190  40.486  18.769   3.740
61766W        W34191  36.048  14.626  12.206
61767W        W34192  26.297  31.456   4.244
61768W        W34193  39.147  26.668  12.284
61769W        W34194  42.949  23.238   3.974
61770W        W34195  36.848  14.848  13.148
61771W        W34196  32.792  24.790   0.421
61772W        W34197   8.791  41.622  10.704
61773W        W34198  37.466  21.096  13.926
61774W        W34199  36.029  38.342  12.188
61775W        W34200  31.882   4.716   4.477
61776W        W34201  24.108   5.236  14.325
61777W        W34202  44.123  24.178  11.760
61778W        W34203  23.625  22.219  10.912
61779W        W34204  13.553  28.443   3.129
61780W        W34205   4.187  41.551  14.746
61781W        W34206   4.356  16.771   1.680
61782W        W34207  17.219   2.188   0.010
61783W        W34208  16.693   2.057   5.488
61784W        W34209  14.379   9.242   1.333
61785W        W34210  13.456  14.263  13.015
61786W        W34211   8.279   4.110  12.116
61787W        W34212  11.220   9.250  13.500
61788W        W34213  13.213  40.035  14.919
61789W        W34214  42.354  40.480   3.789
61790W        W34215  29.005  32.942   1.929
61791W        W34216  35.834   8.861   1.806
61792W        W34217  36.524  33.420   3.906
61793W        W34218   0.450  26.946   3.104
61794W        W34219  23.933  22.184   1.420
61795W        W34220   6.783   1.201   2.394
61796W        W34221  31.970  11.053  11.136
61797W        W34222   4.517  11.276  13.132
61798W        W34223   7.488  24.207  12.972
61799W        W34224  14.266  25.281   4.152
61800W        W34225  24.553  27.188   3.118
61801W        W34226   8.173  16.703   1.415
61802W        W34227  18.679  25.167   3.729
61803W        W34228  25.653   1.013  12.953
61804W        W34229  31.140  12.060  13.131
61805W        W34230  27.011  25.130   4.168
61806W        W34231  37.019   6.198   0.098
61807W        W34232   8.569  34.950  11.597
61808W        W34233  18.158  33.377   4.701
61809W        W34234   0.320   5.225   0.469
61810W        W34235  17.376  28.080   2.204
61811W        W34236  44.763  15.787  12.127
61812W        W34237   2.870   6.389   4.263
61813W        W34238   6.226  10.721  13.860
61814W        W34239   3.252  10.867   2.693
61815W        W34240  12.051  32.948   1.082
61816W        W34241   0.534  13.196  11.524
61817W        W34242   8.414   4.546  12.484
61818W        W34243   2.213  41.690   2.804
61819W        W34244  19.101  16.032   9.901
61820W        W34245  18.696   7.276   1.218
61821W        W34246  37.072  17.594   0.283
61822W        W34247  40.815   1.846   0.602
61823W        W34248  30.873  26.197   2.378
61824W        W34249  22.762  28.009  12.537
61825W        W34250  38.921  23.871  14.130
61826W        W34251  10.628  13.229   4.824
61827W        W34252   7.665  13.227   4.111
61828W        W34253  20.251  20.736  14.349
61829W        W34254   7.372  28.563   4.321
61830W        W34255  11.232  10.365   2.206
61831W        W34256  36.850  10.953   4.570
61832W        W34257  11.781  15.113   2.498
61833W        W34258  15.350  15.153   0.918
61834W        W34259  42.884  20.535  12.008
61835W        W34260  37.995   5.556  10.413
61836W        W34261  40.509  34.993   2.786
61837W        W34262  17.740  26.645  14.366
61838W        W34263  11.317  15.159  10.778
61839W        W34264  26.224  28.443  11.557
61840W        W34265  22.720  37.090  11.164
61841W        W34266   2.988  10.289   1.825
61842W        W34267  40.614  42.630   2.290
61843W        W34268  29.427   4.930  13.044
61844W        W34269  14.925  22.632  13.019
61845W        W34270   3.425  23.490  10.536
61846W        W34271  26.756  10.125  11.457
61847W        W34272  31.452  24.068  12.822
61848W        W34273  25.998  38.946  14.526
61849W        W34274   1.443   0.266   1.121
61850W        W34275  12.559  36.072   0.346
61851W        W34276  14.572   1.013   1.863
61852W        W34277   0.953  28.618  12.155
61853W        W34278  29.390   1.932  11.426
61854W        W34279  18.665  11.724  13.864
61855W        W34280  12.851  32.851  14.077
61856W        W34281  41.861  25.970  12.895
61857W        W34282  29.154   1.285  10.421
61858W        W34283  37.492  37.815  14.529
61859W        W34284  24.222  28.669   2.801
61860W        W34285  30.520  11.655   4.585
61861W        W34286   2.167   9.393  10.709
61862W        W34287  24.049  13.138  13.168
61863W        W34288  11.296  21.292  10.628
61864W        W34289  38.580  44.586   5.440
61865W        W34290  11.077  25.217   3.618
61866W        W34291  26.523  13.595  10.635
61867W        W34292  43.043  34.411   3.661
61868W        W34293  12.180  22.723   9.920
61869W        W34294  17.319  23.587   1.910
61870W        W34295   6.207  17.314   1.666
61871W        W34296  13.057  17.667   4.122
61872W        W34297  36.486  25.707   5.529
61873W        W34298  24.130  38.897   4.628
61874W        W34299  16.490  33.711  11.110
61875W        W34300  29.452  27.270  11.457
61876W        W34301  33.876  38.483   0.536
61877W        W34302  17.893  36.045   1.416
61878W        W34303  25.227  11.390   4.196
61879W        W34304  44.899  30.104  13.920
61880W        W34305  15.659  42.382   4.641
61881W        W34306  15.832  32.638   4.607
61882W        W34307  34.196  41.746  13.932
61883W        W34308  31.398  18.808  10.261
61884W        W34309   2.712  20.876  12.093
61885W        W34310  25.408   8.338  13.812
61886W        W34311  20.278   8.923   2.138
61887W        W34312  29.620  43.738   0.456
61888W        W34313  24.570  34.272   3.864
61889W        W34314  20.459  21.631  14.409
61890W        W34315  26.041   9.905  11.114
61891W        W34316  15.778  31.413   2.008
61892W        W34317  31.007  14.113  13.996
61893W        W34318   2.988  30.115  10.563
61894W        W34319  37.584  38.904  11.521
61895W        W34320  22.984  29.083   1.713
61896W        W34321  20.173  20.964  13.903
61897W        W34322  10.865  21.182  13.120
61898W        W34323   4.026  14.078  11.153
61899W        W34324  16.645  36.539   0.301
61900W        W34325   5.853  17.617   3.065
61901W        W34326  30.608  36.066   2.852
61902W        W34327  19.683  42.557   0.972
61903W        W34328  24.055   4.989   4.127
61904W        W34329  14.100  29.426   4.719
61905W        W34330  25.629  38.960   3.567
61906W        W34331  28.266  43.215  10.019
61907W        W34332  18.686   0.317   4.519
61908W        W34333  26.765  23.008   0.073
61909W        W34334  30.432   7.297  14.740
61910W        W34335   7.768  25.099  12.976
61911W        W34336  44.067  40.523  14.566
61912W        W34337   7.751  15.245  13.850
61913W        W34338  25.531  32.367   3.975
61914W        W34339   1.779  44.963   3.339
61915W        W34340  13.965  35.994  10.238
61916W        W34341  14.839  16.957   9.932
61917W        W34342   2.474   7.682  14.995
61918W        W34343  40.262   9.695   3.455
61919W        W34344   4.867  12.844   1.902
61920W        W34345  30.486  38.505  11.950
61921W        W34346  21.796  44.404   0.307
61922W        W34347  29.418  28.841  11.118
61923W        W34348  35.233   4.648  14.897
61924W        W34349  26.098  12.843   0.388
61925W        W34350  42.933  25.173   3.859
61926W        W34351  40.328  39.739   3.348
61927W        W34352  34.823  11.675  13.799
61928W        W34353  25.078  24.409   2.764
61929W        W34354  32.902  30.924   1.080
61930W        W34355  42.866   8.265   0.916
61931W        W34356  31.618   1.938   4.244
61932W        W34357   1.311  30.129   4.549
61933W        W34358  34.438  21.515   1.375
61934W        W34359   3.050  40.377  14.095
61935W        W34360  42.963  43.355   0.891
61936W        W34361  17.321  10.189  14.334
61937W        W34362  11.350  32.117  13.279
61938W        W34363  38.138   3.319  13.896
61939W        W34364   2.792  11.699   2.429
61940W        W34365  13.351  30.474   4.169
61941W        W34366  38.370  17.740   3.311
61942W        W34367  29.979  41.521   0.452
61943W        W34368  38.476  42.538   3.255
61944W        W34369  23.729  38.279   4.104
61945W        W34370  21.114  20.343   0.435
61946W        W34371  36.784  44.384  14.593
61947W        W34372  16.867  36.251  12.945
61948W        W34373  25.672  14.215  13.597
61949W        W34374  15.689  22.636  12.486
61950W        W34375  35.989  37.260   4.301
61951W        W34376  32.083   1.027   5.038
61952W        W34377   1.069  40.466   5.140
61953W        W34378  10.554  33.822  11.506
61954W        W34379  21.355   2.780   0.757
61955W        W34380  26.455   3.282  14.627
61956W        W34381   1.412  35.540   1.748
61957W        W34382  17.617  36.872  14.424
61958W        W34383   4.900  15.781   5.235
61959W        W34384  35.598  14.279   4.610
61960W        W34385  41.772  25.226  10.956
61961W        W34386  13.121  10.228   3.516
61962W        W34387  25.862  39.790   2.664
61963W        W34388   0.328   9.754   1.504
61964W        W34389  43.270   1.960   2.232
61965W        W34390  27.453  44.017   3.356
61966W        W34391  29.395  44.488  10.422
61967W        W34392  15.057  18.941   0.488
61968W        W34393  20.694   2.778   1.817
61969W        W34394  35.557  40.872  11.947
61970W        W34395  35.633  19.700  13.414
61971W        W34396  13.734  15.235   4.778
61972W        W34397  29.592   1.259   3.830
61973W        W34398  33.659  26.106  11.473
61974W        W34399  18.352  40.539  12.592
61975W        W34400   1.569  17.317  13.315
61976W        W34401   8.373  36.890  12.328
61977W        W34402   6.661   5.877  13.384
61978W        W34403   5.622  31.037   0.401
61979W        W34404  44.211  23.044   0.138
61980W        W34405  36.962  24.325   1.804
61981W        W34406  32.860  34.956  11.424
61982W        W34407  15.575   4.834   1.979
61983W        W34408   6.868  24.123   0.211
61984W        W34409  37.949   4.431   1.707
61985W        W34410  38.303   3.159   0.730
61986W        W34411  11.713  24.020   4.899
61987W        W34412  38.987  10.863  14.962
61988W        W34413  11.634   8.923  14.950
61989W        W34414  20.530  42.754   2.473
61990W        W34415  40.183  30.147   0.052
61991W        W34416  20.113  35.680   1.056
61992W        W34417  24.706  41.337   2.734
61993W        W34418   0.752  17.115   1.314
61994W        W34419  27.867   5.031  13.092
61995W        W34420  22.023  27.761   0.242
61996W        W34421  25.701  42.783   4.566
61997W        W34422  32.662  31.980  10.638
61998W        W34423   1.508   2.938  14.319
61999W        W34424  27.985  22.411   3.727
62000W        W34425  10.183  39.014  14.360
62001W        W34426  36.791  31.967   5.007
62002W        W34427   8.091  42.873  12.504
62003W        W34428   0.996  38.922   4.318
62004W        W34429  32.864  42.833  13.985
62005W        W34430   3.751   2.750   1.784
62006W        W34431   1.070  10.139  12.657
62007W        W34432  12.577  10.755  13.591
62008W        W34433  29.359  25.473   1.304
62009W        W34434  33.463   4.419   5.311
62010W        W34435  15.719  22.685   2.894
62011W        W34436   3.693  44.772   1.374
62012W        W34437  20.297  37.142  11.025
62013W        W34438   7.058  37.471  13.928
62014W        W34439  40.977  30.456   4.290
62015W        W34440  44.658  38.843  14.390
62016W        W34441  28.843   4.808   0.361
62017W        W34442  19.420  37.984  13.508
62018W        W34443   7.364  18.039   4.545
62019W        W34444  12.693   6.761   1.931
62020W        W34445  17.847  23.241   2.309
62021W        W34446   2.616  13.686  12.007
62022W        W34447  19.756  20.725  11.338
62023W        W34448  39.095  39.332  10.100
62024W        W34449   1.358  29.531   1.022
62025W        W34450  28.406  25.379   1.336
62026W        W34451  17.656  18.159  11.901
62027W        W34452   8.285  23.072  11.014
62028W        W34453  26.566   9.630   0.562
62029W        W34454  28.787  10.276   3.201
62030W        W34455   8.961  23.033   3.654
62031W        W34456  41.684  19.125   2.797
62032W        W34457  28.912  33.432   5.491
62033W        W34458  33.775   3.645  13.363
62034W        W34459  22.610  42.286   3.426
62035W        W34460  22.258  38.762   3.290
62036W        W34461  14.432  13.711   0.338
62037W        W34462  44.973  30.421  10.676
62038W        W34463  17.829  20.675   0.457
62039W        W34464   4.801  26.583   4.589
62040W        W34465  14.145  28.151  10.644
62041W        W34466  42.826  42.509   0.400
62042W        W34467  32.871   6.321   0.179
62043W        W34468  12.851  23.516   2.685
62044W        W34469  29.932   2.656   2.276
62045W        W34470  38.709  23.505  14.438
62046W        W34471   4.228  39.903  12.886
62047W        W34472  16.280  23.823  13.492
62048W        W34473  20.990   3.711  13.069
62049W        W34474  24.049  32.345   3.025
62050W        W34475   9.277   3.157  14.143
62051W        W34476   0.502  40.010  10.764
62052W        W34477  24.936   9.339  13.568
62053W        W34478   1.088  27.925   1.617
62054W        W34479  42.868  32.940  11.136
62055W        W34480  44.227  39.952  11.072
62056W        W34481   9.321  13.405   4.747
62057W        W34482  28.987  33.911   1.848
62058W        W34483  11.688  17.399  11.957
62059W        W34484  26.733  30.976  10.161
62060W        W34485  20.696  27.398  12.473
62061W        W34486   2.419  31.545  14.349
62062W        W34487  41.848  12.498  14.038
62063W        W34488  43.815  39.969  12.513
62064W        W34489  21.147   8.116  12.630
62065W        W34490  32.323  43.597   4.135
62066W        W34491  44.026  37.744   0.729
62067W        W34492   7.779  27.272  11.590
62068W        W34493  13.172  22.198  12.043
62069W        W34494  35.484  40.762  13.915
62070W        W34495  30.291   1.264   3.837
62071W        W34496  10.880   9.508   1.840
62072W        W34497  14.345  43.528   3.659
62073W        W34498   8.896  23.500   3.407
62074W        W34499  20.659   4.869   3.084
62075W        W34500  22.985  38.444   1.861
62076W        W34501  34.140  19.047   0.940
62077W        W34502  29.914  28.585  13.381
62078W        W34503   8.200  39.731   3.950
62079W        W34504  40.458   8.397  11.272
62080W        W34505  43.321   9.274  11.104
62081W        W34506  18.858  23.239  11.711
62082W        W34507  27.031  27.123   3.066
62083W        W34508  27.794   7.318  10.661
62084W        W34509  28.015  16.486   3.921
62085W        W34510  37.567  17.338   2.324
62086W        W34511  43.136  29.274   5.196
62087W        W34512   3.984  32.897  14.267
62088W        W34513   5.733  36.604  11.547
62089W        W34514   1.992  19.219  14.389
62090W        W34515  42.769  13.175  14.917
62091W        W34516  44.450  24.598  13.886
62092W        W34517  12.127  25.127   1.235
62093W        W34518  28.639   9.017   3.895
62094W        W34519  43.264   6.660   4.368
62095W        W34520  37.848  40.619   0.252
62096W        W34521   9.387  38.254   0.378
62097W        W34522  14.325  26.408  12.178
62098W        W34523  40.000  23.109   4.507
62099W        W34524  35.846   7.764  10.523
62100W        W34525   7.879  39.477   0.969
62101W        W34526   9.780  19.114  10.754
62102W        W34527   3.378  29.457   4.085
62103W        W34528  12.715  35.180   1.816
62104W        W34529   1.520  18.572  14.975
62105W        W34530  23.212  16.447   1.757
62106W        W34531  38.440  12.596  14.951
62107W        W34532  12.802  15.830   5.122
62108W        W34533  33.465   8.909   1.782
62109W        W34534  21.508  22.204   1.432
62110W        W34535   9.819  44.552   1.289
62111W        W34536  34.615  22.628  14.780
62112W        W34537  13.864  20.755   0.385
62113W        W34538  15.694  38.003  13.134
62114W        W34539  19.158  19.946  14.434
62115W        W34540  35.946  15.118   4.864
62116W        W34541  36.724  25.856   1.786
62117W        W34542  11.416  23.251   1.883
62118W        W34543  10.194  28.043  13.448
62119W        W34544  11.494  24.038  12.637
62120W        W34545  39.277  36.581   4.841
62121W        W34546   8.443  18.950   4.197
62122W        W34547   6.813  36.154  11.940
62123W        W34548   0.523   0.355   1.918
62124W        W34549   7.765  35.457  11.216
62125W        W34550  30.176   3.373  10.884
62126W        W34551  19.074  19.415  11.297
62127W        W34552  31.682  13.657  10.975
62128W        W34553  23.095  24.178   3.197
62129W        W34554  23.004  36.012   1.261
62130W        W34555  33.188  25.408  13.765
62131W        W34556   8.362  17.054  11.067
62132W        W34557  13.944  33.306  14.872
62133W        W34558  40.907  44.829   3.204
62134W        W34559  27.495  34.658  13.970
62135W        W34560  37.027  42.891  13.920
62136W        W34561  37.782  22.339   5.143
62137W        W34562  44.467   4.102   3.641
62138W        W34563  44.058  41.759  11.175
62139W        W34564  26.176  25.212   3.133
62140W        W34565  36.397  34.120  13.307
62141W        W34566  10.513  18.937  13.991
62142W        W34567  12.118   7.287  12.791
62143W        W34568  27.159  21.500   4.158
62144W        W34569  24.199  27.031  13.940
62145W        W34570   9.809  41.299   2.703
62146W        W34571  41.501  20.837   1.839
62147W        W34572  18.768  31.499   0.762
62148W        W34573  25.249  21.088  13.915
62149W        W34574  28.961  33.142  12.570
62150W        W34575   5.241   4.884  11.190
62151W        W34576  12.550  16.086  14.029
62152W        W34577   5.801   3.459  12.440
62153W        W34578  44.918  10.394   0.893
62154W        W34579  32.089  30.148   3.847
62155W        W34580  20.960   4.877  11.633
62156W        W34581  43.991  35.857  11.167
62157W        W34582  32.896  10.834   2.766
62158W        W34583  31.491  40.874   0.993
62159W        W34584   8.663  42.398  14.977
62160W        W34585  37.643   0.861   2.377
62161W        W34586   6.173  29.448  11.574
62162W        W34587  43.042  32.572   3.819
62163W        W34588  15.143   7.649  12.869
62164W        W34589  24.022  21.596   0.201
62165W        W34590   1.343  33.869  11.593
62166W        W34591  25.357  30.617   0.356
62167W        W34592  20.164  18.214  10.384
62168W        W34593  43.384  10.928  12.450
62169W        W34594   6.076  11.612  10.462
62170W        W34595  38.814  21.087  12.621
62171W        W34596   7.438  16.208   1.855
62172W        W34597   4.910  32.665  11.270
62173W        W34598  35.309  43.829  14.388
62174W        W34599   8.622  22.091   1.366
62175W        W34600  10.195  33.139  12.672
62176W        W34601   9.551  13.117  14.946
62177W        W34602  17.980  11.792   2.281
62178W        W34603   5.617  19.762   3.686
62179W        W34604  18.183  22.150  12.343
62180W        W34605  13.231  44.822  13.906
62181W        W34606   2.376  22.666  10.241
62182W        W34607  20.690  39.232   1.007
62183W        W34608  30.611  24.966  13.289
62184W        W34609   7.886   6.140   4.927
62185W        W34610  36.295  13.760  13.959
62186W        W34611  31.914  11.157   0.256
62187W        W34612   4.388  32.651  13.906
62188W        W34613  32.435  13.632  11.549
62189W        W34614   7.561  16.677   1.256
62190W        W34615   0.890  13.839  10.575
62191W        W34616   0.539  23.831   0.753
62192W        W34617  37.939  36.395   4.371
62193W        W34618   1.193  37.561   3.307
62194W        W34619  23.224   2.733  14.202
62195W        W34620  26.904  21.974   1.412
62196W        W34621  44.832  27.948   2.234
62197W        W34622  32.471  39.576  13.484
62198W        W34623  11.799  13.738   1.712
62199W        W34624  32.380  19.981  13.975
62200W        W34625  44.294   9.140   0.525
62201W        W34626  20.270   4.719   0.693
62202W        W34627  14.665  43.906   3.415
62203W        W34628   4.369   1.003  13.268
62204W        W34629  39.702  32.013   4.618
62205W        W34630  25.100  40.775   0.220
62206W        W34631  20.110   3.446   2.330
62207W        W34632  43.340  38.762  12.848
62208W        W34633  36.230  44.943  11.658
62209W        W34634  16.721  23.102   2.276
62210W        W34635  36.570  29.501   0.365
62211W        W34636  12.079  16.286  13.963
62212W        W34637   8.235  26.183  11.059
62213W        W34638   0.760   9.401   4.611
62214W        W34639  20.573  27.702   2.019
62215W        W34640  22.265  44.731  14.380
62216W        W34641  14.465  38.113   1.834
62217W        W34642  30.072  21.767   0.726
62218W        W34643  33.343  26.871   0.884
62219W        W34644  19.050  30.542  13.144
62220W        W34645  17.634  30.413   1.848
62221W        W34646  16.250  23.082  10.897
62222W        W34647  19.691  44.067  12.964
62223W        W34648   4.908  29.066   0.308
62224W        W34649  15.349  23.049   4.336
62225W        W34650  13.078  32.092   1.410
62226W        W34651  44.268  31.860  12.159
62227W        W34652  17.660  42.789   3.836
62228W        W34653  36.692  29.443  11.477
62229W        W34654  30.162   7.625   2.401
62230W        W34655  43.471   6.210  12.906
62231W        W34656   5.194  12.658  13.011
62232W        W34657   5.521  33.494   2.411
62233W        W34658   1.757  43.054   0.300
62234W        W34659  44.795  30.337  13.433
62235W        W34660  21.244  28.754   3.745
62236W        W34661   1.724  34.591  13.918
62237W        W34662  34.671  24.626  11.209
62238W        W34663  41.846  43.322   0.256
62239W        W34664  31.899   2.558   3.103
62240W        W34665  27.951  20.667  12.061
62241W        W34666  43.490  14.754  14.303
62242W        W34667  30.684  27.680  11.901
62243W        W34668  13.714  39.820   4.651
62244W        W34669  28.173  38.988  12.497
62245W        W34670  33.652  17.300   5.168
62246W        W34671  18.311  13.861  11.130
62247W        W34672  44.334  22.752  12.053
62248W        W34673  27.039  44.867  11.547
62249W        W34674  22.238   4.646   4.674
62250W        W34675  41.469  44.960   0.239
62251W        W34676  12.889  10.595  13.197
62252W        W34677  43.768   5.579  10.657
62253W        W34678  14.580   7.353   4.676
62254W        W34679  44.510  20.657   1.987
62255W        W34680  23.191   6.023  11.043
62256W        W34681   3.206  22.159  13.390
62257W        W34682  28.299  26.196   4.646
62258W        W34683  38.202  25.506   9.800
62259W        W34684  19.649  17.754   3.320
62260W        W34685  22.788  35.100   4.380
62261W        W34686  22.306  22.965   0.481
62262W        W34687  28.671   0.959  13.841
62263W        W34688   9.712   6.726   1.191
62264W        W34689  25.054  15.831   3.856
62265W        W34690  40.764   4.778   3.766
62266W        W34691   3.377  37.633   2.739
62267W        W34692  33.535  34.127  13.100
62268W        W34693  16.241   7.948   1.301
62269W        W34694  24.664  42.149   2.178
62270W        W34695  12.357  15.287   4.200
62271W        W34696  17.059  26.977  13.433
62272W        W34697  17.290  35.379  10.795
62273W        W34698  29.186  38.427   0.849
62274W        W34699  16.106  23.142   4.833
62275W        W34700  42.084  42.964   1.064
62276W        W34701  19.726  14.777  11.368
62277W        W34702  37.171  37.021   4.708
62278W        W34703  25.013  44.251  14.091
62279W        W34704  44.816  38.919  13.907
62280W        W34705  25.783  20.956  13.230
62281W        W34706  41.722  38.715  12.010
62282W        W34707  12.749  44.842  14.779
62283W        W34708  11.228   7.859   4.588
62284W        W34709   9.798   0.794   2.060
62285W        W34710  35.700  27.955  11.670
62286W        W34711   9.213   2.860   2.220
62287W        W34712   3.665   3.722   1.448
62288W        W34713   1.927  11.739   0.526
62289W        W34714  36.510   7.873   4.708
62290W        W34715  10.195   8.010   2.679
62291W        W34716   4.668  40.279  10.705
62292W        W34717   7.892  30.540  10.712
62293W        W34718  11.753  18.144   0.853
62294W        W34719  27.596  37.977   0.079
62295W        W34720  18.231  23.134  13.338
62296W        W34721  12.436  30.037   4.641
62297W        W34722  33.151  12.593  12.411
62298W        W34723  28.747  20.680   2.329
62299W        W34724  44.345  42.469   1.378
62300W        W34725  32.364  20.149   3.699
62301W        W34726  17.943   0.102  14.531
62302W        W34727  42.459   8.450   3.308
62303W        W34728  42.770  26.584   4.941
62304W        W34729  31.476   8.639   1.831
62305W        W34730  35.585  30.105  14.386
62306W        W34731  27.466  28.142  14.333
62307W        W34732   4.894  28.054  10.631
62308W        W34733  20.116  29.315   0.876
62309W        W34734  23.099  10.164   3.513
62310W        W34735   9.804  38.496   0.048
62311W        W34736  42.102  44.407   2.082
62312W        W34737  18.137  29.066  14.354
62313W        W34738  15.007  25.088   2.030
62314W        W34739  16.240  33.701  10.657
62315W        W34740  26.918  25.295   5.102
62316W        W34741   5.605   4.834   2.800
62317W        W34742  27.303  14.682  14.903
62318W        W34743  25.224  37.179   4.120
62319W        W34744  41.667  12.314   3.420
62320W        W34745  38.862  24.255  12.496
62321W        W34746  28.206  21.895  13.114
62322W        W34747  18.587  23.579  10.258
62323W        W34748  32.984  44.280   0.693
62324W        W34749  16.573  12.208  13.015
62325W        W34750  26.169   7.648   3.737
62326W        W34751  43.072  31.871  10.371
62327W        W34752  35.061  44.242   4.477
62328W        W34753  39.862  43.273   2.424
62329W        W34754  39.105  34.414  10.415
62330W        W34755  18.765   8.764   2.256
62331W        W34756   3.442  31.176   2.156
62332W        W34757  21.578  13.208   3.081
62333W        W34758   3.944  40.796   2.802
62334W        W34759  24.423  25.671  13.053
62335W        W34760  24.422   6.195  12.494
62336W        W34761   8.500   5.267  10.046
62337W        W34762  42.933  25.524   3.202
62338W        W34763  10.340  43.853  10.188
62339W        W34764   2.728  10.200   4.026
62340W        W34765  28.393   2.319   3.226
62341W        W34766  32.349  10.816   1.885
62342W        W34767   1.228  44.979   4.586
62343W        W34768  20.517   9.294   0.113
62344W        W34769  33.954  29.979  10.704
62345W        W34770  15.343   7.249  11.498
62346W        W34771  41.631  29.009   0.183
62347W        W34772  21.769  17.518   4.033
62348W        W34773  36.081   3.973  11.529
62349W        W34774  38.975  31.632   3.202
62350W        W34775  28.983  29.935   0.022
62351W        W34776  18.290  35.109   2.381
62352W        W34777  17.224  28.889  12.200
62353W        W34778  20.782  30.561  13.702
62354W        W34779  14.767  18.504  11.493
62355W        W34780   1.428  33.795   0.487
62356W        W34781  33.178  23.602   1.144
62357W        W34782   3.846  15.829   2.364
62358W        W34783  27.961  26.578  12.554
62359W        W34784  11.346  15.373  14.539
62360W        W34785   1.508   9.730  13.894
62361W        W34786  28.445  39.383  12.819
62362W        W34787  39.910  41.339   4.806
62363W        W34788  36.091   3.115   3.225
62364W        W34789  24.698  29.376  14.081
62365W        W34790  22.578   2.987  11.598
62366W        W34791   7.413   3.260  10.668
62367W        W34792  35.163  39.366   3.257
62368W        W34793  15.500  16.080   2.147
62369W        W34794   4.618  43.368  10.358
62370W        W34795   3.233  39.312  10.992
62371W        W34796  20.667  38.886   2.836
62372W        W34797  25.593  44.439  12.991
62373W        W34798  10.184   6.987  14.261
62374W        W34799   7.940  31.452  13.806
62375W        W34800  28.436   5.864  12.494
62376W        W34801  12.850  28.114   0.316
62377W        W34802  11.286  18.555  11.994
62378W        W34803  43.984  28.083   4.168
62379W        W34804   3.268  28.123  11.634
62380W        W34805   1.185  44.355   0.146
62381W        W34806   0.396   0.837   2.810
62382W        W34807  23.789  21.822   4.536
62383W        W34808   7.080  15.278   1.857
62384W        W34809   8.134  22.564  11.070
62385W        W34810   1.181  28.044   3.955
62386W        W34811  24.870  25.596  11.514
62387W        W34812  35.483   5.973   0.373
62388W        W34813  30.191  35.980  12.914
62389W        W34814   1.358  44.546  12.952
62390W        W34815  18.846  35.113  11.214
62391W        W34816  26.424   8.151  14.949
62392W        W34817   2.007  44.910  11.262
62393W        W34818  38.769  28.343  11.634
62394W        W34819  33.960  26.871  14.413
62395W        W34820   5.499   8.376  14.766
62396W        W34821  38.547  20.138   0.426
62397W        W34822  37.590   1.515  14.980
62398W        W34823  33.062  33.648  12.462
62399W        W34824   4.419  35.908   3.656
62400W        W34825  22.715  17.086   4.171
62401W        W34826  17.264  20.799  14.294
62402W        W34827  28.641   8.205   2.291
62403W        W34828  38.978  29.621  14.745
62404W        W34829   1.205  40.839  11.489
62405W        W34830  41.860   2.537  11.884
62406W        W34831  22.146  24.738  11.583
62407W        W34832   8.089   7.643  12.781
62408W        W34833  26.107  14.365   0.851
62409W        W34834  15.257  34.404  11.160
62410W        W34835  40.239  14.140  10.901
62411W        W34836  30.043  33.059  10.527
62412W        W34837  18.051  29.833   4.591
62413W        W34838  11.770  29.446  11.199
62414W        W34839  30.129  22.647  12.489
62415W        W34840  32.122  24.509  12.116
62416W        W34841  41.398   2.499  13.562
62417W        W34842  27.453  30.849  11.644
62418W        W34843  19.501  25.070  13.846
62419W        W34844  20.390  26.454  12.193
62420W        W34845  11.211   7.485  11.042
62421W        W34846  20.718  16.089  11.538
62422W        W34847  38.886  20.069  11.631
62423W        W34848  35.296  32.225  10.798
62424W        W34849   2.249   6.836  11.167
62425W        W34850  32.607  15.290  12.221
62426W        W34851  21.952   9.220   1.453
62427W        W34852  44.999  38.782   4.634
62428W        W34853  19.155  16.181   4.660
62429W        W34854   8.760  21.131  12.969
62430W        W34855  30.987  27.214  12.008
62431W        W34856   5.033  25.528   4.203
62432W        W34857  16.402  37.515  13.449
62433W        W34858  40.711  21.340  11.160
62434W        W34859  32.868  36.116   1.258
62435W        W34860  21.109  42.127  13.546
62436W        W34861  19.344   5.294   1.810
62437W        W34862  44.899  36.110   4.187
62438W        W34863  21.697  32.603  10.309
62439W        W34864  40.309   1.018   3.257
62440W        W34865  40.489  38.314   3.797
62441W        W34866  20.857  38.738  12.766
62442W        W34867   5.475  22.415   1.955
62443W        W34868  40.526  25.820  12.736
62444W        W34869  41.568  43.376   4.643
62445W        W34870   9.192  43.822  10.684
62446W        W34871  16.036  32.999  13.854
62447W        W34872  18.712  38.278   1.423
62448W        W34873  23.139  41.481  13.851
62449W        W34874  33.977  39.901   1.207
62450W        W34875   4.999  37.400  10.533
62451W        W34876  39.454  41.627  12.651
62452W        W34877  35.933  23.041  10.851
62453W        W34878   1.340  31.153   4.792
62454W        W34879  28.407  15.485   2.237
62455W        W34880  25.073  42.493  13.787
62456W        W34881  38.114  21.316  14.709
62457W        W34882  34.863  23.466  11.701
62458W        W34883  42.407  16.296   4.462
62459W        W34884  12.866  15.819  13.629
62460W        W34885  23.166  16.983  14.833
62461W        W34886  23.620  21.182  12.461
62462W        W34887  10.808  35.854   2.664
62463W        W34888  44.353  21.148   4.170
62464W        W34889  34.824  10.976   0.947
62465W        W34890  40.375  33.933   3.744
62466W        W34891  10.023   3.883   0.522
62467W        W34892  16.375   1.505   1.645
62468W        W34893  30.914   0.681  10.164
62469W        W34894   1.911  13.559  13.454
62470W        W34895  11.071  26.406  13.729
62471W        W34896   0.550   2.972  14.602
62472W        W34897   7.051   9.399   3.356
62473W        W34898   4.288   3.657  12.115
62474W        W34899   5.146  19.598  10.818
62475W        W34900  44.342  29.855  10.680
62476W        W34901  39.062   9.239   2.804
62477W        W34902   7.598  41.470   3.628
62478W        W34903  33.114   4.599   0.270
62479W        W34904  10.863  25.667   2.776
62480W        W34905   1.981  42.920  12.800
62481W        W34906   9.582  37.313  13.585
62482W        W34907  32.027  36.246   1.637
62483W        W34908  10.825  42.781   0.510
62484W        W34909  26.140  33.841   1.778
62485W        W34910   3.709  36.294  13.816
62486W        W34911  44.250  26.685  10.264
62487W        W34912  29.097   8.927   0.239
62488W        W34913   6.925   4.948   3.719
62489W        W34914  10.878  44.218  11.101
62490W        W34915  26.243  22.559  11.631
62491W        W34916  30.352  19.079   4.269
62492W        W34917  29.966  36.560   3.250
62493W        W34918   8.709  33.638   4.166
62494W        W34919  33.326  26.609  10.166
62495W        W34920  16.135  14.243   1.242
62496W        W34921   9.416   2.331  13.000
62497W        W34922  14.186  14.543   2.603
62498W        W34923  15.840  21.965   5.031
62499W        W34924  19.277  16.109  12.910
62500W        W34925  27.611  32.691  14.512
62501W        W34926  34.969   3.242  13.399
62502W        W34927   0.313  27.879   2.130
62503W        W34928  12.617  42.943   4.233
62504W        W34929  36.134  17.226   3.285
62505W        W34930   3.308  24.235  13.650
62506W        W34931   7.348   6.504  10.662
62507W        W34932  32.511  33.504   4.902
62508W        W34933  10.211  34.930  10.494
62509W        W34934  10.306  33.875   2.845
62510W        W34935   4.823   2.439  14.460
62511W        W34936  24.094  28.547   1.886
62512W        W34937  35.509  38.054   0.286
62513W        W34938  28.482  27.678  14.959
62514W        W34939  20.189  38.455   1.841
62515W        W34940  43.788  19.723  14.279
62516W        W34941  33.394  16.636   5.842
62517W        W34942   8.019   8.450  12.514
62518W        W34943  36.669  20.072  11.102
62519W        W34944  39.108  24.347  14.297
62520W        W34945   7.287  38.513   4.224
62521W        W34946   5.440  32.758   1.384
62522W        W34947  24.743  18.742  12.412
62523W        W34948  30.821  31.921   2.267
62524W        W34949  33.383  15.195   0.783
62525W        W34950  43.044   3.042  12.267
62526W        W34951  23.965   6.133   1.930
62527W        W34952  33.092  24.590  14.102
62528W        W34953  11.800  13.573  11.195
62529W        W34954  29.142  44.463   4.507
62530W        W34955  27.962   5.919  11.609
62531W        W34956  24.630  26.687  11.928
62532W        W34957  31.061  14.670   3.853
62533W        W34958   2.013  39.341  14.069
62534W        W34959  28.156  43.635   0.761
62535W        W34960   8.460  20.213  10.598
62536W        W34961   0.138  13.807  14.396
62537W        W34962  41.628   5.449  10.511
62538W        W34963  42.092  21.012  11.956
62539W        W34964  39.282  24.149   2.366
62540W        W34965  35.076  22.537   0.038
62541W        W34966   6.158  36.315   9.743
62542W        W34967  12.782  29.247  11.896
62543W        W34968   9.873  22.046   2.646
62544W        W34969   0.456  20.581  12.355
62545W        W34970   3.387  40.187  11.061
62546W        W34971  41.560  37.407   1.780
62547W        W34972  44.796  15.062   0.720
62548W        W34973  27.346  30.480  12.002
62549W        W34974  12.342   6.870  11.614
62550W        W34975  31.913  43.310   4.053
62551W        W34976  30.831  40.960  13.569
62552W        W34977  14.640   3.099   2.768
62553W        W34978  16.760  12.661   0.489
62554W        W34979   0.492  44.252   2.302
62555W        W34980  18.791  11.328   4.404
62556W        W34981  32.067  29.521  12.615
62557W        W34982  12.384  15.270  12.443
62558W        W34983  18.786   7.645   0.243
62559W        W34984  31.616   0.994   0.427
62560W        W34985  18.522  10.893  14.439
62561W        W34986  18.121  40.753  10.774
62562W        W34987  11.702   8.841   2.198
62563W        W34988  33.403   3.762   2.192
62564W        W34989   0.823   0.165   2.387
62565W        W34990  15.467  43.210  14.536
62566W        W34991   2.303  11.973   3.302
62567W        W34992  21.555  21.682   0.172
62568W        W34993  34.120  15.814  11.183
62569W        W34994  16.661   9.175  11.864
62570W        W34995  15.479  25.610  12.634
62571W        W34996  37.510  31.898   1.205
62572W        W34997   7.897  41.515   3.184
62573W        W34998  40.792  15.253  14.561
62574W        W34999  41.179  32.543  12.851
62575W        W35000  13.099  27.553   2.405
62576W        W35001  23.605   2.447   2.235
62577W        W35002  16.631  30.972   0.853
62578W        W35003   5.291  22.443   3.333
62579W        W35004   5.000  33.104   9.966
62580W        W35005  10.394   0.937   4.712
62581W        W35006  10.845  39.505   2.200
62582W        W35007  40.404  15.599   1.284
62583W        W35008  31.702   3.220  13.932
62584W        W35009   1.411  25.550  10.701
62585W        W35010  41.499  23.226  13.442
62586W        W35011  44.533  24.758  11.140
62587W        W35012   6.727  44.938  10.828
62588W        W35013  39.573  23.295   3.302
62589W        W35014  17.020   9.814  11.612
62590W        W35015  22.775  30.880   1.516
62591W        W35016   7.095  35.794  13.477
62592W        W35017  42.217  39.703   0.072
62593W        W35018  18.682  34.885   5.083
62594W        W35019  11.589  40.890   0.694
62595W        W35020  31.517   9.694   4.865
62596W        W35021  19.698  29.581   3.246
62597W        W35022  21.261   4.684   1.849
62598W        W35023  32.399  33.684   2.438
62599W        W35024  13.101  41.778  11.070
62600W        W35025   3.641  36.528  10.557
62601W        W35026   0.541   8.840   0.293
62602W        W35027  39.423   9.260  12.042
62603W        W35028  12.295  19.934   1.928
62604W        W35029  44.466  39.217  11.458
62605W        W35030   6.368   4.138  13.454
62606W        W35031  26.415  24.560  11.245
62607W        W35032  15.133  23.614   9.802
62608W        W35033  16.948  21.607   4.073
62609W        W35034  12.171  42.905  13.358
62610W        W35035   2.391  39.965   1.618
62611W        W35036  24.006  43.502   3.614
62612W        W35037   7.206  39.621   1.337
62613W        W35038   9.913  23.502  13.756
62614W        W35039  14.481  23.482  10.656
62615W        W35040  32.134  26.872  11.281
62616W        W35041  39.880  24.777   1.179
62617W        W35042  25.577  24.241   2.809
62618W        W35043  23.532   7.976  11.011
62619W        W35044  28.027  13.702   1.428
62620W        W35045  35.008  38.409   1.266
62621W        W35046  36.886  29.176  13.311
62622W        W35047  30.931  10.773   3.223
62623W        W35048  18.280  27.812   3.349
62624W        W35049   3.241  17.552   1.429
62625W        W35050  20.510  26.679  14.480
62626W        W35051  20.748   2.008  12.479
62627W        W35052  24.067  18.348   2.220
62628W        W35053   6.442   3.734  12.052
62629W        W35054  14.660  33.547  12.546
62630W        W35055  36.107  39.355  14.305
62631W        W35056  33.666   2.016   3.268
62632W        W35057  12.749  29.164  13.586
62633W        W35058  33.434  14.780   0.333
62634W        W35059  36.761  24.974  14.603
62635W        W35060  31.613  34.122   1.511
62636W        W35061  13.865  18.035  12.741
62637W        W35062  38.838   5.648  12.034
62638W        W35063   9.271  34.738   1.427
62639W        W35064  25.276  38.121   4.253
62640W        W35065  35.670   2.409  10.631
62641W        W35066  15.078   0.739  12.069
62642W        W35067  24.024   6.433   0.023
62643W        W35068  20.787  27.104   1.675
62644W        W35069  30.678  15.362  10.626
62645W        W35070  22.248  15.624   4.197
62646W        W35071  13.200  23.234   2.396
62647W        W35072  11.811  21.959   3.788
62648W        W35073  17.776  27.437  11.519
62649W        W35074  22.988  33.434  14.239
62650W        W35075   1.758  18.842   4.600
62651W        W35076   7.099   9.302   0.783
62652W        W35077  38.883  14.279  13.537
62653W        W35078   1.167  28.494   4.592
62654W        W35079  39.821   6.663   1.666
62655W        W35080  43.758  32.835  14.954
62656W        W35081  28.019  31.100  11.190
62657W        W35082  40.470  39.051   4.570
62658W        W35083  17.662   2.720   0.272
62659W        W35084  11.660  18.907   1.392
62660W        W35085  23.556  17.419  14.908
62661W        W35086  28.187  14.496  11.093
62662W        W35087  29.780  15.576   5.026
62663W        W35088  43.078  27.023  13.341
62664W        W35089  11.807  19.992  13.572
62665W        W35090   7.011  37.276   1.271
62666W        W35091   9.780  29.464   0.954
62667W        W35092  11.229  33.955   2.160
62668W        W35093   0.879  23.141   2.883
62669W        W35094   2.814   3.217   3.364
62670W        W35095  28.457   1.204   3.139
62671W        W35096  38.423  30.910  10.785
62672W        W35097  40.035  25.177  14.792
62673W        W35098   3.725  31.648  14.804
62674W        W35099  24.506  10.002  10.600
62675W        W35100   2.069   5.420  10.675
62676W        W35101  13.170   8.402   2.442
62677W        W35102  19.110  15.765  14.462
62678W        W35103  11.306   2.969   0.732
62679W        W35104   4.171  44.974   1.245
62680W        W35105  18.107  15.588  10.690
62681W        W35106  13.525  11.756  13.585
62682W        W35107   0.959  29.159  10.741
62683W        W35108   5.186  33.357  13.323
62684W        W35109  40.966  40.185   2.904
62685W        W35110   4.030  33.611  14.776
62686W        W35111  37.771  22.914  11.844
62687W        W35112   7.954  20.415  12.449
62688W        W35113  24.518  25.964  12.592
62689W        W35114  30.540  30.833   1.353
62690W        W35115  24.145   3.431   0.597
62691W        W35116   8.951  17.253   4.157
62692W        W35117  21.529  20.820   1.388
62693W        W35118  38.476  39.098  13.394
62694W        W35119  10.329  10.559   2.535
62695W        W35120  28.186   1.720   4.692
62696W        W35121  44.986   9.216  10.587
62697W        W35122  29.561  12.613   2.913
62698W        W35123  36.356  18.809   4.171
62699W        W35124  26.015  30.658  10.523
62700W        W35125  16.357  39.134   4.031
62701W        W35126  26.185   8.169  13.568
62702W        W35127  17.738   5.910  11.294
62703W        W35128  11.823  23.974  11.913
62704W        W35129   5.706  41.873   2.019
62705W        W35130  41.380  43.567  10.397
62706W        W35131  42.579  16.253  14.353
62707W        W35132  27.718  33.936   4.597
62708W        W35133  26.899  32.453   2.189
62709W        W35134  28.253  32.420   0.197
62710W        W35135   9.726  44.321  13.208
62711W        W35136  35.487  33.445  14.018
62712W        W35137  44.750  11.280  12.075
62713W        W35138  17.049  30.737   0.222
62714W        W35139  42.833   7.452  13.344
62715W        W35140  26.215  39.459   0.909
62716W        W35141  44.729  25.424  10.282
62717W        W35142   0.298   3.342  14.332
62718W        W35143   8.492  36.511   4.177
62719W        W35144  20.449  34.014  14.398
62720W        W35145   3.904   0.393  10.607
62721W        W35146   5.654  25.992   2.657
62722W        W35147  15.102   4.400   4.093
62723W        W35148  43.469   4.282  10.419
62724W        W35149  32.976  43.249   4.680
62725W        W35150  35.550  42.572  12.462
62726W        W35151  10.403  37.032   4.606
62727W        W35152  25.012  19.607  10.459
62728W        W35153   9.116  39.918  12.082
62729W        W35154  25.741   2.109   2.777
62730W        W35155   1.496   9.703   1.601
62731W        W35156  22.611   1.233  12.858
62732W        W35157  25.525  28.172   2.834
62733W        W35158   2.780  38.259  13.157
62734W        W35159  33.095  37.248   3.123
62735W        W35160  39.762  22.574   1.922
62736W        W35161   1.014  39.324  12.564
62737W        W35162  10.982   9.537  10.061
62738W        W35163  38.344  13.603  13.009
62739W        W35164  15.168   3.674  11.630
62740W        W35165   2.686  10.002  13.144
62741W        W35166  44.670  36.874   2.329
62742W        W35167  15.075   1.997  12.628
62743W        W35168  18.328   4.796  14.775
62744W        W35169  44.722  31.073   4.591
62745W        W35170  23.450  10.158   4.752
62746W        W35171  11.693   7.208   2.214
62747W        W35172  21.680  26.507  13.087
62748W        W35173  17.674  30.221  14.909
62749W        W35174  25.603  22.022   0.945
62750W        W35175  35.053  30.645  13.016
62751W        W35176  30.906   2.726   2.180
62752W        W35177   6.376  22.496   1.383
62753W        W35178   6.821   8.492   4.538
62754W        W35179  24.498  21.639  10.887
62755W        W35180   8.123  32.036   4.635
62756W        W35181   6.152  16.889  12.028
62757W        W35182   4.451  33.589  12.434
62758W        W35183  30.298  32.288  13.917
62759W        W35184  17.773  12.607  12.980
62760W        W35185  27.748  18.350   2.795
62761W        W35186  15.111   9.360  10.694
62762W        W35187  13.234  43.003   0.017
62763W        W35188  10.792  35.648  11.202
62764W        W35189  33.715  16.190   0.905
62765W        W35190  17.798  31.990   1.472
62766W        W35191  28.688  39.214  11.106
62767W        W35192   9.153  20.314   1.839
62768W        W35193   9.591   0.860  13.389
62769W        W35194   4.798  17.940   1.253
62770W        W35195  14.569  44.448  12.446
62771W        W35196  10.562  36.593  14.303
62772W        W35197   1.064  35.809  13.901
62773W        W35198   7.693   5.760  11.139
62774W        W35199  25.739  24.595  11.804
62775W        W35200   6.396  44.428  12.132
62776W        W35201  10.328  27.508   0.159
62777W        W35202  17.538  10.482   2.464
62778W        W35203  24.744  20.284   0.203
62779W        W35204  16.804  42.317   2.260
62780W        W35205  12.915   0.739   1.672
62781W        W35206  25.010   0.994   2.390
62782W        W35207  43.945  39.023  11.267
62783W        W35208  30.674  39.881  12.460
62784W        W35209  30.591   8.790  10.852
62785W        W35210  26.445  17.663   0.847
62786W        W35211  44.558  34.911   3.656
62787W        W35212  24.562   0.496   4.096
62788W        W35213  18.142  15.223  13.051
62789W        W35214  34.012  28.717   1.233
62790W        W35215  27.419  41.123   0.709
62791W        W35216  32.634   3.714   5.045
62792W        W35217  24.214  26.474  11.723
62793W        W35218  34.523  17.339  12.557
62794W        W35219  41.310  14.594  10.835
62795W        W35220  35.300  34.472  12.752
62796W        W35221  26.123   2.495  10.647
62797W        W35222  26.465  17.873   1.334
62798W        W35223  37.594   9.343   2.250
62799W        W35224  17.043  13.330  14.389
62800W        W35225  11.175  44.861  13.732
62801W        W35226  10.798  26.414   2.355
62802W        W35227  13.847  25.513  14.031
62803W        W35228   0.872   2.221   3.392
62804W        W35229   7.668  11.605  10.743
62805W        W35230  41.884  11.453  12.317
62806W        W35231  42.288  42.498   2.350
62807W        W35232  12.640   2.326   3.347
62808W        W35233   1.258  13.806   3.837
62809W        W35234  18.572   3.485  11.158
62810W        W35235  11.642   6.745   9.938
62811W        W35236  13.669  16.124   3.775
62812W        W35237   3.721  28.197  11.895
62813W        W35238  41.859  19.782   0.668
62814W        W35239  43.241   5.762   2.866
62815W        W35240  21.305  20.693  13.427
62816W        W35241  41.999   9.442  10.760
62817W        W35242   8.031  44.430   1.980
62818W        W35243  11.786  41.496   2.355
62819W        W35244  21.731   6.518   1.797
62820W        W35245   1.379  15.602  12.968
62821W        W35246  28.604   4.341   0.247
62822W        W35247   6.377  16.549   1.746
62823W        W35248  35.275  13.661   2.321
62824W        W35249   1.750   5.288   1.493
62825W        W35250   3.792  20.739  10.683
62826W        W35251   7.966  37.746  11.866
62827W        W35252  38.425   4.949   3.622
62828W        W35253  35.414  43.144   0.376
62829W        W35254   5.147   7.056   4.936
62830W        W35255  41.928   1.302  11.641
62831W        W35256  40.804  12.802  10.661
62832W        W35257  36.074  18.562  13.872
62833W        W35258  10.836   1.223  13.317
62834W        W35259   4.322  35.261   0.271
62835W        W35260  14.426  11.147  10.668
62836W        W35261   6.391  18.962  11.165
62837W        W35262  13.678  36.075  13.932
62838W        W35263  16.346  18.327   3.307
62839W        W35264  17.625  12.878  12.520
62840W        W35265  35.147   1.378   4.305
62841W        W35266   3.791  38.406   2.872
62842W        W35267  16.754  12.478   1.828
62843W        W35268  18.046  15.355  14.065
62844W        W35269  37.310  34.299   0.829
62845W        W35270  17.553  15.132   2.255
62846W        W35271  35.476  11.889   1.447
62847W        W35272   6.010  42.361   3.367
62848W        W35273  28.101  43.782   1.641
62849W        W35274   1.377  27.041   0.554
62850W        W35275   5.740  19.085  11.579
62851W        W35276  33.418  19.964   1.461
62852W        W35277   2.421  27.985   0.870
62853W        W35278  20.497   8.535   3.091
62854W        W35279  24.981  25.945   2.235
62855W        W35280  27.513  40.533  10.654
62856W        W35281   2.455  10.252  12.010
62857W        W35282  17.716  17.226  11.565
62858W        W35283  12.150  33.910  13.771
62859W        W35284  19.622  42.177  10.780
62860W        W35285  13.243   4.775   0.020
62861W        W35286  27.333   0.284   2.650
62862W        W35287  27.070  34.419   2.877
62863W        W35288  24.000   2.710  13.841
62864W        W35289  32.828  19.219  13.414
62865W        W35290  24.705  29.621   1.342
62866W        W35291  12.344  23.189   0.732
62867W        W35292  32.333  43.068   3.902
62868W        W35293  31.570   7.249  13.900
62869W        W35294  17.966  34.387  11.113
62870W        W35295   5.208  26.046   1.843
62871W        W35296  31.753  26.025  10.635
62872W        W35297  30.002  21.721   4.534
62873W        W35298  23.482  33.560   3.338
62874W        W35299  16.024  26.241  13.201
62875W        W35300  36.235  12.284  12.377
62876W        W35301  39.017  16.094   2.509
62877W        W35302   1.495  40.994   3.579
62878W        W35303   0.384  30.625  14.341
62879W        W35304  32.447  44.110   2.398
62880W        W35305  23.051  21.677   2.270
62881W        W35306  34.793  43.722   2.197
62882W        W35307  41.991  16.106  11.116
62883W        W35308  24.447  13.000  13.465
62884W        W35309  44.970  20.806  13.549
62885W        W35310  13.178  35.297  12.096
62886W        W35311   9.628   8.292   5.555
62887W        W35312  39.078  20.561   0.754
62888W        W35313  24.232  13.274  12.172
62889W        W35314  21.352   6.787   2.014
62890W        W35315   0.752   2.590  10.857
62891W        W35316  37.026  32.598  11.158
62892W        W35317   7.334   4.748  10.301
62893W        W35318  13.116   7.804  11.479
62894W        W35319  14.130  18.474   3.752
62895W        W35320  27.659  43.214   2.333
62896W        W35321  30.138   3.443   0.434
62897W        W35322  36.316   3.208  14.336
62898W        W35323  24.718   8.521  13.045
62899W        W35324  31.029  25.534  12.679
62900W        W35325  26.517  33.348  13.133
62901W        W35326  14.737   0.481  14.553
62902W        W35327  10.236  36.327  13.555
62903W        W35328  16.287   9.994  10.462
62904W        W35329   8.266   7.494  12.348
62905W        W35330  39.891  23.011   0.852
62906W        W35331  35.090  18.170   0.922
62907W        W35332   4.894  24.786  10.525
62908W        W35333  38.479   6.753  12.353
62909W        W35334   9.373   6.826  13.976
62910W        W35335  41.818  20.184  12.387
62911W        W35336  40.890   9.466  13.958
62912W        W35337  29.554  18.440  12.587
62913W        W35338  12.690  24.609   0.124
62914W        W35339  43.481  35.186   3.286
62915W        W35340   2.900  26.580  12.136
62916W        W35341  19.968  15.768  11.628
62917W        W35342  22.527  30.060   2.606
62918W        W35343  38.904  35.175  13.772
62919W        W35344  44.152   3.908   4.583
62920W        W35345  33.670  17.021  12.032
62921W        W35346  11.776  36.129  14.353
62922W        W35347  36.628   7.433  11.529
62923W        W35348  37.295  16.653  12.502
62924W        W35349  35.989  38.128   0.419
62925W        W35350  35.420   6.256  13.314
62926W        W35351  36.460  12.053   1.619
62927W        W35352  38.057  31.192  11.150
62928W        W35353  32.215  13.677   2.752
62929W        W35354  41.099  17.091   4.605
62930W        W35355  14.249  16.043   0.663
62931W        W35356  34.479  40.563   2.873
62932W        W35357   5.797   8.799   0.485
62933W        W35358  13.175  41.297   4.165
62934W        W35359   7.698  22.560   3.739
62935W        W35360   2.416  23.694  10.768
62936W        W35361  30.222  15.651   3.754
62937W        W35362  32.539  23.708  13.101
62938W        W35363   3.538  34.461   3.651
62939W        W35364  36.791   8.581   0.854
62940W        W35365  15.092   0.233  12.890
62941W        W35366  33.484  24.207  14.169
62942W        W35367  34.951   2.199  13.475
62943W        W35368  20.347  42.785  13.398
62944W        W35369  34.324  13.524  13.995
62945W        W35370   4.844  35.499  13.888
62946W        W35371  30.426  32.200   3.040
62947W        W35372  42.354  41.886  11.777
62948W        W35373  32.781  19.664   4.709
62949W        W35374   2.741   2.973  14.430
62950W        W35375  20.820  43.546   2.168
62951W        W35376  20.919   8.050  14.268
62952W        W35377  13.222  15.666  10.306
62953W        W35378  30.282  28.930  13.546
62954W        W35379  18.182  29.715   1.264
62955W        W35380  24.045  38.761  11.592
62956W        W35381  39.837   5.841   4.291
62957W        W35382  32.360  41.839   2.712
62958W        W35383  17.758  41.253   3.619
62959W        W35384  22.088  34.943   1.352
62960W        W35385  31.683  22.838  12.987
62961W        W35386  37.411   9.324   3.413
62962W        W35387  42.379  42.745  13.682
62963W        W35388  29.608  11.906  13.433
62964W        W35389  13.133   2.534  14.802
62965W        W35390  24.896   0.764   1.653
62966W        W35391  40.399  36.421   1.001
62967W        W35392  23.659   2.680  14.452
62968W        W35393   0.940  28.426  14.342
62969W        W35394  33.459  39.851   2.364
62970W        W35395  43.961  19.708   1.690
62971W        W35396  31.555  14.834   0.034
62972W        W35397  33.481   1.344   1.403
62973W        W35398  44.374   7.602  13.486
62974W        W35399  28.032  30.364  12.340
62975W        W35400  38.330  15.722  13.126
62976W        W35401  29.070  38.879  11.069
62977W        W35402  10.766  14.143   2.004
62978W        W35403  37.995  13.349   4.332
62979W        W35404  25.099  26.759  13.978
62980W        W35405  38.085  27.134   2.910
62981W        W35406  24.075  18.925  12.834
62982W        W35407  39.936  34.009   3.230
62983W        W35408   8.339   9.926  12.361
62984W        W35409   5.728  30.901  10.728
62985W        W35410  31.004  15.042   3.528
62986W        W35411  29.684  43.539  13.620
62987W        W35412  34.146  41.799  12.215
62988W        W35413  36.111  28.970  10.712
62989W        W35414  27.413  16.429  12.587
62990W        W35415  21.743  41.505  12.158
62991W        W35416  22.111  16.439   4.442
62992W        W35417  18.534  13.726   4.634
62993W        W35418  18.749  12.605   2.685
62994W        W35419  14.322  14.566   3.622
62995W        W35420   2.272  18.718   1.332
62996W        W35421  34.307  14.184   4.294
62997W        W35422  38.986  17.144  13.436
62998W        W35423   6.985  20.140   0.941
62999W        W35424  39.381  33.531   0.779
63000W        W35425  41.155  37.377   0.929
63001W        W35426  39.806  33.564   0.433
63002W        W35427   4.917  15.234  11.088
63003W        W35428   3.442  25.849   0.236
63004W        W35429   8.631  26.221  12.926
63005W        W35430   7.318  16.396   4.287
63006W        W35431   2.737  24.385  14.530
63007W        W35432   2.500   2.790  10.647
63008W        W35433  39.955   1.314   3.548
63009W        W35434  39.911  43.768  14.679
63010W        W35435  36.515  38.265   2.938
63011W        W35436   5.365   2.800  11.829
63012W        W35437  37.873  27.798   0.051
63013W        W35438   1.849   4.933   3.615
63014W        W35439  28.384  20.330   0.942
63015W        W35440   4.409   3.964  14.877
63016W        W35441  16.678  12.261  14.779
63017W        W35442  18.654  17.281   4.809
63018W        W35443  42.312  25.469   1.942
63019W        W35444   3.557  31.046  11.004
63020W        W35445  11.649  34.464  12.188
63021W        W35446  30.729   0.925   3.100
63022W        W35447  21.464  14.643  12.674
63023W        W35448  16.347  24.586  11.071
63024W        W35449  40.823  21.513  11.622
63025W        W35450   3.536  31.630  11.705
63026W        W35451  24.611  26.718   1.689
63027W        W35452  32.636  37.614  12.068
63028W        W35453  18.068  29.390   3.207
63029W        W35454  42.142  18.689  14.824
63030W        W35455  38.379  14.378   4.757
63031W        W35456  28.444   6.381  12.605
63032W        W35457   4.047  37.536  13.119
63033W        W35458  28.056  11.710  10.665
63034W        W35459  41.786  20.655  12.984
63035W        W35460  16.746   9.894   1.387
63036W        W35461  27.006  12.737  10.713
63037W        W35462  21.343  26.136  13.427
63038W        W35463  30.839  30.252   4.383
63039W        W35464  10.307   2.786   1.470
63040W        W35465  31.317  31.952  11.651
63041W        W35466  22.698  41.429   1.971
63042W        W35467   5.400   9.657  11.527
63043W        W35468  31.096  23.774  11.453
63044W        W35469   2.108  33.535  10.185
63045W        W35470  17.071   3.380   3.652
63046W        W35471  40.042   3.198  14.986
63047W        W35472  41.081  12.393   0.226
63048W        W35473  42.003  10.165  13.367
63049W        W35474  23.243  39.590   1.219
63050W        W35475  41.672   9.802   3.891
63051W        W35476  13.726   5.908  13.917
63052W        W35477  31.628   3.494   0.561
63053W        W35478  42.749  24.392   5.103
63054W        W35479  20.277  39.351  13.813
63055W        W35480   7.719  39.080   3.063
63056W        W35481  31.570  13.777  13.246
63057W        W35482  31.682  39.424   4.384
63058W        W35483  44.205  36.084  13.513
63059W        W35484  19.406  25.189  14.862
63060W        W35485  17.624  16.759   1.900
63061W        W35486  34.020   3.698  11.272
63062W        W35487  44.009   3.956  11.640
63063W        W35488  11.681  28.093  13.798
63064W        W35489  16.134   4.088  13.359
63065W        W35490   2.984  42.473   3.732
63066W        W35491   3.760  22.570   2.740
63067W        W35492   6.237  43.253   4.577
63068W        W35493  29.006  42.275   3.991
63069W        W35494  44.640  30.933  12.075
63070W        W35495  22.276  44.442   4.161
63071W        W35496  22.675  12.672  13.566
63072W        W35497  21.052   0.363   2.257
63073W        W35498  29.640  38.082   1.978
63074W        W35499  42.110  31.864   0.861
63075W        W35500  39.054  16.573   4.063
63076W        W35501  16.711   2.453  12.114
63077W        W35502  27.606  37.253   1.490
63078W        W35503  24.230   3.428   3.164
63079W        W35504  16.185  20.026   4.848
63080W        W35505  22.113  42.744  12.027
63081W        W35506   8.581  20.009  12.087
63082W        W35507  21.220  32.336   3.071
63083W        W35508   4.011  12.232  11.348
63084W        W35509  35.850   7.171   2.860
63085W        W35510  42.398   1.864  11.993
63086W        W35511  17.560  13.184   1.672
63087W        W35512  10.783  18.971  11.082
63088W        W35513   8.825  28.125   2.818
63089W        W35514  17.540  16.050   0.957
63090W        W35515  14.364  17.034  12.016
63091W        W35516  27.426  37.148  14.024
63092W        W35517  12.232  19.748  13.900
63093W        W35518  38.937  12.831  11.423
63094W        W35519   5.691   1.510  11.135
63095W        W35520  14.697   9.126   0.458
63096W        W35521  23.192  12.995  14.360
63097W        W35522   6.731  26.913  11.434
63098W        W35523   7.414  42.883   0.876
63099W        W35524  14.710  23.994   2.932
63100W        W35525  24.469   5.987   1.833
63101W        W35526  41.235  22.882   1.835
63102W        W35527  36.491   5.708  12.403
63103W        W35528  25.886  17.766   0.160
63104W        W35529   8.459  24.452  13.050
63105W        W35530   6.540  44.225  11.224
63106W        W35531   1.688  30.071   0.385
63107W        W35532  38.374   7.023  11.941
63108W        W35533   4.468   7.823  10.644
63109W        W35534  42.821  17.276  10.623
63110W        W35535  38.374  36.439  13.334
63111W        W35536  34.808  19.029  12.522
63112W        W35537  15.195  12.289  14.738
63113W        W35538  12.121  13.329   0.657
63114W        W35539  29.389   3.782  14.274
63115W        W35540   3.827  19.257  13.396
63116W        W35541  21.655  20.803  12.853
63117W        W35542  20.755  23.631   1.748
63118W        W35543  19.089  18.106  13.953
63119W        W35544  16.077   4.457   2.728
63120W        W35545  40.516  23.764   0.402
63121W        W35546  18.916   0.827   4.489
63122W        W35547  33.655  19.034  12.056
63123W        W35548   0.350  36.428  11.723
63124W        W35549  22.569  17.962  14.848
63125W        W35550  43.337   6.771   4.877
63126W        W35551   4.474  27.037  12.921
63127W        W35552  43.473  27.656  12.775
63128W        W35553   2.193   1.223   3.168
63129W        W35554  13.923   3.335  12.095
63130W        W35555  38.730  28.881  13.338
63131W        W35556   0.333  13.762   2.665
63132W        W35557   0.409  11.093  11.806
63133W        W35558  20.388  24.629  14.484
63134W        W35559  24.169  29.276   4.104
63135W        W35560   5.826  26.053  10.733
63136W        W35561   8.466   6.863  10.694
63137W        W35562   7.224   6.314   3.634
63138W        W35563  21.574  27.527   0.804
63139W        W35564  34.658   3.316  10.789
63140W        W35565  15.859  40.094   2.402
63141W        W35566   8.368  27.022  14.840
63142W        W35567   7.229  32.124   1.446
63143W        W35568   6.791  10.620  13.899
63144W        W35569   8.258   3.364   0.929
63145W        W35570   9.578  36.274  13.782
63146W        W35571  35.861  40.636   0.305
63147W        W35572  40.487   0.047   4.603
63148W        W35573  32.350  22.046  13.082
63149W        W35574  28.141  44.841   0.536
63150W        W35575  39.314   8.413  11.207
63151W        W35576  42.406  20.275   3.264
63152W        W35577  39.238  22.228   0.507
63153W        W35578  25.491  41.288   4.549
63154W        W35579   8.929  35.018   0.402
63155W        W35580   7.756  21.569  13.095
63156W        W35581   5.214  13.931  12.240
63157W        W35582  17.608  44.703   0.390
63158W        W35583  41.331  36.992  10.973
63159W        W35584  42.860  11.832  13.182
63160W        W35585   8.943  34.412   1.159
63161W        W35586  24.597  32.974   4.641
63162W        W35587  17.686  16.681   4.124
63163W        W35588  40.373   5.672  13.476
63164W        W35589  26.827  26.901  13.272
63165W        W35590  24.987  40.912  11.833
63166W        W35591  43.953  39.780  10.670
63167W        W35592  34.135  29.819   1.701
63168W        W35593  22.846  34.444   0.901
63169W        W35594  29.597  43.158  13.257
63170W        W35595  10.357   0.893   0.230
63171W        W35596  39.474   9.867  11.413
63172W        W35597  33.449  28.622  10.692
63173W        W35598  19.949  40.190   3.198
63174W        W35599  34.055  30.428  12.599
63175W        W35600  15.071   7.872   3.906
63176W        W35601  12.388  24.119  14.840
63177W        W35602  40.802  38.024  12.514
63178W        W35603  27.566  44.468   3.641
63179W        W35604  23.701   1.520   2.969
63180W        W35605   4.842   2.665   2.703
63181W        W35606  12.165   3.667  13.112
63182W        W35607  26.069  17.977  14.424
63183W        W35608  22.177   5.997  14.296
63184W        W35609   8.805  44.484  12.111
63185W        W35610  26.096   3.703  12.477
63186W        W35611  42.190   6.359  13.318
63187W        W35612   5.750  17.330   0.757
63188W        W35613  13.586  42.959  12.538
63189W        W35614   7.702   9.917   1.828
63190W        W35615  27.335  41.393   2.906
63191W        W35616  39.917  38.788  10.475
63192W        W35617  13.224  16.232   2.794
63193W        W35618  35.770  41.151   0.466
63194W        W35619  22.269  30.124  12.906
63195W        W35620  38.872  13.636   3.667
63196W        W35621  13.821   4.470  14.027
63197W        W35622  42.532  33.655  12.845
63198W        W35623  29.578  37.133   4.089
63199W        W35624  42.721  25.202   4.338
63200W        W35625   5.896   0.664   0.453
63201W        W35626  12.013  29.842   4.389
63202W        W35627  39.758   8.648  10.990
63203W        W35628  22.738  32.976   3.506
63204W        W35629   9.180   8.356   4.645
63205W        W35630   9.805  31.505   1.834
63206W        W35631  29.322   8.171  14.793
63207W        W35632  33.607  11.252   1.929
63208W        W35633   0.787  44.332  13.462
63209W        W35634  44.084  35.105   2.337
63210W        W35635  23.535  23.917   3.217
63211W        W35636   3.233  44.706  10.519
63212W        W35637  33.777  16.292  12.562
63213W        W35638  35.993  23.709   1.775
63214W        W35639  17.784  23.272   1.215
63215W        W35640   7.240  43.483  12.314
63216W        W35641  27.454  17.328   3.718
63217W        W35642  17.717  33.503  12.396
63218W        W35643  23.805   6.705   2.270
63219W        W35644   5.279   7.343  10.913
63220W        W35645  37.614  26.099   1.790
63221W        W35646  14.328  14.382  14.049
63222W        W35647  17.697   1.427   4.565
63223W        W35648  21.382  23.040   0.026
63224W        W35649  14.769  21.742   5.585
63225W        W35650  17.605  44.429  12.115
63226W        W35651   8.930  35.321  11.602
63227W        W35652  36.089  26.429   2.922
63228W        W35653  18.677  12.147   0.828
63229W        W35654  17.860   5.303   4.284
63230W        W35655   4.716  29.783   0.955
63231W        W35656  12.296  32.224   3.057
63232W        W35657  16.373  24.045  11.105
63233W        W35658  44.736  35.736  11.683
63234W        W35659  26.472  38.846   4.159
63235W        W35660  10.393  18.736  13.484
63236W        W35661  34.068  39.380  14.308
63237W        W35662  33.561  13.104   4.482
63238W        W35663  31.372   6.936   5.042
63239W        W35664  25.903  42.804  10.737
63240W        W35665  29.498  14.681  11.508
63241W        W35666  42.817  22.078  14.753
63242W        W35667  10.363  19.436  13.980
63243W        W35668  17.034  31.972   2.743
63244W        W35669  18.114  27.761  10.713
63245W        W35670  40.220  14.664   3.949
63246W        W35671  17.000   3.027   1.253
63247W        W35672  39.189  41.177  11.076
63248W        W35673   6.830  33.559   1.872
63249W        W35674  12.734   9.890   1.268
63250W        W35675  34.282  19.061   0.408
63251W        W35676  27.520  15.279  10.720
63252W        W35677  36.148  22.253   2.851
63253W        W35678  12.769   4.632   0.208
63254W        W35679  30.584  33.911   4.608
63255W        W35680  37.044   5.660   1.738
63256W        W35681  13.231  19.314  13.871
63257W        W35682  41.352  15.610  11.793
63258W        W35683  27.717  13.604  11.108
63259W        W35684   9.594   2.295   3.187
63260W        W35685  16.549  39.798  13.424
63261W        W35686  10.599   1.252  11.606
63262W        W35687  31.877  15.143   3.175
63263W        W35688  14.682  27.483   1.851
63264W        W35689   6.483   8.685   3.172
63265W        W35690  20.947  29.434   4.078
63266W        W35691   0.564  33.605   4.676
63267W        W35692  23.704  26.161  14.048
63268W        W35693   5.482  29.705  14.801
63269W        W35694   6.973  24.102  12.933
63270W        W35695  28.465  33.976  10.737
63271W        W35696  38.094  38.106   3.238
63272W        W35697  18.196  16.124  12.712
63273W        W35698  39.543  21.826   0.660
63274W        W35699  22.107   2.731  11.589
63275W        W35700  13.612  42.291   2.868
63276W        W35701  17.982  38.886  10.933
63277W        W35702   6.688   4.217   4.367
63278W        W35703  31.111   8.545   3.280
63279W        W35704  37.838   8.397   4.548
63280W        W35705  10.640  36.316   4.775
63281W        W35706  41.278  43.900   2.888
63282W        W35707  10.464  22.422  12.660
63283W        W35708  21.694  21.191   2.186
63284W        W35709  41.005  21.515  10.718
63285W        W35710  22.415  44.016   1.896
63286W        W35711  33.627   2.189   1.580
63287W        W35712  16.504  26.281  13.017
63288W        W35713   8.762  27.943  11.956
63289W        W35714   8.631  42.548   4.170
63290W        W35715   5.356   0.845  12.490
63291W        W35716  27.069  15.565  11.903
63292W        W35717  11.022  32.618  14.789
63293W        W35718   7.388  24.171   0.274
63294W        W35719  23.266   9.685  10.591
63295W        W35720  16.079  16.860  13.816
63296W        W35721  39.626  41.046  11.938
63297W        W35722  23.234  41.762   2.310
63298W        W35723  27.384  17.738  12.466
63299W        W35724  23.567  18.183   2.166
63300W        W35725  28.787   2.833   2.268
63301W        W35726  36.114  11.699   2.276
63302W        W35727  42.321  28.713  13.562
63303W        W35728  31.864  18.987  14.004
63304W        W35729  40.512   4.413   1.644
63305W        W35730   3.910  37.012   0.352
63306W        W35731   6.752   1.959  13.483
63307W        W35732  36.271  29.759  14.981
63308W        W35733  33.420  23.597   1.619
63309W        W35734   3.253  42.929   0.661
63310W        W35735   9.723   4.936   3.695
63311W        W35736  40.964  41.336  12.062
63312W        W35737   9.765  18.727   3.846
63313W        W35738  22.646  35.057  14.510
63314W        W35739   7.884  10.299   9.951
63315W        W35740  38.820  40.799   1.731
63316W        W35741  30.684  14.197   2.263
63317W        W35742  19.342  19.513   0.270
63318W        W35743  36.327  36.383  10.769
63319W        W35744  29.854  20.927  11.583
63320W        W35745   7.011  18.106   1.535
63321W        W35746  15.197  27.287  13.335
63322W        W35747  35.046  10.266   4.718
63323W        W35748  23.507   2.374   3.614
63324W        W35749   0.307  24.109   1.767
63325W        W35750  33.965   1.207   2.317
63326W        W35751  22.562  25.143   4.177
63327W        W35752  15.511  37.587   5.095
63328W        W35753  39.321  18.688   3.683
63329W        W35754  42.476  28.649  11.600
63330W        W35755  34.476  27.183  14.344
63331W        W35756  35.162  37.453   4.565
63332W        W35757   3.316  20.243   4.210
63333W        W35758  23.291   5.375   3.636
63334W        W35759  30.437  28.088  12.684
63335W        W35760  38.319   6.915   4.210
63336W        W35761  23.393  19.792   1.839
63337W        W35762  16.634  30.484   9.663
63338W        W35763  33.098  19.802  14.594
63339W        W35764  33.581  37.322   2.172
63340W        W35765   4.891  40.963   2.846
63341W        W35766  38.810  43.904  10.864
63342W        W35767  26.665   1.833   1.247
63343W        W35768   6.830  38.852  13.369
63344W        W35769  21.270   1.840  11.939
63345W        W35770  37.162  10.901   0.368
63346W        W35771  35.653  30.968   0.642
63347W        W35772  10.195   4.241  10.585
63348W        W35773  41.307  29.145   2.280
63349W        W35774  10.810  37.472  13.850
63350W        W35775  17.846  37.413  13.505
63351W        W35776  38.273   8.292  13.093
63352W        W35777  36.233  26.376  12.897
63353W        W35778  40.433  25.362  12.987
63354W        W35779   7.196  24.229   2.670
63355W        W35780  41.448   6.884   0.471
63356W        W35781  22.596  40.795  11.147
63357W        W35782  41.720  21.931  12.232
63358W        W35783   3.520  41.932   3.209
63359W        W35784  13.294  25.462  13.477
63360W        W35785   5.986  23.555   0.711
63361W        W35786  31.059   3.982  10.711
63362W        W35787  39.898  22.260  12.532
63363W        W35788  17.130  11.299   4.761
63364W        W35789  19.333  27.657   2.827
63365W        W35790   9.159  34.480   3.238
63366W        W35791  17.354   5.972  14.172
63367W        W35792   0.519  25.475  13.887
63368W        W35793  18.312  44.884  10.614
63369W        W35794  25.290  43.403  13.914
63370W        W35795  35.281   5.665   2.211
63371W        W35796   4.969  42.166   5.127
63372W        W35797  25.585  26.389  11.025
63373W        W35798   4.327  23.948   4.599
63374W        W35799  38.453   7.450   2.873
63375W        W35800  14.389   3.635  14.097
63376W        W35801  23.015   8.020  13.488
63377W        W35802  16.861  35.183  11.009
63378W        W35803  39.325  26.235  10.319
63379W        W35804  38.778  18.166  11.859
63380W        W35805  23.706   8.334   1.380
63381W        W35806   2.245  15.816  12.993
63382W        W35807  18.786  37.753  11.328
63383W        W35808  38.824  19.565  11.592
63384W        W35809  33.137  27.283  14.364
63385W        W35810   3.643   9.842  13.559
63386W        W35811  38.226  22.471   0.404
63387W        W35812  10.833  32.483   3.250
63388W        W35813   5.732   0.445  12.458
63389W        W35814  39.813  27.594   1.313
63390W        W35815  33.535   2.038  11.551
63391W        W35816  19.452  13.181  14.441
63392W        W35817  15.617  27.058  13.072
63393W        W35818  20.187  29.059  13.082
63394W        W35819  14.731   1.717   3.241
63395W        W35820  33.905  32.357  14.393
63396W        W35821  21.631  10.405  11.178
63397W        W35822  33.728  33.775  11.497
63398W        W35823  24.777  38.817  12.163
63399W        W35824  36.958  30.075   3.732
63400W        W35825  32.191  24.883  11.050
63401W        W35826   2.858  19.655   4.369
63402W        W35827   1.296  18.764   1.709
63403W        W35828  44.857  24.166   2.830
63404W        W35829  18.849  37.844  14.773
63405W        W35830  37.912   1.990  13.509
63406W        W35831  10.398   2.989  12.880
63407W        W35832   6.199  13.372  14.486
63408W        W35833   0.797  11.053   4.184
63409W        W35834   7.897  18.392  14.751
63410W        W35835  24.749  13.735  12.990
63411W        W35836  10.869  33.805  12.899
63412W        W35837  40.667  33.923   1.850
63413W        W35838  42.115  41.954   0.889
63414W        W35839  19.449   0.519   0.490
63415W        W35840  37.852  32.609  10.371
63416W        W35841  43.311  15.679  14.517
63417W        W35842  39.251  30.073   2.169
63418W        W35843  30.465   3.747  11.073
63419W        W35844  37.388   5.361  10.630
63420W        W35845  12.218  39.775   1.003
63421W        W35846  27.661  18.837  11.553
63422W        W35847  22.711  24.334  11.371
63423W        W35848  10.400   9.361   1.639
63424W        W35849  21.732  13.622   2.794
63425W        W35850   2.984  19.157  10.571
63426W        W35851   8.870   9.337  12.566
63427W        W35852  17.569  39.359   0.580
63428W        W35853   3.749  42.819  11.274
63429W        W35854  44.942  14.371   4.109
63430W        W35855   9.485   2.198  10.974
63431W        W35856  44.031  44.792   1.626
63432W        W35857  34.494   4.130   4.897
63433W        W35858  43.189  39.950   4.616
63434W        W35859  19.937  34.330  12.881
63435W        W35860  19.303  36.099  12.083
63436W        W35861  19.095  28.072  11.644
63437W        W35862  42.379  30.628  13.057
63438W        W35863  28.178  22.313   1.906
63439W        W35864  30.683   3.406   1.327
63440W        W35865  32.741  18.630  12.132
63441W        W35866  40.937  43.759   0.537
63442W        W35867  34.568  26.335  14.710
63443W        W35868  11.683  12.544   2.301
63444W        W35869   0.172  19.655   3.655
63445W        W35870  39.401  12.200  13.785
63446W        W35871  16.946  21.009  13.902
63447W        W35872   9.418  40.780   2.296
63448W        W35873  29.658  15.243  10.730
63449W        W35874   9.841   1.290   3.303
63450W        W35875  37.771  37.038   1.143
63451W        W35876   3.438  26.345  13.032
63452W        W35877   8.795  12.126  14.573
63453W        W35878  25.536  40.743   1.444
63454W        W35879  12.289  13.615   1.666
63455W        W35880  15.647  21.620  10.869
63456W        W35881  38.253  36.122   2.650
63457W        W35882  39.555  30.585   2.795
63458W        W35883  27.516  42.324  10.657
63459W        W35884  28.065  26.451  14.529
63460W        W35885   6.733   7.853  14.863
63461W        W35886  14.459  18.044  14.028
63462W        W35887  11.333  13.421  11.468
63463W        W35888   4.405  34.560  10.366
63464W        W35889  29.047  21.764   4.689
63465W        W35890  33.989  10.047  11.691
63466W        W35891  39.932  40.121  11.552
63467W        W35892  27.056  36.415   3.148
63468W        W35893   5.242   9.638  14.366
63469W        W35894  29.851  20.103   0.378
63470W        W35895  33.493  30.555  12.856
63471W        W35896  29.983  18.025   3.648
63472W        W35897  35.756  16.610  11.068
63473W        W35898   1.443  32.656  11.334
63474W        W35899  19.803  39.673  11.617
63475W        W35900  25.024  25.570   2.705
63476W        W35901  24.003   8.850  10.192
63477W        W35902  44.446  43.468   2.437
63478W        W35903   3.256  31.552  12.682
63479W        W35904  32.827  30.994  12.076
63480W        W35905  10.374  24.403   4.221
63481W        W35906  23.714  31.633  12.063
63482W        W35907  29.582  25.092   4.026
63483W        W35908  32.263  16.507   1.914
63484W        W35909  30.496  27.890   2.710
63485W        W35910   8.198  14.687  11.541
63486W        W35911  42.622  29.023   1.814
63487W        W35912  24.182  22.074   2.923
63488W        W35913  24.671  23.059   3.555
63489W        W35914  22.171  33.112   1.533
63490W        W35915  34.913  30.892  14.535
63491W        W35916  11.812  27.945  10.972
63492W        W35917  25.193  43.720  13.510
63493W        W35918  22.469  28.111   2.757
63494W        W35919  14.143  21.707   0.931
63495W        W35920  36.094  19.299   4.848
63496W        W35921   8.719  39.962  13.438
63497W        W35922   5.522   1.030   4.219
63498W        W35923  41.090   0.060  12.939
63499W        W35924  13.222   3.893   4.409
63500W        W35925  17.147  37.893  11.609
63501W        W35926  24.664  16.485   0.531
63502W        W35927  38.361  42.619   5.035
63503W        W35928  33.150   8.589  14.380
63504W        W35929  35.427  38.982  13.341
63505W        W35930  38.931   2.322   1.830
63506W        W35931  43.072  11.955   4.180
63507W        W35932   7.858  34.421  11.179
63508W        W35933  21.019   9.822   3.181
63509W        W35934  23.097   3.230  12.369
63510W        W35935  39.266  18.250   4.563
63511W        W35936  32.912  23.168   0.898
63512W        W35937  36.505   1.520   5.045
63513W        W35938   6.042  34.560  10.668
63514W        W35939  19.149   7.913   0.550
63515W        W35940  25.136  36.402  14.084
63516W        W35941   8.884  20.748  10.758
63517W        W35942   3.813  39.987   0.298
63518W        W35943  13.049  15.235   1.595
63519W        W35944  18.796  35.113   4.632
63520W        W35945  31.957  25.342  11.077
63521W        W35946  18.572  17.126  13.482
63522W        W35947  29.428  27.594   3.285
63523W        W35948  19.657  36.437   1.382
63524W        W35949  44.286   2.975   1.468
63525W        W35950  34.376  27.032   0.820
63526W        W35951   0.768   6.669  13.967
63527W        W35952  37.381  26.600  14.389
63528W        W35953  29.099  41.567  12.902
63529W        W35954  14.627  25.103  11.443
63530W        W35955   2.942  31.406   2.180
63531W        W35956  43.847  30.568  11.706
63532W        W35957  17.711  14.373  12.549
63533W        W35958  29.087  40.839  13.290
63534W        W35959  17.778  37.825  12.320
63535W        W35960  26.620  16.881   4.169
63536W        W35961   1.160  24.261   3.665
63537W        W35962  40.277  29.770   4.158
63538W        W35963  15.549   9.080  14.444
63539W        W35964  39.018   4.702  14.868
63540W        W35965  26.612  35.410   4.845
63541W        W35966  35.891  27.652   0.550
63542W        W35967  32.306  40.529  10.990
63543W        W35968  13.558  40.374  10.916
63544W        W35969  17.139   5.620  12.439
63545W        W35970  31.392   5.715   2.694
63546W        W35971  25.758  34.156   2.760
63547W        W35972  38.632  14.101  10.350
63548W        W35973  23.917  42.363   1.820
63549W        W35974  34.057   5.419   3.376
63550W        W35975   7.647   0.286   0.829
63551W        W35976  27.617   3.416   2.943
63552W        W35977  39.891  11.180   0.782
63553W        W35978  43.890  29.140  11.657
63554W        W35979  14.746   6.311   1.936
63555W        W35980  29.707  22.628   4.145
63556W        W35981  37.465  13.716  10.454
63557W        W35982  31.292  32.241  12.955
63558W        W35983  37.525  44.233  13.972
63559W        W35984   2.472  40.271  14.926
63560W        W35985  36.971  34.168  14.456
63561W        W35986  39.540  21.524  14.815
63562W        W35987  33.465  35.795  10.936
63563W        W35988  38.073  27.656  13.953
63564W        W35989  27.812  31.456  13.367
63565W        W35990  18.992  28.592   4.120
63566W        W35991   5.466  35.799   3.833
63567W        W35992  30.192  11.356   0.845
63568W        W35993   8.673  38.492   4.316
63569W        W35994  10.305  22.016   0.865
63570W        W35995  15.519  38.460  11.659
63571W        W35996  14.026   5.470  14.880
63572W        W35997  38.648  11.616   2.214
63573W        W35998  29.681  21.014  10.179
63574W        W35999  24.801   4.142   0.395
63575W        W36000  12.843  21.315  13.093
63576W        W36001  26.436  19.207   2.318
63577W        W36002  17.106   0.789   4.652
63578W        W36003   6.702  34.109   2.802
63579W        W36004   9.405  31.224  10.976
63580W        W36005  35.196  27.968  10.749
63581W        W36006  38.675  44.889   0.989
63582W        W36007   6.146  40.142  10.768
63583W        W36008  25.377  11.477   0.346
63584W        W36009  36.364  18.579   3.721
63585W        W36010  42.958  21.343  10.617
63586W        W36011  17.704  21.312  12.420
63587W        W36012  10.796   2.357   4.120
63588W        W36013  20.583  29.509   0.708
63589W        W36014  29.954   7.404   2.852
63590W        W36015  29.157  23.259  10.689
63591W        W36016  27.801  32.536   0.432
63592W        W36017  30.450  33.971  10.641
63593W        W36018  28.927  13.428   0.873
63594W        W36019  42.983  34.817   0.338
63595W        W36020  37.311  12.683   0.849
63596W        W36021  15.249  43.769   2.632
63597W        W36022  42.965   6.176  12.680
63598W        W36023  14.776   3.375  11.492
63599W        W36024  21.122  36.428   4.612
63600W        W36025  30.048  39.992   4.837
63601W        W36026  10.170  38.256  11.084
63602W        W36027  15.608  32.910  11.175
63603W        W36028  35.979   9.941   0.280
63604W        W36029  17.142  43.188  11.152
63605W        W36030  11.574  20.994  14.504
63606W        W36031  44.738  15.146   4.539
63607W        W36032  20.985  14.947  10.198
63608W        W36033  21.227   0.822  11.508
63609W        W36034  31.713  39.577  13.907
63610W        W36035  21.458  32.162  11.626
63611W        W36036  26.967   8.848   2.226
63612W        W36037  16.604   6.275  11.916
63613W        W36038  25.120   2.563   3.185
63614W        W36039  41.274  39.853   4.205
63615W        W36040   7.894  36.478   1.645
63616W        W36041  15.646   3.856  12.344
63617W        W36042  37.185  18.399   1.280
63618W        W36043  24.681  29.238  10.569
63619W        W36044  39.292  23.902   1.908
63620W        W36045  11.709  16.348  14.810
63621W        W36046  19.538   1.747   3.309
63622W        W36047   7.924   3.304  10.659
63623W        W36048  18.012  36.280   0.494
63624W        W36049  44.743  36.837  10.597
63625W        W36050   1.827   0.260  13.088
63626W        W36051  25.529   2.471  12.004
63627W        W36052   4.801   3.729   1.402
63628W        W36053  23.083  22.563  12.401
63629W        W36054  26.055   0.519  12.407
63630W        W36055  32.686  18.200   3.826
63631W        W36056  13.114   8.444  13.007
63632W        W36057   2.319   6.570   4.194
63633W        W36058   8.326  32.409  14.527
63634W        W36059   0.730  10.831   2.747
63635W        W36060  22.034  41.864   3.802
63636W        W36061  27.021  16.046   4.224
63637W        W36062  12.263  36.289  11.814
63638W        W36063  14.801  28.299  13.170
63639W        W36064  11.579  23.497   3.706
63640W        W36065  26.495  38.567  11.996
63641W        W36066  12.823  11.867   3.170
63642W        W36067  24.086  24.399  14.848
63643W        W36068  34.013  26.266   3.481
63644W        W36069  30.059  29.049  14.004
63645W        W36070   2.654  11.747   1.172
63646W        W36071   4.276  12.233   0.481
63647W        W36072   3.321  37.384  11.413
63648W        W36073   4.797  39.534  12.420
63649W        W36074  44.046  41.915   3.232
63650W        W36075   3.044   6.300   4.743
63651W        W36076  19.575  28.157  12.515
63652W        W36077  42.355  10.640   1.533
63653W        W36078  27.954   7.877  10.640
63654W        W36079   5.660  29.561   2.490
63655W        W36080   6.408   0.769   0.524
63656W        W36081  18.238  23.637  13.521
63657W        W36082  10.279  15.256   2.031
63658W        W36083   2.230  44.678   3.267
63659W        W36084  11.673  22.256   1.838
63660W        W36085   5.587  24.037   3.479
63661W        W36086  43.409   9.616  12.727
63662W        W36087  36.662  23.456   0.301
63663W        W36088  12.774  22.213  13.369
63664W        W36089  12.334  32.517   1.177
63665W        W36090  37.165  21.209   5.039
63666W        W36091  27.358  20.939   4.558
63667W        W36092  17.580   8.583   3.691
63668W        W36093  38.464  42.788  12.368
63669W        W36094  34.021  42.056   2.657
63670W        W36095  41.927  32.079   3.650
63671W        W36096  11.570  32.187   3.849
63672W        W36097  20.531  29.388   1.217
63673W        W36098  10.862  17.625   0.981
63674W        W36099  24.468   5.111   0.416
63675W        W36100  12.453  26.088   2.945
63676W        W36101  44.293  38.289  11.567
63677W        W36102  14.678  35.572   4.315
63678W        W36103  10.004  32.610  12.571
63679W        W36104   3.288  13.292  10.916
63680W        W36105   4.014  24.307   1.783
63681W        W36106  17.546  10.868   0.957
63682W        W36107  17.091  27.077  11.029
63683W        W36108  10.365  26.141   2.210
63684W        W36109  20.557  11.273  12.974
63685W        W36110  25.569  17.525   3.870
63686W        W36111  21.009  22.752  13.362
63687W        W36112   1.264  12.632   1.011
63688W        W36113  10.160  42.985  14.210
63689W        W36114  33.937  22.483  14.302
63690W        W36115  29.184  34.457  10.689
63691W        W36116  28.417  24.084   3.132
63692W        W36117  13.689  32.032  12.095
63693W        W36118  39.863   0.228  13.320
63694W        W36119   7.597   7.511  11.112
63695W        W36120   0.957  11.853   2.890
63696W        W36121  27.439   2.695   3.256
63697W        W36122   7.848   8.152  13.483
63698W        W36123  35.652  41.850  11.237
63699W        W36124  25.449  25.272  13.539
63700W        W36125  22.227  18.270  14.598
63701W        W36126  33.528  28.227  11.970
63702W        W36127  41.879  20.233   4.942
63703W        W36128   3.318   4.619  13.831
63704W        W36129  29.451  42.333   0.791
63705W        W36130   8.315   8.633   0.835
63706W        W36131  14.793  43.917  14.827
63707W        W36132  16.086  11.767  13.403
63708W        W36133  40.792  16.104   3.217
63709W        W36134  35.000  43.353   2.926
63710W        W36135   9.831  10.182   4.437
63711W        W36136  35.533  43.052  13.308
63712W        W36137  20.631   6.381  11.982
63713W        W36138  35.548   4.904  13.080
63714W        W36139  18.315  15.832   1.410
63715W        W36140   1.449   0.844   4.797
63716W        W36141  44.369  14.748   3.297
63717W        W36142  17.170  24.894   4.537
63718W        W36143  35.017  13.203   4.629
63719W        W36144  35.445  18.163  13.426
63720W        W36145  32.559  44.434   2.000
63721W        W36146  22.725  12.124  10.378
63722W        W36147  30.715  42.151  11.825
63723W        W36148  43.974   6.212  13.108
63724W        W36149  27.216  29.383   3.084
63725W        W36150   7.706  11.471   1.896
63726W        W36151  37.535  12.973   3.738
63727W        W36152   5.324  30.503   3.689
63728W        W36153   3.846  15.737  13.041
63729W        W36154   7.798  23.585   4.712
63730W        W36155  41.959  24.360   4.215
63731W        W36156  42.080  12.585   4.213
63732W        W36157  20.258   2.521  10.746
63733W        W36158  36.995   2.643   4.556
63734W        W36159  27.796  20.502  13.410
63735W        W36160  22.108  14.295  13.412
63736W        W36161  40.789  41.102  12.509
63737W        W36162  42.128  32.421   0.059
63738W        W36163   8.360  36.536   2.806
63739W        W36164  10.428  22.268  14.486
63740W        W36165  32.278  21.252   3.678
63741W        W36166   1.513  40.471  10.853
63742W        W36167  44.932  28.959  12.934
63743W        W36168  36.790  25.674  13.458
63744W        W36169  11.236   2.520   3.579
63745W        W36170   2.690  38.712  12.340
63746W        W36171  34.865  26.647   4.960
63747W        W36172  25.221  28.139  13.884
63748W        W36173  26.159  17.373  10.710
63749W        W36174  20.060  17.072   3.664
63750W        W36175  13.667  39.484   0.134
63751W        W36176  25.716  35.508   1.676
63752W        W36177  25.660  30.639   4.006
63753W        W36178  12.242  25.811  10.808
63754W        W36179  23.895  29.401  13.066
63755W        W36180  39.535  20.315   0.263
63756W        W36181  13.131  33.812  14.049
63757W        W36182  18.027  26.599   0.039
63758W        W36183  11.831  12.204  11.029
63759W        W36184  16.662   4.900   4.143
63760W        W36185   8.272  27.980  12.133
63761W        W36186  40.806  15.400  10.563
63762W        W36187  15.367   8.899   2.255
63763W        W36188  42.645  41.382   3.273
63764W        W36189  23.261   9.353  14.856
63765W        W36190  11.209  12.369  13.947
63766W        W36191  30.903  36.772  11.121
63767W        W36192  21.989  38.910  14.101
63768W        W36193  39.257   8.285  13.412
63769W        W36194  33.008  13.683   4.067
63770W        W36195   1.829   6.965   1.808
63771W        W36196   8.326  17.574  12.376
63772W        W36197  32.164  24.803  14.990
63773W        W36198  33.542  14.074  11.203
63774W        W36199  15.156  13.001  13.987
63775W        W36200   5.254   5.833   3.514
63776W        W36201  13.743  11.768   3.798
63777W        W36202  44.465  13.298   0.266
63778W        W36203  44.722  27.924  13.329
63779W        W36204  27.540  33.082   2.608
63780W        W36205  40.480  33.254  11.861
63781W        W36206  26.417   4.363  14.730
63782W        W36207  42.788  12.350  13.934
63783W        W36208   6.657  34.028  13.998
63784W        W36209  30.102   6.370  14.965
63785W        W36210  12.406   4.861  14.336
63786W        W36211   1.952  35.313   1.343
63787W        W36212  15.637   9.316  10.673
63788W        W36213  41.677  27.099   3.018
63789W        W36214  25.773  22.774  11.638
63790W        W36215  38.849  26.378  14.409
63791W        W36216  13.738  23.994   2.132
63792W        W36217   9.505  21.034   0.183
63793W        W36218  32.193  38.793  12.406
63794W        W36219  24.675   9.150   3.252
63795W        W36220  34.600   2.757  14.860
63796W        W36221  44.252  35.625  10.550
63797W        W36222  18.000  34.629  14.810
63798W        W36223  38.632  27.996  11.228
63799W        W36224   7.833   8.131  14.872
63800W        W36225  22.435  44.122   2.858
63801W        W36226  36.061  37.388  12.121
63802W        W36227   8.416  20.149   3.712
63803W        W36228  28.841  44.343   2.096
63804W        W36229  13.685  41.602   1.223
63805W        W36230  17.837   6.255   0.004
63806W        W36231  38.613  36.258  12.920
63807W        W36232  14.142  21.562   4.200
63808W        W36233  41.746  30.181   0.883
63809W        W36234  37.507  34.007  11.076
63810W        W36235  17.581  10.359   1.119
63811W        W36236  33.299  25.024  14.528
63812W        W36237  30.690   6.976   3.443
63813W        W36238   8.120  32.401   0.930
63814W        W36239  44.276  25.675  14.819
63815W        W36240  28.478  43.567   1.944
63816W        W36241  44.007   0.186  10.666
63817W        W36242   8.501  24.680   1.752
63818W        W36243  34.482  26.336   2.261
63819W        W36244  10.059  12.697   2.974
63820W        W36245  37.384  18.038   2.903
63821W        W36246  10.595  33.905   3.275
63822W        W36247  26.189  29.053   3.595
63823W        W36248  35.941  30.328  12.019
63824W        W36249  43.823  10.721  11.397
63825W        W36250  28.170  20.194  14.667
63826W        W36251  11.734  23.632  12.410
63827W        W36252  15.644  42.870   0.288
63828W        W36253  26.522  17.861  13.616
63829W        W36254  31.621  11.863  10.509
63830W        W36255  18.291  37.984  12.326
63831W        W36256  26.052  20.628   4.187
63832W        W36257  44.865  19.525  13.934
63833W        W36258  35.820  10.153   2.553
63834W        W36259  27.152  41.422  10.389
63835W        W36260  32.041  30.977   1.187
63836W        W36261  40.347   6.222  11.633
63837W        W36262  20.725  13.177   3.432
63838W        W36263  29.000   2.238   2.633
63839W        W36264  32.995  38.266  12.917
63840W        W36265   7.255  43.281   2.355
63841W        W36266   8.736  24.651  11.683
63842W        W36267  36.479  21.694   3.797
63843W        W36268   7.747  17.745  12.096
63844W        W36269  23.900  19.347  12.592
63845W        W36270   2.751  27.391  12.545
63846W        W36271   6.404  14.662  14.971
63847W        W36272  25.490  41.007  11.879
63848W        W36273  12.053   4.754  11.668
63849W        W36274  17.107  25.856   3.738
63850W        W36275  28.970  28.126   2.098
63851W        W36276  28.629   7.830   1.882
63852W        W36277  35.794  12.507   4.320
63853W        W36278  42.553  34.320   2.806
63854W        W36279  32.996  44.773   2.047
63855W        W36280  42.404   6.918   3.079
63856W        W36281   4.139   2.404   2.147
63857W        W36282  23.601  44.548  13.322
63858W        W36283  21.639  33.609  13.987
63859W        W36284   2.847  28.521   1.939
63860W        W36285  31.429   3.331   4.652
63861W        W36286   6.447  33.439  11.559
63862W        W36287  19.862  40.223  13.999
63863W        W36288  18.761  20.983   5.030
63864W        W36289  44.407  37.242   4.189
63865W        W36290  41.526  12.273  14.951
63866W        W36291   5.208  30.261   2.704
63867W        W36292  10.728   8.626  12.376
63868W        W36293  41.249  15.768  10.433
63869W        W36294  15.689  36.520   0.016
63870W        W36295  33.661  26.871  13.791
63871W        W36296  26.164  14.844   4.159
63872W        W36297  23.119  34.644  12.388
63873W        W36298   8.265  10.564   5.061
63874W        W36299   4.634  31.052   0.362
63875W        W36300  15.187  21.714  11.103
63876W        W36301  29.605  43.785   4.539
63877W        W36302  32.278  11.858  11.231
63878W        W36303  42.624  17.274  11.391
63879W        W36304  40.928   6.723   0.389
63880W        W36305  10.889  11.356   1.090
63881W        W36306  14.063  44.391  12.463
63882W        W36307  25.184  39.500   0.691
63883W        W36308  12.035  43.828   2.290
63884W        W36309  39.510  17.346   2.202
63885W        W36310   0.661  34.652  13.370
63886W        W36311  30.100  29.096   0.406
63887W        W36312  24.867  32.362   5.146
63888W        W36313   8.298   0.271  13.456
63889W        W36314   5.336   0.499   0.462
63890W        W36315  32.922  19.671  13.114
63891W        W36316  36.976  14.351  14.928
63892W        W36317  17.584  29.915  14.494
63893W        W36318  37.038   0.035  11.176
63894W        W36319  17.902  25.600  13.961
63895W        W36320  39.635  12.372   2.761
63896W        W36321  14.131  24.952  11.527
63897W        W36322  25.170  12.333  10.635
63898W        W36323  41.449  37.584   1.314
63899W        W36324  33.630  36.894  14.219
63900W        W36325  14.804  19.436   1.849
63901W        W36326  14.653   7.233  11.898
63902W        W36327  29.173  44.464   3.646
63903W        W36328  10.784  34.031  11.921
63904W        W36329   8.681  44.974  12.092
63905W        W36330  19.002  41.986  11.552
63906W        W36331  38.089   4.837  10.435
63907W        W36332  17.127   5.635   0.717
63908W        W36333  30.928  28.465  11.519
63909W        W36334  14.623  14.750  10.744
63910W        W36335  38.971   8.918  10.158
63911W        W36336   2.625   5.220  11.495
63912W        W36337  31.383  24.219  11.109
63913W        W36338  33.335  34.539   3.830
63914W        W36339  25.527  28.333  14.880
63915W        W36340  10.055  31.554   5.031
63916W        W36341   8.731   8.624   0.518
63917W        W36342  19.804  29.422  13.240
63918W        W36343  30.872  28.451   4.876
63919W        W36344   6.254  16.015  11.126
63920W        W36345  27.544  13.630  12.473
63921W        W36346  21.630  29.597  12.527
63922W        W36347  11.882  29.426   0.100
63923W        W36348  29.037  12.716   4.667
63924W        W36349  18.705   2.919   2.761
63925W        W36350  43.324   0.302   3.793
63926W        W36351  31.171   9.383   3.151
63927W        W36352  35.895  30.855   3.279
63928W        W36353  32.437  13.136  12.523
63929W        W36354  43.373   9.617   1.870
63930W        W36355  17.091  22.523   4.161
63931W        W36356  25.454  23.820  14.489
63932W        W36357   8.178   3.863   0.655
63933W        W36358  38.294  33.369  10.690
63934W        W36359  17.599  31.309   2.675
63935W        W36360  39.906  39.443   3.280
63936W        W36361  35.020  27.231   3.592
63937W        W36362  17.663  17.867  10.925
63938W        W36363  35.371  33.259  12.756
63939W        W36364  31.677  35.303  14.350
63940W        W36365  21.920   9.634  12.043
63941W        W36366   8.024  22.412  12.895
63942W        W36367   4.981  22.523   4.160
63943W        W36368  29.080   1.393  12.088
63944W        W36369  16.567  14.416  11.690
63945W        W36370   4.135  15.651   0.029
63946W        W36371  13.107  19.562   1.443
63947W        W36372   6.802  13.300  11.201
63948W        W36373  15.802  30.498   2.404
63949W        W36374  39.319  32.759   1.419
63950W        W36375  27.180  24.522  13.988
63951W        W36376  23.508  29.062  12.942
63952W        W36377   0.737   7.452  13.318
63953W        W36378  31.645  10.295  11.639
63954W        W36379  17.058  29.796   3.181
63955W        W36380  29.200  43.813  11.003
63956W        W36381  27.389  14.606   4.865
63957W        W36382  32.089   7.924   3.638
63958W        W36383  17.362  38.397  13.431
63959W        W36384  31.878  33.019   3.276
63960W        W36385  15.056  42.405   1.192
63961W        W36386  39.867  19.733  13.886
63962W        W36387  36.596  12.170   3.106
63963W        W36388   4.423  26.639  10.796
63964W        W36389   1.876  37.733  10.466
63965W        W36390   2.690  43.827   0.951
63966W        W36391  24.193  41.377  14.078
63967W        W36392   5.344   8.649  13.390
63968W        W36393  14.306  11.399   3.182
63969W        W36394  17.744  20.019  14.536
63970W        W36395  10.925  28.224   1.060
63971W        W36396   2.419  27.255   2.054
63972W        W36397  27.611  15.022  11.640
63973W        W36398   2.795  29.602  11.965
63974W        W36399  33.078   1.232  12.575
63975W        W36400  21.045  37.281   2.222
63976W        W36401  17.132  37.887  12.128
63977W        W36402  35.815  33.912  11.858
63978W        W36403  13.806  12.606  12.288
63979W        W36404  23.869  11.893  10.831
63980W        W36405  40.438  32.426  11.547
63981W        W36406  41.647  13.235   3.508
63982W        W36407  29.454  34.625  11.083
63983W        W36408  11.117  32.583  11.518
63984W        W36409  11.721  38.629   3.205
63985W        W36410  32.664  36.469   2.189
63986W        W36411  16.783   4.372   1.684
63987W        W36412  25.252  31.618   1.406
63988W        W36413  18.197  37.085   2.235
63989W        W36414  21.440  37.063   2.471
63990W        W36415  27.904  23.735   0.134
63991W        W36416  34.956   3.971  12.818
63992W        W36417  18.167   7.833  10.698
63993W        W36418  34.052  10.559  11.663
63994W        W36419  29.854  10.456  14.515
63995W        W36420  14.461  27.899   4.378
63996W        W36421  10.775  18.489   4.159
63997W        W36422   4.187  22.962   0.886
63998W        W36423  44.449  14.573   1.436
63999W        W36424  39.093  37.999  11.629
64000W        W36425  15.714   8.959   1.781
64001W        W36426   3.775  13.094   0.435
64002W        W36427  27.358  13.692   2.387
64003W        W36428  43.957  39.431   2.162
64004W        W36429  15.288  42.927  12.490
64005W        W36430  38.804   2.227  10.552
64006W        W36431  43.470   3.251  12.504
64007W        W36432  23.024  30.598  13.140
64008W        W36433  25.887  28.918   1.285
64009W        W36434  37.851  39.854   4.575
64010W        W36435  29.444   6.751   3.484
64011W        W36436  35.620   6.288   4.844
64012W        W36437  12.906  11.054   0.947
64013W        W36438  38.376  28.194  12.564
64014W        W36439  43.968  41.409   4.592
64015W        W36440  24.154  19.320  14.550
64016W        W36441  23.040  15.848  12.041
64017W        W36442  25.504  31.655  14.058
64018W        W36443  29.086  14.715   0.777
64019W        W36444  21.155  24.723   0.916
64020W        W36445  37.586   7.870  13.949
64021W        W36446   7.505  41.449   2.785
64022W        W36447  34.043  37.775  13.287
64023W        W36448  17.145  27.536  13.873
64024W        W36449   2.001  25.974  13.819
64025W        W36450  20.905  17.269  12.532
64026W        W36451  32.295  21.332  12.923
64027W        W36452  35.992   9.339  14.379
64028W        W36453  16.514  28.847  11.574
64029W        W36454  15.848   7.338  14.498
64030W        W36455  40.329  27.747   2.792
64031W        W36456   5.780  31.708   0.897
64032W        W36457  37.841  40.359   2.386
64033W        W36458  24.034  22.582  13.567
64034W        W36459   5.769  21.173  11.712
64035W        W36460  35.835   0.390   0.879
64036W        W36461  29.542  19.609  14.370
64037W        W36462   7.325  19.479  11.844
64038W        W36463  26.122  11.756  10.885
64039W        W36464  21.194  15.648   1.318
64040W        W36465  13.430  32.109   4.945
64041W        W36466  41.809  43.054  12.078
64042W        W36467  37.026   3.332   3.158
64043W        W36468  34.144   1.842   3.259
64044W        W36469  16.089  40.520   1.662
64045W        W36470  31.930  17.552   4.165
64046W        W36471  22.739  38.237  14.768
64047W        W36472  12.407  14.965  11.143
64048W        W36473  23.964  17.584  11.616
64049W        W36474  11.771  13.708   1.183
64050W        W36475  33.381  36.051   3.332
64051W        W36476  34.836   7.964  12.361
64052W        W36477  37.938  17.631   2.081
64053W        W36478  11.228   5.950  10.184
64054W        W36479   4.239  28.360  13.382
64055W        W36480  18.693  37.952   1.013
64056W        W36481  32.428   2.972   3.825
64057W        W36482  32.924  37.851  14.883
64058W        W36483   3.385  34.345  12.953
64059W        W36484  13.167  29.701   2.720
64060W        W36485  15.542   5.481   0.771
64061W        W36486  31.508   3.214  14.485
64062W        W36487  31.744  29.998   0.985
64063W        W36488  20.149  28.545   4.983
64064W        W36489  37.393   3.412  14.340
64065W        W36490  39.014  12.064  10.498
64066W        W36491  44.841   3.348   0.815
64067W        W36492  14.278  33.341   3.829
64068W        W36493  37.616  38.827  10.650
64069W        W36494  22.502  40.499   3.167
64070W        W36495  16.234  32.808   1.236
64071W        W36496  42.237  23.325   3.339
64072W        W36497  40.057  11.680  11.433
64073W        W36498  26.731  29.429  14.485
64074W        W36499  25.143  33.487  12.902
64075W        W36500   6.995  11.146  14.943
64076W        W36501  36.031  18.790  14.700
64077W        W36502  43.844  43.909   0.415
64078W        W36503  26.698   5.017  11.406
64079W        W36504  11.285  13.393   2.330
64080W        W36505  18.227  15.837  13.446
64081W        W36506  39.389   4.147   0.819
64082W        W36507  10.698   6.907  10.334
64083W        W36508  29.951  31.092   4.311
64084W        W36509  13.090  34.178  14.498
64085W        W36510  19.548  23.785   4.578
64086W        W36511   4.789  20.018   3.103
64087W        W36512  43.024  31.072  14.471
64088W        W36513   4.185  27.074   2.591
64089W        W36514  17.747  17.392   1.369
64090W        W36515  29.496  27.750  11.561
64091W        W36516  27.462  37.439   1.934
64092W        W36517   7.669   6.247   0.172
64093W        W36518  35.381  19.534   1.277
64094W        W36519  28.361   7.445   0.887
64095W        W36520  20.595   6.324   4.868
64096W        W36521  18.729  40.262   1.883
64097W        W36522  42.941  17.736  13.514
64098W        W36523  26.832  35.886   5.041
64099W        W36524  17.198   4.199  13.811
64100W        W36525  29.108  22.136   4.311
64101W        W36526  42.037   3.004   1.122
64102W        W36527  16.596  42.184  13.098
64103W        W36528  31.336   0.456  11.099
64104W        W36529  43.455  31.890  12.444
64105W        W36530  39.918  43.235   4.328
64106W        W36531  23.296  30.859   1.597
64107W        W36532   9.127   5.366  12.538
64108W        W36533  23.106  32.878   1.344
64109W        W36534  41.381  11.377   3.302
64110W        W36535   0.426  40.109   3.228
64111W        W36536   3.137  37.525   0.422
64112W        W36537  27.993  11.608   0.580
64113W        W36538  13.687   2.408   0.862
64114W        W36539  24.425   8.407   1.860
64115W        W36540  28.501  43.767  11.465
64116W        W36541  14.889   1.526  12.842
64117W        W36542  18.209   1.758  14.915
64118W        W36543  20.627  36.603   3.350
64119W        W36544   3.747   3.065  11.164
64120W        W36545  27.298  44.927   4.652
64121W        W36546  28.684   5.431   3.602
64122W        W36547  39.683  41.360  11.153
64123W        W36548  18.919  10.222   3.834
64124W        W36549  23.191   7.260  11.240
64125W        W36550  18.343  40.376  10.455
64126W        W36551   3.755  35.526   2.231
64127W        W36552  29.335  13.715  10.859
64128W        W36553  26.071   8.579  14.871
64129W        W36554  18.994  14.919   0.745
64130W        W36555  12.315  32.044  14.898
64131W        W36556   6.747  24.727   1.496
64132W        W36557  13.304  26.566   4.571
64133W        W36558  36.812  41.382   3.350
64134W        W36559   3.317   9.896   3.634
64135W        W36560  41.906  15.150   4.618
64136W        W36561  21.805  18.639  14.503
64137W        W36562  18.016  32.069   3.744
64138W        W36563  41.036  32.814   2.869
64139W        W36564  44.437  29.403   2.705
64140W        W36565  22.045  37.882  13.829
64141W        W36566  41.451   6.743  14.264
64142W        W36567  29.558  44.217  13.007
64143W        W36568  20.668  33.054  13.348
64144W        W36569  43.358  38.297  12.610
64145W        W36570  16.206  32.872   2.213
64146W        W36571   3.708  18.222   3.596
64147W        W36572   5.579  17.262   0.249
64148W        W36573  23.724  33.907   4.639
64149W        W36574  30.003   4.384  14.491
64150W        W36575  42.005  31.540   3.605
64151W        W36576  11.865  21.117   0.845
64152W        W36577  19.209  23.224   2.852
64153W        W36578   0.368  12.104  13.939
64154W        W36579  26.027  36.985  10.729
64155W        W36580  12.076  32.973  14.699
64156W        W36581  13.944  11.048  10.578
64157W        W36582   9.860  14.306  12.320
64158W        W36583  11.879  16.660  11.496
64159W        W36584  36.630  13.149   3.648
64160W        W36585  13.515  38.373   0.261
64161W        W36586  39.294   0.813  12.396
64162W        W36587  21.222  40.079   4.450
64163W        W36588  35.805  19.214  13.349
64164W        W36589  25.935  13.955  11.553
64165W        W36590  33.167  42.798   1.702
64166W        W36591  37.295   7.791   4.034
64167W        W36592  37.860  44.322  11.739
64168W        W36593   0.245  14.911   1.715
64169W        W36594  33.545  39.680   1.030
64170W        W36595   3.829  29.210  14.324
64171W        W36596  17.293   7.324   5.168
64172W        W36597  41.430  41.943   4.063
64173W        W36598  26.708  24.808  11.659
64174W        W36599  16.319   2.768  14.895
64175W        W36600  22.063   2.668   4.613
64176W        W36601  28.916  34.155   1.415
64177W        W36602  21.257   9.696   0.139
64178W        W36603   0.902  10.530   2.364
64179W        W36604   3.336  23.253  11.381
64180W        W36605  34.157  12.315   1.018
64181W        W36606  17.302  42.247   1.045
64182W        W36607  32.932  25.100   4.632
64183W        W36608  11.812  34.820  14.790
64184W        W36609  20.334  18.034   2.758
64185W        W36610  30.650   8.292   4.139
64186W        W36611   5.112   3.168  12.127
64187W        W36612  36.918  33.211  13.443
64188W        W36613  39.062  10.778   3.725
64189W        W36614  29.886  32.974   1.142
64190W        W36615  25.078  19.672  14.770
64191W        W36616  22.550   4.090   0.315
64192W        W36617  32.326   2.503   1.742
64193W        W36618  38.139  27.616   1.680
64194W        W36619   4.375  32.261  14.271
64195W        W36620  34.494  17.717  13.927
64196W        W36621   8.889  13.588   2.746
64197W        W36622  23.525  43.875  13.560
64198W        W36623   6.518  39.805   3.865
64199W        W36624  37.361  13.655   0.757
64200W        W36625  27.908  15.391   1.787
64201W        W36626  24.742   7.860   3.174
64202W        W36627   1.232  24.129   1.312
64203W        W36628  19.313  13.311  12.889
64204W        W36629  12.805   9.652   4.647
64205W        W36630  18.556  41.881  13.690
64206W        W36631  13.271  38.369   4.684
64207W        W36632   2.740  43.939   0.442
64208W        W36633  44.824   9.814  13.274
64209W        W36634  28.623  30.669  13.007
64210W        W36635  42.047   1.969  12.527
64211W        W36636  37.959   5.662  11.901
64212W        W36637   9.720  25.915  11.233
64213W        W36638  23.085  27.767  13.966
64214W        W36639  21.211  13.537   4.720
64215W        W36640  26.691  28.608  12.472
64216W        W36641   2.462  22.499   3.130
64217W        W36642   3.247  13.593   0.789
64218W        W36643  22.122  40.845  12.255
64219W        W36644   5.187  12.912   4.648
64220W        W36645  42.316  22.641  13.557
64221W        W36646  44.266  33.452  12.137
64222W        W36647  42.512  16.762  10.552
64223W        W36648  43.434   5.857   2.349
64224W        W36649  22.196   3.352  10.281
64225W        W36650  33.035  36.958   4.512
64226W        W36651  16.120  34.337   3.713
64227W        W36652  35.857  41.257  14.551
64228W        W36653  27.707  29.716   4.646
64229W        W36654  22.987  36.979  13.889
64230W        W36655  33.857  44.330  10.783
64231W        W36656  35.924   4.986  14.343
64232W        W36657  28.391   5.305  13.345
64233W        W36658  17.823  21.704   4.168
64234W        W36659  39.688  31.350   0.338
64235W        W36660  33.551  39.484   0.548
64236W        W36661  44.544  24.232   5.008
64237W        W36662  32.216   5.903  11.170
64238W        W36663   4.666  38.432   3.897
64239W        W36664  35.558  33.929   0.798
64240W        W36665  43.629  31.084  11.218
64241W        W36666  36.427  14.708   1.189
64242W        W36667  20.500  20.626  13.104
64243W        W36668  20.206  15.537  13.860
64244W        W36669  30.025  35.007  10.774
64245W        W36670  11.888  17.766  13.109
64246W        W36671  11.434  41.061  10.915
64247W        W36672  33.103  36.555   2.459
64248W        W36673   3.217  36.937   4.594
64249W        W36674  12.593   6.253   1.887
64250W        W36675  41.046  17.921   2.756
64251W        W36676  44.370  18.760   1.356
64252W        W36677  37.357  29.278  13.605
64253W        W36678  28.587   3.788  14.745
64254W        W36679  32.895  35.640   2.214
64255W        W36680   5.202  17.540   4.743
64256W        W36681   8.431  10.998   4.065
64257W        W36682  19.069  26.490  10.529
64258W        W36683  40.014  41.938   9.677
64259W        W36684  14.189  41.086  10.714
64260W        W36685   7.782  42.036  11.653
64261W        W36686  44.322  30.398   0.281
64262W        W36687  32.135  15.201  10.377
64263W        W36688  23.012  14.554   1.416
64264W        W36689  34.609   0.422  13.300
64265W        W36690  21.511  10.309  12.873
64266W        W36691  20.251  25.052   0.402
64267W        W36692  26.029   5.645  14.354
64268W        W36693  28.011  39.461   2.718
64269W        W36694  29.947  42.326   0.979
64270W        W36695  38.035  17.106   4.696
64271W        W36696  31.523  31.417   0.898
64272W        W36697  24.556  27.150   4.080
64273W        W36698  12.751  13.553   2.786
64274W        W36699  10.271   3.385  10.571
64275W        W36700  31.586  27.933  11.454
64276W        W36701  37.630  43.191  10.445
64277W        W36702  40.495  24.094  14.454
64278W        W36703  27.387   5.447  14.590
64279W        W36704  24.585   5.844   1.339
64280W        W36705  31.116  17.140  14.161
64281W        W36706  25.775   8.940   3.425
64282W        W36707  43.763  28.023   3.494
64283W        W36708  37.898  19.533   1.759
64284W        W36709  37.407   8.852  13.623
64285W        W36710  33.935  28.067   1.709
64286W        W36711   2.721  44.279  12.984
64287W        W36712  40.761  22.250  12.980
64288W        W36713  36.803   9.959  12.101
64289W        W36714  25.047   0.693  11.941
64290W        W36715   7.449  22.732  14.382
64291W        W36716  28.598  17.285   4.704
64292W        W36717  23.782  11.618  14.998
64293W        W36718  21.928   4.644  13.718
64294W        W36719  34.966  25.938  11.019
64295W        W36720  11.868  26.875  11.647
64296W        W36721  20.200  30.883   0.760
64297W        W36722   4.945  16.131   3.579
64298W        W36723  39.214  40.342  14.695
64299W        W36724  38.609  44.813  10.688
64300W        W36725  26.179  13.881  12.014
64301W        W36726  31.335  41.012  13.522
64302W        W36727  37.294  16.677   0.970
64303W        W36728  30.850  18.671  12.470
64304W        W36729  11.718  18.669   3.730
64305W        W36730   1.491  32.416  12.430
64306W        W36731  31.476   7.730   1.494
64307W        W36732   9.057   2.162   2.379
64308W        W36733   5.104   4.931   2.854
64309W        W36734   3.939  43.177   2.318
64310W        W36735  19.593  23.689  13.061
64311W        W36736  24.889   3.622  13.033
64312W        W36737   5.237  42.876   4.513
64313W        W36738  28.856  15.839  11.549
64314W        W36739  15.981  25.095   4.908
64315W        W36740  30.588   9.285  11.965
64316W        W36741   5.732   0.085  11.583
64317W        W36742  24.955   5.383  10.544
64318W        W36743  44.992  12.985   3.456
64319W        W36744  28.138  39.953  12.076
64320W        W36745  22.245  14.249   4.187
64321W        W36746  38.434  39.605  13.326
64322W        W36747  43.001  32.314  14.954
64323W        W36748  25.025  35.459  13.031
64324W        W36749  10.971   4.260   4.702
64325W        W36750  28.102  43.372   0.305
64326W        W36751  40.484   2.287   0.022
64327W        W36752   9.272  41.825   0.472
64328W        W36753   7.220  27.493  10.789
64329W        W36754  41.794  13.335  14.663
64330W        W36755  27.413  34.181   1.171
64331W        W36756  36.504   7.374  13.892
64332W        W36757  21.124  19.135   3.766
64333W        W36758  39.553  28.234  11.454
64334W        W36759  21.534  27.183   1.205
64335W        W36760  19.220  32.424   5.074
64336W        W36761  34.078  35.487  14.786
64337W        W36762  38.532  29.459   3.139
64338W        W36763  25.611   6.203   2.598
64339W        W36764   9.324   4.790  10.363
64340W        W36765  33.585  43.245  14.335
64341W        W36766   3.639  27.197   1.448
64342W        W36767   9.379  23.473   1.997
64343W        W36768   5.475  14.176   0.900
64344W        W36769   9.783   1.088   2.498
64345W        W36770  14.065  18.328  11.173
64346W        W36771  10.885  12.166  10.667
64347W        W36772  19.651  36.065   1.750
64348W        W36773  32.484  38.840  12.886
64349W        W36774  20.055  30.449  13.753
64350W        W36775   8.412  33.585  10.230
64351W        W36776  12.396   8.720  13.969
64352W        W36777   5.837  31.470   2.833
64353W        W36778  40.815  20.758  12.024
64354W        W36779  22.477  28.855   1.459
64355W        W36780  28.948  29.443  13.408
64356W        W36781  17.097  43.339  13.348
64357W        W36782  29.402   4.344   3.330
64358W        W36783  12.343  14.457   1.222
64359W        W36784   4.176  22.607  11.616
64360W        W36785   1.911  23.767   5.024
64361W        W36786   7.729  13.711  13.582
64362W        W36787  36.090  24.968  12.960
64363W        W36788  12.364   1.194  12.103
64364W        W36789  41.811  33.007  10.676
64365W        W36790  24.204  34.815  13.005
64366W        W36791  11.853   2.347  12.383
64367W        W36792  39.956  23.290  12.485
64368W        W36793  31.948  41.340   1.800
64369W        W36794  27.626  36.349   4.449
64370W        W36795  23.760  31.538   2.881
64371W        W36796  26.647  11.281   1.774
64372W        W36797  28.453  16.211  10.527
64373W        W36798  43.026  26.905   1.924
64374W        W36799   8.681  23.276  14.385
64375W        W36800  18.714  39.558   2.777
64376W        W36801  38.928  30.955   4.218
64377W        W36802  20.560  38.426   4.615
64378W        W36803  42.876  15.683   1.915
64379W        W36804   5.861  31.132   4.671
64380W        W36805  10.742   7.247  12.569
64381W        W36806   8.551  40.203   3.133
64382W        W36807   6.383  44.459   2.772
64383W        W36808  21.679  12.652   1.393
64384W        W36809  43.250  28.896  13.433
64385W        W36810  12.281   7.800  11.995
64386W        W36811   7.679   2.248  13.487
64387W        W36812  29.689  23.972  10.238
64388W        W36813  43.495   0.926  10.766
64389W        W36814  41.432   4.900  14.396
64390W        W36815  15.232   3.481   2.337
64391W        W36816  44.891  19.187   2.180
64392W        W36817  41.973  33.127   3.518
64393W        W36818  18.523  15.376   3.148
64394W        W36819  19.565  13.053  10.611
64395W        W36820  10.181  43.814   0.888
64396W        W36821  28.440   1.017   0.631
64397W        W36822  28.582  19.011  12.009
64398W        W36823  32.966  28.490   2.348
64399W        W36824  38.815   1.630   3.677
64400W        W36825  39.372  34.140  12.076
64401W        W36826  12.733  43.531  10.958
64402W        W36827   0.839  39.651   3.798
64403W        W36828  44.944  43.054  13.868
64404W        W36829  23.973   2.836  12.997
64405W        W36830  32.412   0.919   0.858
64406W        W36831  12.428  15.603  10.105
64407W        W36832  37.239   8.886   0.073
64408W        W36833   3.870  30.880   3.848
64409W        W36834  34.543  41.275  12.123
64410W        W36835  19.427  30.485  10.924
64411W        W36836   8.653  12.328   2.321
64412W        W36837  16.531  40.779   3.169
64413W        W36838  32.508  22.263  10.903
64414W        W36839   0.254  42.501   4.079
64415W        W36840   4.208  19.851   4.535
64416W        W36841  26.504  15.266   4.166
64417W        W36842  15.682  42.473  14.914
64418W        W36843  18.688   0.952   0.742
64419W        W36844  28.530  16.304  13.964
64420W        W36845  44.312  40.819   2.176
64421W        W36846  36.775   3.849   1.839
64422W        W36847  16.685  38.512   1.928
64423W        W36848   8.701  18.529   1.582
64424W        W36849  36.992  43.659   0.840
64425W        W36850  39.363  14.204  10.674
64426W        W36851  44.787  18.042  10.651
64427W        W36852  32.398  44.831  13.786
64428W        W36853   4.497   9.736   4.855
64429W        W36854  14.221  34.568   1.085
64430W        W36855  17.726  22.619  14.974
64431W        W36856  12.249  41.644   1.362
64432W        W36857  13.204  24.164  11.093
64433W        W36858   2.871  31.509  11.122
64434W        W36859  24.657   6.104   4.857
64435W        W36860  12.018  22.367   4.258
64436W        W36861  43.417  42.809   2.718
64437W        W36862  38.564   1.988  14.897
64438W        W36863  32.653  28.651   0.049
64439W        W36864  44.327  32.588  12.530
64440W        W36865  33.488  42.433   1.993
64441W        W36866  33.006  38.369   1.470
64442W        W36867  37.219  37.272   2.920
64443W        W36868  40.887  38.516   4.051
64444W        W36869  27.125  24.644  12.224
64445W        W36870  14.149  38.909   2.284
64446W        W36871  32.487  14.297   4.168
64447W        W36872  28.520  13.440   4.822
64448W        W36873  31.110  35.792  14.840
64449W        W36874   7.210  14.520  11.640
64450W        W36875  23.799   8.731  14.735
64451W        W36876  10.116  24.422   3.287
64452W        W36877  12.605  37.641   1.845
64453W        W36878  34.511  28.520   0.465
64454W        W36879  42.995   1.665   4.318
64455W        W36880  18.644   4.035   0.850
64456W        W36881  29.461   0.427   0.737
64457W        W36882  27.928   4.435  13.398
64458W        W36883  11.397  10.162   0.377
64459W        W36884   0.309  40.605   3.298
64460W        W36885  43.279  19.958   2.743
64461W        W36886  31.005  21.302   0.372
64462W        W36887   5.661  19.529  14.899
64463W        W36888  13.569  16.886  11.113
64464W        W36889  14.230  32.082   0.475
64465W        W36890  27.732  33.582   5.340
64466W        W36891  38.785  30.138  13.950
64467W        W36892  42.050  42.021   2.875
64468W        W36893  11.351  32.514   0.152
64469W        W36894  26.701  18.811  14.368
64470W        W36895  22.628   7.832  14.339
64471W        W36896  17.568  15.021   0.875
64472W        W36897  41.170   4.701  11.040
64473W        W36898  26.211   3.276   3.552
64474W        W36899  26.630   0.454  11.154
64475W        W36900  42.548  40.471   3.309
64476W        W36901  31.389  41.188   5.337
64477W        W36902  33.966   6.859   4.476
64478W        W36903  30.972   2.617  12.774
64479W        W36904   4.456  27.581   3.663
64480W        W36905  29.603  29.307  11.261
64481W        W36906  34.905  34.488  14.309
64482W        W36907  43.059  35.867  14.137
64483W        W36908  12.349  42.919   4.694
64484W        W36909   8.144  22.825   4.129
64485W        W36910  21.671  31.005   3.084
64486W        W36911  28.483  38.626  11.044
64487W        W36912  23.574  38.924   3.850
64488W        W36913  24.542  32.683  12.395
64489W        W36914  42.036  24.145   3.731
64490W        W36915   9.695  31.516   0.237
64491W        W36916  44.351  39.304   2.998
64492W        W36917  42.431   7.589  12.005
64493W        W36918  11.761  27.581  10.601
64494W        W36919  27.000  14.746   4.544
64495W        W36920  11.799   1.506   1.457
64496W        W36921   9.301  40.424   4.494
64497W        W36922  30.364  15.843  12.651
64498W        W36923  22.179  15.779   1.643
64499W        W36924  39.910   4.325   3.823
64500W        W36925  12.398   2.846   3.350
64501W        W36926  29.494  15.616  12.540
64502W        W36927  29.642   8.787  14.045
64503W        W36928  28.674  10.378   0.340
64504W        W36929  17.130  26.749   1.600
64505W        W36930  44.988  26.623   4.324
64506W        W36931  23.939   1.217  12.550
64507W        W36932  17.871  38.481  13.425
64508W        W36933  36.361   8.429  14.904
64509W        W36934  38.402  29.919  11.726
64510W        W36935  31.571  23.700  11.638
64511W        W36936  26.976  28.747   4.650
64512W        W36937  41.509   3.477   2.845
64513W        W36938   4.357  36.848  13.587
64514W        W36939  32.916  33.691   2.311
64515W        W36940  29.987  10.459  12.021
64516W        W36941  35.852   4.273   2.952
64517W        W36942  39.467  44.773   0.331
64518W        W36943   8.014  15.424  13.022
64519W        W36944  29.453  10.383   4.205
64520W        W36945  35.828  21.007   4.469
64521W        W36946  30.559   9.271  11.440
64522W        W36947   6.453   0.603  13.252
64523W        W36948   2.080  17.146  11.684
64524W        W36949  24.512  30.803  13.377
64525W        W36950  18.689  33.509  11.461
64526W        W36951  16.171  34.324   1.081
64527W        W36952  18.601  36.242  13.942
64528W        W36953  24.121  44.759   2.040
64529W        W36954  35.907  17.042   1.872
64530W        W36955  40.363   1.683  10.647
64531W        W36956   7.324  15.122   1.414
64532W        W36957   9.330  34.972  12.291
64533W        W36958  29.122   2.447  12.534
64534W        W36959   3.345  21.493  10.630
64535W        W36960  36.076  12.697   2.381
64536W        W36961  20.271  36.153   2.244
64537W        W36962  23.992   0.699  12.539
64538W        W36963  32.588  16.995   2.362
64539W        W36964  42.944  16.763  13.529
64540W        W36965  32.505   3.235  10.661
64541W        W36966  27.978  44.764  12.539
64542W        W36967   0.883  19.572  11.507
64543W        W36968  25.059   5.911   4.261
64544W        W36969  27.841  12.679  10.645
64545W        W36970   0.899  37.957   0.922
64546W        W36971  38.046  35.588  10.479
64547W        W36972   5.753  18.023   3.362
64548W        W36973  40.523   4.386   2.165
64549W        W36974  14.632  15.204  13.003
64550W        W36975  10.328  41.564   3.857
64551W        W36976   6.495  32.403   3.312
64552W        W36977  38.958  24.230   1.677
64553W        W36978  16.489   2.871  11.860
64554W        W36979  13.727  20.761  11.707
64555W        W36980  15.587  29.951  13.380
64556W        W36981  33.297   2.990   3.198
64557W        W36982   2.191   7.453  12.487
64558W        W36983  40.755   7.594   1.739
64559W        W36984  25.412  12.846   1.366
64560W        W36985   0.264  35.849  12.002
64561W        W36986   7.222  42.771  10.395
64562W        W36987  40.414  23.753   3.849
64563W        W36988  14.307  36.871  14.836
64564W        W36989  14.254   9.500  13.793
64565W        W36990  38.580  15.146  11.112
64566W        W36991  24.068  32.433   1.547
64567W        W36992  19.909  32.423  10.767
64568W        W36993  30.105  36.854  13.319
64569W        W36994  36.590  11.397   4.321
64570W        W36995   0.373  23.871  11.982
64571W        W36996   2.708   8.331  11.182
64572W        W36997  40.061  34.035  13.112
64573W        W36998   0.308  34.801  13.770
64574W        W36999  38.316  20.818   2.062
64575W        W37000  25.512  42.283  13.444
64576W        W37001  21.198   5.147   0.674
64577W        W37002   2.419  17.277   2.898
64578W        W37003  13.945  25.088   3.423
64579W        W37004  43.952  12.937  12.107
64580W        W37005  28.475  27.647  13.502
64581W        W37006  31.875   3.493  14.812
64582W        W37007  39.899   2.461  13.266
64583W        W37008   7.306   3.774  14.511
64584W        W37009  20.503  20.058  13.441
64585W        W37010  29.566   1.275   2.303
64586W        W37011  44.041   0.056  13.821
64587W        W37012  34.780  11.494   0.988
64588W        W37013  33.365   2.997  11.513
64589W        W37014   4.829  21.791   0.240
64590W        W37015  31.428  31.886  14.978
64591W        W37016  29.575  25.567  14.399
64592W        W37017   2.748   3.274   3.875
64593W        W37018  26.146  21.663   2.252
64594W        W37019   4.130  18.519  11.102
64595W        W37020   2.190   7.610   4.258
64596W        W37021  17.907  37.447   2.648
64597W        W37022  40.921  30.937  13.795
64598W        W37023  16.126   3.297  14.040
64599W        W37024  42.770  21.243   0.460
64600W        W37025   8.521   0.846  10.917
64601W        W37026   2.010  37.842   3.269
64602W        W37027  15.698  17.758  14.016
64603W        W37028  27.582   4.684  14.930
64604W        W37029  25.499  27.499   1.227
64605W        W37030  14.538   2.776   4.296
64606W        W37031  21.709   7.136   3.724
64607W        W37032  38.509  25.403   4.160
64608W        W37033  26.665  33.445   5.165
64609W        W37034  22.085  16.325  12.554
64610W        W37035   5.106  23.684   3.452
64611W        W37036  26.720  35.467  14.850
64612W        W37037  23.189  35.203   0.877
64613W        W37038  42.755   3.385   2.228
64614W        W37039  39.965  12.100  11.084
64615W        W37040  11.112   7.462   2.810
64616W        W37041   3.029  16.818  10.627
64617W        W37042  13.153  43.358   4.564
64618W        W37043  21.598  10.830  10.286
64619W        W37044  40.806  37.456  11.254
64620W        W37045  44.882  44.032   2.725
64621W        W37046  23.826  19.704  13.352
64622W        W37047  41.652  21.046   2.328
64623W        W37048  13.806  41.780   0.735
64624W        W37049  18.082  36.024  14.956
64625W        W37050  18.355  34.448  12.767
64626W        W37051  13.885   2.875   0.723
64627W        W37052  33.836  16.621  11.229
64628W        W37053  16.826  38.912   0.689
64629W        W37054  35.986  42.215  13.029
64630W        W37055   6.794  15.636  14.566
64631W        W37056  23.299  21.306  13.810
64632W        W37057   0.491  25.393  12.199
64633W        W37058  38.646  43.832   3.828
64634W        W37059  17.602  32.662  13.414
64635W        W37060  41.054   1.808   2.183
64636W        W37061  21.539  22.101  13.528
64637W        W37062  32.583  17.781  14.364
64638W        W37063  30.874  27.887   0.886
64639W        W37064  13.162  17.021  12.486
64640W        W37065   0.413  33.042   0.753
64641W        W37066  28.937  28.606  14.304
64642W        W37067  44.980  31.240  11.801
64643W        W37068  28.582  29.529  11.950
64644W        W37069  24.001  22.562   2.925
64645W        W37070  31.482  42.501  10.996
64646W        W37071   2.019  44.330  14.569
64647W        W37072  32.891  28.797  12.947
64648W        W37073  19.238   7.486  13.941
64649W        W37074   2.998  37.132   3.304
64650W        W37075   1.801  22.439  14.833
64651W        W37076  33.333  41.414  12.139
64652W        W37077   0.839  18.041   2.230
64653W        W37078  34.629  33.002  12.055
64654W        W37079  39.515  39.364   2.216
64655W        W37080  22.040  22.711  10.629
64656W        W37081   2.422  13.073  12.696
64657W        W37082  44.370  15.386   0.741
64658W        W37083  24.985  38.576  14.982
64659W        W37084   4.177   8.665   2.861
64660W        W37085  23.994  27.878  11.153
64661W        W37086  38.968  21.200  10.097
64662W        W37087  17.553   6.938  14.895
64663W        W37088  16.650  36.330   4.252
64664W        W37089   8.309  29.011  14.679
64665W        W37090  17.665  28.917   4.352
64666W        W37091  26.722  36.880   0.375
64667W        W37092  44.073  32.984   4.276
64668W        W37093  32.314  24.634  14.521
64669W        W37094  44.690  16.864   4.047
64670W        W37095  27.881  10.366  14.371
64671W        W37096  27.524  34.227   2.986
64672W        W37097  37.569  44.600   1.380
64673W        W37098   1.016   2.112   0.504
64674W        W37099  38.589  37.506   0.351
64675W        W37100   6.787  11.595   2.186
64676W        W37101  19.143  23.186  11.277
64677W        W37102   3.745   3.781   4.602
64678W        W37103  28.113  22.782  12.462
64679W        W37104  38.899  18.483  11.383
64680W        W37105   9.277  38.789   0.485
64681W        W37106  35.592  27.196   3.792
64682W        W37107  12.239   6.429  11.000
64683W        W37108  25.533  22.217  13.527
64684W        W37109  11.430  30.107   3.155
64685W        W37110  12.892  13.074  14.767
64686W        W37111  11.949   0.787   2.086
64687W        W37112  13.611  41.443  12.375
64688W        W37113  25.898  29.642  11.130
64689W        W37114  14.821   3.057  11.036
64690W        W37115  43.999  19.256   4.175
64691W        W37116  25.073  16.150  13.550
64692W        W37117  42.325  39.445  14.639
64693W        W37118  44.852  36.552  14.051
64694W        W37119  12.241  34.451  12.876
64695W        W37120  28.493  37.848  12.481
64696W        W37121   6.226  12.999  12.102
64697W        W37122  22.474  39.416  12.933
64698W        W37123  28.939  30.864  13.399
64699W        W37124  30.909   4.428  11.543
64700W        W37125   9.277  34.440   4.431
64701W        W37126  17.392   0.838   4.049
64702W        W37127   5.788  22.764   2.625
64703W        W37128  21.573  14.624   2.867
64704W        W37129   2.005  32.004   0.426
64705W        W37130  17.350  44.848   1.935
64706W        W37131  34.305  29.373   3.570
64707W        W37132   3.257   2.241   0.362
64708W        W37133  28.508  34.083   1.824
64709W        W37134  23.984  36.402   1.437
64710W        W37135  14.395  28.214   0.892
64711W        W37136   3.221  10.705  14.780
64712W        W37137  40.530   2.525  14.539
64713W        W37138  29.032   1.973   0.226
64714W        W37139  11.552  29.361   1.817
64715W        W37140  34.407  31.623  14.331
64716W        W37141  21.074  34.914   3.739
64717W        W37142  43.619   3.202  11.986
64718W        W37143  28.691   8.602   1.552
64719W        W37144  34.645  22.820  10.296
64720W        W37145  22.504  33.632   1.331
64721W        W37146  42.823   3.676   1.237
64722W        W37147   5.423  11.233   3.181
64723W        W37148  23.038  10.014   1.980
64724W        W37149   6.792  30.671  12.581
64725W        W37150  40.028  28.005   0.373
64726W        W37151  41.178  16.510  12.492
64727W        W37152   6.677  33.310   3.210
64728W        W37153  23.686  11.117   4.400
64729W        W37154  33.492  14.239  11.702
64730W        W37155  14.183  36.951  11.666
64731W        W37156  33.564  29.190  11.509
64732W        W37157   9.444  15.771  10.604
64733W        W37158  30.151  31.274  11.384
64734W        W37159  33.614  15.749  11.184
64735W        W37160  18.198  24.611  14.911
64736W        W37161  39.993  11.648  12.338
64737W        W37162   9.664  15.786  11.107
64738W        W37163  20.163  21.275  11.078
64739W        W37164  42.895  17.204  12.788
64740W        W37165  30.370  16.587   3.518
64741W        W37166  39.949  24.808  11.908
64742W        W37167  40.319  41.881  13.745
64743W        W37168   9.545  23.666  11.948
64744W        W37169   3.827  41.150  10.743
64745W        W37170  37.365  10.590   1.758
64746W        W37171  28.436   4.280  12.496
64747W        W37172   0.820   2.443  14.533
64748W        W37173  17.910  14.196   2.409
64749W        W37174  19.708   7.697  13.813
64750W        W37175   2.009  19.630  13.410
64751W        W37176   6.312  15.214   1.241
64752W        W37177  15.565  25.915   3.300
64753W        W37178  19.726  28.590   2.783
64754W        W37179  19.711  28.640  13.830
64755W        W37180  38.422  36.292  12.008
64756W        W37181  36.306  25.630  12.064
64757W        W37182  18.806  22.800   2.812
64758W        W37183  23.987  23.141  12.808
64759W        W37184  37.807   7.812   3.897
64760W        W37185  41.898  31.080   4.646
64761W        W37186  27.095  43.352  12.003
64762W        W37187  38.688  25.645   0.545
64763W        W37188  29.413   2.884  11.399
64764W        W37189  22.743  32.186  12.951
64765W        W37190   6.666  20.951  10.513
64766W        W37191  37.175  35.761  12.456
64767W        W37192  10.052  30.364   1.397
64768W        W37193  29.059  44.376  11.179
64769W        W37194  41.727  21.871   1.754
64770W        W37195  27.018   9.676  11.396
64771W        W37196  37.167  42.738  11.496
64772W        W37197   2.728  30.048   0.527
64773W        W37198  36.875  22.396   1.609
64774W        W37199  42.974   3.937  12.548
64775W        W37200  36.472  38.217   4.720
64776W        W37201  28.537  15.146   2.590
64777W        W37202  22.402  36.568   0.941
64778W        W37203  27.054   7.332   3.362
64779W        W37204   9.324  16.136  14.470
64780W        W37205  30.653   4.922  11.623
64781W        W37206   2.285  27.901  12.146
64782W        W37207  19.109  44.534  10.682
64783W        W37208   9.808  19.808  12.340
64784W        W37209  37.292  17.105   4.140
64785W        W37210  32.974  37.890  11.279
64786W        W37211  11.748   0.336   4.300
64787W        W37212  32.989  28.243  10.679
64788W        W37213  41.386   0.438   4.422
64789W        W37214   8.927   3.643  12.390
64790W        W37215   7.431  25.723   4.401
64791W        W37216   5.135   6.272   3.263
64792W        W37217  40.298   0.458  11.047
64793W        W37218  44.476  43.002   2.218
64794W        W37219  17.267  34.122   4.361
64795W        W37220  44.929  24.550  11.894
64796W        W37221   8.817  41.588  12.052
64797W        W37222  24.329  19.668  13.196
64798W        W37223   4.812  40.285   0.771
64799W        W37224  12.461  12.979  12.016
64800W        W37225  35.563  25.025   4.138
64801W        W37226  34.784  17.499   2.406
64802W        W37227  26.657  27.383  13.294
64803W        W37228  14.300   3.232   4.126
64804W        W37229  40.947  28.754   2.341
64805W        W37230  26.587  44.225  12.475
64806W        W37231  24.742  35.021  11.172
64807W        W37232   6.420   6.748  12.397
64808W        W37233  14.188  36.025  11.724
64809W        W37234   7.142  40.093  14.393
64810W        W37235  13.593  21.817  10.649
64811W        W37236  42.192  33.672   0.995
64812W        W37237  21.028  25.949  11.260
64813W        W37238   8.627  20.630   2.733
64814W        W37239  27.973  34.621  13.596
64815W        W37240  17.228  38.336  14.964
64816W        W37241  21.664  39.133  12.060
64817W        W37242   2.119  22.489   0.705
64818W        W37243   8.448  17.129  13.304
64819W        W37244   3.342  11.123  13.058
64820W        W37245  31.898  44.534   3.274
64821W        W37246  30.136  29.285  12.143
64822W        W37247  10.734   9.936  12.197
64823W        W37248  29.349  40.409  13.433
64824W        W37249  36.556  29.794   3.465
64825W        W37250  22.249  34.025  14.379
64826W        W37251  40.033  43.882   1.137
64827W        W37252  17.297   4.474   2.486
64828W        W37253  22.747  19.967  11.237
64829W        W37254  26.806   1.892   3.747
64830W        W37255  26.430  15.885   3.315
64831W        W37256   1.985  40.601  11.047
64832W        W37257  29.843  32.532   1.860
64833W        W37258  33.381  33.823   4.617
64834W        W37259   2.777  12.171  10.834
64835W        W37260  19.612  38.315   1.213
64836W        W37261  39.378  29.014   0.926
64837W        W37262   7.350  25.219   4.356
64838W        W37263  28.547  30.549   0.458
64839W        W37264  33.767  41.148   3.835
64840W        W37265  42.786  29.456  14.095
64841W        W37266   1.665  44.870   4.337
64842W        W37267  43.740  43.714   2.467
64843W        W37268  20.289  31.299   9.888
64844W        W37269  29.390  18.564  12.083
64845W        W37270  33.173  34.892  11.818
64846W        W37271  21.038   0.849  14.459
64847W        W37272  30.957  32.210  13.375
64848W        W37273  32.302  33.512   2.915
64849W        W37274  43.679   9.273   4.548
64850W        W37275  44.697   3.977  12.461
64851W        W37276  40.047   3.134   3.928
64852W        W37277   5.342  30.967  11.671
64853W        W37278   8.053  37.840  12.366
64854W        W37279  20.643   2.865   3.813
64855W        W37280  32.575  13.625   3.711
64856W        W37281  22.312  40.302  12.322
64857W        W37282  34.872  21.755   0.191
64858W        W37283  32.908   9.401  13.284
64859W        W37284   1.724   6.281  11.630
64860W        W37285   0.488   1.613   2.608
64861W        W37286  19.725  44.526  11.574
64862W        W37287  13.697   8.377   2.373
64863W        W37288  24.747  20.280   3.673
64864W        W37289  31.428  30.929   3.834
64865W        W37290  13.379  21.677   0.477
64866W        W37291  31.139   6.791  10.367
64867W        W37292  31.976  18.749   3.687
64868W        W37293   7.595  38.080  12.444
64869W        W37294  28.149   6.464   1.896
64870W        W37295  24.024  41.819   3.709
64871W        W37296  35.382  30.182   3.093
64872W        W37297  33.638  13.198  11.600
64873W        W37298  27.908   3.473   3.380
64874W        W37299  40.884   4.902  12.649
64875W        W37300  30.085  33.188   4.961
64876W        W37301  34.962  40.751   3.157
64877W        W37302  32.115  36.801  12.075
64878W        W37303  11.739  37.915  13.349
64879W        W37304  15.415   9.705  10.919
64880W        W37305  22.304  10.707  11.172
64881W        W37306  33.998   4.016   0.341
64882W        W37307   3.858  14.657  11.176
64883W        W37308   3.204  25.064   0.720
64884W        W37309  15.058  41.806   3.843
64885W        W37310  13.386  34.108   3.686
64886W        W37311  31.198  42.349   2.910
64887W        W37312   7.237  11.868  12.088
64888W        W37313  26.425   5.356  11.664
64889W        W37314  17.881   8.250   2.779
64890W        W37315  14.515  36.191  13.353
64891W        W37316  17.038  13.260   1.711
64892W        W37317  25.147  38.878   2.292
64893W        W37318  17.609  30.601   3.203
64894W        W37319  15.937  35.911   3.825
64895W        W37320  12.825  34.011  14.910
64896W        W37321  29.145  37.408   3.790
64897W        W37322   1.681  13.616  11.910
64898W        W37323  42.053  27.040   0.915
64899W        W37324  33.354   9.328   1.103
64900W        W37325  17.897   5.651  12.945
64901W        W37326  29.406  22.736  10.701
64902W        W37327  40.065  30.511  11.549
64903W        W37328  11.275  27.529   1.771
64904W        W37329  13.599   2.661   4.563
64905W        W37330  40.330  15.441   2.669
64906W        W37331  12.027  11.857   2.727
64907W        W37332  16.708   7.110   2.211
64908W        W37333  15.215  29.702   1.254
64909W        W37334  31.436  17.064   4.665
64910W        W37335  35.446   8.893   4.469
64911W        W37336  36.593  13.686  13.541
64912W        W37337  43.764  42.535  11.559
64913W        W37338  20.989  26.071   3.835
64914W        W37339  31.118   7.771  14.163
64915W        W37340  33.094   8.378   4.907
64916W        W37341  29.872  17.040  13.644
64917W        W37342  25.707  16.212  13.027
64918W        W37343  39.772  44.390  12.987
64919W        W37344  33.433   8.615  11.541
64920W        W37345  13.680  26.972   0.340
64921W        W37346  27.704  20.280   1.855
64922W        W37347  39.551  44.089   4.422
64923W        W37348  31.373  16.267   1.804
64924W        W37349  15.663   9.658  11.601
64925W        W37350  39.593   0.881   0.870
64926W        W37351  40.317  37.435  11.072
64927W        W37352  20.241   2.711   1.440
64928W        W37353  13.256  43.504  12.645
64929W        W37354  39.379  31.043   3.076
64930W        W37355  12.664  11.742  14.390
64931W        W37356  19.063   4.357  11.146
64932W        W37357  12.323   5.165   3.673
64933W        W37358  32.077  40.738  14.022
64934W        W37359  20.178  34.816   3.387
64935W        W37360   8.540  43.005   2.750
64936W        W37361  17.546  20.165  11.719
64937W        W37362  15.201  30.224   3.633
64938W        W37363  38.454   3.235   2.611
64939W        W37364  13.522  27.965  14.097
64940W        W37365   2.316  13.530  14.103
64941W        W37366  26.689  12.193  12.643
64942W        W37367  39.055  37.783   0.402
64943W        W37368  18.772  15.623   4.988
64944W        W37369  30.510   3.218  12.136
64945W        W37370  24.998  30.569  10.650
64946W        W37371   3.602  37.424  14.482
64947W        W37372  37.512  21.614   1.273
64948W        W37373  36.119  41.303   3.955
64949W        W37374   9.407  12.365   2.662
64950W        W37375  44.990  40.925   0.400
64951W        W37376  26.878  37.121   4.660
64952W        W37377   9.772   8.242   1.910
64953W        W37378   5.783   1.450   4.080
64954W        W37379  27.052  22.160  11.768
64955W        W37380   8.275   7.747   5.072
64956W        W37381  32.403  15.729  10.635
64957W        W37382  34.834  28.443  12.871
64958W        W37383   5.581   0.990  11.213
64959W        W37384   8.725  40.344   3.610
64960W        W37385   9.038  10.142   2.561
64961W        W37386   1.389   9.339   0.323
64962W        W37387  31.190   5.088  14.014
64963W        W37388  12.768  22.050  14.368
64964W        W37389   0.059   5.272  12.986
64965W        W37390  12.844  14.637   1.237
64966W        W37391  14.114  29.141  13.590
64967W        W37392  40.341  34.550   4.824
64968W        W37393   5.797   2.294  14.070
64969W        W37394  14.293  27.465  12.930
64970W        W37395   8.661   6.968   1.382
64971W        W37396  29.498  29.512  10.355
64972W        W37397   1.430  24.945  13.987
64973W        W37398  40.259  23.179  13.509
64974W        W37399   4.599  12.671   3.277
64975W        W37400   0.139  11.717   4.676
64976W        W37401  23.694   2.938   1.282
64977W        W37402   9.202  11.794  12.576
64978W        W37403   5.843  38.959   0.132
64979W        W37404  33.546  29.022  11.023
64980W        W37405  25.083  10.857  12.178
64981W        W37406  11.897  26.413   1.270
64982W        W37407  25.770  26.891  12.925
64983W        W37408   3.527   8.850  11.097
64984W        W37409   7.731   5.182  13.112
64985W        W37410  16.703  24.554  14.306
64986W        W37411  31.161  39.975  11.527
64987W        W37412  35.951  16.862   2.748
64988W        W37413   2.018  17.805  14.849
64989W        W37414  29.513  17.090   3.067
64990W        W37415  24.255   5.441   1.305
64991W        W37416  44.551  26.241  10.952
64992W        W37417   7.251  40.493   3.662
64993W        W37418   7.831  16.245   3.077
64994W        W37419  10.764  41.366   0.267
64995W        W37420  39.451   4.418  14.890
64996W        W37421  24.184  14.795  11.188
64997W        W37422  27.655  26.963  13.076
64998W        W37423  23.986  16.175   4.816
64999W        W37424  32.386  39.099  12.017
65000W        W37425  17.145  44.412  14.263
65001W        W37426  38.006   7.442   0.726
65002W        W37427   5.181  23.607   1.397
65003W        W37428  31.071   6.508  13.839
65004W        W37429  39.512  20.280  11.313
65005W        W37430   2.001   6.738   0.426
65006W        W37431   2.242   1.682  11.553
65007W        W37432  35.628  43.276   2.776
65008W        W37433  31.060  32.161   3.592
65009W        W37434   2.382  23.480   2.316
65010W        W37435  19.122   5.459   4.192
65011W        W37436  10.687   5.265   3.519
65012W        W37437   5.951  26.290  11.185
65013W        W37438   3.232   5.836   2.794
65014W        W37439  41.039  33.031   1.959
65015W        W37440  12.744  17.964  11.439
65016W        W37441  37.624   9.628   1.801
65017W        W37442  31.024  21.622   2.813
65018W        W37443  16.356  43.947   3.530
65019W        W37444   9.667  43.044  11.603
65020W        W37445  37.942  21.101   1.846
65021W        W37446  41.626   8.880   4.851
65022W        W37447   2.045  15.705   2.369
65023W        W37448  39.210  36.076   3.219
65024W        W37449  38.355  34.946  14.547
65025W        W37450   1.992  16.268  14.819
65026W        W37451   2.084  11.242   0.480
65027W        W37452  30.615   5.477   1.233
65028W        W37453   7.350  20.682   3.322
65029W        W37454  34.709  21.212   0.876
65030W        W37455  35.481   7.411  10.698
65031W        W37456   5.193  13.172   3.733
65032W        W37457   5.454  33.471   4.173
65033W        W37458  34.562  16.272   4.679
65034W        W37459  42.098  22.370  10.708
65035W        W37460  41.823  33.873  12.048
65036W        W37461   2.945  22.834   0.424
65037W        W37462  31.490  36.645  10.573
65038W        W37463   8.936  44.439  10.977
65039W        W37464  19.664   1.486  10.995
65040W        W37465   2.387  36.382  14.861
65041W        W37466   2.719   2.327  13.863
65042W        W37467  30.375  33.286  12.219
65043W        W37468  10.557  27.705  12.984
65044W        W37469  21.645  30.859  13.762
65045W        W37470   1.622  41.093  13.114
65046W        W37471  30.622  22.457  12.442
65047W        W37472   7.025  30.575  13.751
65048W        W37473  14.422   7.229  13.273
65049W        W37474  11.730  31.200   0.154
65050W        W37475  31.690  16.123   4.616
65051W        W37476  41.298  21.697  11.582
65052W        W37477  28.067  20.292  10.719
65053W        W37478  12.252  11.826  13.164
65054W        W37479  25.337   8.922  11.657
65055W        W37480  26.006  13.040   3.206
65056W        W37481  23.713  38.373  12.513
65057W        W37482  34.123  10.517   3.786
65058W        W37483  38.373  14.351  14.345
65059W        W37484  17.143   6.273  14.563
65060W        W37485  25.756   1.315   3.341
65061W        W37486  28.075  16.581  12.443
65062W        W37487  29.984  12.763   1.254
65063W        W37488  25.059  22.645  13.816
65064W        W37489  13.375  31.609  13.747
65065W        W37490  10.162  38.278   4.217
65066W        W37491  22.261  26.118   0.740
65067W        W37492  40.570  10.955  10.359
65068W        W37493  21.063  35.890   1.892
65069W        W37494  36.303  40.367  13.096
65070W        W37495  37.640   0.727  14.702
65071W        W37496  20.765  26.012   1.042
65072W        W37497  13.129  13.717  12.151
65073W        W37498  21.693  18.045  13.812
65074W        W37499  16.271  36.880   0.907
65075W        W37500   2.950  29.351   1.298
65076W        W37501  37.499  40.920   1.151
65077W        W37502  24.953  20.504  11.553
65078W        W37503  43.550  44.438  10.582
65079W        W37504   8.340  25.934   2.834
65080W        W37505  10.239  31.399   4.112
65081W        W37506  24.578  22.672   4.005
65082W        W37507   9.794  26.120  13.083
65083W        W37508  42.379  36.053  14.406
65084W        W37509  41.136  20.296   2.617
65085W        W37510  18.610  17.819   0.302
65086W        W37511  29.024  31.007  13.904
65087W        W37512   0.268   4.235  10.982
65088W        W37513  21.455  14.607   0.895
65089W        W37514   9.063   5.823   3.309
65090W        W37515   3.035  30.365  12.567
65091W        W37516  21.794   7.406  11.403
65092W        W37517  33.574  31.818  12.527
65093W        W37518  13.338  10.277   0.723
65094W        W37519   0.276   5.877   0.239
65095W        W37520  26.359  36.089   1.815
65096W        W37521  28.296  12.323  14.964
65097W        W37522  27.495  13.742   4.738
65098W        W37523  43.288   8.866   3.666
65099W        W37524  32.580   2.275  14.816
65100W        W37525   6.124  31.770  13.980
65101W        W37526  29.419  44.285   4.104
65102W        W37527   8.631  42.839  13.416
65103W        W37528  24.891  39.321  12.517
65104W        W37529  42.168  18.155   3.182
65105W        W37530  12.634  19.591   1.750
65106W        W37531   9.068  19.523  14.104
65107W        W37532  41.363  20.605   2.272
65108W        W37533  29.808   4.502   2.085
65109W        W37534  22.574  29.909   3.606
65110W        W37535  43.419  25.908   0.774
65111W        W37536  35.489   3.395  10.403
65112W        W37537  31.639  27.945   1.349
65113W        W37538  37.385  27.968   1.245
65114W        W37539  19.213  33.337  12.380
65115W        W37540  39.099  25.988   4.298
65116W        W37541  16.545   0.821   3.316
65117W        W37542  27.630  21.630   1.814
65118W        W37543   8.731  17.775  12.062
65119W        W37544  13.773  36.574   0.259
65120W        W37545  31.958  34.129   4.803
65121W        W37546  42.354  38.106   0.375
65122W        W37547  27.462  36.031   0.919
65123W        W37548  18.374  22.615  12.110
65124W        W37549   2.222   9.154  13.905
65125W        W37550   6.705  41.554  14.459
65126W        W37551   3.272  29.986  12.074
65127W        W37552  35.005   0.537   0.243
65128W        W37553  44.843  42.967  11.989
65129W        W37554   0.395  40.785   1.298
65130W        W37555   6.656  22.701  11.522
65131W        W37556   4.177  25.570  14.846
65132W        W37557  15.815  38.129  11.423
65133W        W37558  18.265  27.467   2.771
65134W        W37559  14.448   3.871   1.849
65135W        W37560  12.181  18.347  14.018
65136W        W37561  35.078   8.406  12.490
65137W        W37562   7.700  36.810   4.123
65138W        W37563  29.837  12.030   1.934
65139W        W37564  28.060   9.666   3.184
65140W        W37565   5.969  20.827  13.613
65141W        W37566  18.082  38.074   2.189
65142W        W37567  19.019  34.595   3.647
65143W        W37568   1.681  20.534  13.396
65144W        W37569  19.596  17.733   0.613
65145W        W37570  17.712  42.357   4.684
65146W        W37571   7.416  18.383   1.381
65147W        W37572  42.643   3.358   5.136
65148W        W37573   8.389   6.839   3.957
65149W        W37574  27.262  11.231  11.450
65150W        W37575  43.553  24.881   4.563
65151W        W37576   0.748  42.400  13.869
65152W        W37577  12.069  14.115  14.406
65153W        W37578  39.866  10.611  14.099
65154W        W37579  17.791  40.000   4.193
65155W        W37580   9.454  11.223   1.462
65156W        W37581   8.932   9.302   3.085
65157W        W37582  11.283  29.098  14.430
65158W        W37583  17.478  44.340   3.188
65159W        W37584  26.514  21.242  12.473
65160W        W37585  35.418   8.156  13.957
65161W        W37586   7.983  26.993   4.612
65162W        W37587  19.048  13.648   3.038
65163W        W37588  28.629  25.664  11.829
65164W        W37589  30.737  22.282  13.493
65165W        W37590  43.357  26.467   1.918
65166W        W37591  41.398  33.893   1.430
65167W        W37592  14.102  32.876   3.659
65168W        W37593  37.317  16.655  14.495
65169W        W37594   6.661  41.025  14.480
65170W        W37595  16.524  13.354  14.222
65171W        W37596  17.715  26.063  11.443
65172W        W37597  35.876  12.308  14.992
65173W        W37598  25.582  24.698   4.732
65174W        W37599   4.343   7.973   0.315
65175W        W37600  18.597  16.802   3.729
65176W        W37601  43.741  21.037  14.709
65177W        W37602  17.388   8.891   3.267
65178W        W37603  35.487   0.772   0.935
65179W        W37604  11.533   6.834  14.405
65180W        W37605  17.224  25.214  14.481
65181W        W37606  14.179  36.958   1.004
65182W        W37607  35.189  35.451   0.858
65183W        W37608   3.915  36.254  10.985
65184W        W37609  34.690  29.052   0.287
65185W        W37610  36.928   8.927   4.184
65186W        W37611  25.136  34.499  11.853
65187W        W37612  22.475  18.739   0.156
65188W        W37613   3.243  21.767  14.816
65189W        W37614  15.751  39.463   1.413
65190W        W37615  30.365  18.654   5.074
65191W        W37616  20.412  44.020   1.832
65192W        W37617  35.166  12.765   1.537
65193W        W37618  31.969  24.125  13.496
65194W        W37619  38.592  16.569  13.984
65195W        W37620  34.225   4.883  14.945
65196W        W37621   3.505  29.574  13.334
65197W        W37622  21.209  29.486   3.077
65198W        W37623  11.623  34.954   5.292
65199W        W37624  12.560  43.073  14.311
65200W        W37625   1.736   9.251  14.962
65201W        W37626  35.839  15.189  13.953
65202W        W37627  13.807   0.688   2.149
65203W        W37628  11.441  31.911   4.271
65204W        W37629  14.163  17.083   0.780
65205W        W37630  12.915  28.460  11.901
65206W        W37631  23.174  34.868   2.290
65207W        W37632  14.861  34.779  14.200
65208W        W37633  43.365  15.111   3.673
65209W        W37634  39.329  32.505  12.621
65210W        W37635   4.404   0.364   2.648
65211W        W37636  13.831   8.273  12.489
65212W        W37637  36.836  11.649  12.557
65213W        W37638  16.618   2.090   3.770
65214W        W37639  34.324  19.673   3.128
65215W        W37640   6.083   2.507   5.007
65216W        W37641  15.677  31.352   0.645
65217W        W37642  29.033   8.795   3.639
65218W        W37643  27.533  20.005   1.438
65219W        W37644  15.182  17.746  13.918
65220W        W37645  26.019  31.060   3.183
65221W        W37646  23.618  26.485   4.761
65222W        W37647  39.282  32.327   3.233
65223W        W37648  18.259  37.381  14.850
65224W        W37649  32.309  32.958  13.119
65225W        W37650  28.633  14.301  12.113
65226W        W37651   8.117  38.528  11.083
65227W        W37652   9.692   1.508   2.201
65228W        W37653  28.872   5.233  12.400
65229W        W37654  20.670   8.246   4.725
65230W        W37655  43.412  32.512   1.414
65231W        W37656  42.838  41.413  10.690
65232W        W37657  16.300   6.600  11.166
65233W        W37658  12.743   0.767   0.860
65234W        W37659  27.161  23.818   1.876
65235W        W37660  12.721  25.993  11.082
65236W        W37661  25.482  17.586  12.482
65237W        W37662  27.645  40.527   2.328
65238W        W37663  41.127  32.518   4.067
65239W        W37664  30.442   0.679  13.466
65240W        W37665  38.736  37.073   4.157
65241W        W37666  30.057  38.138  14.693
65242W        W37667  31.901  11.204  13.891
65243W        W37668  39.686   9.282  14.160
65244W        W37669   5.226  36.427  13.519
65245W        W37670  36.877  32.587   2.316
65246W        W37671  14.473  15.096  12.055
65247W        W37672  24.641   9.773   5.361
65248W        W37673  16.559  11.551   2.102
65249W        W37674   3.857  15.206   4.927
65250W        W37675  21.121  27.196   3.694
65251W        W37676  32.660  37.441  10.741
65252W        W37677  12.748  11.420   0.486
65253W        W37678   9.002  13.702   1.885
65254W        W37679   1.692   2.724   1.816
65255W        W37680  22.904  27.699  10.622
65256W        W37681  33.654  43.913   4.231
65257W        W37682   8.577  22.149   2.335
65258W        W37683  24.094  36.108  10.733
65259W        W37684   6.640  19.416   1.306
65260W        W37685  38.459  39.499   0.881
65261W        W37686  29.224   7.723   3.562
65262W        W37687  32.868  22.440   2.571
65263W        W37688  41.577  43.806  13.089
65264W        W37689   9.858  39.834  12.575
65265W        W37690  13.683   3.974  10.794
65266W        W37691  21.023  10.816   3.264
65267W        W37692  20.313  30.690   1.307
65268W        W37693  26.573  22.839  12.819
65269W        W37694   7.573  19.596   3.606
65270W        W37695  34.009  16.434   9.610
65271W        W37696  28.926  27.534  10.438
65272W        W37697  38.044  18.859  12.079
65273W        W37698   4.928  11.904  11.917
65274W        W37699  38.582  13.665   4.212
65275W        W37700  13.738  31.972  13.546
65276W        W37701  26.013  40.415   0.621
65277W        W37702  26.257  14.757  14.878
65278W        W37703  42.304  31.912   1.356
65279W        W37704  41.397  40.497   2.197
65280W        W37705  31.399  21.804  14.930
65281W        W37706  11.930  41.898   4.477
65282W        W37707  31.040  11.532  14.305
65283W        W37708  28.589   1.339   2.249
65284W        W37709  24.916  11.779  12.176
65285W        W37710  34.806  15.231   2.358
65286W        W37711  35.037  14.828   2.643
65287W        W37712  17.312  20.888  13.100
65288W        W37713  25.740  43.348  11.788
65289W        W37714  35.576  28.172  14.765
65290W        W37715  31.594  42.942  10.207
65291W        W37716  17.602   2.379  10.121
65292W        W37717  32.707   6.606   1.838
65293W        W37718   5.690   0.101  10.724
65294W        W37719  43.830  15.889   0.384
65295W        W37720   5.800  30.923  13.902
65296W        W37721  25.250  28.418   4.117
65297W        W37722  29.158  35.706  13.639
65298W        W37723  12.311  40.851  14.419
65299W        W37724  15.064  43.799  13.822
65300W        W37725  34.866   7.469  11.467
65301W        W37726   7.732  16.237  12.111
65302W        W37727  14.324   5.629  14.484
65303W        W37728  13.717  36.280  10.598
65304W        W37729  20.521  44.148  12.684
65305W        W37730  16.759  10.943   1.355
65306W        W37731  27.963   0.790   0.755
65307W        W37732  18.176  32.408  13.011
65308W        W37733   9.208  42.918   1.309
65309W        W37734  42.043  29.643   4.672
65310W        W37735  13.287  19.331  10.740
65311W        W37736  36.022  40.862  13.122
65312W        W37737  24.187  34.144   4.512
65313W        W37738   9.168   4.520  11.519
65314W        W37739  37.203  28.945  14.764
65315W        W37740   0.298  31.890   0.729
65316W        W37741  31.365  15.835  13.125
65317W        W37742  12.683  25.125   0.954
65318W        W37743  42.089   4.440  13.494
65319W        W37744  21.483   7.467  14.981
65320W        W37745  36.853  15.563   1.280
65321W        W37746  29.607  12.867   1.943
65322W        W37747  34.023  14.349  10.970
65323W        W37748  37.871  26.691   2.698
65324W        W37749   1.934  40.898  11.456
65325W        W37750  23.093   4.685   4.195
65326W        W37751   1.599  15.355  11.161
65327W        W37752   7.522  34.358  10.009
65328W        W37753   5.142   4.993  12.405
65329W        W37754  32.653  17.764  11.026
65330W        W37755   2.823  12.115   0.846
65331W        W37756  34.402  29.718  14.743
65332W        W37757  29.321  34.895  13.042
65333W        W37758   1.547   4.878   3.175
65334W        W37759   3.493  36.919   3.302
65335W        W37760  13.168  10.048   1.571
65336W        W37761  37.491   6.675   0.676
65337W        W37762  33.006  24.407  12.036
65338W        W37763  35.845  43.444  13.896
65339W        W37764  21.210  38.121   1.387
65340W        W37765  28.513   6.885   2.782
65341W        W37766  36.776  28.676  13.452
65342W        W37767  33.995  20.732   4.562
65343W        W37768  40.407  23.057   3.195
65344W        W37769  14.745  22.581   2.786
65345W        W37770  14.626  15.695  11.550
65346W        W37771  24.009   3.265   4.881
65347W        W37772  26.119  11.677  12.907
65348W        W37773  17.165  34.365  10.172
65349W        W37774  40.756   7.900   2.547
65350W        W37775  15.968  10.880   1.721
65351W        W37776  21.482   9.700   0.638
65352W        W37777   7.592  38.882   3.994
65353W        W37778  32.894  40.932   4.682
65354W        W37779  29.111  17.256   4.919
65355W        W37780  28.559  42.450  10.954
65356W        W37781  41.322  21.098  12.393
65357W        W37782  44.749  28.741  10.786
65358W        W37783  31.386  44.849  11.529
65359W        W37784  22.140  19.754  14.721
65360W        W37785  44.769  26.848   5.164
65361W        W37786  38.428  39.966   1.299
65362W        W37787   7.130  15.970   4.513
65363W        W37788  21.861  11.347   2.356
65364W        W37789  29.580  21.367  12.479
65365W        W37790  39.470   5.412  11.073
65366W        W37791  28.801  27.959   3.739
65367W        W37792  19.539  13.776  13.015
65368W        W37793   2.982   2.780   1.275
65369W        W37794  23.554   2.437   4.452
65370W        W37795  18.681  42.416   1.858
65371W        W37796  44.892  28.389  14.442
65372W        W37797  43.354   7.192  11.070
65373W        W37798  11.695  28.171  11.979
65374W        W37799  20.504  44.802  14.147
65375W        W37800  20.958  18.276  13.421
65376W        W37801  42.025   2.667   1.577
65377W        W37802  28.117  41.456   3.669
65378W        W37803  32.296  18.671  10.737
65379W        W37804  37.971  33.614  13.919
65380W        W37805   9.271  43.382   3.414
65381W        W37806  43.557  40.522  14.469
65382W        W37807   0.982  35.890  11.287
65383W        W37808  38.327   0.386  11.694
65384W        W37809  33.089  18.099  11.108
65385W        W37810  27.892   7.148   3.141
65386W        W37811  10.171   8.001  12.077
65387W        W37812  27.838  18.853   9.810
65388W        W37813  14.395  10.473  14.134
65389W        W37814   3.894  41.322   2.823
65390W        W37815  36.984   8.940  12.094
65391W        W37816   8.232   7.984   4.616
65392W        W37817   8.212  18.498   4.198
65393W        W37818   6.825  43.402   1.026
65394W        W37819  42.053  42.484   0.837
65395W        W37820   4.672   6.796   1.814
65396W        W37821  15.958  43.371  12.000
65397W        W37822   7.794  20.552  14.031
65398W        W37823  12.522  22.282   2.365
65399W        W37824   9.690  35.415   5.075
65400W        W37825   7.616  40.998  14.532
65401W        W37826  30.981  12.373  12.441
65402W        W37827   6.198   5.263  14.841
65403W        W37828  32.014  26.624  10.417
65404W        W37829   1.333  21.882  11.498
65405W        W37830  40.857   0.994  12.943
65406W        W37831  22.247   8.988   0.575
65407W        W37832  44.687  37.083   4.617
65408W        W37833  30.576  13.938   0.416
65409W        W37834  37.539  37.104   4.370
65410W        W37835  20.751   2.576   1.341
65411W        W37836   7.080  14.343   1.851
65412W        W37837  23.069  29.620  13.457
65413W        W37838  37.064  17.892   1.566
65414W        W37839  20.477  31.836  11.480
65415W        W37840  25.242   9.385   1.994
65416W        W37841   8.830  42.538  10.984
65417W        W37842  16.112   0.990   0.274
65418W        W37843  36.842  30.145   2.184
65419W        W37844  37.034  37.894  10.609
65420W        W37845  42.795  10.246  13.540
65421W        W37846  43.354   2.489  10.503
65422W        W37847  43.685  19.982   4.577
65423W        W37848  13.565  16.069  12.841
65424W        W37849  22.533   1.725  13.006
65425W        W37850  43.963  25.563  10.788
65426W        W37851   4.148  35.050  13.590
65427W        W37852   1.381  39.988   1.361
65428W        W37853   7.905  38.981   3.534
65429W        W37854  17.788  42.098  13.010
65430W        W37855  21.249  17.704  14.281
65431W        W37856  30.634  27.550   1.786
65432W        W37857   1.477   9.937  12.398
65433W        W37858  33.510  25.024   1.505
65434W        W37859  27.363  35.544  14.251
65435W        W37860   7.324   0.953   0.311
65436W        W37861  12.319  40.563  10.688
65437W        W37862  43.513   3.943   3.402
65438W        W37863  17.768  31.315   3.605
65439W        W37864  18.454  32.698   1.495
65440W        W37865  24.712   0.322   4.553
65441W        W37866  33.920  39.832  14.882
65442W        W37867  24.688  24.084  14.055
65443W        W37868  25.057  18.025   0.410
65444W        W37869  28.259   6.377  11.568
65445W        W37870  28.514  39.266   0.681
65446W        W37871  35.550  44.284   0.693
65447W        W37872   0.830  40.184   2.825
65448W        W37873  30.291  30.545   2.878
65449W        W37874  27.060  23.592  14.888
65450W        W37875  39.756  34.539  11.306
65451W        W37876  26.582  17.593   1.800
65452W        W37877  25.443  31.141   1.725
65453W        W37878   0.731  42.016   3.923
65454W        W37879   8.287  43.472  10.546
65455W        W37880  15.538  32.882   3.725
65456W        W37881  32.806  43.508   4.253
65457W        W37882  11.839  16.127  11.518
65458W        W37883   9.913  38.020   3.215
65459W        W37884  10.777  24.816   1.392
65460W        W37885  29.397  22.669  11.581
65461W        W37886  17.486  34.472  12.194
65462W        W37887  28.177  24.487   2.305
65463W        W37888  17.591  26.033   1.244
65464W        W37889  34.674  33.493   0.866
65465W        W37890  22.168   8.377   3.306
65466W        W37891  33.514  15.890   0.307
65467W        W37892  34.460  16.964  12.880
65468W        W37893   3.365  35.135  12.406
65469W        W37894   6.262  32.968  11.422
65470W        W37895   9.631  12.597  11.999
65471W        W37896  41.323  14.253  14.978
65472W        W37897  28.881   4.912   3.925
65473W        W37898  30.742   0.431   3.756
65474W        W37899   8.252  36.924  12.827
65475W        W37900   6.881  10.626  11.964
65476W        W37901  32.563  36.276  12.936
65477W        W37902  18.987  42.315   2.311
65478W        W37903   3.470   1.950   3.322
65479W        W37904  37.550  11.247   4.556
65480W        W37905   0.220   7.006  11.946
65481W        W37906  32.897  37.563   3.723
65482W        W37907  31.713  40.905  12.686
65483W        W37908  42.270  43.226  13.941
65484W        W37909  18.229  19.972  10.702
65485W        W37910   9.464  43.289   0.687
65486W        W37911  17.553  26.946   4.083
65487W        W37912   1.245  10.897   2.289
65488W        W37913  22.627   2.745   1.681
65489W        W37914  42.374   8.321  13.012
65490W        W37915  36.963  22.840  10.584
65491W        W37916  26.510   9.674  13.450
65492W        W37917  16.051   8.656   1.497
65493W        W37918  29.477  12.745   4.989
65494W        W37919  14.567   8.883  10.300
65495W        W37920   2.912  26.504   2.650
65496W        W37921   6.680   9.707  12.962
65497W        W37922  29.961  16.851   4.963
65498W        W37923  21.110   4.161  14.659
65499W        W37924  10.241  18.654   0.354
65500W        W37925  18.068  23.166  10.867
65501W        W37926  11.271  24.140  10.296
65502W        W37927  25.632   4.481  10.770
65503W        W37928  10.937   1.804   1.944
65504W        W37929  34.331  44.935  13.967
65505W        W37930  24.094  20.883   5.168
65506W        W37931  14.412  23.955  13.054
65507W        W37932  25.263   5.384   2.875
65508W        W37933  15.583  42.337  11.961
65509W        W37934  39.803   6.122  13.572
65510W        W37935  42.497  16.065  11.897
65511W        W37936   1.761  29.540   3.394
65512W        W37937   2.366  27.083   0.004
65513W        W37938  17.118  16.848   1.793
65514W        W37939  44.237  12.694  10.686
65515W        W37940  27.993   3.850   2.228
65516W        W37941  11.407  33.419  14.723
65517W        W37942  13.497  23.525   2.063
65518W        W37943   7.758  36.848  12.942
65519W        W37944  41.186  18.684   0.330
65520W        W37945  14.548   7.882   4.730
65521W        W37946  36.347   0.667   4.499
65522W        W37947  22.339  37.979  11.410
65523W        W37948  11.128  40.816  12.935
65524W        W37949  28.678   3.712   3.411
65525W        W37950  21.997  21.828   4.127
65526W        W37951   8.245   1.683  11.461
65527W        W37952  37.871  12.295   2.716
65528W        W37953   5.157  27.613  10.683
65529W        W37954  39.513   0.837   2.447
65530W        W37955  20.697  12.651  13.102
65531W        W37956  26.259  22.382   4.769
65532W        W37957  40.823  39.670   2.350
65533W        W37958  15.792  40.958   1.688
65534W        W37959  32.377  21.643   0.039
65535W        W37960  28.321  38.346   4.595
65536W        W37961   4.203  21.111  13.719
65537W        W37962  40.084  13.383  11.588
65538W        W37963  15.436   7.822  12.435
65539W        W37964  17.806   1.057  12.776
65540W        W37965   2.502  16.600   3.263
65541W        W37966   6.835  13.681   3.671
65542W        W37967  17.283  29.529  14.362
65543W        W37968  44.391   5.623  11.957
65544W        W37969   5.112  16.795  12.587
65545W        W37970  24.564  32.142   1.339
65546W        W37971  25.693  29.066   4.741
65547W        W37972   5.888  36.574  13.943
65548W        W37973  18.450  36.393  14.861
65549W        W37974  15.850  31.700  13.852
65550W        W37975  17.622  41.902  13.492
65551W        W37976   9.824  16.797  14.321
65552W        W37977  40.308  20.213  12.442
65553W        W37978   6.222  28.077   4.102
65554W        W37979   4.419  20.221  14.934
65555W        W37980  35.701  26.479   4.221
65556W        W37981  33.427   9.333  13.342
65557W        W37982  14.849  43.389   3.761
65558W        W37983  39.540   6.222  14.921
65559W        W37984  15.618  14.748  11.612
65560W        W37985  12.743   6.493  13.501
65561W        W37986  13.586   8.308   1.497
65562W        W37987  24.267  27.415  11.120
65563W        W37988  15.218  44.217  12.896
65564W        W37989   3.723  21.616  14.867
65565W        W37990  37.825  16.624   2.791
65566W        W37991   7.486  33.533  14.793
65567W        W37992  42.770  36.862  14.240
65568W        W37993  30.668  39.316  11.510
65569W        W37994  43.112  26.314  11.141
65570W        W37995   5.281  16.728   4.095
65571W        W37996  25.191   1.206  14.379
65572W        W37997   0.748  13.428  11.104
65573W        W37998  23.598   3.451   1.280
65574W        W37999  35.316   8.759  14.826
65575W        W38000  22.603   0.841   1.196
65576W        W38001  38.340   9.600  13.552
65577W        W38002  28.847  35.516  11.119
65578W        W38003  26.957  28.597   2.675
65579W        W38004  36.092   6.247   3.108
65580W        W38005  40.599  13.873   2.399
65581W        W38006  27.690  31.681   4.318
65582W        W38007  11.740  20.046   9.985
65583W        W38008  40.284  17.808   3.126
65584W        W38009  38.938  40.277   3.234
65585W        W38010  26.978   7.954   1.178
65586W        W38011  41.445  14.915   2.806
65587W        W38012  29.694  20.543   2.947
65588W        W38013  37.876  25.977   4.589
65589W        W38014  36.886   7.780  14.604
65590W        W38015  43.871   7.215   3.288
65591W        W38016  34.485  18.610  11.159
65592W        W38017  14.252  21.498  12.946
65593W        W38018  15.267   0.757   3.392
65594W        W38019  26.408   8.839  12.067
65595W        W38020  23.488   3.398  11.420
65596W        W38021  44.820   3.774   3.415
65597W        W38022  12.168   2.440  14.805
65598W        W38023  35.467  16.662  13.022
65599W        W38024   3.980  29.947  11.513
65600W        W38025  21.608  37.805   2.767
65601W        W38026  43.512  19.204  10.740
65602W        W38027  19.453  11.771   3.315
65603W        W38028  22.164   6.286  11.540
65604W        W38029  39.295  40.535   0.183
65605W        W38030  18.715  31.680   3.347
65606W        W38031  18.795  22.479  12.941
65607W        W38032   7.734  35.471   3.592
65608W        W38033  14.725  43.954   0.728
65609W        W38034   2.482   3.659   1.850
65610W        W38035  43.491   4.601  12.161
65611W        W38036  27.099   0.973   2.222
65612W        W38037  18.112  16.290  13.206
65613W        W38038   7.289  44.798  13.406
65614W        W38039  12.521   7.749   3.216
65615W        W38040  35.842   8.187  14.886
65616W        W38041  43.194  28.029  12.521
65617W        W38042   9.271  16.693  10.321
65618W        W38043   6.245  33.359  12.393
65619W        W38044  41.616  38.398   1.204
65620W        W38045   6.393  21.919   4.728
65621W        W38046   8.489  43.325  11.529
65622W        W38047  31.801  32.343  12.859
65623W        W38048  42.370  15.719  13.184
65624W        W38049  17.885  28.249  14.782
65625W        W38050  38.875  10.304   0.592
65626W        W38051  24.810   7.710   2.359
65627W        W38052  10.198   8.985  13.449
65628W        W38053  22.190   0.774  14.379
65629W        W38054  22.697  26.510   0.451
65630W        W38055  14.648   6.399   2.422
65631W        W38056   2.213  22.064   3.299
65632W        W38057  36.050  40.282  12.289
65633W        W38058   1.891  22.376   1.701
65634W        W38059  31.848  25.503  14.414
65635W        W38060   2.803  23.308   4.154
65636W        W38061  37.541  32.661   0.850
65637W        W38062   9.071  41.420  12.867
65638W        W38063  20.136   0.049  15.000
65639W        W38064   5.885  24.143   4.368
65640W        W38065  19.076  10.934  13.880
65641W        W38066  10.977   3.961   1.642
65642W        W38067  27.512  10.294   3.645
65643W        W38068   6.094  15.147   4.026
65644W        W38069  19.121  12.702  14.505
65645W        W38070  32.843  38.092   3.759
65646W        W38071  34.256  15.709   1.244
65647W        W38072  33.516  43.993   0.378
65648W        W38073  21.692  15.087   2.650
65649W        W38074  34.827   4.345  14.689
65650W        W38075  44.381  37.562  14.835
65651W        W38076  29.188  22.154  11.301
65652W        W38077  34.036  21.524  11.048
65653W        W38078   6.250  16.332   0.401
65654W        W38079  25.035  33.276   5.245
65655W        W38080   4.958  28.067  13.572
65656W        W38081  23.639   9.629   4.926
65657W        W38082  28.662  44.571   3.733
65658W        W38083  33.400  27.504   3.436
65659W        W38084  30.618   6.369  13.121
65660W        W38085  25.720  36.952  13.404
65661W        W38086  25.427  12.642   3.681
65662W        W38087  19.303  37.559   3.035
65663W        W38088  42.437   2.433   1.306
65664W        W38089   5.173  16.540  14.845
65665W        W38090  38.292  30.188  13.846
65666W        W38091  20.665  22.600  12.069
65667W        W38092  27.761  23.632   2.706
65668W        W38093  40.284  44.812   2.714
65669W        W38094  33.098  15.021  12.365
65670W        W38095  19.167  41.635   4.593
65671W        W38096   7.800   6.171  14.678
65672W        W38097  30.090  39.450   1.352
65673W        W38098  29.310  26.053  14.943
65674W        W38099  41.333  15.082  14.313
65675W        W38100   1.923  23.010  11.106
65676W        W38101  38.990  13.305   2.148
65677W        W38102  20.285   0.259  12.039
65678W        W38103  40.352  22.290   4.590
65679W        W38104  38.616  26.229   2.684
65680W        W38105  17.107   2.769  10.677
65681W        W38106  14.592  40.278  11.134
65682W        W38107  22.665  10.365   4.211
65683W        W38108  30.744  24.208  12.297
65684W        W38109  27.998  20.062   1.190
65685W        W38110  25.726  37.141   0.301
65686W        W38111  35.166  39.503  12.094
65687W        W38112  19.522  38.015   2.230
65688W        W38113  29.356  26.885  11.143
65689W        W38114  12.430  42.411  14.894
65690W        W38115  31.019  11.587  10.705
65691W        W38116  21.483  10.673  10.765
65692W        W38117   5.980  43.725  14.279
65693W        W38118  22.513  10.889   3.227
65694W        W38119   1.790  34.702  14.638
65695W        W38120  20.259   3.721   4.062
65696W        W38121  22.730  35.800  11.456
65697W        W38122   7.809  35.165  12.065
65698W        W38123   3.752   6.466   0.047
65699W        W38124  36.938  10.221   3.323
65700W        W38125   8.845  15.602   0.921
65701W        W38126  24.494  37.982  12.403
65702W        W38127   0.797  10.900  14.956
65703W        W38128  18.555  25.489  12.363
65704W        W38129   4.746   0.955   3.667
65705W        W38130   6.806   9.895  10.678
65706W        W38131  24.708  11.375   4.314
65707W        W38132   2.780  16.364   4.119
65708W        W38133  14.361  21.664   0.387
65709W        W38134  15.271  14.525   3.673
65710W        W38135  36.577   7.581   5.136
65711W        W38136   7.186  15.717   2.991
65712W        W38137  43.840   6.763   0.770
65713W        W38138  22.228   5.211  11.317
65714W        W38139   5.927  38.530  14.821
65715W        W38140  37.247  20.074   4.114
65716W        W38141  19.980  10.251  11.795
65717W        W38142  14.682  40.501  11.619
65718W        W38143  31.030   5.310  11.923
65719W        W38144  41.871  14.041   2.076
65720W        W38145  31.478  42.959  13.834
65721W        W38146  11.855  37.589   4.076
65722W        W38147  42.019  36.887  11.605
65723W        W38148  27.525  18.225  10.769
65724W        W38149  35.723  31.142   1.134
65725W        W38150  36.009  21.244   2.123
65726W        W38151  22.660   5.645  10.453
65727W        W38152  28.528  26.428   2.425
65728W        W38153  10.904  39.323   1.720
65729W        W38154  17.994  15.802   1.798
65730W        W38155  15.771   9.443  13.357
65731W        W38156  33.148  40.433  14.448
65732W        W38157   5.657  12.210  13.882
65733W        W38158  22.037  31.359  13.348
65734W        W38159   0.828  15.842   2.774
65735W        W38160  14.804  17.103  13.621
65736W        W38161  27.759  35.207  14.373
65737W        W38162  26.639  17.537  14.978
65738W        W38163   1.489  19.165   1.382
65739W        W38164  18.840  33.315   0.943
65740W        W38165  19.606   4.158  12.602
65741W        W38166  44.853  23.053   2.821
65742W        W38167   7.894  34.128  11.589
65743W        W38168  36.107  14.749   0.774
65744W        W38169  35.969  27.143  12.800
65745W        W38170  21.563  17.278   4.575
65746W        W38171  15.821   7.218  11.660
65747W        W38172  36.466   5.264  12.125
65748W        W38173  39.030  34.656   3.276
65749W        W38174  25.582  10.817  12.985
65750W        W38175  13.244  37.023   2.685
65751W        W38176  39.490  25.734  11.061
65752W        W38177   9.026  14.177   0.355
65753W        W38178   0.173  26.476   2.081
65754W        W38179   4.827  39.880  14.041
65755W        W38180  31.905  36.746  12.557
65756W        W38181   5.215  41.971   1.874
65757W        W38182  11.318  43.496   2.748
65758W        W38183  19.715  43.745  14.266
65759W        W38184  15.628  32.018  10.853
65760W        W38185  33.852  14.773  13.761
65761W        W38186  23.466  27.003   4.160
65762W        W38187  29.934  32.456  11.623
65763W        W38188  21.075  29.802  13.518
65764W        W38189  17.493  15.178   3.276
65765W        W38190   3.476  36.330   0.846
65766W        W38191   1.886  26.623  10.866
65767W        W38192  40.117   2.763   1.527
65768W        W38193  35.402  40.231   4.181
65769W        W38194  34.877  21.796  13.715
65770W        W38195  12.708  16.200   4.663
65771W        W38196  24.225  21.277  13.904
65772W        W38197  26.733  41.172  10.623
65773W        W38198  42.739  32.042  12.749
65774W        W38199  33.839  12.774  11.859
65775W        W38200  15.081   0.678  13.809
65776W        W38201   8.241   8.805   4.202
65777W        W38202   0.965  27.742   0.922
65778W        W38203  17.162  38.518  13.890
65779W        W38204  16.639  31.979  10.770
65780W        W38205   9.394  42.482   3.703
65781W        W38206  42.234  31.635  11.961
65782W        W38207  25.766  13.250  13.710
65783W        W38208  16.247   4.687   4.338
65784W        W38209  29.200  11.373   0.713
65785W        W38210  23.850  24.229  10.016
65786W        W38211  44.128  31.103  11.138
65787W        W38212   7.887  32.053  11.608
65788W        W38213  36.048  15.337  10.730
65789W        W38214  39.076  28.859  10.801
65790W        W38215  26.131  33.394  13.882
65791W        W38216  24.565  18.128   3.293
65792W        W38217  37.410  34.318  11.518
65793W        W38218  28.402  16.270   2.737
65794W        W38219  26.432  29.068  10.731
65795W        W38220   5.374  27.542  14.758
65796W        W38221  32.170   1.745  11.202
65797W        W38222  20.226  27.205  11.411
65798W        W38223  32.675  24.231   2.716
65799W        W38224  38.123  23.526  13.588
65800W        W38225   8.908   4.760   3.273
65801W        W38226  12.355  39.789  11.208
65802W        W38227  30.065  10.878   0.700
65803W        W38228  44.332   0.082  11.445
65804W        W38229  14.782  11.416  14.086
65805W        W38230  17.848   7.674  12.917
65806W        W38231  44.268   2.785  13.967
65807W        W38232  39.860  13.023   3.196
65808W        W38233  26.542  16.656  14.008
65809W        W38234  33.699   1.309   0.759
65810W        W38235  32.134  13.114   1.283
65811W        W38236   0.913  28.899   5.141
65812W        W38237  27.088  19.965  13.239
65813W        W38238  10.876  31.903  13.105
65814W        W38239  43.939  28.745  14.475
65815W        W38240   7.325   3.537   4.379
65816W        W38241  25.499  26.454  12.803
65817W        W38242   9.325  10.177  12.094
65818W        W38243  36.567  38.185   2.407
65819W        W38244   8.116  32.943   2.877
65820W        W38245  22.949  24.170   4.545
65821W        W38246  24.054   3.456  11.103
65822W        W38247  15.432  31.033   1.312
65823W        W38248   3.876  20.652   1.172
65824W        W38249  28.169  38.408  14.047
65825W        W38250   2.850   7.451  11.144
65826W        W38251  43.346  11.568   3.952
65827W        W38252  17.273   7.995   2.208
65828W        W38253  39.423   5.778  13.467
65829W        W38254  21.113  41.369   4.038
65830W        W38255  15.277  18.685  14.112
65831W        W38256  24.613  35.101   1.216
65832W        W38257  25.960   7.217  14.801
65833W        W38258  38.942  41.560   0.996
65834W        W38259  43.490  19.503  11.215
65835W        W38260  23.525  33.954  10.369
65836W        W38261  26.548  34.418  12.629
65837W        W38262  14.986   9.628  11.176
65838W        W38263  37.454  28.319  12.325
65839W        W38264  22.697  15.275  12.654
65840W        W38265  44.748  33.898  12.726
65841W        W38266   1.428   6.812   3.241
65842W        W38267  36.546  16.749   4.534
65843W        W38268  43.747  28.559   4.063
65844W        W38269  25.704  37.296   3.711
65845W        W38270  32.024   6.088   1.080
65846W        W38271  15.116  36.832  14.337
65847W        W38272  21.025  37.503   0.210
65848W        W38273  30.576  21.121  14.300
65849W        W38274  25.576  31.286  10.942
65850W        W38275  10.902  27.615   4.632
65851W        W38276   3.104  20.806  11.238
65852W        W38277   8.630  16.318   2.113
65853W        W38278  44.734  32.895  12.444
65854W        W38279   1.901  34.135  13.797
65855W        W38280  26.464  15.630   1.997
65856W        W38281   4.352   6.974  13.512
65857W        W38282  12.148  12.101   4.248
65858W        W38283   0.254   5.796  14.201
65859W        W38284   8.517  21.274   2.176
65860W        W38285  38.731  41.609  14.549
65861W        W38286  24.164  14.151  12.427
65862W        W38287  12.119  18.171   4.140
65863W        W38288  32.599   7.341  13.810
65864W        W38289   0.690  30.134  12.677
65865W        W38290  15.798   8.911   4.141
65866W        W38291   7.703  26.502   3.805
65867W        W38292  13.800  16.371   4.668
65868W        W38293   6.147   0.391  10.801
65869W        W38294  18.255   9.748   0.069
65870W        W38295  39.639  23.155  12.858
65871W        W38296  26.937  31.391   1.250
65872W        W38297   9.211  33.589  13.369
65873W        W38298   9.181  20.653   4.743
65874W        W38299  10.784  27.366  14.906
65875W        W38300  18.292  32.715  11.230
65876W        W38301  19.538  38.340  14.381
65877W        W38302  34.847  18.501  12.581
65878W        W38303   3.984   5.772  10.920
65879W        W38304  34.696  16.042  13.247
65880W        W38305  33.912  15.745   2.610
65881W        W38306   8.541   0.313  11.126
65882W        W38307  24.474   9.851  14.490
65883W        W38308  14.749  24.094  11.907
65884W        W38309  12.947  20.301   2.199
65885W        W38310  19.820  34.027   4.573
65886W        W38311  19.776   6.410  12.602
65887W        W38312   0.338   9.388  14.405
65888W        W38313   5.757  23.965   0.006
65889W        W38314  20.236   8.501  14.908
65890W        W38315  15.167   0.575   2.833
65891W        W38316  40.419  22.791   4.629
65892W        W38317   7.453  21.178  14.332
65893W        W38318  16.152  28.536  11.122
65894W        W38319   7.383  42.892   2.733
65895W        W38320  16.103  14.333  13.552
65896W        W38321  14.560  37.665  11.095
65897W        W38322  30.516  11.885  13.261
65898W        W38323  36.917   0.054   3.732
65899W        W38324  16.528  36.450  12.596
65900W        W38325  41.043  28.461  14.474
65901W        W38326   9.449  33.492   0.841
65902W        W38327  44.580  24.040  11.586
65903W        W38328  15.632  19.640  13.971
65904W        W38329  36.429  42.336   3.165
65905W        W38330  33.519  22.428  12.349
65906W        W38331  10.083  37.041  12.097
65907W        W38332  11.069  44.658   0.291
65908W        W38333  33.171  18.000  10.143
65909W        W38334  12.658  25.555   3.319
65910W        W38335   2.663  25.736  14.829
65911W        W38336   6.166  14.785   0.434
65912W        W38337  13.815  21.891  10.166
65913W        W38338  23.221  26.632  11.712
65914W        W38339  33.973  10.338   3.263
65915W        W38340  38.311   4.797  13.568
65916W        W38341  41.862  22.133  11.385
65917W        W38342  32.159   5.693   0.218
65918W        W38343  12.490  22.408  14.057
65919W        W38344  18.737  39.381  11.169
65920W        W38345  11.190  38.456   1.184
65921W        W38346  27.504   3.370   0.694
65922W        W38347  28.224  12.354   3.719
65923W        W38348   8.276  12.554   1.137
65924W        W38349  35.496  42.544  13.365
65925W        W38350  44.647  27.602   4.574
65926W        W38351  30.553  16.594  12.585
65927W        W38352  16.200  28.705  11.979
65928W        W38353   9.651   3.501   3.597
65929W        W38354   4.845  15.130  12.468
65930W        W38355  10.036   1.937   3.097
65931W        W38356   0.009  13.343  10.652
65932W        W38357   8.420  25.530   1.636
65933W        W38358  34.681  25.860  10.580
65934W        W38359   6.285  38.364   3.955
65935W        W38360  19.501  24.079  11.014
65936W        W38361  22.019   3.033  14.181
65937W        W38362  29.055  32.594   3.267
65938W        W38363  16.097  22.819   3.234
65939W        W38364  19.564  12.178  12.596
65940W        W38365  17.143  22.058   4.575
65941W        W38366   9.239  29.986  13.306
65942W        W38367  20.040  41.860  11.476
65943W        W38368   5.739  10.461   2.352
65944W        W38369  36.734  26.458  13.024
65945W        W38370  23.948  14.664  14.082
65946W        W38371   3.432  36.435   4.703
65947W        W38372  14.397  34.951  14.364
65948W        W38373  21.819  34.003   1.115
65949W        W38374   4.501  44.490  12.420
65950W        W38375  10.107  34.556  12.373
65951W        W38376  31.989  20.720   4.133
65952W        W38377  11.091  26.527   3.958
65953W        W38378  32.350  22.000   4.058
65954W        W38379  29.367  23.774  13.322
65955W        W38380  14.796  10.746   3.608
65956W        W38381   3.428  41.893  10.409
65957W        W38382  19.054  24.271  11.171
65958W        W38383  32.198   2.876   4.967
65959W        W38384  12.117  16.031   3.787
65960W        W38385  42.075  28.716  14.436
65961W        W38386  21.638  43.705  13.964
65962W        W38387  12.894  19.206  12.955
65963W        W38388   2.909   9.595   3.728
65964W        W38389  13.857  17.171  14.096
65965W        W38390  31.926   1.953   0.722
65966W        W38391  19.441   1.728   4.127
65967W        W38392  15.891   2.428   1.910
65968W        W38393   2.286   5.938   0.950
65969W        W38394   3.780  23.264  11.669
65970W        W38395  17.318  34.985  14.490
65971W        W38396   2.800  35.659  11.398
65972W        W38397  20.254  37.000  12.991
65973W        W38398  32.341  36.949   3.346
65974W        W38399  31.592  27.138   1.731
65975W        W38400  25.249   3.759  14.436
65976W        W38401  19.720  16.298  13.089
65977W        W38402  41.349   4.328   1.662
65978W        W38403   1.736  18.568   4.180
65979W        W38404   6.588  26.494   4.564
65980W        W38405  12.724  16.862  13.862
65981W        W38406   0.221  14.613  14.078
65982W        W38407   4.733  31.015   1.163
65983W        W38408  14.985   1.655  10.703
65984W        W38409   5.006   1.637  13.063
65985W        W38410  34.999   5.984  12.358
65986W        W38411   7.516  34.454   1.310
65987W        W38412  37.032  25.315   0.877
65988W        W38413  30.213  22.257   0.873
65989W        W38414  28.494  12.765  13.451
65990W        W38415  11.655  20.301  11.031
65991W        W38416  20.809  10.796   1.019
65992W        W38417  33.054   1.721   2.249
65993W        W38418   0.755  41.249   4.532
65994W        W38419   5.714  20.471  12.660
65995W        W38420  29.085  16.581  11.151
65996W        W38421  44.966   1.440  12.505
65997W        W38422  25.025   0.884   3.394
65998W        W38423  28.872   8.303   0.035
65999W        W38424  31.885   4.473   1.795
66000W        W38425  19.227  25.036  10.688
66001W        W38426  41.484   4.837   0.263
66002W        W38427  17.045  28.630   1.296
66003W        W38428  43.783  25.110  12.865
66004W        W38429  35.248  27.142  11.781
66005W        W38430   8.343   4.612   1.893
66006W        W38431  40.285  29.444  11.603
66007W        W38432  35.639  14.606  14.987
66008W        W38433  22.536  19.944  13.275
66009W        W38434  20.770  25.312  13.480
66010W        W38435  23.109  33.401   2.286
66011W        W38436  26.967   3.855   4.418
66012W        W38437   6.797  13.576  13.018
66013W        W38438   3.109  36.971  13.372
66014W        W38439  43.417   8.279  14.949
66015W        W38440  13.536   4.786  11.380
66016W        W38441  30.082  30.922  14.859
66017W        W38442   8.558   6.190  14.960
66018W        W38443  31.622  21.231  13.918
66019W        W38444  23.559  20.425   3.451
66020W        W38445   9.802  44.198  14.867
66021W        W38446  44.790  35.736   4.567
66022W        W38447  42.462  33.561   3.628
66023W        W38448  29.549  18.930  12.398
66024W        W38449  43.862   0.182  11.162
66025W        W38450  16.194  28.201  12.053
66026W        W38451  42.389  17.244  14.814
66027W        W38452  26.901  20.789  11.711
66028W        W38453  43.199  15.339   3.230
66029W        W38454  17.551  37.939  12.789
66030W        W38455   0.506  16.020   4.737
66031W        W38456   3.029   6.258   1.919
66032W        W38457   1.923  41.871   0.395
66033W        W38458  38.110   8.801   0.985
66034W        W38459  15.064  40.350   2.626
66035W        W38460  19.287  19.869   1.237
66036W        W38461  31.425  36.672   2.779
66037W        W38462   4.827  30.689   0.706
66038W        W38463  42.810  19.055   3.624
66039W        W38464  42.352  36.728  10.654
66040W        W38465  35.497  43.786   4.488
66041W        W38466  21.764  40.004  12.117
66042W        W38467  22.656   1.280   1.477
66043W        W38468   4.261  13.045  13.048
66044W        W38469  37.353  22.629   1.380
66045W        W38470   8.677   7.466   1.476
66046W        W38471  20.138  20.280   3.138
66047W        W38472  19.751  20.643   4.134
66048W        W38473   7.358  35.127  11.122
66049W        W38474  32.576  19.491  14.779
66050W        W38475  17.572  26.926  10.845
66051W        W38476  23.895  22.182  12.712
66052W        W38477   7.001  43.801   1.307
66053W        W38478  35.189  30.797   4.150
66054W        W38479  27.882  29.201   2.594
66055W        W38480   9.196  35.800  12.420
66056W        W38481  29.019  43.980   1.383
66057W        W38482  38.833  23.574   3.122
66058W        W38483  10.795   9.012  10.128
66059W        W38484  27.131   4.352   4.336
66060W        W38485  36.261  43.857   5.076
66061W        W38486  37.368  35.084  12.924
66062W        W38487   4.309  12.132  14.965
66063W        W38488  19.654  41.917   2.996
66064W        W38489  34.522   5.426  14.081
66065W        W38490  12.315  32.693  14.298
66066W        W38491  14.833  28.320  12.038
66067W        W38492   7.226  27.966   2.026
66068W        W38493  18.113  10.932  12.061
66069W        W38494  31.176  44.685  12.369
66070W        W38495  32.375  27.073   1.148
66071W        W38496  24.084  15.516   4.209
66072W        W38497   6.937  12.819   1.385
66073W        W38498   8.290  37.348  14.261
66074W        W38499  23.917  18.809  13.332
66075W        W38500  27.196  38.557  13.728
66076W        W38501   2.404  43.497   4.129
66077W        W38502  26.500   3.792   4.734
66078W        W38503  44.367  43.038   4.724
66079W        W38504  32.174  24.187  12.542
66080W        W38505  44.442  30.575   1.770
66081W        W38506  17.563  26.642   4.622
66082W        W38507  44.225  16.772   1.470
66083W        W38508  17.552  10.047   2.802
66084W        W38509  11.182  43.694  12.896
66085W        W38510   4.898   5.737   0.265
66086W        W38511  31.979  22.443  14.443
66087W        W38512  21.765  31.069  12.909
66088W        W38513  40.854  15.891  10.739
66089W        W38514  33.986  30.555   3.899
66090W        W38515  16.272  19.470   5.057
66091W        W38516   4.889  29.984  11.653
66092W        W38517   9.827   1.050  11.266
66093W        W38518  34.967  27.725   3.749
66094W        W38519  22.085   4.931   1.177
66095W        W38520  41.504  41.591  12.926
66096W        W38521  13.859  24.192   3.332
66097W        W38522  40.004   5.824  12.783
66098W        W38523  29.928  15.644   1.376
66099W        W38524  19.636  36.587   1.876
66100W        W38525  33.884  35.686   2.230
66101W        W38526  28.226   8.227   4.116
66102W        W38527  36.086  42.438  14.793
66103W        W38528  32.574  14.071   3.367
66104W        W38529  18.201  37.576  12.606
66105W        W38530   8.241  30.340   0.943
66106W        W38531  12.474  15.540  13.341
66107W        W38532  25.523   4.393   0.764
66108W        W38533  36.796  27.611  11.145
66109W        W38534  13.126  32.579   3.678
66110W        W38535  25.672  15.597  14.893
66111W        W38536  28.891  27.470  13.813
66112W        W38537  26.098   1.266  13.024
66113W        W38538  25.005  18.124  14.362
66114W        W38539  31.061  17.597   4.451
66115W        W38540  26.899  44.339  13.553
66116W        W38541  33.067  25.096   3.196
66117W        W38542  38.611  16.779  12.005
66118W        W38543  11.392   3.324  10.395
66119W        W38544  14.750   3.892  11.380
66120W        W38545   3.862  22.928  13.638
66121W        W38546   4.699  18.465   2.209
66122W        W38547   2.398  19.110   2.804
66123W        W38548  35.329   8.229  14.842
66124W        W38549  26.401  31.557   3.742
66125W        W38550  27.469  35.752  10.969
66126W        W38551   1.955  13.140  13.816
66127W        W38552  37.894  23.466   3.623
66128W        W38553  26.697  25.545   4.233
66129W        W38554   4.156  37.527  10.647
66130W        W38555  44.678  14.662   3.744
66131W        W38556  26.537  15.002  11.623
66132W        W38557  44.881   4.912  13.356
66133W        W38558  14.745  13.479  14.394
66134W        W38559  40.552  19.165  10.785
66135W        W38560  31.005  15.586   0.399
66136W        W38561   8.315  13.768   4.596
66137W        W38562  34.097   1.743  13.955
66138W        W38563  13.008   2.643   1.654
66139W        W38564  42.031  42.281  11.670
66140W        W38565  17.710  12.369  12.462
66141W        W38566  43.294  34.591  13.997
66142W        W38567  11.202   6.721  12.574
66143W        W38568  10.156  40.721  13.301
66144W        W38569   0.170  33.494  14.941
66145W        W38570  43.270  10.096  11.451
66146W        W38571   8.424  38.302   1.094
66147W        W38572  41.321  34.135  14.889
66148W        W38573   8.970  19.772   0.249
66149W        W38574  33.714  14.131   3.649
66150W        W38575  32.587   1.486  12.851
66151W        W38576  26.134   3.720  14.548
66152W        W38577   2.878   8.213   1.339
66153W        W38578   7.209  29.532  10.658
66154W        W38579  19.249   3.345   2.113
66155W        W38580   6.435  29.631  11.149
66156W        W38581  15.102   2.689  13.363
66157W        W38582  25.536  10.999   0.379
66158W        W38583  42.413  14.115   1.969
66159W        W38584  17.312   2.527   9.703
66160W        W38585   1.512  15.800   2.281
66161W        W38586  38.906  11.614  12.552
66162W        W38587   3.347  38.854   0.994
66163W        W38588  41.841  13.348   4.524
66164W        W38589   5.990  23.027   0.387
66165W        W38590  31.637  42.975   0.917
66166W        W38591  42.625  22.387  12.896
66167W        W38592  34.084  28.140   3.316
66168W        W38593   0.232  39.512  11.078
66169W        W38594  28.244   2.057  11.947
66170W        W38595  42.167   1.322  14.607
66171W        W38596  13.161   4.771   2.539
66172W        W38597  22.509  12.625   3.398
66173W        W38598  39.602  10.803  10.602
66174W        W38599  29.396   0.168   4.247
66175W        W38600   8.638  15.061   2.742
66176W        W38601  11.606  39.041   0.506
66177W        W38602  36.683  41.015   2.694
66178W        W38603  32.317  31.427   4.605
66179W        W38604  38.471  28.451  13.040
66180W        W38605  18.277  31.048  14.910
66181W        W38606  23.588  38.143  11.765
66182W        W38607  23.019  24.178  10.621
66183W        W38608  32.434  19.815   2.964
66184W        W38609   4.284  41.235  12.377
66185W        W38610  32.637  28.092   1.365
66186W        W38611  26.262  39.839  11.395
66187W        W38612  29.921  36.088   4.286
66188W        W38613  43.121  15.874   3.212
66189W        W38614  13.114  34.984   3.082
66190W        W38615  26.000  17.636   4.117
66191W        W38616  18.088  12.626   3.878
66192W        W38617   6.703   7.811  12.112
66193W        W38618   4.961  20.389  13.619
66194W        W38619   9.613  33.950  12.489
66195W        W38620   5.599  11.999   4.188
66196W        W38621  25.240  19.288   1.783
66197W        W38622   9.014   7.720  11.388
66198W        W38623  17.951  19.672   0.544
66199W        W38624  38.278  32.796  13.567
66200W        W38625  39.482  24.205  12.982
66201W        W38626  40.367   0.429   0.424
66202W        W38627  30.926  15.848   1.378
66203W        W38628   2.990  28.103  14.000
66204W        W38629  17.178  24.135   1.682
66205W        W38630  41.702  22.071  10.895
66206W        W38631  19.558  29.136  14.774
66207W        W38632  10.305  14.555   3.657
66208W        W38633  12.640  35.338   3.746
66209W        W38634  35.672  31.341   3.295
66210W        W38635  25.108  32.418  14.813
66211W        W38636  44.840  26.649   3.823
66212W        W38637  43.789  18.987   3.775
66213W        W38638  27.411  36.863   0.739
66214W        W38639   9.351  37.582   5.398
66215W        W38640  25.227   1.136   4.136
66216W        W38641  33.781  21.515   4.071
66217W        W38642  30.894  34.816  14.909
66218W        W38643   2.240  10.830   3.627
66219W        W38644  20.744  44.314  13.917
66220W        W38645  32.731   8.352   0.458
66221W        W38646  35.414  12.869   1.092
66222W        W38647  10.958  39.914  13.946
66223W        W38648   6.862  40.791   2.398
66224W        W38649   6.982   1.228   0.014
66225W        W38650  34.985  34.324  11.446
66226W        W38651  21.087  44.537   3.622
66227W        W38652  31.178   8.217   4.123
66228W        W38653  44.335  11.644   3.040
66229W        W38654  26.945  24.222   1.637
66230W        W38655  22.007  41.751   0.422
66231W        W38656  32.035  22.215   1.293
66232W        W38657  19.330  34.646   0.726
66233W        W38658  18.214  15.802  14.298
66234W        W38659  38.859   9.776  10.734
66235W        W38660  13.720   9.707   3.307
66236W        W38661  23.092  18.657  12.897
66237W        W38662   7.189  20.661   3.811
66238W        W38663  40.625  23.093  13.067
66239W        W38664  44.364  19.697  14.793
66240W        W38665   1.254  12.694   3.748
66241W        W38666  43.531  41.467  12.717
66242W        W38667  41.052  42.715   5.569
66243W        W38668   9.714   6.925   3.829
66244W        W38669  31.022  28.239  14.248
66245W        W38670  10.042  27.985  10.700
66246W        W38671  36.338  18.772  12.474
66247W        W38672  42.417   7.740   4.134
66248W        W38673   3.723  13.114   1.441
66249W        W38674  19.007  33.856   4.203
66250W        W38675  25.975  40.220   1.814
66251W        W38676   0.764   5.247   1.436
66252W        W38677  40.547  14.098  14.425
66253W        W38678   2.963  38.546   0.815
66254W        W38679  33.529   0.537   3.404
66255W        W38680  38.585  39.352   4.587
66256W        W38681  14.888  32.423  14.940
66257W        W38682  20.590  22.971  13.567
66258W        W38683  24.932   5.803   1.975
66259W        W38684  31.356  23.624   1.702
66260W        W38685  29.654  15.574   0.947
66261W        W38686   0.414  28.639  11.263
66262W        W38687  14.123  17.215  12.416
66263W        W38688   5.673  10.736   3.737
66264W        W38689  33.845  13.355  13.912
66265W        W38690  33.554   6.990   1.826
66266W        W38691   7.384  43.430  14.722
66267W        W38692   0.411  43.935   1.701
66268W        W38693  36.945  41.884  10.602
66269W        W38694  39.410   3.416  11.346
66270W        W38695  13.161  39.096   3.900
66271W        W38696  25.280  43.905   3.602
66272W        W38697  18.842  11.273  10.710
66273W        W38698  31.091  30.422   2.411
66274W        W38699   2.265  23.079   4.138
66275W        W38700  31.110  12.860   4.606
66276W        W38701  41.919  35.899  10.705
66277W        W38702  36.540  13.789  14.418
66278W        W38703  18.538  25.377   2.022
66279W        W38704  30.059  37.809  14.311
66280W        W38705  27.415  22.219  13.061
66281W        W38706   2.996  18.748   2.062
66282W        W38707  40.948  40.084  12.373
66283W        W38708   1.828  14.605   3.568
66284W        W38709  30.381   1.298   3.337
66285W        W38710  43.254  14.367   0.913
66286W        W38711   9.935  44.982   3.281
66287W        W38712   4.700  13.898   2.978
66288W        W38713  35.480   9.627  13.538
66289W        W38714   9.289  30.333  13.909
66290W        W38715   3.975   1.273   3.477
66291W        W38716  17.373   1.190  13.054
66292W        W38717  27.957   6.848   1.621
66293W        W38718  35.876  28.721  12.022
66294W        W38719  11.624  44.912   3.656
66295W        W38720  32.651  15.869  11.086
66296W        W38721  10.314  22.264  13.596
66297W        W38722  20.592  34.345   0.342
66298W        W38723  24.743   8.279   4.729
66299W        W38724  37.403  28.416  13.964
66300W        W38725  25.506  19.720   1.699
66301W        W38726   3.935  22.473   1.252
66302W        W38727   4.283   8.683   3.799
66303W        W38728   3.359  29.375   1.859
66304W        W38729  40.771   9.442  12.555
66305W        W38730   8.611   6.781  12.943
66306W        W38731  14.731   7.502  10.346
66307W        W38732  17.327  22.407   3.698
66308W        W38733  34.156  30.816   0.436
66309W        W38734  13.238  26.676   1.886
66310W        W38735  29.218  14.813   2.194
66311W        W38736   3.362  36.994   0.418
66312W        W38737  26.581  13.746   1.252
66313W        W38738  11.240  12.993   3.616
66314W        W38739  29.657  37.424   3.103
66315W        W38740  38.876  37.122   3.651
66316W        W38741  22.052   6.142  12.035
66317W        W38742  30.859  15.587   2.356
66318W        W38743  12.926  37.882   3.304
66319W        W38744  16.994  10.342  10.943
66320W        W38745  20.541   4.946  11.163
66321W        W38746   2.789  19.309   0.371
66322W        W38747  35.699   4.176   0.862
66323W        W38748   0.411  42.097  13.483
66324W        W38749  44.071  18.994  11.577
66325W        W38750   0.226  12.321   0.430
66326W        W38751  43.371  21.593  13.827
66327W        W38752  19.842  25.131  12.477
66328W        W38753   4.721  23.875  11.087
66329W        W38754  38.022  18.113   1.871
66330W        W38755  25.555  25.510  14.018
66331W        W38756   5.284  17.491   3.862
66332W        W38757  25.938  25.503  12.666
66333W        W38758  28.947  16.160   0.249
66334W        W38759  13.689  25.112  12.137
66335W        W38760  40.776  12.213   4.059
66336W        W38761  30.296  23.532   0.947
66337W        W38762  15.861  35.573   1.922
66338W        W38763  14.707  13.024  14.732
66339W        W38764  34.861   7.954  10.684
66340W        W38765  12.159  25.979   1.701
66341W        W38766  33.437  34.888  10.692
66342W        W38767  30.934  25.687   2.310
66343W        W38768  38.127  17.861  14.498
66344W        W38769  30.159  40.983   4.712
66345W        W38770  43.652   1.737  13.045
66346W        W38771   7.364  40.540   2.772
66347W        W38772   9.308   4.633   0.354
66348W        W38773  20.276  41.351   4.572
66349W        W38774  14.725  25.132   0.304
66350W        W38775  34.878  11.209   1.406
66351W        W38776  29.047   1.949   3.830
66352W        W38777   4.499  10.402   1.840
66353W        W38778  44.864   8.367   0.060
66354W        W38779  24.589  29.534   2.817
66355W        W38780  28.103   1.428   4.266
66356W        W38781  41.386  43.502   0.409
66357W        W38782  27.464   6.783  11.741
66358W        W38783  35.779   8.560   4.682
66359W        W38784  12.200  27.263  13.534
66360W        W38785  41.946  16.140  11.869
66361W        W38786  27.296  34.976  12.564
66362W        W38787  11.039   3.906  10.651
66363W        W38788  13.634  23.646   0.809
66364W        W38789  40.114   7.409   0.370
66365W        W38790   8.587  29.972   0.430
66366W        W38791  42.309   4.422  14.858
66367W        W38792   1.944  21.964  14.771
66368W        W38793  23.479  38.282   1.797
66369W        W38794  23.546  34.574  12.052
66370W        W38795  30.196  18.352   9.711
66371W        W38796  40.775  12.726   2.394
66372W        W38797  18.560  38.068   2.346
66373W        W38798  44.212  44.608  13.524
66374W        W38799  27.462  40.351   1.878
66375W        W38800  39.338  16.735  13.475
66376W        W38801   2.856  32.082  10.330
66377W        W38802  33.232  31.586   1.332
66378W        W38803   5.743   5.472   4.296
66379W        W38804  37.879  18.241   4.816
66380W        W38805  27.124  11.608   0.160
66381W        W38806  13.877  44.712   4.066
66382W        W38807  20.672   6.221  11.469
66383W        W38808   2.957  39.525  13.496
66384W        W38809   2.980  30.110  13.856
66385W        W38810   8.146  31.169   2.764
66386W        W38811  29.417   6.235   1.276
66387W        W38812   2.894  43.499  12.411
66388W        W38813  23.609  13.293   4.611
66389W        W38814  40.983  31.576  12.578
66390W        W38815  29.874  40.416  13.446
66391W        W38816  24.278  15.355   3.753
66392W        W38817  42.855  21.481   4.118
66393W        W38818  33.047  41.974   0.433
66394W        W38819   5.200   3.695   2.172
66395W        W38820  17.280  12.103   4.255
66396W        W38821  29.364  40.586  11.626
66397W        W38822  39.749  18.079   2.319
66398W        W38823  41.850  20.620   4.587
66399W        W38824  20.790   7.981  12.188
66400W        W38825   0.771  39.437  13.472
66401W        W38826  21.364   5.878   1.137
66402W        W38827  32.708  25.587  11.573
66403W        W38828  12.187   4.643  14.749
66404W        W38829  34.365  15.530  10.576
66405W        W38830  23.804  25.707   1.438
66406W        W38831   5.255  15.279   2.085
66407W        W38832  44.725  40.043  11.136
66408W        W38833  26.624   3.714   2.122
66409W        W38834  34.079  27.582   1.802
66410W        W38835   1.081   2.891  11.132
66411W        W38836   7.354   8.466  12.916
66412W        W38837  40.899  34.902  10.637
66413W        W38838  26.525   6.589   3.578
66414W        W38839  34.806   5.871   3.112
66415W        W38840  35.767  30.595   3.729
66416W        W38841   2.008  13.313   3.570
66417W        W38842   5.903  16.068   3.565
66418W        W38843  18.327   8.854  14.940
66419W        W38844  14.938  14.973   1.187
66420W        W38845  25.454  39.120   1.321
66421W        W38846  31.230   7.593   3.413
66422W        W38847  20.178  40.374   3.650
66423W        W38848  16.124   3.560  13.425
66424W        W38849   1.858  40.012   4.545
66425W        W38850  31.966   2.780   3.655
66426W        W38851  24.096  37.051  14.794
66427W        W38852  10.688  11.664  10.751
66428W        W38853  32.413   3.771   4.567
66429W        W38854   8.053  16.233  10.711
66430W        W38855  31.419  38.370  12.976
66431W        W38856  23.483  39.603   3.262
66432W        W38857   4.316  23.916   3.396
66433W        W38858  33.811  22.656  11.983
66434W        W38859  42.017  19.822  10.116
66435W        W38860   1.768  44.519   1.484
66436W        W38861  19.054  20.460  14.383
66437W        W38862   5.181  18.985  14.789
66438W        W38863   5.207   7.770  13.047
66439W        W38864  35.016  41.937   1.683
66440W        W38865  41.221  24.071   3.173
66441W        W38866  43.352   6.534   0.696
66442W        W38867  25.088   6.946   1.092
66443W        W38868  37.988  29.827  11.104
66444W        W38869  21.163  26.495  13.809
66445W        W38870  30.447   7.838   4.340
66446W        W38871  36.042  29.224  11.945
66447W        W38872  38.999  16.509  14.791
66448W        W38873  43.754  26.012  10.646
66449W        W38874  20.223  43.276   2.871
66450W        W38875  33.809  37.087   0.373
66451W        W38876  40.309  24.453   2.464
66452W        W38877   7.284  23.648  10.746
66453W        W38878   3.457   1.887   2.403
66454W        W38879  32.122   0.326  14.072
66455W        W38880  18.776  31.872  13.320
66456W        W38881  16.204  39.434   1.690
66457W        W38882  24.540  16.840  11.450
66458W        W38883  30.240   5.343  13.969
66459W        W38884   1.254   2.508   3.604
66460W        W38885   6.642  10.919   4.695
66461W        W38886  16.046  39.322  12.111
66462W        W38887  27.402  25.724   0.444
66463W        W38888  41.059   4.684   4.229
66464W        W38889   7.716   8.590   9.684
66465W        W38890  36.050  31.266   0.754
66466W        W38891  22.952   0.818   3.728
66467W        W38892  25.566  22.712   1.764
66468W        W38893  42.059  42.944   2.472
66469W        W38894  30.398  25.481  13.818
66470W        W38895  15.231   8.162  12.778
66471W        W38896  34.960  44.337  14.431
66472W        W38897   4.603  10.801  11.506
66473W        W38898  33.844  23.600   2.450
66474W        W38899  12.427  37.860   3.315
66475W        W38900   4.396  43.008   3.587
66476W        W38901  42.594  19.090  12.870
66477W        W38902  28.874  22.999   1.755
66478W        W38903  27.001  14.330  14.597
66479W        W38904  35.826  31.908  14.038
66480W        W38905  34.618   3.214  14.254
66481W        W38906  25.109  16.592   2.235
66482W        W38907  18.846  40.841   3.665
66483W        W38908  19.595  32.831   4.090
66484W        W38909  13.746  37.692   1.245
66485W        W38910  41.535  12.918  12.314
66486W        W38911  13.681  34.602   3.744
66487W        W38912  23.962  12.789  12.052
66488W        W38913  31.320  33.681  12.067
66489W        W38914  40.339   3.931  14.957
66490W        W38915  38.595   0.469  14.369
66491W        W38916  38.886   8.593   2.451
66492W        W38917  16.785   1.052   0.803
66493W        W38918   2.882  26.680   4.263
66494W        W38919  11.681  19.154  10.733
66495W        W38920   0.034   8.210   2.302
66496W        W38921  24.218  20.196   0.916
66497W        W38922   9.144   7.582  10.886
66498W        W38923   6.401  33.823   1.741
66499W        W38924   8.219  30.347  12.036
66500W        W38925   2.335  15.614   0.488
66501W        W38926   3.886   6.624  12.234
66502W        W38927   3.203  29.285   3.184
66503W        W38928  37.768  34.021   1.659
66504W        W38929  22.711  19.359  10.758
66505W        W38930   0.234  18.922   0.917
66506W        W38931  38.832  25.580  14.137
66507W        W38932  25.961  21.567   1.252
66508W        W38933   6.395  13.304   2.269
66509W        W38934  18.215  24.179  13.415
66510W        W38935  40.337  33.519  10.736
66511W        W38936   2.789  38.894   1.145
66512W        W38937   2.161   1.808   1.732
66513W        W38938  37.167  27.087   4.547
66514W        W38939  14.243  23.999   2.290
66515W        W38940   7.861  41.959  13.901
66516W        W38941  27.394  35.415   3.334
66517W        W38942   7.251  13.463  13.572
66518W        W38943  40.942  16.516   0.937
66519W        W38944  32.085   2.926  10.726
66520W        W38945  38.163   3.678  11.614
66521W        W38946  16.819  18.416   4.180
66522W        W38947  39.002  29.150   3.677
66523W        W38948   0.999  35.697   5.040
66524W        W38949  16.798  33.591  11.960
66525W        W38950  29.544  34.550  11.971
66526W        W38951  33.943   4.413   1.207
66527W        W38952  26.231   4.890  14.735
66528W        W38953  27.309   0.213  13.632
66529W        W38954  21.655  16.121  14.850
66530W        W38955  42.392  12.603  14.886
66531W        W38956  13.988   8.523  12.031
66532W        W38957  41.350  29.692  13.638
66533W        W38958  28.998  18.227   3.765
66534W        W38959  15.103  14.600   2.280
66535W        W38960  42.850  21.850  10.656
66536W        W38961  28.538  42.425  13.753
66537W        W38962   3.817  23.696   3.210
66538W        W38963  11.270  41.344  11.688
66539W        W38964   1.463  21.805  10.637
66540W        W38965   5.893  26.667  12.162
66541W        W38966  15.840  17.294  11.739
66542W        W38967  36.374  15.311   1.429
66543W        W38968  12.711  13.662   1.385
66544W        W38969   9.385  40.721   4.968
66545W        W38970  39.858   3.820   2.169
66546W        W38971  28.336  39.577  11.207
66547W        W38972   1.960  26.966   1.791
66548W        W38973  27.732  17.308  10.564
66549W        W38974   4.950  12.628   5.037
66550W        W38975  28.172  25.709   1.658
66551W        W38976  27.689  36.244   1.380
66552W        W38977  22.170  17.847   0.870
66553W        W38978   5.414  28.999  14.363
66554W        W38979   3.861  28.428  14.032
66555W        W38980  17.210   8.682   2.839
66556W        W38981   8.742  11.071   1.773
66557W        W38982  43.001  41.884   1.467
66558W        W38983  36.448   5.106  10.677
66559W        W38984  23.297  26.045  14.424
66560W        W38985  29.652  17.288   4.942
66561W        W38986  15.862  36.346  11.176
66562W        W38987  21.699  10.555  11.661
66563W        W38988  42.854  27.151   4.621
66564W        W38989  42.400  17.044  12.875
66565W        W38990  42.902   5.846  11.887
66566W        W38991  28.214  35.214  12.417
66567W        W38992  29.184  34.007   0.985
66568W        W38993  15.195  38.111   0.725
66569W        W38994   6.847  19.328  14.918
66570W        W38995  29.384   3.339   1.764
66571W        W38996  19.616  15.042   4.313
66572W        W38997  32.854  20.964  10.801
66573W        W38998  40.894  30.884  10.408
66574W        W38999   3.746  36.838   4.624
66575W        W39000  40.764  25.090   3.822
66576W        W39001  27.021  20.444   4.833
66577W        W39002  28.057  40.968  10.562
66578W        W39003  18.259  36.765   0.446
66579W        W39004  37.882  10.115   1.874
66580W        W39005  12.279  16.913  10.687
66581W        W39006  37.499   6.674   4.626
66582W        W39007  35.906   0.911  12.392
66583W        W39008  28.720  17.194   3.663
66584W        W39009  32.921  16.174  13.829
66585W        W39010  21.545  12.694   2.341
66586W        W39011  39.186  25.748  12.668
66587W        W39012   7.172  34.201  13.314
66588W        W39013  12.188   0.403   1.648
66589W        W39014  44.754   1.129  12.901
66590W        W39015   6.220  18.551   4.123
66591W        W39016   7.381  14.281   0.391
66592W        W39017  10.391  44.467   2.674
66593W        W39018  22.221  38.477  13.934
66594W        W39019   6.719  40.841  10.734
66595W        W39020  25.637   9.874  13.844
66596W        W39021   6.407  34.339   3.750
66597W        W39022  34.412  34.107  11.905
66598W        W39023   3.714  19.311   2.157
66599W        W39024  29.617  27.417   3.762
66600W        W39025  34.422  36.459  14.490
66601W        W39026  15.094  36.181   0.846
66602W        W39027   4.930  24.122  14.754
66603W        W39028  42.856   8.656   4.614
66604W        W39029  13.318  15.118   0.169
66605W        W39030  34.122   6.323  12.858
66606W        W39031  28.176  21.809   3.137
66607W        W39032  36.014  23.619  11.577
66608W        W39033   7.102  42.460   0.923
66609W        W39034  24.774  29.646   2.269
66610W        W39035  31.281   1.434   3.705
66611W        W39036  21.756  43.345  11.251
66612W        W39037  10.303  20.453   1.379
66613W        W39038  38.409   7.970   1.852
66614W        W39039  37.799   5.994   0.646
66615W        W39040  41.287  44.857   0.843
66616W        W39041   6.710  23.545   4.234
66617W        W39042  34.692  30.332   3.793
66618W        W39043  17.740  33.505   2.268
66619W        W39044  17.219  29.920  13.779
66620W        W39045  27.736  17.649   2.152
66621W        W39046  44.839  26.651  14.827
66622W        W39047   2.778  16.999   2.299
66623W        W39048  25.009   9.747  13.255
66624W        W39049  44.162  16.586  14.834
66625W        W39050  19.316   4.730   5.180
66626W        W39051  29.628  11.455   1.907
66627W        W39052  10.356  15.276  14.911
66628W        W39053  25.438  38.190  13.840
66629W        W39054  12.186  42.776   1.230
66630W        W39055   8.022  21.841  10.163
66631W        W39056  29.649  13.901   4.267
66632W        W39057  34.392   5.756   4.396
66633W        W39058  33.917  12.236  13.047
66634W        W39059   8.269  25.222  11.196
66635W        W39060   4.344  24.392   4.252
66636W        W39061  38.950  22.591  11.613
66637W        W39062  20.978  34.101  14.822
66638W        W39063  28.609  30.233  10.192
66639W        W39064  19.274   0.912   4.136
66640W        W39065  37.503   6.225  13.889
66641W        W39066  19.792  30.969  14.923
66642W        W39067  30.124   3.740   1.714
66643W        W39068  18.355  16.615  13.867
66644W        W39069  34.276  35.937   2.786
66645W        W39070  17.853  40.490   2.238
66646W        W39071  20.712   5.870   4.585
66647W        W39072  17.417  21.091  13.723
66648W        W39073   4.019   8.361  12.908
66649W        W39074   5.273  31.093   3.472
66650W        W39075  10.049   1.991   3.997
66651W        W39076  19.734  33.651   3.659
66652W        W39077  23.775  41.325   0.162
66653W        W39078  43.960   8.878  10.871
66654W        W39079  37.496  43.785   2.745
66655W        W39080  16.940   4.906  14.315
66656W        W39081   6.010  41.952  13.495
66657W        W39082  25.317  33.512  10.599
66658W        W39083   5.649  36.137   5.493
66659W        W39084  12.298   9.782   4.630
66660W        W39085  27.540  27.730   3.695
66661W        W39086   5.966  13.737  11.115
66662W        W39087  38.499  36.769  12.893
66663W        W39088   3.495  32.796  14.460
66664W        W39089  25.056  16.729   0.837
66665W        W39090  23.356  33.600  12.466
66666W        W39091  15.103  14.974   4.564
66667W        W39092  18.024   8.304  12.126
66668W        W39093  20.777  31.083  13.817
66669W        W39094  24.208   6.157   5.110
66670W        W39095  19.542  23.062   1.997
66671W        W39096  31.877  14.668   3.390
66672W        W39097   3.252  32.904  11.911
66673W        W39098  18.386  27.003   4.653
66674W        W39099  18.997  30.957  12.863
66675W        W39100  23.325  32.990   4.108
66676W        W39101  16.725  38.477  14.889
66677W        W39102  15.028  32.140   2.596
66678W        W39103   8.541  17.113   0.821
66679W        W39104  28.944  17.508   4.082
66680W        W39105  14.314  19.237  11.226
66681W        W39106  11.758  42.964   3.681
66682W        W39107  11.700   8.792  10.180
66683W        W39108  44.903  31.593  11.427
66684W        W39109   0.181  19.099  12.522
66685W        W39110  21.750   0.306   0.736
66686W        W39111   4.810  30.037  14.406
66687W        W39112  19.551  15.325   3.381
66688W        W39113  20.571  15.054   4.253
66689W        W39114  32.170  17.053  11.193
66690W        W39115  32.828  37.297   4.190
66691W        W39116   0.866  18.326   3.693
66692W        W39117  26.859   7.805   4.091
66693W        W39118  34.822  22.043   4.547
66694W        W39119   7.023  13.244   1.076
66695W        W39120  12.807  25.206   2.031
66696W        W39121  24.728  31.111  13.019
66697W        W39122  38.483  29.592   4.107
66698W        W39123  19.076  42.080  10.652
66699W        W39124  12.167  16.771   0.893
66700W        W39125  10.781  31.882   0.424
66701W        W39126  13.337   6.434  10.802
66702W        W39127  32.081  17.555   1.482
66703W        W39128  34.407  40.573  11.061
66704W        W39129  26.391   9.361   1.093
66705W        W39130  34.938  26.059   2.300
66706W        W39131  24.272   2.662   4.175
66707W        W39132  16.294  38.363   2.264
66708W        W39133  44.837   0.382   2.117
66709W        W39134  21.896  23.246   2.418
66710W        W39135  24.120  39.322   1.239
66711W        W39136  27.232  39.354   4.103
66712W        W39137  25.986  26.575  13.506
66713W        W39138  16.693  34.613  11.003
66714W        W39139   1.008  31.776   4.572
66715W        W39140  29.872  15.017  14.860
66716W        W39141  33.020  26.712  11.539
66717W        W39142   9.680  31.430  10.578
66718W        W39143  15.639   6.135   3.275
66719W        W39144  29.131  12.988   1.711
66720W        W39145  30.087  24.137  12.982
66721W        W39146   8.177  24.744   3.511
66722W        W39147  14.194  19.521   3.670
66723W        W39148  37.420  41.281   2.662
66724W        W39149  30.895   5.434  10.542
66725W        W39150  38.115   5.332   3.175
66726W        W39151   7.345  26.559   0.547
66727W        W39152  44.877  38.905   0.192
66728W        W39153  10.296  38.487  12.572
66729W        W39154  18.281  24.660   2.371
66730W        W39155   5.262   9.900   2.876
66731W        W39156  31.622   4.947   1.811
66732W        W39157   0.416   0.206   2.731
66733W        W39158  43.296   9.424   1.387
66734W        W39159  43.957  26.512   2.961
66735W        W39160  44.497   5.133   1.774
66736W        W39161  28.788   3.383  12.430
66737W        W39162  18.423   4.467  12.021
66738W        W39163  18.591   5.273  12.478
66739W        W39164  25.484  39.811   4.575
66740W        W39165  26.208  30.704   0.807
66741W        W39166   0.504  34.949  12.108
66742W        W39167  28.669  23.184  14.505
66743W        W39168  21.544  13.179   1.314
66744W        W39169  22.313  33.077   0.540
66745W        W39170  31.541  14.187   1.371
66746W        W39171  33.477   0.881   0.961
66747W        W39172   9.183  15.683   3.277
66748W        W39173  24.114  18.271  10.995
66749W        W39174  27.817  32.829  13.435
66750W        W39175  33.155  16.083  14.287
66751W        W39176  20.705  39.758   2.310
66752W        W39177   2.532  26.899   4.623
66753W        W39178  28.471   0.826  12.488
66754W        W39179  33.606  10.755   2.177
66755W        W39180   8.474   6.143   2.592
66756W        W39181  18.607  43.274   0.435
66757W        W39182  42.492  12.946  14.497
66758W        W39183  21.514  34.146   0.727
66759W        W39184  40.067  17.546  10.881
66760W        W39185  22.611  12.161  10.910
66761W        W39186  20.110  37.693   2.217
66762W        W39187  42.872  15.113  12.508
66763W        W39188  10.902   8.380  10.996
66764W        W39189  31.236   2.461   3.720
66765W        W39190  19.132  37.831  13.080
66766W        W39191  10.771   3.767   4.654
66767W        W39192  30.985  39.992   3.791
66768W        W39193  36.547  33.814   0.141
66769W        W39194  39.105  38.296   0.566
66770W        W39195  26.697  33.946  12.387
66771W        W39196  35.429  38.441   3.679
66772W        W39197  25.666   8.497  11.561
66773W        W39198  23.183  33.466   4.213
66774W        W39199  34.184  42.474  14.877
66775W        W39200  32.081  13.797  13.031
66776W        W39201  44.958   9.766   1.909
66777W        W39202  23.075  16.015   1.508
66778W        W39203  30.481  44.288   0.294
66779W        W39204   8.123  10.850   3.453
66780W        W39205  28.968   2.218   0.703
66781W        W39206  25.678   1.307   2.263
66782W        W39207  29.506  44.248   0.444
66783W        W39208  12.642  24.215   9.703
66784W        W39209   2.724  41.531  12.163
66785W        W39210  16.272   7.596   0.410
66786W        W39211  33.966  19.459   0.500
66787W        W39212   4.659  34.902  11.421
66788W        W39213  37.628  33.040   4.229
66789W        W39214  12.317  33.126   2.551
66790W        W39215   2.818  34.038   2.559
66791W        W39216   2.458  16.114   0.437
66792W        W39217   3.297  41.947   4.119
66793W        W39218  14.243  17.882   4.092
66794W        W39219  39.800  38.446  11.879
66795W        W39220  26.545  35.023   0.127
66796W        W39221  15.548  35.562  14.527
66797W        W39222  19.953   4.007  12.957
66798W        W39223  34.416  41.591  10.629
66799W        W39224  24.451  23.701   1.564
66800W        W39225  19.428  23.756   1.441
66801W        W39226  16.041  40.122  12.591
66802W        W39227  44.233  30.838   4.596
66803W        W39228  42.393   2.567  12.715
66804W        W39229   5.458   8.370   4.849
66805W        W39230   0.393  38.354  11.994
66806W        W39231  12.707  43.819   1.767
66807W        W39232  41.461   3.868  14.481
66808W        W39233  16.996  34.872  11.397
66809W        W39234  42.846  26.417  11.584
66810W        W39235  37.142  20.642   0.999
66811W        W39236  44.742  19.535   1.210
66812W        W39237  22.424  35.959  10.629
66813W        W39238  10.147   4.631   3.781
66814W        W39239  33.413  30.213  11.891
66815W        W39240   6.910   2.474   3.801
66816W        W39241  40.361   1.482  13.645
66817W        W39242  43.807  27.672   1.288
66818W        W39243   8.687  17.272  14.454
66819W        W39244  33.596  36.508  12.095
66820W        W39245  44.715  26.221   3.372
66821W        W39246  10.543   7.382   4.106
66822W        W39247  19.509  22.158   1.962
66823W        W39248   3.117  25.542  14.945
66824W        W39249  43.961  42.719  13.485
66825W        W39250  26.174  41.925   1.336
66826W        W39251   4.853  10.121   0.466
66827W        W39252  18.608  18.093  13.349
66828W        W39253  39.821  10.805  11.067
66829W        W39254  24.649  32.462  13.427
66830W        W39255  11.107  41.464  10.742
66831W        W39256  31.676  27.634   1.795
66832W        W39257  21.557  41.603   3.106
66833W        W39258  13.759  38.072   2.352
66834W        W39259  23.437  30.503  10.700
66835W        W39260  24.855  12.314  14.532
66836W        W39261  39.953  25.599  13.592
66837W        W39262  14.901  10.344  13.253
66838W        W39263  39.815  36.214   4.022
66839W        W39264  22.045  32.860   1.998
66840W        W39265  36.908  31.668  13.429
66841W        W39266   7.014  37.577   4.179
66842W        W39267  22.942  34.383   2.342
66843W        W39268  31.906  21.744  12.258
66844W        W39269  11.134   3.971  11.152
66845W        W39270   6.334  20.523   2.705
66846W        W39271  23.044  28.680  12.907
66847W        W39272   3.216  11.073   3.583
66848W        W39273   3.391  13.724  14.911
66849W        W39274  43.452  35.464   1.727
66850W        W39275  19.102  16.858   4.116
66851W        W39276  28.205   9.839   3.697
66852W        W39277  32.263  38.753   3.125
66853W        W39278  14.078   0.971  13.810
66854W        W39279  30.193  29.340   1.210
66855W        W39280  11.280  38.440   2.262
66856W        W39281  11.097   5.735  10.646
66857W        W39282  10.886  15.037   0.801
66858W        W39283  33.662   2.187   1.058
66859W        W39284  33.361  28.591   4.109
66860W        W39285  39.336   3.556  14.353
66861W        W39286   6.915  22.652   0.729
66862W        W39287  35.147  30.075   0.838
66863W        W39288  18.206   1.623  12.040
66864W        W39289  41.279  30.801   3.290
66865W        W39290  26.627  24.868  14.801
66866W        W39291  18.684   5.751  14.093
66867W        W39292  33.134  32.936  12.906
66868W        W39293  33.414  19.615  12.876
66869W        W39294  26.084  39.808  12.314
66870W        W39295  15.113   2.393   4.657
66871W        W39296  29.860  15.086  11.166
66872W        W39297  17.782  30.958  10.976
66873W        W39298  11.209  42.333   3.256
66874W        W39299  17.424  37.281   4.625
66875W        W39300  25.731  11.304   3.325
66876W        W39301   9.195  36.596   2.446
66877W        W39302  22.912  31.386  10.769
66878W        W39303  36.477  36.825   0.687
66879W        W39304   1.696  44.954   4.857
66880W        W39305  36.094  38.868  13.505
66881W        W39306  18.612  10.268   1.016
66882W        W39307   5.406  24.704   0.831
66883W        W39308   5.756  23.919  11.612
66884W        W39309  15.103  35.816   3.707
66885W        W39310  42.443   0.788   4.551
66886W        W39311  25.729   2.879  13.613
66887W        W39312  10.297  25.499   2.405
66888W        W39313   7.287   7.710   4.628
66889W        W39314  17.718  42.848   4.393
66890W        W39315  25.819   1.815   3.785
66891W        W39316   0.529  21.632  14.427
66892W        W39317  22.123  22.739   4.360
66893W        W39318  10.473  28.232  13.058
66894W        W39319   4.976  35.977  14.096
66895W        W39320  37.925  26.592  14.321
66896W        W39321   6.888   7.451   2.826
66897W        W39322  41.440  35.335   4.512
66898W        W39323   1.823  44.521  12.527
66899W        W39324  33.828  19.323   4.541
66900W        W39325  21.008   3.969   2.324
66901W        W39326  41.792  19.895   0.172
66902W        W39327  26.642  14.113   0.890
66903W        W39328  18.154  10.178   3.227
66904W        W39329  25.868  31.540  14.907
66905W        W39330  31.106  41.104   0.006
66906W        W39331  37.110  17.995   3.897
66907W        W39332  11.734  41.316  14.904
66908W        W39333   1.729   1.288  12.955
66909W        W39334  11.589  33.087   3.290
66910W        W39335  31.811  16.295   5.129
66911W        W39336  26.573  39.366   4.716
66912W        W39337  34.647  39.374   3.142
66913W        W39338   8.378   9.660   0.703
66914W        W39339  38.858  17.601  11.730
66915W        W39340  35.383  25.769  13.455
66916W        W39341  21.056  19.631   0.958
66917W        W39342  17.498  35.684  13.532
66918W        W39343  18.980  18.439  11.560
66919W        W39344  13.696   4.335  14.514
66920W        W39345  21.785   6.262  12.454
66921W        W39346  15.975  10.700   4.435
66922W        W39347   9.229  19.824   4.924
66923W        W39348  33.307  33.835  14.452
66924W        W39349  41.170   0.812   3.289
66925W        W39350  34.920   7.911  14.847
66926W        W39351  27.116   1.883  13.611
66927W        W39352  38.512  25.960  11.136
66928W        W39353  27.802   0.590  10.248
66929W        W39354  19.742   1.795  12.493
66930W        W39355  17.654  16.738  12.071
66931W        W39356  38.869  25.556   4.486
66932W        W39357  34.072  43.596  11.350
66933W        W39358  18.814  35.811  11.651
66934W        W39359  29.202  20.153  11.427
66935W        W39360  28.176  18.616  13.305
66936W        W39361   0.415   3.310  11.428
66937W        W39362  14.518  28.906  11.561
66938W        W39363  38.014  27.428  10.619
66939W        W39364  12.851  17.055  11.598
66940W        W39365  14.695  28.606   0.786
66941W        W39366  11.537  28.690   0.202
66942W        W39367  39.571   0.858   5.085
66943W        W39368  21.116  15.613   4.613
66944W        W39369   9.395  27.202   3.635
66945W        W39370  15.293  40.893   1.806
66946W        W39371  12.153  18.533   1.492
66947W        W39372  25.023  31.542  14.264
66948W        W39373  40.485  21.336   3.710
66949W        W39374  35.968  38.341   2.144
66950W        W39375  43.877   5.920   4.505
66951W        W39376  42.424  22.188  12.475
66952W        W39377  30.710   4.643   3.114
66953W        W39378  33.857  14.385   4.074
66954W        W39379  17.708  23.760   1.007
66955W        W39380  44.845   5.401  11.182
66956W        W39381  35.455   4.056   2.652
66957W        W39382  25.997  34.468  11.372
66958W        W39383  33.651  36.798  10.729
66959W        W39384  39.118  27.872  13.354
66960W        W39385   7.954  39.530  13.305
66961W        W39386  27.928  30.620  10.621
66962W        W39387  11.362  39.281   3.375
66963W        W39388  21.004  14.866  11.402
66964W        W39389  41.410  40.539  13.028
66965W        W39390  17.467  16.036   4.786
66966W        W39391  26.126  20.987  14.628
66967W        W39392  18.643  41.713   1.493
66968W        W39393  31.053  13.175   1.259
66969W        W39394  31.117  19.234  10.354
66970W        W39395   6.684  41.927   4.319
66971W        W39396  44.725  17.538   4.040
66972W        W39397  19.179   7.870   2.829
66973W        W39398  36.016  35.976   3.218
66974W        W39399   4.164  24.807  13.348
66975W        W39400  37.890  43.394   3.825
66976W        W39401  41.002  43.867   4.600
66977W        W39402  31.888   6.306   1.836
66978W        W39403  28.203  15.203  10.434
66979W        W39404  34.652  23.656  13.057
66980W        W39405  28.936   0.343   1.394
66981W        W39406  42.829  20.559   4.686
66982W        W39407  38.167   7.638  12.567
66983W        W39408  11.206   5.139  12.997
66984W        W39409   3.805  40.326  10.414
66985W        W39410   2.644  30.620  11.663
66986W        W39411   9.887  21.040   1.753
66987W        W39412  33.141  31.855   1.776
66988W        W39413   8.179  12.115  10.593
66989W        W39414  39.547  35.944   2.862
66990W        W39415   4.004  13.361   2.327
66991W        W39416  16.302  20.195   2.486
66992W        W39417  12.935  34.111  13.144
66993W        W39418  27.376   2.575  13.927
66994W        W39419  12.376  15.570   4.626
66995W        W39420  34.851  12.545  14.553
66996W        W39421  40.471   2.953  14.858
66997W        W39422  22.152  25.210  12.859
66998W        W39423  41.270   4.887   3.761
66999W        W39424  23.693  32.137  13.455
67000W        W39425  18.329  11.229   0.274
67001W        W39426  33.531  35.176  12.069
67002W        W39427  44.048  38.424   4.542
67003W        W39428   6.671  27.164   4.137
67004W        W39429   1.746  26.602   4.969
67005W        W39430   5.804  26.778   1.249
67006W        W39431   2.148  39.626   0.686
67007W        W39432   0.865   0.851   3.150
67008W        W39433  40.967  27.208  12.174
67009W        W39434  40.440   3.429  12.063
67010W        W39435  39.019   6.848   3.220
67011W        W39436  24.569   3.894  11.681
67012W        W39437  41.283  21.816  13.877
67013W        W39438  34.899  33.017  13.430
67014W        W39439  26.178  24.690   3.199
67015W        W39440  44.351   9.074  13.055
67016W        W39441   9.254  35.279   1.382
67017W        W39442  28.696  12.225  12.644
67018W        W39443  23.088  26.456   2.906
67019W        W39444  41.674  37.871   4.293
67020W        W39445  24.006  13.975  11.602
67021W        W39446  30.141  44.430  14.900
67022W        W39447   3.157  33.840  13.828
67023W        W39448   8.466  10.128   0.454
67024W        W39449   9.180  13.760  14.362
67025W        W39450  33.725   8.205   1.174
67026W        W39451  27.991  35.382  10.467
67027W        W39452  10.282  41.353   4.331
67028W        W39453   4.549  41.871   3.258
67029W        W39454  33.679  27.422   1.500
67030W        W39455  36.373  11.793   2.780
67031W        W39456  27.327  36.167   0.264
67032W        W39457  32.096   8.363  12.916
67033W        W39458  36.229  42.959   4.243
67034W        W39459  23.086  27.259  14.350
67035W        W39460  42.497  42.009  10.807
67036W        W39461   9.921  27.927  13.866
67037W        W39462  14.092  32.925  14.557
67038W        W39463   1.817   3.457   0.589
67039W        W39464  27.129  14.364   0.966
67040W        W39465  35.884   3.344   2.813
67041W        W39466   5.569   3.383   5.022
67042W        W39467  19.750  14.696  13.887
67043W        W39468  41.906  14.819   4.223
67044W        W39469  19.779   6.871  10.657
67045W        W39470   1.723  42.975   0.846
67046W        W39471  19.616  29.444   0.767
67047W        W39472  23.706  44.434  14.828
67048W        W39473  32.980  23.220   4.568
67049W        W39474   3.250   5.476  12.641
67050W        W39475  28.447  26.105   1.406
67051W        W39476  12.164  22.803  13.782
67052W        W39477  17.322  16.275  11.999
67053W        W39478  27.585  15.053   3.518
67054W        W39479  14.803  26.669   4.565
67055W        W39480  12.473  43.014  12.566
67056W        W39481  34.523  21.556  12.316
67057W        W39482  18.673  23.322  13.575
67058W        W39483   0.892  21.594  14.801
67059W        W39484  13.717  21.134   4.475
67060W        W39485   0.963  35.703  14.514
67061W        W39486   8.296  38.860  11.454
67062W        W39487  20.005  23.554   2.075
67063W        W39488  17.066   5.371   2.426
67064W        W39489  14.032  13.266   3.374
67065W        W39490  30.452   3.935  12.909
67066W        W39491  20.934  15.299  11.155
67067W        W39492  36.813  42.807  13.011
67068W        W39493  44.445   8.192   3.587
67069W        W39494  41.933   1.019  12.056
67070W        W39495  32.972  13.188   1.674
67071W        W39496  19.997   5.826  14.780
67072W        W39497  37.305  40.407  13.146
67073W        W39498   2.915  43.763   1.402
67074W        W39499  43.640  30.007   4.166
67075W        W39500  20.689  37.507  13.389
67076W        W39501  38.802  12.063  10.968
67077W        W39502  42.661  32.553   0.281
67078W        W39503  16.988   2.404   2.833
67079W        W39504  35.495  35.053  14.025
67080W        W39505   6.802  26.191   4.942
67081W        W39506  37.570  41.929   4.109
67082W        W39507  18.569  28.066   1.183
67083W        W39508  25.102  35.527  14.468
67084W        W39509   9.418  23.617  12.938
67085W        W39510  35.253  34.202   3.664
67086W        W39511  20.023  33.554   2.043
67087W        W39512  28.324  37.359  13.728
67088W        W39513  26.276  43.333   2.938
67089W        W39514   8.799  25.111  11.887
67090W        W39515  42.066  31.367  11.553
67091W        W39516   5.982  34.462   1.648
67092W        W39517  30.775   0.695  11.504
67093W        W39518  42.384  25.190  11.541
67094W        W39519  26.207   5.137   4.671
67095W        W39520  30.034  21.150   1.320
67096W        W39521  38.866  11.117  12.659
67097W        W39522   0.392  34.576  14.924
67098W        W39523  38.410  32.952   3.230
67099W        W39524  10.272  18.724   4.047
67100W        W39525  42.189  35.345   0.426
67101W        W39526   6.848  14.218   1.028
67102W        W39527  19.222  13.217   1.530
67103W        W39528  18.596  44.416  10.739
67104W        W39529  21.080  28.949  13.052
67105W        W39530  24.961  34.511   2.237
67106W        W39531  14.098  36.909   3.801
67107W        W39532   4.448  38.680   5.024
67108W        W39533   5.144  25.055  14.492
67109W        W39534   6.657  13.435   2.699
67110W        W39535  40.305   8.014  14.044
67111W        W39536   1.572  20.607   3.196
67112W        W39537   7.350   1.654   0.884
67113W        W39538  31.991  29.542   0.936
67114W        W39539  21.273  11.682  10.965
67115W        W39540  37.361   8.613   4.335
67116W        W39541  15.128  32.994  13.734
67117W        W39542   7.301  34.879   1.927
67118W        W39543  22.446  27.011   4.404
67119W        W39544   4.419  24.278  11.114
67120W        W39545  43.025  32.304   2.249
67121W        W39546  23.818   0.015   3.818
67122W        W39547  30.894  13.094   3.176
67123W        W39548  26.700  38.373  13.735
67124W        W39549   5.632  20.568   0.829
67125W        W39550  25.471   8.850  10.496
67126W        W39551  19.241  42.245  13.275
67127W        W39552  36.579   0.353   0.372
67128W        W39553  17.280  27.236  10.051
67129W        W39554  36.082  24.024  12.891
67130W        W39555   3.467   6.297  12.011
67131W        W39556  19.026  15.618   1.827
67132W        W39557   1.841   0.928   3.416
67133W        W39558  17.750  39.270  11.217
67134W        W39559  20.803   0.056  14.496
67135W        W39560  21.594  34.018   4.607
67136W        W39561   9.385  11.134  13.309
67137W        W39562  40.426  11.614  14.831
67138W        W39563  26.415  39.824  10.769
67139W        W39564  31.499   6.822  12.596
67140W        W39565  43.804  21.546   0.550
67141W        W39566  19.798  22.484   2.855
67142W        W39567  15.988  14.554   4.613
67143W        W39568   2.582  19.286  12.585
67144W        W39569  14.572  10.044  13.516
67145W        W39570  11.698  19.688   2.576
67146W        W39571   9.908  36.331   0.877
67147W        W39572  23.488  10.242   2.701
67148W        W39573  10.396  16.849   0.771
67149W        W39574  24.804  17.523   1.349
67150W        W39575   0.879  15.391  10.080
67151W        W39576  11.767  24.097  10.063
67152W        W39577  20.363  23.482  12.911
67153W        W39578  25.975  16.940  11.995
67154W        W39579  16.718  21.775  13.354
67155W        W39580  21.099  10.814  10.451
67156W        W39581  22.495   4.439   4.268
67157W        W39582  23.229  31.841  14.338
67158W        W39583  43.486  28.742  13.879
67159W        W39584  11.806  32.595  12.637
67160W        W39585   4.205  24.086  10.687
67161W        W39586  21.300  43.314  11.481
67162W        W39587   1.206  29.071  11.206
67163W        W39588  38.895  35.880   0.743
67164W        W39589  44.311   6.200   2.755
67165W        W39590  19.300   8.749  14.639
67166W        W39591  13.561  12.547   3.189
67167W        W39592  13.742  20.796   3.310
67168W        W39593   4.240  10.767   0.054
67169W        W39594   4.603  13.260  13.389
67170W        W39595  13.436  21.982   3.587
67171W        W39596  11.684  33.139  14.377
67172W        W39597  42.704  43.554  11.260
67173W        W39598  25.456   5.161  14.066
67174W        W39599  17.257  13.687  14.790
67175W        W39600  24.265  35.548  12.075
67176W        W39601   2.803  37.842  13.495
67177W        W39602  30.389  27.538  14.887
67178W        W39603  33.214  10.626  14.914
67179W        W39604  14.730  17.752  11.722
67180W        W39605   5.842  43.740   3.351
67181W        W39606  42.385  43.739   3.753
67182W        W39607   8.651  16.776  14.272
67183W        W39608  22.083   0.724   4.149
67184W        W39609   6.684  39.013   3.856
67185W        W39610  18.064  11.639   0.473
67186W        W39611  22.701  29.477  12.518
67187W        W39612   6.473  30.498  13.877
67188W        W39613  15.583  16.751  13.978
67189W        W39614  39.804  12.493  11.907
67190W        W39615  10.068   9.746   3.337
67191W        W39616  41.662  10.726  14.043
67192W        W39617  24.179   9.012   9.733
67193W        W39618  17.266  38.779   4.649
67194W        W39619   4.373  38.470  12.058
67195W        W39620  43.951  26.609   3.468
67196W        W39621  31.528  25.495  13.917
67197W        W39622  43.905  44.978   4.603
67198W        W39623   0.230   8.661   3.282
67199W        W39624   6.525  22.449   4.100
67200W        W39625   2.544  12.953   1.917
67201W        W39626  14.402  15.735   4.554
67202W        W39627  40.761  41.373   3.464
67203W        W39628   8.770  28.547   1.018
67204W        W39629  19.502  39.090  14.916
67205W        W39630  23.368   9.396  11.818
67206W        W39631  30.142  29.945   3.462
67207W        W39632   2.630  44.969  12.486
67208W        W39633  24.015  23.962  13.260
67209W        W39634  24.263  34.483   1.868
67210W        W39635  43.926  22.629   2.195
67211W        W39636  41.274  10.176   3.754
67212W        W39637  16.469  34.017  11.883
67213W        W39638  44.087  29.702  11.537
67214W        W39639  41.604  27.069  10.935
67215W        W39640  34.872  37.647  14.991
67216W        W39641  26.178   4.273   4.182
67217W        W39642  17.716  27.732  12.356
67218W        W39643  43.235   5.130  11.452
67219W        W39644  35.999  42.026   4.613
67220W        W39645  23.021  44.314   3.328
67221W        W39646   5.632  42.151   4.589
67222W        W39647  11.215  12.592  11.882
67223W        W39648  21.755   3.006  10.583
67224W        W39649  22.063  19.977  12.582
67225W        W39650  14.647  13.787  12.491
67226W        W39651   3.480   3.827   5.119
67227W        W39652  27.186   2.178  14.524
67228W        W39653  12.676  29.116  12.649
67229W        W39654  41.332   3.790   0.975
67230W        W39655  11.838  41.976   1.436
67231W        W39656  21.728  35.098   0.960
67232W        W39657  12.678  26.134   0.958
67233W        W39658  23.756  40.789   0.930
67234W        W39659  29.480  39.772   1.279
67235W        W39660  37.376  35.015  13.862
67236W        W39661  18.082  16.274   4.079
67237W        W39662  26.499  27.470   0.380
67238W        W39663  26.551  26.773   3.701
67239W        W39664  37.277  40.516   3.212
67240W        W39665  10.012  24.116   2.371
67241W        W39666  30.605  28.435  14.491
67242W        W39667  40.751  16.765   4.795
67243W        W39668  33.862  27.558   4.765
67244W        W39669  38.047   1.055   0.880
67245W        W39670   0.663  15.663  14.021
67246W        W39671  29.640  12.552  10.994
67247W        W39672  22.711  14.257  11.646
67248W        W39673  19.520  32.914   3.283
67249W        W39674  31.142  22.906   2.180
67250W        W39675   3.821  29.982  12.446
67251W        W39676   7.839  17.673   0.944
67252W        W39677   5.284  37.316  13.635
67253W        W39678   3.953   4.244  10.577
67254W        W39679   3.215  10.547   3.575
67255W        W39680  36.233  22.124  11.436
67256W        W39681   2.919  21.795  10.467
67257W        W39682  39.104  22.022  12.214
67258W        W39683  40.472  33.607   5.165
67259W        W39684  26.548  19.312  14.428
67260W        W39685  33.487  12.818  14.618
67261W        W39686  17.822  11.332   4.191
67262W        W39687  11.820   6.756   0.498
67263W        W39688  19.562  18.579   0.925
67264W        W39689  29.119  13.805   1.699
67265W        W39690  38.905  42.832  14.070
67266W        W39691  15.086  38.088  14.976
67267W        W39692  18.103  29.440  12.067
67268W        W39693   4.789  39.883  11.591
67269W        W39694  12.210  10.849  14.333
67270W        W39695  21.248  25.916   1.226
67271W        W39696   4.185  25.879  13.567
67272W        W39697  37.237  32.731  11.625
67273W        W39698  19.717   9.147   2.143
67274W        W39699  29.907  32.414  12.400
67275W        W39700  22.576  38.342   1.113
67276W        W39701  32.571  36.256  11.443
67277W        W39702  12.768   4.114   4.155
67278W        W39703   2.506   1.828  13.061
67279W        W39704  11.842  13.342  12.936
67280W        W39705  41.968  36.542  12.952
67281W        W39706  10.857  28.448  12.760
67282W        W39707   0.899  24.944   3.175
67283W        W39708   8.189  39.988  13.335
67284W        W39709  10.850  33.011  10.938
67285W        W39710   7.555  37.328   0.376
67286W        W39711  33.979  31.879   2.604
67287W        W39712  13.868   3.904  11.278
67288W        W39713  37.511  27.436  10.679
67289W        W39714  15.813   1.872  13.080
67290W        W39715  21.827  30.422   1.298
67291W        W39716   9.458  22.220  14.070
67292W        W39717  26.721  35.729   1.787
67293W        W39718   8.445  22.586   1.449
67294W        W39719  40.340  28.392  10.800
67295W        W39720   8.736   4.195  11.532
67296W        W39721  37.543  30.943  14.954
67297W        W39722  16.314  36.115   1.912
67298W        W39723  29.063  11.708  13.476
67299W        W39724  33.730   5.792   2.233
67300W        W39725  37.795   4.728   0.382
67301W        W39726   8.747  35.330  10.247
67302W        W39727  28.461  30.961   4.250
67303W        W39728   3.319  37.372   2.171
67304W        W39729   4.778  34.121   0.053
67305W        W39730  21.099  28.003   4.099
67306W        W39731  40.527  21.734   2.388
67307W        W39732  34.105  16.208   4.417
67308W        W39733  20.880  20.023  13.808
67309W        W39734   9.299   0.395   3.933
67310W        W39735  16.017  33.055  12.008
67311W        W39736  18.356  44.650   3.133
67312W        W39737  10.608  28.544  10.392
67313W        W39738   6.119  26.773   4.464
67314W        W39739  38.999  34.125   3.336
67315W        W39740  24.441  15.175   3.307
67316W        W39741   7.462  33.341  11.644
67317W        W39742  12.547  36.280  11.375
67318W        W39743  16.059  15.757   1.357
67319W        W39744  17.588   1.507   9.956
67320W        W39745   0.381  24.237   3.317
67321W        W39746   5.834  17.482   3.564
67322W        W39747  37.087  37.364  14.803
67323W        W39748  16.029  41.896   2.309
67324W        W39749  16.882  31.388  14.717
67325W        W39750  25.192  28.634  14.625
67326W        W39751  34.985  37.275  10.275
67327W        W39752   0.875  26.655   2.683
67328W        W39753  14.315   9.328   4.409
67329W        W39754  24.176  27.024   1.768
67330W        W39755   7.900  18.233   1.866
67331W        W39756  21.630  37.042  13.844
67332W        W39757  11.273  25.037   0.857
67333W        W39758  24.825  43.626   0.237
67334W        W39759  11.264  44.789  14.803
67335W        W39760  35.845  15.266   1.630
67336W        W39761  33.246  24.743  13.427
67337W        W39762   2.343  32.772   2.106
67338W        W39763  22.697   0.391   2.455
67339W        W39764   0.415  27.970  13.816
67340W        W39765  38.560   8.922  12.929
67341W        W39766  28.914   0.477  13.818
67342W        W39767  20.445  38.893   1.847
67343W        W39768  41.258  17.831   3.232
67344W        W39769  28.662  21.667   3.334
67345W        W39770   5.292   3.636  10.722
67346W        W39771  43.804   0.345   0.429
67347W        W39772   9.415   0.837   3.153
67348W        W39773   7.880  15.321  11.127
67349W        W39774  29.325  27.990  11.128
67350W        W39775  23.432  37.491   0.922
67351W        W39776  22.593  43.024  11.954
67352W        W39777  20.636  38.214  11.419
67353W        W39778  32.988   6.320   3.924
67354W        W39779  22.618  39.061  14.316
67355W        W39780  10.140  15.958   4.543
67356W        W39781  34.592  39.570   2.644
67357W        W39782   3.603  35.343  11.655
67358W        W39783   3.763  40.096  14.789
67359W        W39784  41.112  36.493  10.902
67360W        W39785   1.516  24.742   0.050
67361W        W39786  25.490  16.730  11.907
67362W        W39787  22.319  21.966   2.448
67363W        W39788  10.766   9.687   0.279
67364W        W39789  14.147  44.590   2.888
67365W        W39790  25.917  12.762   1.394
67366W        W39791  39.430  16.317  14.360
67367W        W39792  22.257  25.524   4.641
67368W        W39793  11.245  15.130   2.404
67369W        W39794   5.721   6.802   4.332
67370W        W39795  24.869   1.944   0.926
67371W        W39796  22.170  43.577   1.627
67372W        W39797   0.800   8.533   3.205
67373W        W39798   9.278  29.429   1.943
67374W        W39799  30.465  26.768  13.798
67375W        W39800  25.002   9.329  11.622
67376W        W39801  18.190  16.352   1.464
67377W        W39802  25.698  40.236   4.788
67378W        W39803   8.467  23.762   1.820
67379W        W39804  18.185  20.809  12.983
67380W        W39805  21.425  36.276  14.874
67381W        W39806  40.524  15.349  12.075
67382W        W39807  42.326  21.961  10.482
67383W        W39808   9.187   4.144   0.273
67384W        W39809   5.870   0.959  14.865
67385W        W39810  42.499  27.161  11.926
67386W        W39811  35.971  43.936  13.880
67387W        W39812   9.228   7.328  12.542
67388W        W39813   5.212  35.557   3.375
67389W        W39814   7.131  19.133  12.558
67390W        W39815  43.988   0.175   0.897
67391W        W39816  24.708  23.669   2.865
67392W        W39817  25.135  32.074  11.402
67393W        W39818   3.771  17.350   2.259
67394W        W39819  32.926  42.338  12.030
67395W        W39820   9.460  21.743  10.677
67396W        W39821  32.689   1.689  13.938
67397W        W39822  29.446  29.489   0.795
67398W        W39823  11.890  27.900   2.839
67399W        W39824  37.624  33.033  11.835
67400W        W39825  41.591   5.900  14.388
67401W        W39826  14.293  24.297  13.440
67402W        W39827  24.525  11.166  11.545
67403W        W39828   8.143  26.188  11.959
67404W        W39829  44.784   7.241  12.123
67405W        W39830  43.832  16.567  12.437
67406W        W39831  21.869  24.740  13.263
67407W        W39832  35.904  30.051  14.780
67408W        W39833   1.490  28.187   1.807
67409W        W39834   3.972  41.349   0.974
67410W        W39835   5.186   7.730   3.744
67411W        W39836  13.285  14.083   0.242
67412W        W39837  37.155   0.986   3.336
67413W        W39838  40.325  11.379   4.449
67414W        W39839  36.882   3.829  11.990
67415W        W39840  41.387  34.839  11.553
67416W        W39841   0.766   9.284   3.700
67417W        W39842  37.949  25.391  12.894
67418W        W39843   0.937  18.107  14.330
67419W        W39844  18.308  12.132   2.814
67420W        W39845  22.134  17.310   0.784
67421W        W39846  27.410  13.395   4.125
67422W        W39847  24.206  42.271  13.105
67423W        W39848  14.711  33.252   0.389
67424W        W39849  17.969  16.303  13.708
67425W        W39850  26.378  29.704  13.347
67426W        W39851   0.392   4.671  11.228
67427W        W39852  35.417   9.183  13.873
67428W        W39853  34.880  28.160   3.432
67429W        W39854   1.812   4.427  11.707
67430W        W39855   3.918  10.725   0.471
67431W        W39856   7.691  26.291  11.650
67432W        W39857  13.600   8.721  12.349
67433W        W39858   5.770   2.773   4.199
67434W        W39859  29.951  25.611   3.550
67435W        W39860  20.077  39.472  10.467
67436W        W39861  16.366  18.349   2.414
67437W        W39862  38.132  11.681   2.251
67438W        W39863   7.707   4.268  10.696
67439W        W39864   9.819  27.406   0.031
67440W        W39865  42.476  40.837   2.729
67441W        W39866  40.297  18.020  10.717
67442W        W39867  10.836  12.731  12.731
67443W        W39868  21.243  37.979   0.431
67444W        W39869   0.922  37.490  13.573
67445W        W39870   4.181  19.327  14.815
67446W        W39871  38.629  41.483  13.030
67447W        W39872  38.339  16.764  11.581
67448W        W39873  40.063  17.067  14.805
67449W        W39874  25.099  41.579  14.743
67450W        W39875  32.736  26.101  10.637
67451W        W39876  30.707  39.042   0.586
67452W        W39877  30.478   9.753  11.229
67453W        W39878  14.733  29.943  13.874
67454W        W39879  28.746  20.807   3.316
67455W        W39880  31.347  23.818   4.708
67456W        W39881  16.713   8.328  12.369
67457W        W39882   2.691  27.801  10.795
67458W        W39883  22.680  23.608  12.170
67459W        W39884  35.376   5.010   3.306
67460W        W39885  24.080  12.657  13.381
67461W        W39886  34.606  11.895  14.416
67462W        W39887   9.359  33.159   2.273
67463W        W39888  44.578  19.839  11.116
67464W        W39889  23.545  36.522   1.164
67465W        W39890  10.823  30.996   0.921
67466W        W39891   7.369  23.524  13.936
67467W        W39892  12.327  37.503   1.229
67468W        W39893   1.823  22.925   1.570
67469W        W39894   9.716  16.215   2.881
67470W        W39895  43.133   0.695   4.104
67471W        W39896  29.710   7.402   4.603
67472W        W39897  27.058  25.666   3.409
67473W        W39898  34.206  35.463   3.188
67474W        W39899  39.128  34.623   4.144
67475W        W39900  33.858  32.935   0.468
67476W        W39901  42.349  25.069   0.197
67477W        W39902  16.236  15.184   2.167
67478W        W39903  39.985  44.047   4.133
67479W        W39904   8.248   5.247  11.743
67480W        W39905  10.576  19.315   5.076
67481W        W39906  30.994  20.342  12.811
67482W        W39907  13.062  31.113  12.436
67483W        W39908   4.803  22.147  10.631
67484W        W39909  44.695   6.681  12.829
67485W        W39910   4.000  11.700  11.250
67486W        W39911  26.121  29.189   2.217
67487W        W39912  13.514  11.619   4.272
67488W        W39913   8.194  16.746   0.897
67489W        W39914  19.863  31.530  13.825
67490W        W39915  31.550  27.211   4.175
67491W        W39916  35.164  38.311  14.456
67492W        W39917  31.501  30.839   0.025
67493W        W39918  42.274  10.842   3.222
67494W        W39919  35.423  43.213   3.669
67495W        W39920  33.028  29.526   4.482
67496W        W39921   4.272  38.215  11.617
67497W        W39922  37.637   3.892  12.446
67498W        W39923  37.319  18.534   3.699
67499W        W39924  33.914  27.408   4.293
67500W        W39925  22.164   8.780   0.062
67501W        W39926  37.386  34.594   4.208
67502W        W39927  20.501  37.006  13.458
67503W        W39928  10.131  28.994  14.423
67504W        W39929   0.268  15.988   3.902
67505W        W39930  34.622  26.008  12.912
67506W        W39931  41.099  28.030  13.380
67507W        W39932  41.772   0.334   2.563
67508W        W39933   8.305  23.925  11.553
67509W        W39934  12.192  19.973  14.776
67510W        W39935  17.625  21.288   2.213
67511W        W39936  23.902  28.542  13.419
67512W        W39937  16.021  25.623   3.225
67513W        W39938  20.408  15.463  12.408
67514W        W39939   2.170  35.002  13.117
67515W        W39940  29.104  29.072   3.914
67516W        W39941  11.810  29.612   3.973
67517W        W39942  16.157  28.791   4.565
67518W        W39943   6.148  34.084  14.185
67519W        W39944  19.644  31.713   0.843
67520W        W39945  33.463  23.667   0.691
67521W        W39946  38.180  11.342  12.121
67522W        W39947  39.761  42.105   0.312
67523W        W39948  11.383  13.916   2.423
67524W        W39949  35.130  44.934  12.576
67525W        W39950  36.472   9.919  12.505
67526W        W39951  16.614  11.617   3.909
67527W        W39952  33.078  34.114   4.015
67528W        W39953   4.638  30.547   0.245
67529W        W39954  23.571   2.441   1.297
67530W        W39955  40.538  15.667  14.804
67531W        W39956  13.356   3.895  14.498
67532W        W39957  42.424  42.251  13.549
67533W        W39958  23.601   3.170  11.865
67534W        W39959  42.196   3.201   4.899
67535W        W39960  34.552  28.905  13.925
67536W        W39961  27.251  34.629  12.963
67537W        W39962  14.682  15.571   4.151
67538W        W39963   4.708  25.932  12.873
67539W        W39964  22.768   9.633  10.566
67540W        W39965  35.937  24.466   4.511
67541W        W39966  16.508  38.064  14.678
67542W        W39967   2.506  32.631  12.577
67543W        W39968  29.007  28.903  11.540
67544W        W39969  16.289  20.042  14.843
67545W        W39970  18.717   4.774   4.396
67546W        W39971  34.266  35.887   4.959
67547W        W39972  42.331  11.155  13.502
67548W        W39973  26.536  20.420   4.536
67549W        W39974  36.949  34.370  11.746
67550W        W39975  32.747  30.598   5.221
67551W        W39976  35.659  22.154  13.338
67552W        W39977  40.985  29.640   1.857
67553W        W39978   7.453  26.570  10.333
67554W        W39979  44.300  26.047   2.716
67555W        W39980   1.926  44.274   1.052
67556W        W39981  37.349  14.340   3.153
67557W        W39982   7.429  33.601  13.864
67558W        W39983  34.658  16.447  11.504
67559W        W39984  28.652  36.871   0.252
67560W        W39985  26.470  11.186  14.463
67561W        W39986  34.100  33.091   4.150
67562W        W39987   3.931  35.980   4.483
67563W        W39988  41.557  36.075  12.055
67564W        W39989  38.308  10.692  12.012
67565W        W39990  31.201  27.207  10.932
67566W        W39991  10.365  17.944  13.839
67567W        W39992  10.782   3.982   0.716
67568W        W39993  17.730  14.402  10.734
67569W        W39994   5.229   1.565  10.953
67570W        W39995  34.860  40.961   4.575
67571W        W39996  38.270  40.953  12.251
67572W        W39997  10.179   9.349   4.188
67573W        W39998  35.298  20.503   0.569
67574W        W39999  39.913  23.112  14.418
67575W        W40000  20.144  42.738  11.044
67576W        W40001  34.783  30.217  13.072
67577W        W40002   2.865  12.214   3.228
67578W        W40003  31.034  31.218   3.585
67579W        W40004  35.389  33.160  13.338
67580W        W40005   5.357  36.641   3.412
67581W        W40006  30.829   9.668  11.638
67582W        W40007  11.819  31.733  12.359
67583W        W40008  12.788  15.098   2.441
67584W        W40009  32.050  43.487   2.550
67585W        W40010  39.263   7.660  10.285
67586W        W40011   9.886   2.895   3.292
67587W        W40012  29.936  33.291  14.719
67588W        W40013  32.476  42.084   4.146
67589W        W40014   0.127  21.224   1.545
67590W        W40015  15.086  13.003   1.418
67591W        W40016  37.588  35.344  10.616
67592W        W40017  40.472  28.976   3.865
67593W        W40018  20.253  42.462  14.254
67594W        W40019  17.761  30.256   4.685
67595W        W40020  31.468  13.286   1.869
67596W        W40021  32.509  39.878   0.977
67597W        W40022  42.494  28.741   0.372
67598W        W40023  39.454  28.803  12.758
67599W        W40024  16.201  43.850   4.385
67600W        W40025   7.654  30.991   3.357
67601W        W40026  30.420  40.265   1.775
67602W        W40027  21.638  34.871  11.365
67603W        W40028  22.369  22.919  11.054
67604W        W40029  29.964  11.068   1.737
67605W        W40030  21.752  23.067   0.468
67606W        W40031  34.658  26.574   2.785
67607W        W40032  23.755  37.857   3.157
67608W        W40033  44.406   8.254   0.292
67609W        W40034   4.532   0.488   2.172
67610W        W40035  36.966  23.426   3.690
67611W        W40036  10.749  10.340  11.891
67612W        W40037  43.530  43.321   2.744
67613W        W40038  37.252  43.607   0.105
67614W        W40039   6.246  30.029  13.821
67615W        W40040  20.090  24.419  12.908
67616W        W40041  12.768  43.605   3.611
67617W        W40042  29.095  18.737   1.213
67618W        W40043  26.774   2.374  11.055
67619W        W40044   7.823   2.821  10.788
67620W        W40045  20.691  20.265   2.385
67621W        W40046   5.626  19.707  12.116
67622W        W40047   5.208   6.224   2.735
67623W        W40048  35.033   8.732  11.967
67624W        W40049  13.810  11.562   3.318
67625W        W40050   8.470   0.467   1.231
67626W        W40051  33.533  20.847  10.459
67627W        W40052  31.462  36.983  14.779
67628W        W40053   7.591   1.748  12.917
67629W        W40054   8.742   9.734   2.416
67630W        W40055  13.317   1.978   2.806
67631W        W40056  27.185  36.652  13.374
67632W        W40057  39.337  11.281  14.030
67633W        W40058   9.731  31.210   2.718
67634W        W40059  26.693  32.120  12.099
67635W        W40060   8.819  41.530  14.248
67636W        W40061  10.320  38.052   2.894
67637W        W40062  14.840  12.765   1.798
67638W        W40063  27.783  26.140   0.283
67639W        W40064  36.712  31.034   3.184
67640W        W40065   0.985  12.581   1.903
67641W        W40066  19.473  23.874  10.220
67642W        W40067  37.868  27.533  13.506
67643W        W40068  34.603  38.281   4.887
67644W        W40069   9.960  22.957   3.731
67645W        W40070  31.048  13.267  10.483
67646W        W40071  31.554  32.559  13.270
67647W        W40072   8.058   4.560  13.830
67648W        W40073   9.313   7.855   5.108
67649W        W40074  33.617  34.097  13.999
67650W        W40075  35.741   9.387   1.793
67651W        W40076  32.156  36.499   4.610
67652W        W40077  16.360  35.028  11.027
67653W        W40078  30.174  16.649  12.976
67654W        W40079  16.690  31.007  14.407
67655W        W40080  25.239  29.629   0.007
67656W        W40081  24.604   6.590   4.679
67657W        W40082  35.006  15.717  14.918
67658W        W40083  20.188   1.777  14.528
67659W        W40084   2.647  33.325   3.788
67660W        W40085  29.553   2.795   4.063
67661W        W40086  40.859   9.405  14.976
67662W        W40087  27.667  33.451   4.846
67663W        W40088  13.051  26.296  13.213
67664W        W40089   8.767  42.122  12.155
67665W        W40090  14.049  44.077  13.985
67666W        W40091  33.077  11.204   1.879
67667W        W40092  42.722  32.887  12.881
67668W        W40093   3.585  34.925  14.873
67669W        W40094  44.098  14.221  11.892
67670W        W40095  27.426  32.140   2.930
67671W        W40096   9.005  42.872   2.875
67672W        W40097  27.073  22.113  13.875
67673W        W40098  13.600  14.238  13.514
67674W        W40099   2.714   9.086  11.523
67675W        W40100  37.407  34.041  12.946
67676W        W40101  24.004  15.449   5.184
67677W        W40102  11.861  23.750   3.338
67678W        W40103   9.201  21.543  14.817
67679W        W40104  31.244  36.940   2.328
67680W        W40105  24.328  12.814  12.406
67681W        W40106   6.507   9.272  10.978
67682W        W40107  41.678  27.017  14.895
67683W        W40108  10.342  42.509   4.608
67684W        W40109  15.840  31.665   1.541
67685W        W40110  41.788  36.558   3.254
67686W        W40111  19.638  38.835   1.216
67687W        W40112   2.521  39.127   3.174
67688W        W40113   5.921   9.141   4.402
67689W        W40114  35.830  21.440  11.110
67690W        W40115  44.630  28.456   4.638
67691W        W40116  26.039  32.141  13.358
67692W        W40117  37.084  25.265  14.918
67693W        W40118  19.077  33.565   1.472
67694W        W40119  22.115  27.787  11.093
67695W        W40120  34.342  37.568   0.971
67696W        W40121  34.194  17.353  11.105
67697W        W40122  13.963   3.794   1.739
67698W        W40123   0.943   4.816  14.212
67699W        W40124   8.088  30.279   4.825
67700W        W40125  26.417  25.585   0.430
67701W        W40126  25.427  29.184  10.768
67702W        W40127  28.623  28.979   0.438
67703W        W40128  20.703  43.076   2.869
67704W        W40129  35.009  29.961   3.623
67705W        W40130  21.241  40.873  14.140
67706W        W40131   6.500  25.030   0.878
67707W        W40132   4.365  13.790  13.455
67708W        W40133  20.696  40.781  12.076
67709W        W40134  12.841  22.772   2.371
67710W        W40135  18.908  12.824  11.932
67711W        W40136  40.906  26.042  14.593
67712W        W40137   9.681  35.539   3.238
67713W        W40138   1.250  40.570  13.626
67714W        W40139  28.159  39.035   2.927
67715W        W40140  26.747  26.652  12.834
67716W        W40141  43.426   1.880   0.809
67717W        W40142  28.135  38.617  14.978
67718W        W40143  27.533  36.547   2.229
67719W        W40144   1.730  40.827   3.083
67720W        W40145  38.501   2.317   4.640
67721W        W40146   1.878   6.767   4.026
67722W        W40147  14.584   4.018   2.337
67723W        W40148  15.768  39.538   2.458
67724W        W40149   7.181  28.504   1.281
67725W        W40150  31.892  28.628  14.207
67726W        W40151   4.703  19.794  14.927
67727W        W40152   6.957  28.001   1.222
67728W        W40153  16.439   5.246   1.758
67729W        W40154  43.760   3.580   2.161
67730W        W40155  15.338  28.176   1.413
67731W        W40156  20.631   0.720   0.727
67732W        W40157  38.386   0.862  10.832
67733W        W40158  14.561  36.017   0.166
67734W        W40159  28.193   4.424  11.163
67735W        W40160  29.254   9.903   2.363
67736W        W40161  28.559  31.920   0.921
67737W        W40162  20.472  15.647   0.978
67738W        W40163  35.512  42.778  11.209
67739W        W40164  43.047  36.468   0.747
67740W        W40165  41.968  13.649   3.739
67741W        W40166  29.354   4.495   0.835
67742W        W40167  31.648  38.768  13.238
67743W        W40168  21.066  27.745   0.834
67744W        W40169  25.750  20.910  11.320
67745W        W40170  34.025  18.115   0.784
67746W        W40171  15.158  26.134  11.153
67747W        W40172  10.785  37.966  12.118
67748W        W40173  34.707  26.117   1.839
67749W        W40174  28.617   8.188   4.609
67750W        W40175  44.809  31.410   4.197
67751W        W40176   1.737   6.102  11.143
67752W        W40177  23.201  11.649   4.147
67753W        W40178   5.266  18.207   3.223
67754W        W40179  24.567  40.751   0.531
67755W        W40180  43.149  22.619  11.510
67756W        W40181  14.400   3.334  11.843
67757W        W40182  39.390   7.625   3.062
67758W        W40183  44.477  19.587   1.665
67759W        W40184  35.093  31.372  11.838
67760W        W40185  34.206  26.167   0.360
67761W        W40186   5.184  17.646  12.515
67762W        W40187  20.120  15.754   2.660
67763W        W40188  31.897  31.414  12.718
67764W        W40189  31.957  40.264   3.241
67765W        W40190   1.940  20.815   2.245
67766W        W40191  44.033  12.233  10.555
67767W        W40192  18.888  29.375   3.645
67768W        W40193  26.925  14.653   3.687
67769W        W40194  24.589  33.405   0.694
67770W        W40195  35.364  36.868   1.818
67771W        W40196  35.582  12.408   1.236
67772W        W40197  22.268  37.108   0.328
67773W        W40198  34.917  40.881   2.259
67774W        W40199   3.865  26.160   2.368
67775W        W40200  44.133  31.085   1.982
67776W        W40201  12.388  39.994  13.502
67777W        W40202  44.741   1.675   1.662
67778W        W40203  35.889  11.857   3.211
67779W        W40204  29.876  18.787   3.190
67780W        W40205  39.393  28.541  14.805
67781W        W40206  10.720  10.428   1.686
67782W        W40207  21.175  44.922   0.953
67783W        W40208  26.522   5.551   3.934
67784W        W40209  36.203  39.057   1.988
67785W        W40210  26.825  34.356   1.855
67786W        W40211  10.559  12.379  14.871
67787W        W40212   2.624  25.004   3.690
67788W        W40213   1.280  14.797  12.276
67789W        W40214   4.448  11.442  11.262
67790W        W40215  32.961  17.698  14.718
67791W        W40216  28.111   6.669   1.170
67792W        W40217  10.228  30.420  14.129
67793W        W40218  30.870  41.322   0.424
67794W        W40219   5.985  37.313   5.149
67795W        W40220  28.757  40.577   1.414
67796W        W40221  28.838  16.405   1.420
67797W        W40222   0.756  21.098  10.553
67798W        W40223  14.871  17.195   2.487
67799W        W40224  38.855  44.355  11.749
67800W        W40225  23.110  21.217  10.525
67801W        W40226  42.289   9.555  11.593
67802W        W40227  25.743  29.411  14.108
67803W        W40228  44.894   3.012   1.237
67804W        W40229  44.044  10.235   2.166
67805W        W40230   8.319   2.495   0.494
67806W        W40231  38.016  31.969  13.051
67807W        W40232  29.264   4.309   4.546
67808W        W40233  16.003  25.022   2.905
67809W        W40234  39.954  26.458  14.354
67810W        W40235  30.536  15.306   1.662
67811W        W40236   0.276  23.034   2.171
67812W        W40237  11.604   7.065   4.569
67813W        W40238  23.505  10.846  14.424
67814W        W40239  18.264  29.184   4.056
67815W        W40240  11.373  32.725  11.919
67816W        W40241  41.904  25.704   3.220
67817W        W40242  13.263  44.292   2.406
67818W        W40243  37.086   6.982   0.709
67819W        W40244  35.367  29.083   0.725
67820W        W40245  32.615  32.150   2.697
67821W        W40246  21.855  18.105  14.285
67822W        W40247  18.792  26.485  12.508
67823W        W40248  22.448  25.012   4.680
67824W        W40249   0.785  21.716  12.172
67825W        W40250   9.893  34.986   3.344
67826W        W40251  39.338  13.683   0.906
67827W        W40252  44.058  22.524  12.818
67828W        W40253  42.213   0.243   2.286
67829W        W40254  39.773  27.520  10.628
67830W        W40255   2.633   5.252  13.847
67831W        W40256  18.714  40.360   4.391
67832W        W40257  31.575  35.770   4.522
67833W        W40258  24.317  11.884   2.221
67834W        W40259   2.945  29.324   4.340
67835W        W40260  34.739  24.065   3.315
67836W        W40261  19.641   8.929  13.404
67837W        W40262   3.487   3.816  14.966
67838W        W40263  16.093  14.549  11.544
67839W        W40264  38.558  34.372   3.259
67840W        W40265   9.813  36.126  13.320
67841W        W40266  21.141   8.159  11.708
67842W        W40267  41.326   4.265  12.291
67843W        W40268  42.346  34.600  14.962
67844W        W40269  19.679  32.027  10.507
67845W        W40270   2.506  11.295   1.421
67846W        W40271  33.575   0.432  11.609
67847W        W40272  22.074  20.846   2.698
67848W        W40273  44.390  42.026  12.101
67849W        W40274   6.151  40.040   0.529
67850W        W40275  30.614  14.628  12.427
67851W        W40276  20.793  22.195  14.526
67852W        W40277  31.888   3.372  13.451
67853W        W40278  39.535   4.831   4.438
67854W        W40279   6.615  29.444   3.198
67855W        W40280  31.734  27.426   4.605
67856W        W40281   0.337  13.235   2.725
67857W        W40282  21.758  40.975   0.833
67858W        W40283  26.115   0.386  14.413
67859W        W40284  32.373  32.204   0.165
67860W        W40285  16.081  23.659   1.231
67861W        W40286   4.787  21.437  12.581
67862W        W40287  23.151  38.297  14.390
67863W        W40288  36.107  23.856   1.298
67864W        W40289  30.301  15.973   0.179
67865W        W40290  17.291   8.292  10.737
67866W        W40291  28.193  25.704   4.741
67867W        W40292   0.689  36.079  14.154
67868W        W40293  32.394   6.624  14.848
67869W        W40294  42.375  39.430  10.760
67870W        W40295  41.762   1.820   1.650
67871W        W40296  35.827  39.968   1.899
67872W        W40297  14.888  16.546  13.012
67873W        W40298  19.625   1.514   2.476
67874W        W40299  19.863  11.203  10.771
67875W        W40300  41.642  18.726  13.937
67876W        W40301  31.434   2.266  12.127
67877W        W40302  30.176  30.597   0.487
67878W        W40303  31.316  29.041   0.954
67879W        W40304  14.713  41.845   2.856
67880W        W40305  32.715  30.012   1.939
67881W        W40306  26.430  17.361  12.816
67882W        W40307  21.281   2.271   2.177
67883W        W40308  43.842  11.725  13.357
67884W        W40309  22.779  30.660  11.977
67885W        W40310   4.682   0.902  10.889
67886W        W40311  34.573   2.812   4.581
67887W        W40312  15.553   0.544  12.010
67888W        W40313  11.419  28.949   1.222
67889W        W40314   6.203  36.375  10.633
67890W        W40315  21.988  21.229  13.959
67891W        W40316  11.138  42.159   0.421
67892W        W40317   6.337  32.683  11.910
67893W        W40318  19.625   2.673   0.621
67894W        W40319  26.348  19.750  12.055
67895W        W40320  41.577  21.241  13.383
67896W        W40321  30.406  22.649   1.333
67897W        W40322  42.066  19.517  14.876
67898W        W40323  22.507  13.127   3.184
67899W        W40324  17.560  29.010  13.693
67900W        W40325  43.000   3.731  13.098
67901W        W40326  10.296  11.533  11.702
67902W        W40327  35.974  37.960  14.535
67903W        W40328  44.183  30.090  11.096
67904W        W40329  22.308  22.121  14.857
67905W        W40330  38.947  37.569   2.196
67906W        W40331  25.016  40.618   0.739
67907W        W40332  21.269  20.509  14.960
67908W        W40333  20.639  41.730   4.590
67909W        W40334  13.009  32.031   3.685
67910W        W40335  26.804  24.670   0.839
67911W        W40336  39.991  42.840   2.684
67912W        W40337  13.393  30.182  11.597
67913W        W40338  18.151   4.364  13.820
67914W        W40339  24.929  12.352   4.124
67915W        W40340  16.556  40.756  13.062
67916W        W40341  15.205  42.713   2.632
67917W        W40342  35.311  14.076  14.095
67918W        W40343  27.526  31.574  14.348
67919W        W40344  13.071   5.458   0.752
67920W        W40345  31.561   9.793  12.395
67921W        W40346  40.509  16.806   3.253
67922W        W40347  34.636  31.095  13.530
67923W        W40348  30.539  42.555   2.409
67924W        W40349   4.852  41.572   1.860
67925W        W40350  19.106  21.762   2.726
67926W        W40351  15.585  38.995  11.455
67927W        W40352  42.717  35.008   1.826
67928W        W40353  10.393  24.679  11.085
67929W        W40354  40.757  20.580   4.890
67930W        W40355   9.960  34.926  13.974
67931W        W40356  27.118  17.741  14.871
67932W        W40357  35.215  27.560  13.250
67933W        W40358  17.193  38.111   0.958
67934W        W40359  20.061  28.891   3.141
67935W        W40360  41.982  17.040   2.644
67936W        W40361  20.773  13.343   4.497
67937W        W40362  15.369  14.128   2.242
67938W        W40363  30.510   2.660  10.393
67939W        W40364  19.112  36.346  13.867
67940W        W40365  36.459  38.599  12.445
67941W        W40366  42.971  10.667  12.619
67942W        W40367  20.071  23.708  13.404
67943W        W40368  36.109  44.409   1.402
67944W        W40369  43.695  39.450  11.020
67945W        W40370   5.650   7.938   0.751
67946W        W40371  12.975   4.966   4.441
67947W        W40372   8.600  27.732  13.100
67948W        W40373   6.840   2.277   2.858
67949W        W40374  30.609  38.433  13.708
67950W        W40375  44.144  27.207   4.094
67951W        W40376  39.322   6.166   3.617
67952W        W40377  14.319   6.652  11.115
67953W        W40378   7.200  26.896   3.152
67954W        W40379  17.108  44.381   2.817
67955W        W40380   5.055   0.503   3.728
67956W        W40381  16.572  30.698  13.992
67957W        W40382  42.580   8.638  11.479
67958W        W40383  29.214  38.390  14.972
67959W        W40384  26.530  22.677   2.666
67960W        W40385  30.189   5.626  13.529
67961W        W40386  20.139  30.779  12.433
67962W        W40387  27.958  21.923   3.583
67963W        W40388  10.183   9.864   4.205
67964W        W40389   0.911  29.933  14.092
67965W        W40390  12.779   0.879  12.026
67966W        W40391  36.118  13.247   3.753
67967W        W40392  18.635  41.852  14.773
67968W        W40393   3.540   4.955  12.011
67969W        W40394   9.225   2.410   1.888
67970W        W40395   9.637  25.153  14.468
67971W        W40396  27.658  21.418   0.399
67972W        W40397  20.598   8.921   4.052
67973W        W40398   1.267   8.280   1.325
67974W        W40399   7.831  43.219   4.204
67975W        W40400  27.686  39.021   2.720
67976W        W40401  14.357  23.122   0.674
67977W        W40402  29.661  19.298  13.814
67978W        W40403  38.194  42.937   9.699
67979W        W40404   2.471  39.444  13.834
67980W        W40405  20.062  34.476   3.783
67981W        W40406  14.559  29.467   3.685
67982W        W40407  42.929   9.718   0.823
67983W        W40408  42.853  16.049  14.732
67984W        W40409  42.946  31.165  12.437
67985W        W40410  12.815  26.702  11.564
67986W        W40411   6.967  43.844   0.769
67987W        W40412  12.708  31.061   0.217
67988W        W40413  27.265  39.402  13.750
67989W        W40414  42.801  30.587   2.671
67990W        W40415  30.151   5.923   3.582
67991W        W40416  40.442  12.277  13.935
67992W        W40417  22.347  18.184  14.091
67993W        W40418   7.567   5.910   3.677
67994W        W40419  25.753  13.430  11.111
67995W        W40420  28.132  22.309   3.233
67996W        W40421  28.024   3.797   1.258
67997W        W40422  36.383  28.959  11.155
67998W        W40423   5.314  16.412  10.876
67999W        W40424  20.801  40.309  12.241
68000W        W40425   3.303   5.714   0.080
68001W        W40426  18.053  21.922   3.168
68002W        W40427  24.680  32.146   2.184
68003W        W40428   0.963   0.142  13.486
68004W        W40429  33.344  37.119   1.750
68005W        W40430  40.811  19.131  12.443
68006W        W40431  36.469  44.456   3.351
68007W        W40432  10.654  12.068   4.849
68008W        W40433  21.849   5.919   0.877
68009W        W40434  21.082   0.329   1.271
68010W        W40435  34.585  40.114   3.772
68011W        W40436  39.267   8.055   5.037
68012W        W40437  23.524  10.787  11.540
68013W        W40438  42.802   8.861   0.404
68014W        W40439  11.211  20.313  10.760
68015W        W40440  29.598  13.708   0.360
68016W        W40441   5.766   2.174  12.153
68017W        W40442  12.256  13.617   4.230
68018W        W40443   6.739  42.894   2.191
68019W        W40444  28.019  19.475  10.319
68020W        W40445  34.221  18.048   5.058
68021W        W40446  37.903  10.537   4.112
68022W        W40447  24.550  37.070   0.446
68023W        W40448  43.751  18.585  12.434
68024W        W40449  34.323  23.728  14.493
68025W        W40450  18.630  34.211  13.146
68026W        W40451  16.680  42.026  11.638
68027W        W40452  22.947  26.206  13.376
68028W        W40453  33.610  30.415   1.274
68029W        W40454   4.349  36.399  14.943
68030W        W40455  10.646  31.919  11.106
68031W        W40456  10.701  42.322   0.711
68032W        W40457   5.787  38.607  12.589
68033W        W40458  43.628  37.524   5.075
68034W        W40459  39.764   1.860   4.822
68035W        W40460  42.022  33.966  13.747
68036W        W40461  27.976   0.214   0.925
68037W        W40462  40.740  44.611   2.775
68038W        W40463   6.979   2.458   1.229
68039W        W40464  33.038  29.986  10.656
68040W        W40465  12.898  17.598   2.348
68041W        W40466   7.027  11.747   2.614
68042W        W40467  43.926  17.064  12.704
68043W        W40468  31.202   8.944  12.399
68044W        W40469  19.967   1.638  10.168
68045W        W40470   2.475   6.182   1.771
68046W        W40471  31.294  23.328   4.568
68047W        W40472  13.670  30.807  14.908
68048W        W40473  20.322  32.873  14.824
68049W        W40474   6.237  26.032   3.728
68050W        W40475  15.552   8.467  11.295
68051W        W40476  10.932   6.997  13.016
68052W        W40477   7.574  44.005   2.757
68053W        W40478   5.282   1.607  13.515
68054W        W40479  25.767  39.410  11.564
68055W        W40480  25.497   1.965  11.957
68056W        W40481  18.016   1.750   2.362
68057W        W40482   0.107  32.018   4.472
68058W        W40483  31.388   3.347  13.541
68059W        W40484  22.125  13.351   0.488
68060W        W40485  33.104  32.525  14.982
68061W        W40486  34.911   2.786   0.287
68062W        W40487  32.817  28.123  14.899
68063W        W40488  10.737  36.578   3.884
68064W        W40489   5.032  28.212   2.950
68065W        W40490  20.073   4.814   4.718
68066W        W40491   0.518  26.053  11.057
68067W        W40492  25.734  18.789   3.899
68068W        W40493  41.267  26.050  11.138
68069W        W40494  16.329  19.692   2.681
68070W        W40495   5.875  29.908  12.964
68071W        W40496  22.698   9.122   1.051
68072W        W40497  32.046   5.438  14.408
68073W        W40498  42.295  19.253   3.636
68074W        W40499  27.428  42.741   2.285
68075W        W40500  19.169   5.423   0.522
68076W        W40501   5.759  11.768  14.995
68077W        W40502  35.896   7.623   4.052
68078W        W40503  40.338  10.993  12.870
68079W        W40504  29.952   4.357  12.488
68080W        W40505  39.048  19.061  13.080
68081W        W40506  38.080  44.343   3.319
68082W        W40507  12.992  39.035  13.291
68083W        W40508  21.537  15.154   1.597
68084W        W40509  23.131   3.679  10.634
68085W        W40510  39.527  41.623   2.911
68086W        W40511  41.030  40.601  11.208
68087W        W40512   0.900  43.122  11.574
68088W        W40513   0.260  12.651  10.783
68089W        W40514  15.573  30.349  14.279
68090W        W40515  37.054  14.630   1.424
68091W        W40516  37.440  29.140   0.789
68092W        W40517  27.289  12.308  10.682
68093W        W40518   9.394  41.124  12.548
68094W        W40519   6.235   2.956  11.668
68095W        W40520   1.392  41.945   2.281
68096W        W40521  44.468  42.414  12.811
68097W        W40522  43.613  21.873   1.871
68098W        W40523  13.939  23.772   5.043
68099W        W40524  16.705  22.705   1.893
68100W        W40525   5.410   5.179  10.551
68101W        W40526  38.483   6.234   0.665
68102W        W40527   2.962  31.497  14.435
68103W        W40528  44.453  10.645  14.920
68104W        W40529  41.851  21.274   3.786
68105W        W40530  12.751  23.730  14.785
68106W        W40531  19.271  21.257   2.678
68107W        W40532  38.663  22.161   2.618
68108W        W40533  17.627   3.269   0.300
68109W        W40534  14.589  35.524  13.353
68110W        W40535  34.213  16.231  14.968
68111W        W40536  35.097   6.304   1.284
68112W        W40537  39.501  29.996   4.609
68113W        W40538  18.239   3.680   2.899
68114W        W40539   5.317  21.984   0.281
68115W        W40540   5.312  20.054  13.408
68116W        W40541  36.496  43.281  12.325
68117W        W40542   2.721   3.466   2.371
68118W        W40543   0.048  30.019   2.952
68119W        W40544  10.718  21.008   0.345
68120W        W40545  19.652  12.417   0.940
68121W        W40546  35.319  44.991  14.497
68122W        W40547   6.579  12.248  10.735
68123W        W40548  34.580   5.367   3.510
68124W        W40549  37.074  21.723  11.705
68125W        W40550  34.162   0.864   1.252
68126W        W40551  34.451  21.143  13.598
68127W        W40552   9.448   3.956   1.279
68128W        W40553  12.381  32.920  13.844
68129W        W40554  27.826  24.826  11.537
68130W        W40555  27.009  38.572  12.023
68131W        W40556  19.113  33.546   1.995
68132W        W40557   7.644  35.612  14.200
68133W        W40558  23.408  16.262   4.131
68134W        W40559  21.666   0.458   4.382
68135W        W40560  11.698  31.592   4.825
68136W        W40561   0.984  44.067   4.135
68137W        W40562  27.738  33.468   0.197
68138W        W40563  24.182   2.811   2.791
68139W        W40564  28.421  26.675  10.618
68140W        W40565  16.823  21.954  12.830
68141W        W40566  37.850  24.658   0.778
68142W        W40567  18.772   8.176   2.692
68143W        W40568  21.993  34.041   3.869
68144W        W40569   9.586  24.623   4.064
68145W        W40570  37.993  32.947  12.665
68146W        W40571  28.530  22.877   1.275
68147W        W40572  32.585  29.488   3.242
68148W        W40573  18.674  20.128   0.563
68149W        W40574   8.883   5.425   3.606
68150W        W40575  33.851  39.092   3.642
68151W        W40576  39.032  37.414   0.027
68152W        W40577  30.978  38.598  12.055
68153W        W40578   2.173  43.769  11.739
68154W        W40579  10.243  29.007  13.389
68155W        W40580  12.378  28.501  14.889
68156W        W40581  18.194  41.502  13.953
68157W        W40582   8.758  18.225  13.059
68158W        W40583  35.481   5.231   0.928
68159W        W40584  16.199  29.617  13.071
68160W        W40585  23.454  10.246   2.170
68161W        W40586  11.199  20.716   0.301
68162W        W40587  42.663   0.995   4.984
68163W        W40588   5.424  34.981  13.066
68164W        W40589  19.365  35.252  13.361
68165W        W40590  26.733  22.169   2.682
68166W        W40591  18.543  39.412  12.075
68167W        W40592  34.200  18.245   3.737
68168W        W40593   8.961  22.136  14.862
68169W        W40594  34.130   0.409  14.822
68170W        W40595  30.509  31.618   3.205
68171W        W40596  36.082   2.686  12.340
68172W        W40597  41.484  35.460  13.262
68173W        W40598  39.024  41.434   2.856
68174W        W40599  44.502  20.874   4.660
68175W        W40600  25.163  22.040  14.510
68176W        W40601  18.688  22.234  14.508
68177W        W40602  40.220  42.498   1.389
68178W        W40603  28.111  31.478   0.299
68179W        W40604  38.629  38.005   4.441
68180W        W40605  29.623   3.383   0.445
68181W        W40606  32.103   3.815   3.675
68182W        W40607  18.108  22.942   2.842
68183W        W40608  14.016   1.883   9.922
68184W        W40609  33.920   9.454   0.812
68185W        W40610  30.393  10.800   0.269
68186W        W40611  26.342   5.740   2.966
68187W        W40612  10.445   1.563  12.928
68188W        W40613  31.462   1.855   0.934
68189W        W40614   8.829  31.062   1.136
68190W        W40615  36.645  33.640  13.335
68191W        W40616  32.346  12.839   1.675
68192W        W40617  13.673  27.570   4.363
68193W        W40618  20.088   3.955   2.264
68194W        W40619  16.744   5.760  12.092
68195W        W40620  16.694  24.293  13.823
68196W        W40621  26.256  11.009  14.961
68197W        W40622  27.188   1.209   2.850
68198W        W40623  18.456  30.272  11.853
68199W        W40624  25.758  32.622  10.416
68200W        W40625  35.103   6.323   0.271
68201W        W40626  23.495  25.287  12.030
68202W        W40627  20.568  39.020  14.112
68203W        W40628  36.813   4.781   0.301
68204W        W40629   5.889  44.468   2.872
68205W        W40630  27.155  39.437  14.265
68206W        W40631  11.376  23.204  11.928
68207W        W40632  43.915  31.000   4.215
68208W        W40633  20.066   7.043   1.491
68209W        W40634  15.557  39.882  10.973
68210W        W40635   9.542   0.958   1.308
68211W        W40636  36.001  31.592  10.436
68212W        W40637  19.315  40.912   1.366
68213W        W40638  10.698  29.504  13.892
68214W        W40639  31.692  28.331  11.760
68215W        W40640   5.174  18.651   2.282
68216W        W40641  41.454   6.345   1.657
68217W        W40642  27.026  36.483  12.910
68218W        W40643   5.841  27.602  13.541
68219W        W40644  18.867   5.192  10.741
68220W        W40645  26.484  28.164   4.084
68221W        W40646  32.480  22.721  10.673
68222W        W40647  36.499  30.467  12.711
68223W        W40648  38.355  11.649  14.273
68224W        W40649   0.489  16.205   0.994
68225W        W40650  23.746  13.215   1.822
68226W        W40651  39.515  40.470  11.325
68227W        W40652   9.430  40.110   4.067
68228W        W40653  43.844  26.249   1.755
68229W        W40654   3.882   0.048   4.868
68230W        W40655  26.678  17.079   5.123
68231W        W40656  35.329  41.288   0.202
68232W        W40657  26.085  16.300   3.195
68233W        W40658  22.668  27.069  11.976
68234W        W40659   2.344  12.639  12.372
68235W        W40660  10.115  36.602  11.051
68236W        W40661  36.934  39.787   4.150
68237W        W40662  28.989  16.191  13.753
68238W        W40663  11.457  14.675   2.449
68239W        W40664  20.078  28.134  11.406
68240W        W40665  39.376  33.442   4.722
68241W        W40666  13.186   4.777   1.539
68242W        W40667  25.643  39.631  12.081
68243W        W40668  19.667   3.695   2.103
68244W        W40669   9.825  11.731   2.207
68245W        W40670  44.706   5.090   3.310
68246W        W40671  39.957  41.626  12.861
68247W        W40672  20.207   2.161   4.184
68248W        W40673   1.133  10.187  10.693
68249W        W40674  40.758  12.130   1.171
68250W        W40675  11.953  12.300   1.567
68251W        W40676  43.886  17.695   4.764
68252W        W40677  38.062  23.506   4.555
68253W        W40678   6.320   9.754  10.810
68254W        W40679   3.983  38.052  12.026
68255W        W40680  13.823   5.879  12.422
68256W        W40681  30.127  24.586   3.341
68257W        W40682  12.112  25.246  12.868
68258W        W40683   5.800   8.852  11.610
68259W        W40684   0.758  24.206   1.492
68260W        W40685  27.872  21.060   4.625
68261W        W40686  16.708  25.135  13.395
68262W        W40687  26.421  16.790   1.473
68263W        W40688  40.078  16.222   1.888
68264W        W40689  24.815  35.743   1.716
68265W        W40690  35.020   0.331  11.112
68266W        W40691  32.350  39.816  10.715
68267W        W40692  14.413  27.738   2.456
68268W        W40693  40.004  32.161  13.231
68269W        W40694  14.223   5.137  11.839
68270W        W40695  26.465  17.153  12.013
68271W        W40696  37.861  40.836   3.494
68272W        W40697  43.739  43.117  14.779
68273W        W40698  22.487  24.176  10.908
68274W        W40699  37.235   3.486  10.392
68275W        W40700  15.273  14.377  12.966
68276W        W40701  33.875  20.160   4.461
68277W        W40702  14.299  21.602   2.328
68278W        W40703  28.412   9.087  11.089
68279W        W40704   4.205  22.089  14.456
68280W        W40705  30.908  27.630   2.257
68281W        W40706  31.364  28.053   0.909
68282W        W40707  13.837  37.366  11.625
68283W        W40708  25.499  22.481  12.001
68284W        W40709   5.064  10.613  11.574
68285W        W40710  35.846   4.296   1.909
68286W        W40711  36.096   8.815  14.362
68287W        W40712  23.510   7.389  14.576
68288W        W40713  41.086  24.279   4.980
68289W        W40714  36.133  21.690   1.874
68290W        W40715  11.655  38.558  11.987
68291W        W40716  17.808   2.352  12.452
68292W        W40717  17.503  39.986  10.739
68293W        W40718   5.521  14.014  14.012
68294W        W40719  42.338   1.949   5.054
68295W        W40720  13.835  23.285   2.834
68296W        W40721  12.375  12.276  13.379
68297W        W40722  30.005  36.790  14.230
68298W        W40723  33.908  21.750   4.862
68299W        W40724  38.333  16.205   3.254
68300W        W40725  39.051   7.312   4.028
68301W        W40726   1.466   7.735   3.231
68302W        W40727  26.791  10.055   3.068
68303W        W40728   1.852  34.365   2.262
68304W        W40729   4.392   4.743  13.045
68305W        W40730   4.294   2.290   2.675
68306W        W40731  34.625  33.143   4.132
68307W        W40732  31.997  42.337   3.286
68308W        W40733  28.828  11.595   3.406
68309W        W40734  31.066  38.810   0.275
68310W        W40735  17.103   2.448   5.389
68311W        W40736  32.489   3.512   3.868
68312W        W40737  12.429  39.926  11.698
68313W        W40738  10.290  18.632  14.366
68314W        W40739  17.102  15.058   1.865
68315W        W40740  28.951  26.815   5.101
68316W        W40741  23.947   3.743   2.855
68317W        W40742  10.871  29.592   2.589
68318W        W40743   9.850  41.863   4.736
68319W        W40744  20.316  34.285  11.607
68320W        W40745   6.176  42.076  12.937
68321W        W40746  23.215  31.481  12.099
68322W        W40747  37.117   5.701  14.964
68323W        W40748  34.823   9.803   4.402
68324W        W40749  44.352  35.981   1.819
68325W        W40750  11.896   0.989   3.155
68326W        W40751  39.710   4.359   4.302
68327W        W40752  42.611  36.914  11.049
68328W        W40753  41.134  17.627  14.085
68329W        W40754  22.224   8.446  13.871
68330W        W40755  20.651  44.467   0.460
68331W        W40756  24.975  15.352   4.087
68332W        W40757  23.491   8.332  12.155
68333W        W40758  23.229  22.168  14.982
68334W        W40759  16.275  33.513  11.998
68335W        W40760  27.684  31.260   3.151
68336W        W40761  29.743  12.677  11.467
68337W        W40762  32.315  33.904  13.556
68338W        W40763   6.067   7.796  12.485
68339W        W40764  27.846  27.550  11.703
68340W        W40765  22.453  38.887   2.618
68341W        W40766   6.637  15.004   0.287
68342W        W40767  16.065  31.913  11.150
68343W        W40768  38.299  39.362   1.383
68344W        W40769  14.816  40.140  13.903
68345W        W40770  34.793  39.100   0.739
68346W        W40771  31.958  38.924  12.841
68347W        W40772   1.139  16.412  11.639
68348W        W40773  25.424  29.927   2.656
68349W        W40774   3.480  18.737   3.294
68350W        W40775  29.901  26.411   4.233
68351W        W40776  23.456  20.212  11.665
68352W        W40777  26.024  12.195   0.202
68353W        W40778  14.238  21.966  11.243
68354W        W40779  12.056  39.797  13.166
68355W        W40780  36.151   2.016   1.703
68356W        W40781  11.088  12.700  11.089
68357W        W40782  11.197  34.032  13.764
68358W        W40783  40.295  32.262   1.714
68359W        W40784  37.805  35.754   1.344
68360W        W40785  33.433  44.368  13.768
68361W        W40786  31.358   5.391   3.913
68362W        W40787  25.494  26.475  13.759
68363W        W40788  26.948  14.560  13.541
68364W        W40789  34.425  42.731   3.130
68365W        W40790  38.574  16.025  11.101
68366W        W40791  36.317  40.034   3.612
68367W        W40792  27.172  28.189   2.312
68368W        W40793  25.982  36.594   1.198
68369W        W40794   2.725  44.971  13.551
68370W        W40795  16.681  31.631   2.605
68371W        W40796   6.810  38.831   3.406
68372W        W40797   9.422  20.841  10.642
68373W        W40798  32.274  43.548  14.955
68374W        W40799  38.964  32.652   4.552
68375W        W40800  22.863  23.620   2.615
68376W        W40801  22.045  34.662  12.822
68377W        W40802  41.982  15.703   1.741
68378W        W40803  25.262  36.021   9.873
68379W        W40804  28.092  22.572  10.273
68380W        W40805  38.802   8.743  11.678
68381W        W40806  18.535  11.518  12.458
68382W        W40807  14.355  29.477   2.821
68383W        W40808  17.465  19.588  14.434
68384W        W40809   2.459  44.603   2.333
68385W        W40810   5.257  38.117  14.404
68386W        W40811  20.330  18.719   1.428
68387W        W40812  19.928  27.211  10.705
68388W        W40813   0.942   8.269   3.703
68389W        W40814  28.103  31.035   1.677
68390W        W40815  36.455   2.868  13.938
68391W        W40816  10.905  40.971  11.628
68392W        W40817  41.317   1.400   4.295
68393W        W40818  23.938   8.763   5.427
68394W        W40819  41.987  12.091  12.364
68395W        W40820  38.281  30.932   0.715
68396W        W40821  11.781  14.189   2.004
68397W        W40822  38.704  13.173  10.169
68398W        W40823  28.630  19.087  14.490
68399W        W40824  23.548  31.326   3.763
68400W        W40825   4.486  41.830   0.080
68401W        W40826  28.861   3.711  14.293
68402W        W40827   1.282  27.915  12.392
68403W        W40828  32.439  39.870  14.530
68404W        W40829  38.001   5.733   4.627
68405W        W40830   8.287  34.202  13.375
68406W        W40831  24.378  17.363   2.141
68407W        W40832  30.650  18.058   0.918
68408W        W40833   9.159  19.767  13.013
68409W        W40834   0.282  20.716   3.639
68410W        W40835  24.238  35.653   4.662
68411W        W40836  30.008  10.003  13.384
68412W        W40837  21.997   2.194   4.404
68413W        W40838  42.858  42.370   3.327
68414W        W40839  24.580   1.823  12.119
68415W        W40840  26.496  31.962  10.640
68416W        W40841  26.687  25.725  10.809
68417W        W40842  14.244  18.002   3.574
68418W        W40843  11.265  12.537   0.486
68419W        W40844  15.800  18.912   1.534
68420W        W40845  22.069  26.711  14.325
68421W        W40846  34.986  37.579  13.406
68422W        W40847  40.455  41.547   4.024
68423W        W40848  28.121   3.295   2.914
68424W        W40849  26.969  41.980   4.110
68425W        W40850  44.403   2.071   3.718
68426W        W40851   1.082  38.191   0.177
68427W        W40852  25.715  12.876   4.037
68428W        W40853  20.408  10.511  12.651
68429W        W40854  36.057  33.955  11.420
68430W        W40855  11.931   6.841   3.348
68431W        W40856  37.264  40.043   0.761
68432W        W40857  25.823  17.514  14.370
68433W        W40858  38.463  37.453   3.600
68434W        W40859  14.120   2.299  13.930
68435W        W40860  41.299   0.930  12.695
68436W        W40861  29.809  12.987  10.291
68437W        W40862  38.884  21.232   3.334
68438W        W40863  12.678  24.667   2.161
68439W        W40864  42.344  11.124   4.093
68440W        W40865   6.955  29.506  11.102
68441W        W40866  28.031   3.674  14.707
68442W        W40867  38.882  37.168  10.926
68443W        W40868  40.954   9.609   4.570
68444W        W40869  17.348  43.708   3.895
68445W        W40870  14.349   4.139   4.139
68446W        W40871  21.787   3.914   4.192
68447W        W40872  29.129  37.625   2.388
68448W        W40873  15.002  19.699   2.676
68449W        W40874  34.030   9.638   3.863
68450W        W40875  35.204  42.990   0.852
68451W        W40876  39.623  10.845   1.748
68452W        W40877  43.355  21.006  10.546
68453W        W40878  42.984  42.716  12.520
68454W        W40879  28.455  28.667   0.049
68455W        W40880   7.341  33.376   1.797
68456W        W40881  44.932   9.699   4.129
68457W        W40882   0.989  41.309  11.503
68458W        W40883  12.157  40.353  11.528
68459W        W40884  32.066  17.103   3.784
68460W        W40885   4.433   7.390   0.958
68461W        W40886  30.359  24.750   4.728
68462W        W40887  41.428  36.780  11.458
68463W        W40888  20.775  13.200  11.558
68464W        W40889   3.276   1.993   3.804
68465W        W40890  40.064  31.024   3.678
68466W        W40891  12.302   5.278   2.240
68467W        W40892  19.720  44.969   1.368
68468W        W40893  23.126   4.145  13.651
68469W        W40894  17.655   3.232   1.383
68470W        W40895  42.039  40.369   3.269
68471W        W40896  14.184  29.955   2.692
68472W        W40897  33.617  30.043   0.873
68473W        W40898   7.537   0.801   5.066
68474W        W40899  25.154  43.949   3.099
68475W        W40900  18.760   3.301   4.681
68476W        W40901  15.375  36.924  14.790
68477W        W40902  31.489  33.902  11.625
68478W        W40903  43.405  17.757   4.522
68479W        W40904  37.348  23.634   1.480
68480W        W40905  39.447  27.937  10.509
68481W        W40906   4.763  14.717   2.384
68482W        W40907   0.855  33.639  14.285
68483W        W40908  39.345  14.991   1.826
68484W        W40909  31.567  30.326   0.145
68485W        W40910  12.711  44.885   2.157
68486W        W40911   8.168  33.233  11.061
68487W        W40912  15.679   3.829  10.771
68488W        W40913  38.636  25.068  14.955
68489W        W40914  18.520  23.196  10.607
68490W        W40915  43.245  10.052   2.116
68491W        W40916  22.529  13.167   2.673
68492W        W40917   9.096  19.387   2.298
68493W        W40918  19.095   3.827  13.953
68494W        W40919   4.779   3.932  14.527
68495W        W40920  27.254  44.860  12.013
68496W        W40921   9.927  12.684   0.771
68497W        W40922  41.946  39.179  12.888
68498W        W40923  23.877  29.472  11.127
68499W        W40924  16.337  23.709   4.828
68500W        W40925  12.184  38.868   4.127
68501W        W40926  16.722  24.562  10.706
68502W        W40927  12.676  44.733   0.773
68503W        W40928  15.575  27.957  12.675
68504W        W40929  29.013   5.925  14.179
68505W        W40930  15.804   5.578   2.373
68506W        W40931  18.166  25.043   0.933
68507W        W40932   6.039  16.977   3.647
68508W        W40933   4.824  32.111   5.030
68509W        W40934  39.428  19.037   1.753
68510W        W40935  13.915  19.607  10.393
68511W        W40936  31.964  28.009   4.546
68512W        W40937  35.115   9.138  14.498
68513W        W40938  36.031  33.437   1.247
68514W        W40939  42.170   4.697  12.040
68515W        W40940  14.223   6.162   0.626
68516W        W40941  25.414   7.801  11.616
68517W        W40942   6.867  44.231  12.032
68518W        W40943  25.131  10.412  12.485
68519W        W40944  35.573  31.950  12.964
68520W        W40945  34.516  28.284  12.054
68521W        W40946  19.603  13.941   2.307
68522W        W40947  32.076  13.698   0.836
68523W        W40948  33.808  34.512   0.895
68524W        W40949  19.006  42.756  13.890
68525W        W40950  34.923  26.933  13.719
68526W        W40951  38.359  44.204   1.734
68527W        W40952   8.870  25.964  14.237
68528W        W40953   1.152   6.970  13.863
68529W        W40954  42.563  41.357  13.055
68530W        W40955   6.005  21.498  13.321
68531W        W40956  38.824  14.684   1.006
68532W        W40957  24.213  17.530  13.885
68533W        W40958  28.372  23.430  13.355
68534W        W40959  43.324  21.122   2.050
68535W        W40960  29.481   0.996  10.702
68536W        W40961   1.529  39.130  11.138
68537W        W40962  42.901   0.733   9.882
68538W        W40963  24.391  29.198  13.125
68539W        W40964   0.757  11.087   2.294
68540W        W40965  25.467   0.772  14.390
68541W        W40966  33.553  31.140  11.648
68542W        W40967  25.988  25.299   0.329
68543W        W40968   4.339  30.647   1.195
68544W        W40969   6.670  10.731  13.368
68545W        W40970   2.555  43.506  14.796
68546W        W40971   3.238  34.321  14.003
68547W        W40972  32.435  27.018  13.044
68548W        W40973  42.921  38.373  12.357
68549W        W40974  31.080   3.736   2.010
68550W        W40975   5.202  32.502  13.713
68551W        W40976  42.443  29.373   4.877
68552W        W40977  34.835  41.869   4.719
68553W        W40978  10.877   2.861   2.284
68554W        W40979  36.162  27.587  14.126
68555W        W40980  30.353  11.695   0.442
68556W        W40981  40.795  10.092  11.578
68557W        W40982  32.006   3.692   2.308
68558W        W40983  39.903  25.105   0.784
68559W        W40984  11.683   1.198  11.065
68560W        W40985  29.103  28.137  13.978
68561W        W40986  15.319   1.184  11.990
68562W        W40987  43.522  12.109  10.646
68563W        W40988  34.532  38.362  10.747
68564W        W40989  33.629  11.000  10.961
68565W        W40990   4.702  32.398   0.502
68566W        W40991   8.304  15.013  13.126
68567W        W40992  43.863   4.218  13.506
68568W        W40993   3.799  37.570  11.517
68569W        W40994  25.969  11.307   3.794
68570W        W40995  39.262  37.659  11.231
68571W        W40996  26.282  22.583   4.235
68572W        W40997  28.722  34.738   0.895
68573W        W40998  10.337  36.152  14.462
68574W        W40999  12.918  43.408   4.100
68575W        W41000  29.649  22.935  14.624
68576W        W41001  12.861  12.579  14.931
68577W        W41002   9.898  35.869  13.791
68578W        W41003  25.602  14.228   1.817
68579W        W41004   4.259  19.483   2.974
68580W        W41005  36.701   4.360   3.090
68581W        W41006  14.249  23.092  11.112
68582W        W41007  23.168   5.357  12.547
68583W        W41008  26.700  29.633   1.540
68584W        W41009  11.721  15.117   0.938
68585W        W41010  15.046  12.712  14.978
68586W        W41011  11.406   6.681   3.309
68587W        W41012  21.161  19.092  10.592
68588W        W41013  19.008  15.742  11.598
68589W        W41014  42.562  32.658   0.900
68590W        W41015  12.254  36.405   1.820
68591W        W41016   5.443  24.549  13.140
68592W        W41017  13.037  30.618   2.690
68593W        W41018  29.130  27.642  11.999
68594W        W41019  35.874  26.984   0.269
68595W        W41020  17.622  31.774   5.100
68596W        W41021  20.745  37.680  14.285
68597W        W41022  19.019   9.259   1.905
68598W        W41023  17.873  27.997   2.387
68599W        W41024  17.093   3.751   3.255
68600W        W41025   2.631  28.505   1.462
68601W        W41026  29.989  13.219  13.152
68602W        W41027  23.233  15.800   0.531
68603W        W41028  36.357  21.210   1.730
68604W        W41029  39.097  25.071   3.287
68605W        W41030   6.576  13.893   2.938
68606W        W41031   5.127  40.909  10.529
68607W        W41032  30.504  22.638  14.392
68608W        W41033   6.699   7.298   1.659
68609W        W41034  32.303  28.619   1.549
68610W        W41035  43.729  24.419   4.680
68611W        W41036  31.171  18.120   1.822
68612W        W41037   0.255  20.925  13.111
68613W        W41038  24.263  13.180   2.758
68614W        W41039  42.158  32.144  12.065
68615W        W41040  15.172  28.060   4.975
68616W        W41041  17.191  43.785  11.963
68617W        W41042  21.971   7.872  12.468
68618W        W41043  28.373  18.981   2.302
68619W        W41044  16.719   0.010  10.200
68620W        W41045  28.608  41.754  12.888
68621W        W41046   6.470  40.469   4.155
68622W        W41047  33.617  22.032  13.932
68623W        W41048  34.666  29.522   9.691
68624W        W41049  24.465  24.885  14.258
68625W        W41050  17.708  28.606  12.900
68626W        W41051  10.810  36.030   0.977
68627W        W41052  33.066  39.820   1.738
68628W        W41053  44.859   6.211  12.640
68629W        W41054  24.305  31.604  13.802
68630W        W41055   1.126  15.309   0.265
68631W        W41056  29.227  11.786   3.809
68632W        W41057  25.459  11.602   1.222
68633W        W41058   0.255  32.685  12.191
68634W        W41059  29.051  10.162  11.482
68635W        W41060  20.022  21.737   2.447
68636W        W41061  22.607  28.823  13.116
68637W        W41062  16.460   3.765  11.134
68638W        W41063  43.749  34.505  12.697
68639W        W41064   0.356   0.032   3.979
68640W        W41065  29.680  28.704  10.684
68641W        W41066  32.082  27.998  10.696
68642W        W41067  26.414  40.284   0.300
68643W        W41068  23.264   6.086  14.501
68644W        W41069  24.198   5.281  12.365
68645W        W41070  10.825  17.108   0.987
68646W        W41071   2.725   6.856   4.064
68647W        W41072  10.845  33.431  11.635
68648W        W41073  31.477  26.567  12.341
68649W        W41074  24.679  13.244   0.709
68650W        W41075   9.870  44.708   4.152
68651W        W41076  37.585   2.178   0.461
68652W        W41077  27.198  41.029   2.113
68653W        W41078   5.052  25.346   3.679
68654W        W41079  32.833  40.034  14.251
68655W        W41080  24.078   1.126  10.146
68656W        W41081  33.294   6.782   1.410
68657W        W41082   7.489  24.782   1.774
68658W        W41083   6.348   1.182  11.084
68659W        W41084  34.240   5.853   2.246
68660W        W41085  16.314  21.597  13.717
68661W        W41086  30.327  14.897   4.241
68662W        W41087  18.964  30.554  14.958
68663W        W41088   3.460   7.996   1.379
68664W        W41089  18.938  14.165   4.112
68665W        W41090  43.591  34.377   3.638
68666W        W41091   8.200   0.911   4.077
68667W        W41092   3.571   4.076  11.919
68668W        W41093   0.321  25.262  13.454
68669W        W41094  44.103   0.672   0.909
68670W        W41095  13.595   0.428  11.142
68671W        W41096  29.026  16.749   2.372
68672W        W41097  36.330  33.349   2.898
68673W        W41098   2.783  42.201   4.147
68674W        W41099  30.385  38.389  12.699
68675W        W41100  22.356  17.022  11.001
68676W        W41101  12.400  26.995  13.939
68677W        W41102  43.214  15.627   3.649
68678W        W41103   7.402  37.456   5.491
68679W        W41104   2.046   9.389   3.665
68680W        W41105  41.868  37.092   3.144
68681W        W41106  13.389  41.090   4.594
68682W        W41107  19.702  42.091   3.482
68683W        W41108  34.772   4.808   2.423
68684W        W41109   3.926  39.264   0.902
68685W        W41110  43.348  12.737   3.085
68686W        W41111  36.740  20.767  14.227
68687W        W41112  23.253   5.916   3.187
68688W        W41113  11.207  31.375  11.573
68689W        W41114  27.720  25.245  12.731
68690W        W41115   0.774  15.670   0.995
68691W        W41116  27.051  24.112  14.927
68692W        W41117   6.766  18.799   2.279
68693W        W41118  40.385  33.167   1.268
68694W        W41119  23.063  14.073  11.317
68695W        W41120  43.426  15.118  13.915
68696W        W41121   1.478  17.427   3.663
68697W        W41122  11.750  27.988   1.272
68698W        W41123  33.653  14.273   0.374
68699W        W41124   8.937  43.925   2.801
68700W        W41125  27.478   5.473   2.373
68701W        W41126  30.803  41.252  11.238
68702W        W41127  34.828  14.044  13.835
68703W        W41128  32.435  43.645   2.176
68704W        W41129  19.645  12.315  14.521
68705W        W41130  40.952  27.953  14.299
68706W        W41131  36.255   4.423   3.448
68707W        W41132  26.549  23.085  11.928
68708W        W41133  15.669  38.417   1.827
68709W        W41134  44.416  34.681   3.207
68710W        W41135  17.437  32.850  11.636
68711W        W41136   4.323   6.901  12.104
68712W        W41137  12.731  19.282  12.447
68713W        W41138  18.206  24.665  13.618
68714W        W41139  28.295  10.717   3.576
68715W        W41140  22.223  26.285   0.244
68716W        W41141  33.076  43.858   3.106
68717W        W41142  39.565  27.509   2.893
68718W        W41143  30.538  23.987  14.330
68719W        W41144   7.754  16.880   1.680
68720W        W41145  28.155  35.474   2.666
68721W        W41146   3.834   1.206  11.661
68722W        W41147  41.124  21.559  12.530
68723W        W41148  44.577  37.352   9.930
68724W        W41149  36.670   6.223   1.286
68725W        W41150  31.029  26.410  13.891
68726W        W41151  42.031  26.896  10.688
68727W        W41152  43.206  31.519   1.188
68728W        W41153  20.739   9.715   1.790
68729W        W41154  11.805   5.429  14.808
68730W        W41155   8.419   9.308  13.446
68731W        W41156  18.633  21.113  10.365
68732W        W41157  41.861   4.330  13.940
68733W        W41158   8.834  32.663   0.245
68734W        W41159   7.281  24.942  13.427
68735W        W41160  39.523   6.954  13.030
68736W        W41161  40.842  19.505  10.486
68737W        W41162  10.728   9.416   5.062
68738W        W41163  26.415   6.277  11.115
68739W        W41164  34.424  32.513  11.993
68740W        W41165  33.896   4.707  11.222
68741W        W41166  38.238  43.947  13.462
68742W        W41167  24.777  11.319  11.135
68743W        W41168  25.199  36.129  11.816
68744W        W41169  32.095  36.918   4.333
68745W        W41170  16.012  17.048   0.380
68746W        W41171   7.622  33.091   2.801
68747W        W41172  11.909  30.155   3.352
68748W        W41173  33.110  11.909  10.681
68749W        W41174  19.284  25.627  14.074
68750W        W41175   7.399  39.914   4.419
68751W        W41176   5.199  15.323   0.356
68752W        W41177  15.968  17.132  11.253
68753W        W41178  41.943   3.655  10.494
68754W        W41179  41.413  38.415  14.642
68755W        W41180  43.099   0.728   3.271
68756W        W41181   5.394  24.085   4.538
68757W        W41182  24.946  19.672  11.859
68758W        W41183  42.473   5.942   4.150
68759W        W41184  17.591  25.578   2.914
68760W        W41185  33.529   5.723   3.439
68761W        W41186  39.308  10.742  11.037
68762W        W41187  11.132  29.764   4.646
68763W        W41188  11.809  29.008  10.771
68764W        W41189  28.532  37.367   0.398
68765W        W41190   2.578   3.584  13.091
68766W        W41191  16.488  42.772   3.703
68767W        W41192  15.611  36.644   3.385
68768W        W41193  27.918  19.155   1.064
68769W        W41194  22.634  43.001  10.485
68770W        W41195  35.453  28.091   1.569
68771W        W41196   7.068  38.314  14.027
68772W        W41197   5.775  23.488   4.165
68773W        W41198  33.009  18.023  12.449
68774W        W41199  39.946  18.255   3.993
68775W        W41200  15.783  25.507  12.226
68776W        W41201  16.225  10.386   2.603
68777W        W41202  36.030  19.068   1.172
68778W        W41203  27.040  42.714  10.733
68779W        W41204   2.976   8.077   2.272
68780W        W41205   5.549  17.074   3.774
68781W        W41206  33.468   5.892   2.941
68782W        W41207  37.627  11.429   0.938
68783W        W41208  15.123  15.289  12.883
68784W        W41209  31.231   1.948   2.937
68785W        W41210   3.927  28.456   1.835
68786W        W41211  12.679  38.501   2.923
68787W        W41212  30.411  22.325   3.742
68788W        W41213  21.520  28.860   1.338
68789W        W41214   3.173  38.376   2.200
68790W        W41215  16.148   1.514  10.055
68791W        W41216  35.634  10.882  12.489
68792W        W41217  43.423  30.569   1.965
68793W        W41218  38.899   4.369  12.595
68794W        W41219  24.710  42.633   3.644
68795W        W41220  38.292  37.736   1.283
68796W        W41221  37.820  11.683  12.006
68797W        W41222  21.129  43.587  11.891
68798W        W41223   9.126  20.804  11.636
68799W        W41224  35.923  15.706  13.808
68800W        W41225  41.339  20.547   1.423
68801W        W41226  25.978  25.165   2.659
68802W        W41227  32.915  31.655  11.492
68803W        W41228   1.881  41.332   2.628
68804W        W41229  24.696  10.122  12.470
68805W        W41230  14.684   8.006   1.725
68806W        W41231  31.948   9.409   4.971
68807W        W41232  22.514  22.895   3.186
68808W        W41233  20.000  40.291   1.812
68809W        W41234   3.811   8.362   2.416
68810W        W41235  20.472  22.689   4.640
68811W        W41236  30.397  39.593  12.804
68812W        W41237   5.761   8.762  12.502
68813W        W41238  28.205  10.003   5.060
68814W        W41239  38.566   6.800  14.210
68815W        W41240   6.993  39.811   4.772
68816W        W41241  12.125  35.427   4.660
68817W        W41242  12.618   1.759  10.564
68818W        W41243  41.938   8.833   4.055
68819W        W41244   2.361  39.363  10.648
68820W        W41245  30.341  12.231   3.134
68821W        W41246  21.413  35.713  11.655
68822W        W41247  39.014  33.331  14.345
68823W        W41248  34.152   5.522  14.491
68824W        W41249  16.067  23.765  12.072
68825W        W41250  35.875  25.532  12.344
68826W        W41251   4.666  27.976  10.113
68827W        W41252  17.319  23.299   1.466
68828W        W41253  19.519  18.486   4.862
68829W        W41254  40.057  40.113   2.328
68830W        W41255  16.588  31.825   4.947
68831W        W41256  40.730  31.334  14.558
68832W        W41257  23.757  10.836  13.987
68833W        W41258  26.564  34.359  10.536
68834W        W41259  22.222  28.961   3.651
68835W        W41260   5.849  18.921  12.510
68836W        W41261  33.104  22.008  14.062
68837W        W41262   4.013  32.579  10.786
68838W        W41263  39.128  32.648   0.506
68839W        W41264  15.882   1.403  12.852
68840W        W41265   5.392   6.221  11.918
68841W        W41266  26.988   8.252   3.873
68842W        W41267  39.362   1.244   0.343
68843W        W41268  36.479  34.949   1.863
68844W        W41269  38.832  17.715  13.102
68845W        W41270  23.058   4.909   0.907
68846W        W41271   2.131  38.748  10.545
68847W        W41272  26.448  28.786  11.182
68848W        W41273  26.371  39.927   2.810
68849W        W41274  20.998  22.259   1.286
68850W        W41275  15.301   8.641   1.764
68851W        W41276   3.416  42.074  11.397
68852W        W41277  28.888  30.481   0.040
68853W        W41278  21.624   5.556  10.732
68854W        W41279  44.712  44.878   2.382
68855W        W41280  20.228  34.605  11.227
68856W        W41281   1.551  12.665   1.993
68857W        W41282  38.499   7.828  10.934
68858W        W41283  40.337  26.777  14.607
68859W        W41284  35.012  12.108   0.894
68860W        W41285  13.134  40.220   2.060
68861W        W41286  22.877  33.165  10.168
68862W        W41287  32.022   6.659  12.561
68863W        W41288  15.120  28.849   3.817
68864W        W41289   8.772  26.423   5.074
68865W        W41290   3.663  31.028  13.394
68866W        W41291  16.510  21.440  10.710
68867W        W41292   9.892   4.809  13.978
68868W        W41293  12.308  13.104   4.173
68869W        W41294  27.097  44.403  13.070
68870W        W41295  28.841  10.678  13.123
68871W        W41296  10.144  15.770  11.904
68872W        W41297  36.530  11.770  14.081
68873W        W41298  19.584  12.777  14.739
68874W        W41299  36.998  32.951  12.985
68875W        W41300  13.923  14.654  13.528
68876W        W41301  40.129  36.065   3.632
68877W        W41302  17.049  13.711   0.910
68878W        W41303  36.268   8.716  11.712
68879W        W41304  38.963  37.641   3.603
68880W        W41305  23.254  39.207   3.548
68881W        W41306  17.208   3.603  12.321
68882W        W41307   0.307  43.697   3.907
68883W        W41308  18.272  11.800  10.734
68884W        W41309  41.320  38.305  10.430
68885W        W41310  27.935  15.433   0.936
68886W        W41311  27.742  43.993  12.090
68887W        W41312  38.553  23.054  10.157
68888W        W41313  15.909  38.443   3.631
68889W        W41314  31.028  43.939   1.537
68890W        W41315   3.426  27.221   4.701
68891W        W41316  20.197  27.558  14.464
68892W        W41317  26.417  27.007   2.180
68893W        W41318   8.847  31.021   3.158
68894W        W41319  37.478  14.820  10.389
68895W        W41320  19.604  23.758   3.270
68896W        W41321  23.472  25.707  14.054
68897W        W41322  27.887  40.538   0.962
68898W        W41323  28.066   7.549  10.249
68899W        W41324  38.298   2.390   4.147
68900W        W41325  33.251  11.699  13.965
68901W        W41326  22.062  15.272  14.958
68902W        W41327  13.387  13.372   4.170
68903W        W41328  15.548   9.298  11.963
68904W        W41329  35.927  26.628   3.364
68905W        W41330  25.511  18.716  13.061
68906W        W41331   1.021  29.437  12.839
68907W        W41332  23.482  10.702   4.163
68908W        W41333  42.472  30.546   4.299
68909W        W41334  21.328  14.069  12.849
68910W        W41335  24.323  29.711  12.067
68911W        W41336  39.468  17.455  12.164
68912W        W41337  18.619  42.911   2.288
68913W        W41338  29.786  38.404   4.554
68914W        W41339  10.544  18.804   0.735
68915W        W41340   4.412  30.062   2.299
68916W        W41341  37.469   7.841  11.529
68917W        W41342  40.275   5.763   0.841
68918W        W41343  31.111  18.595  13.310
68919W        W41344  38.586   5.208  11.594
68920W        W41345  13.130  26.950  12.794
68921W        W41346  31.065  37.623   1.470
68922W        W41347   2.798  11.917   4.787
68923W        W41348  36.659  16.931   1.412
68924W        W41349  28.915  11.846  11.559
68925W        W41350  36.129   1.806  13.933
68926W        W41351  38.792  16.516   2.777
68927W        W41352  39.987   2.746  12.533
68928W        W41353  13.822  23.090  10.824
68929W        W41354   2.435  16.290  11.934
68930W        W41355   9.781  23.684  13.297
68931W        W41356  31.875   4.188   2.256
68932W        W41357  10.703  29.984   0.759
68933W        W41358  32.098  11.802  10.684
68934W        W41359  41.032  34.323  11.109
68935W        W41360  30.148  25.014   0.934
68936W        W41361  18.648  34.841  14.020
68937W        W41362   6.898   0.688   2.146
68938W        W41363  14.302  31.897  10.543
68939W        W41364  11.366  43.689   1.424
68940W        W41365  34.912  23.967   1.022
68941W        W41366  14.019  20.224  14.255
68942W        W41367   7.616  37.480   2.346
68943W        W41368   9.660  32.999  10.929
68944W        W41369   6.069  43.084   1.146
68945W        W41370  34.114  33.911  14.020
68946W        W41371  17.724  15.046  11.365
68947W        W41372  30.582  28.129   4.271
68948W        W41373  31.653  14.145  10.652
68949W        W41374  39.461  32.980  12.487
68950W        W41375  26.144   2.808   4.373
68951W        W41376  27.039  29.238  14.931
68952W        W41377  42.965  29.237   2.751
68953W        W41378  35.017  20.995   4.587
68954W        W41379  12.177   4.755  11.131
68955W        W41380  37.141  27.155   3.625
68956W        W41381  14.053  19.688   2.301
68957W        W41382   3.850  14.753  11.679
68958W        W41383   8.735  16.067   0.749
68959W        W41384   6.188  42.436  13.349
68960W        W41385  44.430  27.214  14.551
68961W        W41386  18.986   1.772   2.285
68962W        W41387  10.833  21.766  14.814
68963W        W41388  24.075   1.719  13.680
68964W        W41389   8.738  11.326  14.329
68965W        W41390  35.011  23.794  13.853
68966W        W41391  25.988  40.006   4.400
68967W        W41392  35.898  24.487   3.287
68968W        W41393   3.917  29.962   1.167
68969W        W41394  33.531  12.847  14.104
68970W        W41395   0.013  29.092   2.939
68971W        W41396  16.841   8.355  10.487
68972W        W41397  18.711  43.899   2.325
68973W        W41398  14.264  31.158   0.255
68974W        W41399  37.380  41.556  10.595
68975W        W41400  13.693  24.821  13.081
68976W        W41401  19.009  21.151   0.553
68977W        W41402   6.994  17.704   2.309
68978W        W41403   7.223  16.389  12.015
68979W        W41404   0.284   5.914  12.072
68980W        W41405  32.873   0.523   1.488
68981W        W41406  24.510  32.640   1.247
68982W        W41407  24.444  14.699  13.863
68983W        W41408   6.996  17.340   1.028
68984W        W41409  39.325  43.079  14.939
68985W        W41410   5.214  16.602  10.318
68986W        W41411   6.445  19.136  10.670
68987W        W41412  39.297   8.331  12.084
68988W        W41413   7.835  12.392   0.303
68989W        W41414  22.771  30.947  11.558
68990W        W41415  34.436  29.217  14.847
68991W        W41416  38.478  24.995   0.447
68992W        W41417  26.603   0.008   1.963
68993W        W41418  21.998  28.116  13.370
68994W        W41419  44.278  25.276   4.180
68995W        W41420  32.080  13.328  14.244
68996W        W41421   7.228   9.147   2.916
68997W        W41422  30.647  35.257   3.325
68998W        W41423  18.233  14.753   4.113
68999W        W41424  16.191   2.830   3.642
69000W        W41425  25.476  14.115  12.058
69001W        W41426  22.321  34.085   1.150
69002W        W41427   2.258   7.585   0.896
69003W        W41428  21.748  29.625   4.222
69004W        W41429  15.880  23.389   2.205
69005W        W41430  26.072  12.387   4.624
69006W        W41431  44.557  32.028  13.386
69007W        W41432  31.690   7.400   2.314
69008W        W41433  37.063   2.937  11.934
69009W        W41434  17.632  35.585  13.038
69010W        W41435  32.929  38.058   4.664
69011W        W41436  36.566   3.824   2.740
69012W        W41437  39.570  29.280  11.620
69013W        W41438  39.820  34.840  10.747
69014W        W41439   5.331  27.720   3.815
69015W        W41440  30.430  28.470  13.414
69016W        W41441  30.041   0.059   0.402
69017W        W41442  15.715   5.825  14.503
69018W        W41443  37.798  38.439  11.529
69019W        W41444  32.225  22.122   4.928
69020W        W41445  28.660  29.697  11.065
69021W        W41446  23.270  12.247   1.338
69022W        W41447   0.542  34.447  10.931
69023W        W41448  28.543  33.385   3.784
69024W        W41449  27.827  35.847  10.263
69025W        W41450  35.842  38.975   1.640
69026W        W41451  15.805  24.259  12.939
69027W        W41452  31.605  17.299   3.636
69028W        W41453  16.653  44.796  10.818
69029W        W41454   6.230  38.402  11.477
69030W        W41455  42.970   4.797  14.428
69031W        W41456  11.621  30.170  12.910
69032W        W41457   9.317  12.232  14.970
69033W        W41458  41.759  11.260  11.843
69034W        W41459  34.696   5.352   1.181
69035W        W41460  10.264  31.724   3.109
69036W        W41461  15.504  21.193  10.622
69037W        W41462  14.209  19.955   0.750
69038W        W41463  26.450  20.258  12.490
69039W        W41464  10.006  28.136   0.698
69040W        W41465   0.172  23.061  13.372
69041W        W41466   6.891  36.193  10.231
69042W        W41467  28.724  21.675   0.319
69043W        W41468   1.390  25.482   2.404
69044W        W41469  14.642  39.319   0.473
69045W        W41470  20.053  20.914  13.079
69046W        W41471  37.758   1.710   3.561
69047W        W41472  31.662  16.012  13.527
69048W        W41473  28.621  20.617   3.811
69049W        W41474  34.398   0.747   2.182
69050W        W41475  24.014  17.227   0.121
69051W        W41476   5.715   8.870   2.138
69052W        W41477  28.468  16.114  14.495
69053W        W41478  32.957  18.655   5.449
69054W        W41479  41.568  18.593  14.905
69055W        W41480   1.502  29.163  10.777
69056W        W41481  16.715   6.240   1.939
69057W        W41482  38.320  27.560  12.103
69058W        W41483  14.329   7.407  10.693
69059W        W41484  15.641  27.494  11.313
69060W        W41485  23.978  44.892   4.677
69061W        W41486  13.414  11.600  10.571
69062W        W41487  30.368  25.002   2.600
69063W        W41488   8.089  14.836   3.582
69064W        W41489   6.943  41.925  11.192
69065W        W41490  20.844  27.093  12.846
69066W        W41491  36.001   6.505   4.540
69067W        W41492  22.259   8.339  13.017
69068W        W41493  21.631  21.030  11.417
69069W        W41494   1.415  43.335   2.656
69070W        W41495  44.194  34.331  14.871
69071W        W41496  19.268  33.611  14.358
69072W        W41497  31.140  34.127   3.930
69073W        W41498  11.341  35.418  12.500
69074W        W41499   7.669  24.512   4.732
69075W        W41500  28.676  26.050   2.792
69076W        W41501   7.691  27.738   1.875
69077W        W41502  15.237  18.636  11.298
69078W        W41503  12.940  17.590  14.537
69079W        W41504  18.756  32.068   0.528
69080W        W41505  16.007  26.016   1.947
69081W        W41506  25.881  21.246   2.204
69082W        W41507  19.009  37.795  13.820
69083W        W41508  40.517  13.217   0.443
69084W        W41509  39.384  36.741  12.867
69085W        W41510  35.344  23.282   2.958
69086W        W41511   1.828  25.182   2.341
69087W        W41512  32.850  13.308  11.345
69088W        W41513  34.941  15.651   3.652
69089W        W41514  36.504   3.027   5.384
69090W        W41515  31.509   2.335  14.936
69091W        W41516  21.541  28.342   1.321
69092W        W41517  31.465  17.169  10.653
69093W        W41518  30.700  42.221   2.765
69094W        W41519  41.155  24.491  11.569
69095W        W41520  33.663  21.559  10.407
69096W        W41521  20.722   6.843   3.625
69097W        W41522  25.658  19.251   4.652
69098W        W41523  38.253  20.203  13.494
69099W        W41524   9.424   5.164  14.333
69100W        W41525  18.788  29.763   0.841
69101W        W41526  11.714  40.849  13.998
69102W        W41527   3.268  30.642   1.266
69103W        W41528  38.838  27.584  10.776
69104W        W41529  39.418   2.867   2.927
69105W        W41530  36.095  35.102   2.164
69106W        W41531  44.277  35.413  14.779
69107W        W41532  35.665   9.637  14.986
69108W        W41533  27.719   9.298   2.951
69109W        W41534  13.210  29.903   1.262
69110W        W41535  43.106   2.364   4.084
69111W        W41536   0.319  44.973  12.440
69112W        W41537  34.461  11.001   4.542
69113W        W41538  29.520  32.001  14.385
69114W        W41539  25.741  34.856  13.052
69115W        W41540   3.414  36.385   3.334
69116W        W41541  28.324   4.772   0.364
69117W        W41542  41.985   3.719   3.358
69118W        W41543  21.640   8.602   3.588
69119W        W41544  22.801  20.100  14.169
69120W        W41545  19.013   5.317   3.619
69121W        W41546  14.775  20.226  10.648
69122W        W41547  28.599  21.265   4.124
69123W        W41548  27.622  15.232  13.823
69124W        W41549  20.048   9.277  10.480
69125W        W41550  44.770  21.202   0.436
69126W        W41551  29.544  16.827   9.972
69127W        W41552   8.206  37.247  13.771
69128W        W41553  34.866   2.781  14.400
69129W        W41554  26.990  41.763   0.336
69130W        W41555   9.277  17.584   4.558
69131W        W41556  16.603   5.242   2.240
69132W        W41557  43.171  32.560  12.025
69133W        W41558  13.143  13.227  11.880
69134W        W41559  41.748  34.338   4.615
69135W        W41560  43.760   1.060   0.937
69136W        W41561   3.657  32.605  14.896
69137W        W41562  11.081  43.738   2.321
69138W        W41563  44.634  31.045   1.923
69139W        W41564  13.268  22.007   4.610
69140W        W41565  23.239  11.367   4.974
69141W        W41566  32.885   5.427  14.855
69142W        W41567   4.003  25.138   3.067
69143W        W41568  24.657   7.354   3.594
69144W        W41569  13.345  29.147  14.263
69145W        W41570  12.080  32.997  11.432
69146W        W41571   4.488  40.501   2.397
69147W        W41572  22.531  36.440  14.025
69148W        W41573  43.544  12.690   3.558
69149W        W41574   0.966  38.334   1.964
69150W        W41575  21.133  22.224  11.607
69151W        W41576   9.373  38.807   1.825
69152W        W41577   8.767  16.062   2.557
69153W        W41578  40.706   5.821   4.211
69154W        W41579   4.727  27.418  12.402
69155W        W41580   4.438  42.439  14.775
69156W        W41581  43.426  31.927   0.552
69157W        W41582  35.041  24.498  10.853
69158W        W41583  15.569   1.806  12.619
69159W        W41584  30.239  20.662  11.342
69160W        W41585  32.366  29.159  12.879
69161W        W41586  22.744  19.236   0.273
69162W        W41587   1.621  13.166   2.141
69163W        W41588  43.612   4.493   2.651
69164W        W41589  42.678  24.278  13.057
69165W        W41590  36.812  37.507  11.422
69166W        W41591  19.961  23.550   3.611
69167W        W41592   9.874   4.449  12.005
69168W        W41593  17.419  17.898   2.606
69169W        W41594  33.344  14.702   0.927
69170W        W41595  11.164  19.100   3.162
69171W        W41596  27.045   4.898   4.290
69172W        W41597   8.734  15.380   3.151
69173W        W41598  43.759  35.124   3.709
69174W        W41599  37.854  14.049  10.569
69175W        W41600   5.624   9.325   3.571
69176W        W41601  23.944  10.777  13.525
69177W        W41602  18.850  32.974  12.508
69178W        W41603  44.251   1.898  13.518
69179W        W41604  14.630  11.554  11.090
69180W        W41605  19.784  37.389  13.618
69181W        W41606  17.223  35.384   1.745
69182W        W41607  37.103  11.158   2.866
69183W        W41608   1.648  10.274  10.674
69184W        W41609  15.297   1.826  14.512
69185W        W41610  21.682  10.981   0.249
69186W        W41611  23.710  23.566  14.007
69187W        W41612   5.155  18.353   1.233
69188W        W41613  20.808  16.796   4.111
69189W        W41614  29.277  10.602   1.091
69190W        W41615  38.865  32.576  10.841
69191W        W41616  44.504  43.796  12.785
69192W        W41617  12.774  19.078  13.994
69193W        W41618  43.719  22.142  10.781
69194W        W41619  22.188  42.261   1.278
69195W        W41620  22.973  19.694   3.706
69196W        W41621  24.972   6.233  13.374
69197W        W41622  15.240  33.451   3.438
69198W        W41623   4.906  43.031   3.553
69199W        W41624   7.467   1.292  14.332
69200W        W41625  32.895  37.283  14.807
69201W        W41626  35.935  40.807  13.617
69202W        W41627  24.133  23.618  13.679
69203W        W41628   5.920  34.132   3.736
69204W        W41629   2.261  10.816  12.638
69205W        W41630  33.028  24.078  12.405
69206W        W41631   1.180   9.324  13.036
69207W        W41632   2.745  39.080  11.911
69208W        W41633  41.548  41.977  13.268
69209W        W41634  19.583  16.840  12.200
69210W        W41635  17.728  16.287   0.531
69211W        W41636  21.145   4.444  12.778
69212W        W41637  32.129  19.148   5.042
69213W        W41638   3.500  40.616  13.985
69214W        W41639  27.271  25.122  12.435
69215W        W41640  25.629  29.628   3.021
69216W        W41641  42.960  33.037   4.047
69217W        W41642  43.238  11.648   4.538
69218W        W41643  34.618  38.060   3.637
69219W        W41644  12.646  31.501   3.092
69220W        W41645   9.889  20.503   4.214
69221W        W41646   6.790  30.499  14.708
69222W        W41647  13.931  11.950  11.247
69223W        W41648  39.070  23.753  11.111
69224W        W41649  25.503  35.578   2.138
69225W        W41650  13.276  18.057   0.090
69226W        W41651  21.584   5.532   4.546
69227W        W41652  16.082  30.333   0.409
69228W        W41653  17.090  12.450  11.939
69229W        W41654  10.934   1.810  14.040
69230W        W41655   0.248  40.026   0.644
69231W        W41656  31.373  30.661  12.945
69232W        W41657  31.477  10.789   3.415
69233W        W41658   2.783  14.587  11.166
69234W        W41659   5.220  37.478   4.584
69235W        W41660  37.202  38.938   4.434
69236W        W41661  36.933  43.275   4.949
69237W        W41662  39.008   7.854  11.623
69238W        W41663  29.637  11.147   4.881
69239W        W41664  39.773  14.412   4.084
69240W        W41665   6.290  15.873  12.093
69241W        W41666  25.950  19.652   4.514
69242W        W41667  34.988  18.854   4.215
69243W        W41668  14.132  10.892   0.783
69244W        W41669  24.929  26.053   0.667
69245W        W41670  42.883  35.876  11.704
69246W        W41671  21.892  42.384  13.492
69247W        W41672  34.687  26.900  12.933
69248W        W41673  38.911   5.932   3.331
69249W        W41674   6.458   3.610   3.555
69250W        W41675  11.436  19.297  13.894
69251W        W41676  33.950  38.478  11.376
69252W        W41677  42.365  35.766   4.022
69253W        W41678   6.739  10.727  14.791
69254W        W41679  31.743  43.048  12.288
69255W        W41680  22.048  30.049  14.885
69256W        W41681  42.326  20.543   0.344
69257W        W41682  10.683  27.413  11.157
69258W        W41683  43.848  12.363  13.883
69259W        W41684  41.019  39.780   3.716
69260W        W41685   5.159  21.861  12.392
69261W        W41686   7.319  27.659   3.785
69262W        W41687   7.450  21.947  12.528
69263W        W41688  26.991  37.114  13.093
69264W        W41689  19.053  11.595  12.458
69265W        W41690  11.301  35.333   4.171
69266W        W41691  12.018  27.139   4.219
69267W        W41692  18.339  22.275  12.843
69268W        W41693  11.251  31.686  11.991
69269W        W41694  40.484  29.539   1.704
69270W        W41695  28.616  15.317   0.386
69271W        W41696  39.770  36.875   2.372
69272W        W41697  30.980  34.404  13.699
69273W        W41698  32.490  37.394  12.994
69274W        W41699   5.611   1.779  10.702
69275W        W41700  31.503  25.745  10.978
69276W        W41701  32.812   8.446  12.060
69277W        W41702  30.481  35.881  11.476
69278W        W41703  37.976  19.132  12.964
69279W        W41704   7.168  31.099   3.600
69280W        W41705  31.667  18.621  13.586
69281W        W41706  12.719   3.950   2.353
69282W        W41707  10.530  12.678  14.377
69283W        W41708  42.924  31.795  14.884
69284W        W41709  22.458   4.234  11.138
69285W        W41710   4.881  20.680   1.305
69286W        W41711  43.788  44.366  12.839
69287W        W41712  28.872   8.195  14.520
69288W        W41713   3.807  27.972   0.240
69289W        W41714  13.176  37.372   0.401
69290W        W41715  37.728  33.360   5.064
69291W        W41716  29.381  42.892   1.418
69292W        W41717   8.245  24.934  13.129
69293W        W41718  17.276   4.009  14.294
69294W        W41719  37.488  38.031   4.822
69295W        W41720  11.878   1.072  11.939
69296W        W41721  40.904  24.527  14.302
69297W        W41722   4.033  37.552   1.536
69298W        W41723  33.058   3.013  14.778
69299W        W41724   1.921   2.890  12.436
69300W        W41725  14.618  26.986   3.156
69301W        W41726   8.494  15.235  14.357
69302W        W41727  35.954   2.484   1.374
69303W        W41728  26.679  24.621   1.878
69304W        W41729  38.127  42.963   0.273
69305W        W41730  27.420  23.198  13.509
69306W        W41731  36.888  32.647   0.241
69307W        W41732  37.510  24.245   3.594
69308W        W41733  43.715  28.630  11.904
69309W        W41734   2.616  21.277  11.070
69310W        W41735  16.883  35.037   4.190
69311W        W41736  18.540  33.563  11.949
69312W        W41737  30.978  43.530  11.724
69313W        W41738  39.987  24.423   3.116
69314W        W41739   7.356   7.164  13.328
69315W        W41740   4.272  16.084   2.413
69316W        W41741  40.328  25.720   2.676
69317W        W41742  17.863  33.488   0.684
69318W        W41743  39.764  27.542   2.131
69319W        W41744  14.794  34.154  13.536
69320W        W41745  36.177   1.024  11.038
69321W        W41746   9.757  29.961  14.918
69322W        W41747  24.440  15.706   1.762
69323W        W41748  41.985   6.302   2.854
69324W        W41749   7.566  38.409  10.148
69325W        W41750  16.983  10.656   4.130
69326W        W41751   3.687   4.604  10.277
69327W        W41752  39.330  23.946  12.499
69328W        W41753   3.680  36.661   5.115
69329W        W41754  17.565  24.084  11.577
69330W        W41755  43.426   6.469  14.762
69331W        W41756  22.100   5.290   2.873
69332W        W41757   7.595  29.434  14.660
69333W        W41758  10.877  27.528   3.573
69334W        W41759  34.288  11.445   0.855
69335W        W41760  34.525   5.871  14.409
69336W        W41761  20.461  41.530  14.833
69337W        W41762  11.813  25.923  12.498
69338W        W41763   2.756  40.405  14.512
69339W        W41764  23.001   6.634   3.851
69340W        W41765  11.911  11.924   5.417
69341W        W41766   6.417  24.660  10.708
69342W        W41767  18.291   3.302  10.730
69343W        W41768  24.630  29.118   2.111
69344W        W41769  22.525  28.478  12.545
69345W        W41770  40.544   5.697   0.374
69346W        W41771   4.680   7.813  13.137
69347W        W41772  34.285  16.782  11.447
69348W        W41773  13.553  33.494  13.948
69349W        W41774  25.656   2.247  11.544
69350W        W41775   0.359   6.175  12.511
69351W        W41776  10.881  37.638   1.315
69352W        W41777   9.260  17.522  13.395
69353W        W41778   5.757   6.859   3.796
69354W        W41779   4.722   9.796   4.054
69355W        W41780  38.881  30.905  12.011
69356W        W41781  43.831   2.229   2.815
69357W        W41782   8.764  12.838  10.808
69358W        W41783  33.482  29.968   3.388
69359W        W41784  20.534  22.444  12.530
69360W        W41785  18.485  32.345   2.267
69361W        W41786  26.157   8.852  13.916
69362W        W41787  39.806  13.038  11.864
69363W        W41788  18.090   0.443  13.417
69364W        W41789  10.462  20.777  11.529
69365W        W41790   2.523  10.230   0.913
69366W        W41791  38.503   8.487   2.783
69367W        W41792   9.129   2.167   5.010
69368W        W41793  22.007  31.953   5.054
69369W        W41794  15.615  38.025   3.672
69370W        W41795  24.135  11.960  12.497
69371W        W41796   6.858  32.669   2.218
69372W        W41797  11.621   4.763  13.850
69373W        W41798  36.834  41.416  12.122
69374W        W41799  20.806  32.631   0.787
69375W        W41800   8.686   0.479   2.064
69376W        W41801  34.953  37.981   2.542
69377W        W41802  33.802  29.538   0.898
69378W        W41803  44.926   3.543   4.755
69379W        W41804  23.477   6.289   1.803
69380W        W41805  10.618  28.885  14.966
69381W        W41806  37.826  22.941   2.709
69382W        W41807  42.331  11.987  13.079
69383W        W41808  36.454  32.306  11.911
69384W        W41809  29.173  17.034   3.919
69385W        W41810  14.263  26.685  12.626
69386W        W41811  30.002  23.714   4.616
69387W        W41812  16.637  37.683  14.352
69388W        W41813   3.795  12.287   0.673
69389W        W41814  36.610  41.916  10.994
69390W        W41815  22.841  23.022   3.583
69391W        W41816  38.555   3.955  10.404
69392W        W41817  18.236   5.547   3.995
69393W        W41818  27.995  33.807   2.192
69394W        W41819  30.085  29.900  14.326
69395W        W41820   8.150   1.776   1.223
69396W        W41821   9.495   9.121   0.138
69397W        W41822  32.625   4.179   3.117
69398W        W41823  22.733  35.019   1.972
69399W        W41824  43.807  13.707  12.528
69400W        W41825  28.019  33.125   1.750
69401W        W41826  28.246  43.837  10.975
69402W        W41827  25.173  41.618   2.685
69403W        W41828   3.362  20.778   5.071
69404W        W41829  13.409  41.396   5.054
69405W        W41830  12.083  32.956  10.914
69406W        W41831  33.691  43.817  11.631
69407W        W41832   1.889  34.752   4.158
69408W        W41833  18.683  34.070   2.835
69409W        W41834  32.409  22.579   0.312
69410W        W41835  20.280  12.974   2.737
69411W        W41836  16.410  30.238  11.835
69412W        W41837  35.382  41.554  12.473
69413W        W41838   7.076   1.859  13.004
69414W        W41839   5.153  29.224  13.957
69415W        W41840  35.395  21.134   3.371
69416W        W41841  13.750  42.903   4.285
69417W        W41842  32.897  21.446   1.009
69418W        W41843  18.101  38.839   3.715
69419W        W41844  20.287  17.593   1.848
69420W        W41845   7.038  22.902  12.520
69421W        W41846   7.432  26.497   3.383
69422W        W41847  23.459  11.207  13.761
69423W        W41848  36.645  17.240   0.350
69424W        W41849  29.521  28.825   3.753
69425W        W41850  31.089   1.419  10.481
69426W        W41851  42.296  34.833  13.391
69427W        W41852  14.950   2.797  11.464
69428W        W41853  23.660  12.307   3.839
69429W        W41854  44.878  43.735  13.121
69430W        W41855  25.812  11.801  14.896
69431W        W41856  10.136  22.154  12.158
69432W        W41857  31.423  19.314  11.147
69433W        W41858   0.525  37.249   0.273
69434W        W41859  41.328  18.853   0.800
69435W        W41860  14.751  36.543   1.492
69436W        W41861  31.851  44.275   3.724
69437W        W41862  31.845   8.215  12.477
69438W        W41863   2.690  31.878   0.956
69439W        W41864  25.600  29.965   3.417
69440W        W41865  16.584   5.247  12.813
69441W        W41866  10.295   8.911  12.497
69442W        W41867   6.199  36.154   3.264
69443W        W41868  14.567   8.413   4.741
69444W        W41869   0.254  43.106  13.415
69445W        W41870  34.108  38.866   2.691
69446W        W41871  22.290  13.027  10.698
69447W        W41872  14.747  23.095   2.453
69448W        W41873   9.413  10.821   3.661
69449W        W41874   1.374  22.723  11.452
69450W        W41875   4.491  40.358  12.854
69451W        W41876  35.671  37.617   2.238
69452W        W41877  23.095  24.141   2.298
69453W        W41878   7.832   1.232   4.258
69454W        W41879  27.077   0.359  11.708
69455W        W41880  40.891  44.127   1.978
69456W        W41881  43.745  39.059   1.765
69457W        W41882  33.816  34.951  11.047
69458W        W41883  11.734  24.665   2.418
69459W        W41884  37.849  33.648   1.198
69460W        W41885  23.770  31.134   4.209
69461W        W41886  38.359  39.488   3.266
69462W        W41887  30.787  32.363  13.832
69463W        W41888  40.460  38.333   0.328
69464W        W41889   1.950  19.049   3.295
69465W        W41890   2.220   7.641  11.633
69466W        W41891   8.018  43.049   0.002
69467W        W41892   7.993  31.755   5.056
69468W        W41893  14.823  37.878   0.420
69469W        W41894  17.351  23.505   9.925
69470W        W41895   7.244  24.807   4.642
69471W        W41896  30.627  21.516   3.165
69472W        W41897  40.586  29.705   0.163
69473W        W41898  39.875  29.226  14.842
69474W        W41899  24.959  35.491  13.961
69475W        W41900  26.096   8.701   3.751
69476W        W41901   0.795   9.326   2.887
69477W        W41902  23.323  22.275  11.557
69478W        W41903  16.852  36.117   1.280
69479W        W41904   3.863  42.092  12.564
69480W        W41905   5.127   4.129   3.692
69481W        W41906  12.802  11.852  12.713
69482W        W41907  22.030  21.977  13.424
69483W        W41908  24.021  28.783   1.001
69484W        W41909  15.700   6.665   4.226
69485W        W41910  40.050  27.153  13.963
69486W        W41911  41.015  20.046   0.994
69487W        W41912   5.895  21.249   4.395
69488W        W41913  24.773  34.843  13.824
69489W        W41914  23.056  38.322   3.201
69490W        W41915  20.396  29.623  11.209
69491W        W41916  22.960   5.253  10.670
69492W        W41917  37.524  20.755  13.524
69493W        W41918  18.121   2.473   1.381
69494W        W41919  35.892  33.136  13.482
69495W        W41920  31.145   3.330   0.491
69496W        W41921  28.672  23.531   4.762
69497W        W41922   0.173  44.009  10.754
69498W        W41923  12.187  16.037  12.822
69499W        W41924  21.258  24.040  11.995
69500W        W41925  24.447  30.162  12.507
69501W        W41926   1.737  42.109   0.840
69502W        W41927  32.465  43.448  10.660
69503W        W41928  31.498  33.861  11.119
69504W        W41929  27.993  33.875  11.006
69505W        W41930  24.027  32.127   5.363
69506W        W41931  44.771  40.904  11.760
69507W        W41932  33.291  16.448  12.640
69508W        W41933  37.926  36.379   3.856
69509W        W41934  19.767   4.225  10.932
69510W        W41935  34.397  24.157  11.961
69511W        W41936  11.902   6.891   4.187
69512W        W41937  23.447  11.346   9.793
69513W        W41938  43.862  28.882  13.575
69514W        W41939   5.572   6.746   4.857
69515W        W41940  16.312  30.013   4.478
69516W        W41941   1.962  37.920   4.586
69517W        W41942   4.341  36.022  13.212
69518W        W41943  31.752   1.901  13.842
69519W        W41944  23.287  32.948   0.453
69520W        W41945  36.867  21.504  13.511
69521W        W41946   6.610   2.438  13.371
69522W        W41947  40.503   4.850   3.330
69523W        W41948  35.630  33.887   0.283
69524W        W41949  34.304  14.964   3.198
69525W        W41950  21.732  41.809  14.059
69526W        W41951  23.104  39.250   0.265
69527W        W41952  27.366  17.514  13.518
69528W        W41953   3.871  43.023   3.626
69529W        W41954  18.361  17.539  12.557
69530W        W41955  16.197  38.831  12.252
69531W        W41956  32.030   9.843   4.099
69532W        W41957   5.352  37.945   2.748
69533W        W41958   6.174   2.638  14.069
69534W        W41959  18.696  27.775  14.812
69535W        W41960   6.141   7.758   1.752
69536W        W41961  38.041  35.652  13.315
69537W        W41962  16.956  17.619  13.377
69538W        W41963  31.133  34.034   1.328
69539W        W41964  11.048  18.049  14.406
69540W        W41965   8.123  25.125   4.903
69541W        W41966  42.038  34.362   1.960
69542W        W41967  17.614   3.028   3.557
69543W        W41968  33.097   4.885  13.657
69544W        W41969   4.894  34.936   2.720
69545W        W41970  20.195  13.839   3.739
69546W        W41971  17.781  19.280   1.337
69547W        W41972  41.556  20.236  13.337
69548W        W41973  16.564  22.613  14.365
69549W        W41974   2.798  34.589  13.951
69550W        W41975   1.286  15.921  11.589
69551W        W41976  14.702  11.397   2.319
69552W        W41977  36.548  22.666   4.253
69553W        W41978  25.644  23.953   2.255
69554W        W41979  21.123  16.375  13.202
69555W        W41980  25.565  28.944   1.694
69556W        W41981  19.018  34.324  12.813
69557W        W41982  27.173   7.872   2.064
69558W        W41983  32.460   6.686   2.282
69559W        W41984   8.775  18.817  14.314
69560W        W41985  23.614  21.234  10.667
69561W        W41986   8.896  43.030  11.170
69562W        W41987   8.346  32.933  13.147
69563W        W41988  32.459   6.203   2.139
69564W        W41989   7.230   8.797   4.647
69565W        W41990  38.832  40.950   4.034
69566W        W41991  35.037  10.799   4.323
69567W        W41992  22.005  23.923   0.306
69568W        W41993   3.125  33.458   1.287
69569W        W41994  21.965  17.261  14.422
69570W        W41995  17.510  27.611   2.426
69571W        W41996   0.036  30.530   0.781
69572W        W41997  20.669  38.384   1.626
69573W        W41998  32.471   3.713   3.238
69574W        W41999   8.330  35.994  12.997
69575W        W42000  21.239   9.405   1.012
69576W        W42001  38.888  38.884  11.959
69577W        W42002  20.457  41.792   1.552
69578W        W42003   7.463  20.537  13.631
69579W        W42004  18.299  10.706  11.591
69580W        W42005   2.757  16.627  12.810
69581W        W42006  26.137  32.702   4.662
69582W        W42007  12.785  20.106  10.703
69583W        W42008  18.137   7.199  14.937
69584W        W42009  12.769  15.136  14.418
69585W        W42010  15.035  34.482  12.669
69586W        W42011  36.285  22.466   4.671
69587W        W42012  34.427   1.890  13.092
69588W        W42013  40.770  12.205  12.472
69589W        W42014  32.880  38.587  13.891
69590W        W42015  39.666  37.572   1.879
69591W        W42016  32.242  30.527  14.039
69592W        W42017  31.720  17.075   4.226
69593W        W42018  21.056  39.289  13.317
69594W        W42019   8.409  37.056   5.356
69595W        W42020  39.889  20.535  10.885
69596W        W42021  16.249  26.682  13.414
69597W        W42022  10.571  25.202   3.714
69598W        W42023  40.077   1.329   2.527
69599W        W42024  20.945  34.351  13.038
69600W        W42025  11.730  14.880  12.997
69601W        W42026   5.687  28.630  12.534
69602W        W42027  28.874  18.574  11.963
69603W        W42028  36.917  25.447   2.723
69604W        W42029   1.197  24.949   1.006
69605W        W42030  11.596  35.463  14.022
69606W        W42031  19.233  27.311  14.028
69607W        W42032  15.814   2.334  14.436
69608W        W42033  12.065  11.442  13.451
69609W        W42034  35.141  24.162   2.995
69610W        W42035  42.486   4.828   0.377
69611W        W42036  34.889  10.283  12.923
69612W        W42037  27.927  14.909   0.832
69613W        W42038  33.625  32.995  10.157
69614W        W42039  15.250  21.920  11.919
69615W        W42040   1.838  38.110  13.583
69616W        W42041  40.295  24.779   0.053
69617W        W42042  12.169  21.286   4.855
69618W        W42043   3.942  26.615   2.603
69619W        W42044  24.618  13.787   1.797
69620W        W42045  39.862  20.842  12.881
69621W        W42046   4.059  10.788   2.612
69622W        W42047   3.864  33.138   4.667
69623W        W42048   0.762   2.971   1.757
69624W        W42049  24.614  15.140   2.302
69625W        W42050  43.982  14.376   0.377
69626W        W42051   3.502  17.822   1.799
69627W        W42052  29.383  31.577   1.895
69628W        W42053   4.837  31.460  14.477
69629W        W42054  31.424  38.498   4.805
69630W        W42055  43.287  24.133   0.396
69631W        W42056   3.015  21.121   2.391
69632W        W42057  19.693  32.657  11.738
69633W        W42058  43.614  26.006  13.837
69634W        W42059  35.911  14.267  14.703
69635W        W42060   6.681  16.654  13.501
69636W        W42061  31.051  16.893   1.241
69637W        W42062   1.945  37.340   1.991
69638W        W42063  39.983  29.610   3.303
69639W        W42064  36.528  26.914  11.053
69640W        W42065  22.544  43.908  11.533
69641W        W42066  43.390   5.555  14.397
69642W        W42067   2.378  25.127  12.152
69643W        W42068  37.183  38.483  14.127
69644W        W42069  21.462  11.286   1.922
69645W        W42070  26.653   6.284  12.616
69646W        W42071  34.894  42.621  11.218
69647W        W42072   7.936  30.217  13.428
69648W        W42073  36.473  22.124  12.917
69649W        W42074  10.634  17.132   2.675
69650W        W42075  40.900  18.005   4.603
69651W        W42076  34.493  23.028   2.841
69652W        W42077   7.210  36.409  13.918
69653W        W42078   9.975   3.384   2.236
69654W        W42079  11.102  32.862   0.516
69655W        W42080  27.974  12.688  12.353
69656W        W42081  11.632  29.040  14.835
69657W        W42082   4.267  11.412   0.784
69658W        W42083  16.138  32.556  12.131
69659W        W42084  43.475   6.774  13.415
69660W        W42085  22.204  30.106   1.441
69661W        W42086  34.262  12.596  11.150
69662W        W42087  19.361  27.624  11.443
69663W        W42088   6.337  25.273   4.969
69664W        W42089   7.392  12.471  13.415
69665W        W42090  14.115  22.824  14.793
69666W        W42091  14.068  42.341  13.123
69667W        W42092  41.013  33.422   3.852
69668W        W42093   4.676  41.342   2.287
69669W        W42094  33.029  19.008  10.295
69670W        W42095  41.145  19.866   2.279
69671W        W42096  26.967  43.771  12.289
69672W        W42097  19.016  37.095   1.212
69673W        W42098   1.038   7.791  13.082
69674W        W42099  11.609   8.411  11.924
69675W        W42100  22.019  18.877   4.269
69676W        W42101  26.461   3.220  12.440
69677W        W42102  26.609   4.282   0.774
69678W        W42103  43.719  33.348  11.999
69679W        W42104  21.256  18.620  12.618
69680W        W42105  18.230   9.736  12.639
69681W        W42106  38.347  38.416   3.557
69682W        W42107  35.445  11.620   4.313
69683W        W42108  26.380  39.555   1.436
69684W        W42109  22.034   3.784  12.864
69685W        W42110  14.644  17.879   2.760
69686W        W42111  37.856   2.646  14.968
69687W        W42112  39.871  37.591   4.600
69688W        W42113  41.288   0.266   2.366
69689W        W42114  26.495  27.869  12.123
69690W        W42115  19.224  37.562  12.374
69691W        W42116  19.210  44.523   4.343
69692W        W42117  12.758  44.235  13.167
69693W        W42118  14.744  19.516  12.931
69694W        W42119  35.251  17.676  10.789
69695W        W42120  41.981  16.840   4.082
69696W        W42121  32.432   8.856  14.015
69697W        W42122   9.817  11.174  14.073
69698W        W42123  10.702  23.035   2.214
69699W        W42124  36.287  32.114   3.998
69700W        W42125  29.780  29.742  12.497
69701W        W42126  29.600  38.091  10.959
69702W        W42127  43.374  37.063   3.931
69703W        W42128  25.462  18.129   2.204
69704W        W42129  37.963  18.368   0.362
69705W        W42130  12.089  20.645   0.763
69706W        W42131   4.451  38.560   1.524
69707W        W42132  11.559   3.273   4.484
69708W        W42133  11.700   3.229  13.151
69709W        W42134  33.448  12.379  14.307
69710W        W42135  11.205  17.572   1.357
69711W        W42136  11.654  34.363   0.050
69712W        W42137  21.499  37.246  11.171
69713W        W42138  24.817  19.344   0.505
69714W        W42139   6.411  25.932   2.330
69715W        W42140   1.921  26.532   2.096
69716W        W42141  22.925  43.613   0.649
69717W        W42142   3.764   0.270  12.135
69718W        W42143  22.807   1.280   0.972
69719W        W42144  23.444  33.135   1.811
69720W        W42145   9.178  37.825   1.656
69721W        W42146  13.769  28.875  13.859
69722W        W42147  20.331  33.486   3.345
69723W        W42148  28.019  30.100   2.346
69724W        W42149  21.721  37.846  12.598
69725W        W42150  15.314  28.179  13.817
69726W        W42151  31.195   3.761  12.659
69727W        W42152  14.712   7.777   2.804
69728W        W42153  12.145  32.005   1.546
69729W        W42154   4.665   9.714  13.469
69730W        W42155   6.621  11.734   4.088
69731W        W42156   7.340   4.529  11.183
69732W        W42157  26.182  27.954  11.418
69733W        W42158  43.501  13.669  11.036
69734W        W42159  34.702   8.833  14.485
69735W        W42160  35.626  15.292  11.546
69736W        W42161  15.791   5.458  12.580
69737W        W42162  13.750  29.778   4.842
69738W        W42163   1.545  10.672  13.963
69739W        W42164  36.416  22.862  11.803
69740W        W42165   7.664  15.419  14.767
69741W        W42166  13.650  17.536  13.804
69742W        W42167  13.747  40.779   0.863
69743W        W42168   2.359  18.528  11.396
69744W        W42169  38.126  25.475   2.039
69745W        W42170  19.635  43.782  14.786
69746W        W42171  33.418  42.987   3.684
69747W        W42172  25.160   0.964  14.822
69748W        W42173  36.716  15.690   1.811
69749W        W42174   8.255  31.553   0.542
69750W        W42175  39.275  26.871   1.282
69751W        W42176  29.952  25.209  14.532
69752W        W42177   2.445  22.602  12.097
69753W        W42178   2.001  16.600   0.298
69754W        W42179  20.037  36.418  11.401
69755W        W42180   1.799  23.032   1.066
69756W        W42181  44.480  29.388  10.549
69757W        W42182   8.378  32.195  10.711
69758W        W42183  39.332   6.261   1.093
69759W        W42184  41.171  32.062   3.363
69760W        W42185  19.493  31.620   4.987
69761W        W42186  37.359   0.957  12.546
69762W        W42187   7.740  24.286   5.188
69763W        W42188  24.174   0.396   3.729
69764W        W42189  26.175  21.440   1.787
69765W        W42190  20.374  28.080   9.961
69766W        W42191  19.662  44.824  14.776
69767W        W42192   6.782   0.273   2.448
69768W        W42193  22.579   7.052   1.626
69769W        W42194   2.657  38.571  14.332
69770W        W42195  29.134   6.918  10.638
69771W        W42196  11.403  18.083  11.764
69772W        W42197   3.775  29.867  11.052
69773W        W42198  42.373  16.872  12.365
69774W        W42199  18.852  44.586  11.190
69775W        W42200   3.556   4.669   2.292
69776W        W42201  12.664  22.560   1.938
69777W        W42202  27.844   9.840   4.679
69778W        W42203  30.634  39.448  10.742
69779W        W42204  42.804  26.045   4.159
69780W        W42205  25.733   1.716  11.581
69781W        W42206  38.470  22.733   1.730
69782W        W42207  33.953  33.875  11.977
69783W        W42208  37.230  38.416   4.241
69784W        W42209  11.891  21.437   3.892
69785W        W42210   9.394  21.707   4.633
69786W        W42211  31.105  21.665  11.835
69787W        W42212  40.331  10.571  14.842
69788W        W42213  32.847  11.745   1.327
69789W        W42214  14.246  28.901  11.111
69790W        W42215   6.385   3.769  13.824
69791W        W42216  31.901  35.525   2.380
69792W        W42217   8.744  23.130  11.646
69793W        W42218  10.394  38.547   3.794
69794W        W42219  29.590  34.790   1.235
69795W        W42220  37.764   6.216  14.352
69796W        W42221  31.859  37.047   3.522
69797W        W42222  38.589  21.052   3.801
69798W        W42223  33.484  15.256  11.115
69799W        W42224  22.651   1.167   1.990
69800W        W42225  17.477  31.149  13.086
69801W        W42226  44.265  29.096   4.209
69802W        W42227  29.404  20.974   4.526
69803W        W42228  29.922  21.178   4.547
69804W        W42229  18.741   9.839  10.869
69805W        W42230  12.268  27.036   3.785
69806W        W42231  32.545  17.195   0.925
69807W        W42232   7.324  31.408   0.445
69808W        W42233  35.516   9.378  12.462
69809W        W42234  13.296  17.252  11.382
69810W        W42235  12.596   5.343  14.450
69811W        W42236  11.392  14.075   4.175
69812W        W42237  20.738  27.602  12.004
69813W        W42238  39.208   9.077   3.286
69814W        W42239   5.804   3.042   0.848
69815W        W42240  27.148  33.955   0.758
69816W        W42241  42.309   6.828   4.595
69817W        W42242   2.459   8.614   4.087
69818W        W42243  25.630  34.453   3.153
69819W        W42244  11.143   0.718  14.351
69820W        W42245  11.753  35.559  11.558
69821W        W42246  28.889  22.752  10.698
69822W        W42247  42.827   7.333   1.452
69823W        W42248  32.627  43.280  11.993
69824W        W42249  23.039  13.168   1.214
69825W        W42250  14.366  32.680  13.564
69826W        W42251  31.684  22.100  12.550
69827W        W42252   4.389  13.769   3.862
69828W        W42253  44.400  25.315  10.648
69829W        W42254  21.665   8.824  12.943
69830W        W42255  29.585   2.467  14.233
69831W        W42256  41.551   4.978  10.721
69832W        W42257  38.314   1.997  11.961
69833W        W42258   7.209  35.593  11.246
69834W        W42259  24.028  24.550  13.484
69835W        W42260  39.434  16.974   0.408
69836W        W42261   2.824  41.269   0.938
69837W        W42262  36.870  15.928  11.004
69838W        W42263   9.272   6.370  12.597
69839W        W42264  40.409  29.532  13.232
69840W        W42265  30.960   6.565   3.285
69841W        W42266  12.752  26.097  13.580
69842W        W42267  39.765  41.795   4.048
69843W        W42268   2.574  32.580   1.191
69844W        W42269   4.037  27.907   3.625
69845W        W42270  13.361  41.426   3.675
69846W        W42271  36.293  27.096  13.991
69847W        W42272   2.489  24.502   0.534
69848W        W42273  38.139  17.095   0.779
69849W        W42274  20.767  37.161  14.355
69850W        W42275  21.710  25.276  12.416
69851W        W42276  15.230  12.286  12.355
69852W        W42277  11.598  23.304   3.215
69853W        W42278   5.824  33.148   2.684
69854W        W42279  23.264  28.053  12.495
69855W        W42280  40.982   4.600   1.324
69856W        W42281  30.533  12.212  12.008
69857W        W42282  35.864  21.950  11.132
69858W        W42283  21.582  21.752  10.768
69859W        W42284  11.625  28.138  14.791
69860W        W42285  16.837  42.502  13.461
69861W        W42286  10.802  18.557  13.767
69862W        W42287  37.222  37.821  14.977
69863W        W42288  10.058  22.239   1.261
69864W        W42289   3.953   4.848   0.500
69865W        W42290   4.345  38.053   4.685
69866W        W42291  18.197  43.973   4.080
69867W        W42292   7.931  38.567  14.385
69868W        W42293  41.415  34.942   5.091
69869W        W42294  43.337  27.452   2.903
69870W        W42295   8.183  15.976  11.130
69871W        W42296  25.539  29.232   4.256
69872W        W42297  12.115  40.215  11.021
69873W        W42298  10.818  33.375   3.188
69874W        W42299  44.349  44.278   5.000
69875W        W42300   6.773  40.742  12.261
69876W        W42301  39.726  23.036   3.711
69877W        W42302  21.423  35.193  11.699
69878W        W42303   8.655   8.108   3.717
69879W        W42304  17.096  36.325   3.644
69880W        W42305  30.644  14.879   1.976
69881W        W42306  28.345   8.364   0.911
69882W        W42307  38.395  25.751  12.984
69883W        W42308  25.997   2.239  13.276
69884W        W42309  30.899  11.620   1.368
69885W        W42310  35.159  19.245   0.203
69886W        W42311  22.095  41.366  10.625
69887W        W42312   3.766  33.175  11.291
69888W        W42313  27.569  35.042  13.003
69889W        W42314  39.250  22.249  13.082
69890W        W42315  11.396  12.960  13.948
69891W        W42316   7.897  35.365  13.792
69892W        W42317  37.860   0.274  14.840
69893W        W42318   1.744  44.211   2.821
69894W        W42319  14.980  28.202  14.511
69895W        W42320   6.261  42.097   2.699
69896W        W42321  11.119   5.085   1.765
69897W        W42322  11.753  26.713   4.121
69898W        W42323  36.292  26.845  11.491
69899W        W42324   7.736  19.729  12.102
69900W        W42325   3.056  44.818  12.138
69901W        W42326  42.459  15.291  14.969
69902W        W42327  37.688  21.150  14.400
69903W        W42328   8.203   7.424  13.857
69904W        W42329  16.791  15.273  11.501
69905W        W42330  33.053  43.768   4.611
69906W        W42331  16.998  21.628  14.514
69907W        W42332  18.024  26.630  12.112
69908W        W42333  36.496  39.824   3.182
69909W        W42334  23.992  43.418   3.101
69910W        W42335  20.980  41.823  11.561
69911W        W42336  17.506   1.986   3.660
69912W        W42337   9.239  28.745   0.966
69913W        W42338  16.279  43.292   1.902
69914W        W42339   7.359  31.083  11.613
69915W        W42340  19.127   1.790   5.159
69916W        W42341  20.161  33.339  10.622
69917W        W42342  38.918  34.794  12.841
69918W        W42343  37.301  42.725   2.851
69919W        W42344  40.903  44.974  11.895
69920W        W42345   7.831  33.333  10.668
69921W        W42346  18.987  28.032   2.823
69922W        W42347  21.141  21.642  10.481
69923W        W42348   6.139   5.885  13.355
69924W        W42349  19.965  25.946   1.749
69925W        W42350  33.306  36.325  13.503
69926W        W42351  17.339  23.057  14.166
69927W        W42352  36.772  35.542   3.609
69928W        W42353   8.547  17.138   1.965
69929W        W42354  14.856  41.042  14.821
69930W        W42355  25.004  22.981   3.996
69931W        W42356  12.893  33.334  14.252
69932W        W42357  34.001   8.213  11.213
69933W        W42358  10.318   3.342  13.819
69934W        W42359  26.355  37.854   2.817
69935W        W42360  17.938  12.723  12.129
69936W        W42361  21.243  34.135   0.284
69937W        W42362  14.749  31.682   3.174
69938W        W42363  26.228  15.120   4.605
69939W        W42364  15.115  30.917  14.822
69940W        W42365   3.461   8.270  13.802
69941W        W42366   1.409  10.420   2.365
69942W        W42367  27.619  14.358  12.302
69943W        W42368  20.427  30.514   0.267
69944W        W42369  22.242  42.616   4.466
69945W        W42370  35.086  10.707  12.674
69946W        W42371  27.145  37.630  11.126
69947W        W42372  24.249  30.397  14.348
69948W        W42373  30.492  28.898   1.248
69949W        W42374  22.262  32.701   0.943
69950W        W42375  11.196  44.356  13.946
69951W        W42376   6.359  35.426  10.339
69952W        W42377  28.081  36.986  11.110
69953W        W42378   2.105  30.419  13.025
69954W        W42379  19.074  36.637  13.444
69955W        W42380   9.969  43.111  12.912
69956W        W42381  27.623  19.504   1.496
69957W        W42382  12.221  37.573   3.685
69958W        W42383   8.955  10.336  11.458
69959W        W42384  29.554  30.043   2.600
69960W        W42385  33.913  22.268   1.232
69961W        W42386  22.612   9.750   1.817
69962W        W42387  24.248  15.983   4.314
69963W        W42388  11.184  11.296  10.691
69964W        W42389  41.022  24.779  11.159
69965W        W42390  21.790  26.293   3.379
69966W        W42391  23.718  24.044  11.548
69967W        W42392  38.517  21.196  10.368
69968W        W42393  39.610  36.093   3.545
69969W        W42394  12.284  15.109   3.646
69970W        W42395   5.275  14.619   3.727
69971W        W42396  39.207  17.174  11.807
69972W        W42397  42.451  29.006  11.213
69973W        W42398  38.573  39.957   0.289
69974W        W42399  39.969  41.887   2.737
69975W        W42400   0.504  22.358   2.939
69976W        W42401   3.026  39.947   3.894
69977W        W42402   9.358  21.542   3.332
69978W        W42403  37.635  13.783  13.502
69979W        W42404  36.998  34.740  12.096
69980W        W42405  41.541  38.815  12.929
69981W        W42406   3.902  20.171  14.952
69982W        W42407  31.699   1.829  12.127
69983W        W42408   2.727  22.598  13.068
69984W        W42409  12.742   3.632  14.018
69985W        W42410  20.764  23.088   0.345
69986W        W42411  23.474  36.598  11.175
69987W        W42412  29.953  24.113   1.266
69988W        W42413  42.138  19.053  13.119
69989W        W42414  17.543  43.090  13.039
69990W        W42415  13.470  18.012  13.709
69991W        W42416  40.618  14.827  14.947
69992W        W42417  16.340  18.541  11.080
69993W        W42418  38.819  43.933   0.538
69994W        W42419  24.959   3.540  13.542
69995W        W42420  27.503  15.651   1.078
69996W        W42421  41.709  11.761  10.123
69997W        W42422  12.604  17.084  12.055
69998W        W42423  42.440   7.877  14.246
69999W        W42424  13.213  20.034   0.608
70000W        W42425   2.900   2.779   3.781
70001W        W42426  25.114   4.651  12.104
70002W        W42427  10.936  10.114   1.319
70003W        W42428  17.772  11.245   3.150
70004W        W42429   9.312   1.711   2.492
70005W        W42430  42.343  37.545  14.603
70006W        W42431  12.609  34.931   1.380
70007W        W42432  15.520   6.782  11.673
70008W        W42433  18.432  34.441   3.786
70009W        W42434  29.427  12.152   4.147
70010W        W42435  21.802   3.561   0.629
70011W        W42436  24.923   0.474  14.812
70012W        W42437   2.437  25.127  11.662
70013W        W42438  12.358   2.224  12.450
70014W        W42439  43.268  43.308  11.688
70015W        W42440   4.988  23.290   1.852
70016W        W42441  16.098  16.721   0.955
70017W        W42442   5.011  37.111   4.183
70018W        W42443  23.033  13.557  14.536
70019W        W42444   4.130  20.620  14.808
70020W        W42445  13.567   8.638  11.184
70021W        W42446  39.324  23.444   4.482
70022W        W42447  43.411  11.426  12.512
70023W        W42448   9.744   2.545  14.285
70024W        W42449  22.248  42.893  14.810
70025W        W42450  28.143  17.112  13.559
70026W        W42451  28.488  41.007  12.518
70027W        W42452  23.175  32.177  13.315
70028W        W42453  27.890  41.250  14.031
70029W        W42454  32.681  40.032   4.376
70030W        W42455  11.795  35.171   4.116
70031W        W42456  13.376   1.519  11.033
70032W        W42457  43.347  26.589  11.579
70033W        W42458  18.889  17.834   1.929
70034W        W42459   7.154  32.859   0.193
70035W        W42460   0.390   5.888   3.694
70036W        W42461   5.403   8.395  13.834
70037W        W42462  21.496  14.121   4.582
70038W        W42463  26.965  32.849  14.426
70039W        W42464  17.334  22.155  14.374
70040W        W42465  33.409  11.541   0.375
70041W        W42466  41.530  26.013  13.282
70042W        W42467  43.453  43.776  11.924
70043W        W42468  38.107   7.124  12.399
70044W        W42469  22.732  10.739   1.747
70045W        W42470  39.123  29.159   2.325
70046W        W42471  12.305  36.951  12.533
70047W        W42472  42.902  11.932  10.521
70048W        W42473   5.295  39.097  13.115
70049W        W42474  26.386  21.177   2.280
70050W        W42475  23.617  43.970  11.167
70051W        W42476  33.005  16.843  10.996
70052W        W42477  26.150  14.100  13.774
70053W        W42478  24.712  14.101  10.844
70054W        W42479  43.954  28.662   0.455
70055W        W42480  22.233  12.164   3.328
70056W        W42481  35.535  13.357   0.970
70057W        W42482  17.460   1.394  14.963
70058W        W42483  20.916  18.530   2.799
70059W        W42484   4.774   7.314  10.117
70060W        W42485  14.595  25.618   4.889
70061W        W42486  11.804  27.601   4.191
70062W        W42487   7.437   5.229   1.745
70063W        W42488  13.537  24.313  12.051
70064W        W42489   3.019  35.987   2.115
70065W        W42490  37.156   3.592  13.021
70066W        W42491  39.869  35.536  14.005
70067W        W42492  13.259  17.491   3.181
70068W        W42493  26.983  31.135  13.440
70069W        W42494   6.526  34.384  10.681
70070W        W42495  32.895  14.314   1.792
70071W        W42496   4.734  35.373   3.093
70072W        W42497   4.932  44.251   4.101
70073W        W42498  37.585  22.620  11.451
70074W        W42499   0.001   6.665   2.340
70075W        W42500  23.299  23.395   2.720
70076W        W42501  34.229  30.166  14.971
70077W        W42502  12.260  44.300  12.927
70078W        W42503   6.821  28.221  13.368
70079W        W42504  42.585  14.136   4.186
70080W        W42505  10.164  11.059   4.805
70081W        W42506  27.027  40.967   3.068
70082W        W42507  36.922  11.278   3.369
70083W        W42508  18.300  10.877   2.062
70084W        W42509  43.767   1.859  11.665
70085W        W42510   2.807  40.246   0.925
70086W        W42511  29.429  44.759   0.315
70087W        W42512   2.164   6.577   1.868
70088W        W42513  21.209  35.080  14.032
70089W        W42514   2.639  35.516   4.178
70090W        W42515  15.774   8.247  12.141
70091W        W42516  15.332  34.100   0.885
70092W        W42517  31.248  36.376  11.647
70093W        W42518  43.815  20.106   2.926
70094W        W42519   6.393  29.648  14.745
70095W        W42520   0.651  12.252  12.362
70096W        W42521  29.400  23.920   3.356
70097W        W42522  43.224  13.280  11.638
70098W        W42523  40.637  34.060  11.438
70099W        W42524  21.738   6.286   4.080
70100W        W42525  16.287   3.788  12.946
70101W        W42526  27.100   4.674  13.638
70102W        W42527   2.727  12.789  11.033
70103W        W42528   2.053  32.092   1.778
70104W        W42529  28.219   8.134   3.221
70105W        W42530  37.481  33.102  12.866
70106W        W42531  15.090  40.145  12.509
70107W        W42532  30.903   9.079  12.805
70108W        W42533  33.942   3.933  14.325
70109W        W42534  17.863  20.159   4.185
70110W        W42535   7.906  24.589  12.925
70111W        W42536  22.942  21.448   2.724
70112W        W42537  28.476  44.081   3.765
70113W        W42538  14.114  27.996   1.265
70114W        W42539   0.876  22.659  12.250
70115W        W42540  43.494  20.099   4.108
70116W        W42541  41.444  12.095  10.448
70117W        W42542  33.075  11.743  12.346
70118W        W42543  22.585   4.941   0.690
70119W        W42544  44.410  25.546   2.808
70120W        W42545  10.194  44.924   2.839
70121W        W42546   7.790   3.468  10.165
70122W        W42547  32.646  42.297   2.726
70123W        W42548  26.273  30.111   1.677
70124W        W42549  31.458   1.964  12.568
70125W        W42550  18.072  43.470   2.843
70126W        W42551  31.228  14.280  14.880
70127W        W42552  42.233  10.253   4.874
70128W        W42553  14.063  14.050   0.280
70129W        W42554  28.704  21.514  11.050
70130W        W42555  37.580  12.742  11.686
70131W        W42556  22.820  19.375  13.987
70132W        W42557  30.938  15.909  14.010
70133W        W42558  20.679  15.664  14.138
70134W        W42559  43.696   8.992  13.276
70135W        W42560  37.434  37.179   2.330
70136W        W42561  18.166  35.382  13.719
70137W        W42562   7.149  20.161   2.218
70138W        W42563   8.559  30.647  11.797
70139W        W42564  16.124  40.784   0.342
70140W        W42565  14.705   9.766  13.908
70141W        W42566  42.811  23.054  12.178
70142W        W42567  40.930  28.180   1.739
70143W        W42568  31.940  27.143  12.131
70144W        W42569  29.318  10.755  12.910
70145W        W42570   0.277  32.645   3.993
70146W        W42571  31.617  39.038   0.435
70147W        W42572  16.159  12.023  10.263
70148W        W42573  17.142  24.237  10.708
70149W        W42574  24.230  30.469  11.141
70150W        W42575  32.432  21.205  14.743
70151W        W42576   5.275  30.541   1.225
70152W        W42577  35.049   1.410   4.973
70153W        W42578   3.542   8.627   3.369
70154W        W42579  13.774  26.529   4.192
70155W        W42580  39.623   5.189   4.058
70156W        W42581  28.917  32.324  12.112
70157W        W42582  13.316  40.677   2.163
70158W        W42583  38.969  20.057  14.838
70159W        W42584  33.808  26.707  13.306
70160W        W42585  30.144   6.814  14.025
70161W        W42586  12.151  33.435  11.083
70162W        W42587   5.992  23.190   4.523
70163W        W42588  18.280  31.154   0.422
70164W        W42589  25.714   2.935  14.119
70165W        W42590  16.240  35.196   1.900
70166W        W42591  32.244  11.257  14.321
70167W        W42592  12.613  26.136   1.466
70168W        W42593  23.727  17.480  11.131
70169W        W42594  35.864  25.068   5.340
70170W        W42595  44.775  42.169   4.836
70171W        W42596  20.663  27.533  13.914
70172W        W42597  17.348  32.941  14.298
70173W        W42598  31.480  27.587   3.282
70174W        W42599   8.643  27.621   3.361
70175W        W42600   8.469  28.031  12.615
70176W        W42601  36.367  39.009   1.468
70177W        W42602  44.448   4.416   0.056
70178W        W42603   0.805  17.220   4.789
70179W        W42604  11.942  19.205   4.431
70180W        W42605  26.053  42.961  12.991
70181W        W42606  41.828   1.316   3.894
70182W        W42607  22.130  36.345   1.408
70183W        W42608  23.238  18.795   1.843
70184W        W42609  24.468   8.934   1.787
70185W        W42610  25.376  27.170  11.633
70186W        W42611  14.244  18.131  14.883
70187W        W42612  40.531   3.466  14.958
70188W        W42613  24.990  11.837  14.406
70189W        W42614  24.168   6.493  10.581
70190W        W42615  17.334  42.746  12.601
70191W        W42616  44.719  19.235  14.377
70192W        W42617  30.513   8.837   4.254
70193W        W42618  29.494  19.918   4.776
70194W        W42619   5.857   5.423   1.427
70195W        W42620  38.014   1.882   0.341
70196W        W42621  39.317  14.705  13.862
70197W        W42622  42.980  30.436  14.484
70198W        W42623  26.703  33.751   4.181
70199W        W42624  10.678  21.522   0.296
70200W        W42625   6.583  16.307   2.339
70201W        W42626   7.480  37.863   2.867
70202W        W42627  41.588  23.993   3.522
70203W        W42628   5.754  34.622  13.353
70204W        W42629  23.929  11.196  12.355
70205W        W42630  14.799  33.875   4.821
70206W        W42631  18.674  43.981   3.844
70207W        W42632   6.998  37.093   3.741
70208W        W42633  12.828  27.932   2.213
70209W        W42634   7.462   9.233  10.595
70210W        W42635  26.948  43.082   4.702
70211W        W42636  20.067  44.566  10.662
70212W        W42637  18.498  24.536   1.731
70213W        W42638   4.147  41.944  13.526
70214W        W42639  25.060  15.204   1.060
70215W        W42640  24.498  29.725  14.421
70216W        W42641  40.040  21.184   1.113
70217W        W42642  39.853   4.499   0.209
70218W        W42643  18.007  12.795   1.357
70219W        W42644  21.711  33.904  12.413
70220W        W42645  19.208   4.947   4.184
70221W        W42646  26.910  23.323   3.181
70222W        W42647   6.234  12.107  12.227
70223W        W42648  18.393  24.103   1.265
70224W        W42649  34.829  38.926  11.053
70225W        W42650   6.217  22.651  12.877
70226W        W42651  37.455  10.709  10.703
70227W        W42652  27.590   2.928  13.152
70228W        W42653  35.132  39.315  10.727
70229W        W42654  27.884  17.567  13.539
70230W        W42655   4.315  42.232   4.505
70231W        W42656  35.407  19.667  11.126
70232W        W42657  35.395  10.301   4.252
70233W        W42658  33.998  38.504   1.382
70234W        W42659  19.261  31.094   1.778
70235W        W42660  27.738  20.894   0.192
70236W        W42661  27.192  24.215  13.552
70237W        W42662  34.930  25.898   1.399
70238W        W42663   9.360  40.960   3.602
70239W        W42664  19.860   8.608  11.133
70240W        W42665  44.569  41.943   4.305
70241W        W42666  33.011   3.950  12.346
70242W        W42667  35.127   4.882   2.811
70243W        W42668  12.449  40.506   3.184
70244W        W42669  10.378   2.829  13.940
70245W        W42670  12.214  26.748   2.364
70246W        W42671  18.437  16.110  14.710
70247W        W42672  34.898  24.953   0.989
70248W        W42673  21.276  43.333   4.050
70249W        W42674  41.299  38.981  11.549
70250W        W42675  28.620  38.869  11.490
70251W        W42676  28.174  20.609   3.546
70252W        W42677  16.683  43.498  12.320
70253W        W42678  40.039   4.243  13.503
70254W        W42679  37.433  37.873   3.756
70255W        W42680   9.457   5.801  14.775
70256W        W42681  36.599  29.811  13.387
70257W        W42682  43.384  32.885  11.272
70258W        W42683   4.020  23.662  12.137
70259W        W42684  13.849  42.953   3.151
70260W        W42685  43.035   5.787   4.820
70261W        W42686  36.877   8.462  13.025
70262W        W42687  27.103  21.616  12.397
70263W        W42688   3.894  36.596   3.386
70264W        W42689  31.500  21.245   1.964
70265W        W42690  19.991  26.882   2.675
70266W        W42691  34.091  13.890  14.312
70267W        W42692   9.574  43.803   0.531
70268W        W42693   3.697  35.833  14.698
70269W        W42694  34.641  28.140   2.191
70270W        W42695   1.550  31.916  12.602
70271W        W42696  34.373  30.513  13.300
70272W        W42697   2.681  12.733  11.969
70273W        W42698  41.331  39.604  13.814
70274W        W42699  32.824  21.025   0.699
70275W        W42700  33.805  21.799   2.721
70276W        W42701   9.233   8.749   0.388
70277W        W42702   2.933  41.917   1.872
70278W        W42703  39.254  31.221  12.630
70279W        W42704   8.192  17.837  10.614
70280W        W42705  36.634   5.410  14.956
70281W        W42706   0.869  10.461   4.544
70282W        W42707   1.882  40.303  12.809
70283W        W42708  26.649  19.739   3.865
70284W        W42709  43.255  12.114  12.987
70285W        W42710   2.005  43.300   2.278
70286W        W42711  11.785  12.804   3.371
70287W        W42712  11.391   2.037   0.767
70288W        W42713   5.216  42.697   2.366
70289W        W42714  23.942  31.580   0.958
70290W        W42715   2.132  21.196   4.121
70291W        W42716   9.955  23.115   4.505
70292W        W42717   9.093  13.588  12.390
70293W        W42718  33.401  44.841   4.102
70294W        W42719  10.910  37.683   4.070
70295W        W42720  15.488  29.083   3.039
70296W        W42721  15.785  38.988  14.810
70297W        W42722  26.679  22.225   1.818
70298W        W42723  18.190  16.786  13.397
70299W        W42724  11.294  20.120   1.238
70300W        W42725   2.999  32.515   1.472
70301W        W42726   9.390  35.349   0.037
70302W        W42727  13.720  20.939  12.679
70303W        W42728   5.375  10.182  11.574
70304W        W42729  16.457  20.596  13.982
70305W        W42730   3.769  44.162   0.278
70306W        W42731  13.642  43.331   1.800
70307W        W42732  26.447  26.945   4.463
70308W        W42733  21.471  21.064  11.944
70309W        W42734  39.141  26.707  10.425
70310W        W42735  41.383  14.868   0.995
70311W        W42736  23.177   5.422   1.774
70312W        W42737  13.655  14.061   2.389
70313W        W42738  39.901   4.693  14.731
70314W        W42739   0.942  37.808  10.378
70315W        W42740  24.763  37.813  13.248
70316W        W42741  33.389   3.413  14.444
70317W        W42742  26.131  41.220  13.541
70318W        W42743  40.324  26.690   2.831
70319W        W42744  22.621   5.402   0.462
70320W        W42745   9.876  22.730   1.267
70321W        W42746  33.421  21.200  14.445
70322W        W42747  43.375  22.300   2.057
70323W        W42748   4.791  27.513  10.310
70324W        W42749   4.666  43.981   2.805
70325W        W42750  23.994   3.862  10.337
70326W        W42751   5.862  36.018  11.895
70327W        W42752   5.166  27.427  13.501
70328W        W42753  44.330  36.536  10.687
70329W        W42754  20.957  38.792  13.271
70330W        W42755  20.436  18.474   3.561
70331W        W42756  39.535  36.096   1.887
70332W        W42757  10.523  38.569  11.308
70333W        W42758   6.733  16.250  12.880
70334W        W42759  27.027  16.315  13.395
70335W        W42760  30.084  44.530  14.001
70336W        W42761  28.741  18.955   0.424
70337W        W42762   8.591   7.311   3.173
70338W        W42763  18.109  38.763   0.228
70339W        W42764  16.665  28.483   4.417
70340W        W42765   1.549  36.909   2.825
70341W        W42766   0.651  11.843  12.905
70342W        W42767  33.074  14.257   4.842
70343W        W42768  42.994  27.216  11.130
70344W        W42769  23.419  29.558  10.830
70345W        W42770  44.067  21.116  11.841
70346W        W42771   0.746  39.508  11.010
70347W        W42772  10.066  37.074  14.808
70348W        W42773  26.068   8.139   2.843
70349W        W42774  18.761   2.292   4.597
70350W        W42775  20.890  17.222  11.040
70351W        W42776  30.040   9.706   3.626
70352W        W42777  11.619  22.449   0.540
70353W        W42778  30.618  38.924  10.696
70354W        W42779  39.538   4.139  13.517
70355W        W42780  28.217  16.569  11.583
70356W        W42781  31.113  44.217   2.487
70357W        W42782  12.831  36.315  14.978
70358W        W42783  25.509   9.720  11.029
70359W        W42784   1.084  32.235  13.314
70360W        W42785  18.797  44.204   4.294
70361W        W42786  14.661  33.120  14.000
70362W        W42787  12.310  29.349  12.070
70363W        W42788  23.274  18.251   3.562
70364W        W42789  43.949  25.742   0.868
70365W        W42790  24.010   0.691   0.370
70366W        W42791  20.714  43.360  10.795
70367W        W42792  18.098  25.143  14.911
70368W        W42793   8.644  25.964  13.398
70369W        W42794  18.503  32.921   0.970
70370W        W42795  14.781  15.263   0.192
70371W        W42796  12.332  34.636   2.427
70372W        W42797  38.387  39.080  11.112
70373W        W42798  33.493  18.599   9.849
70374W        W42799  26.559  22.339  12.683
70375W        W42800  43.200  23.517   4.343
70376W        W42801   8.428  43.956  14.791
70377W        W42802  28.504  22.785  14.824
70378W        W42803   6.892  17.530   4.234
70379W        W42804  21.508  19.456   3.537
70380W        W42805   4.344   8.163   4.074
70381W        W42806  21.591  20.755   1.906
70382W        W42807  39.462  34.582   1.763
70383W        W42808  42.071   9.765  11.145
70384W        W42809  37.324  38.960  11.943
70385W        W42810   8.970   7.434  13.456
70386W        W42811   1.231  21.726   1.466
70387W        W42812  36.780  22.121  11.576
70388W        W42813   8.639   9.187  13.914
70389W        W42814  16.164  35.095  12.977
70390W        W42815  21.412  18.061  13.409
70391W        W42816  34.870  26.712   0.152
70392W        W42817  31.338  26.719  10.989
70393W        W42818  29.947  28.521  14.313
70394W        W42819  39.250  23.044   2.983
70395W        W42820  32.619  16.379   5.449
70396W        W42821  39.811  21.084  12.398
70397W        W42822  21.317  23.115  13.534
70398W        W42823  20.481  16.893  11.052
70399W        W42824  35.374  14.636   0.450
70400W        W42825  22.677   8.698  13.857
70401W        W42826  31.410  27.584   2.291
70402W        W42827  41.530  39.498   2.682
70403W        W42828  12.647  39.558   1.722
70404W        W42829   9.975  25.056   2.408
70405W        W42830  38.425  42.749  10.978
70406W        W42831  13.795  14.214   0.885
70407W        W42832  25.238   9.475   3.844
70408W        W42833  39.560   5.133  11.563
70409W        W42834  20.118   1.510  11.889
70410W        W42835  33.738  17.831   5.025
70411W        W42836  19.826  21.714   3.306
70412W        W42837  15.405  25.590   3.703
70413W        W42838  38.643  39.450   1.800
70414W        W42839   2.449  24.729  13.866
70415W        W42840  17.262  32.938   0.194
70416W        W42841  44.656  10.181   0.210
70417W        W42842  22.510  21.678  10.760
70418W        W42843  36.671  25.170   1.214
70419W        W42844  22.925   5.894   2.781
70420W        W42845   2.734  35.895   2.547
70421W        W42846  32.457  18.611   5.536
70422W        W42847  41.233  35.226   3.722
70423W        W42848  12.142   2.905   1.822
70424W        W42849   1.685   8.170  14.962
70425W        W42850  24.714  37.557  14.264
70426W        W42851   6.667  33.762  14.450
70427W        W42852   4.983  18.073  12.332
70428W        W42853  34.667   6.743  14.431
70429W        W42854  10.202   1.945  10.622
70430W        W42855  15.655   2.567  14.926
70431W        W42856   7.714  19.808  14.569
70432W        W42857  36.095  16.213   1.395
70433W        W42858  38.803  14.686  13.896
70434W        W42859  40.818  25.616   1.819
70435W        W42860  15.097   5.434  11.655
70436W        W42861  17.321  15.600  12.528
70437W        W42862  23.714  43.736   1.034
70438W        W42863   4.949  11.993  11.401
70439W        W42864  17.478   9.475  12.857
70440W        W42865   3.331  42.412   0.474
70441W        W42866  39.780  42.827  14.790
70442W        W42867  30.464  15.755  10.938
70443W        W42868  41.820  28.273   0.714
70444W        W42869  35.837   3.850  11.969
70445W        W42870  15.535  42.834   2.222
70446W        W42871  17.927  15.809  13.859
70447W        W42872  28.237  17.757   2.204
70448W        W42873  23.693  28.674   0.495
70449W        W42874   8.809  34.881  11.144
70450W        W42875   0.141   1.969  14.550
70451W        W42876  40.396  38.872   0.292
70452W        W42877   7.825  40.052  11.675
70453W        W42878  17.018  31.209  13.313
70454W        W42879  26.955  43.363   1.659
70455W        W42880  34.647  28.629   2.401
70456W        W42881  37.854  21.535  12.076
70457W        W42882   9.978  33.515  14.044
70458W        W42883  28.159  30.450   3.314
70459W        W42884  15.634   3.312  14.267
70460W        W42885   7.513  20.646  11.655
70461W        W42886  12.709  27.530   3.677
70462W        W42887  41.838   0.530   4.074
70463W        W42888  10.715  38.040   4.407
70464W        W42889  19.193  31.961  14.885
70465W        W42890   2.895  35.323   0.809
70466W        W42891  20.821   9.807   2.701
70467W        W42892   7.833  44.693  14.884
70468W        W42893  11.249  23.072  13.514
70469W        W42894  34.844  16.505   2.309
70470W        W42895  15.871  25.105   1.442
70471W        W42896   3.071  37.307   4.167
70472W        W42897  35.711  38.652  11.937
70473W        W42898  34.304  23.686   2.229
70474W        W42899   2.452  22.064   3.771
70475W        W42900  38.172   6.877  11.075
70476W        W42901   5.958  40.368  14.393
70477W        W42902  11.765  33.235  13.619
70478W        W42903  19.142  26.174   0.506
70479W        W42904  12.431  20.285   2.299
70480W        W42905  12.616  17.197  14.997
70481W        W42906  44.858  44.245   0.545
70482W        W42907  27.013  15.317  14.492
70483W        W42908  36.425   0.072  13.555
70484W        W42909  28.618  20.951  14.852
70485W        W42910  32.582  12.136   3.188
70486W        W42911   8.768  21.748  12.100
70487W        W42912  35.093  20.941  11.141
70488W        W42913  13.749  27.946   1.904
70489W        W42914  30.086   5.739  12.476
70490W        W42915  21.097  15.872  13.337
70491W        W42916  19.153  30.088  14.806
70492W        W42917  27.903  44.274  14.904
70493W        W42918  30.437  21.777  10.662
70494W        W42919  18.043  41.062   2.310
70495W        W42920  39.032  31.454   4.091
70496W        W42921   5.316  14.329   0.436
70497W        W42922  23.466  17.799   3.396
70498W        W42923   6.826  21.259   2.745
70499W        W42924   9.398  16.011  13.323
70500W        W42925   5.998   3.359  12.910
70501W        W42926  24.080  27.919   2.353
70502W        W42927  29.277  39.382  14.076
70503W        W42928  19.189   0.228   2.328
70504W        W42929  24.511  42.350  10.843
70505W        W42930  17.301  22.677   2.766
70506W        W42931  30.433  17.253  10.620
70507W        W42932  44.743   2.265  12.860
70508W        W42933  23.589  26.595   0.211
70509W        W42934   1.749  12.541  11.751
70510W        W42935  23.561   3.239  14.437
70511W        W42936   9.944   0.899  10.727
70512W        W42937  35.441   0.306  11.421
70513W        W42938  36.360  14.174   1.292
70514W        W42939  27.122  23.765   3.232
70515W        W42940  24.371  42.552   4.039
70516W        W42941  25.826   8.876   4.243
70517W        W42942  21.635  29.881   2.206
70518W        W42943   2.474  21.703  13.227
70519W        W42944  34.323  34.136   3.682
70520W        W42945  24.428  25.667  12.195
70521W        W42946  38.483  16.571  13.180
70522W        W42947  30.552   7.437   1.661
70523W        W42948   7.817  14.818  11.076
70524W        W42949  12.710  19.815   3.584
70525W        W42950  30.332   8.444  13.508
70526W        W42951   3.707  41.618   4.167
70527W        W42952   1.159  18.301  14.757
70528W        W42953  39.037  28.026  11.974
70529W        W42954  43.439  24.649   0.306
70530W        W42955  28.096  33.455   9.767
70531W        W42956   6.792  33.118  14.076
70532W        W42957  18.581  23.676   3.388
70533W        W42958   2.282  11.152   0.007
70534W        W42959  44.456   1.915   2.017
70535W        W42960  12.666   7.220  10.965
70536W        W42961  31.868  24.540  11.674
70537W        W42962  28.212  26.228  11.532
70538W        W42963  12.558   3.194  14.960
70539W        W42964   8.837  11.222   4.738
70540W        W42965  22.287  12.787   1.855
70541W        W42966  29.703  22.139  13.561
70542W        W42967   9.653  31.552   1.189
70543W        W42968  43.784  24.602   3.757
70544W        W42969  31.023  21.116   1.301
70545W        W42970  21.004  35.510  13.832
70546W        W42971  16.614   8.340   4.609
70547W        W42972  27.981  30.315  11.347
70548W        W42973  14.618   4.565   4.292
70549W        W42974  36.846  37.478  12.482
70550W        W42975  12.483  19.557  11.563
70551W        W42976  35.867   3.281   1.835
70552W        W42977  26.012  16.871  10.632
70553W        W42978  10.885  36.424  10.570
70554W        W42979  13.174  33.003   0.072
70555W        W42980  44.595  12.288   1.416
70556W        W42981   6.676  16.217   4.596
70557W        W42982  29.514  41.149   1.536
70558W        W42983  35.572  15.507   0.048
70559W        W42984  18.537   9.325  12.024
70560W        W42985  36.814  19.819  14.897
70561W        W42986  26.100  30.918  12.664
70562W        W42987  34.737  27.311   2.291
70563W        W42988  17.950   0.864   4.145
70564W        W42989  41.256   3.214   2.276
70565W        W42990  13.940  44.975   0.336
70566W        W42991   4.635  23.598   3.652
70567W        W42992  36.926   2.164  14.077
70568W        W42993  43.513   7.717   2.687
70569W        W42994  37.295  18.773   0.869
70570W        W42995  42.922  41.452   4.694
70571W        W42996  40.488  21.987  14.729
70572W        W42997  25.305  11.231   0.853
70573W        W42998  13.258  14.335   2.149
70574W        W42999  26.948   3.332  12.381
70575W        W43000  26.259  41.079  10.824
70576W        W43001  40.007  38.054   0.348
70577W        W43002  38.621  40.349  11.751
70578W        W43003  15.169  35.947   3.197
70579W        W43004   3.686  33.608   4.561
70580W        W43005   6.839  15.095  14.417
70581W        W43006   4.477   0.924   1.407
70582W        W43007  34.415  31.079   4.532
70583W        W43008  19.304  10.676  12.114
70584W        W43009  39.562  14.717  12.568
70585W        W43010   6.181   0.002  13.568
70586W        W43011  27.156   3.710   0.422
70587W        W43012  16.094  44.927   0.955
70588W        W43013  29.847  33.015   3.228
70589W        W43014  22.312  41.985  14.926
70590W        W43015  10.328  10.584  14.163
70591W        W43016  31.591  18.154   2.408
70592W        W43017   9.411  17.749   2.793
70593W        W43018   4.306   9.590   3.853
70594W        W43019  17.739   5.508   3.805
70595W        W43020  29.643  12.243  13.018
70596W        W43021  14.515  32.853  11.577
70597W        W43022   3.296  32.279   0.079
70598W        W43023   8.706  28.293  11.573
70599W        W43024  25.089  30.151  14.186
70600W        W43025  13.034  30.116  11.971
70601W        W43026  21.700   0.576  12.926
70602W        W43027  39.123  31.331  12.096
70603W        W43028  12.808  33.510   4.516
70604W        W43029  33.555  36.613  13.088
70605W        W43030  20.992   3.864   0.438
70606W        W43031  32.909  14.288  13.062
70607W        W43032   9.175  34.414  14.845
70608W        W43033  41.049  32.359   0.915
70609W        W43034  43.049  28.054  13.863
70610W        W43035  21.474  35.956   4.613
70611W        W43036  10.792  21.287  14.008
70612W        W43037  18.573  13.037  12.615
70613W        W43038  43.499  17.180   1.065
70614W        W43039  21.406  20.041  11.478
70615W        W43040  30.105  39.581  10.775
70616W        W43041  33.068   8.428   1.939
70617W        W43042  38.867  28.337   4.141
70618W        W43043  38.842   9.596  13.608
70619W        W43044  21.027  25.663   4.586
70620W        W43045  14.677  17.576  13.848
70621W        W43046  33.110  31.314  13.308
70622W        W43047  37.969  28.098   4.413
70623W        W43048   0.907  36.398   0.907
70624W        W43049  28.106  14.932   5.026
70625W        W43050   6.834  16.728   1.621
70626W        W43051  35.493  39.287  11.577
70627W        W43052  12.669  44.244   3.388
70628W        W43053  17.539  23.072  14.749
70629W        W43054  17.705   2.804  14.364
70630W        W43055  40.052  34.193   4.061
70631W        W43056   5.183  36.205  12.664
70632W        W43057  28.878   5.175   4.619
70633W        W43058   3.867  43.668   2.196
70634W        W43059  10.771  39.799   0.412
70635W        W43060  35.902  23.502  14.118
70636W        W43061  14.209  13.787   1.879
70637W        W43062  41.097  14.557   5.104
70638W        W43063  15.697  30.934   5.115
70639W        W43064  11.177  28.638  13.606
70640W        W43065  30.688   1.910  12.166
70641W        W43066  19.777  23.788  12.524
70642W        W43067   5.297  23.578   4.377
70643W        W43068   0.943  25.262   2.245
70644W        W43069  17.602  31.771  13.539
70645W        W43070   7.963  27.998  12.560
70646W        W43071   8.684  11.661  14.748
70647W        W43072  42.289  30.152  11.638
70648W        W43073  29.011  10.220  10.462
70649W        W43074  41.142  44.412   3.033
70650W        W43075  35.315   5.945   4.463
70651W        W43076  27.429  18.071   2.199
70652W        W43077  25.222  32.927  13.947
70653W        W43078  25.706  13.645  13.054
70654W        W43079   2.616  20.164  12.597
70655W        W43080  10.886  38.881   2.757
70656W        W43081  19.263   3.773  12.495
70657W        W43082  36.092  26.561  13.978
70658W        W43083   4.095  21.160  11.931
70659W        W43084  28.403  41.216  11.659
70660W        W43085  43.513  30.002   1.221
70661W        W43086  27.293  31.563  13.285
70662W        W43087  21.032   9.230   0.057
70663W        W43088   8.859   4.050  13.950
70664W        W43089  33.668   8.166  11.623
70665W        W43090  11.592  43.856  10.730
70666W        W43091  28.049  18.049  13.899
70667W        W43092  14.336  35.461  13.863
70668W        W43093  21.078   6.354  12.914
70669W        W43094  22.987  29.560   0.910
70670W        W43095  38.683  32.993   5.083
70671W        W43096  40.626  12.279   3.090
70672W        W43097  32.140  21.276  12.434
70673W        W43098  25.137  20.216  11.974
70674W        W43099  28.154   9.162   3.224
70675W        W43100  28.461  35.938  10.845
70676W        W43101   7.534  32.315  10.596
70677W        W43102   1.945   2.859   3.730
70678W        W43103   2.033   1.252   0.923
70679W        W43104  21.582  42.065  10.737
70680W        W43105   7.649  31.161   2.867
70681W        W43106  24.631  42.567  10.398
70682W        W43107   4.708  13.923  10.443
70683W        W43108  36.876  14.139   5.057
70684W        W43109  21.758  26.239  10.798
70685W        W43110   0.809  34.987  10.753
70686W        W43111  22.736  10.483  12.119
70687W        W43112  29.661  35.745   3.588
70688W        W43113  31.250  29.027  10.687
70689W        W43114  23.486   9.292   3.825
70690W        W43115  15.574  36.968   0.269
70691W        W43116  23.844   4.280  14.442
70692W        W43117  30.430  12.895   0.447
70693W        W43118  37.474  35.586   4.829
70694W        W43119  34.105  31.443   4.778
70695W        W43120  29.685  10.199   2.316
70696W        W43121  10.959  33.264   4.146
70697W        W43122  21.440  21.638   2.256
70698W        W43123   0.169  12.269  12.591
70699W        W43124  42.192  11.208   0.436
70700W        W43125  34.162  23.148   4.656
70701W        W43126   2.131   9.643  14.912
70702W        W43127  10.318  41.490  12.710
70703W        W43128   8.640   5.004  11.998
70704W        W43129  21.556   6.995  13.876
70705W        W43130  21.791  37.697   3.728
70706W        W43131  14.340  35.311  11.247
70707W        W43132  14.358   7.666  13.524
70708W        W43133  44.361  11.715  11.160
70709W        W43134  22.684  20.054  14.803
70710W        W43135  44.537  23.132   4.109
70711W        W43136   9.421  41.325   2.301
70712W        W43137  25.198  18.995   0.459
70713W        W43138   6.470  37.032  11.035
70714W        W43139  38.757  23.179   3.858
70715W        W43140  40.108  32.132  12.448
70716W        W43141  31.568  17.680   4.528
70717W        W43142  14.603  23.905   5.602
70718W        W43143  10.369  39.464  11.899
70719W        W43144  20.780   1.842  14.528
70720W        W43145   4.298   3.258  10.626
70721W        W43146  20.125  14.875   2.365
70722W        W43147  34.518   2.879   2.628
70723W        W43148  44.833  42.035  10.402
70724W        W43149  39.642  39.955  13.969
70725W        W43150  31.771  12.098   2.362
70726W        W43151  12.730  21.157   4.832
70727W        W43152   2.752  39.855   1.284
70728W        W43153  33.348  40.934  13.354
70729W        W43154   3.725   8.296  11.532
70730W        W43155   0.152  10.242  11.593
70731W        W43156   0.321  34.970  11.635
70732W        W43157   5.889  40.339   0.841
70733W        W43158   8.579   5.818  11.206
70734W        W43159   5.365   1.798   3.612
70735W        W43160  20.168  28.909   3.655
70736W        W43161  29.676  28.193  14.692
70737W        W43162  32.927  22.143  14.514
70738W        W43163  17.639  43.425   3.597
70739W        W43164  39.850   7.607   3.742
70740W        W43165  40.567  15.756   3.553
70741W        W43166  25.765  22.797  14.360
70742W        W43167  26.010  23.150  13.370
70743W        W43168  16.334  27.069   1.952
70744W        W43169  19.774  27.366  11.181
70745W        W43170  20.457  11.406   0.399
70746W        W43171  28.575   4.254   1.696
70747W        W43172  20.813   7.379  10.944
70748W        W43173  27.114  13.229  11.607
70749W        W43174  26.791  32.946  13.388
70750W        W43175  19.155  32.128  10.291
70751W        W43176  16.078  36.376  14.685
70752W        W43177  35.579  26.188   2.852
70753W        W43178  26.050  27.316  13.057
70754W        W43179  31.187  14.829   1.841
70755W        W43180  14.864  39.591   1.938
70756W        W43181  44.835  32.982  11.507
70757W        W43182  44.271  27.596  11.892
70758W        W43183  42.362  13.290   3.772
70759W        W43184  20.858  22.567   0.894
70760W        W43185  29.668  16.141  14.421
70761W        W43186  24.472  33.475  14.306
70762W        W43187  10.362  25.441  10.688
70763W        W43188  29.469  19.908   4.252
70764W        W43189  27.068   3.828  10.746
70765W        W43190  35.896  12.928  11.129
70766W        W43191  26.594  40.050  13.862
70767W        W43192  35.744  12.372  12.337
70768W        W43193  10.719  20.517  11.947
70769W        W43194  37.458  10.021   2.781
70770W        W43195  36.478  32.489   4.341
70771W        W43196   4.252  24.516   2.344
70772W        W43197   0.729  33.193   3.319
70773W        W43198   9.857  24.220   0.438
70774W        W43199  20.464  14.240  10.451
70775W        W43200  44.282  26.844  12.744
70776W        W43201  22.893  11.572   4.590
70777W        W43202   8.913  25.690  13.774
70778W        W43203  39.309  41.184  10.242
70779W        W43204  29.542   5.275   3.413
70780W        W43205  21.265  18.191   2.574
70781W        W43206   1.557  19.756  11.054
70782W        W43207  43.631  33.546  11.211
70783W        W43208   8.541  31.923   3.811
70784W        W43209  24.814  31.473  13.790
70785W        W43210   4.499  44.801  11.979
70786W        W43211   7.322  34.450  11.908
70787W        W43212   1.558  35.410  10.742
70788W        W43213  35.016  43.218   0.029
70789W        W43214   0.098  22.598   0.914
70790W        W43215  10.834  42.713   4.618
70791W        W43216  11.739  44.718  10.923
70792W        W43217  23.711  39.897  13.701
70793W        W43218  14.888  28.479   2.855
70794W        W43219  39.837  24.648   4.602
70795W        W43220  28.041   1.178   4.725
70796W        W43221  14.516   0.600   0.561
70797W        W43222  10.602  32.253   2.297
70798W        W43223  41.057  24.629   4.589
70799W        W43224  29.336  13.051  14.238
70800W        W43225  33.421  31.937  11.194
70801W        W43226   8.014   6.293  10.090
70802W        W43227  25.574  18.013   0.680
70803W        W43228   6.350  33.030  13.828
70804W        W43229   7.632  40.466   3.218
70805W        W43230   5.697  22.608   0.700
70806W        W43231   6.496   3.384   4.008
70807W        W43232  24.414  36.134  12.883
70808W        W43233  43.924   0.047   3.300
70809W        W43234  17.210  16.731  13.362
70810W        W43235  14.620  13.175   3.355
70811W        W43236  42.651  27.911   4.503
70812W        W43237   3.918  29.132   2.217
70813W        W43238  40.332  19.546  12.914
70814W        W43239  29.167   8.481   4.025
70815W        W43240  23.977  30.207   2.733
70816W        W43241  40.007  12.391   3.847
70817W        W43242  19.585  34.470  11.092
70818W        W43243  38.501  19.577  12.107
70819W        W43244  13.102  37.144   3.679
70820W        W43245   1.699  35.919  10.746
70821W        W43246  11.408  37.952  14.217
70822W        W43247  27.967  36.936  14.882
70823W        W43248  20.314  38.943   4.568
70824W        W43249  41.847   4.262  13.070
70825W        W43250  35.026  38.094   0.870
70826W        W43251  41.042   9.853  11.145
70827W        W43252  35.850  41.041   2.381
70828W        W43253  30.973  15.115   1.467
70829W        W43254  15.744  40.782  11.076
70830W        W43255  12.151  27.927   3.284
70831W        W43256  39.567   6.467  11.048
70832W        W43257  10.690   5.304   1.502
70833W        W43258  37.445   5.376   4.099
70834W        W43259  34.844  24.575   3.171
70835W        W43260  35.683  38.527  13.424
70836W        W43261  44.237  36.959  12.092
70837W        W43262  13.313  22.066  14.481
70838W        W43263   7.758  24.260  12.525
70839W        W43264  36.346  44.137   0.353
70840W        W43265  12.997   8.718  14.740
70841W        W43266  22.041   0.762   3.047
70842W        W43267   0.982  18.234  12.941
70843W        W43268   6.877  42.517   0.455
70844W        W43269  41.188  33.720  10.804
70845W        W43270  29.101   3.246  14.502
70846W        W43271  12.664  28.507   3.695
70847W        W43272  26.704   4.681  13.328
70848W        W43273   0.489  24.341   4.788
70849W        W43274  34.505  26.327   4.381
70850W        W43275   8.334  35.043  10.200
70851W        W43276  39.318  43.832  13.394
70852W        W43277  26.107  32.950   2.702
70853W        W43278  42.220  36.593   1.904
70854W        W43279  36.972  37.272  13.924
70855W        W43280   8.406  36.295  12.329
70856W        W43281  27.722  34.488   0.877
70857W        W43282   9.682  29.998   2.359
70858W        W43283   5.786  23.736   1.150
70859W        W43284  13.709  38.460   3.916
70860W        W43285  16.070  43.412   1.032
70861W        W43286  39.557  26.092  14.458
70862W        W43287  17.558  29.018  13.165
70863W        W43288  31.910  21.294   5.368
70864W        W43289  29.751  22.068   0.994
70865W        W43290  19.214   5.191  12.838
70866W        W43291  35.184  22.636  11.690
70867W        W43292  21.204  37.926  14.368
70868W        W43293  20.951  32.033  11.572
70869W        W43294  18.188  34.435  13.288
70870W        W43295  20.754  36.499  13.460
70871W        W43296  30.167  42.732  10.915
70872W        W43297   7.249  26.175   1.666
70873W        W43298  37.617  31.476  11.126
70874W        W43299  15.473  35.473   0.470
70875W        W43300  44.799  35.696   1.802
70876W        W43301  30.419  35.786  10.974
70877W        W43302  11.686  13.073  13.539
70878W        W43303  26.688  27.980   0.413
70879W        W43304  15.529  44.023   3.822
70880W        W43305  20.050  40.961   2.797
70881W        W43306  34.192  28.532   1.718
70882W        W43307  16.261  20.001  13.871
70883W        W43308  27.549  31.656   0.241
70884W        W43309  18.709   8.069   1.723
70885W        W43310  39.867  13.121   2.164
70886W        W43311  20.611   8.671   1.775
70887W        W43312  42.539   2.919  11.568
70888W        W43313  36.139   2.218  10.500
70889W        W43314  25.708  15.926   4.954
70890W        W43315  18.097  20.290  12.964
70891W        W43316  21.066   1.758  11.489
70892W        W43317  25.920   8.232  12.664
70893W        W43318  13.150  27.649   0.354
70894W        W43319   6.110  10.780  12.456
70895W        W43320   4.746   3.510  14.821
70896W        W43321  42.090  23.007  12.883
70897W        W43322   3.858  30.740   1.871
70898W        W43323  39.058  21.075  13.086
70899W        W43324   0.854  10.098   4.150
70900W        W43325  31.881   5.407   3.149
70901W        W43326  25.360  35.942  14.267
70902W        W43327  30.613   6.952  11.604
70903W        W43328  37.911  40.747   9.852
70904W        W43329  13.169  11.867   5.193
70905W        W43330   1.197  31.163  10.752
70906W        W43331  41.611  22.577  11.631
70907W        W43332  16.570  40.856  10.800
70908W        W43333   7.068  40.364  12.854
70909W        W43334  25.736  37.423  14.134
70910W        W43335  36.415  41.176  11.973
70911W        W43336  36.639  36.045  13.321
70912W        W43337  16.569  17.430   4.297
70913W        W43338  24.697  28.124   3.155
70914W        W43339  36.888  28.450   3.270
70915W        W43340  27.167  11.054   4.110
70916W        W43341  31.879  24.272  13.975
70917W        W43342  11.103   4.689   9.960
70918W        W43343  41.736  43.901   2.625
70919W        W43344  30.994  31.608  14.860
70920W        W43345  42.535  23.073   1.501
70921W        W43346   0.957  41.260   4.990
70922W        W43347  24.127  37.082   1.686
70923W        W43348  30.422  36.284   3.260
70924W        W43349  11.269  19.056   0.234
70925W        W43350  40.786   1.124  14.358
70926W        W43351  39.245  36.861  12.395
70927W        W43352  30.501  43.699   3.116
70928W        W43353   9.373  32.165   0.596
70929W        W43354  35.071  39.348   1.709
70930W        W43355  21.991   1.692   4.145
70931W        W43356   6.323  15.921  10.376
70932W        W43357  12.136   7.805   4.559
70933W        W43358   1.234  43.845   3.722
70934W        W43359   3.419  41.035   1.633
70935W        W43360   0.999  33.259   4.646
70936W        W43361   3.936  15.083   0.693
70937W        W43362  12.651  19.807  11.121
70938W        W43363  27.918  32.353   3.765
70939W        W43364   9.185  28.222   0.991
70940W        W43365  21.686  33.583   2.252
70941W        W43366   0.499   5.464  12.201
70942W        W43367   4.954  44.390   1.863
70943W        W43368   6.898   8.269   0.833
70944W        W43369  39.049  39.591   2.104
70945W        W43370  34.975  36.850   1.404
70946W        W43371  39.474  26.252  11.092
70947W        W43372  38.050  24.084   0.790
70948W        W43373  27.101  43.819   1.882
70949W        W43374  29.346  20.178   0.546
70950W        W43375   3.988   4.753  10.685
70951W        W43376  16.094  30.094  10.441
70952W        W43377  37.039  21.490   4.138
70953W        W43378   6.401  28.783  14.533
70954W        W43379   0.500  27.065   0.538
70955W        W43380  41.854  32.853  14.949
70956W        W43381  21.269  35.259   1.261
70957W        W43382  28.067  12.176  11.542
70958W        W43383  22.071  27.890  11.948
70959W        W43384  42.171  38.921   2.817
70960W        W43385  39.667  39.227   3.701
70961W        W43386   8.732  11.150  14.883
70962W        W43387  13.191  26.938  14.636
70963W        W43388  13.308   4.355   3.240
70964W        W43389  27.014  31.144   2.597
70965W        W43390  35.125  36.055  11.584
70966W        W43391  39.935  17.188   2.456
70967W        W43392  36.057  40.612  12.682
70968W        W43393  20.195  39.423   0.909
70969W        W43394  23.594  31.890   0.553
70970W        W43395  44.490  37.959  10.576
70971W        W43396  24.445  14.856  13.359
70972W        W43397   8.580  11.116  13.872
70973W        W43398   1.001  19.614   1.819
70974W        W43399  15.199   2.526  12.489
70975W        W43400  32.105   3.203  13.004
70976W        W43401  40.859  28.770  11.134
70977W        W43402  34.989  33.361  12.057
70978W        W43403  16.138  25.551   1.279
70979W        W43404  28.939  44.849  14.526
70980W        W43405   4.201   3.775   2.274
70981W        W43406  24.043  39.747  14.302
70982W        W43407  30.715  42.962  10.710
70983W        W43408  14.209  40.540   0.902
70984W        W43409  26.610   1.543  14.526
70985W        W43410  11.805  14.133  12.559
70986W        W43411   8.481  30.138  11.582
70987W        W43412  33.685  19.834   0.292
70988W        W43413  43.148  27.878  11.514
70989W        W43414   4.415   4.635   3.984
70990W        W43415  41.071  15.152  12.992
70991W        W43416   4.519   8.455  12.195
70992W        W43417  32.608  11.109   4.187
70993W        W43418  30.982  24.142  14.591
70994W        W43419  36.441  38.012   1.380
70995W        W43420   1.771  15.969  13.104
70996W        W43421  31.208   3.476   1.313
70997W        W43422  30.171  34.305  14.881
70998W        W43423  21.976  38.069  10.592
70999W        W43424  39.968   0.009   0.298
71000W        W43425  16.082  24.773   0.567
71001W        W43426  25.954  30.405   1.366
71002W        W43427  24.283  19.175   0.467
71003W        W43428   3.683  19.595  12.551
71004W        W43429  27.287  33.058   5.498
71005W        W43430  28.375   3.336  14.973
71006W        W43431  33.866  39.265  13.842
71007W        W43432  12.597   7.766  13.374
71008W        W43433   1.974   4.297  12.641
71009W        W43434   4.568  24.703   5.138
71010W        W43435  33.398  32.220  13.383
71011W        W43436  22.002  11.871   4.679
71012W        W43437  16.418  31.316   3.339
71013W        W43438  33.588  17.759  13.471
71014W        W43439  12.371  18.343  11.554
71015W        W43440  32.992  39.436  12.541
71016W        W43441  31.441   3.399  12.374
71017W        W43442  32.820  25.989   1.016
71018W        W43443  40.188  13.593   0.244
71019W        W43444  33.026  11.811   2.888
71020W        W43445  34.445  43.794  12.925
71021W        W43446  43.366  15.711  10.797
71022W        W43447   7.916  43.276  13.957
71023W        W43448  41.353  42.878  11.672
71024W        W43449  39.316  13.436  13.832
71025W        W43450  38.559  14.220   3.013
71026W        W43451  37.904  33.509   1.699
71027W        W43452   4.317  18.826  11.519
71028W        W43453  32.589  29.898  13.428
71029W        W43454  40.288  12.854  10.749
71030W        W43455  35.961   7.219  14.575
71031W        W43456  34.148  30.419   1.260
71032W        W43457  10.123  20.764  12.831
71033W        W43458  21.268   7.371   4.194
71034W        W43459  29.467  37.548   5.017
71035W        W43460  21.027  10.610   0.238
71036W        W43461  22.453   0.927   3.331
71037W        W43462  16.582  31.447   0.143
71038W        W43463  29.535  33.653  14.531
71039W        W43464   5.648  14.044  11.936
71040W        W43465   0.353  10.689  14.780
71041W        W43466  44.350  31.465   4.409
71042W        W43467  12.565  32.877  10.741
71043W        W43468  23.573  26.046  12.559
71044W        W43469  30.391  24.906  14.378
71045W        W43470  26.532  12.203   4.787
71046W        W43471  27.772  42.573  11.035
71047W        W43472  34.924  32.664   4.107
71048W        W43473  35.849  15.337  13.413
71049W        W43474  19.342  23.234   1.431
71050W        W43475  19.286   0.990   2.702
71051W        W43476  13.703  31.347  14.853
71052W        W43477  42.331  23.214  13.391
71053W        W43478  21.305  32.436   4.494
71054W        W43479  12.823  39.557  13.331
71055W        W43480   5.844  20.333   0.041
71056W        W43481  34.953  30.245   1.752
71057W        W43482  40.566   6.383  13.862
71058W        W43483  36.627  41.860   3.366
71059W        W43484   5.449   1.847   4.636
71060W        W43485  20.273  17.719  10.543
71061W        W43486  24.203   3.368   1.937
71062W        W43487   0.057  36.282   1.073
71063W        W43488  14.077  29.915  11.121
71064W        W43489   6.623   3.889   2.642
71065W        W43490  32.620  12.566  14.308
71066W        W43491  22.837   7.432  13.490
71067W        W43492  15.962  21.589  12.422
71068W        W43493  28.575  30.563  14.380
71069W        W43494   9.727   8.800   5.504
71070W        W43495  36.397  15.842   4.479
71071W        W43496  12.515  41.533   1.799
71072W        W43497   9.478  19.734   2.892
71073W        W43498   8.608  11.703   4.530
71074W        W43499  22.525  22.490   0.565
71075W        W43500  30.626  28.517  10.703
71076W        W43501  26.681   7.750  14.538
71077W        W43502  10.249  26.146   4.728
71078W        W43503  35.740   2.920   1.186
71079W        W43504  19.782   1.455  14.748
71080W        W43505  40.472  36.470  13.496
71081W        W43506  13.899  15.888   4.543
71082W        W43507  26.263  13.558  11.129
71083W        W43508  19.240  13.311  14.936
71084W        W43509   2.208  16.792   1.316
71085W        W43510  40.743  36.319   2.817
71086W        W43511  18.680  22.696  14.724
71087W        W43512   2.750  17.063   3.265
71088W        W43513  30.665   1.298   4.540
71089W        W43514   3.732  29.484  11.565
71090W        W43515  25.999   7.108   2.650
71091W        W43516  23.065  13.370   2.619
71092W        W43517  24.122  19.756   3.163
71093W        W43518  13.376  39.904   2.381
71094W        W43519   4.261  42.751   4.633
71095W        W43520   0.222  21.418  12.964
71096W        W43521  24.724   1.366  14.466
71097W        W43522  19.983  10.469   0.498
71098W        W43523  30.121  10.179  11.038
71099W        W43524  10.081   0.520   3.860
71100W        W43525  12.863  22.203  10.173
71101W        W43526   5.306  22.553  13.068
71102W        W43527  35.122   1.451  12.124
71103W        W43528  11.891  40.233   0.720
71104W        W43529  44.323   3.257   0.743
71105W        W43530  34.293  22.782  12.122
71106W        W43531  35.559  23.341  11.628
71107W        W43532  28.891  37.595  10.661
71108W        W43533  30.897  14.354   2.720
71109W        W43534   6.395  32.160  11.945
71110W        W43535  28.546  22.096  14.066
71111W        W43536  31.868  32.870  12.846
71112W        W43537  28.217  11.615   1.492
71113W        W43538  32.276  14.398   5.084
71114W        W43539   7.191  37.189  13.487
71115W        W43540  42.941  11.347   1.868
71116W        W43541   2.447  37.820   0.055
71117W        W43542  39.800   2.712   4.247
71118W        W43543  10.778   9.640   0.789
71119W        W43544  17.808  27.769   2.858
71120W        W43545  42.868  10.923   4.045
71121W        W43546   2.493  30.419  10.790
71122W        W43547  44.454  31.006   4.148
71123W        W43548   5.421  37.904  10.900
71124W        W43549  18.971  18.278  12.563
71125W        W43550  31.176  22.084   4.177
71126W        W43551  13.331   6.178   1.547
71127W        W43552  13.510  26.096   1.945
71128W        W43553  36.475  22.917   1.707
71129W        W43554  27.603  21.395  13.563
71130W        W43555   4.684  16.771  12.165
71131W        W43556  18.256  19.243   4.414
71132W        W43557  42.561  11.232   0.853
71133W        W43558  25.469   6.756  12.113
71134W        W43559  29.970  17.755  10.282
71135W        W43560  32.018  10.395   1.916
71136W        W43561  42.451  43.940  11.015
71137W        W43562  33.349  11.495  10.892
71138W        W43563  31.146  18.307  12.283
71139W        W43564   0.849  23.049   0.520
71140W        W43565   0.990  30.443   2.669
71141W        W43566  32.943  29.066  14.888
71142W        W43567  14.459  38.621  11.054
71143W        W43568  42.798   2.048   0.114
71144W        W43569  38.955  11.669  11.592
71145W        W43570  37.111  43.830   2.323
71146W        W43571   0.439  27.878  14.990
71147W        W43572  20.494  27.006   2.588
71148W        W43573   3.462  41.596  11.628
71149W        W43574  35.448  29.947  12.611
71150W        W43575  14.297  42.451   2.205
71151W        W43576   0.198  12.294  14.440
71152W        W43577  38.864  36.404   0.809
71153W        W43578   9.894   8.961   5.053
71154W        W43579  26.309   1.821   3.617
71155W        W43580  15.553  17.449   1.804
71156W        W43581  15.372  14.957  11.181
71157W        W43582   0.743  32.884  13.832
71158W        W43583  14.373  35.041  14.893
71159W        W43584  42.500  43.454  12.131
71160W        W43585   0.640  39.026   2.436
71161W        W43586  42.927  14.107  12.640
71162W        W43587  34.262  21.039   3.697
71163W        W43588  28.054  11.131  12.620
71164W        W43589   4.271  16.035  13.976
71165W        W43590  30.672   2.817  12.393
71166W        W43591  31.357  30.633  14.162
71167W        W43592  21.557  37.937  11.625
71168W        W43593  44.839  10.886   1.763
71169W        W43594  30.945  14.515  14.349
71170W        W43595  39.927  44.030  10.597
71171W        W43596   7.098  20.081   3.156
71172W        W43597  30.588   1.915  14.851
71173W        W43598   8.686  35.043   4.749
71174W        W43599  39.275  41.397   1.362
71175W        W43600   6.132  10.816   1.249
71176W        W43601  10.290  10.228  11.039
71177W        W43602  29.114  23.503   0.228
71178W        W43603   5.270  41.337   0.276
71179W        W43604  12.109  21.276  12.183
71180W        W43605  12.287  43.751  14.852
71181W        W43606  43.741  11.781  14.925
71182W        W43607   4.715  21.690   4.611
71183W        W43608  14.317  12.278  13.410
71184W        W43609   2.735  14.976  14.463
71185W        W43610  18.135   4.611  13.345
71186W        W43611  33.915  35.562   1.714
71187W        W43612  15.695   3.100  11.907
71188W        W43613   3.539  22.464  10.428
71189W        W43614  15.603  29.988   3.333
71190W        W43615  28.449  41.288  13.022
71191W        W43616  37.528   1.237  13.076
71192W        W43617   3.010  29.000  13.950
71193W        W43618  14.192  12.682  10.765
71194W        W43619  34.585  36.072  13.400
71195W        W43620  16.150  13.248   2.782
71196W        W43621  18.538   9.082   1.898
71197W        W43622  23.127   4.950  14.270
71198W        W43623  19.568   3.203  13.080
71199W        W43624  37.132  13.738  13.578
71200W        W43625  24.504   5.742   0.446
71201W        W43626   3.821  39.416  11.839
71202W        W43627  15.673  22.159   2.814
71203W        W43628  16.576   7.088  12.048
71204W        W43629  31.198  41.433   3.151
71205W        W43630  20.150  12.272   1.704
71206W        W43631  21.257  17.851  11.972
71207W        W43632  11.568  28.986  11.730
71208W        W43633  25.066  18.725  10.980
71209W        W43634   8.307  24.962  11.658
71210W        W43635  40.062  36.099   1.237
71211W        W43636  16.696  43.138  10.867
71212W        W43637  36.436   3.911  13.791
71213W        W43638  32.548   0.029   0.770
71214W        W43639  14.514  16.344  14.717
71215W        W43640   0.915  11.338   4.608
71216W        W43641  23.650  15.270   2.147
71217W        W43642  32.889   7.372  14.277
71218W        W43643  35.094  19.262  12.076
71219W        W43644  25.863   5.687  11.503
71220W        W43645  41.275  20.172   0.533
71221W        W43646  21.564  41.992  13.352
71222W        W43647   7.637   3.813   2.839
71223W        W43648  44.997  33.139   0.298
71224W        W43649  13.782   8.707  12.891
71225W        W43650  25.169   2.505  10.694
71226W        W43651   8.668  15.148   1.812
71227W        W43652  16.362  36.317  12.109
71228W        W43653  15.527  27.003  12.558
71229W        W43654  18.504  12.739   1.502
71230W        W43655   0.293  37.559  12.492
71231W        W43656  29.065  24.938  12.175
71232W        W43657  38.415   8.808  11.350
71233W        W43658   1.771   5.591  11.080
71234W        W43659  18.557   1.780  11.662
71235W        W43660  15.577  24.061  14.774
71236W        W43661  39.599  12.548  14.125
71237W        W43662  18.811  32.312  13.592
71238W        W43663   3.411  23.035   3.578
71239W        W43664  32.064  20.019   3.269
71240W        W43665  18.634  21.942   1.854
71241W        W43666  42.951  25.476  10.789
71242W        W43667  42.469  14.545   1.659
71243W        W43668   3.282   5.817   4.586
71244W        W43669   6.874  29.396  14.739
71245W        W43670  19.273  39.964  12.914
71246W        W43671  23.591  29.602  14.407
71247W        W43672  27.464  40.435   0.250
71248W        W43673   1.905  43.189   2.802
71249W        W43674  40.998  17.562   0.828
71250W        W43675  31.095  41.401   2.257
71251W        W43676  18.651  14.576   2.797
71252W        W43677  32.016   0.987   1.750
71253W        W43678  19.045  28.215   0.501
71254W        W43679  16.848   7.261  14.446
71255W        W43680  30.590  10.113  12.578
71256W        W43681  14.344  31.371  13.518
71257W        W43682  37.307  34.193  13.439
71258W        W43683  32.406   7.701   0.505
71259W        W43684  28.988   9.065  13.799
71260W        W43685  25.012  40.432   1.759
71261W        W43686   7.305  12.687   3.338
71262W        W43687  25.470  18.991   2.141
71263W        W43688   0.398  41.468   4.831
71264W        W43689  16.611  32.159  14.030
71265W        W43690   8.409  36.699  10.861
71266W        W43691  36.641  36.469   3.413
71267W        W43692  39.093   2.364  12.996
71268W        W43693  19.692  16.963   1.919
71269W        W43694  24.426   3.783  13.164
71270W        W43695  19.563  29.662   4.652
71271W        W43696   4.944  34.487  11.131
71272W        W43697  23.888  30.537   4.691
71273W        W43698  11.701  12.788  13.120
71274W        W43699  19.168  26.593  14.043
71275W        W43700  41.280  19.040  14.886
71276W        W43701  37.045  31.489  11.967
71277W        W43702  41.890   2.669  13.416
71278W        W43703  23.473  40.874   1.374
71279W        W43704  30.968  18.547   2.809
71280W        W43705  16.195  34.911  11.937
71281W        W43706  10.581   8.326  13.840
71282W        W43707  23.775   4.192   3.004
71283W        W43708  28.688   3.252   1.444
71284W        W43709  22.734  38.369  11.234
71285W        W43710   6.215  35.047  14.513
71286W        W43711  20.204  11.301   3.128
71287W        W43712  16.796   4.542  13.973
71288W        W43713   9.811  29.890  11.541
71289W        W43714  29.123   6.326  11.351
71290W        W43715  40.784  33.451  10.998
71291W        W43716  12.343   1.784  13.333
71292W        W43717  24.676  33.199  12.847
71293W        W43718  39.711  23.315  11.600
71294W        W43719   6.190  36.418  14.381
71295W        W43720  32.615  28.507  14.555
71296W        W43721  33.137  26.280  12.933
71297W        W43722  38.773  17.438   1.530
71298W        W43723  43.907  33.979  11.483
71299W        W43724  31.366   7.725   4.456
71300W        W43725  40.865  43.996   3.715
71301W        W43726  14.777  30.210   1.556
71302W        W43727  38.535  29.025   2.752
71303W        W43728  14.514   0.848  12.483
71304W        W43729  27.927   0.785  13.267
71305W        W43730  28.153  20.405  13.767
71306W        W43731  16.892  25.044   1.395
71307W        W43732  28.682  28.496  11.477
71308W        W43733   0.510  38.841   4.518
71309W        W43734  24.259  21.053  11.911
71310W        W43735   0.692  21.736   2.803
71311W        W43736  25.442  33.932   3.150
71312W        W43737  44.065  30.510   2.961
71313W        W43738  26.153   2.397   2.034
71314W        W43739  17.092  11.819  14.318
71315W        W43740  38.625  43.106   0.360
71316W        W43741  39.731   0.697  13.575
71317W        W43742  30.905   4.790   0.414
71318W        W43743  27.048  15.038   0.491
71319W        W43744  14.032  18.036  12.174
71320W        W43745  43.067  38.099   2.174
71321W        W43746  37.783  15.621  11.949
71322W        W43747  17.668   0.035   3.826
71323W        W43748   0.044  32.641   3.513
71324W        W43749  17.468  12.080   2.450
71325W        W43750  15.164  19.528   4.441
71326W        W43751  34.697   6.879  10.489
71327W        W43752   8.390  34.630  10.493
71328W        W43753  10.237  20.286   3.286
71329W        W43754  44.904  32.319   2.180
71330W        W43755  11.199  21.687   0.730
71331W        W43756   3.749  23.937   3.702
71332W        W43757   6.931  30.625   0.184
71333W        W43758   0.327   8.057  14.980
71334W        W43759  31.090  43.038   4.755
71335W        W43760  23.483  27.527  11.843
71336W        W43761  17.061  23.193   3.584
71337W        W43762  13.632  20.791   0.866
71338W        W43763  12.726  24.852   4.610
71339W        W43764  39.838  22.546  12.097
71340W        W43765  28.698  35.779  11.732
71341W        W43766  44.394  18.222   1.417
71342W        W43767  27.700  32.118   2.466
71343W        W43768   8.682   1.844   3.116
71344W        W43769  13.820  20.136   4.128
71345W        W43770  25.110  41.339  11.580
71346W        W43771  42.962  39.708  12.556
71347W        W43772  35.035  24.310  13.822
71348W        W43773  21.584  20.133  13.891
71349W        W43774  12.073  25.393  11.098
71350W        W43775  35.457  39.664   2.681
71351W        W43776  34.514  42.462  13.115
71352W        W43777   7.803  18.914  14.733
71353W        W43778  17.267  26.115  10.075
71354W        W43779  34.557  20.218  14.008
71355W        W43780  13.667  25.994   3.847
71356W        W43781  42.284   7.227  10.253
71357W        W43782  35.960  21.280  13.885
71358W        W43783  41.954  14.669  14.715
71359W        W43784  31.141  14.170  10.625
71360W        W43785   5.632  31.977  14.016
71361W        W43786  27.388  26.954   4.853
71362W        W43787  40.916  44.383  13.045
71363W        W43788   0.956  23.572   3.735
71364W        W43789  30.308  11.825  12.777
71365W        W43790  35.986  35.610  13.106
71366W        W43791  20.649  19.605   4.175
71367W        W43792   9.255  35.818   1.498
71368W        W43793   3.550  32.569   1.439
71369W        W43794   5.815  26.608   3.347
71370W        W43795  29.576   0.170  14.246
71371W        W43796   2.319  11.681  12.823
71372W        W43797  19.534  39.897  11.252
71373W        W43798  31.964  40.824  11.202
71374W        W43799  16.100  32.149  13.901
71375W        W43800  43.012  10.983   4.546
71376W        W43801  28.756  14.858  13.744
71377W        W43802  30.446   1.122  11.638
71378W        W43803  37.256  24.480   4.867
71379W        W43804  38.311  24.373  11.993
71380W        W43805  24.301  33.525  14.831
71381W        W43806  34.921  41.468  14.946
71382W        W43807   9.451  25.126   5.067
71383W        W43808  40.461  42.379   5.025
71384W        W43809   3.859  20.758  12.466
71385W        W43810  36.923  30.736  12.593
71386W        W43811  11.602  22.130  12.347
71387W        W43812  10.689   4.842  10.832
71388W        W43813  21.045  44.101  12.020
71389W        W43814  10.924  37.062   4.573
71390W        W43815  35.993  39.554  12.779
71391W        W43816  18.117  38.202  14.158
71392W        W43817  23.561  31.086  14.272
71393W        W43818  44.770  39.355  14.302
71394W        W43819  18.495   1.303   0.002
71395W        W43820  34.390   4.601   0.485
71396W        W43821  39.927  31.531   4.074
71397W        W43822  35.040   2.745   2.916
71398W        W43823  37.271   6.129  13.030
71399W        W43824  39.977   3.644  12.285
71400W        W43825  26.131  36.492   3.652
71401W        W43826  35.885  31.151  14.774
71402W        W43827  43.525  44.723   1.725
71403W        W43828  24.260  17.249   4.452
71404W        W43829   1.158  41.845   3.700
71405W        W43830  14.838   0.465   3.229
71406W        W43831  10.828  30.214   4.702
71407W        W43832  17.233  35.939  13.127
71408W        W43833  14.192  25.908   3.714
71409W        W43834  42.530   4.366  10.773
71410W        W43835  30.850  19.757   4.535
71411W        W43836  44.053  25.329   3.241
71412W        W43837  17.034  14.949  10.275
71413W        W43838  44.596  13.064  12.873
71414W        W43839  41.527  32.995   3.220
71415W        W43840  19.106  44.459   1.845
71416W        W43841  19.997  27.602   4.179
71417W        W43842   4.260  28.351   2.726
71418W        W43843  17.615  30.234  12.116
71419W        W43844  19.113   2.995   4.300
71420W        W43845  27.716  21.197  12.192
71421W        W43846  43.403  39.823  10.735
71422W        W43847  32.407   5.391   0.894
71423W        W43848  28.907  16.819  12.056
71424W        W43849   0.753  44.913   1.535
71425W        W43850  44.349  42.422   4.641
71426W        W43851  13.233   7.948  12.865
71427W        W43852  16.750  21.218  12.070
71428W        W43853  14.676  32.245  11.296
71429W        W43854  23.728  24.192   2.792
71430W        W43855  25.789  28.945   3.910
71431W        W43856  13.083  43.846  10.732
71432W        W43857   3.285  41.545   1.755
71433W        W43858  22.177  42.847  13.441
71434W        W43859  31.945  25.887   1.691
71435W        W43860  19.601  25.778   4.110
71436W        W43861  21.537  20.025  14.782
71437W        W43862  20.088  24.652   3.618
71438W        W43863  15.867  17.605  12.843
71439W        W43864  35.890  18.524  12.487
71440W        W43865  38.535  41.283   2.812
71441W        W43866  21.297  36.252   2.225
71442W        W43867  23.291  27.617  10.939
71443W        W43868  42.157  25.695  13.935
71444W        W43869  11.575   4.705  10.288
71445W        W43870   7.837  19.814   4.562
71446W        W43871   2.967  38.195   4.669
71447W        W43872   0.729  42.200  13.035
71448W        W43873  25.668  39.843  12.581
71449W        W43874  27.475  11.703  14.389
71450W        W43875  35.270  19.102  10.468
71451W        W43876   8.706   4.289  12.917
71452W        W43877  25.553  16.788   0.525
71453W        W43878  27.253  26.948  11.856
71454W        W43879   0.243  28.422  14.047
71455W        W43880  40.301  19.153  12.549
71456W        W43881   2.541  35.947  13.055
71457W        W43882  19.352   3.457  10.473
71458W        W43883  37.614   4.815   1.768
71459W        W43884  29.592   1.220  11.998
71460W        W43885  13.163  38.036  14.945
71461W        W43886  17.818  19.778   0.039
71462W        W43887  15.844  16.318   0.377
71463W        W43888   0.796   3.067   0.405
71464W        W43889  31.967  26.480  10.927
71465W        W43890  43.769  38.082   3.270
71466W        W43891   1.674  39.093   2.824
71467W        W43892  30.694  13.090  14.161
71468W        W43893  34.644  16.053  12.741
71469W        W43894   8.530   3.935   4.724
71470W        W43895  23.315  20.053  14.249
71471W        W43896   3.301  20.608   0.266
71472W        W43897  27.057  34.439   4.937
71473W        W43898  43.148   3.430  11.946
71474W        W43899  31.554  28.182  14.077
71475W        W43900  40.092  34.148   4.566
71476W        W43901   3.971  25.177  14.023
71477W        W43902  34.829  40.252   3.093
71478W        W43903  41.079   9.738  12.871
71479W        W43904  10.755  38.083   3.189
71480W        W43905  14.799  35.397  12.005
71481W        W43906  43.849  15.164   3.539
71482W        W43907  43.624  41.745  11.977
71483W        W43908  19.566  23.364  12.338
71484W        W43909  38.714  16.109  14.945
71485W        W43910  35.060  15.127   4.391
71486W        W43911  18.198  24.372   4.661
71487W        W43912  20.087   6.735   4.010
71488W        W43913  11.695   2.481  11.115
71489W        W43914   0.754  27.849  12.540
71490W        W43915  33.957  44.756  13.197
71491W        W43916  11.591  37.263  12.581
71492W        W43917  22.557  41.995  11.773
71493W        W43918  34.169  44.240  13.059
71494W        W43919   5.287  26.166  11.610
71495W        W43920  39.188  44.796  10.621
71496W        W43921  12.135  36.172   4.064
71497W        W43922  37.996  37.446   0.923
71498W        W43923   3.004  44.256  14.253
71499W        W43924  27.272  39.817   1.903
71500W        W43925  29.260  33.368  14.216
71501W        W43926  44.487  28.131  14.762
71502W        W43927  38.644   4.361   1.183
71503W        W43928  44.944  35.383   0.912
71504W        W43929  17.606  38.014   4.026
71505W        W43930  15.818  23.879   4.371
71506W        W43931  24.967   7.324  12.355
71507W        W43932  16.287  24.600   1.001
71508W        W43933  14.890  21.718   4.146
71509W        W43934  31.502  44.372  13.589
71510W        W43935  29.783  10.304   3.346
71511W        W43936  41.451  34.583  13.404
71512W        W43937  44.896  13.846   4.126
71513W        W43938  42.974   0.723   1.348
71514W        W43939  28.881  14.499  14.602
71515W        W43940  16.195   6.770   3.420
71516W        W43941  15.418  42.614  13.773
71517W        W43942   2.278  29.499   4.939
71518W        W43943   1.229  30.890  12.996
71519W        W43944  40.990   2.194  12.003
71520W        W43945  42.835  22.521   5.271
71521W        W43946  18.493  33.912   3.337
71522W        W43947   3.468  41.389  12.457
71523W        W43948  19.834   8.166   3.751
71524W        W43949   7.071  23.000   1.340
71525W        W43950   1.471  20.623   1.723
71526W        W43951   3.134  28.574   1.488
71527W        W43952   5.722  13.304  10.971
71528W        W43953   0.554  34.515   1.828
71529W        W43954  17.070  36.315  14.892
71530W        W43955  20.463  16.225   3.546
71531W        W43956  31.426  16.094   3.322
71532W        W43957  32.851   2.956  11.422
71533W        W43958  13.099  32.620  10.702
71534W        W43959   3.039  29.510   0.435
71535W        W43960  12.199  41.933  11.246
71536W        W43961   7.933  39.312  13.766
71537W        W43962  24.499  14.289   4.552
71538W        W43963   4.955  26.627  10.793
71539W        W43964  43.328  22.994   0.850
71540W        W43965  21.172  39.812  14.464
71541W        W43966  22.966  19.600   1.492
71542W        W43967  27.180  12.048   3.134
71543W        W43968  11.413  18.588   0.393
71544W        W43969  43.770  26.176  12.414
71545W        W43970  27.427  15.953   0.311
71546W        W43971  37.923  18.870  13.399
71547W        W43972  28.155  35.521   1.183
71548W        W43973  17.812  19.510  12.559
71549W        W43974   4.887  32.182  11.701
71550W        W43975  18.715  14.410   2.304
71551W        W43976  33.539  17.481  12.966
71552W        W43977  12.589  30.968   3.238
71553W        W43978  39.373  36.447  14.185
71554W        W43979   3.252   2.346  10.626
71555W        W43980  35.139  40.532   4.530
71556W        W43981  32.609  40.981  13.137
71557W        W43982  44.154  14.131  14.743
71558W        W43983  12.180  35.619  14.931
71559W        W43984   7.813   2.960   3.709
71560W        W43985  43.768  21.997   4.382
71561W        W43986  17.836  19.095   0.297
71562W        W43987  44.954  26.710   3.102
71563W        W43988  23.561  12.666   1.295
71564W        W43989  14.314  25.243   4.664
71565W        W43990  19.292  29.033   0.728
71566W        W43991  24.546  21.702  12.233
71567W        W43992  25.065   1.698  12.066
71568W        W43993  40.872  43.414  11.150
71569W        W43994  20.319  38.019  11.865
71570W        W43995  16.314  24.198  12.869
71571W        W43996  35.817  17.594   2.154
71572W        W43997   3.892  34.475  12.749
71573W        W43998  31.095  39.837   0.294
71574W        W43999  15.171   7.342   2.265
71575W        W44000  22.205  29.484   0.114
71576W        W44001  12.646  36.182   2.825
71577W        W44002  27.078  44.405   1.470
71578W        W44003   6.308  24.728  12.724
71579W        W44004  33.440  12.805  13.605
71580W        W44005  16.237  35.158  13.891
71581W        W44006  44.254  19.764   1.222
71582W        W44007  29.656  12.921  14.962
71583W        W44008  23.174  23.424   3.541
71584W        W44009   2.389   1.429   3.880
71585W        W44010  22.468  37.317  14.448
71586W        W44011  43.918  24.080  11.037
71587W        W44012  12.755  30.970  11.777
71588W        W44013  11.761  11.896  14.820
71589W        W44014  12.323  34.396   2.899
71590W        W44015  22.460  38.967  10.712
71591W        W44016  40.580   7.479  12.924
71592W        W44017  20.574  31.973   4.542
71593W        W44018  26.223  10.030  11.594
71594W        W44019  29.605   3.227  12.642
71595W        W44020  35.958  25.669   1.437
71596W        W44021  23.130   2.601   0.598
71597W        W44022  36.898  21.107  10.523
71598W        W44023  31.931  23.424   5.155
71599W        W44024  25.964  34.984  12.068
71600W        W44025   4.212  41.004   4.645
71601W        W44026   3.715  13.701   2.086
71602W        W44027   4.496  18.194   0.882
71603W        W44028  30.864  25.091   1.418
71604W        W44029  15.635  10.748  14.126
71605W        W44030  38.223  30.103   1.238
71606W        W44031   5.322  23.022   2.771
71607W        W44032   6.425  38.963   1.288
71608W        W44033  19.097  32.522   3.261
71609W        W44034  15.137  32.285  13.748
71610W        W44035   9.809   5.714  12.390
71611W        W44036   9.789   7.939   3.858
71612W        W44037  16.158  28.719  14.443
71613W        W44038  42.688  34.354  12.065
71614W        W44039   2.063  42.491  14.028
71615W        W44040   0.197  13.793   3.732
71616W        W44041  18.062  20.710  11.997
71617W        W44042  32.398  13.463   3.224
71618W        W44043  24.506  44.452  13.328
71619W        W44044  20.183   7.516  12.866
71620W        W44045   3.173  22.121   4.257
71621W        W44046  18.700  43.325  14.486
71622W        W44047  14.884  18.549   4.262
71623W        W44048   9.002  17.309  12.082
71624W        W44049  21.150  30.440   1.788
71625W        W44050  31.958   4.346  10.719
71626W        W44051   0.074   8.313  11.571
71627W        W44052  11.533   9.168   0.408
71628W        W44053  13.093  38.870  12.388
71629W        W44054  14.627  24.004   4.606
71630W        W44055  36.885  21.384   4.629
71631W        W44056  11.881  37.080   3.284
71632W        W44057  28.604  12.275  12.153
71633W        W44058   3.283   0.075   4.250
71634W        W44059  31.437  33.445   1.927
71635W        W44060  26.028  38.905   4.416
71636W        W44061   4.469  28.191  12.459
71637W        W44062  36.843  10.690  13.959
71638W        W44063  16.074  10.952  13.920
71639W        W44064  39.534   7.473  12.088
71640W        W44065  34.116  42.029  12.976
71641W        W44066   7.942  17.813  13.047
71642W        W44067  18.347  19.817   0.204
71643W        W44068  32.610   0.205   2.919
71644W        W44069  36.457   3.357   1.317
71645W        W44070  17.915   5.983  13.405
71646W        W44071  13.093  23.485   4.717
71647W        W44072  33.516  33.505  10.454
71648W        W44073   0.059  32.369   1.336
71649W        W44074  10.591  20.756   2.916
71650W        W44075  25.189  12.429   1.157
71651W        W44076  30.355  13.104  11.164
71652W        W44077   8.277   3.917  13.081
71653W        W44078   1.950  36.901   3.342
71654W        W44079  29.241   6.943   3.924
71655W        W44080  19.020  14.129   3.235
71656W        W44081  11.658  27.899  14.328
71657W        W44082  28.847  22.970   0.873
71658W        W44083  23.170   2.732  10.783
71659W        W44084   5.736  35.877  10.965
71660W        W44085  33.195  11.754  11.313
71661W        W44086   5.382  21.696  10.621
71662W        W44087  31.695  37.178  10.489
71663W        W44088   3.835  42.280   0.641
71664W        W44089   1.711  22.849  12.425
71665W        W44090  34.921   4.796  14.463
71666W        W44091  14.232  23.210   2.516
71667W        W44092  36.869  43.785   3.198
71668W        W44093  24.543  15.124  12.923
71669W        W44094  38.500  39.439   0.213
71670W        W44095  12.048  44.684   1.153
71671W        W44096   4.910  11.014  13.352
71672W        W44097  27.350  42.749  12.434
71673W        W44098  21.218  40.449   2.894
71674W        W44099  31.976  39.918  11.882
71675W        W44100   0.898  23.721   1.213
71676W        W44101  34.456   9.237  11.166
71677W        W44102  35.627   5.020   2.859
71678W        W44103  36.935   9.450  12.101
71679W        W44104  18.316  10.651  14.897
71680W        W44105  40.087  15.330  13.866
71681W        W44106   6.315  20.967  11.230
71682W        W44107  13.469   5.236   2.758
71683W        W44108  22.572  17.821   2.384
71684W        W44109  30.383  44.932  14.854
71685W        W44110   0.712   1.944   1.740
71686W        W44111  31.874  24.614   0.403
71687W        W44112  35.384  44.724  11.626
71688W        W44113  29.943   4.935  13.003
71689W        W44114  14.318  19.698   4.583
71690W        W44115   2.649  38.372   1.258
71691W        W44116  38.481  31.565   1.320
71692W        W44117  34.398   9.191   0.649
71693W        W44118  11.482  40.040  14.306
71694W        W44119  41.634  28.590  14.906
71695W        W44120  11.721  16.029   2.060
71696W        W44121  36.448  38.879   3.154
71697W        W44122  35.920  28.961  14.875
71698W        W44123  33.588  41.372  14.424
71699W        W44124  34.982  27.376  12.823
71700W        W44125  40.912  43.861   1.063
71701W        W44126  34.865  24.988  12.470
71702W        W44127   4.323  39.783  12.401
71703W        W44128  10.556  14.173   0.029
71704W        W44129  17.457  18.244   3.859
71705W        W44130   4.301   9.503   0.430
71706W        W44131  15.006  15.904   1.289
71707W        W44132  31.626  32.721   0.293
71708W        W44133  23.132   8.190   3.158
71709W        W44134  16.658  13.822   4.262
71710W        W44135  22.402   2.209   0.342
71711W        W44136  12.724  37.146   2.595
71712W        W44137  23.471  34.061   3.256
71713W        W44138  41.444  35.526  14.750
71714W        W44139  13.409   8.279  14.470
71715W        W44140  15.818  43.322   0.547
71716W        W44141   2.679  31.121   0.357
71717W        W44142   6.740  38.269   4.612
71718W        W44143   1.704  42.389  10.706
71719W        W44144  27.178  30.024  10.729
71720W        W44145  27.933  18.153   1.412
71721W        W44146  27.360  14.632  13.152
71722W        W44147  15.277  29.065  13.992
71723W        W44148  31.154  36.542   4.458
71724W        W44149  11.798  37.138  13.028
71725W        W44150  40.021  41.391   0.883
71726W        W44151  37.903  17.646   3.598
71727W        W44152  39.414   7.186   2.197
71728W        W44153  18.432  40.983  11.123
71729W        W44154  43.932  39.430   4.709
71730W        W44155  16.977  21.713   2.183
71731W        W44156  41.591  28.922  12.577
71732W        W44157   9.201  35.977   1.014
71733W        W44158  29.441  31.082   9.729
71734W        W44159  34.279   3.534  13.424
71735W        W44160  21.555  26.142   2.916
71736W        W44161  33.055   0.180   3.267
71737W        W44162   9.385   4.238  11.104
71738W        W44163   2.388  22.567  12.618
71739W        W44164  25.993  28.117  14.320
71740W        W44165   4.728  38.426   2.796
71741W        W44166  21.637  11.351  11.114
71742W        W44167   7.656   3.283  12.084
71743W        W44168  23.268  39.273  11.560
71744W        W44169  33.832  30.204  12.186
71745W        W44170  40.665  34.835   5.172
71746W        W44171   9.937   1.761  14.768
71747W        W44172  39.903   5.138  11.143
71748W        W44173  41.829  19.656  14.416
71749W        W44174  10.521  13.408  11.127
71750W        W44175  18.877  31.427  13.069
71751W        W44176   3.308   5.788   1.938
71752W        W44177  17.662  31.571   1.215
71753W        W44178  32.544  44.863  14.310
71754W        W44179   0.351  18.271   2.705
71755W        W44180  20.739  39.466   3.509
71756W        W44181  37.935  23.118  12.357
71757W        W44182  36.594  26.522  13.947
71758W        W44183  35.129  33.067  14.379
71759W        W44184  27.638  12.615   0.910
71760W        W44185  43.902  41.709  13.427
71761W        W44186  18.642  22.385   2.102
71762W        W44187   9.609  37.273   3.701
71763W        W44188  12.330  12.478  14.361
71764W        W44189  11.962  26.141   0.274
71765W        W44190  32.995  27.246   0.732
71766W        W44191  22.687  38.957   0.471
71767W        W44192  41.950  36.082   4.147
71768W        W44193  21.284  16.215  10.712
71769W        W44194  27.260  15.073  12.048
71770W        W44195  39.547  10.897   3.576
71771W        W44196  41.540  24.067   4.082
71772W        W44197  40.446  38.740   4.160
71773W        W44198  26.706  21.693   4.410
71774W        W44199   3.509  10.405  11.109
71775W        W44200  23.284  30.487  13.586
71776W        W44201   2.767   1.819  13.530
71777W        W44202  10.887  21.964   2.818
71778W        W44203   2.822   1.693  14.907
71779W        W44204  36.439  42.894   2.581
71780W        W44205  33.081  30.810   1.635
71781W        W44206  35.877   6.180   0.814
71782W        W44207   5.808  34.309  14.764
71783W        W44208  34.577  18.245   4.124
71784W        W44209  16.679  12.295   2.606
71785W        W44210  14.261  43.873  14.831
71786W        W44211  40.194  30.258   4.113
71787W        W44212  25.490   9.801   2.128
71788W        W44213  39.699  23.728   1.245
71789W        W44214   2.880  38.069   4.178
71790W        W44215  15.187  27.358  11.082
71791W        W44216  13.132   2.504   4.743
71792W        W44217  41.529  16.659   1.474
71793W        W44218   6.994   9.440  10.837
71794W        W44219  31.023  10.903   0.496
71795W        W44220   9.295   2.510   2.730
71796W        W44221  22.050  18.579  13.212
71797W        W44222  14.162  21.556  12.059
71798W        W44223   5.283  32.737   1.872
71799W        W44224  35.481  28.609   0.556
71800W        W44225  29.378  26.470  11.917
71801W        W44226  20.500   5.628   0.646
71802W        W44227  14.168  28.674   1.545
71803W        W44228  11.206  34.627  14.697
71804W        W44229   8.410  41.917  13.998
71805W        W44230  26.658  20.048   4.854
71806W        W44231  23.805   8.441   2.703
71807W        W44232  21.913   3.470   5.076
71808W        W44233  15.262  12.874  11.104
71809W        W44234  28.437  24.967   2.169
71810W        W44235  32.811  31.665  13.535
71811W        W44236  38.131   3.807   4.422
71812W        W44237  34.139   8.712   2.406
71813W        W44238  29.109  12.316  12.327
71814W        W44239  12.754  35.892   2.418
71815W        W44240   8.660   4.166   0.722
71816W        W44241   6.203   1.380  13.872
71817W        W44242   6.376  19.537  14.729
71818W        W44243  23.051  34.373   3.254
71819W        W44244  29.146   6.663   1.265
71820W        W44245  28.544  28.866  10.683
71821W        W44246  26.303  34.301   1.943
71822W        W44247  10.340  31.884  13.791
71823W        W44248  42.878  10.656  11.104
71824W        W44249   9.429  36.011  14.577
71825W        W44250  19.696  23.055   3.718
71826W        W44251   3.930   1.839   2.183
71827W        W44252  14.254  10.601  14.890
71828W        W44253  39.986   2.177  12.844
71829W        W44254   5.392  39.786   3.494
71830W        W44255  17.683  13.787  13.913
71831W        W44256  34.098   8.374   2.811
71832W        W44257  42.346   8.725   1.554
71833W        W44258   1.347  32.146   3.832
71834W        W44259  16.676   3.457  10.772
71835W        W44260  26.589  37.203   1.165
71836W        W44261  41.908  14.576   2.745
71837W        W44262  18.861  25.285  13.351
71838W        W44263   2.907  25.314   4.382
71839W        W44264  11.783  42.505   1.477
71840W        W44265  10.423   2.052   2.355
71841W        W44266   6.926  32.789  14.433
71842W        W44267  33.400   3.361  14.952
71843W        W44268   0.008  41.726   1.335
71844W        W44269  27.596  10.662  14.719
71845W        W44270  14.915  29.469   0.285
71846W        W44271  30.562   8.802   0.883
71847W        W44272  22.574  13.710  13.831
71848W        W44273  10.047  36.483   2.292
71849W        W44274   1.015   7.803   1.381
71850W        W44275  36.371  43.596   1.264
71851W        W44276   5.046  25.505  10.957
71852W        W44277  11.340  42.774   4.594
71853W        W44278  14.089  13.261   3.876
71854W        W44279  16.627  26.902   1.413
71855W        W44280   7.890  13.343  10.497
71856W        W44281  17.770  38.503  14.374
71857W        W44282  36.156   6.234   1.267
71858W        W44283  27.059  15.729   1.339
71859W        W44284   6.572  29.621   4.064
71860W        W44285  20.598  21.982   4.303
71861W        W44286  27.572   3.819   0.966
71862W        W44287   8.637   7.662  10.996
71863W        W44288  30.612  20.951   1.599
71864W        W44289  33.622  41.520  13.917
71865W        W44290  14.040  26.960   4.320
71866W        W44291  19.145  17.025   3.624
71867W        W44292  40.998   8.520   0.408
71868W        W44293   5.004   9.607   4.813
71869W        W44294  44.052  31.704   3.613
71870W        W44295  30.007  32.345  13.478
71871W        W44296   7.766  44.021  14.346
71872W        W44297  41.444  17.310   0.756
71873W        W44298  34.309  19.157   4.641
71874W        W44299  44.777  42.922   0.879
71875W        W44300  27.643  16.765   1.907
71876W        W44301  11.606   5.816  10.628
71877W        W44302  26.571  30.513   4.060
71878W        W44303  31.467  18.795   2.970
71879W        W44304  31.987   3.247   0.269
71880W        W44305   6.769  43.008  11.625
71881W        W44306   3.692  41.483   2.328
71882W        W44307  38.656  42.395   4.617
71883W        W44308  34.103   0.464   1.621
71884W        W44309  25.943  41.801  12.027
71885W        W44310  32.138  23.062   3.369
71886W        W44311   8.899  35.520  14.022
71887W        W44312  16.677  30.239  14.235
71888W        W44313  38.482   5.291  13.558
71889W        W44314  10.107  10.321  14.964
71890W        W44315  31.884  31.675  14.827
71891W        W44316  24.845  25.862  11.964
71892W        W44317  29.503   7.220   2.686
71893W        W44318   1.861  32.987   4.787
71894W        W44319  40.640  31.038   1.333
71895W        W44320  10.200  34.856   1.286
71896W        W44321  27.464   8.121  14.920
71897W        W44322  21.032   7.617  14.023
71898W        W44323  23.522  35.590  14.371
71899W        W44324  35.238  40.514  14.899
71900W        W44325  35.242  22.065  11.641
71901W        W44326  16.725  26.622  11.691
71902W        W44327  14.616  17.380   2.888
71903W        W44328  19.434  22.749  11.246
71904W        W44329  42.346  36.178  10.565
71905W        W44330  31.846  17.574  13.911
71906W        W44331   8.704  28.091   1.887
71907W        W44332  36.501  35.986   0.778
71908W        W44333  35.932   2.282  12.628
71909W        W44334  41.363   5.335   0.271
71910W        W44335  40.358  44.566   4.207
71911W        W44336  11.193  15.801  12.004
71912W        W44337  43.009   0.397   0.850
71913W        W44338   6.134  15.079   2.573
71914W        W44339   4.869  32.471  10.757
71915W        W44340   7.873  25.528   1.414
71916W        W44341  22.310   3.313   1.384
71917W        W44342  28.296   9.570  11.226
71918W        W44343  22.430  41.355   4.150
71919W        W44344  16.056   5.533   2.853
71920W        W44345  29.035  18.606  11.170
71921W        W44346  30.793  23.024  11.603
71922W        W44347  23.051  15.342   4.495
71923W        W44348   7.293  28.844  14.288
71924W        W44349   3.747  30.165   4.480
71925W        W44350  25.375  39.804   2.425
71926W        W44351  14.667   2.930  14.631
71927W        W44352  38.516  41.788   0.023
71928W        W44353  44.203   6.239  10.805
71929W        W44354  35.145  29.446   4.124
71930W        W44355  44.107  13.161   1.792
71931W        W44356  22.786  25.219   9.963
71932W        W44357   2.805  28.987   1.672
71933W        W44358  27.439  10.634   3.226
71934W        W44359  35.975  36.825   0.922
71935W        W44360  11.285  32.538  14.360
71936W        W44361  16.365  32.495   4.589
71937W        W44362  16.981  28.320   4.029
71938W        W44363  13.115  15.510  12.773
71939W        W44364   0.561  24.082  14.341
71940W        W44365   6.410   4.622  13.626
71941W        W44366  40.010  32.608   4.753
71942W        W44367  28.635   8.137   1.351
71943W        W44368   3.985  43.951   3.627
71944W        W44369  35.726  36.788   4.211
71945W        W44370  21.600   4.772  12.887
71946W        W44371   8.432  41.521   2.920
71947W        W44372   9.714  28.932  11.437
71948W        W44373  15.026  32.095  14.256
71949W        W44374   8.739  30.605   4.665
71950W        W44375  23.484  14.772  10.913
71951W        W44376  38.733  29.973   3.329
71952W        W44377   7.823  27.866  10.728
71953W        W44378   0.906  22.760   1.379
71954W        W44379  13.072  30.710   0.107
71955W        W44380  40.039   0.237   2.841
71956W        W44381  29.891  39.316   5.134
71957W        W44382  19.435  24.619  14.090
71958W        W44383  11.732  24.558   3.731
71959W        W44384  16.957  20.515  12.442
71960W        W44385  22.691  15.782  12.517
71961W        W44386   0.397  13.335  13.065
71962W        W44387  31.702  40.477  10.320
71963W        W44388  39.095  34.944   0.863
71964W        W44389  44.497   9.447   4.229
71965W        W44390  36.847  39.941  14.854
71966W        W44391   5.194  33.629   0.223
71967W        W44392  32.071   8.615   3.282
71968W        W44393  13.702  33.560   4.107
71969W        W44394  27.514  29.937   2.345
71970W        W44395   6.643   2.230   0.247
71971W        W44396  31.135  27.147   1.427
71972W        W44397  41.892  36.509   4.607
71973W        W44398  13.089  16.742  11.044
71974W        W44399  43.533   7.784   1.747
71975W        W44400   6.788   2.889   1.456
71976W        W44401  31.149   7.658   1.107
71977W        W44402  27.712  30.858  14.589
71978W        W44403  39.828  41.144  14.298
71979W        W44404   6.819   7.851  10.604
71980W        W44405   8.357  12.044   2.022
71981W        W44406   9.341  28.413   5.006
71982W        W44407   9.781  30.526  13.826
71983W        W44408  33.499  21.678  11.036
71984W        W44409  44.364  21.486  12.024
71985W        W44410   4.235  41.896   2.743
71986W        W44411  16.304  12.194  11.680
71987W        W44412   7.859  10.189   3.165
71988W        W44413   9.503  38.530   4.901
71989W        W44414  43.713   7.456   3.710
71990W        W44415  41.590  11.163   1.697
71991W        W44416  13.069   6.328   4.630
71992W        W44417  40.845  36.140  13.454
71993W        W44418  25.201  39.040   1.783
71994W        W44419  11.768  43.061  12.077
71995W        W44420  29.171  34.536  12.307
71996W        W44421  16.183  36.850  10.821
71997W        W44422   8.357   2.340   1.491
71998W        W44423   3.846  30.129  14.286
71999W        W44424  38.100  25.057  14.176
72000W        W44425  35.620  16.388   3.367
72001W        W44426  29.160  39.994   2.345
72002W        W44427   8.708  35.686  12.294
72003W        W44428  43.331  15.400   1.923
72004W        W44429  11.898  24.267   0.066
72005W        W44430  19.772  38.961   4.343
72006W        W44431  27.939   4.350   2.359
72007W        W44432  37.316  34.408  14.006
72008W        W44433  11.482  29.984   1.311
72009W        W44434  30.459  31.070   2.229
72010W        W44435   7.725  35.955  10.520
72011W        W44436   5.332  36.948  12.819
72012W        W44437  33.014   0.898  11.816
72013W        W44438  28.676   7.433   2.717
72014W        W44439  15.059   4.869  12.378
72015W        W44440  16.048  36.793   3.113
72016W        W44441  32.061  33.022   0.425
72017W        W44442   0.695  19.798  11.970
72018W        W44443   2.316   4.639   1.823
72019W        W44444   4.494  44.943   3.639
72020W        W44445   6.660  34.896  10.702
72021W        W44446  18.580  33.611   1.259
72022W        W44447  44.554  20.693   2.491
72023W        W44448   2.749  43.780   2.709
72024W        W44449  31.986   5.163  13.517
72025W        W44450   4.872  23.482   4.094
72026W        W44451  28.078  22.641   2.843
72027W        W44452  22.452  36.536   1.787
72028W        W44453  14.411   7.876   4.218
72029W        W44454  11.378   8.168   3.508
72030W        W44455  28.173  34.551  13.100
72031W        W44456  19.401   3.725   3.377
72032W        W44457  10.151  19.286   3.193
72033W        W44458  16.617   6.281  14.400
72034W        W44459   3.929  26.015  11.153
72035W        W44460  25.915  13.233  12.813
72036W        W44461  36.050  43.802   4.476
72037W        W44462  41.347  37.494  11.094
72038W        W44463  29.624   2.341  12.735
72039W        W44464  18.254  32.978   3.742
72040W        W44465  34.196  26.619   1.921
72041W        W44466  38.861  10.139   1.070
72042W        W44467   6.938   4.315   2.541
72043W        W44468   4.333   2.843  13.407
72044W        W44469   3.505   2.790  14.189
72045W        W44470   3.984  22.127  11.632
72046W        W44471  34.473  12.631   1.261
72047W        W44472  20.323  27.537   3.781
72048W        W44473  36.411   8.650  13.057
72049W        W44474   7.451   3.955  14.061
72050W        W44475   5.656  25.434   2.121
72051W        W44476  35.879   6.797   3.320
72052W        W44477  30.834  38.011   1.201
72053W        W44478  11.995  26.231   0.774
72054W        W44479  13.329  34.512   4.337
72055W        W44480  27.782  24.126  14.405
72056W        W44481  31.604  21.532  14.547
72057W        W44482  17.022  32.577  14.486
72058W        W44483  10.079  30.908   4.348
72059W        W44484  22.692  28.096   4.562
72060W        W44485  26.548  35.626  14.102
72061W        W44486  28.788  40.161  14.307
72062W        W44487  10.723  40.575  14.670
72063W        W44488  22.592  20.807  11.687
72064W        W44489  44.049   8.300   4.736
72065W        W44490  36.440  19.033  14.929
72066W        W44491   9.633  25.664  12.873
72067W        W44492  14.626  39.899  10.776
72068W        W44493  14.268  41.636   0.491
72069W        W44494  10.272  12.140   4.013
72070W        W44495  15.285  41.848   1.968
72071W        W44496  32.616  40.483   3.190
72072W        W44497  16.235  42.074  14.169
72073W        W44498  18.000   1.767  13.949
72074W        W44499  44.313  44.541   4.512
72075W        W44500  39.520  19.110  13.880
72076W        W44501  38.380  32.591  12.645
72077W        W44502   8.908   6.898   2.285
72078W        W44503  34.210  19.926   0.384
72079W        W44504   9.907  22.575  10.523
72080W        W44505  12.335  39.142   1.772
72081W        W44506   1.578   8.869  10.802
72082W        W44507  33.349  17.483   3.212
72083W        W44508  35.563   0.050  13.482
72084W        W44509  10.756  33.029   2.035
72085W        W44510  29.486  29.349   3.682
72086W        W44511  10.038  18.648   0.852
72087W        W44512  19.953  11.767   3.185
72088W        W44513  35.560   2.834  14.797
72089W        W44514  26.948   1.394  13.308
72090W        W44515  16.376  34.165  11.370
72091W        W44516  33.818   6.870   1.375
72092W        W44517  37.929  25.008  13.237
72093W        W44518  29.169  37.016   0.243
72094W        W44519  29.533  31.273   3.128
72095W        W44520  11.181   8.125  12.056
72096W        W44521  27.667   2.925   2.788
72097W        W44522  38.592  44.342   2.176
72098W        W44523  18.139  24.110   1.741
72099W        W44524  35.405  14.342  14.547
72100W        W44525   4.794  35.856   3.306
72101W        W44526  14.542  43.000  10.499
72102W        W44527  20.637  33.013  12.835
72103W        W44528  38.885  43.652  12.917
72104W        W44529  13.348   8.269   0.381
72105W        W44530  42.311  15.591  12.058
72106W        W44531  11.085  25.246   1.323
72107W        W44532  41.371  29.950   0.585
72108W        W44533  27.944  28.622  11.968
72109W        W44534  18.809  10.592  14.815
72110W        W44535  15.845  28.859  10.869
72111W        W44536  41.726   6.951   0.042
72112W        W44537  38.925  26.908  14.419
72113W        W44538  34.902  39.442  11.170
72114W        W44539   2.889  16.879   4.117
72115W        W44540  36.086  25.012  10.115
72116W        W44541   4.178   8.594  14.077
72117W        W44542  33.521   6.132  13.551
72118W        W44543  37.373  32.609   1.695
72119W        W44544   0.826  11.721  10.669
72120W        W44545  31.914  10.216   2.399
72121W        W44546  34.667  40.944  11.311
72122W        W44547   5.965  19.209  10.529
72123W        W44548  40.010  34.727   4.004
72124W        W44549  22.520  30.050  13.835
72125W        W44550  16.284  24.754   1.939
72126W        W44551  38.862   4.014   2.811
72127W        W44552   2.368  20.957   2.688
72128W        W44553  39.614   3.879   4.503
72129W        W44554  10.633  17.552   4.826
72130W        W44555  11.781  26.398  11.524
72131W        W44556  30.356  42.761  13.523
72132W        W44557   0.689  34.499  13.917
72133W        W44558  22.924  13.175  12.919
72134W        W44559  17.818   3.880  11.466
72135W        W44560  20.982  36.403   1.835
72136W        W44561   0.681  32.132   3.243
72137W        W44562  29.834   8.320  14.853
72138W        W44563  44.210   7.210  10.967
72139W        W44564   0.979  40.113  12.101
72140W        W44565  39.829  41.916   1.234
72141W        W44566  20.258  29.878   3.647
72142W        W44567  16.428   8.214   1.730
72143W        W44568   2.298  10.334   3.399
72144W        W44569  39.795   3.418  10.427
72145W        W44570  11.919   6.387  12.262
72146W        W44571  42.041  36.648   0.702
72147W        W44572   9.413  43.847   0.038
72148W        W44573   5.156  24.146  13.304
72149W        W44574  31.517  14.842   0.558
72150W        W44575  24.124  18.037  12.397
72151W        W44576  26.521  20.743  12.045
72152W        W44577  19.150   4.396   4.596
72153W        W44578  33.882  22.974  12.936
72154W        W44579   0.823  30.016   4.688
72155W        W44580  14.255   5.717   2.916
72156W        W44581  21.487  33.361   4.158
72157W        W44582   1.123  14.376  11.228
72158W        W44583   3.039  39.757  10.800
72159W        W44584  28.676  38.224  12.765
72160W        W44585  43.836  41.053   3.039
72161W        W44586   7.417   2.578   4.585
72162W        W44587  27.071   5.664   3.256
72163W        W44588  27.609   3.084  11.897
72164W        W44589  43.795  15.017  12.472
72165W        W44590  18.516  40.379  14.896
72166W        W44591  13.190  22.649  10.211
72167W        W44592   7.268  17.009   4.439
72168W        W44593   7.778  12.822  13.511
72169W        W44594  21.591  41.221  11.747
72170W        W44595  31.255   8.625   3.762
72171W        W44596  30.173   8.658   3.905
72172W        W44597   7.344   3.225   3.896
72173W        W44598  22.257   9.945  13.316
72174W        W44599  38.393  44.830   0.291
72175W        W44600  28.964  21.784  14.011
72176W        W44601  31.055   8.862  13.521
72177W        W44602  11.600   0.786   3.518
72178W        W44603  19.747  13.641  13.521
72179W        W44604  36.568  39.943  12.914
72180W        W44605   1.993  17.155  13.560
72181W        W44606  43.554  16.213  11.960
72182W        W44607  44.550  10.737   3.369
72183W        W44608  20.331  22.194   0.224
72184W        W44609   9.884   3.149   4.564
72185W        W44610  29.744  11.272   3.195
72186W        W44611  21.291  44.486   0.204
72187W        W44612  29.928  20.281  14.881
72188W        W44613  43.311  27.823   3.717
72189W        W44614   9.281   8.464   2.801
72190W        W44615  37.101   7.001   1.244
72191W        W44616  32.533  40.545  13.797
72192W        W44617  36.520  18.007   4.634
72193W        W44618  26.363  25.625  14.329
72194W        W44619   4.351  39.833   4.066
72195W        W44620   3.314  20.971  14.493
72196W        W44621  33.060  14.100  11.932
72197W        W44622  13.924  38.061  14.472
72198W        W44623   3.791   7.111  12.101
72199W        W44624   6.800  34.563   1.928
72200W        W44625  24.966  36.423   2.336
72201W        W44626  18.008   6.872   1.745
72202W        W44627  36.873  23.273   1.827
72203W        W44628  39.286  31.714   2.763
72204W        W44629  13.279  38.465   0.736
72205W        W44630  35.121  26.036  13.048
72206W        W44631   2.719  18.637  12.975
72207W        W44632  44.347  40.919   4.597
72208W        W44633   4.614  12.325   4.023
72209W        W44634   0.873   7.836  14.954
72210W        W44635  26.481   8.361   3.116
72211W        W44636   2.943  44.271   0.787
72212W        W44637  14.103  12.028  12.940
72213W        W44638  33.524  44.024   3.755
72214W        W44639  34.657   8.275   4.193
72215W        W44640  19.256  15.752   3.318
72216W        W44641  10.372  10.235  14.531
72217W        W44642  11.528  20.056  11.761
72218W        W44643   0.143   0.805   1.934
72219W        W44644  16.745   5.963   3.177
72220W        W44645   7.346  44.443  12.068
72221W        W44646   6.926   0.140   3.762
72222W        W44647  20.261   1.908  13.819
72223W        W44648  27.675  14.313  12.824
72224W        W44649   5.781   2.976   2.223
72225W        W44650   3.916  26.913  10.774
72226W        W44651  40.038  44.005  14.241
72227W        W44652  29.902  23.111   4.117
72228W        W44653   3.931   8.712   0.006
72229W        W44654  27.261  13.362  11.110
72230W        W44655   8.474  28.993  10.695
72231W        W44656  42.975  19.274  14.428
72232W        W44657  25.748  24.193   0.814
72233W        W44658  18.382  31.937  12.972
72234W        W44659   5.924   9.353  11.634
72235W        W44660  15.663  41.037  10.559
72236W        W44661  29.006  29.082   1.932
72237W        W44662  29.404   9.722  13.997
72238W        W44663  33.934  23.459   3.453
72239W        W44664  36.986  32.972   1.771
72240W        W44665  10.826  17.182   3.156
72241W        W44666   8.891  22.593   2.387
72242W        W44667  39.937  40.692  13.336
72243W        W44668  34.377  16.835  10.949
72244W        W44669  40.395  37.320  14.493
72245W        W44670  20.095  40.747  14.818
72246W        W44671  18.439  35.733  14.000
72247W        W44672  30.820   6.923  14.890
72248W        W44673  43.449   1.744  12.521
72249W        W44674  32.975  17.460  11.684
72250W        W44675  25.605  30.381   5.015
72251W        W44676  41.078   6.120  14.891
72252W        W44677  10.850  24.162  10.584
72253W        W44678  35.016  33.044   1.900
72254W        W44679  37.822   9.544  12.060
72255W        W44680  26.062   2.956  10.372
72256W        W44681  37.583  17.237   1.792
72257W        W44682  19.669  40.648   4.581
72258W        W44683   8.897  18.576  11.626
72259W        W44684  34.514  21.470  14.905
72260W        W44685  12.778   2.624   4.351
72261W        W44686   5.870  36.796   9.749
72262W        W44687  40.531  10.840   0.228
72263W        W44688   9.269  24.672  14.790
72264W        W44689  35.576  37.318  12.916
72265W        W44690  30.131  24.801   0.303
72266W        W44691   0.307  34.053   3.346
72267W        W44692  31.209  18.358  12.783
72268W        W44693  29.708  43.794  10.913
72269W        W44694  14.871   3.262  12.050
72270W        W44695  40.726  20.270   4.168
72271W        W44696  28.315  23.937  12.528
72272W        W44697  34.801  31.635  10.040
72273W        W44698  20.670  29.913   2.435
72274W        W44699   9.203  42.483   2.157
72275W        W44700  42.920  36.975  13.348
72276W        W44701  22.528  36.460  13.090
72277W        W44702  15.294  34.959   0.397
72278W        W44703   7.023  24.629   1.905
72279W        W44704  20.852  13.777   2.659
72280W        W44705  22.416  11.309  12.636
72281W        W44706  21.471  12.630  10.663
72282W        W44707   8.865  17.165   1.538
72283W        W44708  41.414   1.938  13.045
72284W        W44709  32.934  18.895  11.742
72285W        W44710   5.654   6.545  12.753
72286W        W44711   0.728   8.741   2.706
72287W        W44712  43.805  38.298  10.711
72288W        W44713  32.491   2.366  13.401
72289W        W44714  16.746   5.883  12.608
72290W        W44715  33.974  22.185  12.226
72291W        W44716  21.991  44.745  10.966
72292W        W44717  24.705  37.500   4.580
72293W        W44718  30.053   9.299  12.693
72294W        W44719  30.499  33.923  13.980
72295W        W44720  31.878  20.317   3.695
72296W        W44721  35.887  26.456  11.513
72297W        W44722  14.365  38.461   3.583
72298W        W44723  38.271  32.648   2.155
72299W        W44724  39.263  33.329  11.091
72300W        W44725  24.724  31.129   2.161
72301W        W44726  24.509  26.240  10.737
72302W        W44727  28.190   7.287   2.748
72303W        W44728   1.999  21.595   3.344
72304W        W44729  30.052  26.599  14.905
72305W        W44730  40.657  31.489  12.988
72306W        W44731  37.336  22.307   0.093
72307W        W44732  40.397   4.004  14.449
72308W        W44733  39.780  39.318  12.698
72309W        W44734  43.775  24.031  12.126
72310W        W44735  10.695  43.361   3.597
72311W        W44736   2.977  41.446  12.631
72312W        W44737  30.942  26.007   1.439
72313W        W44738   0.991   2.920  14.339
72314W        W44739  23.695   7.468   3.835
72315W        W44740   5.471  43.059   2.831
72316W        W44741   9.651  24.059   4.151
72317W        W44742  11.425   8.870  12.916
72318W        W44743   8.127  30.578  12.519
72319W        W44744  17.738  30.648  13.957
72320W        W44745   5.282   9.104   1.871
72321W        W44746  22.585  29.759   5.038
72322W        W44747  37.061  28.480  12.610
72323W        W44748  23.263  33.853  14.355
72324W        W44749  36.386  26.276   4.666
72325W        W44750  31.089  28.611  14.656
72326W        W44751  37.180  14.444  13.077
72327W        W44752  29.952  39.205   0.135
72328W        W44753   2.523  34.596   3.714
72329W        W44754  38.513  22.539  11.356
72330W        W44755   7.058  21.555  13.370
72331W        W44756   3.116  11.726  14.864
72332W        W44757   3.502  41.215   4.757
72333W        W44758  38.729  32.949  10.504
72334W        W44759  19.336  32.967  10.502
72335W        W44760  24.672  34.799  11.629
72336W        W44761   4.660   8.464   2.819
72337W        W44762  44.763  38.764   4.115
72338W        W44763   5.399  13.852  11.071
72339W        W44764  39.570  20.617   2.700
72340W        W44765  40.031  23.569   1.874
72341W        W44766  13.311  38.793  11.882
72342W        W44767  39.632  11.561  13.008
72343W        W44768  11.557  36.878  11.826
72344W        W44769  35.165   1.105   1.752
72345W        W44770   6.204  39.560   3.156
72346W        W44771  32.420   2.903   1.447
72347W        W44772  30.474  40.663  11.156
72348W        W44773  42.322  15.653   2.163
72349W        W44774  33.101  34.039  14.887
72350W        W44775   4.297   6.760   2.195
72351W        W44776  34.051   3.118   2.719
72352W        W44777  11.704  44.364   1.889
72353W        W44778  40.625  29.030  11.556
72354W        W44779  34.796  19.929   3.181
72355W        W44780   6.309  32.174   4.622
72356W        W44781  10.420   8.829  13.008
72357W        W44782  12.694  28.792   2.278
72358W        W44783  33.289  42.494  11.715
72359W        W44784   2.780   1.870   0.824
72360W        W44785   3.437  12.915  12.949
72361W        W44786  23.314  11.479   3.166
72362W        W44787  12.959  24.115   4.111
72363W        W44788  14.229  36.310  12.789
72364W        W44789  32.572   5.724   3.861
72365W        W44790  20.202  28.085   4.118
72366W        W44791   2.509  41.753   4.017
72367W        W44792   9.658  38.138  11.097
72368W        W44793  13.645  27.295  14.912
72369W        W44794  41.954  35.797   3.145
72370W        W44795  24.653  14.716   3.210
72371W        W44796   6.207  14.258   0.199
72372W        W44797  32.570  22.354   3.780
72373W        W44798  44.619  13.427   4.190
72374W        W44799  30.996  29.502  10.656
72375W        W44800  15.257  18.560  12.195
72376W        W44801   6.258  18.575   1.327
72377W        W44802  34.399  31.715  12.476
72378W        W44803  32.988  30.478  12.806
72379W        W44804  31.844   9.437   0.878
72380W        W44805  39.442  38.459   4.302
72381W        W44806  38.600  44.906  13.466
72382W        W44807   3.687  43.798   4.026
72383W        W44808   9.842  24.785   3.622
72384W        W44809  23.174   3.652  14.569
72385W        W44810  10.659   5.045   2.576
72386W        W44811   2.360   8.352   1.221
72387W        W44812  30.808  35.474  10.589
72388W        W44813  20.210  25.947   0.403
72389W        W44814  20.673  11.599  11.778
72390W        W44815  27.489  23.168   2.639
72391W        W44816  33.283   1.327   3.575
72392W        W44817  41.471  37.765  13.984
72393W        W44818  20.773  42.746   4.556
72394W        W44819  16.478  25.959  14.374
72395W        W44820  11.146  43.194   1.453
72396W        W44821   0.516  41.883   4.405
72397W        W44822  40.641   7.305  11.962
72398W        W44823  43.807  24.725   1.500
72399W        W44824  23.589  43.378   0.221
72400W        W44825  32.356   6.412  10.229
72401W        W44826  24.839  33.956  11.221
72402W        W44827  12.173  38.500  10.669
72403W        W44828   2.498  18.149   2.909
72404W        W44829  13.883  21.448  13.778
72405W        W44830  25.223  44.813  12.875
72406W        W44831  14.145  17.159   3.015
72407W        W44832  26.954  42.532   2.322
72408W        W44833   6.307  34.546   0.986
72409W        W44834  23.955  38.547  12.992
72410W        W44835  19.242  15.455   2.861
72411W        W44836  29.562   3.726   0.028
72412W        W44837  13.303   8.758   0.146
72413W        W44838  26.253   2.013   2.773
72414W        W44839  20.743  44.468  13.017
72415W        W44840  39.610  32.025  14.028
72416W        W44841  32.494  35.320   1.760
72417W        W44842  42.755  23.877   0.873
72418W        W44843  23.459  41.003   4.550
72419W        W44844  19.033  24.294   4.136
72420W        W44845  44.946  13.459   1.931
72421W        W44846  35.174   7.444   0.756
72422W        W44847   2.352   7.082   1.856
72423W        W44848   8.788  44.068  13.884
72424W        W44849  26.584  19.816  13.364
72425W        W44850  10.920   5.331  11.969
72426W        W44851   5.631  21.126  13.365
72427W        W44852  31.238  20.761  11.627
72428W        W44853  11.201   8.381   0.843
72429W        W44854   4.733   4.818   0.094
72430W        W44855  33.676  18.956   2.218
72431W        W44856  15.600   5.733   1.241
72432W        W44857   3.375  17.691   2.305
72433W        W44858  25.712   1.871  13.545
72434W        W44859  11.757  34.108  10.791
72435W        W44860   3.856  28.858  12.387
72436W        W44861  31.495  39.146  14.051
72437W        W44862  15.135  40.764   3.601
72438W        W44863  12.746   0.426  14.199
72439W        W44864  33.984  16.626   0.236
72440W        W44865  41.341  13.374   4.345
72441W        W44866   6.441  10.773   2.642
72442W        W44867  27.396  17.048  11.347
72443W        W44868  44.444  30.696  13.392
72444W        W44869  19.201  11.164   4.667
72445W        W44870  26.907   6.839   1.742
72446W        W44871  34.344  21.586   0.879
72447W        W44872  40.779  32.468  11.979
72448W        W44873   8.226   9.929  13.848
72449W        W44874  24.554  36.356  10.799
72450W        W44875  37.441   6.748  13.803
72451W        W44876   6.635  36.364   3.407
72452W        W44877  12.632  41.283  12.799
72453W        W44878   8.311   7.509   3.670
72454W        W44879  21.075  37.545   3.695
72455W        W44880   8.278  17.802   1.330
72456W        W44881  25.466  42.502  12.959
72457W        W44882  19.080  21.539  14.415
72458W        W44883  24.480  27.277  10.655
72459W        W44884  18.875  36.532  14.296
72460W        W44885   4.194  41.586  11.981
72461W        W44886  43.561  20.795  12.620
72462W        W44887  11.665   5.787  12.015
72463W        W44888  21.740  16.811  14.234
72464W        W44889  34.983   5.283  10.634
72465W        W44890   4.461  26.010  14.002
72466W        W44891   9.790  39.593   4.296
72467W        W44892  17.130  21.169  11.679
72468W        W44893   8.129  42.496  13.308
72469W        W44894  32.430  17.159  13.396
72470W        W44895  40.715   7.263   0.863
72471W        W44896  30.505  16.164  13.061
72472W        W44897  30.004  31.174  11.866
72473W        W44898  17.055  32.589  12.545
72474W        W44899  29.159  39.745   3.843
72475W        W44900  15.542  25.936   4.655
72476W        W44901  32.774   6.764   1.341
72477W        W44902  15.386  10.285  10.606
72478W        W44903  11.197   6.240   4.866
72479W        W44904   4.400   7.772  11.147
72480W        W44905   2.231  32.923  14.782
72481W        W44906  19.018   2.228  14.021
72482W        W44907  23.060  29.966   3.210
72483W        W44908  34.383   2.921  11.615
72484W        W44909  23.510  29.755  12.187
72485W        W44910  27.540   4.523   3.589
72486W        W44911  13.361  28.664  12.992
72487W        W44912  13.251  21.827  14.999
72488W        W44913  35.157  12.399  13.354
72489W        W44914  36.076   5.884   2.157
72490W        W44915  10.559   5.121  14.510
72491W        W44916  17.771  21.097  12.883
72492W        W44917   0.832  35.843   0.628
72493W        W44918  34.360  22.534   1.338
72494W        W44919  43.221  12.626  13.022
72495W        W44920  14.802  32.630  13.935
72496W        W44921  26.482  31.004   4.462
72497W        W44922   3.225  16.630  14.701
72498W        W44923  31.989   2.953   2.725
72499W        W44924  29.766   9.585   4.503
72500W        W44925   7.022   8.750   1.688
72501W        W44926  13.060   7.338  11.253
72502W        W44927  14.269  19.036  10.734
72503W        W44928   5.786  15.010   1.311
72504W        W44929   7.674  27.945   2.810
72505W        W44930  21.465  13.127  13.381
72506W        W44931   6.553  36.683   5.400
72507W        W44932  26.009   4.845  10.723
72508W        W44933   9.119  23.526  12.487
72509W        W44934  18.847  21.012   2.347
72510W        W44935  39.820  19.675  12.947
72511W        W44936  37.927  21.085  10.692
72512W        W44937  44.872  40.909   3.264
72513W        W44938  11.832  29.798   2.963
72514W        W44939  36.342  36.191  12.483
72515W        W44940   3.857  12.068   0.213
72516W        W44941  38.712  10.080   4.210
72517W        W44942   1.762  18.466   0.452
72518W        W44943  29.187  27.023   1.904
72519W        W44944  38.804  21.817   4.165
72520W        W44945  30.895  40.492   2.615
72521W        W44946  24.289  42.781   1.787
72522W        W44947  32.041  12.152  11.898
72523W        W44948  41.265   1.411  14.340
72524W        W44949   3.923  11.713  10.746
72525W        W44950   4.242  21.682   3.686
72526W        W44951  12.444  24.092   4.164
72527W        W44952  11.952  41.760   0.955
72528W        W44953   6.711  40.345  14.992
72529W        W44954  14.529  30.556   1.905
72530W        W44955  29.381  33.600   2.659
72531W        W44956   2.416   3.623  13.893
72532W        W44957   8.636  28.447  12.067
72533W        W44958  13.030  10.180  12.839
72534W        W44959  27.383   9.685   2.811
72535W        W44960  16.054  29.064  12.335
72536W        W44961   1.582  43.390  14.915
72537W        W44962   1.831  28.591   2.345
72538W        W44963   6.661  33.248  14.550
72539W        W44964  32.315  38.383   0.834
72540W        W44965  35.453  23.776  10.847
72541W        W44966  17.659  26.565   2.884
72542W        W44967   5.392  40.609  11.746
72543W        W44968  31.060  20.671  11.152
72544W        W44969  15.160  14.295   2.709
72545W        W44970   4.210  17.691  11.138
72546W        W44971  24.315  15.365  11.532
72547W        W44972  37.241  14.332   4.171
72548W        W44973  38.335  15.567  14.112
72549W        W44974  30.009  16.907  10.647
72550W        W44975  39.830  31.854   2.688
72551W        W44976   3.918  31.277  11.584
72552W        W44977  22.691  43.908   3.290
72553W        W44978  35.447   3.201   0.138
72554W        W44979  30.850   2.351   1.601
72555W        W44980  22.560  29.967  12.455
72556W        W44981   0.216  20.812   1.196
72557W        W44982  33.357  22.434   4.846
72558W        W44983  27.332  14.870  11.061
72559W        W44984   2.387  27.165   1.544
72560W        W44985   2.197  33.707   2.194
72561W        W44986  35.960  28.658  11.105
72562W        W44987  43.652  13.312  13.227
72563W        W44988   3.348   1.063   0.759
72564W        W44989   7.713  16.253   4.613
72565W        W44990  37.057   6.892   2.287
72566W        W44991   3.393  13.317   2.813
72567W        W44992  26.412  24.019   3.400
72568W        W44993  13.634  19.984  13.563
72569W        W44994  42.866  13.177   2.322
72570W        W44995  43.565   7.965   3.647
72571W        W44996  39.242  33.960  13.505
72572W        W44997   5.369  31.921  11.607
72573W        W44998  39.032  24.475   5.266
72574W        W44999  12.069  18.708   4.111
72575W        W45000  21.121  24.576  10.593
72576W        W45001  18.900   6.145   3.583
72577W        W45002  12.002  28.352   1.656
72578W        W45003   1.939   2.007   3.625
72579W        W45004  27.096  22.286   3.728
72580W        W45005  36.142   4.474   0.930
72581W        W45006   0.408   1.048   2.329
72582W        W45007  16.229   8.882   1.930
72583W        W45008  21.302  14.808  11.809
72584W        W45009  35.144  30.386   2.272
72585W        W45010  24.005  26.363   0.361
72586W        W45011  28.415  27.690   0.481
72587W        W45012  15.597   5.375  11.661
72588W        W45013   6.199  35.092   4.070
72589W        W45014   1.412  27.258  11.258
72590W        W45015  10.753   8.774   2.396
72591W        W45016   7.948  20.700  14.940
72592W        W45017  13.306  29.406  11.081
72593W        W45018  34.381  33.108  13.417
72594W        W45019  43.900  16.134  11.573
72595W        W45020   0.767  42.403   0.287
72596W        W45021  21.191   8.540   4.671
72597W        W45022  39.547  43.984   0.962
72598W        W45023  13.538   2.894  11.119
72599W        W45024   9.485  34.080   2.342
72600W        W45025  18.762  29.016   2.769
72601W        W45026  12.799  12.156   3.735
72602W        W45027  21.692  20.320   1.344
72603W        W45028  25.261  14.366   4.179
72604W        W45029  13.868  40.426   0.434
72605W        W45030  30.202  34.600  13.899
72606W        W45031  19.710   9.727   3.648
72607W        W45032  28.684  22.285  10.520
72608W        W45033  36.053  13.766   3.769
72609W        W45034  11.035  44.190  12.012
72610W        W45035   0.355  25.991   1.688
72611W        W45036  26.879  36.974   4.009
72612W        W45037  28.537   3.902  10.588
72613W        W45038   8.827  20.569  11.262
72614W        W45039   7.953  32.429  10.867
72615W        W45040   7.869  18.593   1.493
72616W        W45041  18.419   7.154  13.399
72617W        W45042  30.757  12.770  12.196
72618W        W45043  27.724  18.394   1.860
72619W        W45044  28.563   3.324  14.451
72620W        W45045  36.505  21.441  13.894
72621W        W45046   4.045  42.330  14.399
72622W        W45047  20.282  40.749  13.863
72623W        W45048  35.405  37.167   2.242
72624W        W45049  43.120  12.364  14.982
72625W        W45050   1.271  20.519   3.597
72626W        W45051  43.254  19.669   0.874
72627W        W45052   8.941   8.642   5.017
72628W        W45053  31.512  35.833  12.458
72629W        W45054   5.300   2.883   4.384
72630W        W45055  37.111  31.637   4.195
72631W        W45056  18.662  41.783  10.743
72632W        W45057   2.204   3.209  13.665
72633W        W45058  13.346   6.950  13.100
72634W        W45059   1.773   3.393   4.837
72635W        W45060   7.842   2.188   4.156
72636W        W45061   5.307   7.898   4.729
72637W        W45062  36.866  22.257   4.266
72638W        W45063  21.885  16.347  13.970
72639W        W45064  13.011  12.303  14.203
72640W        W45065  30.887  11.494   4.938
72641W        W45066  41.304  26.542   0.819
72642W        W45067  40.921  28.855  13.905
72643W        W45068   4.250   4.306   3.077
72644W        W45069  17.056  39.777   1.286
72645W        W45070  29.350  24.954   1.330
72646W        W45071  22.050  15.010   3.526
72647W        W45072   9.320  30.461  14.465
72648W        W45073  28.201  23.640  12.115
72649W        W45074  38.372  12.767  10.244
72650W        W45075  36.520  21.145   2.208
72651W        W45076  17.936  28.231  12.586
72652W        W45077   9.141  28.945   1.832
72653W        W45078  44.366   3.528   2.880
72654W        W45079   9.907   5.404  11.964
72655W        W45080  10.742  41.965   1.326
72656W        W45081  20.192  34.789  14.376
72657W        W45082  15.153  38.576   3.084
72658W        W45083   0.209  26.245  13.004
72659W        W45084  23.722  15.750   2.371
72660W        W45085  32.387  10.909  13.018
72661W        W45086  11.437  20.266   0.368
72662W        W45087  17.133  30.532   9.819
72663W        W45088  25.680   2.756   2.877
72664W        W45089  41.236  18.842  12.490
72665W        W45090  14.332  26.167  12.687
72666W        W45091  25.778  17.714  10.831
72667W        W45092   0.506  31.527  14.921
72668W        W45093  11.776  15.432   0.245
72669W        W45094  23.784  25.908  14.502
72670W        W45095  25.508   8.932  12.918
72671W        W45096  36.994  44.384  10.701
72672W        W45097  41.472  34.877   1.494
72673W        W45098  11.577  38.904   2.213
72674W        W45099  10.711  28.131  13.537
72675W        W45100  27.525  13.262   3.188
72676W        W45101   4.960   4.450  12.318
72677W        W45102  32.709  37.845   3.309
72678W        W45103  15.931  34.040  13.080
72679W        W45104  24.237  30.153  12.973
72680W        W45105  20.671  26.901  11.400
72681W        W45106  34.810  36.256   4.128
72682W        W45107   0.399  12.367  13.449
72683W        W45108   9.933  11.561  11.198
72684W        W45109  28.505  21.214   3.144
72685W        W45110  20.703  26.125   0.558
72686W        W45111   4.210  42.370   0.262
72687W        W45112  11.410  27.946  12.833
72688W        W45113   1.703  21.849   4.614
72689W        W45114   1.418  14.365   0.454
72690W        W45115  15.595   4.159  12.790
72691W        W45116  27.983   1.668  13.209
72692W        W45117  10.766  35.865  14.299
72693W        W45118  25.839  22.480   4.453
72694W        W45119  44.381  12.157   4.544
72695W        W45120  21.000  28.644   4.565
72696W        W45121  26.898  30.848   3.335
72697W        W45122  42.178  29.013   3.784
72698W        W45123  14.828  18.319   0.827
72699W        W45124  12.228  36.040  13.579
72700W        W45125   5.927  28.110   0.263
72701W        W45126  33.568  17.653   1.893
72702W        W45127  34.721  31.079   0.941
72703W        W45128   4.886   2.336  13.214
72704W        W45129  14.612  20.591   3.795
72705W        W45130  21.563  15.536   1.944
72706W        W45131   1.374  37.867  13.360
72707W        W45132  12.198  40.067   0.009
72708W        W45133  24.688  18.326  14.010
72709W        W45134  11.386   4.803   3.646
72710W        W45135  25.896  33.576  11.311
72711W        W45136  34.551  41.762   1.886
72712W        W45137  32.423  38.888  13.802
72713W        W45138  28.392  39.421   3.220
72714W        W45139   4.293   2.266   4.403
72715W        W45140  24.395   1.026   0.248
72716W        W45141  29.149  18.345   3.269
72717W        W45142  43.803   7.516   0.436
72718W        W45143  13.684  34.810  10.755
72719W        W45144  37.339  36.328   0.886
72720W        W45145  14.772  11.949  10.288
72721W        W45146  16.667   3.177   2.306
72722W        W45147  12.661  19.154  13.419
72723W        W45148   9.533  41.481   4.943
72724W        W45149  19.968  42.441  12.890
72725W        W45150   4.971  38.531   0.281
72726W        W45151  42.437  22.303   3.179
72727W        W45152  32.429  40.373  14.707
72728W        W45153  30.482  41.270   1.814
72729W        W45154  29.688  42.782   1.006
72730W        W45155  28.197  26.038   0.726
72731W        W45156  35.052  33.914   5.017
72732W        W45157  27.193  23.470  13.915
72733W        W45158   4.139  38.061  13.872
72734W        W45159  20.427  34.779  12.698
72735W        W45160  14.663  11.733   3.715
72736W        W45161  20.152  31.584  13.300
72737W        W45162  20.545   9.695  10.789
72738W        W45163  30.969  30.975  12.957
72739W        W45164  35.874  19.058  12.410
72740W        W45165  43.928  33.604   2.900
72741W        W45166  17.164  43.993   4.744
72742W        W45167  23.060   8.535  13.519
72743W        W45168  15.635  34.613   2.216
72744W        W45169  31.512  22.679   3.071
72745W        W45170   9.022   6.191  10.196
72746W        W45171   1.910   0.929  12.408
72747W        W45172  32.821   2.924  10.381
72748W        W45173   1.180  13.089   0.812
72749W        W45174  25.611  38.002  14.848
72750W        W45175  43.908  28.478  11.449
72751W        W45176  35.062   5.896   1.812
72752W        W45177  22.013   4.351  14.752
72753W        W45178   5.658  27.474  12.599
72754W        W45179  15.298  36.897  12.544
72755W        W45180  12.296  42.886  14.740
72756W        W45181  20.112  21.707   3.745
72757W        W45182  39.338  12.848  12.635
72758W        W45183   6.178  26.672  11.556
72759W        W45184  23.505  16.029  13.536
72760W        W45185   9.624  35.520  14.584
72761W        W45186  10.911  28.468  10.828
72762W        W45187  15.895  30.274   1.614
72763W        W45188  28.579  38.149   1.332
72764W        W45189  29.647  33.423   1.653
72765W        W45190   5.658  25.119  14.415
72766W        W45191  35.897  27.464   0.067
72767W        W45192   5.876  11.596  14.510
72768W        W45193   0.701  40.864  11.478
72769W        W45194  42.021  42.153  10.673
72770W        W45195  31.003   8.325   1.871
72771W        W45196  32.444  37.596  14.739
72772W        W45197  37.623  21.880  13.433
72773W        W45198   7.721  11.847   4.763
72774W        W45199  28.906   6.263   2.220
72775W        W45200  29.336   3.891   0.493
72776W        W45201  25.145   5.941   3.346
72777W        W45202   1.046  32.069  14.391
72778W        W45203  41.285  20.220  12.379
72779W        W45204   5.959  37.569  10.291
72780W        W45205  12.439  10.450   2.773
72781W        W45206  25.499  38.054   0.366
72782W        W45207  38.381  23.483   2.896
72783W        W45208   2.397  30.178  12.268
72784W        W45209  20.308  30.397   3.690
72785W        W45210  37.363  33.454  14.902
72786W        W45211   7.778  39.487   3.399
72787W        W45212   5.294   0.868   1.874
72788W        W45213   2.733  16.788  11.924
72789W        W45214  31.442  10.678  13.811
72790W        W45215   9.738  18.018  12.046
72791W        W45216  33.803   7.351   1.100
72792W        W45217  16.205  19.250   2.442
72793W        W45218  21.800   4.412   3.232
72794W        W45219   2.924  13.322   2.563
72795W        W45220   8.299   7.936   0.072
72796W        W45221  12.937   1.343  11.798
72797W        W45222  28.540  16.394   0.516
72798W        W45223  29.189  15.752  14.960
72799W        W45224  22.519   0.672   2.869
72800W        W45225  29.909  42.192   4.083
72801W        W45226  10.782  23.179  13.792
72802W        W45227  10.634  35.012  12.856
72803W        W45228  10.728  38.567   2.369
72804W        W45229  23.793   7.692  13.747
72805W        W45230  19.569   3.249   5.178
72806W        W45231  17.139   9.539  13.240
72807W        W45232  38.956  27.433  14.497
72808W        W45233  18.239   9.373  14.189
72809W        W45234  20.021  12.756  11.399
72810W        W45235  34.347  18.336  10.647
72811W        W45236   8.041  23.726  13.340
72812W        W45237  10.205  16.279   3.689
72813W        W45238  13.293  29.102  13.752
72814W        W45239   0.663  28.587   4.695
72815W        W45240   6.278  41.841   0.782
72816W        W45241  41.623   6.925   2.221
72817W        W45242  38.221  15.791  13.628
72818W        W45243   6.842   6.116  11.992
72819W        W45244   0.691  20.262  13.466
72820W        W45245  36.022  44.168   0.910
72821W        W45246   7.450  20.242   3.576
72822W        W45247  27.863   0.939  14.377
72823W        W45248  28.000   7.164  11.143
72824W        W45249  42.282   8.229   2.865
72825W        W45250  40.318   8.714  12.421
72826W        W45251  14.476  10.068   4.975
72827W        W45252  29.920  19.255   1.684
72828W        W45253  26.027  18.798  13.863
72829W        W45254   8.134  30.155   3.020
72830W        W45255  34.271   8.257   3.324
72831W        W45256  10.384  38.333   4.731
72832W        W45257  33.477   3.792  11.403
72833W        W45258   8.397  22.067  12.911
72834W        W45259  15.407  43.935  11.307
72835W        W45260  22.513  30.535  13.138
72836W        W45261   4.313  30.631   0.674
72837W        W45262   3.224   3.808  11.597
72838W        W45263  21.685  18.216  14.765
72839W        W45264   1.976   8.107   4.505
72840W        W45265   2.168  28.702   1.162
72841W        W45266  32.473  23.738   2.682
72842W        W45267   1.639  34.873  11.105
72843W        W45268  44.861  42.801   3.914
72844W        W45269  10.598  28.200   9.812
72845W        W45270   2.874  25.886  12.381
72846W        W45271  14.143  31.990  12.476
72847W        W45272   9.760  25.775  14.371
72848W        W45273  26.478  35.909   0.043
72849W        W45274  39.446   2.517  11.046
72850W        W45275  28.753  20.061  12.048
72851W        W45276  36.481   3.405  13.882
72852W        W45277  16.768   7.433   0.344
72853W        W45278  34.727   9.698   1.775
72854W        W45279  33.052  20.337   4.176
72855W        W45280  20.347  34.342  10.762
72856W        W45281  12.764  38.883  12.834
72857W        W45282  19.056  37.895   0.602
72858W        W45283   8.855  39.550   0.884
72859W        W45284  36.924  38.232  14.932
72860W        W45285  43.937  11.169  11.616
72861W        W45286   1.006  28.018   3.456
72862W        W45287  19.245  42.854  11.286
72863W        W45288  12.890  13.376   2.307
72864W        W45289  12.333   1.870   1.849
72865W        W45290  29.471  35.033  10.762
72866W        W45291  33.405  37.097  11.106
72867W        W45292  17.615  25.481  10.858
72868W        W45293  17.696   6.864   4.585
72869W        W45294  34.396  43.249  13.799
72870W        W45295  42.014   7.685   1.734
72871W        W45296  23.796  33.562  10.718
72872W        W45297  30.049   1.003   0.272
72873W        W45298  35.560  22.603   1.295
72874W        W45299  26.328  22.713  10.608
72875W        W45300  13.297   9.862   4.666
72876W        W45301  23.185   7.787  10.512
72877W        W45302   9.144  35.048  12.930
72878W        W45303   3.813  19.738  10.732
72879W        W45304  22.109   9.933   1.952
72880W        W45305  44.502   9.809   3.384
72881W        W45306  29.324  17.092   1.778
72882W        W45307  37.411  37.070   1.484
72883W        W45308  17.258  15.375  13.144
72884W        W45309   4.304  18.546   4.330
72885W        W45310  36.861   6.773   3.223
72886W        W45311   5.971  38.778   2.713
72887W        W45312  34.911  13.670   0.957
72888W        W45313  19.182   0.369   0.924
72889W        W45314  25.776  36.102   3.338
72890W        W45315  42.972  24.682   1.826
72891W        W45316   1.662  10.090   5.343
72892W        W45317  16.570   5.260  14.466
72893W        W45318   9.056  38.111  14.975
72894W        W45319  33.595  18.804   4.109
72895W        W45320   7.408  21.709   1.533
72896W        W45321   6.315  11.613   1.841
72897W        W45322   5.443  12.409   3.313
72898W        W45323  37.428   0.949   1.039
72899W        W45324  22.062  24.526   3.337
72900W        W45325  28.398  11.741  11.497
72901W        W45326   8.320  41.730  10.465
72902W        W45327  38.300  21.044  12.453
72903W        W45328   1.873  39.798   3.248
72904W        W45329  41.056  42.192   2.820
72905W        W45330   0.938  44.505   2.384
72906W        W45331  29.700  37.489   4.544
72907W        W45332  18.955   2.233   0.812
72908W        W45333  27.580  13.401  14.989
72909W        W45334  39.327  10.385   1.782
72910W        W45335  14.088  43.072   5.071
72911W        W45336   3.767   2.385  10.622
72912W        W45337   0.849   4.351  10.361
72913W        W45338   7.647  22.083   0.440
72914W        W45339  29.597   3.866   3.273
72915W        W45340   0.287  15.256   0.724
72916W        W45341  14.894  41.703  11.082
72917W        W45342  18.226   3.323  13.848
72918W        W45343  15.518   2.269  12.849
72919W        W45344   0.292  35.551  12.402
72920W        W45345  31.046  24.104  13.653
72921W        W45346  11.795  10.666   4.841
72922W        W45347  13.436  43.286   4.100
72923W        W45348  36.144  33.120   4.134
72924W        W45349  25.673   5.034   1.617
72925W        W45350  44.514   1.583   4.650
72926W        W45351  17.251   9.475  11.288
72927W        W45352  14.032  26.015   1.788
72928W        W45353  30.489  40.552   3.285
72929W        W45354  42.942  11.214  12.525
72930W        W45355  16.981   8.451   3.272
72931W        W45356   4.198   9.121   1.322
72932W        W45357  25.065  20.678  13.107
72933W        W45358  14.473  16.526   2.700
72934W        W45359  36.615  42.320   0.867
72935W        W45360   7.584  36.360  10.915
72936W        W45361  39.999  41.646   0.265
72937W        W45362  28.224  35.413   3.185
72938W        W45363  26.045   1.329   4.252
72939W        W45364  16.289  27.435   0.400
72940W        W45365  43.461  11.600  11.595
72941W        W45366   4.256  42.532  12.900
72942W        W45367   8.126  33.188   1.314
72943W        W45368   9.902  34.972   0.457
72944W        W45369  27.136   2.941  11.710
72945W        W45370  41.438  18.754  13.464
72946W        W45371  41.882   9.712   2.179
72947W        W45372  19.556  14.099  10.667
72948W        W45373  40.037  27.993   4.814
72949W        W45374  21.770  41.555   1.770
72950W        W45375  44.701  18.105  14.948
72951W        W45376  23.578  35.587   0.325
72952W        W45377  43.445   1.051   0.186
72953W        W45378  26.039  18.014  13.100
72954W        W45379  39.737   8.777  13.840
72955W        W45380  44.979  32.716  14.354
72956W        W45381  21.673  17.545  11.907
72957W        W45382   9.783  23.262   0.942
72958W        W45383  37.797   4.924  13.591
72959W        W45384   9.908  31.488   0.717
72960W        W45385  12.136   2.411   4.847
72961W        W45386  29.172  41.773  14.689
72962W        W45387  29.464   6.312   2.127
72963W        W45388  42.159  37.996   4.438
72964W        W45389   7.373  16.656  11.577
72965W        W45390  39.861  26.566   1.348
72966W        W45391  17.100  42.505  13.937
72967W        W45392  21.094  37.867   0.923
72968W        W45393  31.955  17.175  13.107
72969W        W45394   8.234  27.000   3.289
72970W        W45395  15.248  13.252  12.517
72971W        W45396  10.159  21.289   3.377
72972W        W45397  13.756  10.133   0.444
72973W        W45398  28.262   5.559   4.024
72974W        W45399  38.796  22.902  10.623
72975W        W45400  27.629  16.446   0.409
72976W        W45401  39.360  39.858   1.769
72977W        W45402  28.849   6.218  14.581
72978W        W45403   7.181  19.131   2.324
72979W        W45404  26.789  31.236  13.926
72980W        W45405  11.458   2.633   0.365
72981W        W45406  41.103  15.150   1.930
72982W        W45407  17.909  32.002  10.438
72983W        W45408  38.973   1.797   4.143
72984W        W45409  24.263   3.522  13.716
72985W        W45410   7.991  32.353  10.334
72986W        W45411  22.763  22.094   0.240
72987W        W45412   9.218  35.479   0.906
72988W        W45413  21.355   3.170   1.983
72989W        W45414  20.531  13.814  12.997
72990W        W45415  37.471  19.440   1.481
72991W        W45416  43.718  26.705   4.853
72992W        W45417  31.918   5.479  11.991
72993W        W45418   0.382  23.737   3.181
72994W        W45419   8.798  24.392  14.922
72995W        W45420   9.751  30.109   3.198
72996W        W45421   9.023   8.234  12.576
72997W        W45422  43.344  36.913   1.913
72998W        W45423  13.653  42.743  13.027
72999W        W45424   8.908  41.511   0.272
73000W        W45425   3.204  30.161   3.764
73001W        W45426  21.054   9.751   4.189
73002W        W45427  41.561   6.600  12.516
73003W        W45428  28.679  37.867   0.393
73004W        W45429  28.375  13.666  12.658
73005W        W45430  29.936  40.513  11.128
73006W        W45431   6.142  22.629   5.001
73007W        W45432  32.624   7.447  12.811
73008W        W45433  11.904  20.848  12.387
73009W        W45434  13.707  10.791  14.862
73010W        W45435   0.431  22.781  14.998
73011W        W45436   1.588  40.519  11.378
73012W        W45437  40.071   0.787  10.196
73013W        W45438  35.115  32.847  12.053
73014W        W45439  29.555  18.677  11.176
73015W        W45440   3.159  18.705   1.550
73016W        W45441  41.397  44.626  12.938
73017W        W45442  44.477  40.689   3.546
73018W        W45443  25.013   3.720  10.937
73019W        W45444  40.775  36.990  14.662
73020W        W45445   3.154  24.106   2.788
73021W        W45446   5.630  33.948   1.281
73022W        W45447   8.997  15.579   1.854
73023W        W45448  43.996  24.773  13.605
73024W        W45449  29.671  41.950   4.535
73025W        W45450  33.544  43.975  14.772
73026W        W45451  21.778   8.782  11.578
73027W        W45452  36.784  27.661   0.629
73028W        W45453   4.423  41.977  14.541
73029W        W45454  20.673  44.572   2.422
73030W        W45455  32.959   3.688  11.894
73031W        W45456  41.382  15.252   4.622
73032W        W45457  39.756  12.073   4.166
73033W        W45458  26.265   1.797   0.303
73034W        W45459  20.915  22.923  14.842
73035W        W45460  10.799  31.438  13.810
73036W        W45461  11.889  33.545   4.649
73037W        W45462  31.523   7.228   1.311
73038W        W45463  22.621   0.413   3.326
73039W        W45464   0.408   4.729   4.620
73040W        W45465  19.980  33.906  14.223
73041W        W45466  18.128  32.366   3.257
73042W        W45467  30.573   2.894   0.301
73043W        W45468   7.126  29.524   3.266
73044W        W45469  34.898  43.529  12.548
73045W        W45470  21.569  15.841   4.799
73046W        W45471  27.363  25.026   5.128
73047W        W45472   5.495  28.698  13.088
73048W        W45473  39.229  22.148   4.003
73049W        W45474  26.595   0.887   1.981
73050W        W45475  19.223  42.459  14.261
73051W        W45476  32.148  29.079   3.297
73052W        W45477  37.557  23.248   0.271
73053W        W45478  21.782   3.233   1.485
73054W        W45479  10.859   5.818  14.699
73055W        W45480  24.676  40.649  11.526
73056W        W45481  44.253  32.863   3.762
73057W        W45482  44.772   8.864   0.701
73058W        W45483  42.878  36.927  10.576
73059W        W45484  38.453  14.194   4.269
73060W        W45485  10.539  28.114  10.673
73061W        W45486  12.295   5.996  13.811
73062W        W45487  24.566  15.470  14.809
73063W        W45488  35.309  44.493   4.072
73064W        W45489  25.541   8.306   0.804
73065W        W45490  33.205   7.257  12.380
73066W        W45491   7.642   8.412  13.901
73067W        W45492  21.030  19.098   1.259
73068W        W45493  30.607  18.952   1.857
73069W        W45494   9.360  31.481   3.878
73070W        W45495  24.743  39.344   0.378
73071W        W45496  23.704   4.208  13.513
73072W        W45497  32.477  43.386   0.840
73073W        W45498  38.707  15.359  13.320
73074W        W45499   1.557  31.280  13.018
73075W        W45500  41.497  31.199  13.082
73076W        W45501  13.193  43.081   1.792
73077W        W45502  31.420  23.204   3.847
73078W        W45503  27.614   4.478   4.540
73079W        W45504   7.180  13.533  12.614
73080W        W45505   7.955  29.712  13.461
73081W        W45506  25.173  34.791  10.944
73082W        W45507  14.294  14.266   0.699
73083W        W45508   0.445  39.529  10.584
73084W        W45509   6.529  22.592  12.005
73085W        W45510   2.370  23.692  13.931
73086W        W45511  21.149  10.330  11.050
73087W        W45512  17.260  24.745  11.564
73088W        W45513  11.076   6.132   1.665
73089W        W45514  13.355   4.761  13.503
73090W        W45515  30.616  43.523   4.031
73091W        W45516  33.042  34.608  10.475
73092W        W45517  40.543  13.435   4.479
73093W        W45518  36.458   9.685   4.831
73094W        W45519   3.792  17.150  14.301
73095W        W45520  18.646   3.491   5.485
73096W        W45521   7.372   2.290   2.830
73097W        W45522  12.183  29.162  11.091
73098W        W45523  34.625   6.902   1.901
73099W        W45524  44.261  23.091  13.804
73100W        W45525  13.056  36.368  11.477
73101W        W45526  38.352  37.920  14.037
73102W        W45527  37.300  20.046  14.783
73103W        W45528  30.773  28.402   0.436
73104W        W45529  27.554  20.529   1.416
73105W        W45530   3.847  38.328  10.875
73106W        W45531   3.279  14.381   1.303
73107W        W45532  37.408  27.591  12.895
73108W        W45533  23.033  14.847  13.525
73109W        W45534   0.649  26.992   1.755
73110W        W45535  23.571   8.705   2.301
73111W        W45536  26.575   5.826  10.942
73112W        W45537  44.223   4.493   3.827
73113W        W45538   0.887  33.136   0.561
73114W        W45539  35.004   4.428   4.060
73115W        W45540   0.732  34.400   1.312
73116W        W45541  43.181   3.863  14.890
73117W        W45542   3.112  24.649  13.435
73118W        W45543  12.927  33.375  14.772
73119W        W45544  44.006  42.385  14.467
73120W        W45545  44.969  20.953  14.974
73121W        W45546  24.705  12.734   1.852
73122W        W45547  38.833  16.644  13.528
73123W        W45548  36.130  42.498  11.606
73124W        W45549  35.806  14.516   4.195
73125W        W45550  11.218  30.095  14.681
73126W        W45551  29.574  24.019  13.757
73127W        W45552  40.889  21.792   0.238
73128W        W45553  43.205  31.921   4.382
73129W        W45554  37.320  30.421   0.555
73130W        W45555  18.535   5.360  11.554
73131W        W45556   0.705  18.787   1.429
73132W        W45557   3.323  33.271   9.983
73133W        W45558  30.149  24.248  14.108
73134W        W45559   1.824  33.970   3.640
73135W        W45560  30.510  21.204   0.222
73136W        W45561  26.457  31.164  13.555
73137W        W45562   0.292  35.633  13.453
73138W        W45563  32.511  27.126  10.966
73139W        W45564  36.305   7.511  10.245
73140W        W45565  17.039   8.614  13.308
73141W        W45566  41.399  28.376   1.928
73142W        W45567  12.532  38.129   0.659
73143W        W45568  21.160  17.054   2.409
73144W        W45569  18.117  25.938   3.670
73145W        W45570  17.062  39.805   3.687
73146W        W45571  34.768  19.523  12.381
73147W        W45572  35.408   3.243  12.596
73148W        W45573   7.307  26.002  11.448
73149W        W45574  13.844  30.282   2.429
73150W        W45575  26.853  39.718   1.603
73151W        W45576  33.335  18.784  11.459
73152W        W45577  20.606  33.318   0.355
73153W        W45578  14.877  37.834   3.264
73154W        W45579  22.002  36.314  11.197
73155W        W45580  27.188  28.084   2.820
73156W        W45581  41.484  30.950  12.627
73157W        W45582  43.226  22.334  14.442
73158W        W45583  10.893  37.802  11.106
73159W        W45584  18.120  21.662  10.711
73160W        W45585  11.582  41.987   4.113
73161W        W45586  34.652  32.884  14.322
73162W        W45587   0.877  37.128   1.416
73163W        W45588  18.640  19.715  14.393
73164W        W45589  19.908  30.096   9.657
73165W        W45590  24.115  22.841  14.042
73166W        W45591  18.476  21.418   0.608
73167W        W45592  34.962  33.087  12.501
73168W        W45593  37.057  13.557   0.307
73169W        W45594  27.362  20.144   2.264
73170W        W45595  37.984  19.323   0.956
73171W        W45596  35.739  27.918   4.398
73172W        W45597  16.326  43.557  14.831
73173W        W45598   7.959  26.514  10.209
73174W        W45599  22.225  22.754   4.904
73175W        W45600  27.356   1.181  10.546
73176W        W45601  33.508  38.877   5.431
73177W        W45602  43.497  20.700  12.124
73178W        W45603  40.041  17.171   1.904
73179W        W45604  22.005   7.574  13.105
73180W        W45605   4.738  28.246   4.218
73181W        W45606  18.741  15.206   1.671
73182W        W45607  20.426  16.708  12.818
73183W        W45608  37.461  35.045   4.635
73184W        W45609  15.639  19.196   4.632
73185W        W45610  37.385  20.177   4.602
73186W        W45611  38.318   8.159   4.547
73187W        W45612  13.614  38.502  10.999
73188W        W45613  27.165  25.914   0.864
73189W        W45614  27.643  42.716   3.220
73190W        W45615  15.806  20.959  11.025
73191W        W45616  32.328  41.537  14.032
73192W        W45617  19.731  41.908   2.385
73193W        W45618  14.408  35.406   3.146
73194W        W45619   9.063   5.420   0.731
73195W        W45620   9.737  35.177  11.666
73196W        W45621   1.321  27.258  13.562
73197W        W45622  16.791  30.839  12.477
73198W        W45623  39.809   0.840   3.770
73199W        W45624  13.287   5.296   3.738
73200W        W45625   3.201  40.656  12.871
73201W        W45626   4.678  22.717  11.643
73202W        W45627  25.008  39.066  13.456
73203W        W45628  38.073  14.775   3.041
73204W        W45629  11.058  23.336  10.170
73205W        W45630  36.073  35.576   4.815
73206W        W45631  16.644   5.694  11.003
73207W        W45632  44.028  42.911  12.481
73208W        W45633   8.254  22.907  11.502
73209W        W45634   2.609  13.849   0.932
73210W        W45635  44.985  19.136  10.739
73211W        W45636  29.185  33.427   1.869
73212W        W45637  15.494  43.439   0.950
73213W        W45638  26.684  13.602   1.739
73214W        W45639  12.765   8.278   4.040
73215W        W45640  21.717   4.226   2.356
73216W        W45641  10.965  16.451  12.448
73217W        W45642  29.466  14.743  10.697
73218W        W45643  30.404  18.635  12.161
73219W        W45644  30.118  27.535   2.693
73220W        W45645  42.223  40.063   2.288
73221W        W45646   1.224  41.392   0.398
73222W        W45647  21.593  38.651   2.518
73223W        W45648  41.009  42.796   0.233
73224W        W45649  32.436  44.857  14.812
73225W        W45650  10.201  38.780   0.700
73226W        W45651  13.590  22.803  11.791
73227W        W45652  41.381   5.257  12.773
73228W        W45653  19.487  33.291  14.765
73229W        W45654  43.814   6.407   1.970
73230W        W45655  34.365  31.123  13.999
73231W        W45656   7.500  25.722   1.897
73232W        W45657  24.583  11.875   0.362
73233W        W45658  34.263  40.513   3.848
73234W        W45659  26.188   4.287  11.408
73235W        W45660   4.386  14.782   1.738
73236W        W45661  13.792   1.710  14.729
73237W        W45662   3.756  12.516   2.161
73238W        W45663  41.035  13.635  12.394
73239W        W45664  15.520  11.166  14.734
73240W        W45665  32.453  29.527   1.171
73241W        W45666  30.062  24.766  14.790
73242W        W45667  43.974  27.929  12.144
73243W        W45668  11.117  31.245   3.732
73244W        W45669  16.630  44.349  14.043
73245W        W45670  23.264  36.542  12.494
73246W        W45671  28.118  32.995   9.528
73247W        W45672  39.505  31.475  11.252
73248W        W45673   9.440   6.008   3.690
73249W        W45674  22.587  23.471   1.755
73250W        W45675   9.423  14.217  14.434
73251W        W45676   3.995  26.227  13.924
73252W        W45677   7.347  16.113  12.453
73253W        W45678  18.388   8.609   3.388
73254W        W45679  23.204   7.788  14.876
73255W        W45680  11.248   6.986  11.082
73256W        W45681  25.438  35.272   3.585
73257W        W45682  24.643   8.579  12.536
73258W        W45683   2.175  28.184  13.512
73259W        W45684  30.092  33.629  13.867
73260W        W45685   1.857  35.355  13.365
73261W        W45686  25.906   0.252  11.968
73262W        W45687  14.594   3.645   4.251
73263W        W45688  42.360  16.842  11.487
73264W        W45689  26.676  31.807  14.565
73265W        W45690  20.838  24.863   3.104
73266W        W45691  17.032  26.420  12.065
73267W        W45692  25.227  43.466   4.376
73268W        W45693   3.434   8.850   4.163
73269W        W45694  18.673  21.283  14.226
73270W        W45695  20.082  35.325  14.461
73271W        W45696  18.819   7.877  12.061
73272W        W45697  32.073   6.216  14.853
73273W        W45698  17.225  13.504  13.932
73274W        W45699  27.889  32.987   4.760
73275W        W45700  36.778  34.643  12.552
73276W        W45701   4.175  17.054  13.953
73277W        W45702  21.051  15.840   3.131
73278W        W45703   6.832  40.394   1.480
73279W        W45704  35.939  16.712  12.134
73280W        W45705  14.446  11.209  14.452
73281W        W45706   0.740  39.157  12.183
73282W        W45707  33.093  20.630   4.690
73283W        W45708  10.504  29.246  10.977
73284W        W45709   5.246  35.787  11.200
73285W        W45710  27.682  34.866   0.336
73286W        W45711  27.638   5.724   2.801
73287W        W45712  43.288  20.461   2.856
73288W        W45713  35.657  39.542  11.970
73289W        W45714  13.588  21.629   9.781
73290W        W45715  33.048  41.608  10.449
73291W        W45716  41.424   1.438  12.862
73292W        W45717  16.380  15.356   1.270
73293W        W45718  30.919   9.611  13.915
73294W        W45719   8.810  10.369  11.956
73295W        W45720   9.529   7.172   0.979
73296W        W45721  41.412   3.726  12.444
73297W        W45722  32.207  15.650   1.669
73298W        W45723  41.590  12.811   4.141
73299W        W45724  20.142  23.312   1.001
73300W        W45725  30.039   2.362   4.691
73301W        W45726  35.600  29.602  14.006
73302W        W45727  19.684   9.647  12.902
73303W        W45728  23.098  40.267   1.991
73304W        W45729   6.216  11.115  11.150
73305W        W45730  14.735  41.757   0.938
73306W        W45731  31.462  31.365  14.994
73307W        W45732  19.983  38.422  11.065
73308W        W45733   2.683  12.355  11.317
73309W        W45734  26.050  37.919  12.473
73310W        W45735  33.545   1.775   3.702
73311W        W45736  41.219  29.036   1.180
73312W        W45737  23.927  40.279  14.892
73313W        W45738  14.672  26.243   1.156
73314W        W45739  37.476  33.398  11.481
73315W        W45740   5.745  28.165  11.209
73316W        W45741  14.790   1.482   1.803
73317W        W45742  21.999   3.700   1.544
73318W        W45743   8.209  23.190  14.038
73319W        W45744  22.091  27.528   0.721
73320W        W45745  42.919  21.042   3.438
73321W        W45746  14.189   6.368  13.803
73322W        W45747   3.401   7.317  10.682
73323W        W45748  37.796   5.257  12.159
73324W        W45749  13.890  23.130   0.879
73325W        W45750  29.736  34.071  11.923
73326W        W45751  18.066  42.014   0.640
73327W        W45752  20.089  15.112   4.079
73328W        W45753   2.735  33.878  13.543
73329W        W45754  25.070  40.968   4.474
73330W        W45755  39.614  22.060  12.141
73331W        W45756  17.104  23.107   4.871
73332W        W45757  12.298  38.601   3.692
73333W        W45758  21.228  25.228   1.003
73334W        W45759  42.395  29.426  14.869
73335W        W45760  10.116   1.963  12.887
73336W        W45761  15.871   7.853   5.082
73337W        W45762  21.776  10.910  12.051
73338W        W45763  10.694  28.920  13.633
73339W        W45764  18.128  35.463  11.357
73340W        W45765  29.199  33.190   2.370
73341W        W45766  11.650  13.965  10.871
73342W        W45767  26.077  24.979  10.495
73343W        W45768   2.437   2.256  14.709
73344W        W45769  17.700  27.729   1.959
73345W        W45770  16.040  11.709  12.399
73346W        W45771  31.027   5.374   2.849
73347W        W45772  28.429   5.290   1.176
73348W        W45773  34.825  10.061   2.699
73349W        W45774  18.308  25.053  12.499
73350W        W45775  18.325  36.975   3.752
73351W        W45776   9.179  17.985   0.621
73352W        W45777  30.079  13.134  14.796
73353W        W45778   0.890  27.213  10.659
73354W        W45779  43.876  22.514   2.720
73355W        W45780   1.421  38.294   2.916
73356W        W45781  30.354  13.300   2.288
73357W        W45782   4.758  35.476  13.047
73358W        W45783   2.848  42.735   2.450
73359W        W45784  26.791  43.693  11.716
73360W        W45785  20.698  12.161   4.177
73361W        W45786  32.708  18.276  10.097
73362W        W45787  34.633   0.525   4.023
73363W        W45788  13.726   3.432  11.102
73364W        W45789   9.486   7.836  11.167
73365W        W45790  20.019  15.263  10.730
73366W        W45791  15.316   0.503  12.485
73367W        W45792  44.329   8.892  10.529
73368W        W45793  22.161   0.662  11.548
73369W        W45794  11.685  21.045  13.655
73370W        W45795  13.297  33.618   3.762
73371W        W45796  24.774   1.789   3.776
73372W        W45797  18.125   5.425   2.294
73373W        W45798   1.293  34.952   2.373
73374W        W45799  22.726   0.398   0.916
73375W        W45800   7.654  43.007  11.604
73376W        W45801  39.760  17.338  14.457
73377W        W45802  26.163   8.832  11.061
73378W        W45803  16.714   4.829   1.955
73379W        W45804  32.594  36.582   0.203
73380W        W45805  41.050  22.401   0.521
73381W        W45806  29.841  29.217  13.570
73382W        W45807  16.722  30.411   4.075
73383W        W45808  29.835  43.330   2.354
73384W        W45809  40.552  32.150  11.128
73385W        W45810  29.080  43.313   1.637
73386W        W45811  26.946   8.691   0.777
73387W        W45812  13.820  35.281  11.983
73388W        W45813  37.312   0.538   3.159
73389W        W45814   5.410  30.357  12.496
73390W        W45815  12.084  31.865   4.623
73391W        W45816  23.552  24.997  13.806
73392W        W45817  37.484  31.759  10.401
73393W        W45818  29.940  17.499   0.981
73394W        W45819   4.866  30.632   2.856
73395W        W45820   6.431   9.891  12.372
73396W        W45821  27.468  18.943  14.237
73397W        W45822  30.517  30.835  14.586
73398W        W45823  24.749  32.563  11.940
73399W        W45824  38.186  23.901   4.222
73400W        W45825   2.892  18.723  12.024
73401W        W45826  43.795  31.933   1.550
73402W        W45827  28.345   7.192   4.603
73403W        W45828  44.840  15.421  14.486
73404W        W45829   6.982  42.059  13.751
73405W        W45830   4.386   9.009  14.327
73406W        W45831  18.964  41.359   2.408
73407W        W45832  15.264  17.666  11.151
73408W        W45833   6.711  18.892   1.396
73409W        W45834  13.824  43.889  11.200
73410W        W45835  10.920  24.140   1.963
73411W        W45836  21.030   6.313   3.781
73412W        W45837  36.151  25.746   3.845
73413W        W45838  26.343  26.691  14.380
73414W        W45839  44.377  10.846   1.508
73415W        W45840  39.855  17.594  11.337
73416W        W45841  29.162   8.475   2.292
73417W        W45842   2.700  26.486  11.652
73418W        W45843  28.382  35.337  12.989
73419W        W45844  40.128  17.623  10.384
73420W        W45845  37.014  40.043   3.236
73421W        W45846   9.817  27.033   3.884
73422W        W45847   4.494  38.847  14.943
73423W        W45848  11.288  12.086   3.820
73424W        W45849   6.325  25.842  10.791
73425W        W45850  32.140  15.610   3.244
73426W        W45851  44.536  24.514   0.773
73427W        W45852  13.367   5.204   1.798
73428W        W45853   7.762  11.728  13.261
73429W        W45854   6.413   6.877   1.429
73430W        W45855  36.510  11.214   1.560
73431W        W45856  17.667  34.560   2.895
73432W        W45857  24.044  43.016   0.461
73433W        W45858  22.702  14.083   0.776
73434W        W45859  41.448  26.717  14.426
73435W        W45860  31.072  39.249  10.941
73436W        W45861  11.255  44.553   3.642
73437W        W45862  12.691  32.937   3.687
73438W        W45863  12.743  21.439   0.905
73439W        W45864  44.348  38.276   1.863
73440W        W45865  17.069  17.233   2.137
73441W        W45866  19.460  23.131  10.411
73442W        W45867  10.237  32.096  10.178
73443W        W45868  34.080  38.843   4.042
73444W        W45869  13.812   1.230   4.040
73445W        W45870  24.724  41.313   3.245
73446W        W45871  38.411   1.226  13.913
73447W        W45872   8.082  26.599   5.085
73448W        W45873  32.019  12.314  12.844
73449W        W45874  28.455   3.753  12.929
73450W        W45875   3.423   9.085   0.456
73451W        W45876  22.232  35.980   4.070
73452W        W45877  11.361  16.587   2.821
73453W        W45878   4.469  32.476  11.535
73454W        W45879  42.275  21.444  10.344
73455W        W45880   1.700  34.917   0.531
73456W        W45881  33.085   5.122   0.276
73457W        W45882  13.187  23.031  11.565
73458W        W45883  28.563  36.609  12.064
73459W        W45884  10.350  27.384  11.583
73460W        W45885  31.047  14.034   1.333
73461W        W45886  29.905  21.402  11.402
73462W        W45887  44.550   2.312  11.540
73463W        W45888  42.819  32.916  11.985
73464W        W45889  11.372   1.954  14.291
73465W        W45890  16.751   5.715  11.546
73466W        W45891   5.029  40.371   2.340
73467W        W45892  14.704  38.464   3.990
73468W        W45893  35.502  30.741  11.405
73469W        W45894  43.648  10.369  13.658
73470W        W45895   6.901  22.039  14.878
73471W        W45896  31.540  33.920   3.665
73472W        W45897  18.592  22.012  13.848
73473W        W45898  40.448   3.959   4.391
73474W        W45899  39.464   4.671  12.430
73475W        W45900   8.762  33.690  12.432
73476W        W45901  11.551  30.502  14.562
73477W        W45902  27.915  14.052   4.845
73478W        W45903  37.402  12.454   2.318
73479W        W45904  12.697  12.644   3.881
73480W        W45905  21.115  41.780  13.168
73481W        W45906   2.065  23.185  12.886
73482W        W45907   6.287   8.840   0.718
73483W        W45908  27.469  43.719  13.410
73484W        W45909   3.615  14.640  12.131
73485W        W45910  38.143   1.552   2.688
73486W        W45911  13.430   2.600  12.342
73487W        W45912   5.373  17.327  14.358
73488W        W45913  37.722   4.923   4.053
73489W        W45914  22.973  40.913   1.302
73490W        W45915   0.855   0.439  11.969
73491W        W45916  35.911  36.360   0.156
73492W        W45917  16.020  23.147   3.632
73493W        W45918   8.338  15.711   3.634
73494W        W45919  35.035  44.888  10.857
73495W        W45920   1.680  21.259  12.048
73496W        W45921  29.602  29.722  11.577
73497W        W45922  33.605   7.234  10.053
73498W        W45923   1.945  43.007  14.800
73499W        W45924  30.160  16.602  13.539
73500W        W45925   6.068  31.037   0.102
73501W        W45926   5.751  12.719   2.054
73502W        W45927  43.278  25.104   4.206
73503W        W45928  14.479  33.361   1.802
73504W        W45929  29.608  37.599  14.499
73505W        W45930   4.511  36.746  11.518
73506W        W45931  21.794   5.670  12.976
73507W        W45932  44.361  28.960   1.774
73508W        W45933  25.573  21.212   1.251
73509W        W45934  21.805   9.831   3.641
73510W        W45935  27.539  42.265  11.546
73511W        W45936  11.847   8.889  11.585
73512W        W45937  42.390  23.432  12.934
73513W        W45938  12.895  26.077  14.078
73514W        W45939  17.091  15.831  12.121
73515W        W45940  33.005  17.001  11.480
73516W        W45941  23.104  14.412   0.934
73517W        W45942  31.872  19.842   2.813
73518W        W45943  27.304   2.697  14.446
73519W        W45944  14.034   3.045  11.143
73520W        W45945  35.066   6.887   4.825
73521W        W45946  21.156  38.477   1.770
73522W        W45947   3.353  39.503  10.499
73523W        W45948  30.289   8.867  11.254
73524W        W45949  20.331  13.349   3.755
73525W        W45950   7.856  37.949   4.977
73526W        W45951  25.074  12.018  11.503
73527W        W45952  41.028   4.094   3.353
73528W        W45953  44.928  23.093   0.780
73529W        W45954  13.619  26.624  10.178
73530W        W45955  35.569  15.875   3.224
73531W        W45956  18.703  21.443   2.655
73532W        W45957  40.669  44.738  14.232
73533W        W45958  11.910  33.150   0.642
73534W        W45959   4.203  44.593  11.160
73535W        W45960  32.656  10.718  11.639
73536W        W45961   6.311  25.192  10.722
73537W        W45962  30.323  33.565   0.295
73538W        W45963  37.410   2.086   2.174
73539W        W45964   6.619  23.063   3.152
73540W        W45965  27.180  43.015   3.233
73541W        W45966  24.061  37.606   1.727
73542W        W45967   1.643   5.348   3.393
73543W        W45968   8.090  19.060   2.282
73544W        W45969  21.644  24.762  12.376
73545W        W45970  13.229  40.595   4.619
73546W        W45971  44.611  44.803  13.090
73547W        W45972  31.641  15.347   0.203
73548W        W45973  36.964  43.489  14.661
73549W        W45974  32.810  30.478   0.780
73550W        W45975  15.626  22.564  11.353
73551W        W45976  40.332  13.639  13.976
73552W        W45977  16.786   2.979  14.820
73553W        W45978  25.997   1.317   1.855
73554W        W45979   2.836  43.297  14.423
73555W        W45980  35.491  42.453   4.255
73556W        W45981   7.334  11.399  13.449
73557W        W45982   1.732   0.163  14.485
73558W        W45983  20.249  20.289   1.612
73559W        W45984  31.919  13.189   0.809
73560W        W45985  36.677  29.996  11.992
73561W        W45986  37.008   7.030  13.940
73562W        W45987  22.364  36.113  11.561
73563W        W45988  30.750  39.276   4.340
73564W        W45989  43.515  20.020  13.712
73565W        W45990  22.704   4.637   0.275
73566W        W45991  36.514   8.468  13.529
73567W        W45992   0.992   5.896  10.624
73568W        W45993  10.777  22.997   0.360
73569W        W45994  12.117  17.332   3.753
73570W        W45995  43.013  40.410   2.356
73571W        W45996   1.877  23.246   3.356
73572W        W45997   3.282  14.120   3.458
73573W        W45998  12.703   1.029   1.319
73574W        W45999  44.403  11.683  12.104
73575W        W46000  39.102  10.755  12.391
73576W        W46001  30.318   7.834   1.932
73577W        W46002  43.963  24.640   4.256
73578W        W46003  12.112  12.237   2.386
73579W        W46004  17.662  31.577   4.058
73580W        W46005  40.713   9.149   3.311
73581W        W46006   9.660  30.722   2.883
73582W        W46007  13.859  42.990  11.071
73583W        W46008  19.993   5.797   1.587
73584W        W46009   3.960   4.722   3.244
73585W        W46010  18.586  28.965   3.613
73586W        W46011  13.684  43.341   4.562
73587W        W46012  38.856  21.203  11.731
73588W        W46013  41.425  31.199  13.995
73589W        W46014  15.758  15.586  13.370
73590W        W46015  41.499   0.108  14.700
73591W        W46016   6.338   0.331   2.820
73592W        W46017  30.620  24.129   3.646
73593W        W46018   8.289  44.142  14.321
73594W        W46019  13.594  18.150  14.277
73595W        W46020  41.418  12.751  13.279
73596W        W46021  34.849   7.853   3.160
73597W        W46022   3.632  22.060   1.363
73598W        W46023  14.498  19.741  11.138
73599W        W46024  25.183  28.373  10.726
73600W        W46025  32.463  18.654   4.678
73601W        W46026   3.128  25.164  13.356
73602W        W46027   3.988  34.419  11.130
73603W        W46028  14.076  10.097  11.079
73604W        W46029  31.098  18.203   2.341
73605W        W46030  29.855   0.975  12.803
73606W        W46031  11.602   8.935  11.095
73607W        W46032  29.583   3.424  14.591
73608W        W46033   6.420  35.894   2.355
73609W        W46034  18.083  29.642   0.298
73610W        W46035  35.353  44.445   3.291
73611W        W46036  13.675  28.970   3.160
73612W        W46037  39.211  29.152  14.566
73613W        W46038  10.359  23.550   5.213
73614W        W46039  38.228  16.155   4.101
73615W        W46040  20.984   2.206  14.126
73616W        W46041  15.355  37.643  14.065
73617W        W46042  38.426  28.048   4.158
73618W        W46043  38.344  35.599   4.821
73619W        W46044  21.045  29.149   2.179
73620W        W46045   4.848  36.154  11.122
73621W        W46046  20.711  33.951  11.799
73622W        W46047  33.868  37.637   1.311
73623W        W46048   6.527  17.011   1.924
73624W        W46049  29.672  27.279   1.819
73625W        W46050   5.528  18.456   4.546
73626W        W46051  14.722  29.348   3.194
73627W        W46052  15.344   2.754  12.925
73628W        W46053  18.450  40.874   2.633
73629W        W46054   1.939  24.631   1.284
73630W        W46055   8.289  40.077   1.930
73631W        W46056  18.024  32.094  12.611
73632W        W46057  26.592  29.441   2.391
73633W        W46058   6.256   0.658   0.050
73634W        W46059  22.694   2.922  10.733
73635W        W46060   0.560  26.846  14.585
73636W        W46061   9.760  39.500  11.027
73637W        W46062  38.480  18.634   4.831
73638W        W46063  19.767  13.686   3.219
73639W        W46064  41.838  15.267  13.370
73640W        W46065  19.426  39.005   1.918
73641W        W46066  21.287  36.590   2.639
73642W        W46067  13.181  18.015   3.735
73643W        W46068  28.197  29.786  14.460
73644W        W46069  17.542   4.833   1.697
73645W        W46070   1.683   2.728  14.951
73646W        W46071   0.314  42.989  12.912
73647W        W46072  38.363  36.179   4.838
73648W        W46073  16.057  44.426   1.982
73649W        W46074   5.266  41.961   0.847
73650W        W46075  18.253   6.880   4.619
73651W        W46076   7.056  13.716  12.134
73652W        W46077   6.928  36.486   4.226
73653W        W46078  40.942  40.955  10.588
73654W        W46079  25.213   2.685   1.361
73655W        W46080  20.736  42.982  13.101
73656W        W46081  25.545  42.407  10.701
73657W        W46082  16.548  23.703  13.029
73658W        W46083  22.738  15.676  14.403
73659W        W46084  44.987  28.003  11.900
73660W        W46085   2.397   8.738   2.293
73661W        W46086   2.201  27.631  14.787
73662W        W46087  25.154  12.482   4.580
73663W        W46088  21.236   5.503   0.272
73664W        W46089   0.398   7.439   3.666
73665W        W46090  33.350   0.019   0.532
73666W        W46091  15.439   4.369  14.741
73667W        W46092  25.981   5.546  12.928
73668W        W46093  37.037  43.299  13.090
73669W        W46094  27.680  43.585   4.153
73670W        W46095  22.108  24.686   0.942
73671W        W46096   5.390  11.690  11.587
73672W        W46097  20.911  10.385   1.326
73673W        W46098  23.152  39.058   1.250
73674W        W46099  17.597   7.615   2.205
73675W        W46100  18.318   9.878  11.180
73676W        W46101  25.182  27.165   2.753
73677W        W46102  18.084  25.436   2.808
73678W        W46103  16.061  15.797   4.312
73679W        W46104  32.603  24.299   3.685
73680W        W46105  13.793  30.347  11.284
73681W        W46106  27.082  12.869  14.560
73682W        W46107   3.973   6.228   1.376
73683W        W46108  40.574  30.849  14.437
73684W        W46109  17.998  31.560  12.564
73685W        W46110  19.249  26.093  10.812
73686W        W46111  17.889  34.472  12.522
73687W        W46112   3.772  18.827   1.322
73688W        W46113  15.147  29.214   1.417
73689W        W46114   6.705   1.553   2.044
73690W        W46115  38.057  33.581   2.198
73691W        W46116  11.165  13.780   0.053
73692W        W46117   2.431  35.415  11.049
73693W        W46118  12.138   6.690   3.783
73694W        W46119  20.230  39.016  14.555
73695W        W46120  25.822  26.627   5.270
73696W        W46121  16.046  10.885  10.464
73697W        W46122  12.460   9.388   0.344
73698W        W46123   2.217  20.710  14.818
73699W        W46124   6.169  24.211  10.767
73700W        W46125   2.853  22.753  12.556
73701W        W46126  31.075  27.818  10.229
73702W        W46127  19.036  25.533  10.635
73703W        W46128   1.299  35.885   4.620
73704W        W46129  40.456   7.699   2.147
73705W        W46130  35.540  15.148  12.643
73706W        W46131  22.777  11.235  11.031
73707W        W46132  41.217   0.913  14.522
73708W        W46133  35.082  41.937   0.162
73709W        W46134  28.448  13.617  11.356
73710W        W46135  29.913   0.913   4.601
73711W        W46136  27.063  12.624   0.049
73712W        W46137   1.674   7.410   1.614
73713W        W46138  37.555  14.073  13.067
73714W        W46139  16.500   8.696   5.002
73715W        W46140   0.762  11.218  10.513
73716W        W46141  37.392  33.885  14.406
73717W        W46142  26.672  21.586   0.689
73718W        W46143  30.385  21.272   3.645
73719W        W46144  11.926  43.936  12.029
73720W        W46145  28.226  33.570   0.068
73721W        W46146  17.733   1.771   1.905
73722W        W46147  31.525   9.247  11.674
73723W        W46148  28.479  28.198  14.831
73724W        W46149  41.368  32.041  11.537
73725W        W46150  22.682  10.743   2.760
73726W        W46151  31.877   9.764   0.238
73727W        W46152  35.815   2.463  11.462
73728W        W46153  41.191  16.949   2.341
73729W        W46154  43.169  38.842   0.360
73730W        W46155   7.366   8.423  10.069
73731W        W46156  21.060  42.835  14.325
73732W        W46157  26.996  34.183  13.069
73733W        W46158   9.888  13.704   4.193
73734W        W46159  24.173  23.929   2.807
73735W        W46160  37.539   6.926   1.938
73736W        W46161  32.525  13.792   4.201
73737W        W46162  37.959  11.971  13.410
73738W        W46163  18.447  40.278  12.147
73739W        W46164  27.436  18.887   1.786
73740W        W46165  30.635  12.562   4.470
73741W        W46166  20.146  19.784  12.126
73742W        W46167  37.820  24.055   0.306
73743W        W46168  24.010  20.742  14.600
73744W        W46169   3.640  36.681   2.212
73745W        W46170  35.954  39.970   4.914
73746W        W46171  17.617  29.096   3.808
73747W        W46172  26.288  44.038   1.482
73748W        W46173  24.463  29.409   4.889
73749W        W46174  44.014  37.190  11.259
73750W        W46175  24.980  13.644  12.505
73751W        W46176  40.780  19.977  11.596
73752W        W46177  39.481  12.356  12.539
73753W        W46178   1.326  39.929   4.559
73754W        W46179  13.362  28.647  12.082
73755W        W46180  15.617  13.856   4.134
73756W        W46181   8.869   8.364  12.111
73757W        W46182   8.154  14.581  12.423
73758W        W46183  40.698  21.130  13.668
73759W        W46184   4.511   2.535  14.948
73760W        W46185   9.782  21.664   2.315
73761W        W46186  18.753  43.455   3.721
73762W        W46187  12.531  27.999  13.789
73763W        W46188   3.645  22.539   4.591
73764W        W46189   6.686  29.580   2.276
73765W        W46190  39.019   5.437  12.511
73766W        W46191  29.968  26.244  11.226
73767W        W46192  19.244   3.742   2.435
73768W        W46193   8.201   2.207  14.339
73769W        W46194  43.133  41.805  12.384
73770W        W46195  21.605  21.349  12.418
73771W        W46196   8.704   5.184  11.493
73772W        W46197  43.211  21.004  14.709
73773W        W46198  24.705  27.760  10.457
73774W        W46199  37.414  20.714   4.998
73775W        W46200  25.652   9.382   4.179
73776W        W46201   4.217  31.666  11.196
73777W        W46202  36.615  25.070  13.127
73778W        W46203  26.029  35.323  12.843
73779W        W46204  13.221  15.372  11.568
73780W        W46205  16.364  34.174  10.862
73781W        W46206  22.435   2.445  13.550
73782W        W46207  12.114  38.835  13.494
73783W        W46208   7.681  29.479  13.108
73784W        W46209  30.863  30.460   1.935
73785W        W46210  17.600  25.400  13.141
73786W        W46211  27.510   3.262  11.449
73787W        W46212  13.836  24.732  10.586
73788W        W46213   0.274   5.778   2.784
73789W        W46214  27.670   3.923  13.477
73790W        W46215   1.359  10.179   2.813
73791W        W46216  31.739  19.227   0.947
73792W        W46217  10.103   8.103  10.549
73793W        W46218  24.540  41.336  11.074
73794W        W46219   1.162  29.967  11.095
73795W        W46220  10.318   7.819   1.204
73796W        W46221  41.722  30.294  10.252
73797W        W46222  25.664  10.412   2.034
73798W        W46223  12.803  34.643   2.660
73799W        W46224   1.010  21.268   1.377
73800W        W46225  14.788  24.170  14.363
73801W        W46226  35.376  38.934   1.828
73802W        W46227  20.787  31.314   3.990
73803W        W46228   3.828  39.962  12.533
73804W        W46229  40.401   9.591  12.184
73805W        W46230   3.782  12.900   3.810
73806W        W46231   2.697   3.350  13.538
73807W        W46232  44.007  16.330   3.691
73808W        W46233  13.875  29.040   4.452
73809W        W46234  39.289   0.417   4.312
73810W        W46235  27.431   0.837   3.814
73811W        W46236   3.301  37.991  10.663
73812W        W46237  36.010   6.843  10.827
73813W        W46238  27.085  39.499  14.762
73814W        W46239  43.291   2.207   1.763
73815W        W46240   8.649  38.066   1.937
73816W        W46241  43.483  10.829   1.405
73817W        W46242  37.307  18.994  14.922
73818W        W46243  39.532   5.985   0.391
73819W        W46244  41.611  35.389  12.778
73820W        W46245  11.122  28.896  12.820
73821W        W46246   8.560   3.927   0.277
73822W        W46247  23.163  22.753  14.036
73823W        W46248   7.773  31.802  13.454
73824W        W46249   9.723  35.172   2.883
73825W        W46250   2.434  37.037  12.498
73826W        W46251  44.158  38.937  14.495
73827W        W46252  23.287  13.407   0.804
73828W        W46253   7.773  33.075   3.299
73829W        W46254  18.670   7.671   2.751
73830W        W46255   8.639  32.978  13.851
73831W        W46256  11.319  20.834   3.507
73832W        W46257  12.371  17.089   2.246
73833W        W46258  41.981  18.438  13.612
73834W        W46259  41.914  21.333   0.178
73835W        W46260   3.170  31.655   0.823
73836W        W46261  19.721  41.221  10.961
73837W        W46262  29.373  24.184   2.125
73838W        W46263  22.438  18.596   2.552
73839W        W46264  11.760  17.838  11.077
73840W        W46265  40.410  39.001  11.672
73841W        W46266  36.056  14.451   0.341
73842W        W46267  17.618  39.793  12.504
73843W        W46268  18.087  44.787  13.108
73844W        W46269  25.981  40.867  13.960
73845W        W46270  35.339  24.240  10.128
73846W        W46271  13.590  39.659  11.848
73847W        W46272  34.825   1.786   4.215
73848W        W46273  18.603  22.780  13.314
73849W        W46274  14.800  13.565   4.358
73850W        W46275   0.843   4.507  13.377
73851W        W46276  31.391   9.176   2.713
73852W        W46277  24.104  23.763   1.960
73853W        W46278  37.291  32.113  14.441
73854W        W46279  17.739   7.347   3.310
73855W        W46280   5.452  19.138  12.917
73856W        W46281  10.379  15.867   1.764
73857W        W46282  42.000  32.634   4.602
73858W        W46283  18.529   1.395   5.478
73859W        W46284  37.133  35.756   0.751
73860W        W46285  26.820  28.176  13.778
73861W        W46286  17.247  25.381   4.671
73862W        W46287  33.915  13.351   4.161
73863W        W46288  20.761  25.604   3.778
73864W        W46289  12.150  32.916  12.849
73865W        W46290  24.614   2.829  14.915
73866W        W46291  30.879   5.289   3.335
73867W        W46292  30.049  18.447  11.477
73868W        W46293  20.260  36.326   3.117
73869W        W46294  34.905  12.442  12.223
73870W        W46295  24.787  16.759  12.445
73871W        W46296  20.501  37.119   1.700
73872W        W46297  11.809  22.285  13.400
73873W        W46298   3.739  13.702  12.003
73874W        W46299   7.782   3.208   1.097
73875W        W46300  42.843   9.190  12.777
73876W        W46301  42.740  23.766  13.143
73877W        W46302  44.930  25.506  11.519
73878W        W46303  13.843  18.052   0.817
73879W        W46304  32.539  28.207   3.231
73880W        W46305  16.268  11.865  14.936
73881W        W46306  40.452   6.975  12.916
73882W        W46307   3.317   3.349   3.436
73883W        W46308  23.455  19.418   1.450
73884W        W46309   2.395  20.301   3.251
73885W        W46310  11.219   9.146  10.789
73886W        W46311  23.092   3.879  13.123
73887W        W46312   7.739   5.597   4.062
73888W        W46313  38.689  15.360  11.967
73889W        W46314  23.471  37.513   2.899
73890W        W46315  15.357  21.973   1.371
73891W        W46316   6.980  44.660   3.596
73892W        W46317  17.657  24.979  10.714
73893W        W46318  25.426  31.912   0.389
73894W        W46319  43.111   5.706   3.377
73895W        W46320  30.168  43.756  14.374
73896W        W46321  21.197  44.033   3.604
73897W        W46322  17.044   0.329  14.244
73898W        W46323   0.045   1.437  11.637
73899W        W46324  19.798  20.799  13.558
73900W        W46325  20.777  38.215   0.694
73901W        W46326  43.017  38.184   0.809
73902W        W46327  38.931   1.445  13.921
73903W        W46328   9.232  10.877   4.819
73904W        W46329  32.828  21.355  11.793
73905W        W46330  26.028  33.445  10.837
73906W        W46331  28.042  24.425   4.203
73907W        W46332  30.140  24.633   4.258
73908W        W46333  17.090   7.181  12.882
73909W        W46334  17.709   4.223   1.002
73910W        W46335  10.073  28.528   1.177
73911W        W46336  40.685  38.582  12.878
73912W        W46337  20.214  34.564   0.007
73913W        W46338   7.122  21.030  14.770
73914W        W46339   7.859   1.877  10.604
73915W        W46340  18.768   7.141   0.236
73916W        W46341   7.778  36.963  10.301
73917W        W46342   9.797  22.597   0.305
73918W        W46343  22.706  42.218   1.252
73919W        W46344  24.419  13.210   4.243
73920W        W46345  18.373   1.477   0.520
73921W        W46346  38.518  27.060  13.313
73922W        W46347  10.737  22.927  11.383
73923W        W46348   1.890  33.469   0.413
73924W        W46349  16.785   2.753  14.356
73925W        W46350   2.839  43.394   3.101
73926W        W46351  13.010   9.845  13.537
73927W        W46352  43.333  32.097  11.993
73928W        W46353  29.205  12.743   0.069
73929W        W46354  30.417  42.322   1.360
73930W        W46355  21.784  41.973  14.992
73931W        W46356  28.863  10.018   4.156
73932W        W46357  35.525  37.527  14.591
73933W        W46358  37.848   1.217  12.405
73934W        W46359  15.978  10.346  12.082
73935W        W46360  26.935  40.746   4.065
73936W        W46361  43.643  15.189   3.001
73937W        W46362  14.284   5.842   4.699
73938W        W46363   8.196  10.406  12.820
73939W        W46364  33.935  30.332   0.379
73940W        W46365  20.126  36.412  10.572
73941W        W46366  25.324  30.220  11.513
73942W        W46367   5.709  42.247  13.196
73943W        W46368   6.089  20.965   5.051
73944W        W46369  34.968   4.645  13.635
73945W        W46370  43.916  44.324   0.932
73946W        W46371  11.538   1.318   0.151
73947W        W46372  14.476  25.242   1.339
73948W        W46373   1.631  19.341  14.042
73949W        W46374  13.899  29.906   4.072
73950W        W46375   1.428  43.760   1.383
73951W        W46376  16.026  12.841  14.790
73952W        W46377  28.091   4.714  14.884
73953W        W46378  25.439   0.280  14.926
73954W        W46379   3.140  32.000  10.758
73955W        W46380  24.085  22.065   1.904
73956W        W46381   6.777  15.030   3.284
73957W        W46382  15.770  37.341  13.947
73958W        W46383  40.933  18.532   4.576
73959W        W46384   0.025  37.879   4.062
73960W        W46385  29.335  16.560   0.843
73961W        W46386   6.854  14.879  12.457
73962W        W46387  28.088  31.966   2.927
73963W        W46388  17.535  30.101   3.358
73964W        W46389   2.523  11.831   2.841
73965W        W46390  17.712  41.513   3.166
73966W        W46391  18.652   2.996  12.118
73967W        W46392  35.539  25.191  11.119
73968W        W46393  28.606  41.039  14.935
73969W        W46394  24.426  37.509  11.121
73970W        W46395  29.649  21.174   4.104
73971W        W46396   0.142  43.882   3.166
73972W        W46397  19.633  43.264  11.581
73973W        W46398  34.980  18.542  10.415
73974W        W46399  43.098  36.553   5.051
73975W        W46400  22.580  44.242   5.139
73976W        W46401   4.056  42.063  14.873
73977W        W46402  12.752  17.582  11.775
73978W        W46403  13.525  16.433  11.888
73979W        W46404  17.864  12.458  14.898
73980W        W46405   5.371  20.729   2.136
73981W        W46406  24.653   2.508   3.365
73982W        W46407   7.274  18.016  11.050
73983W        W46408  32.990  29.946  11.169
73984W        W46409  28.572  11.162   3.685
73985W        W46410  39.950  36.339   3.228
73986W        W46411  29.042  20.887  10.699
73987W        W46412  32.065  21.255   4.862
73988W        W46413  32.631   3.969   3.647
73989W        W46414  10.939   4.430   1.983
73990W        W46415  28.949  40.817   3.695
73991W        W46416  18.496   6.809  14.939
73992W        W46417  33.585  37.032  13.449
73993W        W46418  14.254   0.887   3.731
73994W        W46419  38.247  17.190  10.437
73995W        W46420  40.273  25.286   4.507
73996W        W46421  13.274  30.464   1.270
73997W        W46422  15.085  11.834   4.077
73998W        W46423  11.230   8.296  14.986
73999W        W46424  23.935  38.911  14.728
74000W        W46425  10.314  12.824  11.599
74001W        W46426  32.173  38.245  12.525
74002W        W46427  28.063  34.323   2.302
74003W        W46428  38.424  10.917  12.882
74004W        W46429   9.780  25.194   3.287
74005W        W46430  18.301   6.929   0.432
74006W        W46431  44.740  21.701  12.964
74007W        W46432   4.045  17.792  11.605
74008W        W46433  10.320   1.782  11.535
74009W        W46434  37.446  35.809   1.756
74010W        W46435  12.587  16.497   1.035
74011W        W46436  38.359  20.304   2.336
74012W        W46437  42.912  35.918  11.173
74013W        W46438  34.617  12.913   2.497
74014W        W46439  36.413   1.765  11.894
74015W        W46440  35.924   6.340  10.654
74016W        W46441   8.743  27.074   3.328
74017W        W46442  11.628  24.068  13.583
74018W        W46443  24.497   2.292   3.801
74019W        W46444   2.501  29.902  13.893
74020W        W46445  16.992  44.943   4.213
74021W        W46446  33.868  29.962   1.297
74022W        W46447  42.330  37.955   1.390
74023W        W46448  30.874  28.849  14.262
74024W        W46449   9.296  11.095   4.353
74025W        W46450  24.808   5.772   0.874
74026W        W46451  16.477   5.445   3.215
74027W        W46452  26.386  30.428  10.771
74028W        W46453  17.992  16.146   3.139
74029W        W46454   4.281  38.046  10.745
74030W        W46455  40.153  34.000   1.852
74031W        W46456  28.081  31.119  13.858
74032W        W46457  40.810   0.327  11.137
74033W        W46458   5.383  32.011   2.138
74034W        W46459  18.956  11.824   0.295
74035W        W46460  25.142  34.979   1.982
74036W        W46461  23.864   3.226  13.344
74037W        W46462  39.442  29.593  14.355
74038W        W46463  41.366  42.428   4.366
74039W        W46464   4.144  10.283  11.712
74040W        W46465  37.572  26.397   1.314
74041W        W46466   5.295  34.413   4.309
74042W        W46467  38.248  40.445  12.078
74043W        W46468  16.104  36.889   4.057
74044W        W46469  14.271  32.540  12.519
74045W        W46470  39.012  41.423   3.749
74046W        W46471  31.243  24.872  13.331
74047W        W46472   3.355  41.411   2.716
74048W        W46473   1.684  35.508  13.844
74049W        W46474  17.839  42.360  13.475
74050W        W46475  39.036   1.748   0.975
74051W        W46476  37.745  20.675  12.475
74052W        W46477   7.153  10.784   1.308
74053W        W46478  37.212  43.783   1.371
74054W        W46479   8.894  17.582   2.820
74055W        W46480   9.780  16.249  14.173
74056W        W46481  43.576  27.484   3.397
74057W        W46482  35.429  22.213  14.810
74058W        W46483  29.355  22.298  12.339
74059W        W46484  31.499  42.237   0.284
74060W        W46485  40.624  13.230  13.853
74061W        W46486  21.892  35.941  11.538
74062W        W46487  20.036  13.183  13.582
74063W        W46488   0.541  33.589  11.961
74064W        W46489   2.286  14.390  13.542
74065W        W46490   0.981  14.545   2.263
74066W        W46491   1.722   2.097  10.907
74067W        W46492  24.031  20.766   2.347
74068W        W46493  42.145  39.080  13.782
74069W        W46494  29.479  33.629  12.009
74070W        W46495  31.503  41.978   4.004
74071W        W46496   0.565   7.255   2.333
74072W        W46497  16.064  19.649   0.774
74073W        W46498  15.153  14.009   1.424
74074W        W46499  31.463  24.103  14.236
74075W        W46500  25.471  35.134  12.049
74076W        W46501  19.687   0.072  14.310
74077W        W46502   7.956   5.141  13.568
74078W        W46503  35.963   1.120  12.867
74079W        W46504  29.554  43.333  12.735
74080W        W46505   7.145  37.478   2.109
74081W        W46506  25.007   2.925   0.892
74082W        W46507  44.369  22.405  11.581
74083W        W46508  10.037   7.281   4.945
74084W        W46509  34.083  20.605   2.812
74085W        W46510  42.328  21.945  14.509
74086W        W46511  29.435  21.557  13.958
74087W        W46512  31.911  21.828  14.910
74088W        W46513   6.629  18.317   4.611
74089W        W46514  39.518  20.368  10.311
74090W        W46515  13.851  44.034   3.358
74091W        W46516  44.889  23.296   1.896
74092W        W46517  44.889  24.051  12.017
74093W        W46518   8.218  21.692  14.772
74094W        W46519  35.997   1.480   1.340
74095W        W46520  21.244  24.522   2.444
74096W        W46521  11.967  30.145   1.423
74097W        W46522  36.141  31.459  13.976
74098W        W46523  34.559  36.704  13.501
74099W        W46524  20.237  14.285  12.982
74100W        W46525  11.301  36.303   0.987
74101W        W46526   4.628  28.733  13.409
74102W        W46527  23.499  35.381   4.053
74103W        W46528  23.398  17.203  13.808
74104W        W46529   8.865  30.561   2.642
74105W        W46530  14.164  21.122  10.388
74106W        W46531  41.356  37.424   0.409
74107W        W46532  38.169   4.167  11.443
74108W        W46533  23.593   9.785   3.925
74109W        W46534   8.352  26.603   2.035
74110W        W46535  15.041   5.860   4.226
74111W        W46536  26.221  33.890  11.077
74112W        W46537  43.220   9.223  11.925
74113W        W46538  35.929  13.693   2.895
74114W        W46539  38.569  25.130   2.427
74115W        W46540  10.751  39.786   2.629
74116W        W46541   2.754  21.969   1.933
74117W        W46542  38.624  31.879   4.206
74118W        W46543  36.173  18.238   2.343
74119W        W46544  35.820  19.058   2.408
74120W        W46545  21.431  32.101   0.327
74121W        W46546  31.911  12.101  14.905
74122W        W46547  27.132   1.643  14.599
74123W        W46548  27.543  16.622   0.904
74124W        W46549  17.705   2.456  13.358
74125W        W46550  23.020  34.408   1.430
74126W        W46551  16.885  28.514   0.117
74127W        W46552  19.180  12.983  14.010
74128W        W46553  30.990  27.009  14.514
74129W        W46554  30.691   9.654  14.929
74130W        W46555  31.041  21.056   4.436
74131W        W46556  38.801  17.257  12.124
74132W        W46557  34.536  19.487   0.229
74133W        W46558   3.684  18.141   2.181
74134W        W46559  10.131  19.944   0.632
74135W        W46560   5.241  15.207  13.304
74136W        W46561   8.371  26.987  10.452
74137W        W46562  36.854   8.627  14.851
74138W        W46563  19.570  35.788   0.111
74139W        W46564  41.921  15.778   4.112
74140W        W46565  43.844  43.294   1.305
74141W        W46566  35.345  31.851  13.838
74142W        W46567  29.423  23.514   1.543
74143W        W46568  43.488  42.216  11.841
74144W        W46569  38.122  11.668   4.079
74145W        W46570  35.538  13.795  13.459
74146W        W46571  35.692  41.805  12.923
74147W        W46572  30.058  42.791  13.944
74148W        W46573  27.252  23.147   0.064
74149W        W46574   9.737   8.801   2.651
74150W        W46575  11.057  23.081  14.537
74151W        W46576   2.353  24.065  11.924
74152W        W46577  12.361  32.257   2.496
74153W        W46578  34.610  24.206   1.405
74154W        W46579  18.511  39.940   0.178
74155W        W46580  37.337  39.696  11.080
74156W        W46581  39.808   4.164   2.941
74157W        W46582  20.153  33.069  11.063
74158W        W46583  33.372  33.135   1.747
74159W        W46584  31.592   3.906   1.898
74160W        W46585  23.467   2.966  11.141
74161W        W46586  38.438  42.712  10.135
74162W        W46587  17.208  33.144   1.439
74163W        W46588  42.902  13.049  11.965
74164W        W46589   7.979  42.417   3.500
74165W        W46590  13.096  11.980  13.823
74166W        W46591  17.302  28.317   3.597
74167W        W46592   3.029  37.743   3.288
74168W        W46593  41.202  15.556   4.243
74169W        W46594   3.406  18.881  10.680
74170W        W46595   2.988  36.073   1.278
74171W        W46596  23.010  43.005   1.369
74172W        W46597  19.317  18.531   1.376
74173W        W46598  35.256  30.983   0.981
74174W        W46599  18.538   8.855   0.791
74175W        W46600   6.916  41.455  11.024
74176W        W46601  18.257  13.161   3.817
74177W        W46602  43.852  19.280  14.523
74178W        W46603  37.389  29.916   2.447
74179W        W46604  32.423  25.049   1.164
74180W        W46605   3.497  40.753   2.074
74181W        W46606  13.431   6.466   3.220
74182W        W46607  35.676  14.797  14.477
74183W        W46608  34.490  35.422   2.245
74184W        W46609  14.629  11.896   0.423
74185W        W46610  13.331  28.994   0.835
74186W        W46611   2.038  27.667  13.056
74187W        W46612  20.642  21.157   2.923
74188W        W46613  23.093  26.955   1.342
74189W        W46614  35.087  16.270  10.620
74190W        W46615  37.790   2.259   4.145
74191W        W46616  44.346  11.914  12.561
74192W        W46617  28.948  30.221  12.972
74193W        W46618  32.588   9.813   3.378
74194W        W46619  40.986   3.450   2.693
74195W        W46620  13.028  41.024   3.675
74196W        W46621  24.551  35.139  14.687
74197W        W46622  44.981  36.702   4.843
74198W        W46623  23.932   6.035  13.457
74199W        W46624  33.021  19.543   3.197
74200W        W46625   8.882  37.199   3.730
74201W        W46626   2.897  25.157   2.320
74202W        W46627  32.893  37.372   1.901
74203W        W46628  24.960   6.937   0.579
74204W        W46629  25.673   7.413  10.712
74205W        W46630   8.427  30.444  14.089
74206W        W46631  16.372  24.121   1.190
74207W        W46632  40.816  41.852   5.019
74208W        W46633   8.768  15.867   3.024
74209W        W46634   5.084   2.506  11.512
74210W        W46635  16.261  26.545   1.542
74211W        W46636  27.701  15.186  13.331
74212W        W46637   2.793  27.677   2.017
74213W        W46638  22.146  33.853  12.144
74214W        W46639  33.591  16.190   4.863
74215W        W46640  44.266  20.229  14.750
74216W        W46641   5.581  36.561  12.552
74217W        W46642  38.385   2.810  13.992
74218W        W46643  42.070   2.345  11.051
74219W        W46644  20.269  16.912  10.162
74220W        W46645  25.851   7.944   4.319
74221W        W46646   0.583  37.586  14.213
74222W        W46647  44.339  42.253  10.599
74223W        W46648  29.695  38.509  14.809
74224W        W46649  30.158   9.668  14.955
74225W        W46650   0.369  16.645   2.742
74226W        W46651  21.166   5.689   4.829
74227W        W46652  20.477  44.929   2.783
74228W        W46653   4.879  11.512  11.532
74229W        W46654  41.934   9.001   2.706
74230W        W46655   4.138  15.867  11.488
74231W        W46656  19.066  33.600   2.887
74232W        W46657  42.902   2.721   1.207
74233W        W46658  34.230  24.868   2.566
74234W        W46659   0.728  20.309  12.040
74235W        W46660  19.529  23.164  10.924
74236W        W46661   2.857  41.301   2.507
74237W        W46662  10.326  42.244   4.132
74238W        W46663  34.953  32.861  14.854
74239W        W46664  11.222   1.173   2.788
74240W        W46665  16.267  25.771   4.055
74241W        W46666   6.120  22.979   3.200
74242W        W46667   1.190  37.396  10.741
74243W        W46668  34.674  10.826   2.199
74244W        W46669   3.804  12.478  12.434
74245W        W46670  44.269  22.738   1.269
74246W        W46671  35.843  22.521  11.065
74247W        W46672  36.824  21.030   4.216
74248W        W46673  23.773  17.714  12.584
74249W        W46674   4.519  23.904   4.124
74250W        W46675  38.626  40.371   1.944
74251W        W46676  11.212  18.853  10.606
74252W        W46677  18.035  13.332   4.260
74253W        W46678  17.480  22.601  11.974
74254W        W46679  33.573  37.585  12.948
74255W        W46680  19.903  22.760   4.922
74256W        W46681  36.275  33.311  12.879
74257W        W46682   3.967  44.818  11.946
74258W        W46683  18.486  13.821  11.894
74259W        W46684   2.413  41.343  14.932
74260W        W46685   8.685  14.240  14.967
74261W        W46686   9.257  13.103  11.520
74262W        W46687  40.920  24.113   0.477
74263W        W46688   2.882  27.157  12.982
74264W        W46689  36.716  44.552   4.574
74265W        W46690  38.853  10.287  10.594
74266W        W46691  25.803   7.134  12.046
74267W        W46692  43.365  18.238  12.439
74268W        W46693  30.916  22.139   2.870
74269W        W46694  21.972  43.959   0.524
74270W        W46695   8.366  19.943   1.988
74271W        W46696  25.175  23.892   2.737
74272W        W46697  34.486  33.666   2.892
74273W        W46698  42.302  24.266   4.623
74274W        W46699  39.554  25.141   1.434
74275W        W46700  43.405   9.773   4.555
74276W        W46701  14.862  32.539   4.658
74277W        W46702  14.327  17.323  12.883
74278W        W46703  16.080  43.663   0.266
74279W        W46704  43.305  29.417  13.433
74280W        W46705  16.050  12.885   4.078
74281W        W46706   6.407  26.661  12.940
74282W        W46707   9.577  40.881   1.725
74283W        W46708  13.721  38.398   4.419
74284W        W46709  29.531  41.582   2.465
74285W        W46710  26.447  12.580  10.237
74286W        W46711  35.078   0.884   1.245
74287W        W46712  25.148  10.339   3.727
74288W        W46713  40.188  37.204  13.369
74289W        W46714   8.626  13.857   0.350
74290W        W46715   7.262  44.687  13.897
74291W        W46716   7.805   3.961  14.718
74292W        W46717  23.948  23.934  11.076
74293W        W46718  27.044  23.761  11.172
74294W        W46719  44.771  14.260  11.539
74295W        W46720   7.649  22.202   1.814
74296W        W46721  11.332  13.124   2.781
74297W        W46722   2.069  18.695  12.191
74298W        W46723  18.031  15.999   2.290
74299W        W46724  24.531  44.532   1.818
74300W        W46725  23.028  10.091  12.951
74301W        W46726   9.722  24.000  13.712
74302W        W46727  34.657   8.470  10.658
74303W        W46728  32.373   8.783  13.031
74304W        W46729   8.415  43.270  14.117
74305W        W46730  39.390  21.034  14.915
74306W        W46731   3.469  35.636  12.410
74307W        W46732   7.885  34.456  14.133
74308W        W46733  34.938   3.309   0.231
74309W        W46734  10.632  32.265   4.333
74310W        W46735  33.301  11.374  13.083
74311W        W46736  29.100  43.467  12.485
74312W        W46737  26.562  10.402   4.712
74313W        W46738   0.968  15.768   1.934
74314W        W46739  18.626  28.530   4.490
74315W        W46740   3.899  28.047  11.442
74316W        W46741  24.145  31.984  12.869
74317W        W46742  19.596  35.424  11.791
74318W        W46743  12.920  20.952   0.805
74319W        W46744  33.368  37.997  13.170
74320W        W46745  11.705  36.270   2.842
74321W        W46746  18.679  44.789  12.459
74322W        W46747   8.297  10.205  10.252
74323W        W46748   5.696  24.546   3.656
74324W        W46749   1.463  12.307  14.890
74325W        W46750  40.546   8.295  13.593
74326W        W46751  42.046   5.186  10.677
74327W        W46752   6.217  44.810  12.970
74328W        W46753  43.144   4.680   2.777
74329W        W46754  39.899  43.584   3.898
74330W        W46755  26.592  30.133   4.925
74331W        W46756  15.132  10.666   0.366
74332W        W46757  40.256  32.661  13.925
74333W        W46758  22.427   2.772  11.152
74334W        W46759   2.824  17.800  10.435
74335W        W46760  22.255  24.563  10.608
74336W        W46761  11.484  43.273   4.431
74337W        W46762  39.441  22.016  12.639
74338W        W46763  40.007  11.300  14.769
74339W        W46764   4.362  43.924   3.231
74340W        W46765  43.429  44.515   2.284
74341W        W46766   3.956   8.704  10.760
74342W        W46767  37.713  16.104   4.072
74343W        W46768  19.175   9.599  12.492
74344W        W46769  26.446  14.508  13.907
74345W        W46770  34.075  19.522  13.982
74346W        W46771  10.229  40.506  13.762
74347W        W46772  14.411  22.100   0.676
74348W        W46773   8.508  28.024  13.879
74349W        W46774  22.714  23.114   2.703
74350W        W46775   0.091  32.706  11.042
74351W        W46776  38.833  21.613  12.063
74352W        W46777  28.782   7.733   0.391
74353W        W46778   2.780  26.215   4.043
74354W        W46779  23.975  37.932  12.399
74355W        W46780   8.348  41.089   1.892
74356W        W46781  35.587   9.682   0.517
74357W        W46782   1.486   8.352  10.705
74358W        W46783  20.813  10.392  10.107
74359W        W46784  39.929  26.503   4.915
74360W        W46785  18.340  34.462   1.825
74361W        W46786  34.537  43.288   0.271
74362W        W46787  17.788  36.823  11.147
74363W        W46788  31.991  16.703  13.868
74364W        W46789  34.380  20.826   4.148
74365W        W46790  27.124  22.990  12.658
74366W        W46791  34.929   2.429   3.295
74367W        W46792  12.907  41.742  13.544
74368W        W46793  25.266  37.566  11.629
74369W        W46794  16.334  16.259  10.730
74370W        W46795  21.251  23.628   0.856
74371W        W46796  24.686  40.043   2.995
74372W        W46797  27.747  23.638   3.591
74373W        W46798   7.352  38.912   4.562
74374W        W46799  42.841   8.384  10.726
74375W        W46800   3.144  34.875   4.806
74376W        W46801  29.247  11.221   2.281
74377W        W46802  15.048  30.918  11.920
74378W        W46803   1.237   6.843   0.962
74379W        W46804  25.174  17.710   2.179
74380W        W46805  20.674  24.712   3.623
74381W        W46806  40.060  17.033   0.879
74382W        W46807  18.813  34.891   0.036
74383W        W46808   8.864  10.876  10.772
74384W        W46809  21.752  13.537   1.675
74385W        W46810  20.623  15.127   1.053
74386W        W46811  22.514  27.496  14.569
74387W        W46812  21.989  21.071   1.775
74388W        W46813  37.956  43.827  11.070
74389W        W46814  14.136   7.056  14.889
74390W        W46815   4.530  11.894   2.746
74391W        W46816  40.784  13.019  11.141
74392W        W46817  11.350   8.783  11.560
74393W        W46818  17.524  36.769   4.542
74394W        W46819  23.938   0.816   2.746
74395W        W46820  15.527   9.246   2.681
74396W        W46821   9.109  21.550  10.998
74397W        W46822  17.664  18.118   3.029
74398W        W46823  11.049   7.414  10.207
74399W        W46824   3.204  27.714   3.043
74400W        W46825  20.307  13.138  14.742
74401W        W46826  29.841   3.849   1.263
74402W        W46827  12.442   9.337  10.569
74403W        W46828  10.812  33.024  13.964
74404W        W46829  22.717  22.072   2.148
74405W        W46830  23.036   6.462   1.588
74406W        W46831   6.845  17.257  10.679
74407W        W46832  35.515  33.426   2.377
74408W        W46833  22.209  20.219  13.920
74409W        W46834  13.221  24.946  11.953
74410W        W46835  26.444  39.752   4.231
74411W        W46836  39.197  43.796  10.089
74412W        W46837  13.696  38.439   1.944
74413W        W46838  13.338  19.145   3.627
74414W        W46839   9.590  14.668  14.271
74415W        W46840  14.720   0.302   2.758
74416W        W46841  38.821   4.124   3.328
74417W        W46842  10.719  25.256   4.225
74418W        W46843  30.736  30.067   0.757
74419W        W46844   3.700  28.223   4.154
74420W        W46845  10.888   7.177  10.718
74421W        W46846  22.120  17.613   3.258
74422W        W46847   0.751  37.447   2.649
74423W        W46848  36.931   0.973   2.415
74424W        W46849  20.467  39.827   2.751
74425W        W46850  17.720  10.469  12.235
74426W        W46851  34.889  42.611   4.485
74427W        W46852   7.941  34.603   9.785
74428W        W46853   2.894  33.925  11.656
74429W        W46854  18.661  33.778  13.937
74430W        W46855  12.796  12.698  14.438
74431W        W46856   5.341  24.273  14.997
74432W        W46857  23.600  20.230  12.628
74433W        W46858  41.502  17.686   2.777
74434W        W46859  30.559  25.626  12.921
74435W        W46860  13.369  18.215   4.155
74436W        W46861  36.642   2.537   0.384
74437W        W46862   2.213  39.799   1.165
74438W        W46863  18.609  13.849  10.511
74439W        W46864  13.053  14.675  12.352
74440W        W46865  43.816  44.887   2.107
74441W        W46866  35.014  30.634  10.665
74442W        W46867  43.506  33.665   3.202
74443W        W46868  24.950  36.492  12.089
74444W        W46869  33.850   1.847  14.441
74445W        W46870  18.375  29.257   5.378
74446W        W46871  20.269  34.803  12.222
74447W        W46872  15.194  19.850   0.234
74448W        W46873  24.291  23.747   1.079
74449W        W46874   6.260  44.847   3.135
74450W        W46875  20.581   2.244  12.916
74451W        W46876  39.352   1.577   1.401
74452W        W46877  24.452   0.690   0.637
74453W        W46878  27.128  43.383  11.480
74454W        W46879  16.936  20.241   1.845
74455W        W46880  20.467  23.060   3.282
74456W        W46881   9.710  18.596   3.325
74457W        W46882  25.098  10.669  11.707
74458W        W46883  13.138  43.668   2.617
74459W        W46884   8.821  36.250   0.825
74460W        W46885   0.884  19.077   1.838
74461W        W46886  22.643  16.846  12.665
74462W        W46887  42.071  44.548   3.578
74463W        W46888  29.872  27.662  13.551
74464W        W46889   6.499  30.140  14.965
74465W        W46890  42.581   0.437  13.937
74466W        W46891  15.817  14.665  11.130
74467W        W46892  19.655  17.405   3.767
74468W        W46893  13.680  10.951   1.023
74469W        W46894  29.120  27.024  13.948
74470W        W46895   5.740  10.826   4.552
74471W        W46896  41.901  23.954  10.623
74472W        W46897  10.855  14.533   0.246
74473W        W46898  32.367  44.399  14.571
74474W        W46899   9.222  19.391  13.581
74475W        W46900  21.720  34.340   4.203
74476W        W46901  32.410  28.398  11.706
74477W        W46902  31.053  41.745  11.144
74478W        W46903  43.037  32.767  14.693
74479W        W46904  24.558  19.771   4.460
74480W        W46905   7.579  18.472  11.122
74481W        W46906  21.175  38.293   2.246
74482W        W46907  44.880  40.026   1.982
74483W        W46908  25.206  18.355  10.236
74484W        W46909  11.047  29.517   0.310
74485W        W46910  11.683  15.580   1.206
74486W        W46911  22.817  26.193   4.198
74487W        W46912  28.421   4.893  11.223
74488W        W46913  40.767   4.264  13.009
74489W        W46914  25.261   5.356  10.984
74490W        W46915  43.479  23.286  14.481
74491W        W46916   6.768  44.700  14.047
74492W        W46917  21.309  22.284   4.748
74493W        W46918  23.402  20.772  10.532
74494W        W46919  35.910   4.185  13.595
74495W        W46920  12.059  43.837  12.987
74496W        W46921   5.442   6.708   1.499
74497W        W46922  13.969  21.089  13.095
74498W        W46923  42.748   4.740  14.923
74499W        W46924  38.739  12.165   0.299
74500W        W46925  37.578  42.052   2.440
74501W        W46926  18.226  38.338  14.650
74502W        W46927  34.674  37.441   4.781
74503W        W46928   4.692   4.023   4.646
74504W        W46929  28.616  28.154   0.825
74505W        W46930  27.660  32.214  14.360
74506W        W46931  38.666  43.892  11.594
74507W        W46932  21.320   0.577  11.973
74508W        W46933  41.989  29.554  11.195
74509W        W46934  30.649   2.879  14.758
74510W        W46935  37.321  38.600   1.296
74511W        W46936  14.338  43.986  11.167
74512W        W46937  29.860  26.654   3.351
74513W        W46938   6.749  39.044  12.886
74514W        W46939   8.379  19.523  12.034
74515W        W46940  31.521  16.635   2.145
74516W        W46941  36.779  28.554  11.156
74517W        W46942   7.977  37.318  13.040
74518W        W46943  41.294  30.723  11.457
74519W        W46944   6.615   5.637  11.976
74520W        W46945  42.485  34.918   0.372
74521W        W46946   8.341   0.019  14.836
74522W        W46947   5.284   3.370   4.580
74523W        W46948  37.467  13.588   1.738
74524W        W46949  19.030   9.412  12.947
74525W        W46950  29.693   0.481  12.758
74526W        W46951  10.251  10.867   3.373
74527W        W46952  21.484  40.978  13.089
74528W        W46953   9.131  31.130  13.558
74529W        W46954   4.267  17.095  11.073
74530W        W46955  21.568  11.724  10.102
74531W        W46956  20.335  39.686   4.341
74532W        W46957  39.213  11.810  11.151
74533W        W46958  22.951  36.531   0.928
74534W        W46959   4.172  15.164   4.242
74535W        W46960  35.014  14.735   1.556
74536W        W46961   4.901  32.883   1.300
74537W        W46962   2.514  16.398   1.968
74538W        W46963  24.814  12.679  12.383
74539W        W46964  24.938  22.974   3.108
74540W        W46965  35.410  19.607  13.929
74541W        W46966  37.588  43.459  12.929
74542W        W46967  29.412   3.153   3.203
74543W        W46968   8.529   6.789   3.091
74544W        W46969  42.308   9.850  12.550
74545W        W46970  31.460  25.747   3.689
74546W        W46971  27.460   3.844   4.197
74547W        W46972  36.121  39.688   0.245
74548W        W46973  11.427  31.081  13.913
74549W        W46974   8.705   4.942   3.746
74550W        W46975  38.134  21.312  14.195
74551W        W46976   7.318  26.006  10.945
74552W        W46977  11.413   7.605   2.326
74553W        W46978  30.096  31.899  14.916
74554W        W46979  28.585  18.680   0.978
74555W        W46980  39.168  44.963  14.849
74556W        W46981   7.903  16.245   2.575
74557W        W46982  28.421  25.552   0.447
74558W        W46983  33.248  38.215   0.921
74559W        W46984  31.404  23.649   0.054
74560W        W46985  25.047  33.226   4.718
74561W        W46986  42.426  10.730   5.072
74562W        W46987   8.278   8.156  10.246
74563W        W46988   0.054  29.470  11.784
74564W        W46989  36.227  28.559  12.377
74565W        W46990  23.586  30.080  13.974
74566W        W46991  12.062  25.577  14.333
74567W        W46992  36.965  39.095   0.819
74568W        W46993  39.935  23.674  12.834
74569W        W46994  10.275   4.984   2.912
74570W        W46995  41.838  32.483  14.576
74571W        W46996   2.690  24.090  11.513
74572W        W46997  37.126  11.284   1.049
74573W        W46998  42.840   6.833   4.715
74574W        W46999  14.266   2.528  11.521
74575W        W47000  13.866  33.935  13.444
74576W        W47001  19.456  13.812   0.518
74577W        W47002  29.935  16.821   0.407
74578W        W47003  36.509  17.359  12.069
74579W        W47004  14.323  32.473   4.609
74580W        W47005  15.862  30.426   3.372
74581W        W47006  35.105   6.306  10.953
74582W        W47007  25.002  37.207   1.873
74583W        W47008  20.584  32.206   4.998
74584W        W47009  40.602  33.890  12.649
74585W        W47010  27.421   5.711   0.696
74586W        W47011   7.409  24.454  14.789
74587W        W47012  17.621   9.812   4.730
74588W        W47013   0.862  20.675  14.443
74589W        W47014   8.204  31.956  14.080
74590W        W47015   1.514  20.751  12.717
74591W        W47016  29.888   9.686   1.352
74592W        W47017  35.431  32.121   3.714
74593W        W47018  25.091  32.995  13.060
74594W        W47019  26.171  12.725   1.838
74595W        W47020  32.314   8.426   2.773
74596W        W47021  21.617   2.537  11.518
74597W        W47022  29.700   4.787   3.274
74598W        W47023  43.211  29.986   2.126
74599W        W47024  27.196  19.484   4.648
74600W        W47025  42.729  17.376   3.174
74601W        W47026  34.873   9.093   2.785
74602W        W47027  36.303  39.588   1.142
74603W        W47028  44.610   4.276   4.135
74604W        W47029  33.504  42.953  13.858
74605W        W47030  40.990  41.173   1.145
74606W        W47031   0.913  30.933   0.045
74607W        W47032  18.284   4.401   0.669
74608W        W47033  35.706   9.347   4.431
74609W        W47034  30.897  36.278  14.780
74610W        W47035   7.803   7.683   1.377
74611W        W47036  27.403   5.189  12.818
74612W        W47037  39.685   4.368   1.230
74613W        W47038  29.359   4.523   2.343
74614W        W47039  22.628  12.727   1.455
74615W        W47040  43.958  20.329  13.572
74616W        W47041  24.011  10.071  14.340
74617W        W47042  20.134  20.499   0.832
74618W        W47043  43.412   5.231   1.614
74619W        W47044   3.447  43.904   2.326
74620W        W47045  17.785  23.091  13.001
74621W        W47046  43.981   5.228  14.897
74622W        W47047  38.567  17.646   0.344
74623W        W47048  44.465  35.729  13.781
74624W        W47049  44.031  17.110   2.834
74625W        W47050   4.380  31.372  14.218
74626W        W47051  21.314  13.642   1.425
74627W        W47052  33.125   8.167  14.031
74628W        W47053  32.684  33.053   4.064
74629W        W47054   5.940  25.614   0.596
74630W        W47055   4.165   4.126  11.886
74631W        W47056  27.430   9.358   0.300
74632W        W47057   2.253  37.856   1.362
74633W        W47058  27.408   2.435   0.408
74634W        W47059  22.778   9.133   9.672
74635W        W47060  43.393  38.195  11.593
74636W        W47061  11.801   4.461   2.329
74637W        W47062  30.604  19.733  14.088
74638W        W47063  26.088  15.103   2.361
74639W        W47064  18.153   8.629  11.542
74640W        W47065  14.378  39.587   0.858
74641W        W47066   2.166  32.702   0.777
74642W        W47067  17.723  12.331   0.477
74643W        W47068   2.201  35.896  14.890
74644W        W47069  44.044  25.050   4.592
74645W        W47070  39.763  22.395   3.184
74646W        W47071   2.015  19.027  10.732
74647W        W47072  16.011  33.062  14.874
74648W        W47073   5.416   7.361   0.133
74649W        W47074  42.061  14.533  13.891
74650W        W47075  30.508  43.218   0.327
74651W        W47076  24.650   0.929  14.793
74652W        W47077  30.829  25.039   5.136
74653W        W47078  34.460   4.263  13.198
74654W        W47079  33.570   8.881   4.911
74655W        W47080  28.571   0.064  13.882
74656W        W47081  43.131  11.884   4.979
74657W        W47082  18.843  16.073   2.014
74658W        W47083  13.747  24.416  12.514
74659W        W47084  15.517   3.420   3.673
74660W        W47085  32.894   8.871   1.740
74661W        W47086  32.411  33.456   3.849
74662W        W47087  36.832  26.050  13.858
74663W        W47088  18.589  25.246  14.756
74664W        W47089  21.114  34.015   3.818
74665W        W47090  20.458  44.720  14.699
74666W        W47091   4.450   5.254   1.305
74667W        W47092  18.077   5.719  10.960
74668W        W47093   5.137  18.817  12.014
74669W        W47094  30.289   1.986   1.304
74670W        W47095   6.190   6.232   2.854
74671W        W47096  42.963  29.600   4.179
74672W        W47097  26.093  24.907   2.246
74673W        W47098  42.283   0.318  12.079
74674W        W47099  30.436  21.459  11.969
74675W        W47100  38.196  11.039   1.792
74676W        W47101  25.484  12.226  13.364
74677W        W47102  18.306  21.982  14.751
74678W        W47103  25.005  17.484  11.911
74679W        W47104  44.490  41.012   4.009
74680W        W47105  25.058   3.237  14.429
74681W        W47106  11.323  16.706  14.364
74682W        W47107  15.109  10.882  11.386
74683W        W47108  31.446  43.887  11.640
74684W        W47109  27.068  16.225  10.704
74685W        W47110  31.108  17.189  14.658
74686W        W47111   2.961  15.152  13.842
74687W        W47112  24.215  15.149  13.926
74688W        W47113  29.986   2.290  13.441
74689W        W47114  21.945  29.367   3.818
74690W        W47115  27.433   8.225   1.595
74691W        W47116  26.616   8.475  14.589
74692W        W47117  41.361  10.750  11.044
74693W        W47118   9.610  22.818  14.855
74694W        W47119  11.449  31.257   2.381
74695W        W47120  41.976  42.585   4.573
74696W        W47121  36.473  27.566  10.743
74697W        W47122  26.907  23.668   4.525
74698W        W47123  17.262  14.334  12.795
74699W        W47124   9.125   8.135   5.499
74700W        W47125  20.630  24.188   1.964
74701W        W47126  21.767  14.310  12.996
74702W        W47127  26.522  26.999   1.295
74703W        W47128   1.466  39.456   0.694
74704W        W47129  40.789  16.281   4.563
74705W        W47130   4.717  34.362   1.380
74706W        W47131   7.951  36.348  12.914
74707W        W47132  10.699   2.390  13.833
74708W        W47133  11.901  33.574   3.661
74709W        W47134  28.399  30.607   2.851
74710W        W47135  44.960  12.140  13.296
74711W        W47136  31.444  41.113   1.733
74712W        W47137   9.030  31.902   3.642
74713W        W47138  33.241  35.366  11.625
74714W        W47139  16.789  19.738   3.643
74715W        W47140  42.222  43.091  10.450
74716W        W47141  15.473  14.616   4.573
74717W        W47142  13.227   3.852  13.998
74718W        W47143  12.743   1.351   0.913
74719W        W47144   9.229   2.416  14.450
74720W        W47145  19.187  16.042   1.405
74721W        W47146  19.735  22.056  10.623
74722W        W47147  36.448  26.033   5.119
74723W        W47148  12.424   7.105   2.230
74724W        W47149   7.693  42.828   5.121
74725W        W47150  22.075   7.663   3.810
74726W        W47151  23.572  16.247   2.171
74727W        W47152   3.961  32.300   4.406
74728W        W47153  34.606  25.542  11.023
74729W        W47154  44.450   8.609   4.605
74730W        W47155  34.473  15.120  13.934
74731W        W47156  44.653   9.849  12.258
74732W        W47157  42.573   5.289   2.476
74733W        W47158  16.831   9.190  14.868
74734W        W47159   7.318  19.013  12.063
74735W        W47160  25.165  36.481   4.858
74736W        W47161  36.326  18.371  10.590
74737W        W47162  38.404  24.070  11.561
74738W        W47163  21.450  33.886  14.870
74739W        W47164  43.260  30.310  12.519
74740W        W47165  27.220  20.339  11.707
74741W        W47166  16.626  17.192   1.836
74742W        W47167   5.745   7.129   0.871
74743W        W47168  11.779  19.728  10.828
74744W        W47169  42.838   2.252  13.830
74745W        W47170  17.245   5.118  12.409
74746W        W47171  27.980  10.871  14.419
74747W        W47172  12.428  25.542   1.189
74748W        W47173  27.977  43.704   2.621
74749W        W47174  28.200   6.687  14.729
74750W        W47175  13.742  39.560  13.239
74751W        W47176  28.146  32.584   4.164
74752W        W47177  40.913  11.235  10.637
74753W        W47178  36.990  44.194   4.275
74754W        W47179   6.383   7.291  14.823
74755W        W47180  33.918  21.522  14.016
74756W        W47181   1.921  37.279  14.027
74757W        W47182   9.275  17.499  11.108
74758W        W47183  32.603  29.898   0.702
74759W        W47184   2.797  21.480   1.198
74760W        W47185   0.636  32.044   5.113
74761W        W47186  34.209  18.892   2.218
74762W        W47187  44.455  38.590   0.973
74763W        W47188  18.361  20.995  13.492
74764W        W47189   9.559  28.434  11.441
74765W        W47190   6.643  20.814  12.037
74766W        W47191  26.277  28.037   1.342
74767W        W47192  27.393  31.994   1.671
74768W        W47193  35.153  19.867  13.569
74769W        W47194  29.492  35.367  12.970
74770W        W47195   7.292  43.454   1.857
74771W        W47196  15.455  17.178  11.373
74772W        W47197  25.662  40.508   0.241
74773W        W47198  38.883  27.666   1.120
74774W        W47199   3.509   1.435  11.997
74775W        W47200  38.722  15.278   2.929
74776W        W47201  32.687  34.764  13.363
74777W        W47202   2.181  16.991   4.869
74778W        W47203   3.810   3.253  10.317
74779W        W47204  20.263  24.664   2.259
74780W        W47205   5.194  33.402   4.614
74781W        W47206  28.664  41.486   1.975
74782W        W47207  31.080  37.314  10.144
74783W        W47208  29.566  27.978  14.232
74784W        W47209   2.342  29.598  10.838
74785W        W47210  42.776  40.974  14.543
74786W        W47211  37.656  43.895  11.550
74787W        W47212  34.462  39.881   3.158
74788W        W47213   6.292   1.469  11.884
74789W        W47214  16.497  21.288  13.336
74790W        W47215  43.311  12.159  12.118
74791W        W47216  42.563  38.328  13.642
74792W        W47217  12.166  43.380   1.057
74793W        W47218   9.205  24.011  12.393
74794W        W47219  24.410  41.840   3.369
74795W        W47220  27.627   6.714  12.216
74796W        W47221   8.447  13.685  13.325
74797W        W47222  12.776  17.577  12.297
74798W        W47223   1.067  41.920   1.392
74799W        W47224  18.526   4.234  12.539
74800W        W47225  12.261   6.245  14.935
74801W        W47226  26.999   0.993  12.315
74802W        W47227  36.269  12.813  12.894
74803W        W47228  16.566  31.883  11.622
74804W        W47229  13.811   2.345  13.493
74805W        W47230   6.722  30.189   3.638
74806W        W47231   2.225   4.931  14.737
74807W        W47232  32.050  37.937  11.146
74808W        W47233  11.857  31.118   1.169
74809W        W47234  33.137   6.285  10.288
74810W        W47235  12.739  37.005   0.720
74811W        W47236  37.781   3.308   4.682
74812W        W47237  16.561  28.226  12.448
74813W        W47238  21.818   0.741  14.908
74814W        W47239  41.960  33.965   2.346
74815W        W47240  21.625  13.241   4.607
74816W        W47241  20.648  13.839  13.494
74817W        W47242  26.966  21.193  14.766
74818W        W47243  30.959  44.272   4.325
74819W        W47244  13.225   1.278  12.533
74820W        W47245  32.085  15.829   4.714
74821W        W47246  21.338  40.132  11.560
74822W        W47247  32.371  21.135  13.395
74823W        W47248  31.997  16.797   0.241
74824W        W47249   1.671   4.626  11.227
74825W        W47250  21.167  13.905   3.446
74826W        W47251   0.269  24.613   2.175
74827W        W47252  41.951   6.582  12.876
74828W        W47253  34.661  22.664   0.294
74829W        W47254  41.302  42.058  14.001
74830W        W47255  10.050  21.575  12.504
74831W        W47256  42.820  15.622  14.258
74832W        W47257  33.852   7.328   2.113
74833W        W47258   0.019  24.140   4.673
74834W        W47259  11.862  21.761   4.297
74835W        W47260  18.317  39.923  13.030
74836W        W47261  22.542  22.538   0.041
74837W        W47262  24.988  21.743  14.085
74838W        W47263  25.720  19.205   2.579
74839W        W47264  12.450  12.232  11.210
74840W        W47265  28.024  26.061  13.332
74841W        W47266   0.063  18.647   2.221
74842W        W47267  43.324  16.764  13.935
74843W        W47268  41.988   7.675  12.925
74844W        W47269  27.117  10.558  14.967
74845W        W47270  29.232   6.166   2.765
74846W        W47271  31.619  25.115   0.699
74847W        W47272   5.781  41.376  12.674
74848W        W47273  44.222   2.348  12.839
74849W        W47274  11.147  37.553  12.523
74850W        W47275  39.092  23.461  13.273
74851W        W47276  35.974  35.878  12.648
74852W        W47277  41.834   2.682   0.067
74853W        W47278  42.935  33.027   3.033
74854W        W47279   4.570   3.660  13.921
74855W        W47280  17.758  40.444   3.185
74856W        W47281  33.858  21.169  10.713
74857W        W47282  41.523  37.999   3.255
74858W        W47283  20.611  17.100  10.567
74859W        W47284  37.875   7.185  11.917
74860W        W47285  16.275   4.576  10.733
74861W        W47286  39.370  20.483   3.197
74862W        W47287  24.514  42.254  14.046
74863W        W47288  19.872  38.553   2.724
74864W        W47289  42.661  43.403  12.620
74865W        W47290  14.507  43.167  11.452
74866W        W47291  28.395  10.799  12.900
74867W        W47292  28.176  32.347   2.584
74868W        W47293  31.011   9.766   2.834
74869W        W47294  27.015  29.657   0.805
74870W        W47295  10.238  29.614  12.546
74871W        W47296  43.302  30.876   4.845
74872W        W47297   1.466  43.256  12.534
74873W        W47298  29.594  38.595   4.114
74874W        W47299   7.821   5.259   4.543
74875W        W47300  37.293   7.217   3.786
74876W        W47301   6.167  12.375  13.929
74877W        W47302   2.747   2.281   0.526
74878W        W47303  44.329  38.263   2.691
74879W        W47304  39.324  19.639  13.894
74880W        W47305  16.464  33.483  13.441
74881W        W47306  26.976  22.016   2.235
74882W        W47307  11.869  10.190  13.822
74883W        W47308  32.629  29.665  12.025
74884W        W47309  36.916  23.570  12.636
74885W        W47310  42.450  26.720  10.427
74886W        W47311   1.230  38.391   2.409
74887W        W47312  41.548  36.478  14.671
74888W        W47313  30.653  36.018  11.975
74889W        W47314  10.084   8.164  13.830
74890W        W47315  41.967  21.063  13.895
74891W        W47316   1.921  35.572   1.829
74892W        W47317  43.574   6.782   2.350
74893W        W47318  44.514  11.744   1.195
74894W        W47319  21.106   6.189   0.008
74895W        W47320  35.958  12.251  10.612
74896W        W47321  39.577  40.126   0.367
74897W        W47322  20.120  43.027  14.743
74898W        W47323   9.416  40.935   1.037
74899W        W47324  17.755  13.205  11.977
74900W        W47325   0.494  43.756  11.067
74901W        W47326  29.981   5.426   3.698
74902W        W47327  36.507  23.369   2.624
74903W        W47328  23.072  27.525  11.386
74904W        W47329  34.553   5.353   4.853
74905W        W47330   0.730  28.937  14.387
74906W        W47331  18.248  31.146   2.829
74907W        W47332   8.322  41.523  12.147
74908W        W47333  10.567  35.743   3.889
74909W        W47334   0.521  12.327   3.106
74910W        W47335  14.786  13.882   2.706
74911W        W47336  31.354  33.033  13.352
74912W        W47337  11.982  19.790  11.603
74913W        W47338  22.170  13.003  12.934
74914W        W47339   2.160  12.174   0.794
74915W        W47340  43.211  38.801  10.609
74916W        W47341  28.138   9.168   0.495
74917W        W47342  17.278  21.038   5.269
74918W        W47343  12.102  26.487  14.545
74919W        W47344   0.416  21.560   1.852
74920W        W47345  41.918  19.130  12.667
74921W        W47346  16.981  32.201   3.923
74922W        W47347  12.114  42.960   0.747
74923W        W47348   8.943  29.483  13.462
74924W        W47349   4.763  13.679   0.875
74925W        W47350  43.026  38.877  11.107
74926W        W47351  37.919  10.086  12.960
74927W        W47352  17.956   2.859   4.676
74928W        W47353  33.382  18.537   2.314
74929W        W47354   5.745  40.020   3.820
74930W        W47355  24.168  34.914  11.544
74931W        W47356  21.989  20.568  11.987
74932W        W47357  32.700   3.749  10.745
74933W        W47358  21.864  35.926   3.652
74934W        W47359  41.346  14.016  14.516
74935W        W47360  41.961  22.198   0.269
74936W        W47361  35.804  42.333  12.083
74937W        W47362  36.782  41.465  14.869
74938W        W47363  27.904  37.343  10.780
74939W        W47364  30.469  30.935  11.622
74940W        W47365  23.278  41.858  12.128
74941W        W47366  41.843  24.065  14.925
74942W        W47367  33.424  22.502   1.247
74943W        W47368  41.082   4.656  13.098
74944W        W47369   0.011   8.392   0.910
74945W        W47370  19.334  25.209   4.665
74946W        W47371   9.625   4.994  12.978
74947W        W47372  11.498  12.424   3.172
74948W        W47373  36.825  38.819   1.219
74949W        W47374  24.929   9.823  11.970
74950W        W47375  32.165  27.636  14.345
74951W        W47376  40.536  11.774  13.024
74952W        W47377  14.395   1.650  13.063
74953W        W47378   6.349  41.234  14.855
74954W        W47379  38.153  18.856   0.239
74955W        W47380  17.331  30.921   0.639
74956W        W47381  12.158  39.024  10.694
74957W        W47382  30.890   4.809   1.285
74958W        W47383  42.784  17.531  11.873
74959W        W47384  35.944   2.897  12.900
74960W        W47385  36.371  34.778   2.452
74961W        W47386  37.906  23.529   3.123
74962W        W47387  27.123  23.253   2.263
74963W        W47388  16.509   6.872  10.729
74964W        W47389  29.110   9.348   3.028
74965W        W47390  43.716  13.138  10.775
74966W        W47391  13.314  27.081  14.161
74967W        W47392   7.373  39.379   0.877
74968W        W47393  14.691   0.271   4.100
74969W        W47394  12.901  35.795   3.725
74970W        W47395   4.250  42.285   2.007
74971W        W47396  14.058   4.933   2.344
74972W        W47397  40.949  10.947  14.930
74973W        W47398   2.377  42.695   4.388
74974W        W47399  43.440  11.323   1.672
74975W        W47400   9.610   3.678   0.287
74976W        W47401  31.470  43.162   0.029
74977W        W47402   2.247  32.344  13.951
74978W        W47403  14.144  24.607   3.363
74979W        W47404   7.636  13.369  12.791
74980W        W47405  26.520  41.226   3.315
74981W        W47406  43.489   0.775   3.632
74982W        W47407   5.383  32.885  11.200
74983W        W47408  41.822  31.370   2.306
74984W        W47409  24.574  31.527   3.828
74985W        W47410   4.996  20.122  10.981
74986W        W47411  27.644  33.657  14.346
74987W        W47412  26.183   9.210  14.310
74988W        W47413  29.646  10.207   4.677
74989W        W47414  35.962  10.424   3.728
74990W        W47415   8.621  41.807   1.465
74991W        W47416  22.059  19.548  12.884
74992W        W47417  34.827   2.285   4.053
74993W        W47418   7.731  14.998   2.666
74994W        W47419  16.512  33.990   3.725
74995W        W47420   8.316   5.681   0.414
74996W        W47421   5.297  40.484  13.625
74997W        W47422  10.190  23.668  11.668
74998W        W47423  40.049  36.984   2.827
74999W        W47424  20.124  38.004  10.802
75000W        W47425  10.043  22.178   4.153
75001W        W47426  23.716  24.715   2.780
75002W        W47427  27.778  10.758   3.606
75003W        W47428   8.599  35.252  12.038
75004W        W47429  20.792  35.954   4.008
75005W        W47430  34.313   9.282   1.143
75006W        W47431  42.280  30.708  11.599
75007W        W47432  18.348  41.366  14.471
75008W        W47433  17.277   5.712  11.479
75009W        W47434  43.875   8.282   0.977
75010W        W47435   2.935   9.220   2.895
75011W        W47436  18.638  41.312   2.840
75012W        W47437  12.299  39.503  13.723
75013W        W47438  21.628  29.431   3.381
75014W        W47439  26.604  29.924   0.226
75015W        W47440   0.414  39.895   2.751
75016W        W47441  29.943  20.257  12.524
75017W        W47442   3.480  14.103  11.070
75018W        W47443  34.320  10.646  14.992
75019W        W47444  35.949  42.802  13.486
75020W        W47445  27.933  13.839  13.473
75021W        W47446  16.815  11.611  11.962
75022W        W47447  35.686  24.688   9.503
75023W        W47448   2.543   6.872   1.374
75024W        W47449  40.846  25.770  11.122
75025W        W47450  36.629  37.274  12.893
75026W        W47451  26.135  43.059   3.385
75027W        W47452  44.782   6.884   4.193
75028W        W47453  21.103  11.770  13.067
75029W        W47454  38.327   3.490  13.159
75030W        W47455  24.689  38.073  11.443
75031W        W47456  13.058  15.729   1.381
75032W        W47457  28.012  12.975   0.672
75033W        W47458   3.921  30.208  11.987
75034W        W47459  13.161  19.761   2.926
75035W        W47460  17.556  20.688  11.678
75036W        W47461   7.348  22.513  11.650
75037W        W47462  11.739   1.229   4.823
75038W        W47463  35.391  33.177   3.680
75039W        W47464  18.778   3.061   1.901
75040W        W47465  42.472   7.167  11.072
75041W        W47466   5.804  27.959  11.717
75042W        W47467  34.077  13.061   4.563
75043W        W47468  17.925  24.505   2.005
75044W        W47469  11.221  28.919   4.639
75045W        W47470  20.481  11.738   3.268
75046W        W47471  19.691  32.974  10.872
75047W        W47472   6.209  10.598   4.551
75048W        W47473  36.103  36.828   3.415
75049W        W47474   5.301  27.225   4.364
75050W        W47475   1.419  29.183   1.857
75051W        W47476  11.178  44.939   0.774
75052W        W47477  21.464   1.641  10.354
75053W        W47478  39.903  42.047   5.512
75054W        W47479  19.761  26.613   2.261
75055W        W47480  23.715   0.934  11.196
75056W        W47481  20.067  17.585   2.882
75057W        W47482  34.879  33.729   0.375
75058W        W47483  15.894  38.352  14.006
75059W        W47484  30.614   6.465  14.969
75060W        W47485  32.573  41.324  11.603
75061W        W47486  11.289   4.005   3.977
75062W        W47487  20.313  26.283  10.604
75063W        W47488  44.529  24.698   3.038
75064W        W47489  10.533  35.046   4.372
75065W        W47490  41.914   9.663  13.498
75066W        W47491  25.478  44.744  14.691
75067W        W47492   0.922  26.188  10.744
75068W        W47493   7.733  10.696   3.114
75069W        W47494   3.763  15.351  13.381
75070W        W47495   0.581  14.433  11.175
75071W        W47496  43.462  37.330   1.298
75072W        W47497  21.165  26.765  11.564
75073W        W47498   5.724  26.760  11.244
75074W        W47499  18.122  29.642  11.220
75075W        W47500  23.628  35.402  10.642
75076W        W47501  15.896  14.114   2.265
75077W        W47502  20.709  35.603   3.206
75078W        W47503  18.132  41.826  13.319
75079W        W47504  27.499  38.115   3.700
75080W        W47505  29.970  41.345  13.874
75081W        W47506  38.694   0.223   0.190
75082W        W47507  24.008  27.006   2.263
75083W        W47508   6.669   5.353   4.670
75084W        W47509  12.722   4.865  13.480
75085W        W47510   6.754  42.406  14.077
75086W        W47511   4.005  43.762  13.191
75087W        W47512   1.883  26.045   1.860
75088W        W47513  31.814  44.709   1.194
75089W        W47514  44.884   3.612   1.934
75090W        W47515  11.773  38.892  11.080
75091W        W47516  33.339  18.245  13.403
75092W        W47517  21.604   2.470   4.697
75093W        W47518  16.150   9.358  10.725
75094W        W47519  35.376   8.249   4.721
75095W        W47520  17.059  42.463  13.002
75096W        W47521  11.566  28.970  13.510
75097W        W47522  16.753  15.277  10.600
75098W        W47523   5.384   6.994   0.530
75099W        W47524  27.262  29.041   3.800
75100W        W47525  22.285  40.414  12.818
75101W        W47526  40.366  29.194   2.929
75102W        W47527  13.882  18.267   4.181
75103W        W47528   0.419  13.750   4.219
75104W        W47529  27.346  16.965   3.324
75105W        W47530  25.409  23.515   2.398
75106W        W47531  19.743  29.513  12.744
75107W        W47532  16.122   9.858  11.502
75108W        W47533  19.114   8.892   2.865
75109W        W47534  27.206  20.704  13.948
75110W        W47535  43.777  41.116  10.416
75111W        W47536   5.481   2.000   1.357
75112W        W47537  42.236  21.875   4.781
75113W        W47538  18.287  44.388  12.847
75114W        W47539  14.964  16.293  13.792
75115W        W47540  15.643   3.422  13.231
75116W        W47541  27.111  43.781   2.832
75117W        W47542  33.816   0.610  13.514
75118W        W47543  38.420  33.249  14.992
75119W        W47544  21.716   4.955   1.894
75120W        W47545   2.930   7.302   2.592
75121W        W47546   3.234  27.689   4.800
75122W        W47547  14.070  18.346  11.699
75123W        W47548   6.051  28.349  14.386
75124W        W47549  37.053  17.072  14.999
75125W        W47550  19.053  34.989   1.895
75126W        W47551   1.344  28.378   2.349
75127W        W47552  32.341  25.209  12.912
75128W        W47553  26.072   4.548   0.100
75129W        W47554  18.158   5.591  12.469
75130W        W47555  39.189  35.881  11.632
75131W        W47556  15.759  38.133  14.484
75132W        W47557   9.449  29.502  14.152
75133W        W47558  27.485   9.063  11.070
75134W        W47559  26.299  24.076  11.520
75135W        W47560  37.616   8.137   3.465
75136W        W47561  27.957   4.075   4.390
75137W        W47562   6.224  44.492  13.546
75138W        W47563  11.128  29.044  11.986
75139W        W47564  39.274   3.490  10.333
75140W        W47565  19.149  13.818  14.804
75141W        W47566  22.311  43.805   0.015
75142W        W47567  35.667  11.558  11.073
75143W        W47568  44.353   5.342  13.514
75144W        W47569  34.442  38.085   3.140
75145W        W47570  28.371   7.383   1.853
75146W        W47571  15.063   6.430   3.699
75147W        W47572  27.691   4.230  12.987
75148W        W47573  31.458  42.761   0.334
75149W        W47574  37.222  40.321  14.944
75150W        W47575  38.596  24.457   3.175
75151W        W47576  44.350  11.392  12.522
75152W        W47577  21.998  40.560  14.881
75153W        W47578   4.769  32.947   0.674
75154W        W47579  22.793  14.723  12.429
75155W        W47580   4.693   7.943   2.857
75156W        W47581  38.930  37.306  11.433
75157W        W47582  10.760  18.513  11.923
75158W        W47583   2.067  39.440   2.913
75159W        W47584  31.414  11.832   0.398
75160W        W47585  24.690  19.162   3.206
75161W        W47586   9.295   4.524  12.893
75162W        W47587   8.135  21.432   0.377
75163W        W47588  18.734  33.551  13.459
75164W        W47589   8.686  29.528  12.523
75165W        W47590  18.729  41.309   3.867
75166W        W47591   3.458  37.021  10.714
75167W        W47592   3.828  24.423   4.117
75168W        W47593  12.857  42.935   4.699
75169W        W47594   7.480  27.973   5.015
75170W        W47595   8.716  42.891   5.050
75171W        W47596  40.709  38.247  13.598
75172W        W47597  26.027  31.130   2.662
75173W        W47598   3.506  22.504   2.283
75174W        W47599  16.030  12.226  13.084
75175W        W47600  22.189  20.316   4.309
75176W        W47601  18.633   5.788   2.426
75177W        W47602  19.263  18.601  11.983
75178W        W47603  28.386  14.753   3.725
75179W        W47604  10.245  29.710   0.937
75180W        W47605   0.924   5.980   3.115
75181W        W47606  34.641   2.911  11.144
75182W        W47607   7.905  11.169  10.633
75183W        W47608  24.587  38.787  13.534
75184W        W47609  16.138   8.125   3.151
75185W        W47610  21.568  33.272  14.392
75186W        W47611   3.856  44.295  14.199
75187W        W47612   8.671  33.754  14.319
75188W        W47613  12.847  36.951   0.213
75189W        W47614  41.518   7.152  12.498
75190W        W47615  41.818  15.765  14.054
75191W        W47616   2.193  20.741   0.865
75192W        W47617  40.801  31.597  11.630
75193W        W47618  32.872   5.178  14.008
75194W        W47619   8.045  37.598   2.058
75195W        W47620  21.276   1.808  13.965
75196W        W47621  23.577  39.111   2.762
75197W        W47622  20.946  11.317   1.852
75198W        W47623   0.886  23.181   1.059
75199W        W47624   1.574  43.753  12.487
75200W        W47625  19.565  22.901   1.022
75201W        W47626   4.368  38.506  14.037
75202W        W47627  38.418  40.412   1.014
75203W        W47628  39.053   3.773   3.775
75204W        W47629  10.745  32.386  13.034
75205W        W47630  32.517   4.027  14.441
75206W        W47631  18.298  12.598  13.073
75207W        W47632  20.269  30.392  12.867
75208W        W47633  42.931   6.141  13.185
75209W        W47634  40.494  39.634   4.518
75210W        W47635  10.209  28.461   1.740
75211W        W47636  34.345  17.806  10.682
75212W        W47637  30.222  27.557  14.391
75213W        W47638  30.069  14.083  12.907
75214W        W47639  26.500  41.488  14.958
75215W        W47640  28.824   7.287   0.688
75216W        W47641  16.728  11.612   4.859
75217W        W47642  20.536  15.262  12.876
75218W        W47643  20.048  37.322   2.618
75219W        W47644  15.161  34.617   0.846
75220W        W47645  25.485  16.213  11.078
75221W        W47646   6.553  12.863   9.783
75222W        W47647   7.167  30.905   3.135
75223W        W47648   3.201  42.379   3.278
75224W        W47649  44.263  24.583   4.668
75225W        W47650  26.623   1.856   9.887
75226W        W47651  31.027  37.329   0.534
75227W        W47652   3.268  36.117  14.521
75228W        W47653   6.075  34.321  13.045
75229W        W47654   9.893  26.799  14.975
75230W        W47655   8.550  11.142   3.585
75231W        W47656  14.607   1.201   3.940
75232W        W47657   7.262   9.736   1.613
75233W        W47658  22.903  13.073   4.080
75234W        W47659  16.128  34.567  11.131
75235W        W47660  19.307  22.157   4.869
75236W        W47661   1.465  40.333  14.041
75237W        W47662  14.495  13.683  12.015
75238W        W47663  44.402  32.412   0.533
75239W        W47664  31.111  25.524  14.901
75240W        W47665  19.578  41.080   3.326
75241W        W47666  23.560   1.662   0.881
75242W        W47667  26.142   8.647   2.843
75243W        W47668  41.061  27.986  10.699
75244W        W47669  17.759  39.538   3.208
75245W        W47670   6.603  40.578   1.911
75246W        W47671  28.659   9.814  10.476
75247W        W47672   5.802  37.172   0.366
75248W        W47673  25.454  33.817   2.231
75249W        W47674  16.477  42.067   4.431
75250W        W47675  24.676  13.240   0.181
75251W        W47676  12.505   1.658  11.872
75252W        W47677  23.233  34.908   0.058
75253W        W47678  37.088  31.618  11.110
75254W        W47679  31.923   1.769  11.665
75255W        W47680  19.586  34.570   2.357
75256W        W47681   9.940   2.466   2.341
75257W        W47682  37.627   2.233  12.910
75258W        W47683  25.973  16.765   1.720
75259W        W47684  38.754   2.850  12.780
75260W        W47685   3.970   3.703  13.855
75261W        W47686  27.411   4.921   1.386
75262W        W47687  40.549  41.594  14.140
75263W        W47688  37.642  16.297  12.589
75264W        W47689  36.834  29.160   0.061
75265W        W47690  32.549  25.453  12.467
75266W        W47691  23.643  27.838   1.884
75267W        W47692  33.847  26.586  10.125
75268W        W47693  14.789  18.013   4.229
75269W        W47694  44.453  23.577  13.683
75270W        W47695  25.251  18.489   3.134
75271W        W47696  39.995  20.236   0.023
75272W        W47697  14.822  13.819   1.835
75273W        W47698  32.733  11.336  13.042
75274W        W47699  19.140  29.515   0.510
75275W        W47700  37.104  15.162  14.473
75276W        W47701  35.989  10.222   3.246
75277W        W47702  34.619  12.145   1.231
75278W        W47703  24.137   6.235   2.977
75279W        W47704  39.134  37.459  13.864
75280W        W47705  41.716  17.784   2.266
75281W        W47706  44.485  28.731   2.285
75282W        W47707  11.831   0.394   2.428
75283W        W47708  28.550  19.219   3.197
75284W        W47709  21.513   3.911   0.385
75285W        W47710   6.369  10.789  12.908
75286W        W47711  15.615   0.742  14.520
75287W        W47712  11.737  30.887   2.155
75288W        W47713  13.371  33.618  11.611
75289W        W47714  30.365  26.250   2.266
75290W        W47715  17.020  38.899  10.722
75291W        W47716   5.389  41.947  14.428
75292W        W47717  21.658   4.785   4.106
75293W        W47718  18.556  31.922   1.009
75294W        W47719  26.054  35.872   2.901
75295W        W47720  39.329  42.984   4.918
75296W        W47721  37.978  13.491  12.005
75297W        W47722  10.670  25.540   0.026
75298W        W47723  32.071  18.963   5.514
75299W        W47724  15.250  29.704   3.600
75300W        W47725  26.992  39.264   3.655
75301W        W47726   2.917  11.493   3.701
75302W        W47727  23.953   7.356  14.833
75303W        W47728  40.251   0.317  10.304
75304W        W47729  19.204   7.372  14.987
75305W        W47730   9.053  44.134  10.296
75306W        W47731  32.993  18.606  14.601
75307W        W47732  44.624  27.293   0.865
75308W        W47733  14.831  38.099  10.972
75309W        W47734  18.017  24.460  14.034
75310W        W47735   1.745   0.774  10.295
75311W        W47736  43.711  26.958  14.711
75312W        W47737   6.576   0.324  14.788
75313W        W47738   6.734   6.408   0.592
75314W        W47739  34.536  24.306  13.375
75315W        W47740  32.042  17.350   1.013
75316W        W47741  19.922   1.962  14.928
75317W        W47742  40.372  38.945   2.083
75318W        W47743  32.878  42.435   0.260
75319W        W47744  38.852   0.503   4.673
75320W        W47745  30.572  30.698  11.163
75321W        W47746   1.997  30.111  12.637
75322W        W47747  29.587  25.400   4.902
75323W        W47748   7.321   0.272   3.097
75324W        W47749  43.256  20.598  13.540
75325W        W47750  31.010  43.043  12.947
75326W        W47751  25.746  24.421   0.347
75327W        W47752  14.328   9.775   2.341
75328W        W47753  19.175  15.159   4.590
75329W        W47754  17.682  33.316  10.344
75330W        W47755  25.596  43.808   4.590
75331W        W47756  35.943   9.066   1.349
75332W        W47757  27.678  18.515   4.640
75333W        W47758  26.580   2.050  13.898
75334W        W47759   2.341  18.123  13.534
75335W        W47760  33.894   2.451   4.117
75336W        W47761  20.955  38.427  11.082
75337W        W47762  12.377  38.474   2.327
75338W        W47763  13.298   4.326  10.685
75339W        W47764  13.770   9.370  10.727
75340W        W47765  18.505  25.552  10.454
75341W        W47766  26.729  41.884  11.411
75342W        W47767  29.168  24.437   0.883
75343W        W47768  23.810  34.462  13.850
75344W        W47769  11.171   7.733   5.404
75345W        W47770  36.099  30.003   0.436
75346W        W47771  21.079  20.294   1.906
75347W        W47772  18.730  24.631  12.825
75348W        W47773  26.038  31.567   0.879
75349W        W47774  41.257  19.211   0.366
75350W        W47775  31.021  37.786  10.415
75351W        W47776   0.729  38.453  14.906
75352W        W47777  28.952   3.320  13.443
75353W        W47778   8.330  21.654   3.605
75354W        W47779  14.146  22.273   4.566
75355W        W47780  22.835  42.337  13.545
75356W        W47781  32.095  31.810  12.023
75357W        W47782   8.226  20.757   3.040
75358W        W47783  17.666   7.784   0.347
75359W        W47784  32.833   0.753  14.957
75360W        W47785  28.610  27.223  11.591
75361W        W47786  24.540  20.695   3.913
75362W        W47787  12.641  41.954   1.192
75363W        W47788  42.426  12.963  11.785
75364W        W47789  16.726  42.979  13.344
75365W        W47790   7.325   5.712   1.927
75366W        W47791  41.835  28.580   1.153
75367W        W47792  28.902  37.755   4.166
75368W        W47793  38.688  19.378  10.816
75369W        W47794  36.890  20.707  11.825
75370W        W47795  14.239  43.741   3.194
75371W        W47796  44.292  14.105   1.263
75372W        W47797  27.578  38.510   4.012
75373W        W47798  30.832  41.818  12.469
75374W        W47799   8.707  14.884   3.233
75375W        W47800  12.616  26.515  13.842
75376W        W47801  44.548  27.042  14.081
75377W        W47802  21.205  10.706   9.961
75378W        W47803   0.563   4.698   2.152
75379W        W47804  39.011  23.946  12.909
75380W        W47805  35.377  38.089  13.328
75381W        W47806  34.898  39.960  12.004
75382W        W47807  22.267  33.177  13.360
75383W        W47808  38.767  42.723   9.744
75384W        W47809  36.947  15.514  10.681
75385W        W47810  28.115  37.867   0.456
75386W        W47811  31.398  43.383  11.462
75387W        W47812  13.693  36.275  14.818
75388W        W47813  14.094  14.372  14.875
75389W        W47814  40.275  36.908   2.334
75390W        W47815  19.696   6.345   5.008
75391W        W47816  14.172  37.072  14.383
75392W        W47817  15.738  11.149  12.344
75393W        W47818  32.112  30.089   4.849
75394W        W47819  27.164   1.548   3.353
75395W        W47820  20.559  41.417   1.185
75396W        W47821  19.610  37.847  10.670
75397W        W47822   2.002   6.275   4.492
75398W        W47823  13.289  21.672  10.203
75399W        W47824  18.730  31.341  10.817
75400W        W47825  31.575  13.570   4.136
75401W        W47826   5.339   7.862  10.787
75402W        W47827  17.077  33.884   3.372
75403W        W47828  29.193  31.074   1.970
75404W        W47829  11.918  15.295   3.939
75405W        W47830  28.512  28.394   3.682
75406W        W47831  38.908  16.775  14.363
75407W        W47832  41.042  26.575  10.705
75408W        W47833   4.823  13.582  10.834
75409W        W47834  16.288   6.085  11.006
75410W        W47835  37.519  42.480  12.600
75411W        W47836  30.894  21.264  12.075
75412W        W47837  39.610  14.180  14.140
75413W        W47838  21.690  17.700  14.602
75414W        W47839  29.578  39.512   3.658
75415W        W47840  17.738  44.927  12.380
75416W        W47841  37.077   8.415   5.138
75417W        W47842  32.105  29.198  11.942
75418W        W47843  33.185  41.850  13.043
75419W        W47844  40.252  21.011  11.132
75420W        W47845  12.545   3.164  13.925
75421W        W47846  38.302   9.426  11.893
75422W        W47847  15.674  18.281   3.725
75423W        W47848  34.947  41.969   2.783
75424W        W47849   4.741  21.784  11.602
75425W        W47850  34.600  18.318  13.780
75426W        W47851  25.797  43.758   2.202
75427W        W47852  18.244  32.971  14.819
75428W        W47853  21.438  20.789   0.454
75429W        W47854  20.862   1.186   0.734
75430W        W47855  22.913  15.364  13.532
75431W        W47856  43.736  41.238   0.028
75432W        W47857  40.310   3.974   1.945
75433W        W47858  37.870  39.461  14.021
75434W        W47859  41.813   0.018  11.998
75435W        W47860   4.952  40.170  14.714
75436W        W47861  11.862  11.981   1.966
75437W        W47862  34.044  11.001   0.789
75438W        W47863  44.714  32.093  12.119
75439W        W47864   1.502  35.811   3.661
75440W        W47865  13.273  16.591   1.198
75441W        W47866  18.341  28.695   2.710
75442W        W47867   8.451   4.628   4.145
75443W        W47868  19.292  35.416   3.458
75444W        W47869   9.948  40.326  10.784
75445W        W47870   8.962  23.990   2.231
75446W        W47871  10.279   3.810   1.499
75447W        W47872  16.154  29.223  14.330
75448W        W47873  17.315  14.022   1.213
75449W        W47874  41.425  30.380  11.035
75450W        W47875  26.608  15.629   2.901
75451W        W47876  27.231  38.781  10.178
75452W        W47877   9.611  31.111   3.575
75453W        W47878  29.010  28.597   2.356
75454W        W47879   6.727  25.481   2.220
75455W        W47880  18.822  18.606  12.976
75456W        W47881  28.573   9.219   0.820
75457W        W47882  34.571  41.761  11.953
75458W        W47883   2.512  21.193   3.536
75459W        W47884  14.144   7.202   2.377
75460W        W47885  24.772   1.893  14.389
75461W        W47886  43.874  18.635   2.933
75462W        W47887  22.668  41.464  14.063
75463W        W47888  41.533  11.065   3.675
75464W        W47889  26.788  11.253  11.306
75465W        W47890  23.919  21.069   0.717
75466W        W47891   3.390  16.142  14.517
75467W        W47892  34.846  11.804   3.174
75468W        W47893  10.060   9.230   0.657
75469W        W47894   0.310  27.360  14.567
75470W        W47895  19.248  34.550   0.153
75471W        W47896  38.579  34.484   2.339
75472W        W47897  18.062  23.635   0.433
75473W        W47898   6.405  22.934   4.668
75474W        W47899  21.951  36.357   1.930
75475W        W47900  10.250  39.583   1.217
75476W        W47901  13.107  32.672  11.587
75477W        W47902   5.945  25.729  11.130
75478W        W47903   8.050  41.354   0.760
75479W        W47904  34.275  34.389   1.172
75480W        W47905  28.230  12.358   2.868
75481W        W47906  11.654  15.880  12.812
75482W        W47907  27.961  19.543  12.446
75483W        W47908  20.846  15.188  14.321
75484W        W47909  26.934  18.097  12.962
75485W        W47910  40.463  14.125  13.070
75486W        W47911  20.374  33.405   2.815
75487W        W47912  38.649  35.932   2.339
75488W        W47913  42.508  29.757  10.595
75489W        W47914   4.709  36.378   2.883
75490W        W47915  28.948   2.962   0.248
75491W        W47916   8.423  20.853  13.493
75492W        W47917   2.950   9.197  13.328
75493W        W47918  41.071   9.908   3.363
75494W        W47919  10.782  12.282   3.795
75495W        W47920  40.866  40.498   2.381
75496W        W47921  22.792  30.450   2.847
75497W        W47922   1.094  23.432  12.543
75498W        W47923  23.530  23.410   3.180
75499W        W47924  26.820   2.532  14.376
75500W        W47925  29.916   5.202  13.451
75501W        W47926  18.462  42.865   5.016
75502W        W47927  33.871  20.766   1.373
75503W        W47928  21.506  28.532  12.544
75504W        W47929  19.744  34.531   4.728
75505W        W47930  29.072  15.287  13.245
75506W        W47931   0.028   8.823   0.224
75507W        W47932  15.257  15.423   0.430
75508W        W47933  44.188  20.814   2.853
75509W        W47934  10.939   3.863  13.359
75510W        W47935  11.206  33.998   1.226
75511W        W47936   1.923  17.785  13.913
75512W        W47937  23.322  11.163   4.022
75513W        W47938   2.526  33.950   1.211
75514W        W47939  19.217  25.083   3.755
75515W        W47940  31.995  40.602  14.889
75516W        W47941  36.298  12.776   0.979
75517W        W47942  24.498  43.965   4.490
75518W        W47943  41.541  24.680  12.993
75519W        W47944  37.452  24.056   1.766
75520W        W47945  37.023   7.185  14.805
75521W        W47946  11.436  19.095   3.708
75522W        W47947  33.016  24.973  14.960
75523W        W47948  22.452   2.228  13.064
75524W        W47949  32.191  34.377   0.043
75525W        W47950  28.624  43.950  12.856
75526W        W47951  41.924  13.136  12.042
75527W        W47952   7.688  10.381  12.830
75528W        W47953  16.590  21.487   3.105
75529W        W47954   0.229   4.458  14.082
75530W        W47955  16.828  19.002  12.062
75531W        W47956  12.936  31.415  10.984
75532W        W47957  25.709  20.872   4.530
75533W        W47958  38.951  22.199   4.976
75534W        W47959   4.589  20.206  12.352
75535W        W47960  12.518  26.548   2.725
75536W        W47961   0.345  28.833  12.645
75537W        W47962  25.750  19.825   3.690
75538W        W47963  32.877  26.961   0.291
75539W        W47964  12.199  13.193  12.393
75540W        W47965  42.273  39.444   1.913
75541W        W47966   1.244  12.353   2.284
75542W        W47967  32.191  17.960  14.020
75543W        W47968  20.520  27.023   1.228
75544W        W47969   7.355  21.086  12.494
75545W        W47970  27.138  14.292   2.298
75546W        W47971  34.044  34.881  13.047
75547W        W47972  41.795  34.318  12.269
75548W        W47973   1.755  31.094  10.703
75549W        W47974  40.513  32.153   1.249
75550W        W47975  10.180  35.272  11.944
75551W        W47976  42.869  36.217   2.751
75552W        W47977  15.303  26.627  11.698
75553W        W47978   5.810  37.532   3.396
75554W        W47979   2.211  34.746  10.402
75555W        W47980   6.155  39.881  13.380
75556W        W47981  19.694  17.576   2.473
75557W        W47982  14.745   3.558  10.998
75558W        W47983  12.215  37.991   1.073
75559W        W47984  37.662  33.288   3.763
75560W        W47985  22.681   0.020  13.484
75561W        W47986  35.573  17.092   0.460
75562W        W47987  38.963  34.694   1.838
75563W        W47988  30.172  35.333  12.426
75564W        W47989  35.632  27.701  10.638
75565W        W47990  38.508  23.992  12.940
75566W        W47991  15.710  31.112  13.392
75567W        W47992   6.962  28.098   0.224
75568W        W47993   4.400  14.754  13.401
75569W        W47994  37.621  17.639  13.722
75570W        W47995  43.917  30.678   3.783
75571W        W47996  13.419  41.659  13.524
75572W        W47997  17.326   6.396   0.432
75573W        W47998  33.632  15.137  11.585
75574W        W47999  42.951  12.401  13.431
75575W        W48000   4.367  39.043   0.761
75576W        W48001  17.071   4.200  10.563
75577W        W48002  41.860  38.923  13.359
75578W        W48003  39.106  40.352   1.757
75579W        W48004  36.337  12.141  10.972
75580W        W48005   8.433  35.942   1.088
75581W        W48006  34.451  27.049  11.576
75582W        W48007  18.203   2.535   4.005
75583W        W48008  37.393   6.823  14.707
75584W        W48009  20.891  34.018  14.139
75585W        W48010  33.122  13.786   0.895
75586W        W48011  13.526  19.681   4.197
75587W        W48012  13.788  12.140  12.077
75588W        W48013  29.189  17.245  12.038
75589W        W48014  12.578   7.207   2.702
75590W        W48015   7.284  38.381   4.730
75591W        W48016  34.763  39.893  14.539
75592W        W48017  40.630   6.896  11.139
75593W        W48018   7.014  38.102   0.789
75594W        W48019  29.907  34.960  14.774
75595W        W48020  13.314  12.574   1.828
75596W        W48021  14.272  36.079   4.764
75597W        W48022  40.413  21.976   1.629
75598W        W48023  14.265   9.979  14.055
75599W        W48024  30.203  42.829  14.538
75600W        W48025  23.270  17.254  11.924
75601W        W48026  39.859   2.404   1.837
75602W        W48027   4.206  40.062   2.396
75603W        W48028   6.662  24.142  13.350
75604W        W48029  39.491  42.787  14.363
75605W        W48030   3.125  23.201   0.096
75606W        W48031   7.068   7.168   2.430
75607W        W48032   3.513  22.246  11.503
75608W        W48033  26.111  41.282   2.686
75609W        W48034   1.729  14.599  13.179
75610W        W48035  33.547   5.303   4.563
75611W        W48036  41.631  27.946   4.708
75612W        W48037  33.782  25.695   4.053
75613W        W48038  19.286   8.190  11.602
75614W        W48039   4.607  43.933   0.487
75615W        W48040  10.855  42.766   2.861
75616W        W48041  11.973  14.734   5.007
75617W        W48042   9.662   2.391   0.735
75618W        W48043  29.071   6.535   0.387
75619W        W48044   3.260  37.521  10.910
75620W        W48045  35.784   8.873  13.125
75621W        W48046  44.822  35.573  14.140
75622W        W48047  26.168  40.863   0.827
75623W        W48048  13.306  20.250   2.562
75624W        W48049   8.926  39.309   1.881
75625W        W48050  36.032  15.574   3.236
75626W        W48051  31.152   0.661  14.417
75627W        W48052  32.509  40.390   1.727
75628W        W48053  31.601  14.244   3.254
75629W        W48054  19.061  38.880   3.762
75630W        W48055  22.678  21.500   4.593
75631W        W48056  22.039  41.429   0.837
75632W        W48057  17.026  20.105  10.040
75633W        W48058  10.692  27.654  14.444
75634W        W48059  20.964  17.907   3.334
75635W        W48060  21.517  29.597   2.642
75636W        W48061  21.748  24.687  14.213
75637W        W48062  10.509  14.366   2.405
75638W        W48063  42.518  42.079  13.072
75639W        W48064   9.840   2.706  14.780
75640W        W48065   6.609  11.798   0.281
75641W        W48066  29.367  27.343  12.472
75642W        W48067   2.189  38.036  12.873
75643W        W48068  38.624  43.009  14.480
75644W        W48069   2.465   2.246   1.172
75645W        W48070  39.821  10.598   4.768
75646W        W48071  27.754  27.989  13.034
75647W        W48072   0.633  32.383   1.330
75648W        W48073   1.839  36.914   0.958
75649W        W48074  18.007  17.518  11.180
75650W        W48075  26.127  33.328   1.849
75651W        W48076  24.645  31.238   2.678
75652W        W48077  40.973  30.971  14.824
75653W        W48078  27.979  36.974  12.363
75654W        W48079  40.029   1.155  11.970
75655W        W48080  37.802  24.405   1.236
75656W        W48081   1.207  44.409   2.886
75657W        W48082   7.868  34.962  12.545
75658W        W48083   7.271  29.393   0.457
75659W        W48084  22.760  18.283   3.514
75660W        W48085  14.410  28.217   0.380
75661W        W48086   6.258  36.381   3.775
75662W        W48087  40.049  10.212   1.795
75663W        W48088  20.855  10.897  14.377
75664W        W48089  44.431   5.150   2.642
75665W        W48090  15.658   0.004  10.725
75666W        W48091  13.725  42.960  11.562
75667W        W48092  29.243  11.404  10.740
75668W        W48093  31.806  38.817   5.006
75669W        W48094  16.178  14.496   3.362
75670W        W48095   6.290  39.617   2.658
75671W        W48096   6.152  18.771   3.121
75672W        W48097  44.350   8.193  10.896
75673W        W48098  18.558  19.586   4.182
75674W        W48099  14.556  30.465   3.729
75675W        W48100   0.785  16.708  13.782
75676W        W48101  30.035  41.013   1.761
75677W        W48102   5.855  13.193  14.096
75678W        W48103  35.453  20.507   2.362
75679W        W48104   3.162  39.856   0.943
75680W        W48105  33.389   0.474   1.336
75681W        W48106  37.398  23.152   1.288
75682W        W48107  25.162   1.222  12.930
75683W        W48108   8.396  37.567   5.451
75684W        W48109  32.053  37.567   1.329
75685W        W48110   6.282  17.110   1.167
75686W        W48111   4.441  26.138  10.992
75687W        W48112  36.021  31.948  11.208
75688W        W48113  34.100  13.747  12.683
75689W        W48114  34.134   7.625  14.254
75690W        W48115  23.056   5.340  13.919
75691W        W48116  12.951  42.858   0.437
75692W        W48117  36.769  12.292  14.708
75693W        W48118  42.528  19.682   3.405
75694W        W48119  29.765  18.953   0.783
75695W        W48120  31.672  21.523  13.114
75696W        W48121  14.340   7.829   1.273
75697W        W48122  16.284   6.259   0.688
75698W        W48123  18.607  12.634  10.488
75699W        W48124  18.814   9.698   2.173
75700W        W48125  32.805  22.552  11.891
75701W        W48126  13.721  10.128  12.350
75702W        W48127  18.149  11.119  14.772
75703W        W48128  37.477  37.825  13.559
75704W        W48129  15.814  30.421   5.276
75705W        W48130  34.009  14.353   2.895
75706W        W48131   0.460  13.043   1.244
75707W        W48132  26.062  43.359  13.594
75708W        W48133   2.430  38.463   4.309
75709W        W48134   3.914  11.300   4.260
75710W        W48135  15.320  15.318  13.352
75711W        W48136  32.537  16.071  13.505
75712W        W48137  41.380  16.695  13.291
75713W        W48138  33.161  13.073   1.168
75714W        W48139  21.203  43.219  10.615
75715W        W48140  17.317   7.245  10.706
75716W        W48141  19.492  42.896   0.009
75717W        W48142  33.564  10.584  14.512
75718W        W48143   1.369  31.790  13.065
75719W        W48144  14.909  37.436  13.886
75720W        W48145  35.610   2.733  11.049
75721W        W48146   7.278  28.444   4.851
75722W        W48147  32.965  21.788   3.338
75723W        W48148  19.672  22.884  14.028
75724W        W48149   4.578  18.449  14.050
75725W        W48150  15.218  31.883  13.415
75726W        W48151   2.846  41.648  13.524
75727W        W48152  18.726  23.801   4.199
75728W        W48153  26.008  15.575   3.388
75729W        W48154   3.711  30.932   4.861
75730W        W48155   1.920  29.065  12.994
75731W        W48156  44.617  27.827   0.847
75732W        W48157   0.928  11.396  11.060
75733W        W48158   3.398  44.459   0.038
75734W        W48159  20.048  38.463  11.951
75735W        W48160  35.297  12.150   3.673
75736W        W48161  10.177  19.160  14.438
75737W        W48162  39.497  41.695   3.620
75738W        W48163  40.490  30.447  13.039
75739W        W48164  35.601  31.842   0.336
75740W        W48165  32.804  21.587  14.143
75741W        W48166  28.416  14.283   0.681
75742W        W48167  41.981  42.944   1.966
75743W        W48168  31.550  37.829  11.267
75744W        W48169  21.068  44.268  11.485
75745W        W48170  22.583   0.292   1.959
75746W        W48171  43.940  10.629  14.822
75747W        W48172  14.337  31.117   3.663
75748W        W48173  38.779  16.032   1.213
75749W        W48174  41.899  27.668   3.848
75750W        W48175  10.653  10.213   3.771
75751W        W48176  37.487  32.373  12.541
75752W        W48177  17.030  28.001  12.383
75753W        W48178  37.670  15.127   3.696
75754W        W48179  15.239  21.723   3.144
75755W        W48180   3.096  14.319   2.088
75756W        W48181  29.013  42.679  14.493
75757W        W48182   3.913   8.724  11.752
75758W        W48183  44.403   0.221  12.866
75759W        W48184  36.641  22.284  13.410
75760W        W48185  14.389  14.263  11.631
75761W        W48186  13.043  12.344   3.231
75762W        W48187  44.455   7.890   1.262
75763W        W48188   3.714   8.357  14.254
75764W        W48189   6.914   5.408  11.357
75765W        W48190  31.940  24.094   4.179
75766W        W48191  29.663   9.359   1.770
75767W        W48192  33.179  33.496   3.199
75768W        W48193  21.492  36.543  11.578
75769W        W48194  24.686  34.707  10.762
75770W        W48195  31.922   4.844   1.388
75771W        W48196  23.305  41.366   3.827
75772W        W48197  23.465  23.219  13.012
75773W        W48198  15.635   1.372  10.882
75774W        W48199  14.009  30.647   2.899
75775W        W48200   7.848  10.858  13.853
75776W        W48201  24.101   2.549   2.349
75777W        W48202  40.035  44.855  13.004
75778W        W48203  31.976  29.405   1.898
75779W        W48204  25.568   5.758  11.087
75780W        W48205  10.601  35.150   1.114
75781W        W48206  17.672  32.375  12.890
75782W        W48207  32.670   5.899  14.380
75783W        W48208  28.059   5.185   0.205
75784W        W48209  33.326  22.459  13.882
75785W        W48210  41.601   5.944  11.207
75786W        W48211   5.144  36.383  14.446
75787W        W48212   5.860  16.577   5.022
75788W        W48213  24.081  40.276  14.373
75789W        W48214  12.433   6.936   4.170
75790W        W48215  43.956   2.821  12.101
75791W        W48216  42.149  39.087   0.487
75792W        W48217  23.050  11.706   9.638
75793W        W48218  24.542  37.425   1.722
75794W        W48219  14.876  10.256  10.610
75795W        W48220  18.982  12.735  11.440
75796W        W48221  14.183  19.404  13.891
75797W        W48222  41.389   2.922  14.947
75798W        W48223  16.727  39.869   2.168
75799W        W48224  37.929  34.969  12.999
75800W        W48225  18.690   5.015  11.191
75801W        W48226  16.125  11.441  14.071
75802W        W48227   4.044  29.353   0.414
75803W        W48228   3.790  36.574   1.358
75804W        W48229  35.859   5.822   1.236
75805W        W48230  29.054  22.168   1.493
75806W        W48231   0.824  44.877   0.255
75807W        W48232   7.750  32.648  11.769
75808W        W48233  39.460  22.857   1.619
75809W        W48234  31.849   7.682   2.772
75810W        W48235  34.809  20.002   0.832
75811W        W48236  16.617  16.350  14.798
75812W        W48237   4.641  33.161   2.304
75813W        W48238  15.839  22.535   4.555
75814W        W48239  21.386  44.601  12.442
75815W        W48240  32.582   7.286   4.769
75816W        W48241   3.851  42.246   1.665
75817W        W48242   0.851  26.700   4.122
75818W        W48243  14.996  30.909  11.418
75819W        W48244   8.608  40.489  11.365
75820W        W48245  11.822  44.415  11.883
75821W        W48246  26.211  15.943  14.402
75822W        W48247  40.598  17.155  12.421
75823W        W48248  32.577  16.820  10.715
75824W        W48249  22.930  40.835  12.045
75825W        W48250  21.125  44.348   2.240
75826W        W48251  31.308  35.355  12.455
75827W        W48252  27.052  18.249  11.416
75828W        W48253  37.272  23.116  11.504
75829W        W48254   6.151  21.709   2.345
75830W        W48255  16.065   2.385  10.987
75831W        W48256  25.119  29.547   2.881
75832W        W48257  29.946  44.476  11.586
75833W        W48258   0.942  16.228  14.629
75834W        W48259  32.978  23.449  14.002
75835W        W48260   4.705  24.772   4.483
75836W        W48261  17.227  12.047  13.845
75837W        W48262   7.775   0.356   2.289
75838W        W48263  35.339   5.229   1.876
75839W        W48264   0.892  10.176  13.382
75840W        W48265  32.114  26.299  14.916
75841W        W48266  15.104  27.138  11.572
75842W        W48267  19.055   4.932   0.244
75843W        W48268  44.933   8.888  12.987
75844W        W48269  19.666  27.584   4.579
75845W        W48270  14.819  27.373  13.976
75846W        W48271  14.353  33.610  14.580
75847W        W48272  43.783  33.145  11.491
75848W        W48273  27.122   6.575   2.117
75849W        W48274  24.533   3.779  10.621
75850W        W48275   3.263   3.448  12.523
75851W        W48276  22.601  19.868   4.622
75852W        W48277  32.754  11.797  13.832
75853W        W48278  10.727  16.687   3.228
75854W        W48279  18.745   1.498  13.761
75855W        W48280  15.614   4.843  14.590
75856W        W48281  29.190  43.563  10.350
75857W        W48282  40.781   3.316  13.376
75858W        W48283  39.175  19.601  14.819
75859W        W48284  31.546  32.172  14.526
75860W        W48285  16.262  24.575   2.791
75861W        W48286   7.824   1.042  10.271
75862W        W48287   6.724  27.251   0.049
75863W        W48288  15.549  32.984  14.043
75864W        W48289  42.207  28.555  11.146
75865W        W48290  25.037  25.093  14.098
75866W        W48291  23.900   2.663   0.207
75867W        W48292   9.424  33.514  11.216
75868W        W48293  24.483   3.253   4.636
75869W        W48294  17.176  22.223   3.224
75870W        W48295   0.221   2.827  14.963
75871W        W48296   6.173  30.295   3.650
75872W        W48297   0.683  25.114  10.386
75873W        W48298  26.065   0.869   2.149
75874W        W48299  33.502  12.376  13.328
75875W        W48300   5.109  15.400  14.450
75876W        W48301   6.441   7.283   2.616
75877W        W48302   4.833  35.768  13.454
75878W        W48303   5.918  31.165  11.132
75879W        W48304  18.055  28.496   1.026
75880W        W48305  15.337  29.507  13.321
75881W        W48306  13.606  39.659   1.896
75882W        W48307   2.691   9.184   0.972
75883W        W48308   7.782  21.087  12.907
75884W        W48309  30.387  21.992  14.030
75885W        W48310  14.582  27.441  14.937
75886W        W48311  27.912  28.235   3.615
75887W        W48312  31.090  31.936   1.824
75888W        W48313  22.652  19.701   1.016
75889W        W48314  19.112  32.641  10.160
75890W        W48315  14.283  36.592   4.704
75891W        W48316  33.107  43.590  13.470
75892W        W48317  28.746   6.192  11.698
75893W        W48318  33.534  32.030  12.041
75894W        W48319  30.481  21.369  14.731
75895W        W48320  29.564   5.092   1.917
75896W        W48321   1.723  28.461   0.447
75897W        W48322  25.453  12.437   4.162
75898W        W48323  30.422  18.824  14.855
75899W        W48324  34.728   9.262   4.352
75900W        W48325   5.367  22.012  13.777
75901W        W48326  38.407  44.055  11.147
75902W        W48327  44.703  14.317   2.320
75903W        W48328  33.638  37.447  12.024
75904W        W48329  13.311  19.253   1.823
75905W        W48330   0.739   8.094   4.166
75906W        W48331  19.266  16.970  11.347
75907W        W48332  24.193  36.812  14.346
75908W        W48333  24.552  19.567   0.877
75909W        W48334   1.782  18.837  14.641
75910W        W48335  15.152  14.660   4.977
75911W        W48336  28.191  20.974  11.167
75912W        W48337  37.094  35.956   0.037
75913W        W48338   1.246  32.855   0.790
75914W        W48339   5.642  18.626   4.058
75915W        W48340   1.885   6.218   4.007
75916W        W48341   1.289  30.550  12.591
75917W        W48342  25.967  32.946  12.718
75918W        W48343  29.398  15.828   2.198
75919W        W48344  11.678  16.971   3.701
75920W        W48345  26.983   9.889  11.865
75921W        W48346  11.748  28.793   4.685
75922W        W48347  29.037  20.175   3.046
75923W        W48348  27.522  26.962  13.992
75924W        W48349  37.939  28.451  10.646
75925W        W48350  19.959  41.428   2.453
75926W        W48351  17.133  34.451   3.558
75927W        W48352  23.467  25.607   4.060
75928W        W48353   4.818  30.552  12.898
75929W        W48354  22.736  41.618   2.454
75930W        W48355  29.044   8.673  14.724
75931W        W48356   3.531   1.749   1.238
75932W        W48357  43.847  38.250  13.384
75933W        W48358  11.585  30.495   1.341
75934W        W48359   4.477  23.509  14.315
75935W        W48360  36.883  23.722  14.293
75936W        W48361  16.080   5.015  14.388
75937W        W48362  27.133  17.752   2.858
75938W        W48363  26.609  13.203   2.787
75939W        W48364  38.380  32.973  14.555
75940W        W48365  27.681  19.743  13.917
75941W        W48366  17.328  23.570  13.381
75942W        W48367  28.029  19.190  11.532
75943W        W48368  27.973  40.588   1.859
75944W        W48369  30.971   6.730  12.513
75945W        W48370  43.842  10.947   4.126
75946W        W48371  21.778  25.354   3.268
75947W        W48372  22.902  14.046   1.263
75948W        W48373  11.372  37.591   1.092
75949W        W48374  10.864  31.024  11.348
75950W        W48375  11.868  31.369  14.661
75951W        W48376  38.820  22.074  11.773
75952W        W48377  34.846  13.372   4.146
75953W        W48378  40.550  13.621   1.549
75954W        W48379  41.807  39.412  10.342
75955W        W48380  13.008   3.329  12.403
75956W        W48381   6.170   3.182   3.638
75957W        W48382  37.875  37.539   4.197
75958W        W48383  24.486  44.019  13.975
75959W        W48384  31.253  19.205   5.516
75960W        W48385  34.152  17.262   3.332
75961W        W48386  28.752  21.262  14.414
75962W        W48387  36.505  37.930   3.869
75963W        W48388  33.121  38.298   3.377
75964W        W48389   6.270   2.793   2.242
75965W        W48390  20.461  41.971   4.159
75966W        W48391   6.872  14.535   3.276
75967W        W48392  39.360  43.068   3.246
75968W        W48393  34.153   6.723   0.987
75969W        W48394   6.847  34.069   3.667
75970W        W48395   9.284   3.871   1.763
75971W        W48396  22.148  20.447   3.264
75972W        W48397  29.334   4.006   1.003
75973W        W48398  31.468  31.513  13.516
75974W        W48399  42.925   4.916   4.506
75975W        W48400  11.619   9.649   1.221
75976W        W48401  11.316  26.725  12.484
75977W        W48402  15.146  36.272   3.924
75978W        W48403  43.661  31.827   1.032
75979W        W48404  36.827  33.290   4.719
75980W        W48405  22.932  30.673   3.795
75981W        W48406  12.391   8.319   0.512
75982W        W48407  30.030  19.048   0.119
75983W        W48408  32.883  15.214   0.891
75984W        W48409   5.844   5.814  12.437
75985W        W48410   9.307  20.959  12.150
75986W        W48411  34.334   9.627   4.371
75987W        W48412  15.689  35.999  12.645
75988W        W48413   8.152  25.442  11.649
75989W        W48414  40.611   0.236  10.672
75990W        W48415  12.133  34.692  14.397
75991W        W48416  22.809  12.679   4.800
75992W        W48417  22.190   4.356  10.693
75993W        W48418   3.437   9.439  14.526
75994W        W48419  16.642  25.068  10.751
75995W        W48420  34.345   7.756   3.324
75996W        W48421  20.085  32.652  13.396
75997W        W48422  25.130   5.823  14.058
75998W        W48423   4.029  32.662  11.300
75999W        W48424  18.081  39.898  14.529
76000W        W48425   1.986  20.261  14.732
76001W        W48426   2.309  23.784  11.263
76002W        W48427  24.010  18.996  11.920
76003W        W48428  20.621  32.187  14.310
76004W        W48429  17.263  32.330   0.981
76005W        W48430   6.663  15.536   0.403
76006W        W48431  23.520   1.943  11.122
76007W        W48432  31.678   4.324   1.339
76008W        W48433  35.718   5.894   3.007
76009W        W48434   8.956   0.844   0.563
76010W        W48435  26.358  14.759  10.477
76011W        W48436  17.845   7.828  11.124
76012W        W48437  18.660   9.818  10.365
76013W        W48438  44.547  38.265  11.128
76014W        W48439  29.124  29.873   2.803
76015W        W48440  13.614  27.234  10.686
76016W        W48441   5.791   1.582   1.687
76017W        W48442   5.242   4.960  13.330
76018W        W48443  43.809  32.672  12.501
76019W        W48444  36.118  19.511  11.447
76020W        W48445  37.372  28.394   4.113
76021W        W48446  10.057  30.449   3.453
76022W        W48447   0.772  40.846  13.266
76023W        W48448   6.843  35.909   3.351
76024W        W48449   9.883  17.649   0.951
76025W        W48450  10.957   0.009   2.006
76026W        W48451  17.547  17.393   2.703
76027W        W48452  36.803  35.692  12.088
76028W        W48453  40.105  29.642  10.498
76029W        W48454  26.059   6.532   1.782
76030W        W48455  34.335  10.248   2.831
76031W        W48456   9.624  13.115  11.151
76032W        W48457  22.950  36.487  13.670
76033W        W48458  18.146  24.927   2.823
76034W        W48459  12.148  29.725  11.785
76035W        W48460  22.718  17.751   0.354
76036W        W48461  10.739  12.087   2.346
76037W        W48462  27.333   7.355   1.925
76038W        W48463  13.143   8.721   1.670
76039W        W48464  31.518   3.957   3.355
76040W        W48465  18.740  19.527   4.647
76041W        W48466   8.294  37.918   9.985
76042W        W48467  14.881  35.471   3.363
76043W        W48468  33.591  15.573   3.015
76044W        W48469   6.261  11.654   1.327
76045W        W48470  36.968  24.972  12.458
76046W        W48471  16.280  38.129  11.119
76047W        W48472  31.081  39.500  12.309
76048W        W48473   3.037  23.276   2.666
76049W        W48474  18.064  34.537  14.285
76050W        W48475  33.996  22.597  12.564
76051W        W48476   6.003  22.499   4.176
76052W        W48477   1.327  27.832  11.886
76053W        W48478  32.907  15.187  14.104
76054W        W48479  41.821  37.938   1.247
76055W        W48480  12.116  41.719  13.007
76056W        W48481  18.815  20.626   4.314
76057W        W48482  36.552  14.367   0.228
76058W        W48483  41.343   6.850   1.741
76059W        W48484   7.919   5.519   2.753
76060W        W48485  19.306  18.043  14.815
76061W        W48486  10.871  43.838   1.277
76062W        W48487   7.655  15.204  11.996
76063W        W48488  25.135  27.578  13.524
76064W        W48489  17.224  23.964  11.165
76065W        W48490  40.070   9.116  11.551
76066W        W48491  31.836  23.584  10.617
76067W        W48492  21.698   2.576   0.372
76068W        W48493   3.147   2.400   3.525
76069W        W48494  12.282  41.421  11.547
76070W        W48495  38.313  12.151   1.519
76071W        W48496  36.920  23.557   4.980
76072W        W48497  20.580   4.963   1.269
76073W        W48498   2.440  24.214  13.983
76074W        W48499   3.354  25.954  14.730
76075W        W48500  20.757   5.295   0.930
76076W        W48501  22.575   5.850  13.326
76077W        W48502  37.369  11.580   1.815
76078W        W48503   8.436  23.783   4.082
76079W        W48504  44.703   3.176   1.697
76080W        W48505  38.391  26.190   4.590
76081W        W48506  22.306  18.194  12.939
76082W        W48507  17.019  40.480  12.193
76083W        W48508   9.056  31.560  14.874
76084W        W48509  39.695  30.837   4.631
76085W        W48510  27.871  42.889   0.329
76086W        W48511  39.452  12.033  12.940
76087W        W48512  19.899  20.131  10.573
76088W        W48513  31.098   0.317   0.779
76089W        W48514  31.643  15.691  11.963
76090W        W48515  27.038   5.721   0.358
76091W        W48516  30.790  17.311   4.136
76092W        W48517  18.571  16.655   2.784
76093W        W48518   6.900  17.847  11.695
76094W        W48519  14.520   5.946   0.198
76095W        W48520   8.607  24.905   4.742
76096W        W48521  11.337  15.707  11.485
76097W        W48522  26.355  38.349   0.577
76098W        W48523  43.277  13.626  12.003
76099W        W48524  28.644  27.094  12.098
76100W        W48525  17.593  34.440  13.508
76101W        W48526   4.001  22.591   3.202
76102W        W48527  27.003  41.155  14.108
76103W        W48528  11.030  41.947   0.902
76104W        W48529  36.464  37.631   0.996
76105W        W48530   6.764   9.638   1.764
76106W        W48531  36.440  10.184  13.533
76107W        W48532   5.219  41.468  12.071
76108W        W48533   0.284  30.457  11.496
76109W        W48534  11.302  17.318   0.918
76110W        W48535  35.502   0.295  10.903
76111W        W48536   1.696  37.938   0.423
76112W        W48537  36.701  17.373   2.228
76113W        W48538  19.480  28.157   2.978
76114W        W48539  10.124  16.653  12.062
76115W        W48540   7.806  41.169  13.306
76116W        W48541  12.615  28.407  11.082
76117W        W48542  37.650  14.612   2.826
76118W        W48543  14.087  26.140   4.740
76119W        W48544   1.785   8.340  12.075
76120W        W48545   6.786   8.073   3.568
76121W        W48546  43.019   1.451  14.866
76122W        W48547  23.937  22.711   3.412
76123W        W48548  26.973   9.606   4.156
76124W        W48549  18.043  26.471  12.982
76125W        W48550  12.850  32.586   4.708
76126W        W48551  15.418   4.816   4.158
76127W        W48552  43.549  37.753  10.687
76128W        W48553  41.042  20.179   3.216
76129W        W48554  16.072  37.643   0.717
76130W        W48555  15.319  31.430   1.015
76131W        W48556  26.141  38.047  10.803
76132W        W48557   3.127  10.162   4.912
76133W        W48558  13.369  36.335   1.312
76134W        W48559  44.999   6.972   1.294
76135W        W48560  14.911  18.965  11.034
76136W        W48561  44.317  29.424  13.813
76137W        W48562  18.547  23.585   0.288
76138W        W48563   8.653   8.803   4.581
76139W        W48564  38.473  10.151   0.278
76140W        W48565  28.048   7.626   3.299
76141W        W48566  29.747   0.064  13.446
76142W        W48567  26.550  36.080  11.460
76143W        W48568   3.382  12.340  12.036
76144W        W48569   2.374  38.978  10.114
76145W        W48570  19.598   9.210   3.640
76146W        W48571   9.572  24.414   4.559
76147W        W48572  39.356  28.911   1.936
76148W        W48573   0.578  28.396  12.492
76149W        W48574  39.717  23.578  14.296
76150W        W48575  40.435  35.468   0.672
76151W        W48576  38.321  37.802   0.737
76152W        W48577  36.419  40.740  14.451
76153W        W48578  29.276  21.571   2.190
76154W        W48579  34.653  32.108   1.786
76155W        W48580  20.133  11.040   1.171
76156W        W48581  12.715  37.462  14.486
76157W        W48582  39.065   5.199   1.766
76158W        W48583   8.025  30.979  12.955
76159W        W48584  36.564  33.885  10.726
76160W        W48585  18.121  29.698   2.776
76161W        W48586  32.817  38.885  10.550
76162W        W48587   9.122  22.631  14.947
76163W        W48588  25.251  43.891  14.469
76164W        W48589   2.915  23.622  10.612
76165W        W48590  42.711  13.616   3.002
76166W        W48591  39.411  25.283  12.960
76167W        W48592   0.241  32.973  14.787
76168W        W48593  26.922  43.387  11.010
76169W        W48594  43.525  39.653  11.448
76170W        W48595  32.850  33.991  13.523
76171W        W48596  35.406  23.507   1.842
76172W        W48597  10.909  30.945  12.905
76173W        W48598  22.931  36.293  11.452
76174W        W48599  12.395  21.035   0.930
76175W        W48600  23.712  12.593   4.278
76176W        W48601  30.705   9.692   0.928
76177W        W48602  30.854   8.383  13.508
76178W        W48603   8.617  18.001   3.811
76179W        W48604  34.610  39.063   2.705
76180W        W48605  20.283   2.423  11.594
76181W        W48606  20.215  33.246  12.587
76182W        W48607  41.330  23.587   2.379
76183W        W48608  35.302  16.721   2.458
76184W        W48609  36.513   9.479  14.753
76185W        W48610   8.871  30.965   4.311
76186W        W48611  31.696  14.118  13.933
76187W        W48612   9.382  19.138   3.713
76188W        W48613   4.414  25.058  10.660
76189W        W48614  33.531   3.805   0.206
76190W        W48615   9.604  27.382   3.144
76191W        W48616   1.219  38.440   3.633
76192W        W48617   3.771  22.603   1.813
76193W        W48618   3.650  19.710   2.486
76194W        W48619  10.895  10.180   0.338
76195W        W48620  13.747  15.308  11.122
76196W        W48621  20.463  37.494  12.882
76197W        W48622   2.564  43.220  11.080
76198W        W48623  30.679  43.988   5.037
76199W        W48624   2.326   0.773   1.421
76200W        W48625  11.268  34.908   4.859
76201W        W48626  26.703  18.338  10.209
76202W        W48627   2.118  14.085   3.998
76203W        W48628  33.328   2.487  11.452
76204W        W48629  26.510  16.731  10.721
76205W        W48630  44.239  42.532  11.046
76206W        W48631  34.481  28.217  14.368
76207W        W48632   6.392  14.055   1.176
76208W        W48633  33.558  34.050   1.663
76209W        W48634  30.001  43.227  11.413
76210W        W48635  33.419  19.763  12.377
76211W        W48636  23.568  34.044  10.887
76212W        W48637  36.996   3.744   0.198
76213W        W48638   4.036  34.539   1.922
76214W        W48639   7.100  35.801  11.689
76215W        W48640  30.155  23.983   1.751
76216W        W48641   4.360  44.382   1.936
76217W        W48642  40.886  37.500  14.503
76218W        W48643   4.519  36.141   0.370
76219W        W48644  29.699  23.512  13.658
76220W        W48645  32.638  26.201   4.703
76221W        W48646  30.989   6.649  13.354
76222W        W48647  42.915  30.668  13.070
76223W        W48648  25.477  15.362  12.619
76224W        W48649   9.302  43.359  11.426
76225W        W48650  26.537   8.268   1.352
76226W        W48651  32.536  10.309   3.653
76227W        W48652  39.934  32.192  11.620
76228W        W48653   1.128   6.854   2.823
76229W        W48654   0.464  33.344   2.861
76230W        W48655  39.034  13.919   4.041
76231W        W48656  34.047  32.732  14.702
76232W        W48657  33.475   8.540  13.998
76233W        W48658   9.281   7.918   2.729
76234W        W48659  30.474  13.683  14.918
76235W        W48660  44.590  18.536  11.192
76236W        W48661  27.198  18.303  13.762
76237W        W48662  22.592  19.566  14.916
76238W        W48663  24.291  12.294   0.308
76239W        W48664  19.311   7.328  12.581
76240W        W48665  16.870   0.747  14.532
76241W        W48666  38.663  21.140   4.684
76242W        W48667  41.964   5.801   4.160
76243W        W48668  44.876  41.557   4.156
76244W        W48669  29.618   2.862   1.648
76245W        W48670  21.136  34.423   0.937
76246W        W48671  37.026  36.727   3.665
76247W        W48672  15.303   3.123   3.292
76248W        W48673  33.652  44.449   2.795
76249W        W48674  11.318  29.868  10.568
76250W        W48675  42.380  21.248   0.975
76251W        W48676   3.297  19.668  11.776
76252W        W48677  33.063  40.832  14.066
76253W        W48678  34.674  14.738  14.223
76254W        W48679   8.224  20.605   0.352
76255W        W48680  39.079  20.528  11.445
76256W        W48681  39.745  13.226   1.650
76257W        W48682  23.803   4.500  11.974
76258W        W48683   4.658  17.234   3.371
76259W        W48684  15.904   0.412  11.145
76260W        W48685  13.603   3.466   4.895
76261W        W48686   6.569  35.585  12.870
76262W        W48687  19.070  29.371  11.573
76263W        W48688   1.455  34.019   4.952
76264W        W48689  26.150   9.736  13.815
76265W        W48690  35.005  29.126   3.658
76266W        W48691  43.935  41.507  11.612
76267W        W48692  41.951  21.960   2.374
76268W        W48693  37.917  12.851  14.812
76269W        W48694  12.809  44.381  10.754
76270W        W48695  43.861  38.287  12.833
76271W        W48696   2.674  22.542   3.601
76272W        W48697  28.487   9.243   1.336
76273W        W48698  39.467  10.714  14.411
76274W        W48699   8.433   9.377   0.222
76275W        W48700  34.500   2.429  11.500
76276W        W48701  18.165  13.357  14.721
76277W        W48702  29.436  24.444   1.356
76278W        W48703  14.525  43.770   0.271
76279W        W48704  20.129   0.545  14.927
76280W        W48705  10.577  29.564   2.160
76281W        W48706  22.933   1.797  10.517
76282W        W48707  11.739  25.696  10.841
76283W        W48708  11.772  42.536  13.388
76284W        W48709  21.681  35.392   2.846
76285W        W48710  31.658  43.865   4.737
76286W        W48711  25.185  30.015   2.190
76287W        W48712  40.816  39.616   0.466
76288W        W48713  17.182  32.039   9.733
76289W        W48714  13.528  33.477   5.252
76290W        W48715  38.152  27.445   0.318
76291W        W48716  30.939  33.967  10.477
76292W        W48717  44.426  29.587   4.222
76293W        W48718  18.718  22.128   4.115
76294W        W48719  10.586  27.813  10.249
76295W        W48720   6.957  28.009  12.472
76296W        W48721  17.340  38.522   0.621
76297W        W48722  35.894   3.543  14.315
76298W        W48723  43.399  40.439   1.256
76299W        W48724  16.324  20.097   0.691
76300W        W48725  19.555  28.459  11.974
76301W        W48726  26.087   6.583   0.745
76302W        W48727  17.161  29.719   1.283
76303W        W48728  40.105  39.380   4.731
76304W        W48729  43.785  44.046  13.902
76305W        W48730  35.868  34.524   4.115
76306W        W48731  35.857  17.727  14.388
76307W        W48732  12.732  41.525   4.327
76308W        W48733  42.259  34.292  13.280
76309W        W48734  26.519  19.160   4.173
76310W        W48735  23.035  40.845  10.574
76311W        W48736  24.639  12.790   0.425
76312W        W48737   7.375  15.414   0.975
76313W        W48738  21.173   2.218   4.792
76314W        W48739  32.964  24.847  12.946
76315W        W48740  13.953  16.678   1.808
76316W        W48741  22.228  12.309   2.228
76317W        W48742  41.880   7.506  12.453
76318W        W48743  30.379  10.874  14.334
76319W        W48744  13.334   5.169   5.070
76320W        W48745  20.021  16.118   3.910
76321W        W48746  30.696  23.975   0.540
76322W        W48747   1.029  34.588  10.973
76323W        W48748  24.437  36.088   4.889
76324W        W48749  23.621  37.583  13.638
76325W        W48750  40.524  37.090  11.536
76326W        W48751   2.956  23.200   4.661
76327W        W48752  42.922  44.753  13.500
76328W        W48753  23.823  36.289  14.870
76329W        W48754  31.743   2.331   3.843
76330W        W48755  12.876  43.536   1.297
76331W        W48756  33.872  16.146  11.479
76332W        W48757  10.649  31.030   2.796
76333W        W48758   7.727  12.875   3.140
76334W        W48759  22.050  26.625  12.443
76335W        W48760   7.420  34.308  11.427
76336W        W48761  23.793   0.498  11.477
76337W        W48762  33.016  39.686   3.768
76338W        W48763  22.846  29.796   0.394
76339W        W48764  43.534  43.442  14.384
76340W        W48765  39.413  23.642  10.718
76341W        W48766  26.757  30.351   3.194
76342W        W48767  17.588   5.247  13.882
76343W        W48768  21.544  34.597   0.425
76344W        W48769   1.199  40.563   1.860
76345W        W48770  31.121  26.469   1.196
76346W        W48771  33.687  35.438   3.306
76347W        W48772   4.647  30.620   4.206
76348W        W48773  16.326  23.039  11.403
76349W        W48774  40.771  16.806   0.344
76350W        W48775   1.144  33.742  13.860
76351W        W48776  12.642  10.940   2.359
76352W        W48777  37.553  15.547   1.913
76353W        W48778   6.163  14.263   4.582
76354W        W48779   8.544   9.004   9.578
76355W        W48780  22.097  30.714   2.291
76356W        W48781  44.917  10.143  14.257
76357W        W48782  13.687  24.226   1.648
76358W        W48783  37.588  18.222   2.102
76359W        W48784   6.774  14.879   1.747
76360W        W48785   6.304   2.010   1.100
76361W        W48786  23.056   3.157   2.376
76362W        W48787  41.505  16.259   0.283
76363W        W48788  41.101  11.074   1.880
76364W        W48789  12.908   8.387  14.351
76365W        W48790  26.441   8.774   0.677
76366W        W48791  44.369   6.414  12.514
76367W        W48792   8.426   5.962   1.314
76368W        W48793  24.041   8.850  13.264
76369W        W48794  12.649  19.077   2.887
76370W        W48795  42.779   4.628  10.405
76371W        W48796  31.440  10.312  11.169
76372W        W48797   3.138  37.834   2.304
76373W        W48798  44.878  10.824  10.630
76374W        W48799  15.179  21.502  13.685
76375W        W48800   0.852  29.936   1.868
76376W        W48801  17.693  11.313   4.718
76377W        W48802   3.742  42.364   2.157
76378W        W48803  39.875   4.353   0.747
76379W        W48804  18.975  16.646  11.662
76380W        W48805  23.685  39.950  10.757
76381W        W48806   0.032  44.469   2.452
76382W        W48807  12.716  31.365  14.454
76383W        W48808  10.368  37.268   0.668
76384W        W48809  17.250  23.239  12.944
76385W        W48810  10.453  27.651   3.820
76386W        W48811  17.808  10.634   2.013
76387W        W48812  19.144  28.100   1.922
76388W        W48813  10.928   8.827  12.815
76389W        W48814  34.287   6.287   2.694
76390W        W48815  22.743  35.465  12.963
76391W        W48816  29.957  11.482  13.479
76392W        W48817  31.898   4.464   0.900
76393W        W48818  26.023  12.190  11.662
76394W        W48819  20.924  42.868  10.336
76395W        W48820   2.529  31.976   0.456
76396W        W48821  42.410  36.285   4.053
76397W        W48822   6.949   4.075  14.909
76398W        W48823  10.439  15.526  14.427
76399W        W48824  30.052  37.097   3.255
76400W        W48825  32.524  22.264  11.463
76401W        W48826  31.916  37.043  13.979
76402W        W48827  28.206   2.956   1.042
76403W        W48828  18.898  19.012   3.096
76404W        W48829  11.929  21.580   1.356
76405W        W48830  40.806  15.251  13.408
76406W        W48831  29.558  17.282  10.932
76407W        W48832  20.338  16.623   0.282
76408W        W48833   5.832  27.014  14.200
76409W        W48834  17.620  25.706   4.940
76410W        W48835   2.548  13.463   1.786
76411W        W48836  37.883  11.303  11.619
76412W        W48837  38.366   7.106   0.540
76413W        W48838  29.616   0.631  11.988
76414W        W48839  13.755  15.124   4.254
76415W        W48840  26.003  16.701  14.923
76416W        W48841  34.518   1.910  13.616
76417W        W48842  42.726  28.572  11.159
76418W        W48843   1.861  28.052   4.529
76419W        W48844  26.377  33.070   1.095
76420W        W48845   4.982  12.714   0.480
76421W        W48846  30.084   7.934   0.500
76422W        W48847  37.604   1.877   4.490
76423W        W48848  13.001  41.266  11.151
76424W        W48849  14.097  10.384   1.807
76425W        W48850   4.846  24.296  11.425
76426W        W48851  12.097  43.799   4.206
76427W        W48852  21.007  14.200  10.629
76428W        W48853  17.678  17.059   0.969
76429W        W48854  38.312  33.109   3.761
76430W        W48855  11.754  43.498  14.942
76431W        W48856  44.286   1.856  11.527
76432W        W48857  22.567   4.238  12.184
76433W        W48858  40.804  37.324   0.059
76434W        W48859  19.481  30.474  10.345
76435W        W48860  19.290  26.623  12.453
76436W        W48861  22.219  34.485  10.284
76437W        W48862  42.417  39.752   2.640
76438W        W48863  11.093   2.201   1.355
76439W        W48864   6.522  34.994   1.216
76440W        W48865  29.565  30.985  11.178
76441W        W48866  38.826   6.856   4.222
76442W        W48867  22.259  29.084   4.144
76443W        W48868  23.765   9.221  12.510
76444W        W48869  43.870  21.087  12.310
76445W        W48870  34.935  40.215  10.235
76446W        W48871   1.006  30.720   3.115
76447W        W48872  12.164  24.191   5.188
76448W        W48873  39.837  18.058  10.440
76449W        W48874  42.750   6.448   2.278
76450W        W48875  17.869  42.826  11.402
76451W        W48876  34.698  34.982   3.622
76452W        W48877  26.776  12.288  10.536
76453W        W48878  44.516  39.602   3.955
76454W        W48879  31.576  31.662   0.431
76455W        W48880  16.675   4.751  12.045
76456W        W48881   1.938  30.828   3.631
76457W        W48882  39.337   5.595   4.213
76458W        W48883  16.290  22.780   0.251
76459W        W48884  39.342  41.688  13.546
76460W        W48885  18.728  38.464   0.885
76461W        W48886  44.486  19.596   0.729
76462W        W48887  10.232   9.692   0.461
76463W        W48888  11.848  20.221   2.776
76464W        W48889  18.034  30.366   3.358
76465W        W48890  40.320  20.516   1.333
76466W        W48891  26.150  12.802   0.920
76467W        W48892   3.207  14.156  13.573
76468W        W48893   6.661  28.446  12.371
76469W        W48894  41.886  10.367   3.098
76470W        W48895  41.389  44.374  12.477
76471W        W48896   5.538   6.416  11.474
76472W        W48897  15.656  18.203   4.709
76473W        W48898   5.636  44.908   2.859
76474W        W48899   0.431  36.421  14.683
76475W        W48900  14.897  38.159  14.204
76476W        W48901   8.253  11.580  10.717
76477W        W48902  29.152   0.955   3.858
76478W        W48903  38.238  28.103   2.875
76479W        W48904  18.633  32.637   4.143
76480W        W48905  24.568  15.662   4.054
76481W        W48906  41.726   4.868  12.238
76482W        W48907  13.215  42.368   4.145
76483W        W48908  12.239   8.863  10.616
76484W        W48909   5.677  29.156  12.526
76485W        W48910  13.531  44.519  11.454
76486W        W48911   8.658  19.450  13.620
76487W        W48912  13.132  33.658   0.872
76488W        W48913  26.208  11.864   1.367
76489W        W48914  18.919  25.432   2.360
76490W        W48915  43.829  33.682   0.361
76491W        W48916   3.960   6.901  13.120
76492W        W48917  17.816   2.807  12.941
76493W        W48918   0.754   7.276  14.236
76494W        W48919  27.621   5.867   1.248
76495W        W48920  37.868  39.880  13.617
76496W        W48921  23.520  24.049   4.568
76497W        W48922   9.205   5.311  10.272
76498W        W48923  14.467  25.093  12.453
76499W        W48924  30.595  36.069   3.701
76500W        W48925  36.046  16.859  13.478
76501W        W48926  43.218  25.681  14.769
76502W        W48927  37.143   4.134   2.820
76503W        W48928  15.862  44.476  10.778
76504W        W48929  10.676  16.599   4.572
76505W        W48930  23.016  35.159   3.621
76506W        W48931  36.451  28.941   1.455
76507W        W48932   2.228  23.353   0.984
76508W        W48933  12.377   9.256   1.694
76509W        W48934   0.291  25.613  14.436
76510W        W48935  10.714  34.466  14.531
76511W        W48936  17.744  24.034   3.758
76512W        W48937  28.088  29.999   4.254
76513W        W48938  43.356  21.270   3.255
76514W        W48939  30.557   6.515   1.322
76515W        W48940   6.384  11.654  11.995
76516W        W48941   3.969  29.493  13.068
76517W        W48942   8.632  25.759   0.309
76518W        W48943  42.978   3.274   0.215
76519W        W48944   5.493  40.571  12.625
76520W        W48945  36.612  37.175  14.721
76521W        W48946  21.105   2.610  11.260
76522W        W48947  33.464  14.667  11.432
76523W        W48948  43.389  10.139  11.994
76524W        W48949  11.868  30.142  13.376
76525W        W48950  28.032  12.864   1.180
76526W        W48951  16.048   6.739  11.623
76527W        W48952  11.623  43.566  13.576
76528W        W48953  21.845   5.688   3.642
76529W        W48954  27.271  31.018   1.166
76530W        W48955  38.535  28.893   3.643
76531W        W48956  14.605  22.567  10.607
76532W        W48957  29.990  24.811  10.656
76533W        W48958   7.464   4.761   0.368
76534W        W48959  10.290   7.258  14.825
76535W        W48960  24.330   0.412   2.820
76536W        W48961  24.270  15.853  13.438
76537W        W48962   9.760  18.207  11.046
76538W        W48963  44.232  32.445  12.041
76539W        W48964  22.468  38.521   0.658
76540W        W48965  42.683   6.973  14.601
76541W        W48966  18.861   7.462  14.302
76542W        W48967  18.139   0.524   2.754
76543W        W48968  20.273  32.566  11.086
76544W        W48969  38.074  40.244   4.824
76545W        W48970  13.255  27.165   2.115
76546W        W48971  41.089  16.011  12.497
76547W        W48972  24.058  35.794  14.032
76548W        W48973  40.254   9.415  11.174
76549W        W48974  29.431   7.621   1.741
76550W        W48975   3.262  29.935   1.846
76551W        W48976  10.505   6.413  10.253
76552W        W48977  33.081  18.616  11.012
76553W        W48978  15.794   4.382  10.690
76554W        W48979   6.918   6.755   3.771
76555W        W48980  12.405  28.025   3.722
76556W        W48981  23.252  44.540  14.057
76557W        W48982  37.564  30.354   1.412
76558W        W48983  32.924  33.412  12.898
76559W        W48984  38.796  28.152   1.519
76560W        W48985   0.820  18.885  13.625
76561W        W48986  29.201  31.610   0.148
76562W        W48987   6.840  20.716   3.311
76563W        W48988   0.520  10.452   3.456
76564W        W48989  43.614   6.908   2.949
76565W        W48990  23.257  40.255  11.428
76566W        W48991  20.843  12.557  13.629
76567W        W48992  12.693  31.559  12.955
76568W        W48993  38.206  34.955  12.570
76569W        W48994  28.821  27.219   1.433
76570W        W48995  13.380  40.309   0.337
76571W        W48996  11.740  32.997  13.139
76572W        W48997  41.765   9.066   0.759
76573W        W48998  11.563  26.470   0.402
76574W        W48999  17.661  17.622   0.246
76575W        W49000  36.481  25.495   4.200
76576W        W49001  37.994  44.544  12.164
76577W        W49002   2.242  41.550  13.615
76578W        W49003  10.493  11.363  12.557
76579W        W49004  29.226   8.585  13.794
76580W        W49005  38.638  20.771  11.574
76581W        W49006  28.372  23.027  11.079
76582W        W49007  17.016  16.871   4.033
76583W        W49008  10.884   6.652   3.201
76584W        W49009   8.367  32.731  10.993
76585W        W49010  13.824  41.815   1.798
76586W        W49011  32.881  29.229  12.657
76587W        W49012  42.806   6.963  12.866
76588W        W49013   2.717  32.194  13.065
76589W        W49014   6.205  14.593  11.041
76590W        W49015  32.304  16.222  11.266
76591W        W49016  26.170  23.674  13.063
76592W        W49017  21.514  22.642  13.320
76593W        W49018  43.269  37.419  14.058
76594W        W49019   5.932  32.942   1.278
76595W        W49020  34.948  22.687   3.916
76596W        W49021  16.602  25.153   0.879
76597W        W49022   1.048   8.210   0.774
76598W        W49023  29.907  38.020   1.487
76599W        W49024  27.941  43.377   1.918
76600W        W49025  43.759  18.586  11.608
76601W        W49026  21.381  11.157   2.432
76602W        W49027   0.461  33.901   1.438
76603W        W49028  30.563  33.710  13.488
76604W        W49029  15.894   7.868   2.778
76605W        W49030   9.335  41.470  14.439
76606W        W49031  10.409  42.591   2.666
76607W        W49032   8.528  37.976   9.522
76608W        W49033  44.836  44.028  13.525
76609W        W49034  16.628  18.138  12.699
76610W        W49035  42.037  43.459   1.912
76611W        W49036  30.526  13.625   4.548
76612W        W49037   5.663  17.021   4.282
76613W        W49038  43.403  36.935   2.935
76614W        W49039   5.205  41.933   4.301
76615W        W49040  15.666  36.484   1.473
76616W        W49041  24.138  29.032  14.818
76617W        W49042   9.762  16.658  13.823
76618W        W49043  31.119  17.142   0.641
76619W        W49044  13.754   8.097   4.173
76620W        W49045  36.908  19.120   0.243
76621W        W49046  30.054  43.587   1.400
76622W        W49047  32.079  30.663   2.429
76623W        W49048  28.231  37.438  14.226
76624W        W49049  14.369  13.636   4.087
76625W        W49050  17.961  40.964   3.228
76626W        W49051  38.373  44.424  14.989
76627W        W49052  11.243  12.106   1.423
76628W        W49053   9.811   5.585   1.707
76629W        W49054  37.870  18.207   2.877
76630W        W49055  35.526   3.319  14.626
76631W        W49056  40.225  33.041   3.200
76632W        W49057  35.989  23.021   2.324
76633W        W49058  37.585  29.937   4.421
76634W        W49059   6.732  26.805   2.304
76635W        W49060  11.787  31.878   1.887
76636W        W49061  38.830  14.909   0.512
76637W        W49062   3.539  41.018   3.088
76638W        W49063  28.514   1.729   3.216
76639W        W49064  44.515  15.739   5.095
76640W        W49065  27.883  34.406  10.998
76641W        W49066  31.455  27.010  12.071
76642W        W49067   2.719  23.081   2.327
76643W        W49068  38.612  15.615  14.987
76644W        W49069  14.379  37.318   4.176
76645W        W49070  29.176   1.431  13.027
76646W        W49071  42.982  24.614  12.064
76647W        W49072  21.562   7.760   3.005
76648W        W49073  16.860  12.427   4.316
76649W        W49074   7.605  13.455  14.441
76650W        W49075  24.697  19.739  12.841
76651W        W49076  21.715   3.203   2.448
76652W        W49077   8.271  14.003   0.725
76653W        W49078  26.547   8.972   3.777
76654W        W49079  28.698  28.625  12.402
76655W        W49080  21.261  23.250   0.488
76656W        W49081  19.541   4.428  11.804
76657W        W49082  42.432  12.750   2.134
76658W        W49083  25.097  39.437  14.705
76659W        W49084  35.537  27.249  13.500
76660W        W49085  34.145   1.246  12.419
76661W        W49086  36.620  43.333   2.365
76662W        W49087   5.281   9.111  14.305
76663W        W49088   7.590  12.576  12.592
76664W        W49089  18.334  18.529  10.991
76665W        W49090   1.248  14.046  14.469
76666W        W49091  12.509  41.122  11.191
76667W        W49092   6.319  14.064  10.220
76668W        W49093  20.670  36.118  11.965
76669W        W49094  44.532  17.749  12.073
76670W        W49095  22.514  29.295   1.727
76671W        W49096  30.105   1.432  12.808
76672W        W49097   6.224  21.962  13.439
76673W        W49098   4.873  16.158   0.006
76674W        W49099   3.610  44.529  10.090
76675W        W49100  22.761  11.691   0.856
76676W        W49101  40.311  38.928  12.654
76677W        W49102  36.281  39.920   0.734
76678W        W49103   5.629   9.323   0.896
76679W        W49104  28.970  23.537  14.254
76680W        W49105  24.048  33.093   4.592
76681W        W49106  27.882  17.227   1.831
76682W        W49107   1.084  15.236  11.154
76683W        W49108  15.269  29.231  14.992
76684W        W49109  24.881  17.755   4.600
76685W        W49110   2.804  41.488   0.421
76686W        W49111  34.979  44.762   4.501
76687W        W49112  25.274  13.863   1.369
76688W        W49113  20.349  41.145   2.145
76689W        W49114   2.903   9.667   3.196
76690W        W49115   6.519  10.245   1.031
76691W        W49116  29.063  44.841   3.300
76692W        W49117  19.710  35.060  12.981
76693W        W49118  43.862   3.103   2.328
76694W        W49119  22.369  22.708   1.024
76695W        W49120  25.558  41.496   0.391
76696W        W49121  26.801  10.804   3.510
76697W        W49122  32.835  26.569   4.088
76698W        W49123   4.347   5.771   4.815
76699W        W49124  23.673  43.914  14.929
76700W        W49125  13.330   7.242   0.897
76701W        W49126   6.224  40.178   1.938
76702W        W49127  39.351  20.197  13.360
76703W        W49128  11.345  31.473  12.449
76704W        W49129  15.603  17.308  10.922
76705W        W49130  16.790  13.410  12.887
76706W        W49131  16.521  24.469   4.597
76707W        W49132  40.764   4.873   1.706
76708W        W49133  41.077   0.989  10.631
76709W        W49134  42.221  34.340   4.123
76710W        W49135  37.698  10.335  13.735
76711W        W49136  31.447  36.930   1.151
76712W        W49137   7.892  39.303   3.933
76713W        W49138  34.993  32.458  14.519
76714W        W49139   7.774  26.902   1.025
76715W        W49140  28.446  22.777  14.297
76716W        W49141   6.066  25.481   3.650
76717W        W49142  29.199  41.866   0.201
76718W        W49143   6.960  43.902   0.249
76719W        W49144  38.365   3.473  11.174
76720W        W49145  26.528   8.199  12.090
76721W        W49146  29.808   3.890  14.581
76722W        W49147  42.053  17.814   4.123
76723W        W49148  43.032  33.069  14.256
76724W        W49149  43.982  31.179  12.500
76725W        W49150  37.105   8.110   3.634
76726W        W49151  37.506  27.453   4.339
76727W        W49152  23.186  26.828  14.053
76728W        W49153   6.100   3.307   4.893
76729W        W49154  36.563  38.133   1.885
76730W        W49155  13.743   4.966   3.212
76731W        W49156  16.194  33.717   1.931
76732W        W49157   8.872  18.036  12.598
76733W        W49158  28.028   1.756  14.312
76734W        W49159  34.074   5.524   0.395
76735W        W49160  36.483   5.320  14.059
76736W        W49161   2.962  14.109   1.642
76737W        W49162  37.637  28.710   3.764
76738W        W49163  19.284  31.072  12.430
76739W        W49164   8.630  10.106  11.117
76740W        W49165  22.585  25.998   4.633
76741W        W49166  28.865   7.477   2.217
76742W        W49167  24.633  30.981  13.871
76743W        W49168  43.314  18.692  13.277
76744W        W49169  25.078  34.332   9.976
76745W        W49170  27.946  35.394   0.734
76746W        W49171  43.094   5.232  14.721
76747W        W49172  16.675  10.578   2.431
76748W        W49173   0.293   6.463  10.674
76749W        W49174  12.770  23.649   4.249
76750W        W49175  29.158  17.823   1.206
76751W        W49176   9.908   9.435  13.327
76752W        W49177   9.709  17.285  12.649
76753W        W49178   2.402  19.644  10.604
76754W        W49179  27.003   2.073   5.154
76755W        W49180   1.376  14.327   1.338
76756W        W49181  23.472   5.008   3.322
76757W        W49182  24.167  24.988   1.232
76758W        W49183  15.578  11.168   3.692
76759W        W49184  23.018  13.234  12.005
76760W        W49185  13.611  29.239   0.466
76761W        W49186  28.066  27.913  14.786
76762W        W49187  23.185  19.097  10.811
76763W        W49188  38.897  15.262   1.842
76764W        W49189   7.525   8.588   2.437
76765W        W49190   7.761  21.635   3.702
76766W        W49191  29.460  38.866  12.877
76767W        W49192  24.212   9.504   2.710
76768W        W49193  11.509  26.412  13.375
76769W        W49194  10.588  19.663   0.305
76770W        W49195  38.978   2.989   2.566
76771W        W49196   1.841  43.518   1.727
76772W        W49197  17.090  29.552   1.775
76773W        W49198  35.396   1.236   2.225
76774W        W49199  21.198   1.253  12.580
76775W        W49200  24.232  12.772   0.101
76776W        W49201   7.034  15.278  12.910
76777W        W49202  35.334   4.399   1.152
76778W        W49203  25.442  29.481  12.995
76779W        W49204   7.776  18.727   1.992
76780W        W49205  12.150  39.436   2.174
76781W        W49206   6.209  11.860  13.926
76782W        W49207  28.738  16.295  11.380
76783W        W49208  40.067  44.382   0.924
76784W        W49209  44.295  33.059  11.495
76785W        W49210  16.754   5.985   4.229
76786W        W49211  32.935   8.710  11.615
76787W        W49212   3.385   8.745  12.585
76788W        W49213  30.453  12.929   1.370
76789W        W49214  34.268  36.843   2.624
76790W        W49215  34.300  20.317  12.504
76791W        W49216  30.197  28.889   3.260
76792W        W49217  20.214  13.222   1.228
76793W        W49218  29.443   8.648  11.526
76794W        W49219  42.975  23.959   4.574
76795W        W49220  30.700  40.299   0.378
76796W        W49221  34.351  10.424  10.691
76797W        W49222  10.783   5.342  14.926
76798W        W49223   0.642  10.352  10.655
76799W        W49224  25.418   3.447   4.482
76800W        W49225  22.649  18.127   4.248
76801W        W49226  23.082  42.821   0.331
76802W        W49227  15.851  15.248   1.155
76803W        W49228  25.214  37.367   4.616
76804W        W49229  25.635  16.909   9.957
76805W        W49230  35.932   7.737  14.569
76806W        W49231  34.751  40.913   3.694
76807W        W49232   7.181  32.888  12.392
76808W        W49233  39.511  36.959  10.680
76809W        W49234  25.810  21.627   0.340
76810W        W49235   1.871  19.211  11.587
76811W        W49236  26.624  20.980  13.048
76812W        W49237   8.667  17.234  12.871
76813W        W49238   8.790  42.944   0.595
76814W        W49239  23.247  44.676   2.485
76815W        W49240  44.294   9.730   3.837
76816W        W49241  20.818  14.238  13.021
76817W        W49242   3.795   3.763   0.362
76818W        W49243   2.228   1.355   4.950
76819W        W49244  44.389  11.082   1.980
76820W        W49245  10.418  31.077   2.325
76821W        W49246  36.354  37.968   0.041
76822W        W49247   4.095  12.826   2.389
76823W        W49248  21.172  39.427   1.714
76824W        W49249  20.150  32.462   5.635
76825W        W49250   5.249   4.031   1.477
76826W        W49251  12.182  28.924   3.725
76827W        W49252  27.844  21.862   0.237
76828W        W49253  44.907  15.240  12.399
76829W        W49254  42.863  39.102  11.651
76830W        W49255  21.687  43.234   0.950
76831W        W49256  10.229  11.036   2.363
76832W        W49257   8.137   3.947   2.930
76833W        W49258  14.609  43.730  14.369
76834W        W49259  39.384  40.974   0.449
76835W        W49260  19.036   2.096  14.512
76836W        W49261  20.014  23.189  11.057
76837W        W49262  25.461  40.857   4.128
76838W        W49263  43.575  10.439   2.172
76839W        W49264  34.627   4.871  14.001
76840W        W49265  27.095  34.136  10.562
76841W        W49266  25.080  29.711  13.352
76842W        W49267   1.704  22.011   3.256
76843W        W49268  40.330  42.353   9.804
76844W        W49269  11.063  32.597   2.786
76845W        W49270  18.514  17.342  11.187
76846W        W49271  24.591  15.646  13.035
76847W        W49272   9.737  11.417  14.547
76848W        W49273   9.663  34.086   4.363
76849W        W49274   0.057  24.391   0.799
76850W        W49275  21.538  17.029  11.931
76851W        W49276  22.717  13.178  14.321
76852W        W49277  30.454  26.046  13.171
76853W        W49278  41.905   8.473   1.246
76854W        W49279  21.293  17.783   1.829
76855W        W49280  35.526  24.249  11.622
76856W        W49281  10.305   1.777  14.353
76857W        W49282  29.628  30.054  13.289
76858W        W49283  23.495  28.732  11.138
76859W        W49284  24.631  13.241   1.748
76860W        W49285  12.641  29.762  11.945
76861W        W49286  19.840  21.171   1.792
76862W        W49287  18.568   0.943   3.428
76863W        W49288  19.704  11.039   2.960
76864W        W49289  36.378  11.720   3.305
76865W        W49290  34.336  44.979   2.515
76866W        W49291  23.581  19.754  11.425
76867W        W49292  23.517  32.814  11.625
76868W        W49293  27.448  31.547   1.234
76869W        W49294  17.729  41.901   4.436
76870W        W49295  26.149   8.617  14.369
76871W        W49296  42.452  16.461   1.932
76872W        W49297   5.854  38.763  11.607
76873W        W49298  17.684   2.725   1.200
76874W        W49299   5.944  43.341   4.153
76875W        W49300  11.814  15.042  14.312
76876W        W49301  43.218  41.857  14.592
76877W        W49302  33.379  39.972  14.780
76878W        W49303   4.723   0.890  14.544
76879W        W49304  14.980  15.927   2.113
76880W        W49305   4.456  41.602  13.780
76881W        W49306  16.291  21.186   1.786
76882W        W49307  11.403  35.944  11.899
76883W        W49308   9.778   7.412   1.379
76884W        W49309  43.002  32.976   0.972
76885W        W49310  17.781   1.851   5.425
76886W        W49311  32.935  38.345  12.056
76887W        W49312  33.152   2.368  13.201
76888W        W49313   3.872   5.980  12.932
76889W        W49314   3.457  18.007  10.303
76890W        W49315   8.698  23.803  12.378
76891W        W49316  26.642  19.125  10.578
76892W        W49317  25.787   7.779  14.202
76893W        W49318   8.375  40.918  11.555
76894W        W49319   6.071  10.793  11.532
76895W        W49320  23.634  30.737  11.576
76896W        W49321  11.597  10.348   3.869
76897W        W49322  31.595   6.858  14.371
76898W        W49323  13.064   2.233  13.915
76899W        W49324   5.797  31.910   1.395
76900W        W49325   0.215  13.291  12.256
76901W        W49326  39.998  42.558   5.597
76902W        W49327  11.181  31.454   0.373
76903W        W49328  21.492  11.210   0.950
76904W        W49329  28.767  36.002  13.905
76905W        W49330  26.896  15.840  10.392
76906W        W49331  30.082  18.284   4.532
76907W        W49332  16.628  36.097  11.094
76908W        W49333  11.756  12.825   0.007
76909W        W49334  21.206  39.347   4.688
76910W        W49335   2.871  27.313   4.673
76911W        W49336  31.407   4.384  11.516
76912W        W49337  27.854  44.426   0.415
76913W        W49338  22.176  38.020  14.309
76914W        W49339  13.537  13.395  12.154
76915W        W49340  28.925   1.156  13.405
76916W        W49341   9.631  27.612  12.876
76917W        W49342  37.845  23.964  12.320
76918W        W49343   5.877  39.287   4.269
76919W        W49344  36.337  22.895   2.671
76920W        W49345  18.171  14.117  10.719
76921W        W49346  16.810  15.026  11.047
76922W        W49347  17.717  41.590  13.064
76923W        W49348   8.918  29.852   5.084
76924W        W49349  26.101  33.724  14.355
76925W        W49350  35.417   2.502   1.336
76926W        W49351  20.977  25.679  12.020
76927W        W49352  14.895  16.091   3.350
76928W        W49353  20.024  40.008   0.391
76929W        W49354   0.541   7.886  12.963
76930W        W49355  17.060  41.028   4.197
76931W        W49356   5.980  16.581  11.542
76932W        W49357  10.838  11.912  14.793
76933W        W49358  30.372  18.135   2.900
76934W        W49359   9.056  33.740  13.897
76935W        W49360  44.537  15.094   4.064
76936W        W49361  39.478  29.741  12.520
76937W        W49362  39.266  41.196  14.380
76938W        W49363  18.583   1.224  13.353
76939W        W49364  14.184  20.644   3.520
76940W        W49365  16.643  16.616   1.743
76941W        W49366  20.434  27.144  14.257
76942W        W49367  34.630  41.864   1.350
76943W        W49368   4.319  39.092  10.684
76944W        W49369   9.345  43.926   1.373
76945W        W49370  33.054  28.304  14.330
76946W        W49371  39.521   1.664  11.584
76947W        W49372  44.868  15.713   2.735
76948W        W49373  13.600  11.356   0.020
76949W        W49374  16.760  17.728   4.679
76950W        W49375  19.218   8.395   2.807
76951W        W49376  14.104   9.358  12.945
76952W        W49377  39.256   4.391  10.367
76953W        W49378  26.943  31.325   5.456
76954W        W49379  31.989  22.726   1.213
76955W        W49380  25.055  38.333   0.445
76956W        W49381  40.114   4.659  10.832
76957W        W49382  36.345  42.322   1.751
76958W        W49383  23.571   2.440  13.925
76959W        W49384  41.986  31.915  14.965
76960W        W49385  37.436  30.315  14.144
76961W        W49386  41.942   6.277   1.922
76962W        W49387   6.829  32.206  11.664
76963W        W49388  35.615  21.539  12.425
76964W        W49389  27.071  10.769  12.007
76965W        W49390   9.562  25.645   0.306
76966W        W49391  37.869  40.666   1.473
76967W        W49392  26.031  35.323   3.075
76968W        W49393  36.020  36.642  14.284
76969W        W49394   7.378  16.805   3.977
76970W        W49395  10.701  15.147   4.241
76971W        W49396  29.488  25.141  11.570
76972W        W49397  18.785  27.559   2.751
76973W        W49398  41.622  43.688   4.222
76974W        W49399  28.099   7.837   1.976
76975W        W49400  24.589  26.729  14.116
76976W        W49401   4.453  12.716   0.428
76977W        W49402  36.938   6.432  12.110
76978W        W49403   7.160  15.873  12.003
76979W        W49404  37.754  17.488  13.005
76980W        W49405  23.191  22.898   2.704
76981W        W49406  12.609  13.066   2.627
76982W        W49407   3.956  18.576   4.735
76983W        W49408  17.555   9.103   3.697
76984W        W49409  43.989  32.466  14.665
76985W        W49410  16.781  36.788  13.969
76986W        W49411  38.008  38.079  14.418
76987W        W49412  10.165  31.940   2.212
76988W        W49413  18.121  14.302  13.423
76989W        W49414  13.099  21.244   0.407
76990W        W49415   2.295  34.327  10.698
76991W        W49416  17.921  35.474   2.390
76992W        W49417  22.525  27.341  13.073
76993W        W49418  18.009   8.309   3.825
76994W        W49419   0.429   1.974   5.076
76995W        W49420  34.531  11.445  14.177
76996W        W49421   0.427  10.134   1.059
76997W        W49422  44.469  23.824  10.325
76998W        W49423   3.455  32.244  14.583
76999W        W49424  15.102   2.185  14.864
77000W        W49425  24.583  11.132   0.771
77001W        W49426  30.948  13.810   0.022
77002W        W49427  39.474  27.771   0.246
77003W        W49428   3.799   4.237   0.020
77004W        W49429   5.444  28.206   0.454
77005W        W49430  15.589  12.779   4.993
77006W        W49431  19.068  40.010  12.431
77007W        W49432  21.550  23.170   0.941
77008W        W49433   3.781   4.823  14.860
77009W        W49434   3.375   6.949  12.354
77010W        W49435  18.150  31.716  13.577
77011W        W49436   9.819  22.061  13.171
77012W        W49437  30.358  20.208   1.314
77013W        W49438   1.914  16.059  12.603
77014W        W49439  38.463  26.753  12.879
77015W        W49440  37.140  32.725  13.794
77016W        W49441  21.385  28.359   1.979
77017W        W49442  12.865  37.505   0.831
77018W        W49443  37.679  17.498  10.954
77019W        W49444   8.927  16.300   1.216
77020W        W49445  22.480  29.324  12.976
77021W        W49446   4.369  30.311  12.825
77022W        W49447  22.609  37.047   4.872
77023W        W49448   2.404  14.247  11.899
77024W        W49449  11.827  29.463   2.247
77025W        W49450  43.952  30.723  14.390
77026W        W49451  24.704  42.342   1.371
77027W        W49452  39.255   0.929   4.629
77028W        W49453  31.001  40.441   3.129
77029W        W49454  31.342  41.843  12.556
77030W        W49455  36.012   6.765  14.339
77031W        W49456   4.143  14.279  14.724
77032W        W49457   7.296  32.597   3.652
77033W        W49458  23.915  20.526   2.787
77034W        W49459  42.574   1.500   1.369
77035W        W49460  25.228  24.620  10.859
77036W        W49461  28.955  16.336  14.250
77037W        W49462  11.005   5.887   5.186
77038W        W49463  21.012  32.491   1.269
77039W        W49464   2.857  32.291   1.907
77040W        W49465  25.150  24.614   1.937
77041W        W49466  41.286  35.485  13.751
77042W        W49467  28.080  18.797   0.256
77043W        W49468  30.944  10.936   4.992
77044W        W49469  12.550   8.786   3.717
77045W        W49470  20.739  35.179   2.903
77046W        W49471  36.613  21.988   2.722
77047W        W49472  33.695   3.723  14.723
77048W        W49473  11.621  41.081  12.695
77049W        W49474  44.870   9.934  14.786
77050W        W49475  43.972  33.084  14.323
77051W        W49476  36.171  22.517   2.371
77052W        W49477  10.830  21.310   0.765
77053W        W49478  14.174  44.459   1.864
77054W        W49479  30.668  18.143   2.007
77055W        W49480  34.228  28.962   0.498
77056W        W49481   7.428  17.867  13.073
77057W        W49482   9.326  29.078  10.627
77058W        W49483  12.264  10.215   3.220
77059W        W49484  35.949  39.105  11.884
77060W        W49485  30.432  34.247  13.579
77061W        W49486  12.281  25.689  12.483
77062W        W49487  35.944  20.034  12.348
77063W        W49488  34.840  37.649  12.467
77064W        W49489  37.588   1.881   3.004
77065W        W49490  37.729   4.840  14.479
77066W        W49491   9.274  26.849  10.296
77067W        W49492  28.144  37.538  12.929
77068W        W49493  26.545  44.995   3.933
77069W        W49494  25.716  13.941  11.104
77070W        W49495  44.268  36.488  14.838
77071W        W49496   5.744  32.388  10.772
77072W        W49497  13.649  24.605   3.089
77073W        W49498  36.368  27.879  11.175
77074W        W49499   3.267  14.211   0.024
77075W        W49500  16.326  36.808  12.291
77076W        W49501  31.309  31.221   3.143
77077W        W49502  11.189  22.014   1.850
77078W        W49503  13.195  24.048   0.312
77079W        W49504  21.166  22.635  11.961
77080W        W49505  15.431   7.871  11.923
77081W        W49506   5.175  25.080   4.530
77082W        W49507  43.541  10.158   2.620
77083W        W49508   2.955  23.106  14.235
77084W        W49509  11.350  32.862  12.800
77085W        W49510   1.612   8.483  11.185
77086W        W49511  11.432  43.621  11.436
77087W        W49512  16.273  24.256   1.820
77088W        W49513   3.680  24.008  12.283
77089W        W49514  14.213  44.964   3.755
77090W        W49515  11.790  29.223   3.194
77091W        W49516  39.993  43.475  14.258
77092W        W49517  16.481   2.916   2.746
77093W        W49518  18.096  44.564   0.352
77094W        W49519  28.395  24.993  10.268
77095W        W49520  31.998  23.274  14.841
77096W        W49521   3.609   7.616   3.750
77097W        W49522  14.043   0.237  10.985
77098W        W49523  28.925  18.291  11.535
77099W        W49524  28.866  24.090  12.362
77100W        W49525  31.049   7.890  12.395
77101W        W49526  29.660  17.999   4.559
77102W        W49527   8.140  41.212  12.917
77103W        W49528   0.020  20.806   0.705
77104W        W49529  37.276  23.664   0.976
77105W        W49530   4.892   9.244  11.070
77106W        W49531  31.053  35.023  13.443
77107W        W49532  20.539   0.572   2.136
77108W        W49533  15.613  32.660   1.443
77109W        W49534  17.054  40.846  11.025
77110W        W49535  19.660   7.229   0.256
77111W        W49536  40.214   3.068  10.350
77112W        W49537  12.606  39.368   2.811
77113W        W49538  10.794  13.932   2.565
77114W        W49539  26.718  25.344  11.614
77115W        W49540  37.344  40.886   3.568
77116W        W49541  12.587  38.053  11.474
77117W        W49542   4.720  21.559   2.759
77118W        W49543  22.021  11.735   3.103
77119W        W49544  13.325  23.434   2.898
77120W        W49545  35.748   6.297   0.068
77121W        W49546  37.857  32.139  13.842
77122W        W49547  25.036  13.146  11.696
77123W        W49548  39.203  17.906   2.727
77124W        W49549   8.982  42.204   3.930
77125W        W49550  36.876   0.403  13.493
77126W        W49551  28.009   2.182  13.483
77127W        W49552  22.150  19.631  14.218
77128W        W49553  43.955  22.097   2.245
77129W        W49554  40.886  18.578   1.747
77130W        W49555  27.581  28.262   3.181
77131W        W49556  44.390  19.286   2.307
77132W        W49557   8.642  44.420   3.372
77133W        W49558   8.597  11.266  12.888
77134W        W49559   5.848  13.437  13.309
77135W        W49560   6.335  35.983  12.605
77136W        W49561  26.225  26.663  12.930
77137W        W49562   0.809  32.877   1.504
77138W        W49563  13.080  23.066   0.291
77139W        W49564  13.865  38.389  12.589
77140W        W49565  32.198  22.821  13.024
77141W        W49566  20.068  34.022   0.833
77142W        W49567  17.147  18.793   2.125
77143W        W49568   5.700   7.090  11.104
77144W        W49569  27.106  14.530   0.452
77145W        W49570  22.783  23.613   0.882
77146W        W49571  33.073  21.165  14.044
77147W        W49572  11.715  35.479   0.903
77148W        W49573   6.141  24.137  13.439
77149W        W49574  40.439  44.540   4.938
77150W        W49575  35.687  16.861   4.537
77151W        W49576  17.363   7.426   1.514
77152W        W49577  28.445  10.744   2.212
77153W        W49578  24.146   4.472  13.957
77154W        W49579  34.680  24.598  12.054
77155W        W49580  24.018  38.041  12.906
77156W        W49581  30.999   2.670   4.582
77157W        W49582  28.211   6.809  13.728
77158W        W49583  21.124  28.229   3.642
77159W        W49584  13.473  29.089   4.152
77160W        W49585  13.773  25.310  11.647
77161W        W49586   8.479   6.588   4.427
77162W        W49587   9.706   6.924  13.095
77163W        W49588  23.047  23.591  14.618
77164W        W49589  32.508  11.770   4.498
77165W        W49590  22.323   9.758   2.838
77166W        W49591  27.569   1.846   3.041
77167W        W49592  33.499   2.643   1.217
77168W        W49593  24.913  32.890   3.298
77169W        W49594  38.580  28.997  10.690
77170W        W49595  25.585  24.479   1.239
77171W        W49596  18.145  12.234  10.464
77172W        W49597   9.431   9.299   4.634
77173W        W49598   8.018  30.031  11.437
77174W        W49599  33.072  43.132  14.396
77175W        W49600  13.036   8.329   2.949
77176W        W49601  25.489  15.665   4.089
77177W        W49602  10.352  36.774  13.335
77178W        W49603  38.632  14.705   1.608
77179W        W49604  17.777  42.327  11.132
77180W        W49605  10.780  28.494  13.914
77181W        W49606  27.581   6.725   2.324
77182W        W49607  41.020  40.354   0.869
77183W        W49608   6.810  44.281   2.126
77184W        W49609  42.761  33.009   0.054
77185W        W49610   1.362  36.132   0.826
77186W        W49611  11.133  23.169  12.921
77187W        W49612  19.734  29.700  14.207
77188W        W49613  17.592   7.766  13.376
77189W        W49614   4.353   7.332  10.899
77190W        W49615  16.239   4.562   4.838
77191W        W49616   4.219  40.086   4.497
77192W        W49617  29.533  10.139  14.286
77193W        W49618  32.083  44.708  14.189
77194W        W49619  40.947  14.653  12.490
77195W        W49620  20.293  27.151  12.712
77196W        W49621  35.394  34.049  10.707
77197W        W49622  20.096  38.555   1.294
77198W        W49623   6.857  15.901  12.405
77199W        W49624  14.672  32.922  10.613
77200W        W49625  35.100  38.406  12.993
77201W        W49626   1.719  25.603  11.884
77202W        W49627  12.668  11.099  10.996
77203W        W49628  43.476  32.036  14.053
77204W        W49629  33.814  21.101  11.667
77205W        W49630  25.749   5.841   2.258
77206W        W49631   4.289   1.340  10.887
77207W        W49632  23.600  24.533  11.753
77208W        W49633  24.333   4.725   1.924
77209W        W49634  20.889  21.227   3.933
77210W        W49635  41.378  21.060  10.207
77211W        W49636   7.301   3.917   3.239
77212W        W49637  31.472  34.737   0.684
77213W        W49638  36.750   4.371   1.729
77214W        W49639   4.041  12.945   4.281
77215W        W49640   0.459  29.062   4.574
77216W        W49641   2.466  42.916  13.046
77217W        W49642  12.887  41.820   1.611
77218W        W49643  37.058   3.669   1.445
77219W        W49644  13.444   7.033   5.145
77220W        W49645  42.084   2.950  12.523
77221W        W49646  13.719  43.106  12.050
77222W        W49647  15.197   3.394  11.183
77223W        W49648   7.311  15.609  12.427
77224W        W49649  20.156   7.823  10.888
77225W        W49650  15.896  12.356  11.045
77226W        W49651  10.608  17.574  10.532
77227W        W49652  40.723  29.991  12.130
77228W        W49653  40.563  17.489  14.580
77229W        W49654   2.403   7.372  12.027
77230W        W49655  16.285  43.886   1.214
77231W        W49656  33.561  25.981   4.445
77232W        W49657  35.129   5.367  11.129
77233W        W49658  36.361  35.320  12.891
77234W        W49659  21.598  22.331   0.933
77235W        W49660  34.136  27.531   3.843
77236W        W49661  27.060  18.756   0.687
77237W        W49662  25.578  22.348  11.132
77238W        W49663   8.877  32.265  12.515
77239W        W49664  23.084  33.508  12.913
77240W        W49665  44.711  19.013   4.579
77241W        W49666   6.298  11.088  13.501
77242W        W49667  24.930  19.380   4.552
77243W        W49668   6.680  12.063  11.550
77244W        W49669  43.554  44.843  12.911
77245W        W49670   7.540   1.013  12.157
77246W        W49671  24.708  28.171  10.769
77247W        W49672  33.587  29.084  13.919
77248W        W49673  34.483  22.204   0.059
77249W        W49674  30.016  31.402   3.272
77250W        W49675  33.670  39.637  13.521
77251W        W49676  12.660  16.134  11.601
77252W        W49677  36.403  13.604  14.899
77253W        W49678  33.087  36.555  12.125
77254W        W49679   9.188  29.052  11.433
77255W        W49680  10.831  42.002   3.368
77256W        W49681  21.050  31.382   2.709
77257W        W49682  25.190  17.798  14.932
77258W        W49683  12.742   5.424  13.540
77259W        W49684  32.915   6.404   2.343
77260W        W49685   0.565   8.834   1.525
77261W        W49686   3.769   6.197   0.491
77262W        W49687  35.570  21.017  14.812
77263W        W49688  42.245  43.652   0.278
77264W        W49689  33.856  25.446   0.758
77265W        W49690  11.762  31.037  12.892
77266W        W49691  36.730  21.137   2.682
77267W        W49692  15.621   1.442   9.922
77268W        W49693  17.634  25.095  11.636
77269W        W49694  19.057  18.686   4.699
77270W        W49695  35.503  19.027   3.639
77271W        W49696   9.597   5.266  12.370
77272W        W49697  25.605  31.982  11.127
77273W        W49698  12.885  40.617   1.812
77274W        W49699  38.780  37.642  11.070
77275W        W49700  44.145  23.744  12.884
77276W        W49701  37.250  19.560   0.068
77277W        W49702  28.722  13.772  14.378
77278W        W49703   7.566  19.382  11.191
77279W        W49704  28.484   6.228  11.041
77280W        W49705   2.190  34.431  11.594
77281W        W49706  44.341  29.828   4.724
77282W        W49707  41.820  11.143   4.087
77283W        W49708  33.283  39.922   0.670
77284W        W49709  41.952  24.795   0.575
77285W        W49710  41.606  40.585  12.116
77286W        W49711   2.306  27.080   1.030
77287W        W49712   7.127  32.601  13.938
77288W        W49713   4.664  43.699   4.101
77289W        W49714  34.842  33.848  12.035
77290W        W49715  14.698  34.372   4.906
77291W        W49716  24.088  30.149  13.868
77292W        W49717  32.936   8.003   3.039
77293W        W49718  36.875  40.892  12.041
77294W        W49719  18.273  23.162   0.432
77295W        W49720  37.084   3.891  13.420
77296W        W49721  33.500  42.114  11.438
77297W        W49722  24.123  37.815   0.353
77298W        W49723  23.035   6.137   1.176
77299W        W49724  25.619  34.115   3.592
77300W        W49725  21.491  18.633   2.816
77301W        W49726   4.359  30.116  12.320
77302W        W49727  41.950  14.752  13.397
77303W        W49728  43.113  27.008   4.175
77304W        W49729  26.929   4.188   1.370
77305W        W49730  42.525  41.423  12.049
77306W        W49731   2.077  16.875   2.685
77307W        W49732  40.616  39.572  11.027
77308W        W49733  36.131  31.201  12.407
77309W        W49734  23.370  16.604  12.992
77310W        W49735  29.625   6.696  10.594
77311W        W49736  17.667   0.793  12.359
77312W        W49737  39.183  31.556   9.888
77313W        W49738  10.188  10.380   4.074
77314W        W49739  42.434  40.079   1.329
77315W        W49740  30.934   7.671  12.848
77316W        W49741  26.388  10.011   0.244
77317W        W49742  43.709  41.954   3.635
77318W        W49743   4.347  35.852   4.785
77319W        W49744  15.064  38.280   4.808
77320W        W49745  31.405   9.787  14.356
77321W        W49746   5.335  43.370   3.286
77322W        W49747  20.576  31.772   4.081
77323W        W49748  38.904  44.960  11.067
77324W        W49749  14.574   4.904  11.101
77325W        W49750  31.498  12.108  11.788
77326W        W49751   8.164  18.517   2.318
77327W        W49752  38.006  42.911  10.691
77328W        W49753  41.561  26.079   0.145
77329W        W49754  14.579   6.348  13.437
77330W        W49755  30.917  21.781   1.328
77331W        W49756   3.286  23.646  11.022
77332W        W49757  33.590  19.656  13.850
77333W        W49758  36.781  41.115  14.482
77334W        W49759   7.382  10.328   0.022
77335W        W49760   5.850  27.372  14.562
77336W        W49761  31.144  25.529  10.664
77337W        W49762  43.673  42.419   1.807
77338W        W49763  13.187  24.588   0.894
77339W        W49764  41.250   7.813   1.931
77340W        W49765  16.204  26.579  11.884
77341W        W49766  41.843  43.702  12.576
77342W        W49767  11.687  11.331   1.309
77343W        W49768   9.844  13.724  13.928
77344W        W49769  31.110   1.060   0.350
77345W        W49770  21.710  33.435  14.866
77346W        W49771  32.883  23.285   1.419
77347W        W49772  33.625  43.918  12.578
77348W        W49773  26.201  27.153  14.715
77349W        W49774  13.800  14.329  14.014
77350W        W49775  35.446  20.242   4.273
77351W        W49776  29.448  22.514  14.364
77352W        W49777  37.591   1.409  10.542
77353W        W49778  37.343  22.127   0.568
77354W        W49779  39.935  43.718   2.139
77355W        W49780   2.708  21.338   2.758
77356W        W49781  37.578  34.053   0.421
77357W        W49782  34.527  17.297  12.062
77358W        W49783  38.528  20.667  13.455
77359W        W49784  42.984   7.499   2.757
77360W        W49785   3.029   5.945  13.340
77361W        W49786  12.230  18.023  11.178
77362W        W49787  32.570  14.715   1.983
77363W        W49788  25.832  24.990  13.287
77364W        W49789  16.022   2.851   4.123
77365W        W49790  21.530  10.406   2.391
77366W        W49791   8.342  12.179  13.367
77367W        W49792   8.835  14.804  13.151
77368W        W49793  41.775  27.316  14.441
77369W        W49794  34.764   5.743   2.218
77370W        W49795  24.756  22.820  13.091
77371W        W49796   3.241  11.199  10.740
77372W        W49797  26.929  27.613   0.681
77373W        W49798  16.014  15.069   4.762
77374W        W49799  41.678   0.847   3.253
77375W        W49800   2.481  38.114   1.739
77376W        W49801  24.927  30.455   2.320
77377W        W49802  13.087  43.536  14.497
77378W        W49803  44.739   8.923   2.644
77379W        W49804  11.237  16.304   0.949
77380W        W49805  31.185  24.559   4.169
77381W        W49806  35.627  23.797  11.865
77382W        W49807   4.126  31.312  12.926
77383W        W49808   9.562  31.591  14.748
77384W        W49809  25.539  26.154   0.020
77385W        W49810  24.062  27.780   0.627
77386W        W49811  37.431   1.335  13.979
77387W        W49812  26.531   2.264   2.363
77388W        W49813   7.901  26.731   1.794
77389W        W49814  43.888  24.051   3.722
77390W        W49815  44.556  20.955  11.930
77391W        W49816  20.048  38.945  11.238
77392W        W49817  28.385  34.421   0.036
77393W        W49818   3.528  17.409   0.004
77394W        W49819   1.010  36.872   2.806
77395W        W49820   7.744   3.438   3.578
77396W        W49821   7.584  34.230   5.021
77397W        W49822  16.225  21.814   0.549
77398W        W49823  35.413  33.524  14.524
77399W        W49824  10.206   4.744  10.698
77400W        W49825  13.575   1.912   0.693
77401W        W49826  30.597   7.925   0.423
77402W        W49827   0.881  33.536   2.378
77403W        W49828   8.123  42.211  10.605
77404W        W49829   8.738   8.963   4.090
77405W        W49830  35.601  29.376   4.351
77406W        W49831  10.592   9.934   1.726
77407W        W49832  23.703  22.162   4.041
77408W        W49833  20.171  11.888  12.100
77409W        W49834  11.697  40.284   5.045
77410W        W49835  11.397  27.838  12.314
77411W        W49836  40.264   8.723  13.704
77412W        W49837  38.930  21.009  11.210
77413W        W49838   3.962  29.963   4.929
77414W        W49839  27.237  38.636  12.903
77415W        W49840  23.299  37.776  11.559
77416W        W49841  28.649  44.610   0.737
77417W        W49842  42.413  18.059  14.417
77418W        W49843  21.264   4.268   0.663
77419W        W49844   5.695  27.211   0.017
77420W        W49845   8.404  31.971   0.908
77421W        W49846  36.493  43.312   1.717
77422W        W49847  41.908  18.863   0.828
77423W        W49848  39.089  32.228   1.313
77424W        W49849  19.816  28.711   1.891
77425W        W49850  39.641  24.023   3.684
77426W        W49851  19.147   2.707   0.898
77427W        W49852  11.739  26.984   2.817
77428W        W49853  26.127  36.840   2.409
77429W        W49854  18.778  27.420   3.634
77430W        W49855   1.749  27.923  12.180
77431W        W49856  17.349   8.264  13.526
77432W        W49857  21.456  17.403  10.159
77433W        W49858   6.869   6.264   1.457
77434W        W49859  44.459  31.340  14.061
77435W        W49860   2.881   9.576   0.316
77436W        W49861  37.167   2.600   2.677
77437W        W49862   5.315  22.349  12.288
77438W        W49863  27.161  17.323   0.723
77439W        W49864  42.639  13.206   3.322
77440W        W49865   0.387  19.804  11.527
77441W        W49866  32.715  25.602  13.839
77442W        W49867  26.184   4.450  12.123
77443W        W49868   2.974   6.000  11.151
77444W        W49869  19.665  41.130   0.965
77445W        W49870  28.601   6.441  13.564
77446W        W49871  32.331  22.054   2.124
77447W        W49872  44.172   1.034   1.773
77448W        W49873  33.065  24.189  14.474
77449W        W49874  29.805  30.517   2.687
77450W        W49875  44.737   7.745   0.850
77451W        W49876   4.354   2.213   1.730
77452W        W49877  24.171  21.027   2.755
77453W        W49878  19.832  33.423  10.119
77454W        W49879  14.450   2.186   3.248
77455W        W49880  13.156   0.443   1.050
77456W        W49881   0.470  24.995  13.035
77457W        W49882   6.687   5.159   3.320
77458W        W49883  24.787   4.628  11.564
77459W        W49884  22.539  28.364   2.320
77460W        W49885  11.660   9.254   2.807
77461W        W49886  22.195   7.874   3.089
77462W        W49887  17.523  16.688  11.127
77463W        W49888  24.506  20.113  14.784
77464W        W49889  14.307  21.593  10.228
77465W        W49890  26.034   2.776  14.968
77466W        W49891  30.440  27.471  11.515
77467W        W49892  12.055   9.260  11.880
77468W        W49893  31.357  30.632  10.747
77469W        W49894  36.890  30.920  13.067
77470W        W49895  31.687   2.692  12.203
77471W        W49896   3.891   3.493   1.019
77472W        W49897  22.559  18.574  11.944
77473W        W49898  21.567  43.538   3.255
77474W        W49899  38.649  34.236  10.612
77475W        W49900  41.094  13.247  10.772
77476W        W49901  30.146  37.093   2.345
77477W        W49902   7.700  37.777  10.642
77478W        W49903  17.322  16.580  10.663
77479W        W49904  12.238  12.595   4.145
77480W        W49905   9.416   9.280  10.113
77481W        W49906  42.494   6.548   2.734
77482W        W49907  39.036  40.231  12.039
77483W        W49908  31.926   2.179  12.467
77484W        W49909  19.481  20.782  12.122
77485W        W49910   4.031   1.951  10.800
77486W        W49911  41.458  16.915   1.917
77487W        W49912   1.784   9.093   4.492
77488W        W49913  14.157   4.711  12.659
77489W        W49914   8.481  16.509  13.858
77490W        W49915  24.595  21.568   1.364
77491W        W49916   0.356  40.909  11.076
77492W        W49917  19.009  18.775  12.428
77493W        W49918   4.152  27.641  11.620
77494W        W49919   7.806  16.357  12.632
77495W        W49920  29.506  21.509   4.493
77496W        W49921  12.268  30.413  12.877
77497W        W49922  44.741  24.302   3.692
77498W        W49923  32.462   3.281  12.092
77499W        W49924   0.157  35.107   4.168
77500W        W49925  30.660  39.506   2.668
77501W        W49926  14.733  25.277  14.334
77502W        W49927   7.523   4.376   3.404
77503W        W49928  36.876  35.129  14.496
77504W        W49929   4.303  44.889  10.574
77505W        W49930  31.872  25.043   1.236
77506W        W49931  16.272   3.158   3.265
77507W        W49932  24.473  17.679  11.610
77508W        W49933  17.957  28.717   3.979
77509W        W49934  44.308  18.511  13.377
77510W        W49935  29.531  18.555  13.491
77511W        W49936  28.252  40.124  14.513
77512W        W49937  27.649  28.094   0.479
77513W        W49938  24.518  32.415   3.654
77514W        W49939   8.451  25.492  13.365
77515W        W49940  21.255   4.643  11.287
77516W        W49941   6.662   7.417  11.334
77517W        W49942  37.137  32.936   4.479
77518W        W49943  23.537  42.444   4.849
77519W        W49944  22.455   7.138  14.794
77520W        W49945  32.322  13.062   0.513
77521W        W49946  29.061   7.479  12.951
77522W        W49947  22.533  39.482   4.537
77523W        W49948  20.546  27.501  14.886
77524W        W49949  34.251  12.389   1.686
77525W        W49950  10.783   2.706   3.742
77526W        W49951  41.017  21.210   1.699
77527W        W49952  21.804  41.898   2.192
77528W        W49953  12.160  37.609   2.153
77529W        W49954   9.369  36.396  13.283
77530W        W49955   9.422  22.919   2.794
77531W        W49956   5.479  21.797  14.772
77532W        W49957  41.943   2.062  12.039
77533W        W49958   8.127   3.802  10.629
77534W        W49959  42.073  23.392   1.295
77535W        W49960  19.155  33.179  13.379
77536W        W49961   4.019   7.844   4.522
77537W        W49962  20.645  15.623   0.485
77538W        W49963  15.830  31.112   3.671
77539W        W49964  29.175  14.595   3.169
77540W        W49965   8.923  36.278  11.669
77541W        W49966  14.358  30.152  14.831
77542W        W49967   5.870   9.742   4.533
77543W        W49968  18.672  18.168  14.360
77544W        W49969  18.596   1.724  12.545
77545W        W49970  27.140  10.604   1.795
77546W        W49971  41.077  29.119  13.451
77547W        W49972   6.268  25.800   4.200
77548W        W49973  21.030  20.696  12.991
77549W        W49974  27.675  27.443  12.476
77550W        W49975   7.118  10.588   2.349
77551W        W49976  29.187  39.319   1.263
77552W        W49977  13.403  28.756   2.739
77553W        W49978  43.292  31.537  14.290
77554W        W49979  38.880  44.444   1.783
77555W        W49980  17.740  42.902  12.302
77556W        W49981   3.017   1.811   1.274
77557W        W49982   1.044   4.760   2.296
77558W        W49983  20.327  22.244  14.292
77559W        W49984  41.365  27.879   1.733
77560W        W49985  44.522  30.578   0.801
77561W        W49986  40.523  20.009   1.305
77562W        W49987   8.423   1.008  14.760
77563W        W49988  40.213   8.017  11.007
77564W        W49989  39.939  20.700  11.932
77565W        W49990  22.924   4.189   4.101
77566W        W49991  23.726  35.424   0.853
77567W        W49992  24.237  19.771  12.532
77568W        W49993  33.190  13.015   2.108
77569W        W49994  17.753  39.836  13.771
77570W        W49995  21.089  11.259  12.944
77571W        W49996   2.063  41.408  11.489
77572W        W49997  38.385   5.933  11.965
77573W        W49998   1.457  24.257  14.683
77574W        W49999   8.971   6.513   4.430
77575W        W50000  43.417  19.386  12.601
77576W        W50001  22.243  19.997  11.179
77577W        W50002  16.335  17.344  11.545
77578W        W50003   5.225  11.940  14.007
77579W        W50004  42.903  18.364  12.275
77580W        W50005   7.714  28.964   3.790
77581W        W50006  31.903  25.764  12.806
77582W        W50007   8.767  24.798  10.749
77583W        W50008  25.647  25.741  13.563
77584W        W50009  20.061  33.071  12.120
77585W        W50010  35.990   0.049   3.746
77586W        W50011  19.973   1.904   2.405
77587W        W50012  12.043  37.011  11.690
77588W        W50013  34.286  12.627   2.797
77589W        W50014  44.914  36.406   0.597
77590W        W50015  25.507  16.032   1.461
77591W        W50016  26.084  37.488   4.165
77592W        W50017  34.953  42.856   0.393
77593W        W50018  34.043  17.569  13.659
77594W        W50019   3.218   7.601  11.585
77595W        W50020   6.451  22.307  13.956
77596W        W50021  12.879  28.087   2.728
77597W        W50022  37.735  41.266  11.586
77598W        W50023  11.285  16.815   0.917
77599W        W50024  38.244  44.918   1.317
77600W        W50025  42.296  23.077  13.876
77601W        W50026  24.953   4.534  13.532
77602W        W50027   1.346  15.020   1.866
77603W        W50028   5.842  10.903   3.267
77604W        W50029  42.840  20.202  12.427
77605W        W50030  20.471  36.428  11.011
77606W        W50031  30.439  35.564  13.174
77607W        W50032   2.748  40.396   4.659
77608W        W50033   2.034  23.552  13.522
77609W        W50034  44.864  41.841   3.712
77610W        W50035  35.855  21.155  13.062
77611W        W50036  12.116  33.967   2.645
77612W        W50037   6.040  44.312  13.006
77613W        W50038   0.743  34.978   0.637
77614W        W50039  34.577   1.276   0.437
77615W        W50040   5.795   3.260  11.550
77616W        W50041   7.108  40.353   5.293
77617W        W50042  16.311  36.929  14.947
77618W        W50043  36.159  40.058  11.435
77619W        W50044  18.408  15.267  14.963
77620W        W50045  20.295  16.106   1.697
77621W        W50046   1.504  24.447   1.024
77622W        W50047  31.152  39.807   2.322
77623W        W50048   2.319  36.059  14.407
77624W        W50049  31.415  37.760   3.635
77625W        W50050  33.098  29.870   4.940
77626W        W50051  26.267  37.389  11.609
77627W        W50052  35.941  20.034   2.815
77628W        W50053  27.700  29.060   0.516
77629W        W50054  26.931  36.554   1.571
77630W        W50055   4.405   4.332  14.455
77631W        W50056   6.192  15.608  10.799
77632W        W50057  29.823  11.761  12.925
77633W        W50058  28.894  26.551   3.298
77634W        W50059  26.525  29.964  11.950
77635W        W50060  32.537  21.542  13.693
77636W        W50061  13.075  15.602   0.877
77637W        W50062  18.715   0.034   3.139
77638W        W50063  22.180  40.858   2.858
77639W        W50064  14.959  35.437   0.483
77640W        W50065  36.687   5.381   4.592
77641W        W50066  43.867   5.864  14.500
77642W        W50067  26.936  27.501  10.387
77643W        W50068  22.962  11.001  14.365
77644W        W50069  12.755  40.341  10.527
77645W        W50070  36.802  29.472   0.849
77646W        W50071  17.651  31.596   2.238
77647W        W50072  26.756  34.765  12.942
77648W        W50073  25.255  12.154   2.422
77649W        W50074  41.462  28.354   2.807
77650W        W50075   0.470   0.597  10.660
77651W        W50076  18.435  24.038  11.712
77652W        W50077  26.225  41.777  13.401
77653W        W50078  38.041   6.209  13.546
77654W        W50079  23.026  43.551   4.520
77655W        W50080  17.278  11.235   3.820
77656W        W50081  38.391  34.522  11.572
77657W        W50082  44.070   7.429  13.092
77658W        W50083   3.745  31.229  12.061
77659W        W50084  43.927  17.641   0.822
77660W        W50085  34.415  28.517  12.574
77661W        W50086  12.640   2.850   2.498
77662W        W50087  10.234  32.446   1.985
77663W        W50088   7.745  19.632  13.569
77664W        W50089  39.002  32.391  11.978
77665W        W50090  35.198   6.732   1.956
77666W        W50091  29.599  31.680  11.843
77667W        W50092  41.336  13.817  13.425
77668W        W50093  43.265   4.364   3.628
77669W        W50094   5.503  19.086   0.203
77670W        W50095  19.886  24.643  14.335
77671W        W50096  27.887  26.886   1.379
77672W        W50097  30.347  17.806  14.943
77673W        W50098  10.271  33.003  13.195
77674W        W50099  42.292  12.520  13.103
77675W        W50100  22.957   8.774   5.685
77676W        W50101  37.346  24.570   0.991
77677W        W50102  29.575  34.095   4.777
77678W        W50103  28.960  20.033   1.602
77679W        W50104   5.923  33.494  11.430
77680W        W50105  17.044  26.269  12.989
77681W        W50106  36.064  17.667  11.594
77682W        W50107   2.962  40.464  14.998
77683W        W50108   7.937  11.226   4.206
77684W        W50109  27.200  44.049   2.417
77685W        W50110  12.202  14.681   3.345
77686W        W50111  35.821  20.249   0.796
77687W        W50112  29.739   7.793   3.436
77688W        W50113  38.320  38.268   1.240
77689W        W50114  15.835  21.790   1.368
77690W        W50115  25.484  30.406  13.940
77691W        W50116  33.791  16.168  10.955
77692W        W50117   4.264  24.659   0.294
77693W        W50118  39.995  12.579   1.243
77694W        W50119   6.890  25.205  11.246
77695W        W50120   1.982   7.693   3.375
77696W        W50121   4.245  31.038   3.112
77697W        W50122   8.617  28.451   3.659
77698W        W50123  27.512   0.994  11.017
77699W        W50124  19.173  23.963  14.806
77700W        W50125   6.307  25.293   3.173
77701W        W50126   7.313  39.918  12.648
77702W        W50127   2.990  15.662   3.383
77703W        W50128  44.891  13.730   0.833
77704W        W50129  16.239  22.510   2.081
77705W        W50130  24.039  19.346   4.916
77706W        W50131  35.695  17.091   2.353
77707W        W50132   0.061  33.658   0.429
77708W        W50133   6.260  12.808   2.224
77709W        W50134  35.368  35.643  11.413
77710W        W50135  32.094  22.547  11.495
77711W        W50136  29.862  35.023  13.874
77712W        W50137   7.181  34.544   5.029
77713W        W50138   4.769  17.039  10.959
77714W        W50139  43.773  31.992  14.661
77715W        W50140  30.386  42.061   2.320
77716W        W50141   3.947  34.417   0.268
77717W        W50142   8.851  27.177  10.404
77718W        W50143  30.089  42.442   0.492
77719W        W50144  33.019   6.693   2.771
77720W        W50145  20.040   3.781   4.536
77721W        W50146   8.350   4.358   2.676
77722W        W50147  15.629  36.879   2.815
77723W        W50148   4.164  24.063  12.515
77724W        W50149  26.953  38.080   5.085
77725W        W50150  42.357  42.767  14.187
77726W        W50151   3.839   7.802  13.163
77727W        W50152  24.476   1.542   4.167
77728W        W50153   3.656  36.142   5.090
77729W        W50154  26.203  23.145  14.393
77730W        W50155  37.554  14.621  11.428
77731W        W50156  18.588  44.714  13.468
77732W        W50157   2.244  35.507  11.509
77733W        W50158  25.164   1.503  10.837
77734W        W50159  41.472  37.883  14.483
77735W        W50160   3.964  15.282  14.692
77736W        W50161   6.611   9.158  12.129
77737W        W50162  35.770  27.885   1.220
77738W        W50163  35.054  15.707   3.153
77739W        W50164  36.874   8.154   1.669
77740W        W50165  27.075  22.070   3.078
77741W        W50166  12.868  14.348   0.435
77742W        W50167  11.681  39.655   1.942
77743W        W50168   8.839  42.230  12.649
77744W        W50169  34.071  20.828   0.085
77745W        W50170  42.637  44.486   1.926
77746W        W50171  35.349  18.298   4.822
77747W        W50172  21.607  11.535  10.589
77748W        W50173  28.887  37.027   0.675
77749W        W50174  41.174  44.002   4.131
77750W        W50175  17.964  33.401  12.888
77751W        W50176  10.186  27.571  14.672
77752W        W50177  30.006   4.003  14.103
77753W        W50178  21.003   4.634   1.370
77754W        W50179  11.614  37.102   1.135
77755W        W50180   6.649   1.649   2.662
77756W        W50181  37.517  20.916  10.075
77757W        W50182  39.829  12.622   2.340
77758W        W50183  11.036  28.582   0.185
77759W        W50184   0.938  43.433   0.726
77760W        W50185  44.453  42.446  13.326
77761W        W50186  41.805  17.268  10.694
77762W        W50187   4.775  15.266   2.310
77763W        W50188  29.406  37.650   4.144
77764W        W50189  32.921  32.098   3.110
77765W        W50190  37.009   6.403   4.093
77766W        W50191  31.504  27.440  12.338
77767W        W50192   4.378  18.497  13.147
77768W        W50193  11.805   4.297   1.818
77769W        W50194  30.963  25.991   4.699
77770W        W50195  31.504  23.219   1.983
77771W        W50196   8.926  30.388  11.560
77772W        W50197  30.038  18.657  14.318
77773W        W50198   5.940   9.948   2.216
77774W        W50199  29.351   1.458  13.528
77775W        W50200  39.271  37.844  14.868
77776W        W50201  13.491   6.334  10.327
77777W        W50202  41.871  11.860   2.658
77778W        W50203  31.377  24.978  13.811
77779W        W50204  29.733  42.565   2.775
77780W        W50205  15.678   5.907  13.500
77781W        W50206  32.927   0.343   3.744
77782W        W50207  22.544  43.774  12.351
77783W        W50208  41.423  44.490   5.364
77784W        W50209   6.503   4.886   4.523
77785W        W50210   5.198  25.969   0.351
77786W        W50211  27.097  18.165  10.492
77787W        W50212   0.742  25.179   4.350
77788W        W50213  10.113   1.412  10.743
77789W        W50214   9.474   7.583  11.687
77790W        W50215  26.914  44.275  10.799
77791W        W50216   3.382  14.786   0.193
77792W        W50217  37.869  14.194  11.440
77793W        W50218  21.223  30.298  13.518
77794W        W50219  26.633  21.235  13.493
77795W        W50220  38.484   8.294   2.277
77796W        W50221  28.067  18.373  14.955
77797W        W50222   8.324  30.127   2.147
77798W        W50223  42.175  33.968   2.834
77799W        W50224   5.387  16.079  11.273
77800W        W50225  22.275  39.919  14.528
77801W        W50226  16.675  22.534  13.885
77802W        W50227  12.191  34.342   0.372
77803W        W50228  20.022   5.200  14.450
77804W        W50229  23.730   6.883  14.879
77805W        W50230  43.401  37.089   4.449
77806W        W50231  14.804  16.732  11.155
77807W        W50232  24.678  30.827   1.746
77808W        W50233  40.665  33.369   3.057
77809W        W50234  34.454  33.391   0.391
77810W        W50235  24.066  21.367   9.906
77811W        W50236  25.269  16.348   0.541
77812W        W50237  28.705  18.675  13.008
77813W        W50238  19.432  23.552   0.090
77814W        W50239  43.984  35.843  13.913
77815W        W50240  20.332  12.650   2.037
77816W        W50241   5.312  12.454  11.282
77817W        W50242  40.943   8.530  11.586
77818W        W50243  35.507   6.950   0.413
77819W        W50244  17.974  43.047  13.887
77820W        W50245  42.518  19.287  11.503
77821W        W50246   8.827   7.699  13.901
77822W        W50247  15.487  28.732  14.950
77823W        W50248  37.514  23.242  10.130
77824W        W50249   7.804  23.241  12.711
77825W        W50250  30.773  16.135   0.345
77826W        W50251  17.599   3.948  11.006
77827W        W50252   8.730  35.402  11.149
77828W        W50253  31.054  43.661   3.610
77829W        W50254  30.932  10.115  11.927
77830W        W50255   2.517  15.852  13.435
77831W        W50256  36.778  16.775  11.186
77832W        W50257  43.088  40.781   2.724
77833W        W50258  21.598   5.765   4.087
77834W        W50259  11.121  26.764  13.368
77835W        W50260  36.734  39.033  13.087
77836W        W50261   9.966  35.367  10.717
77837W        W50262  28.449  40.387  11.670
77838W        W50263  41.138  11.662   5.064
77839W        W50264  34.846  11.615  11.558
77840W        W50265  36.826  26.038   1.238
77841W        W50266   2.482  15.294  12.162
77842W        W50267  34.114   0.453   4.166
77843W        W50268  27.420  38.568   3.468
77844W        W50269  10.233  16.323  13.395
77845W        W50270  29.481  14.213   2.950
77846W        W50271  13.639  15.892   0.320
77847W        W50272  33.882   7.208  11.462
77848W        W50273  38.958  33.076   1.179
77849W        W50274  32.539  18.190  11.910
77850W        W50275   1.187  34.068   2.887
77851W        W50276  31.949  26.496   4.303
77852W        W50277  17.954  28.714   1.477
77853W        W50278   2.882  36.919   2.837
77854W        W50279  24.482  37.437  13.426
77855W        W50280  30.378  36.927   1.215
77856W        W50281  15.007   5.892  12.440
77857W        W50282  19.638  40.492  14.943
77858W        W50283  37.948   2.222   2.248
77859W        W50284   0.575   4.218  13.024
77860W        W50285   8.262  44.681  12.204
77861W        W50286  12.331   2.259  11.601
77862W        W50287  32.691   4.250  13.927
77863W        W50288  27.066  36.115   1.883
77864W        W50289   8.255  29.622  10.696
77865W        W50290   4.659  38.270  10.388
77866W        W50291  40.663  33.061   4.244
77867W        W50292  19.585  18.942  11.114
77868W        W50293  11.068   2.263   0.417
77869W        W50294  27.036  33.837   2.068
77870W        W50295  23.208  15.338   1.890
77871W        W50296  34.026  11.838   4.158
77872W        W50297  30.188  23.092  10.726
77873W        W50298  25.105  31.895  13.847
77874W        W50299  15.608  16.786  12.608
77875W        W50300  31.880  14.022  12.541
77876W        W50301  42.836  14.525  14.966
77877W        W50302   5.686  32.170  11.277
77878W        W50303  31.692   0.356  12.912
77879W        W50304  36.150  35.092  10.640
77880W        W50305  41.871  31.167  13.442
77881W        W50306  42.591  40.264  14.412
77882W        W50307  34.493  19.912  14.936
77883W        W50308   4.923   1.241   2.584
77884W        W50309  35.672  34.570   1.263
77885W        W50310  40.091  19.311   3.187
77886W        W50311  44.293   6.600   0.976
77887W        W50312  41.066  30.156   1.708
77888W        W50313  39.859  27.181   3.193
77889W        W50314  41.295  21.325   4.610
77890W        W50315   0.658   6.946  13.022
77891W        W50316  20.591   6.255   0.046
77892W        W50317   1.394  14.339  14.053
77893W        W50318  23.703  10.350  12.400
77894W        W50319  44.426  33.641   4.111
77895W        W50320   3.142  16.716   0.998
77896W        W50321  29.609  13.125   3.815
77897W        W50322  12.834  15.201  11.265
77898W        W50323  10.464  20.273   2.435
77899W        W50324   9.983  25.775   2.083
77900W        W50325  34.816  23.698   3.684
77901W        W50326  11.130  28.373   3.976
77902W        W50327  26.667  10.902   1.194
77903W        W50328  13.646   7.431   1.263
77904W        W50329  20.623  28.129   3.785
77905W        W50330  10.464  27.689   4.912
77906W        W50331  24.748  35.000  12.467
77907W        W50332  14.109  27.597   2.867
77908W        W50333  40.216  40.719   4.102
77909W        W50334  34.530  36.454  12.193
77910W        W50335  22.419  39.048  13.307
77911W        W50336  32.198   1.813   0.280
77912W        W50337  28.552  35.661  14.789
77913W        W50338  41.342  37.946   2.328
77914W        W50339  22.092  38.269  13.481
77915W        W50340  19.811   0.503  12.952
77916W        W50341  39.988  17.948   4.401
77917W        W50342  44.945  14.668  14.511
77918W        W50343   6.735   3.971   3.927
77919W        W50344  28.844  41.283  11.421
77920W        W50345   5.323  28.722  13.944
77921W        W50346  15.129  24.571  14.266
77922W        W50347  26.934  17.739   0.967
77923W        W50348   0.651  34.865  11.223
77924W        W50349  14.463  35.290   0.402
77925W        W50350  14.635  28.449   4.137
77926W        W50351  39.036  35.508  12.528
77927W        W50352  22.857  13.829  13.119
77928W        W50353  18.651  20.261  10.924
77929W        W50354  40.444  39.409  13.830
77930W        W50355   9.532  10.929   1.896
77931W        W50356  39.862  42.403   5.108
77932W        W50357  19.869   3.029  14.564
77933W        W50358  23.904  23.094  14.458
77934W        W50359   0.558  16.315  12.360
77935W        W50360  31.125  27.499   4.334
77936W        W50361  25.151  31.031  11.096
77937W        W50362  41.224  34.490  10.665
77938W        W50363  27.660  34.176   3.725
77939W        W50364  11.157  33.943   4.690
77940W        W50365  44.111  28.141   3.124
77941W        W50366   2.226  11.588  11.054
77942W        W50367  31.270   9.264  13.745
77943W        W50368  30.418  14.561  11.626
77944W        W50369  30.586  20.596  13.075
77945W        W50370  29.367   8.211  13.415
77946W        W50371   8.153   0.542   4.448
77947W        W50372   6.323  41.401   3.232
77948W        W50373  38.288   9.170  13.843
77949W        W50374  32.128  13.799  14.007
77950W        W50375  18.617   4.053  13.956
77951W        W50376  27.854  42.517   2.462
77952W        W50377  12.759  29.546   1.206
77953W        W50378  37.422  35.620  12.025
77954W        W50379  41.655  36.984   4.453
77955W        W50380  11.366  25.674   1.401
77956W        W50381  43.119  37.584   5.040
77957W        W50382  26.744  12.719   2.742
77958W        W50383  27.663  28.175   4.089
77959W        W50384  36.616  14.692  10.922
77960W        W50385  26.759  15.174  12.050
77961W        W50386  29.518  14.142  14.061
77962W        W50387  40.215  18.878   2.331
77963W        W50388  23.771   9.654   1.763
77964W        W50389  37.621  41.281   4.691
77965W        W50390  13.790  13.626  14.553
77966W        W50391   9.778  10.689  11.543
77967W        W50392  11.225  38.310   3.271
77968W        W50393  30.186  36.290   1.385
77969W        W50394  13.370   3.930  12.972
77970W        W50395  40.617  27.069  13.352
77971W        W50396  34.044   3.976  11.695
77972W        W50397  30.413   8.594   2.818
77973W        W50398  22.209   3.330   2.352
77974W        W50399  37.110  18.617   3.198
77975W        W50400   6.332  41.762   3.597
77976W        W50401   8.844  37.377   4.214
77977W        W50402   4.058  27.988  14.780
77978W        W50403  21.808   3.834  14.732
77979W        W50404  18.566  36.528  11.977
77980W        W50405  38.642  18.742   0.371
77981W        W50406  37.404  42.903  12.326
77982W        W50407  28.110  40.274  13.854
77983W        W50408  39.754  25.071  13.447
77984W        W50409  17.305  42.211  12.616
77985W        W50410  10.354  34.841   0.241
77986W        W50411  42.531  28.046  13.863
77987W        W50412   5.083  39.642  14.539
77988W        W50413  17.050  37.499   2.749
77989W        W50414   3.398  14.003   4.208
77990W        W50415  29.874   1.825  12.527
77991W        W50416  24.162  33.073  10.675
77992W        W50417  22.268  27.292  11.144
77993W        W50418  42.410  26.327   2.328
77994W        W50419  28.094  40.024  11.098
77995W        W50420   7.015  35.352   5.413
77996W        W50421  43.267  32.008  12.904
77997W        W50422  37.580  37.313  11.685
77998W        W50423   7.754   7.912  10.765
77999W        W50424  33.893   8.846  14.003
78000W        W50425  27.779   8.552  14.817
78001W        W50426  32.222  36.308   3.691
78002W        W50427   0.875  35.938   2.472
78003W        W50428  11.790  14.289  13.959
78004W        W50429   6.451  36.373   0.781
78005W        W50430   0.702   8.836  14.801
78006W        W50431  13.327  14.844   1.335
78007W        W50432  38.975  24.475   2.116
78008W        W50433   3.793  39.772  10.450
78009W        W50434   5.796  40.495  10.911
78010W        W50435   8.869  13.821   4.221
78011W        W50436  38.410   9.400  14.920
78012W        W50437  24.382   2.751   0.376
78013W        W50438  36.516  13.173  13.448
78014W        W50439  38.993  28.665   0.180
78015W        W50440  13.752  32.577   4.267
78016W        W50441  42.830  18.393   4.490
78017W        W50442  14.361  13.979  10.332
78018W        W50443  44.319  32.529   0.050
78019W        W50444  27.800  32.766  11.546
78020W        W50445   9.202  26.450  13.517
78021W        W50446  32.971  32.094   1.335
78022W        W50447  16.604  11.367  11.526
78023W        W50448  35.987  14.120  12.409
78024W        W50449  10.138  36.879  11.557
78025W        W50450  21.193   5.213  14.811
78026W        W50451  19.728  44.836  10.939
78027W        W50452  23.604  18.264   4.268
78028W        W50453  39.875  37.273  14.952
78029W        W50454   5.389  30.966  13.580
78030W        W50455  30.273  35.375   1.227
78031W        W50456  33.784  29.717  13.883
78032W        W50457  43.398  32.856   2.837
78033W        W50458   2.996  38.055   1.817
78034W        W50459  16.809  10.375   0.257
78035W        W50460  44.337  23.005  10.724
78036W        W50461  14.309   2.340   4.145
78037W        W50462  38.772  44.928   5.067
78038W        W50463  43.470   5.207  10.443
78039W        W50464  13.874  21.616   5.545
78040W        W50465  44.995  23.654  11.206
78041W        W50466  44.313  12.875   3.395
78042W        W50467  44.639  28.130   3.209
78043W        W50468  13.501   9.169  12.039
78044W        W50469  21.469  29.905  14.055
78045W        W50470  34.634   8.852   3.301
78046W        W50471   1.001  14.693   3.288
78047W        W50472  13.285  15.633   0.037
78048W        W50473   8.351  36.005   4.141
78049W        W50474  32.164  20.575   0.578
78050W        W50475  25.196   6.956   3.302
78051W        W50476   9.901  25.007   4.812
78052W        W50477  19.080  26.436   2.362
78053W        W50478  32.637  41.385  14.937
78054W        W50479  18.037  14.633  12.268
78055W        W50480  39.910  15.407  11.574
78056W        W50481  15.415  24.039   9.998
78057W        W50482  25.171   8.806  14.718
78058W        W50483  41.749  26.039  13.860
78059W        W50484  43.137  35.292   3.667
78060W        W50485  11.230  38.583  12.474
78061W        W50486   6.467  31.317   0.276
78062W        W50487  42.277  23.821  11.898
78063W        W50488  43.748  39.493  14.454
78064W        W50489  27.511  35.709  13.795
78065W        W50490  37.334  14.795   4.482
78066W        W50491  17.090  18.108   1.202
78067W        W50492  13.312   3.360   2.294
78068W        W50493  39.846  29.654  11.390
78069W        W50494  42.241  18.293   4.046
78070W        W50495  21.208  12.533   4.629
78071W        W50496  29.004   3.096  13.991
78072W        W50497  40.613   6.704   2.165
78073W        W50498  32.431  40.860   0.959
78074W        W50499  43.298   0.063  13.302
78075W        W50500  27.517  40.032  10.861
78076W        W50501  10.679   3.136  11.533
78077W        W50502  28.032   2.984  13.398
78078W        W50503  31.190  43.883  10.389
78079W        W50504  24.113  35.167   4.542
78080W        W50505   1.975  42.619  11.060
78081W        W50506   9.688  26.859  10.648
78082W        W50507  14.393  34.313  11.173
78083W        W50508  14.221   7.122   3.293
78084W        W50509  40.340  17.053  10.992
78085W        W50510  34.762  13.024  14.756
78086W        W50511  43.507  24.040   2.597
78087W        W50512  18.671   7.153   2.793
78088W        W50513   7.324  13.300  11.262
78089W        W50514  30.454  26.881   1.217
78090W        W50515  32.960  35.952  12.924
78091W        W50516  11.744   5.332   1.294
78092W        W50517  41.858  33.684  11.166
78093W        W50518  11.843  13.862  13.017
78094W        W50519  39.401  44.433  14.003
78095W        W50520  19.994  38.483   0.292
78096W        W50521  37.452   8.096   4.411
78097W        W50522  36.996   1.201   1.247
78098W        W50523  39.437  24.015  14.534
78099W        W50524  23.234  27.651   0.980
78100W        W50525  36.081  34.577  13.430
78101W        W50526  34.568  35.068  12.069
78102W        W50527  16.766  38.519   3.230
78103W        W50528  16.125  13.765   4.142
78104W        W50529   6.246  17.786   1.874
78105W        W50530  15.799  31.872   2.269
78106W        W50531  36.755  39.272  11.692
78107W        W50532  29.679   5.755  13.443
78108W        W50533  15.390   0.960  14.116
78109W        W50534  22.147   1.372   3.734
78110W        W50535  11.352  12.602   2.716
78111W        W50536  29.591   6.754  13.330
78112W        W50537  26.002  42.414   1.415
78113W        W50538   9.269  28.166  11.084
78114W        W50539   3.271  13.645  13.545
78115W        W50540  34.400  32.473   1.477
78116W        W50541  19.758  15.416   1.204
78117W        W50542  20.794   7.187  12.650
78118W        W50543  42.612  16.372  11.061
78119W        W50544   0.363  34.648   4.154
78120W        W50545   1.548  27.988   1.322
78121W        W50546   2.768  39.218  12.507
78122W        W50547  42.612   7.863   2.720
78123W        W50548  42.875  18.558   3.889
78124W        W50549  30.584  13.299  10.722
78125W        W50550  37.446  17.133  12.417
78126W        W50551  40.529  44.735  10.622
78127W        W50552  13.568   7.360  12.525
78128W        W50553   4.843  40.654  14.934
78129W        W50554   3.842  33.109  12.503
78130W        W50555  33.543  27.658   1.981
78131W        W50556   0.043  15.322  11.075
78132W        W50557   3.166  40.455   3.870
78133W        W50558  15.100  25.043  13.906
78134W        W50559   0.211  42.808  14.318
78135W        W50560  29.705   0.836   3.155
78136W        W50561  25.185  18.265   1.415
78137W        W50562  31.092  43.691   2.508
78138W        W50563  22.301  16.031  14.109
78139W        W50564  19.509  21.770   2.383
78140W        W50565  21.663   1.459   4.588
78141W        W50566  17.254  10.200   9.775
78142W        W50567  34.340   3.296   1.453
78143W        W50568  39.583  23.729  11.977
78144W        W50569   2.753  38.924   0.202
78145W        W50570  44.128  26.833  14.357
78146W        W50571  25.585  17.501  14.825
78147W        W50572  20.541  41.775  11.900
78148W        W50573  28.652  41.069  13.472
78149W        W50574  11.157  24.855   3.090
78150W        W50575  37.364  14.801   3.972
78151W        W50576   6.191  20.206  11.565
78152W        W50577  39.398   7.927  12.880
78153W        W50578  33.351  26.583  13.488
78154W        W50579  37.298  10.104   3.692
78155W        W50580   2.440  16.169  10.465
78156W        W50581   3.557   6.877  10.384
78157W        W50582  30.182  26.412  12.913
78158W        W50583  24.411  27.133  14.418
78159W        W50584  30.217  35.778   1.575
78160W        W50585  31.484  11.675   3.657
78161W        W50586  42.297  21.456  14.320
78162W        W50587  21.698  24.964  12.839
78163W        W50588  22.568  41.196  12.124
78164W        W50589  16.560  10.092  10.919
78165W        W50590   5.214  33.965  14.811
78166W        W50591  13.612   0.274   1.762
78167W        W50592  17.186  15.568   0.480
78168W        W50593   0.210   2.779   4.852
78169W        W50594  13.419   7.958   2.315
78170W        W50595  18.284  27.940  13.036
78171W        W50596  26.097  21.473  14.412
78172W        W50597  28.828  32.428   1.873
78173W        W50598  21.317  34.946   2.830
78174W        W50599  22.151  12.643  12.105
78175W        W50600   3.806  20.552   3.232
78176W        W50601  15.013  31.023  12.427
78177W        W50602  20.308   1.819   3.763
78178W        W50603  17.637  25.079   2.756
78179W        W50604  27.143   0.190   3.124
78180W        W50605   1.026   2.354   0.987
78181W        W50606  30.402  19.366  14.971
78182W        W50607   8.787  29.341   2.168
78183W        W50608  21.800  38.638  14.829
78184W        W50609   4.160  35.486   1.929
78185W        W50610  17.149  22.743  12.804
78186W        W50611  44.522   3.384   4.084
78187W        W50612  12.670  27.174   4.712
78188W        W50613  10.385  23.723  12.970
78189W        W50614  37.167   2.087   2.642
78190W        W50615  10.768  14.278  14.034
78191W        W50616  43.649   3.794   1.247
78192W        W50617  26.475   7.825   1.030
78193W        W50618  23.602   6.695   4.625
78194W        W50619  12.838   8.707   1.217
78195W        W50620   9.967  14.964  14.403
78196W        W50621   5.198  34.088  10.468
78197W        W50622  22.319  30.926   4.240
78198W        W50623  27.479  42.255  14.950
78199W        W50624  31.803  44.715   5.032
78200W        W50625  20.519   2.891  11.024
78201W        W50626  16.071  22.986   1.835
78202W        W50627   7.753  18.724   3.457
78203W        W50628  12.150   2.187  14.347
78204W        W50629  16.415  15.125  12.159
78205W        W50630  21.505  36.288   3.709
78206W        W50631  23.729  29.028  13.418
78207W        W50632  35.551  28.627   0.042
78208W        W50633  43.738   1.335   3.662
78209W        W50634  21.225  41.868  14.018
78210W        W50635   2.457   4.401   2.340
78211W        W50636  18.921  11.653   3.482
78212W        W50637   1.689  19.598  11.905
78213W        W50638   6.257   7.161  11.572
78214W        W50639  16.136   7.343   4.582
78215W        W50640   0.834   0.499   2.776
78216W        W50641   6.725  24.787  13.934
78217W        W50642  44.347  25.242  14.476
78218W        W50643   7.811  41.188  11.466
78219W        W50644  30.633  32.527   3.402
78220W        W50645  38.888  27.336   2.404
78221W        W50646  43.100  36.943  12.850
78222W        W50647  35.504  10.340   3.361
78223W        W50648  42.904  33.027   3.545
78224W        W50649  42.051  36.773   1.304
78225W        W50650  10.096   0.804  13.519
78226W        W50651  34.465  23.090   0.007
78227W        W50652   2.833  11.366   2.852
78228W        W50653  41.254  40.899  12.389
78229W        W50654  19.201  14.164   1.461
78230W        W50655  37.901  14.263   2.365
78231W        W50656  26.401  39.988  14.845
78232W        W50657  11.817  35.497   0.368
78233W        W50658  19.971  20.749   3.279
78234W        W50659  14.496  40.848   4.258
78235W        W50660  41.104  24.247  11.115
78236W        W50661   7.942  24.447  14.836
78237W        W50662  37.152   1.893  12.543
78238W        W50663  27.375  43.373   4.526
78239W        W50664   6.894  10.752  12.891
78240W        W50665   7.705   6.253  14.190
78241W        W50666  24.870  27.108   4.516
78242W        W50667   2.349  21.895  11.553
78243W        W50668  14.624  12.728  12.778
78244W        W50669   4.436  23.465  11.927
78245W        W50670  21.249  43.008  13.834
78246W        W50671  23.202  32.990  12.882
78247W        W50672  37.834  42.064   0.273
78248W        W50673  28.119  37.870   3.207
78249W        W50674  18.728  14.729  10.978
78250W        W50675  24.586  35.535  14.336
78251W        W50676   9.458  37.622   1.245
78252W        W50677   2.362  26.726   4.159
78253W        W50678  13.278  26.596   4.068
78254W        W50679   5.600  42.834   4.113
78255W        W50680  42.523  36.945   1.256
78256W        W50681  42.561  19.202  13.373
78257W        W50682   0.938  42.129  11.789
78258W        W50683  38.882  12.057  13.547
78259W        W50684  33.454  14.309   2.253
78260W        W50685  32.053  37.329   3.127
78261W        W50686  35.086  13.349   1.892
78262W        W50687  12.173  13.247  13.429
78263W        W50688  11.868  18.649  12.424
78264W        W50689  16.323  42.640  13.384
78265W        W50690  40.562   4.689  11.672
78266W        W50691  32.641  20.430  12.154
78267W        W50692   6.721  23.682  14.938
78268W        W50693  21.361  10.330   5.560
78269W        W50694  35.632   5.540   4.588
78270W        W50695  19.302   9.781  14.692
78271W        W50696  25.458   8.690   3.090
78272W        W50697   9.137  16.958  14.348
78273W        W50698   7.486  11.102   2.196
78274W        W50699   4.880  24.702   0.862
78275W        W50700   7.219  19.710   0.748
78276W        W50701  19.279  30.379   4.007
78277W        W50702   3.020   4.890  13.026
78278W        W50703   3.691  27.058  13.390
78279W        W50704  18.075  11.201  11.621
78280W        W50705  43.734  29.047  10.621
78281W        W50706  17.019   0.641   3.206
78282W        W50707  43.408  29.319  11.547
78283W        W50708  18.539   8.202  10.877
78284W        W50709  34.353  12.339  14.433
78285W        W50710   9.377   2.215  13.518
78286W        W50711  43.383   3.051   1.404
78287W        W50712  12.566  11.174   4.488
78288W        W50713  30.713  26.719   4.554
78289W        W50714  32.128  23.027   0.269
78290W        W50715  16.407  19.280  12.586
78291W        W50716  44.944  42.855   1.943
78292W        W50717  15.798  12.259   2.415
78293W        W50718   3.875  29.446   1.824
78294W        W50719  40.946  20.168   3.723
78295W        W50720   6.965  23.629   0.986
78296W        W50721   5.962  33.409  14.860
78297W        W50722   8.709  24.741   0.422
78298W        W50723   3.110  14.798   1.903
78299W        W50724  33.042  33.139  12.435
78300W        W50725  19.203  11.350  12.920
78301W        W50726  31.538  20.780  13.208
78302W        W50727   7.847  39.817  11.213
78303W        W50728  32.107   6.498   1.400
78304W        W50729  37.331  35.027   2.314
78305W        W50730  14.572  16.013  11.953
78306W        W50731  37.360   7.711  12.945
78307W        W50732  15.797   6.874  12.562
78308W        W50733   1.425  37.123   0.736
78309W        W50734  33.692  31.263   1.004
78310W        W50735  27.144  35.984  14.059
78311W        W50736  16.314   9.894   4.184
78312W        W50737  37.453  36.578   1.367
78313W        W50738  24.327  19.078  12.352
78314W        W50739  29.183  32.424  14.342
78315W        W50740  28.456  37.983  10.516
78316W        W50741  25.066  11.393  14.637
78317W        W50742  19.323  15.688  14.923
78318W        W50743  23.147  27.508  13.354
78319W        W50744  39.091  34.540   2.336
78320W        W50745  25.552   8.655  10.992
78321W        W50746   9.248  40.657  12.467
78322W        W50747  37.381  43.422   0.579
78323W        W50748  24.243   4.491  12.805
78324W        W50749  16.731  16.702  12.491
78325W        W50750   0.287  25.882  14.911
78326W        W50751   4.443   0.190  12.843
78327W        W50752  32.084  31.582   3.341
78328W        W50753  31.776  12.091  13.914
78329W        W50754   3.330  43.537   3.273
78330W        W50755   5.252  24.460   2.649
78331W        W50756  24.656  39.128  13.089
78332W        W50757  44.060  41.768   0.284
78333W        W50758   5.470   5.057   3.780
78334W        W50759  10.392  23.965  10.442
78335W        W50760  34.970  16.321   0.451
78336W        W50761  15.247   1.329   5.369
78337W        W50762  10.046  12.977   1.182
78338W        W50763  11.693   7.882  12.152
78339W        W50764  37.142  17.067   3.641
78340W        W50765  28.638  10.139  14.834
78341W        W50766  36.932  27.763  13.413
78342W        W50767  42.808   9.975   5.036
78343W        W50768  33.496  12.558   4.962
78344W        W50769  10.780  44.755   1.596
78345W        W50770  40.264  19.129  11.671
78346W        W50771  23.869  14.230  12.018
78347W        W50772  42.218  37.206  11.167
78348W        W50773  30.478  31.487  14.945
78349W        W50774   3.372  31.007   4.087
78350W        W50775  30.574  41.922  13.259
78351W        W50776  38.293  16.329  14.740
78352W        W50777  33.024   0.461   2.801
78353W        W50778  28.423  27.376  12.484
78354W        W50779   6.100  27.655   3.312
78355W        W50780  20.275   5.895   0.229
78356W        W50781   8.712  27.083  10.922
78357W        W50782   8.580  19.277  14.119
78358W        W50783   5.269  24.988   1.242
78359W        W50784  20.645  37.048  11.756
78360W        W50785  14.258  29.418  11.094
78361W        W50786  31.807  29.494  11.016
78362W        W50787   1.564  18.704   2.627
78363W        W50788   6.647  17.069  11.155
78364W        W50789  11.869  15.105   3.334
78365W        W50790  13.266   7.869   2.831
78366W        W50791  32.594  36.199   0.550
78367W        W50792  36.648   0.274  10.919
78368W        W50793  23.028  12.315  11.201
78369W        W50794  35.342  27.847  13.948
78370W        W50795   5.984  43.779   2.467
78371W        W50796  13.218   3.337   4.152
78372W        W50797   1.429  33.626   2.688
78373W        W50798  23.142  25.311  13.921
78374W        W50799   2.185   3.722  13.402
78375W        W50800  35.909  32.099  14.536
78376W        W50801  11.149  11.148   3.467
78377W        W50802  43.198  27.677  11.048
78378W        W50803  35.982  22.035   0.675
78379W        W50804   7.412  10.358  10.232
78380W        W50805  39.874   1.340  13.842
78381W        W50806  13.777   9.630   0.465
78382W        W50807  13.294  14.334   1.228
78383W        W50808   4.741  37.326  14.278
78384W        W50809   2.973   2.941  12.391
78385W        W50810  11.340  35.290   1.853
78386W        W50811  31.110  23.197   3.432
78387W        W50812   1.222  34.325  11.789
78388W        W50813  23.737   9.885  10.598
78389W        W50814  40.404  16.469  10.751
78390W        W50815  37.883   3.350  11.875
78391W        W50816  39.688  19.081   3.576
78392W        W50817  12.394  44.718   3.382
78393W        W50818   7.464  16.814  13.976
78394W        W50819  34.558  25.081  12.939
78395W        W50820   1.357  11.864  10.599
78396W        W50821   3.183  28.980   4.053
78397W        W50822  25.040  24.811   1.012
78398W        W50823   4.784   9.986   4.506
78399W        W50824  17.392   2.927   2.212
78400W        W50825  44.336   0.020   1.281
78401W        W50826   0.727  40.746  10.699
78402W        W50827  22.987   5.807  12.400
78403W        W50828  35.569  24.768   2.335
78404W        W50829  28.128   2.691  10.474
78405W        W50830  30.502   7.919  12.082
78406W        W50831  30.469  28.120  14.904
78407W        W50832  33.227  44.461  11.501
78408W        W50833  17.380  13.113  11.618
78409W        W50834   5.455  43.729  10.797
78410W        W50835   8.347  39.733   3.142
78411W        W50836  40.799  40.537  11.651
78412W        W50837  17.281  19.500   1.440
78413W        W50838  10.078  39.820  10.734
78414W        W50839  41.539  37.265  13.842
78415W        W50840   0.031  38.028  13.308
78416W        W50841  24.583   3.309  10.368
78417W        W50842  20.121  15.771   1.324
78418W        W50843   7.062  35.275  11.620
78419W        W50844  34.829  39.996   0.944
78420W        W50845  38.017  12.476  13.466
78421W        W50846  36.526  18.637   1.859
78422W        W50847  36.118  43.560   2.635
78423W        W50848  21.480  44.844   2.849
78424W        W50849  33.007  15.372   1.751
78425W        W50850  42.064  33.631   1.877
78426W        W50851   8.350  13.464  11.689
78427W        W50852  14.725  28.995   4.119
78428W        W50853  14.198  28.851   4.806
78429W        W50854  41.492  40.089   1.625
78430W        W50855   8.368  11.069   4.949
78431W        W50856  34.562  27.670   1.994
78432W        W50857   7.011  34.991  14.610
78433W        W50858   5.712  24.653   0.322
78434W        W50859   9.075  28.562  11.359
78435W        W50860  14.471  11.692  13.092
78436W        W50861   1.295  26.161   4.924
78437W        W50862  43.786  40.371   0.913
78438W        W50863  39.208  24.190  12.069
78439W        W50864  39.012  17.756   0.537
78440W        W50865  23.323   7.987   1.503
78441W        W50866  21.125  32.885   4.691
78442W        W50867   4.420   7.693  12.432
78443W        W50868   2.319  42.597  14.865
78444W        W50869  27.195   9.726  10.517
78445W        W50870  12.904  44.287   0.855
78446W        W50871   8.217  32.541   2.566
78447W        W50872  36.956  24.300   0.033
78448W        W50873   4.342   7.108   4.466
78449W        W50874  25.481  34.723   2.708
78450W        W50875  25.623  43.260  10.418
78451W        W50876  15.313  20.811  11.406
78452W        W50877  29.294  35.913   2.353
78453W        W50878  41.544  42.130  14.972
78454W        W50879  13.136  30.662   1.766
78455W        W50880   6.412  38.397   2.210
78456W        W50881  19.403  11.141  11.094
78457W        W50882  10.346  42.621   0.458
78458W        W50883   7.141  12.259  13.878
78459W        W50884  27.394  37.516   4.604
78460W        W50885  39.980  22.699  14.106
78461W        W50886  39.455  23.358  11.152
78462W        W50887  29.340  38.570   3.164
78463W        W50888   4.589  25.971  14.513
78464W        W50889  33.586   1.750  13.820
78465W        W50890  14.593  28.851   3.114
78466W        W50891  40.552  34.275   2.706
78467W        W50892  18.187  12.191   4.876
78468W        W50893  22.568  41.705   1.130
78469W        W50894  25.208   0.706  13.005
78470W        W50895  43.387  30.382   4.663
78471W        W50896  32.895  16.044  12.426
78472W        W50897  26.046  36.195  14.835
78473W        W50898  43.638  33.957  13.400
78474W        W50899   7.085  31.355   4.150
78475W        W50900  39.622  39.625  10.963
78476W        W50901  13.625  12.850   2.771
78477W        W50902  21.820   6.790   2.234
78478W        W50903  17.302   8.192  11.605
78479W        W50904  36.976   6.514  13.879
78480W        W50905  34.788  42.361   1.468
78481W        W50906  29.966   0.707  14.616
78482W        W50907  23.991  37.646  11.965
78483W        W50908   3.809  14.849  12.570
78484W        W50909   6.525   9.292   2.083
78485W        W50910  16.314  17.543  12.417
78486W        W50911  29.490  16.695  13.532
78487W        W50912  13.781  25.007   9.779
78488W        W50913  42.251  32.171  14.568
78489W        W50914  28.259  27.738  14.355
78490W        W50915  19.203  24.555  13.045
78491W        W50916  18.634  29.264   2.324
78492W        W50917   4.314  26.932  14.947
78493W        W50918   2.945  31.624  13.926
78494W        W50919   7.477  14.211   4.131
78495W        W50920  16.591   2.029   0.804
78496W        W50921   0.374  28.875   3.290
78497W        W50922   2.838  24.901  14.768
78498W        W50923  30.994  41.401   3.638
78499W        W50924  13.596  31.347  10.387
78500W        W50925  42.999  29.108   3.914
78501W        W50926  24.230  13.228  10.682
78502W        W50927  13.008  43.749  13.411
78503W        W50928  43.879  16.162  14.736
78504W        W50929  33.510  28.441  12.433
78505W        W50930  17.241  27.189   1.903
78506W        W50931  40.535  30.110   4.490
78507W        W50932  26.351  10.222  13.405
78508W        W50933  27.186  21.818   4.591
78509W        W50934  31.569  15.022  11.413
78510W        W50935  32.374  15.160   4.093
78511W        W50936   1.545  31.463  14.806
78512W        W50937  42.246  31.197  11.094
78513W        W50938  27.035  32.549   5.476
78514W        W50939  21.239  33.396   4.604
78515W        W50940   2.377  30.497   3.657
78516W        W50941  16.539  11.869  12.397
78517W        W50942  36.031  37.917   0.904
78518W        W50943  15.599   0.217   4.185
78519W        W50944  11.551  20.679  10.624
78520W        W50945  28.226  27.204   0.747
78521W        W50946  14.807   7.819   2.225
78522W        W50947   0.903  17.066   0.826
78523W        W50948  30.174  32.558   9.615
78524W        W50949  23.448  40.956  12.073
78525W        W50950   4.365   6.356  12.135
78526W        W50951   9.692  24.739  12.441
78527W        W50952  14.184   0.324  13.297
78528W        W50953  39.357   5.184  10.578
78529W        W50954  27.491  19.422  13.436
78530W        W50955  12.288  40.067  10.558
78531W        W50956  10.266  36.404   4.197
78532W        W50957  28.980  44.328   0.418
78533W        W50958   0.694  41.595   3.578
78534W        W50959  24.808  24.162   0.390
78535W        W50960  19.931   1.442   4.793
78536W        W50961  32.241  28.704  13.777
78537W        W50962   9.665  30.478  14.861
78538W        W50963   0.307  16.834   1.227
78539W        W50964  13.780  36.975   2.866
78540W        W50965  24.309  43.783   2.200
78541W        W50966  35.722  23.989  13.854
78542W        W50967  14.501   1.801  10.799
78543W        W50968   8.377   6.850   2.291
78544W        W50969  19.199  11.860   2.367
78545W        W50970  33.040  41.980   2.380
78546W        W50971  23.011  15.858  13.539
78547W        W50972  29.626  20.286   3.918
78548W        W50973  15.139   3.331   0.894
78549W        W50974   7.862  43.924  12.545
78550W        W50975   2.999  30.628  13.922
78551W        W50976  22.373  15.156   4.349
78552W        W50977  12.045  18.045   0.440
78553W        W50978  16.789  15.303  12.930
78554W        W50979  13.315  41.162  13.446
78555W        W50980  24.705  20.792  11.893
78556W        W50981  13.908  16.361   4.160
78557W        W50982  42.424  43.238   4.970
78558W        W50983  14.675  37.613   2.840
78559W        W50984  36.541  22.728   0.796
78560W        W50985  43.500  24.280  14.948
78561W        W50986  11.921  30.850  14.829
78562W        W50987  43.995  37.359   1.430
78563W        W50988  41.422  15.268   3.756
78564W        W50989  29.495  41.584  13.732
78565W        W50990   1.460  10.064   2.000
78566W        W50991  19.717  17.056  11.610
78567W        W50992  17.234  25.371   3.804
78568W        W50993  38.440   5.269   2.766
78569W        W50994  20.530  33.826   4.061
78570W        W50995  20.565  24.104  12.843
78571W        W50996  29.484  29.227  14.781
78572W        W50997  11.344  14.699   0.309
78573W        W50998  17.196  39.432   0.220
78574W        W50999  29.931  23.209   3.613
78575W        W51000  25.234  19.755   3.673
78576W        W51001   2.080  12.697  13.239
78577W        W51002  29.515  11.634  13.885
78578W        W51003  17.133  29.257   3.246
78579W        W51004   9.852  17.027  11.694
78580W        W51005  30.485  39.069   2.905
78581W        W51006  25.872  17.598   4.772
78582W        W51007  38.062  39.593   0.515
78583W        W51008  36.000  43.426  11.518
78584W        W51009  15.735  18.855   0.966
78585W        W51010  33.374   2.517   2.470
78586W        W51011  12.522  33.074   0.032
78587W        W51012  30.189  11.336  11.646
78588W        W51013   4.699  30.297   1.906
78589W        W51014  31.135  15.225   4.510
78590W        W51015  39.414  13.984   1.804
78591W        W51016  31.954  12.355   4.006
78592W        W51017  14.842  40.335  14.369
78593W        W51018   6.812  13.721   1.215
78594W        W51019   4.820  13.414   2.806
78595W        W51020  25.140   4.039  13.530
78596W        W51021  38.358  17.790   1.276
78597W        W51022   5.506  34.446   3.820
78598W        W51023  28.050  31.692  12.007
78599W        W51024  12.511  12.477  12.126
78600W        W51025  26.707  23.243  14.101
78601W        W51026  29.423  34.812   3.740
78602W        W51027  34.560   0.386  10.897
78603W        W51028  43.518  40.361   4.498
78604W        W51029  19.043  12.132  12.480
78605W        W51030  23.457   7.138   2.091
78606W        W51031  40.301  15.323   1.708
78607W        W51032   1.253  18.474   0.383
78608W        W51033   3.858   6.486  12.791
78609W        W51034  19.102  30.513   4.459
78610W        W51035  16.526  41.208   1.230
78611W        W51036  33.177   9.690   3.274
78612W        W51037  18.658   0.486  13.805
78613W        W51038   8.906  29.937   4.111
78614W        W51039   2.655  32.864   0.770
78615W        W51040  34.846   5.826   1.352
78616W        W51041   4.813  43.843  13.588
78617W        W51042  21.586   5.989  11.020
78618W        W51043   2.756   6.712   0.921
78619W        W51044  15.592  24.770   3.280
78620W        W51045  29.812  11.642   0.296
78621W        W51046  42.369   8.365  14.005
78622W        W51047  18.077   8.409   0.005
78623W        W51048  28.819  34.109  12.125
78624W        W51049  34.436  29.251  12.010
78625W        W51050  15.308  37.893  12.729
78626W        W51051  23.263   9.253  12.293
78627W        W51052  22.542  41.028  13.814
78628W        W51053  11.558  41.531  11.113
78629W        W51054  38.832  14.403   3.994
78630W        W51055  30.913   5.886   2.642
78631W        W51056  41.582  35.981  14.498
78632W        W51057  36.975   0.652  13.915
78633W        W51058   8.579   2.859  11.239
78634W        W51059  36.119  38.452   0.803
78635W        W51060  18.213   3.061   1.834
78636W        W51061  14.697  17.878  12.483
78637W        W51062   3.849   9.777  14.426
78638W        W51063  20.800   7.515  13.536
78639W        W51064  13.513  17.035   3.597
78640W        W51065   4.853  23.205   0.116
78641W        W51066   5.622  41.514  11.138
78642W        W51067  41.969  20.951   4.185
78643W        W51068  36.408  34.226  11.667
78644W        W51069   9.759  13.820  14.423
78645W        W51070  37.615  39.994  14.461
78646W        W51071  15.549  31.094  11.983
78647W        W51072  21.185  21.273   4.369
78648W        W51073  15.737  35.079  12.141
78649W        W51074  31.025  20.858   3.929
78650W        W51075  29.031  41.391   2.343
78651W        W51076  25.757  23.273  11.555
78652W        W51077  42.334  43.804  12.448
78653W        W51078  34.564  35.193  13.884
78654W        W51079   8.293  23.182  11.934
78655W        W51080  25.466   7.630   5.077
78656W        W51081  38.972  38.678  13.030
78657W        W51082   0.358  24.266   2.804
78658W        W51083   0.381  41.729   1.727
78659W        W51084   3.158   3.139   2.498
78660W        W51085  42.902  21.412  13.004
78661W        W51086  38.511  16.737   3.198
78662W        W51087  31.368  35.413  13.343
78663W        W51088  36.263   9.339  13.749
78664W        W51089  40.682   0.688   3.302
78665W        W51090  18.999  12.307  10.701
78666W        W51091  28.777  38.106  13.264
78667W        W51092  12.885   1.236   4.076
78668W        W51093  16.814  26.116  10.384
78669W        W51094  36.396  41.301   0.855
78670W        W51095  10.646  18.521  11.252
78671W        W51096   4.705  37.464   3.871
78672W        W51097  42.321   1.362  12.098
78673W        W51098   1.647  24.987   4.516
78674W        W51099  19.709   7.705   4.627
78675W        W51100  34.551   3.879  14.048
78676W        W51101  33.535  39.470   0.022
78677W        W51102  24.527  25.686   2.807
78678W        W51103   8.290   5.685   2.434
78679W        W51104  12.796   0.828   2.671
78680W        W51105  38.842   3.350   4.027
78681W        W51106  16.782  42.981   4.091
78682W        W51107  29.616  10.777  13.329
78683W        W51108  30.391  36.958   4.542
78684W        W51109  20.248  37.382   3.349
78685W        W51110  13.331  13.062  13.850
78686W        W51111   4.690  27.442   0.294
78687W        W51112   9.768  16.869  10.326
78688W        W51113   3.912  17.391   4.043
78689W        W51114  42.771  44.849  10.644
78690W        W51115   3.866  20.678  14.356
78691W        W51116  23.994   1.492  12.057
78692W        W51117  26.692   5.356   3.069
78693W        W51118  20.056  27.928  13.372
78694W        W51119  21.703  42.756   3.741
78695W        W51120   7.350  10.795  14.799
78696W        W51121  42.166  34.228   0.400
78697W        W51122  28.904   1.434   1.684
78698W        W51123  30.174  41.893   4.468
78699W        W51124  27.313  24.456   0.724
78700W        W51125  31.448  38.019   2.742
78701W        W51126  35.573  33.101   1.955
78702W        W51127   6.703  34.378   3.268
78703W        W51128  16.983  19.626   1.021
78704W        W51129  44.501  21.029   0.844
78705W        W51130   8.217  37.036  10.001
78706W        W51131   3.376  43.767   4.678
78707W        W51132  43.060  17.005  11.406
78708W        W51133  42.496  12.720   1.195
78709W        W51134  20.786  29.974  11.710
78710W        W51135  21.666   5.190   0.401
78711W        W51136  27.086   3.379  13.930
78712W        W51137  41.821  22.578   0.572
78713W        W51138  12.919   6.662   3.351
78714W        W51139  36.594   3.897   1.302
78715W        W51140   7.424  43.943   4.527
78716W        W51141  31.743  32.662  13.771
78717W        W51142  17.197  17.402   4.756
78718W        W51143  40.149  44.824  10.280
78719W        W51144  24.537  37.074   0.966
78720W        W51145  32.429  10.276   3.160
78721W        W51146  34.141  30.946  13.459
78722W        W51147  28.433  35.091   4.559
78723W        W51148  14.569  24.513   4.687
78724W        W51149  42.566  32.560  14.224
78725W        W51150  26.612  20.841  11.108
78726W        W51151  14.605   8.029  11.538
78727W        W51152  34.913  41.258   3.328
78728W        W51153  30.985  18.054  13.156
78729W        W51154  12.387  42.519   0.801
78730W        W51155   8.796  16.483  12.481
78731W        W51156  34.210   9.423  10.694
78732W        W51157   7.250  32.694  13.426
78733W        W51158  36.180  17.247   2.270
78734W        W51159  19.232   3.210   3.349
78735W        W51160  17.556  26.656   0.401
78736W        W51161   8.686  42.882  11.654
78737W        W51162  21.505  11.955   0.474
78738W        W51163   6.374  29.392   3.662
78739W        W51164  31.227  36.020  11.140
78740W        W51165   9.198   6.017  12.996
78741W        W51166   4.153  39.000   0.306
78742W        W51167  42.503  12.611  11.371
78743W        W51168  14.495   6.163  10.020
78744W        W51169  31.369  16.996  12.468
78745W        W51170  13.787  22.527  11.414
78746W        W51171   1.930  24.073   4.608
78747W        W51172  30.198  38.145   3.152
78748W        W51173  16.852  36.263  14.014
78749W        W51174  25.143   0.846  10.979
78750W        W51175  35.651  36.022  11.625
78751W        W51176  41.045  22.037   2.936
78752W        W51177  11.391  12.980   9.611
78753W        W51178  31.567   0.199   1.629
78754W        W51179  41.290  18.535  11.625
78755W        W51180  43.316  31.028   0.377
78756W        W51181   5.697   2.164  14.566
78757W        W51182  23.544  29.032   3.035
78758W        W51183  28.450  33.673  12.134
78759W        W51184  26.083  41.922  13.892
78760W        W51185  42.498   6.951   0.398
78761W        W51186  38.050  34.428  13.834
78762W        W51187  10.407   4.993   4.325
78763W        W51188  39.744   3.352  13.295
78764W        W51189  37.402  24.173  10.588
78765W        W51190  31.762  26.823  14.290
78766W        W51191  23.660  33.040  10.798
78767W        W51192   9.628   6.937  14.907
78768W        W51193  36.851  19.787   0.874
78769W        W51194  34.489  20.054   3.604
78770W        W51195  30.994  19.367   3.064
78771W        W51196  43.360   8.874   3.138
78772W        W51197  41.313  16.091   4.273
78773W        W51198  30.030  41.264   0.878
78774W        W51199   6.383  35.867   1.437
78775W        W51200  26.095  19.576  13.226
78776W        W51201  38.368  35.487  14.420
78777W        W51202  21.605  36.838   1.323
78778W        W51203  24.949   2.313  13.785
78779W        W51204  27.591  17.635   0.065
78780W        W51205  14.795  17.252   3.736
78781W        W51206  17.278  15.105  11.617
78782W        W51207  26.087  41.801   2.727
78783W        W51208   5.074  41.591  13.491
78784W        W51209   6.434  40.496   0.481
78785W        W51210  14.909  41.043  13.926
78786W        W51211  14.240  36.622  13.477
78787W        W51212   1.308  28.334   3.173
78788W        W51213  41.369  21.638  12.980
78789W        W51214  22.437  37.297   4.175
78790W        W51215  31.047  27.452  12.591
78791W        W51216  30.932  16.705  14.435
78792W        W51217  39.367  15.277   4.911
78793W        W51218  23.198  21.041   3.641
78794W        W51219   0.333  40.093  11.709
78795W        W51220   1.736   4.436  14.399
78796W        W51221  34.508   2.935   4.062
78797W        W51222  32.147  24.625   1.404
78798W        W51223   5.229   1.674  12.584
78799W        W51224  32.105   6.012   3.938
78800W        W51225  33.005  11.656  13.403
78801W        W51226  25.952  44.473  14.549
78802W        W51227  36.993  24.161  10.258
78803W        W51228  29.570  26.935  11.823
78804W        W51229   5.046   6.738   2.435
78805W        W51230  40.899  35.603   1.445
78806W        W51231   4.250  22.661   1.647
78807W        W51232   1.328  36.322  10.785
78808W        W51233   3.213   6.434  11.072
78809W        W51234   7.024  15.881  13.764
78810W        W51235   9.508  14.651  13.777
78811W        W51236  30.921  36.499   3.130
78812W        W51237  35.120  41.669  11.074
78813W        W51238   0.761  33.045  10.199
78814W        W51239  29.096  31.868  13.509
78815W        W51240  25.517   6.925   1.399
78816W        W51241   1.253  36.956   0.272
78817W        W51242  29.154  39.395  14.933
78818W        W51243  37.791  25.693  13.345
78819W        W51244  36.135  31.566   3.422
78820W        W51245  31.110  33.370   1.180
78821W        W51246  15.113  36.848   2.494
78822W        W51247   1.543  23.694  12.504
78823W        W51248  39.313  33.618   1.725
78824W        W51249  40.507  42.383  13.831
78825W        W51250  27.076  37.599   1.020
78826W        W51251  29.598  29.685  10.880
78827W        W51252   4.863  18.671  14.440
78828W        W51253  26.012  34.627   2.811
78829W        W51254  32.372  44.771   2.802
78830W        W51255  10.711  43.370   2.178
78831W        W51256  13.379  23.233   3.742
78832W        W51257  39.518  40.653   2.682
78833W        W51258   4.824  34.034  11.395
78834W        W51259  34.377  40.206   4.247
78835W        W51260   4.999  23.437  12.599
78836W        W51261  21.215  25.009  12.648
78837W        W51262  26.260  19.607  13.725
78838W        W51263   4.420   1.970   2.289
78839W        W51264   9.784  19.170   4.656
78840W        W51265  16.551  39.470  12.089
78841W        W51266  12.550  39.996   3.264
78842W        W51267  38.186   5.960   3.758
78843W        W51268  22.523  10.191  12.960
78844W        W51269  39.729  24.057  13.561
78845W        W51270   0.341  34.581   3.320
78846W        W51271  28.678   1.210  12.965
78847W        W51272  25.526  14.396  11.267
78848W        W51273   2.770  36.498  11.401
78849W        W51274  37.278  14.491   5.133
78850W        W51275   9.127   6.414   0.939
78851W        W51276  10.137  40.864   3.084
78852W        W51277  39.602  19.732  13.434
78853W        W51278  40.252  14.676  11.836
78854W        W51279   0.769  34.218   3.173
78855W        W51280   5.723  12.079   0.409
78856W        W51281  15.644   6.485   2.890
78857W        W51282  23.543  31.989  13.934
78858W        W51283  33.003  12.618  13.414
78859W        W51284  12.925  35.395  11.661
78860W        W51285  12.330  19.247  13.795
78861W        W51286  31.776  36.545   4.934
78862W        W51287  29.681  28.383  11.085
78863W        W51288   2.007  10.765   0.295
78864W        W51289  10.349  14.177   0.501
78865W        W51290  11.606  18.194  13.387
78866W        W51291  42.715   9.244   3.143
78867W        W51292  30.420  13.169   0.901
78868W        W51293  25.991  33.236   4.662
78869W        W51294  18.067  32.387   1.309
78870W        W51295   8.427  35.811   1.590
78871W        W51296   6.765  13.330  13.473
78872W        W51297  36.203   6.722  13.470
78873W        W51298  25.401  24.982  11.867
78874W        W51299   9.140  32.466   2.851
78875W        W51300  27.119  42.508   3.200
78876W        W51301  30.619   1.127   5.034
78877W        W51302  23.172  18.552   1.356
78878W        W51303   9.616  14.611  14.814
78879W        W51304  24.050  36.061   3.606
78880W        W51305  30.127  33.126  13.867
78881W        W51306  21.144  39.809   3.516
78882W        W51307  19.061   2.539  14.867
78883W        W51308  18.757  37.383  10.525
78884W        W51309  26.116  39.553   4.600
78885W        W51310  35.404  43.494   2.373
78886W        W51311  26.406  38.792  11.415
78887W        W51312  25.696   8.438   2.668
78888W        W51313  22.488  13.408  12.896
78889W        W51314  16.154  20.348   3.893
78890W        W51315  27.221  22.597  11.987
78891W        W51316  17.220  41.043  14.368
78892W        W51317  11.616  40.290  14.901
78893W        W51318  38.599  14.686  11.631
78894W        W51319  35.068  24.958  11.083
78895W        W51320   2.701  23.087   3.282
78896W        W51321  22.502  18.587   0.685
78897W        W51322   4.226  12.903   4.782
78898W        W51323  36.394  41.933   4.943
78899W        W51324  10.671   3.903   3.770
78900W        W51325  30.631  36.859   2.320
78901W        W51326  35.294  24.545   4.083
78902W        W51327   0.215   6.392  11.562
78903W        W51328  12.911  24.953   2.522
78904W        W51329  35.282  31.411   0.276
78905W        W51330  23.236  27.078   1.830
78906W        W51331   7.409  18.843   1.625
78907W        W51332  31.056  16.733   2.996
78908W        W51333  29.720  42.901  14.293
78909W        W51334  18.819  12.088   2.067
78910W        W51335   0.263  37.485   4.374
78911W        W51336  15.756  27.875  10.500
78912W        W51337  24.454  42.748  12.112
78913W        W51338  19.358  44.122  11.701
78914W        W51339   5.974  30.034  11.639
78915W        W51340  39.415  31.408  10.749
78916W        W51341  12.112  31.550   3.699
78917W        W51342  41.386  25.721  12.841
78918W        W51343  15.262   3.857   3.708
78919W        W51344   6.845  43.964  14.744
78920W        W51345  38.326  30.517  14.564
78921W        W51346  44.607  16.834   4.928
78922W        W51347  21.212   9.535  14.603
78923W        W51348  28.004  39.060   1.787
78924W        W51349  24.960   4.946   3.331
78925W        W51350  37.373  10.769  12.063
78926W        W51351  13.856  33.612  11.402
78927W        W51352  26.960  38.381   2.266
78928W        W51353  36.152   6.458  12.575
78929W        W51354  22.303  44.843  11.838
78930W        W51355  23.589  19.307   2.338
78931W        W51356  36.008  27.973   2.426
78932W        W51357  29.465  23.619  11.619
78933W        W51358  24.980  30.120  12.490
78934W        W51359   7.461  37.898  11.117
78935W        W51360  23.742  44.710  11.704
78936W        W51361  39.394   9.211   1.257
78937W        W51362  13.992  40.668  10.932
78938W        W51363  17.304  18.350   2.380
78939W        W51364  44.955  24.259  13.908
78940W        W51365  29.809  18.202   4.100
78941W        W51366  12.394   5.954  11.088
78942W        W51367  14.022  19.497   4.190
78943W        W51368  31.643  13.624   3.566
78944W        W51369  17.821  41.075  13.109
78945W        W51370  39.047  25.185   1.256
78946W        W51371  33.205   0.940   2.741
78947W        W51372   8.941   5.878  12.144
78948W        W51373   1.642  29.647   2.212
78949W        W51374  14.321  27.046   3.742
78950W        W51375  21.210  42.831  14.917
78951W        W51376  19.801   7.096  11.130
78952W        W51377  17.119  31.342   1.899
78953W        W51378  12.261  42.445  13.901
78954W        W51379  39.927   0.788  12.564
78955W        W51380  23.142  14.037  12.448
78956W        W51381   8.131  18.815   2.767
78957W        W51382  26.753  11.073  12.385
78958W        W51383   5.908   4.390  11.576
78959W        W51384   6.534  23.676  13.594
78960W        W51385   0.351  32.636   4.503
78961W        W51386  39.491  25.302   0.484
78962W        W51387  18.062  42.007  13.798
78963W        W51388  31.050  30.153   3.896
78964W        W51389  29.685  22.006   3.179
78965W        W51390  16.219  28.654   3.053
78966W        W51391  33.340   0.820   4.254
78967W        W51392  36.957  15.817   2.663
78968W        W51393   1.436  27.327   3.295
78969W        W51394  17.090   7.201   2.638
78970W        W51395  40.295  20.763  10.669
78971W        W51396  16.310  15.566  10.741
78972W        W51397  38.331   9.146   3.297
78973W        W51398  24.998  19.205  10.772
78974W        W51399  23.302  22.296   0.939
78975W        W51400  32.497  17.602  12.465
78976W        W51401  40.744  12.734  11.612
78977W        W51402   7.695   5.088   0.953
78978W        W51403   1.530  36.003  13.948
78979W        W51404  33.086  33.782   3.618
78980W        W51405  23.310   7.599  13.626
78981W        W51406  20.953  38.961   1.816
78982W        W51407   1.225  42.507  12.939
78983W        W51408  30.934  42.455   1.479
78984W        W51409   2.348  29.217  11.206
78985W        W51410  39.806  28.609   4.866
78986W        W51411  32.090   7.433   3.868
78987W        W51412  42.571   0.464  14.858
78988W        W51413   9.444  43.026   4.750
78989W        W51414  35.880  11.787  13.807
78990W        W51415  43.245  13.604   3.143
78991W        W51416  18.523  42.790   3.577
78992W        W51417   1.337   6.890  12.519
78993W        W51418  32.235  23.489   3.084
78994W        W51419  24.163  14.074  13.533
78995W        W51420  35.069  26.993   2.070
78996W        W51421  15.878   5.933   3.686
78997W        W51422  14.521  18.540   3.425
78998W        W51423  30.088  30.073  13.848
78999W        W51424  38.103  41.856   4.132
79000W        W51425   4.010  24.974   0.956
79001W        W51426  31.970  27.496  12.521
79002W        W51427  30.230  16.418   4.865
79003W        W51428  33.271  39.423   1.431
79004W        W51429   6.223  24.836   1.292
79005W        W51430  21.188  20.616  10.753
79006W        W51431  21.604   7.159  12.210
79007W        W51432   0.067  27.614   0.928
79008W        W51433   0.842  29.696  14.636
79009W        W51434  39.026  22.640   0.748
79010W        W51435   2.451  41.848   3.266
79011W        W51436   3.717  11.662   1.461
79012W        W51437   0.552  38.964  13.350
79013W        W51438  30.595  43.954  12.136
79014W        W51439  10.316  15.671  13.926
79015W        W51440  31.062  27.889   3.191
79016W        W51441  28.024   1.965   3.251
79017W        W51442  29.663   0.483   2.793
79018W        W51443  36.636  11.755   0.846
79019W        W51444  17.760  21.218  10.418
79020W        W51445   1.168  22.879  14.112
79021W        W51446   5.502   0.873  12.003
79022W        W51447  44.202  39.432  11.037
79023W        W51448  30.123  32.781   3.628
79024W        W51449  12.539  20.255  14.499
79025W        W51450  15.433  40.510   4.531
79026W        W51451  14.462   3.251  14.990
79027W        W51452  20.726   0.932  13.350
79028W        W51453  33.415   9.262  11.134
79029W        W51454  23.782  33.049   2.199
79030W        W51455  22.915  14.244  10.836
79031W        W51456   5.897  25.596  14.387
79032W        W51457  33.444   1.252  13.976
79033W        W51458  21.982  22.185  12.909
79034W        W51459  13.043   4.110  11.120
79035W        W51460  27.739  32.440   0.955
79036W        W51461  35.763   9.314  10.634
79037W        W51462  33.629  20.732  11.357
79038W        W51463  14.378  21.043   3.787
79039W        W51464  42.880  17.965  10.241
79040W        W51465  27.361  12.059  13.478
79041W        W51466  32.809   2.710  14.377
79042W        W51467  11.645  35.483  12.079
79043W        W51468  29.604   4.351   0.404
79044W        W51469  16.921   8.259   1.914
79045W        W51470  30.679  32.442  12.101
79046W        W51471  36.971  40.792   4.122
79047W        W51472  12.929   6.314  10.510
79048W        W51473  12.945  40.250  12.508
79049W        W51474  42.631   1.843  14.083
79050W        W51475  43.744  34.696   4.031
79051W        W51476  36.297  43.702   2.163
79052W        W51477  26.544  42.037  10.961
79053W        W51478  18.970  38.667  11.120
79054W        W51479  20.785   3.269  10.551
79055W        W51480  14.338   3.709   3.204
79056W        W51481  32.963   8.819   0.321
79057W        W51482  24.655  10.639  12.416
79058W        W51483  10.288  39.393  12.847
79059W        W51484  10.012  20.247   2.193
79060W        W51485  31.962   2.729   0.244
79061W        W51486  17.209  13.586   0.432
79062W        W51487   7.166  32.353   0.283
79063W        W51488   1.634  44.664  14.403
79064W        W51489  32.747  29.091  10.368
79065W        W51490  13.691  40.276   0.916
79066W        W51491   3.226   7.335  13.366
79067W        W51492  27.943  27.321   3.728
79068W        W51493  23.685  35.076   0.295
79069W        W51494  41.097  21.450  13.393
79070W        W51495  42.015   3.552  13.913
79071W        W51496  32.846  41.121   2.944
79072W        W51497  24.122  24.436   3.663
79073W        W51498   1.245  31.552   1.512
79074W        W51499  14.988  33.557  11.176
79075W        W51500   5.118  26.131  12.562
79076W        W51501  26.414  13.173   1.799
79077W        W51502  34.365  41.848  11.488
79078W        W51503  18.555  34.966   1.753
79079W        W51504  22.231  20.089   0.672
79080W        W51505   9.700  11.130   5.004
79081W        W51506  43.471  33.374   4.667
79082W        W51507  20.043   6.806   3.015
79083W        W51508  12.773  27.234   2.969
79084W        W51509  23.065  43.325   0.248
79085W        W51510  19.622   8.576   0.612
79086W        W51511  18.642  42.369  13.910
79087W        W51512  12.551  40.231   2.747
79088W        W51513  20.981  28.207  14.331
79089W        W51514  33.479   9.338   2.135
79090W        W51515  23.590   5.799   0.411
79091W        W51516   5.873  24.630  10.658
79092W        W51517  36.388  25.488  10.523
79093W        W51518  26.092   9.836   3.612
79094W        W51519  18.057  14.859   0.964
79095W        W51520  42.295  25.144  11.045
79096W        W51521  31.431  19.197   1.371
79097W        W51522   8.205  28.763   2.708
79098W        W51523   7.179  28.895   0.326
79099W        W51524  26.051  28.237   4.636
79100W        W51525  21.499  25.867   4.684
79101W        W51526  25.597   0.118   2.884
79102W        W51527  37.159   4.652  12.031
79103W        W51528  43.491   2.845  10.885
79104W        W51529   6.325  30.681   1.433
79105W        W51530  17.999   8.491  12.984
79106W        W51531  43.815  39.627   4.228
79107W        W51532  19.224  27.437   2.248
79108W        W51533   3.373  33.289  14.329
79109W        W51534  20.241  43.910   0.838
79110W        W51535  23.044  33.142  14.667
79111W        W51536   5.212   9.234   1.334
79112W        W51537  29.068  31.965   0.496
79113W        W51538  20.468  14.201   3.972
79114W        W51539  34.952  28.219   1.431
79115W        W51540  37.038  26.046  12.875
79116W        W51541  22.456  22.654  10.132
79117W        W51542  44.387   7.024   3.273
79118W        W51543   4.438  41.731  12.419
79119W        W51544  30.130  28.455   1.167
79120W        W51545  37.807  43.365  10.905
79121W        W51546  16.920  19.986  12.440
79122W        W51547  40.501  16.043   2.736
79123W        W51548  15.039  24.302   4.510
79124W        W51549  39.647  37.079  13.463
79125W        W51550   1.835  35.368   0.792
79126W        W51551  42.707  23.170   1.973
79127W        W51552   0.661  23.672   4.171
79128W        W51553   3.837  32.136  14.948
79129W        W51554  37.598  27.946  11.161
79130W        W51555  22.318  19.683   2.021
79131W        W51556  11.960   2.692   0.237
79132W        W51557  10.616  33.230  13.504
79133W        W51558  44.048  35.947  13.007
79134W        W51559  44.698  29.204   1.405
79135W        W51560  15.240  42.748  12.001
79136W        W51561  12.857   0.252  10.529
79137W        W51562  40.658  31.920   3.245
79138W        W51563  28.324  26.841   9.821
79139W        W51564  22.751   1.100  11.982
79140W        W51565   3.329  34.454   4.158
79141W        W51566  18.351  16.150   1.903
79142W        W51567  33.959   3.441   1.826
79143W        W51568  27.473  21.927   2.258
79144W        W51569  41.604  31.771   3.355
79145W        W51570  42.798  31.076  10.784
79146W        W51571  36.420  22.021   2.216
79147W        W51572  44.880  31.019   0.973
79148W        W51573  14.617  26.907  14.874
79149W        W51574  30.529   9.872  13.072
79150W        W51575  23.690  10.237   4.179
79151W        W51576   3.581  41.445  11.143
79152W        W51577  15.690  18.097  12.979
79153W        W51578  40.863  35.456   0.961
79154W        W51579   9.199  44.432  13.979
79155W        W51580  18.597   0.765  11.109
79156W        W51581  10.086  35.839   2.103
79157W        W51582  26.673  36.301  14.709
79158W        W51583   8.990  23.884  12.851
79159W        W51584  39.583  37.813  11.591
79160W        W51585  29.404  19.170   1.127
79161W        W51586   6.104  38.841   0.913
79162W        W51587   1.519  18.799   3.127
79163W        W51588   8.946  27.948  12.444
79164W        W51589   4.299  32.242   0.209
79165W        W51590  14.261   6.123  12.553
79166W        W51591  24.821  33.472  14.705
79167W        W51592  44.951  27.638   2.678
79168W        W51593  44.256   1.258  12.986
79169W        W51594  11.779  18.332   0.088
79170W        W51595  14.594  37.545   3.722
79171W        W51596  26.711  21.604  13.129
79172W        W51597  32.468  44.189  11.178
79173W        W51598   8.114   5.819  11.461
79174W        W51599  16.987  21.573  12.491
79175W        W51600  22.481  11.103  13.906
79176W        W51601  37.173  24.187   3.211
79177W        W51602   4.683  40.841  14.318
79178W        W51603   4.754  33.313   0.223
79179W        W51604  35.243  41.278  12.888
79180W        W51605  39.614   3.351  14.743
79181W        W51606  19.951  31.736  10.820
79182W        W51607  19.520  25.653  10.807
79183W        W51608  23.560  30.483   2.073
79184W        W51609   7.263  14.304   2.347
79185W        W51610   1.719   9.558   0.976
79186W        W51611  41.768  37.715  12.899
79187W        W51612  15.111  38.623  14.974
79188W        W51613  42.463  34.086   0.812
79189W        W51614  43.339  27.608   4.180
79190W        W51615  23.209  30.463  12.676
79191W        W51616  33.324  40.073  10.371
79192W        W51617  15.861   5.249  14.813
79193W        W51618  24.655  38.350   3.182
79194W        W51619  42.366  23.499   1.727
79195W        W51620   1.036  25.721  13.936
79196W        W51621   9.938  20.537   1.774
79197W        W51622  25.141  23.101   0.159
79198W        W51623  22.081  19.269   2.561
79199W        W51624   6.511  21.518   1.422
79200W        W51625  18.740  22.934  11.001
79201W        W51626  23.418  41.847  14.072
79202W        W51627  11.557   7.580   1.043
79203W        W51628  19.116   3.239   1.078
79204W        W51629  43.878  30.501   2.464
79205W        W51630  17.041  23.150   2.726
79206W        W51631  38.445  23.959  14.361
79207W        W51632  37.550  29.557   3.379
79208W        W51633  33.548   2.623  12.386
79209W        W51634  36.852  17.499   0.786
79210W        W51635  10.392  13.945  12.877
79211W        W51636  15.876  16.847  14.874
79212W        W51637  15.817   5.512   4.554
79213W        W51638  35.635  10.722  14.422
79214W        W51639  10.481  43.193  12.848
79215W        W51640  36.782  39.838   2.740
79216W        W51641   8.618  27.482  14.738
79217W        W51642  27.377   9.735  14.417
79218W        W51643  39.050  20.405  14.424
79219W        W51644  15.275  14.823   4.104
79220W        W51645  28.493  20.979  13.449
79221W        W51646  41.322   5.681  10.860
79222W        W51647  14.556  24.960   0.839
79223W        W51648  22.278   1.949  12.029
79224W        W51649   5.090  42.992   5.004
79225W        W51650   2.278   9.737   2.709
79226W        W51651   8.616  11.568   1.901
79227W        W51652  28.450  13.880   3.709
79228W        W51653  18.009  40.138  14.974
79229W        W51654  33.848  44.260   2.315
79230W        W51655  35.778  31.758   2.489
79231W        W51656  24.149  22.791   4.749
79232W        W51657  39.805   0.240   1.382
79233W        W51658  39.859   1.454   0.737
79234W        W51659  17.528  27.375  11.070
79235W        W51660  19.666   2.691  13.065
79236W        W51661  40.917  36.164   3.288
79237W        W51662   6.184  15.981   1.400
79238W        W51663  31.466  39.950  13.620
79239W        W51664  33.446  38.530   0.255
79240W        W51665  16.818  33.453  13.816
79241W        W51666  11.245   5.415   2.228
79242W        W51667  18.863  22.212   2.814
79243W        W51668  32.412  42.529   0.703
79244W        W51669  34.614  20.625  10.550
79245W        W51670  14.556   6.743  14.144
79246W        W51671  37.653   9.406  11.590
79247W        W51672   5.522  39.508   0.367
79248W        W51673  13.265   5.906   4.405
79249W        W51674  24.266  41.515  10.686
79250W        W51675  12.771   2.419  13.401
79251W        W51676   7.206  33.869   1.740
79252W        W51677  15.093  13.675   2.317
79253W        W51678   5.964  25.189  11.136
79254W        W51679  36.861  22.945   2.766
79255W        W51680  12.808  41.540  10.715
79256W        W51681   4.787  20.109   3.634
79257W        W51682   5.696  27.464   3.575
79258W        W51683  38.273  24.166   2.156
79259W        W51684  42.231   5.585  12.867
79260W        W51685  30.804   2.344   4.223
79261W        W51686  26.320  26.050   2.787
79262W        W51687   0.452  15.219   2.748
79263W        W51688  36.927   1.406  12.507
79264W        W51689  16.732  44.719  13.307
79265W        W51690  36.085  28.162   2.903
79266W        W51691  35.648   2.484   3.716
79267W        W51692  26.008  21.673  11.934
79268W        W51693  43.739  30.440  14.774
79269W        W51694  12.372  39.849  14.558
79270W        W51695   3.274  28.959   2.799
79271W        W51696  32.487  18.654  11.668
79272W        W51697  24.596  27.461   1.296
79273W        W51698   0.044  16.595  14.887
79274W        W51699  30.151  23.191  13.025
79275W        W51700  44.240  30.886  13.960
79276W        W51701  17.414   9.887   1.760
79277W        W51702  29.640   8.240   2.269
79278W        W51703  20.244  27.660  12.575
79279W        W51704  16.733  27.002   0.186
79280W        W51705  30.013  26.099  14.395
79281W        W51706  31.984  34.061  11.094
79282W        W51707  39.582   1.426   2.357
79283W        W51708  43.557  22.538   0.780
79284W        W51709  24.978  19.236   0.023
79285W        W51710  37.072  41.508  13.674
79286W        W51711   3.097  25.235   3.634
79287W        W51712   0.745   7.715  11.668
79288W        W51713   1.247  31.194   2.963
79289W        W51714  37.089  34.878  11.601
79290W        W51715  40.063   6.693   2.142
79291W        W51716   2.739  41.493   2.975
79292W        W51717  30.253  23.627   3.596
79293W        W51718  22.118  15.677   0.275
79294W        W51719  21.894   9.453   4.211
79295W        W51720   2.094  25.028   3.793
79296W        W51721  15.708  35.438  13.041
79297W        W51722  11.367  44.037  11.161
79298W        W51723  24.723   8.230   0.333
79299W        W51724  44.448  28.657   0.736
79300W        W51725  42.580  27.188   1.805
79301W        W51726   9.717  12.296  14.672
79302W        W51727  22.032   2.225   3.336
79303W        W51728   2.256   3.359  12.740
79304W        W51729  39.967   6.936  12.532
79305W        W51730  37.781  20.236  14.943
79306W        W51731  37.518  16.873   3.139
79307W        W51732  41.760  42.513  12.085
79308W        W51733  12.767  15.546  10.545
79309W        W51734  26.905   1.231  14.829
79310W        W51735  22.231  41.706  14.064
79311W        W51736  33.874   8.016  12.618
79312W        W51737   3.855  26.517   3.586
79313W        W51738  14.592   4.262  11.713
79314W        W51739   8.159  23.684   2.713
79315W        W51740  14.411   8.848  12.132
79316W        W51741  19.808  22.246   4.773
79317W        W51742   7.410   2.446  13.899
79318W        W51743  30.914  23.034   2.626
79319W        W51744  13.991  25.615  12.879
79320W        W51745   1.793  31.288   5.048
79321W        W51746   1.751  20.987   0.953
79322W        W51747  40.758  26.532   4.580
79323W        W51748   7.883   7.938  14.022
79324W        W51749  24.273  29.122   0.691
79325W        W51750  30.041  16.456   9.690
79326W        W51751  20.590   5.725  12.916
79327W        W51752  16.605   1.388   2.138
79328W        W51753  33.603  30.800  10.688
79329W        W51754  25.497   5.822   4.579
79330W        W51755  13.820  26.147   0.683
79331W        W51756   8.350  40.763   3.707
79332W        W51757  27.899  29.109  14.026
79333W        W51758  13.663  28.210  10.407
79334W        W51759   4.022  42.687  11.746
79335W        W51760   8.651   0.164  11.614
79336W        W51761  39.560   1.479   3.245
79337W        W51762  18.643  14.816  14.907
79338W        W51763  43.819   1.582   0.959
79339W        W51764  30.553  31.510   3.763
79340W        W51765  12.161  22.497  14.998
79341W        W51766  15.242  21.692   3.689
79342W        W51767   6.416  34.937   4.641
79343W        W51768  12.598   5.125  13.940
79344W        W51769  32.954  17.531   0.862
79345W        W51770  23.983  22.016   0.523
79346W        W51771   5.933  36.033   2.166
79347W        W51772  26.998  29.122   0.937
79348W        W51773  21.809   1.597   5.058
79349W        W51774   8.035  20.137   2.347
79350W        W51775  35.825  18.716  13.449
79351W        W51776  21.752  29.061  12.546
79352W        W51777   4.137  43.112  11.991
79353W        W51778  18.570   4.515  11.133
79354W        W51779  31.467  36.522   0.827
79355W        W51780  20.680  36.853  11.259
79356W        W51781  17.192   5.999   2.934
79357W        W51782  27.598   7.913  13.379
79358W        W51783  14.615  22.510   0.919
79359W        W51784  30.096  35.352   1.838
79360W        W51785  30.807  17.360  13.809
79361W        W51786  38.522  13.257  10.686
79362W        W51787   0.249  10.866   3.699
79363W        W51788  13.735  12.692  14.014
79364W        W51789   7.430  38.361   3.049
79365W        W51790   2.477   1.994   2.131
79366W        W51791  36.479  21.980  13.833
79367W        W51792   7.336  20.183   1.340
79368W        W51793  34.397  43.524  12.440
79369W        W51794  31.619  22.104  10.434
79370W        W51795  43.812  30.590   4.859
79371W        W51796  23.309  14.131  12.935
79372W        W51797   5.184   3.000  13.150
79373W        W51798   0.588  26.914   1.061
79374W        W51799  43.976  21.009   0.763
79375W        W51800  36.598  43.795   4.688
79376W        W51801  42.395  18.756  13.633
79377W        W51802  27.934  36.832  10.597
79378W        W51803   7.901  35.534  11.715
79379W        W51804  37.041  27.929   4.153
79380W        W51805  23.948  35.382  11.538
79381W        W51806  10.687  36.437  13.818
79382W        W51807  21.525  11.578  12.904
79383W        W51808  41.586   7.056  11.544
79384W        W51809  19.067  22.032  14.219
79385W        W51810  17.706  24.041  11.083
79386W        W51811  29.171  38.505  13.950
79387W        W51812  33.468  23.454  11.516
79388W        W51813   4.980   6.012   1.201
79389W        W51814   7.179  36.967   0.454
79390W        W51815  19.050  41.801  13.500
79391W        W51816  16.421   6.375   4.178
79392W        W51817  41.202  12.734  11.936
79393W        W51818  39.830  16.685   3.679
79394W        W51819  21.685  30.659   2.653
79395W        W51820  18.210  39.863  11.906
79396W        W51821   2.418  35.187   5.036
79397W        W51822   1.707  18.833  14.123
79398W        W51823  11.843  31.147   0.648
79399W        W51824   3.461   6.447   1.685
79400W        W51825   4.514  37.935   3.782
79401W        W51826   0.354  28.730   0.495
79402W        W51827   8.415  35.002   0.078
79403W        W51828  20.441  43.277  13.487
79404W        W51829  20.060  27.026  13.523
79405W        W51830  40.901  41.627  11.111
79406W        W51831  11.322  26.867  11.584
79407W        W51832   1.856  35.403  12.329
79408W        W51833  26.148   0.692  11.083
79409W        W51834  40.444  31.128  12.008
79410W        W51835  38.449  36.407   2.254
79411W        W51836  19.216  42.189   4.706
79412W        W51837  38.535  19.722  14.780
79413W        W51838   0.577  10.685  12.057
79414W        W51839  36.837  28.518   1.661
79415W        W51840  21.955   1.188  11.109
79416W        W51841   3.480   7.821  13.538
79417W        W51842   2.736  19.051  14.921
79418W        W51843  14.779   9.740  14.409
79419W        W51844  33.460  30.518  12.339
79420W        W51845   7.217  11.710   1.638
79421W        W51846  23.030  24.733   0.553
79422W        W51847  11.268  43.373  14.764
79423W        W51848  32.593  16.588  13.355
79424W        W51849  39.077  30.425   0.826
79425W        W51850  30.461  40.388  12.484
79426W        W51851  23.152  20.282  12.067
79427W        W51852  39.388  28.012   4.192
79428W        W51853   8.693   4.625   1.020
79429W        W51854   0.371  42.011  10.652
79430W        W51855  28.809  34.515   1.769
79431W        W51856   4.483   0.431  13.784
79432W        W51857   8.068  12.855  11.188
79433W        W51858  35.221  42.927   2.709
79434W        W51859  19.050  19.822  13.514
79435W        W51860  17.286  24.688   2.805
79436W        W51861   1.548  37.792   3.022
79437W        W51862  36.319   2.553  11.408
79438W        W51863  32.625  30.915   2.928
79439W        W51864  11.331  37.467   1.589
79440W        W51865  23.056  30.072   2.190
79441W        W51866  44.244  42.034   1.075
79442W        W51867  12.121  31.844   0.557
79443W        W51868  16.164  36.792   0.409
79444W        W51869  29.356  29.002   2.900
79445W        W51870  16.626  31.486  14.258
79446W        W51871  20.010  24.230  12.429
79447W        W51872  37.315  42.039   4.586
79448W        W51873  13.113   6.966  14.328
79449W        W51874  36.656   1.900   2.705
79450W        W51875  15.571  21.383   3.356
79451W        W51876  36.425  16.080  11.684
79452W        W51877  21.979  30.561   0.025
79453W        W51878  41.438  25.799  11.564
79454W        W51879   2.511   7.351  10.304
79455W        W51880  27.015  42.604  13.152
79456W        W51881  37.381  15.577   2.867
79457W        W51882  31.062  40.039  12.136
79458W        W51883  12.826  32.852   2.823
79459W        W51884  16.856  26.703   0.979
79460W        W51885  16.858  42.472  12.513
79461W        W51886  31.974   4.908  11.077
79462W        W51887   6.599  29.489   1.628
79463W        W51888   0.562  31.872  12.375
79464W        W51889  19.249  19.679  11.716
79465W        W51890  13.810  10.841  11.680
79466W        W51891  15.778   4.402  10.141
79467W        W51892  29.211   5.825   1.521
79468W        W51893  43.419  27.584  14.705
79469W        W51894  17.232  12.997   1.289
79470W        W51895  15.041   4.931   2.181
79471W        W51896  41.049  24.682  12.343
79472W        W51897  22.700  35.521  10.608
79473W        W51898  38.564   0.031   4.602
79474W        W51899  38.000  19.746  14.778
79475W        W51900  40.497   7.731  14.461
79476W        W51901  24.273  28.883  13.526
79477W        W51902   0.923  22.154  11.915
79478W        W51903   3.240  13.746   2.582
79479W        W51904   2.428  31.006   3.674
79480W        W51905  38.369  27.280  12.866
79481W        W51906  28.153  21.460   3.511
79482W        W51907  11.302  19.265   1.636
79483W        W51908  16.708  11.295  10.615
79484W        W51909  43.375  14.768  12.344
79485W        W51910  14.037  14.316   1.740
79486W        W51911  29.926   9.212  10.796
79487W        W51912   4.324   5.739   2.895
79488W        W51913   6.976  29.103   0.782
79489W        W51914   0.686  18.948   2.782
79490W        W51915   7.715   2.953  12.529
79491W        W51916   5.974  32.513  14.689
79492W        W51917  26.620  44.522  12.893
79493W        W51918  21.928  41.434   4.051
79494W        W51919  37.107  24.634   2.326
79495W        W51920  30.120  27.398  13.919
79496W        W51921  20.840  37.021   3.119
79497W        W51922  21.510  22.070   4.071
79498W        W51923  38.322  17.057   4.261
79499W        W51924   4.717  42.086   1.877
79500W        W51925  16.550  41.877   3.959
79501W        W51926  19.024  14.893   0.234
79502W        W51927  42.573  30.951   0.845
79503W        W51928  39.949  16.712  10.784
79504W        W51929  34.511  31.899   1.327
79505W        W51930  20.110  26.903  12.286
79506W        W51931  11.725  38.020   9.941
79507W        W51932   1.634  22.228   2.151
79508W        W51933  33.354   6.771  12.478
79509W        W51934  15.603   2.691   0.598
79510W        W51935  42.644  14.346   2.829
79511W        W51936  43.033   1.120  13.289
79512W        W51937  23.560  27.157  13.918
79513W        W51938  41.940   3.738  11.026
79514W        W51939  37.380  20.371  11.477
79515W        W51940   2.875  24.875   4.132
79516W        W51941  21.012   0.046   3.638
79517W        W51942  27.934  31.507   1.456
79518W        W51943  30.873  13.687  13.720
79519W        W51944  11.999  12.081   0.235
79520W        W51945   4.453  36.049  14.193
79521W        W51946  37.019   9.421  14.379
79522W        W51947   9.503   0.468  13.032
79523W        W51948  30.566  23.961   4.986
79524W        W51949  13.743  31.638  11.772
79525W        W51950  10.485  18.208   0.205
79526W        W51951  41.885  33.187   1.654
79527W        W51952  17.744  21.911  11.580
79528W        W51953  17.594  26.058   3.684
79529W        W51954  17.352  11.207   4.316
79530W        W51955   7.848   4.863  14.988
79531W        W51956   5.734  16.141   1.230
79532W        W51957  30.717  19.563  12.922
79533W        W51958  21.031  29.643   3.575
79534W        W51959   0.977  32.017   0.275
79535W        W51960  27.174   4.139  12.041
79536W        W51961  13.250  31.853   4.135
79537W        W51962  21.161  12.597   1.378
79538W        W51963  16.553   1.639   4.596
79539W        W51964  14.304   3.218   5.036
79540W        W51965   3.022   1.892  13.997
79541W        W51966  29.213   7.451   4.092
79542W        W51967  19.760  36.339  12.208
79543W        W51968   3.809  24.562  13.018
79544W        W51969  22.657  44.632   0.310
79545W        W51970  18.537  35.620   2.847
79546W        W51971  35.098  37.551  12.030
79547W        W51972   8.317  19.687   4.779
79548W        W51973  28.589   7.481  13.272
79549W        W51974   5.849  42.350   4.166
79550W        W51975   2.414  19.986  13.079
79551W        W51976  22.913  42.593   1.767
79552W        W51977  13.356  44.050   0.840
79553W        W51978   1.319  13.837   0.410
79554W        W51979  23.323  36.885   1.888
79555W        W51980  20.792  40.902   3.963
79556W        W51981  28.441   4.898   4.231
79557W        W51982  32.083  26.023   3.521
79558W        W51983  11.254  16.182  14.580
79559W        W51984  23.133  40.343   4.328
79560W        W51985   8.872   8.825  11.889
79561W        W51986   1.770  36.984   3.825
79562W        W51987  15.531  41.458   1.674
79563W        W51988  40.006  42.939  14.339
79564W        W51989  29.550  18.333  11.551
79565W        W51990  41.791  15.813   9.785
79566W        W51991   7.740   7.256  14.006
79567W        W51992  19.547  25.194  11.073
79568W        W51993  17.682  22.045  11.075
79569W        W51994   8.941  26.629   4.155
79570W        W51995  20.632   4.782   2.577
79571W        W51996  12.744  43.510   2.264
79572W        W51997  16.343  27.228  14.900
79573W        W51998  10.625  10.466  14.991
79574W        W51999  37.434   3.742   0.493
79575W        W52000   5.385  16.147   0.848
79576W        W52001  29.143  26.021  11.169
79577W        W52002  13.290  15.142  13.564
79578W        W52003  27.801  33.087   5.271
79579W        W52004  13.589  13.253  13.368
79580W        W52005  44.526  20.815  13.781
79581W        W52006  24.515   3.409  11.457
79582W        W52007   8.145  28.222   3.596
79583W        W52008  14.793  11.656   4.666
79584W        W52009  36.537  29.778   4.340
79585W        W52010  32.823  35.527  12.543
79586W        W52011  23.047  24.365   0.958
79587W        W52012   2.268  19.063  11.244
79588W        W52013   4.394  23.430   4.782
79589W        W52014  20.137  23.652   2.584
79590W        W52015   6.947  16.771   2.647
79591W        W52016  40.735  15.305   0.084
79592W        W52017  43.707  30.111   0.741
79593W        W52018   1.990   5.867  12.965
79594W        W52019  33.436  20.966  14.920
79595W        W52020  43.397  36.604  11.572
79596W        W52021  17.244  42.251   2.046
79597W        W52022  21.582  42.792  12.261
79598W        W52023   9.723  15.672   0.790
79599W        W52024  43.487  40.301  13.332
79600W        W52025   7.556  29.227  11.655
79601W        W52026   2.277  11.149   4.058
79602W        W52027   8.183   8.814   3.016
79603W        W52028  12.721   3.128   4.307
79604W        W52029  29.228   5.191   4.250
79605W        W52030  35.384  10.070   1.776
79606W        W52031  27.484  38.941   4.276
79607W        W52032  28.156   7.169  12.398
79608W        W52033  19.900  34.141  13.740
79609W        W52034  32.889   4.598   4.667
79610W        W52035   2.907  31.161   3.848
79611W        W52036   1.271  41.722  11.586
79612W        W52037  24.546   5.661  12.530
79613W        W52038   2.393  11.350   2.601
79614W        W52039   3.137  14.627   0.866
79615W        W52040   6.759  12.741  14.604
79616W        W52041  37.245  22.008   1.613
79617W        W52042  26.064  33.513  11.826
79618W        W52043  43.489  13.192   4.902
79619W        W52044   8.278  31.390  14.540
79620W        W52045  35.048   9.830  12.765
79621W        W52046  23.086  36.091   2.328
79622W        W52047  39.567  14.610  11.680
79623W        W52048  27.112  12.344   3.568
79624W        W52049  26.498  43.299   4.543
79625W        W52050  30.099   0.396  11.905
79626W        W52051  33.057  24.557   2.860
79627W        W52052   3.217  33.446   0.770
79628W        W52053  30.466  12.851  14.572
79629W        W52054   7.708   7.315   4.545
79630W        W52055  15.155  27.096  10.638
79631W        W52056   9.110  39.076   2.671
79632W        W52057  31.341   2.677  11.789
79633W        W52058   9.955   5.982  14.683
79634W        W52059  13.387  35.339  11.458
79635W        W52060  37.114  14.078  13.972
79636W        W52061  12.103   0.308  10.577
79637W        W52062  11.233   1.934   4.827
79638W        W52063   1.710  10.623  14.813
79639W        W52064  32.569  20.576  10.629
79640W        W52065  34.124  26.828   3.293
79641W        W52066  18.593  33.025   1.915
79642W        W52067   2.930   4.235  11.426
79643W        W52068  22.133   9.988   1.018
79644W        W52069   3.880   0.430   1.003
79645W        W52070  28.237  29.955  13.570
79646W        W52071  35.403  44.483  12.505
79647W        W52072  28.652  17.022  10.943
79648W        W52073  44.087  26.024  11.042
79649W        W52074  35.391  17.811   4.606
79650W        W52075  11.072   8.720   1.651
79651W        W52076  14.226  42.021   2.812
79652W        W52077  19.591   6.709  13.052
79653W        W52078   3.427  34.091  13.443
79654W        W52079  41.067  29.565   0.336
79655W        W52080   5.185  30.405  14.455
79656W        W52081  12.178  10.382  13.427
79657W        W52082  36.838  26.691   0.289
79658W        W52083  40.369  31.267   4.012
79659W        W52084  33.031  40.133   2.226
79660W        W52085   6.100  15.318   2.116
79661W        W52086  17.294  30.937  11.110
79662W        W52087  43.505  23.918   4.534
79663W        W52088  20.612   2.738   2.376
79664W        W52089  17.248  42.752   4.192
79665W        W52090  38.294   4.844   0.432
79666W        W52091   3.981   7.360  11.707
79667W        W52092  29.174  41.168   4.053
79668W        W52093  10.289  26.664   2.242
79669W        W52094  15.116  19.693   2.181
79670W        W52095   5.522  19.204   0.736
79671W        W52096  13.970  32.974   1.313
79672W        W52097  41.751  39.046  10.702
79673W        W52098  31.264  31.678   2.372
79674W        W52099  21.541  30.109   0.004
79675W        W52100  10.729  33.063   0.845
79676W        W52101   9.719  35.918   9.965
79677W        W52102  36.432  11.595   1.875
79678W        W52103  10.285   9.285  10.568
79679W        W52104  44.224  17.344   2.367
79680W        W52105   3.811  18.054  14.422
79681W        W52106  21.510  39.749   3.878
79682W        W52107  10.469  41.541   1.234
79683W        W52108  22.941  38.606   1.367
79684W        W52109  23.044  15.833   1.020
79685W        W52110  17.322  40.054  12.182
79686W        W52111  36.830  32.069  11.110
79687W        W52112   6.830   7.129   4.258
79688W        W52113  30.063  10.121  14.154
79689W        W52114  24.238   4.674   1.413
79690W        W52115   0.229  22.194   4.562
79691W        W52116   2.665  34.633   4.778
79692W        W52117  19.710   6.854  11.581
79693W        W52118   2.558  23.136  13.789
79694W        W52119   3.629   0.847  13.777
79695W        W52120  24.576  23.200  11.076
79696W        W52121  41.082   6.979   2.164
79697W        W52122  27.755  15.028   4.620
79698W        W52123  31.797  16.221  11.081
79699W        W52124   8.387  10.156   4.743
79700W        W52125  19.019  24.501   1.744
79701W        W52126  21.687  42.238   2.905
79702W        W52127  16.534   0.098  12.901
79703W        W52128  42.727  39.778  11.121
79704W        W52129  23.708  19.784  12.418
79705W        W52130  42.447  22.165   0.485
79706W        W52131  42.957   4.815  12.348
79707W        W52132   8.726  19.291   0.424
79708W        W52133  33.071  27.791  14.318
79709W        W52134   5.233  38.377  10.720
79710W        W52135  22.255  30.057  14.322
79711W        W52136   4.533   1.467  13.432
79712W        W52137  29.055  31.126   0.073
79713W        W52138  37.580  27.636  11.570
79714W        W52139  40.883  11.349  11.990
79715W        W52140  23.838   2.424   2.764
79716W        W52141   4.462  18.044   4.160
79717W        W52142  37.695   5.821  10.732
79718W        W52143  15.799  33.624   1.265
79719W        W52144  40.103   8.421  14.503
79720W        W52145   1.907   9.658   2.312
79721W        W52146  30.740  43.218  12.536
79722W        W52147  26.894  31.193   4.215
79723W        W52148  18.819  13.230  13.052
79724W        W52149   2.567  41.036   1.755
79725W        W52150  43.675   3.710  14.980
79726W        W52151   0.552  11.827  14.352
79727W        W52152  16.603   3.955   3.233
79728W        W52153  41.358  33.478   4.646
79729W        W52154   2.716   6.376  14.329
79730W        W52155  27.254  12.728  11.509
79731W        W52156  31.608  21.868   0.799
79732W        W52157  11.941   2.229   2.900
79733W        W52158  21.625  36.954  12.859
79734W        W52159   1.704  33.566   1.038
79735W        W52160  23.236  33.424  13.787
79736W        W52161   4.623  26.516   1.924
79737W        W52162  10.222  10.949  13.809
79738W        W52163  41.075  15.740   3.003
79739W        W52164   3.208  31.429   4.368
79740W        W52165  10.747  18.639   1.926
79741W        W52166   2.259  14.445   3.094
79742W        W52167  13.879  11.810   0.005
79743W        W52168  35.110   4.684   3.607
79744W        W52169  36.934  16.102   4.982
79745W        W52170  36.790  18.827   0.687
79746W        W52171  24.816   2.248  10.402
79747W        W52172  27.206  36.528   4.732
79748W        W52173  28.548  30.078   0.220
79749W        W52174  19.515  41.090  13.325
79750W        W52175  31.010  28.205  11.071
79751W        W52176  36.162  37.532  13.361
79752W        W52177  34.579  39.717   0.023
79753W        W52178  16.314  17.721   0.824
79754W        W52179   8.168  13.510   0.790
79755W        W52180  39.429   0.298  10.631
79756W        W52181  25.330   0.217  13.200
79757W        W52182  43.259  11.142  10.760
79758W        W52183  32.520  19.609  11.889
79759W        W52184  10.259  37.467   4.840
79760W        W52185  33.537  38.094   0.522
79761W        W52186  23.231  10.808   9.858
79762W        W52187  25.883  16.323  14.320
79763W        W52188  27.516  15.368   2.544
79764W        W52189   6.390  16.170  13.474
79765W        W52190  30.576  41.761   1.913
79766W        W52191  11.591   5.490   4.077
79767W        W52192  22.055  31.127  12.463
79768W        W52193  24.281  33.678  12.412
79769W        W52194  12.375  25.721   3.720
79770W        W52195  27.557  41.014  13.552
79771W        W52196  17.932  19.391  14.423
79772W        W52197   3.606  37.319  12.994
79773W        W52198  29.142  24.992   0.850
79774W        W52199  37.876  14.174  14.458
79775W        W52200  40.467  14.446  12.650
79776W        W52201   4.267   1.410  12.444
79777W        W52202  39.828  16.990   4.115
79778W        W52203  18.307   7.970   2.532
79779W        W52204  35.218  23.997   3.490
79780W        W52205  39.795   9.284   0.452
79781W        W52206  30.596  43.848  11.093
79782W        W52207  21.491   6.491  11.091
79783W        W52208  22.494  26.593  11.139
79784W        W52209  17.768   2.805   4.023
79785W        W52210  40.398   5.826   3.130
79786W        W52211  10.777  20.029  12.117
79787W        W52212  31.329  22.456  12.996
79788W        W52213  39.514  35.845   1.424
79789W        W52214  30.986  27.388   3.287
79790W        W52215  20.670  11.197   3.838
79791W        W52216  34.029  27.685   0.459
79792W        W52217  40.135  11.659  13.994
79793W        W52218   0.045   7.183  14.921
79794W        W52219   9.297  28.843   4.352
79795W        W52220  12.264  28.769  14.445
79796W        W52221  32.713  32.583   3.189
79797W        W52222   9.381  16.885   0.089
79798W        W52223  37.879  38.403   0.308
79799W        W52224  11.282  27.798   0.380
79800W        W52225  39.070  43.563  11.461
79801W        W52226  13.202  30.602  12.487
79802W        W52227  26.075  40.381  10.693
79803W        W52228   7.314  36.928  10.745
79804W        W52229   6.932  19.116  10.523
79805W        W52230  41.522  24.251   1.181
79806W        W52231  31.827  43.215   2.169
79807W        W52232  35.927  38.256   4.671
79808W        W52233  32.119  15.299   4.613
79809W        W52234  22.060  40.081   4.618
79810W        W52235  43.482  44.281  12.089
79811W        W52236  25.080  37.622  10.771
79812W        W52237  33.974  29.042  14.984
79813W        W52238  44.554   7.320   2.192
79814W        W52239  32.313   1.216   4.559
79815W        W52240  37.789  23.539  12.606
79816W        W52241  19.636  36.138   0.503
79817W        W52242  38.001  42.412  14.506
79818W        W52243  43.779  19.491   1.283
79819W        W52244  26.965  12.797   2.243
79820W        W52245  32.921   2.654   1.891
79821W        W52246  36.266  33.607   1.868
79822W        W52247  41.575  21.738   2.883
79823W        W52248   4.694  33.604   4.586
79824W        W52249   7.906   0.818  12.482
79825W        W52250  18.845  34.508   1.808
79826W        W52251  20.506  19.304   4.565
79827W        W52252   7.754  31.560   0.736
79828W        W52253  15.256   4.870   2.662
79829W        W52254  39.362  28.006   0.690
79830W        W52255  15.250  31.645   4.150
79831W        W52256  41.902   7.084  13.800
79832W        W52257  31.639   6.267   3.820
79833W        W52258  37.141   6.475   1.333
79834W        W52259  10.534  27.554   3.187
79835W        W52260  42.399   6.422   4.882
79836W        W52261  26.170   3.288   4.097
79837W        W52262  30.509   4.629   4.959
79838W        W52263  43.867  42.482  10.692
79839W        W52264  15.645  15.189   3.966
79840W        W52265   1.721  33.645  13.833
79841W        W52266  29.503  34.101  13.704
79842W        W52267  20.201  21.731   2.947
79843W        W52268  33.815  42.169   1.123
79844W        W52269  28.053  33.037  10.051
79845W        W52270  15.513  30.714  11.035
79846W        W52271  37.076  14.633  12.193
79847W        W52272  26.254  33.547   4.345
79848W        W52273  21.618  15.350  13.102
79849W        W52274   1.461   2.301   0.708
79850W        W52275   5.346  10.383   2.959
79851W        W52276   9.203  13.183   2.315
79852W        W52277  10.739   5.817  12.063
79853W        W52278  22.569  30.933   2.847
79854W        W52279   0.051  32.191  14.273
79855W        W52280  35.955  16.425  14.433
79856W        W52281  28.889  15.107   1.670
79857W        W52282  26.805  14.895  13.943
79858W        W52283  13.055  13.234   4.554
79859W        W52284  20.465  41.635  13.915
79860W        W52285   2.226   4.267   0.413
79861W        W52286   6.317  29.191  14.181
79862W        W52287  39.965  11.237   1.803
79863W        W52288  32.076  32.453  13.291
79864W        W52289  25.885  23.706  12.634
79865W        W52290   6.780  28.566   3.013
79866W        W52291  39.890   0.914  14.533
79867W        W52292  44.774  18.290  13.918
79868W        W52293  26.923  15.484   1.778
79869W        W52294   8.656   8.180  13.870
79870W        W52295   3.549   8.443  12.017
79871W        W52296  44.517  34.419  11.936
79872W        W52297  14.114  21.709   9.771
79873W        W52298  39.480  29.192   2.696
79874W        W52299  33.972  22.768  11.067
79875W        W52300  24.003  23.371   0.174
79876W        W52301   3.407  24.232   0.408
79877W        W52302   9.257  24.134   1.809
79878W        W52303  18.772   1.859  11.212
79879W        W52304  35.973  17.517  10.616
79880W        W52305   9.177  33.212  10.872
79881W        W52306   5.668   8.326   0.261
79882W        W52307  17.843  24.518  10.957
79883W        W52308  23.759  26.466   3.335
79884W        W52309  27.909  18.809  10.522
79885W        W52310  35.001   5.816  12.862
79886W        W52311  29.548  40.930  14.491
79887W        W52312   2.167  31.612   3.209
79888W        W52313  35.381  10.920  14.835
79889W        W52314   1.171  35.556   2.750
79890W        W52315  17.330  17.259  14.483
79891W        W52316   4.836   5.310  14.900
79892W        W52317  19.652   7.183  13.828
79893W        W52318  13.381  28.299   1.882
79894W        W52319  33.859   0.926  10.644
79895W        W52320  21.224  32.784  10.119
79896W        W52321  42.001  16.605   4.540
79897W        W52322  12.974  35.513  11.130
79898W        W52323  44.920  44.313  13.096
79899W        W52324  23.482  10.148  11.442
79900W        W52325  13.820   2.456  11.173
79901W        W52326  40.785  15.960  13.940
79902W        W52327  30.059  19.119  14.617
79903W        W52328   6.900  11.818  14.355
79904W        W52329  41.111  19.147  12.903
79905W        W52330  11.593  33.479   2.158
79906W        W52331  12.072  29.707  13.575
79907W        W52332  15.492  35.653   1.586
79908W        W52333  15.199  33.558   3.947
79909W        W52334  21.282   1.889  14.484
79910W        W52335  44.229   2.821  14.877
79911W        W52336  25.734  39.515   0.291
79912W        W52337  39.391   9.918  13.009
79913W        W52338   9.718  11.805  12.569
79914W        W52339  14.911   7.158  14.030
79915W        W52340  27.037   4.299   0.430
79916W        W52341  37.364  29.590  14.459
79917W        W52342   0.086   9.642  12.448
79918W        W52343  27.181  22.330   1.682
79919W        W52344  25.110   3.793   4.737
79920W        W52345  19.501   0.351  13.344
79921W        W52346   2.921  18.000   0.709
79922W        W52347   3.708  32.002  12.025
79923W        W52348   1.777  19.771   2.841
79924W        W52349  41.877  23.838   1.052
79925W        W52350  22.122  12.119  11.001
79926W        W52351  33.208   3.915  14.759
79927W        W52352  38.348   4.785  11.416
79928W        W52353  11.945   4.264   4.536
79929W        W52354  29.222  33.604  11.068
79930W        W52355  11.406  22.470  13.713
79931W        W52356  30.211   4.705   3.216
79932W        W52357  11.243  31.151  10.629
79933W        W52358  20.518  33.428   1.256
79934W        W52359   3.187  43.843  14.504
79935W        W52360  18.916  40.966  11.422
79936W        W52361  12.215  14.989  12.834
79937W        W52362  15.186  34.183   4.644
79938W        W52363  12.291   6.268  13.358
79939W        W52364  22.073  13.728  11.797
79940W        W52365   1.726  37.849   1.353
79941W        W52366   9.559  41.439   3.613
79942W        W52367  12.198  28.461   3.948
79943W        W52368  10.395  19.431  14.861
79944W        W52369  39.957  27.031  10.519
79945W        W52370  31.923  35.092  10.729
79946W        W52371  28.885  12.876  14.061
79947W        W52372  11.821  37.510   1.370
79948W        W52373  38.637  38.846   4.163
79949W        W52374  43.795  27.992  10.533
79950W        W52375  29.146  40.717   1.744
79951W        W52376  24.972  15.568  14.016
79952W        W52377  21.245  26.625   2.685
79953W        W52378  24.990  21.897   1.463
79954W        W52379  29.873  44.485  10.671
79955W        W52380  29.899   7.444   0.804
79956W        W52381  17.279   2.696   4.945
79957W        W52382  43.783  22.770   3.186
79958W        W52383  34.186  31.113   0.903
79959W        W52384  15.188  27.690   3.331
79960W        W52385   7.649  30.692  12.657
79961W        W52386  44.496  25.431   3.733
79962W        W52387  43.275  13.824  13.874
79963W        W52388  19.583  33.682   2.861
79964W        W52389  41.426   9.792   2.449
79965W        W52390   8.678   9.219   4.953
79966W        W52391   1.263  39.746   0.066
79967W        W52392   6.744  39.455   2.470
79968W        W52393  10.778  11.531   4.897
79969W        W52394   2.376  18.190  14.556
79970W        W52395  35.619  23.332  12.158
79971W        W52396   4.220  21.714   2.721
79972W        W52397  44.392   4.761  14.104
79973W        W52398  15.168   2.430   3.788
79974W        W52399   8.651  41.754   2.511
79975W        W52400   5.355  11.395   4.542
79976W        W52401  42.288   9.279   4.926
79977W        W52402  44.019  19.179   0.451
79978W        W52403  14.264   3.540   3.706
79979W        W52404  40.267  24.097  12.126
79980W        W52405  12.668  35.652   2.901
79981W        W52406  25.621  31.843   4.806
79982W        W52407   3.365   7.149   4.419
79983W        W52408  32.417   2.861   2.486
79984W        W52409  29.339  18.968   4.337
79985W        W52410   3.490  30.040  10.590
79986W        W52411  15.310  44.199  12.107
79987W        W52412  39.246  32.282  11.085
79988W        W52413  19.257  26.353  13.349
79989W        W52414  16.178  44.207  13.151
79990W        W52415  40.232  17.594   2.655
79991W        W52416  26.185  13.245   1.232
79992W        W52417  42.259   2.907  12.048
79993W        W52418  33.082   9.747  12.953
79994W        W52419   1.957   9.859  10.696
79995W        W52420   2.538   4.862  12.157
79996W        W52421  27.205  16.705   2.883
79997W        W52422  39.005  33.148  13.835
79998W        W52423  37.711  10.046   4.033
79999W        W52424  16.883   1.594   0.863
80000W        W52425  23.539  18.739  11.982
80001W        W52426  11.855   1.864  13.022
80002W        W52427   8.364  41.372  14.923
80003W        W52428  15.661  10.838  13.631
80004W        W52429   3.481   8.058   2.169
80005W        W52430  37.389  16.169  10.806
80006W        W52431  36.860   3.969   4.055
80007W        W52432  29.486  34.586   4.639
80008W        W52433  40.775   4.756  13.528
80009W        W52434  14.612  10.185  11.091
80010W        W52435   6.464  44.120   5.186
80011W        W52436  30.102  18.649   4.167
80012W        W52437   4.781   5.233   0.448
80013W        W52438  14.602  23.705  14.555
80014W        W52439  26.417  38.946   0.803
80015W        W52440  19.120  41.054   0.906
80016W        W52441   4.902  12.324  14.189
80017W        W52442   3.824  37.373   2.867
80018W        W52443  26.096  44.547   1.373
80019W        W52444   3.827  34.863  10.833
80020W        W52445  25.941  18.824  10.659
80021W        W52446   0.175  40.062   0.140
80022W        W52447  21.645  15.272   0.339
80023W        W52448  13.163  35.124   0.686
80024W        W52449  17.576  36.117  14.848
80025W        W52450   1.747   1.823   2.120
80026W        W52451  23.283  14.876   4.463
80027W        W52452  41.944   7.301  13.331
80028W        W52453  40.925  42.245   4.186
80029W        W52454  25.376  10.840   2.135
80030W        W52455   5.444  11.760  12.124
80031W        W52456  39.992  14.017  14.912
80032W        W52457  37.749  15.557   0.877
80033W        W52458  17.922  31.859   5.520
80034W        W52459   6.136  23.370   1.290
80035W        W52460  12.552  17.164   4.785
80036W        W52461  23.203  25.961   2.789
80037W        W52462  22.502   8.704   1.892
80038W        W52463   1.680  15.869  11.090
80039W        W52464  28.901  39.023   3.129
80040W        W52465   2.831  23.531   3.620
80041W        W52466  28.681   0.031  12.113
80042W        W52467  15.806   0.379  12.450
80043W        W52468  39.326  42.475   5.014
80044W        W52469  11.257  37.762  12.048
80045W        W52470  16.153  33.864  14.208
80046W        W52471  33.649  25.082  13.559
80047W        W52472  36.353   4.471  13.074
80048W        W52473  38.612   7.307  12.393
80049W        W52474  24.675  21.993   1.069
80050W        W52475  10.722  14.799   3.143
80051W        W52476  37.546   7.390   4.239
80052W        W52477   2.300   9.974   2.238
80053W        W52478   5.303   9.915  12.048
80054W        W52479   0.845  28.175   4.338
80055W        W52480  39.249  18.328   2.351
80056W        W52481  14.819  40.251   0.242
80057W        W52482  35.949   9.819  11.341
80058W        W52483  30.560  17.630  14.476
80059W        W52484  23.904  29.675  10.667
80060W        W52485   2.005   5.930  13.480
80061W        W52486  43.907  37.843   1.209
80062W        W52487   9.960  43.835   0.209
80063W        W52488  32.892  44.708  13.899
80064W        W52489  38.704   0.237   3.167
80065W        W52490  23.828  11.603  10.005
80066W        W52491  20.553  17.009  14.397
80067W        W52492  27.248  26.666  12.985
80068W        W52493  19.357   8.909  12.051
80069W        W52494  42.430  18.037  12.980
80070W        W52495   0.483  10.486  13.432
80071W        W52496  17.417  41.786   1.943
80072W        W52497  14.687   9.249  13.939
80073W        W52498  36.000  40.031  10.550
80074W        W52499  37.948  22.326  10.610
80075W        W52500  34.381  11.307   2.662
80076W        W52501  37.081  16.574   1.441
80077W        W52502  17.883  33.043  12.508
80078W        W52503  43.269   1.509   3.879
80079W        W52504   9.402  41.225   4.062
80080W        W52505  25.696   7.417   0.217
80081W        W52506  29.097   1.294   4.256
80082W        W52507  13.623  42.341   3.838
80083W        W52508  22.105  26.664   4.186
80084W        W52509  21.501  35.133   3.299
80085W        W52510  38.879  13.990   4.517
80086W        W52511  27.986   7.744   4.126
80087W        W52512  22.324  27.074  12.373
80088W        W52513  14.119  11.880   0.471
80089W        W52514  44.351   1.646   9.962
80090W        W52515  15.520  36.859  12.031
80091W        W52516  27.644  10.682   0.232
80092W        W52517  33.554  16.741  10.059
80093W        W52518   2.528  44.252  10.977
80094W        W52519  43.191  16.738   0.424
80095W        W52520   5.389  30.637  12.062
80096W        W52521  13.360  27.830  10.951
80097W        W52522  36.565  37.476  12.059
80098W        W52523  44.614  31.536  13.634
80099W        W52524  34.847  16.726  10.734
80100W        W52525  29.908  14.288   0.924
80101W        W52526   0.823  13.913  13.882
80102W        W52527   0.714  28.667  10.823
80103W        W52528  35.251  38.299   4.153
80104W        W52529  33.199  27.167  12.834
80105W        W52530  12.408  31.542  11.712
80106W        W52531  30.707  29.434  12.299
80107W        W52532  15.312  19.330   2.884
80108W        W52533  19.669  18.023   4.594
80109W        W52534   0.429   0.964  13.300
80110W        W52535  32.798  44.939  11.583
80111W        W52536  19.049   5.138  11.563
80112W        W52537  16.778  18.030   3.323
80113W        W52538  30.585   0.966   4.119
80114W        W52539  16.342   6.591   0.279
80115W        W52540  34.383  22.026   1.424
80116W        W52541   9.629  15.293  10.401
80117W        W52542  14.419  34.555  13.993
80118W        W52543  17.245   5.501  11.963
80119W        W52544  37.509   3.128  12.157
80120W        W52545  43.552   9.678   4.060
80121W        W52546  11.409   2.737  13.819
80122W        W52547   2.274  25.564  14.348
80123W        W52548  28.120  11.542   4.641
80124W        W52549  22.626  22.702  11.659
80125W        W52550   1.762  19.619   2.340
80126W        W52551   6.786  33.358  11.186
80127W        W52552   2.956  15.232   0.760
80128W        W52553   1.933  20.828  13.008
80129W        W52554   4.299   6.758  13.987
80130W        W52555  18.570   8.545   1.216
80131W        W52556  21.543   7.730   4.542
80132W        W52557   9.240   2.026   2.879
80133W        W52558  34.915  15.183  11.061
80134W        W52559  28.467  13.242   0.764
80135W        W52560   9.887  21.888  11.304
80136W        W52561  17.982  28.607  11.102
80137W        W52562  17.727  43.722  14.379
80138W        W52563  41.775   8.821   2.201
80139W        W52564   4.377  35.483  13.400
80140W        W52565  12.025  17.230   4.670
80141W        W52566  42.939   9.865  12.049
80142W        W52567   7.836  18.955   4.228
80143W        W52568  11.424  27.045   3.221
80144W        W52569  16.729   1.961   2.876
80145W        W52570  15.614  36.037   0.195
80146W        W52571   5.855  42.866  13.830
80147W        W52572  15.196   1.509   2.487
80148W        W52573   6.854  28.440  12.865
80149W        W52574  42.881  21.142   1.746
80150W        W52575  40.720   2.838  11.228
80151W        W52576  20.602  27.402   3.005
80152W        W52577  24.647   5.994  14.206
80153W        W52578  33.831  40.944  10.438
80154W        W52579  16.300  34.888   0.335
80155W        W52580  17.548  16.919   3.649
80156W        W52581  40.967   1.349  12.588
80157W        W52582  44.023  17.184  11.834
80158W        W52583  23.009   1.373   2.776
80159W        W52584  30.569  35.806   2.422
80160W        W52585   7.956  15.343   3.631
80161W        W52586  21.496  13.564  13.047
80162W        W52587  29.037  41.667   4.014
80163W        W52588   6.318  26.630   0.554
80164W        W52589   6.482  19.409  13.668
80165W        W52590  23.403   6.323  12.442
80166W        W52591  11.977  42.760  11.615
80167W        W52592  28.638  14.131  12.596
80168W        W52593  22.710   8.862  13.322
80169W        W52594  16.065  21.417  10.158
80170W        W52595  11.665   0.101  12.847
80171W        W52596  32.365  21.303  10.624
80172W        W52597  38.584  39.087  12.435
80173W        W52598  38.494  10.099  14.253
80174W        W52599  30.163  20.317  12.999
80175W        W52600  40.832  42.429  10.001
80176W        W52601  43.881  38.537   1.781
80177W        W52602  18.393  33.368   0.657
80178W        W52603  42.095   1.400   2.883
80179W        W52604  16.441  16.508   4.629
80180W        W52605  27.414  30.590  10.696
80181W        W52606  18.655  29.563  10.413
80182W        W52607  44.923  41.863   3.127
80183W        W52608  14.153   3.371   2.752
80184W        W52609   0.156  22.447  11.370
80185W        W52610  19.424   1.463   4.880
80186W        W52611  12.846  44.243  12.022
80187W        W52612  27.029  39.752  10.760
80188W        W52613  31.531  33.140   2.326
80189W        W52614  39.475  32.504   1.874
80190W        W52615  13.818  25.764   1.025
80191W        W52616   0.369  14.187  13.830
80192W        W52617  26.605  23.597  12.117
80193W        W52618  15.910  38.473   0.361
80194W        W52619   0.835  20.082  11.570
80195W        W52620   8.937  16.520  11.600
80196W        W52621  19.068   6.831  12.675
80197W        W52622   8.397   7.770  14.218
80198W        W52623  27.800   9.359  13.515
80199W        W52624  19.453  33.737   0.037
80200W        W52625  10.579  43.004  14.518
80201W        W52626  19.643   0.719  10.692
80202W        W52627  33.845  18.105   2.652
80203W        W52628  22.450   1.736  10.704
80204W        W52629  17.273  39.452   2.771
80205W        W52630  34.968  25.568  13.685
80206W        W52631  43.710  32.430  12.030
80207W        W52632  33.330  37.047   0.203
80208W        W52633  22.729  38.865  11.149
80209W        W52634   6.872   7.742  13.102
80210W        W52635   3.142  20.640   2.233
80211W        W52636  27.726  13.210  10.129
80212W        W52637  21.600  32.634  10.813
80213W        W52638   8.913   6.163   1.358
80214W        W52639  23.754  21.935  14.233
80215W        W52640  24.073  26.002  10.545
80216W        W52641  19.268  19.760   2.646
80217W        W52642  24.630  38.918  14.055
80218W        W52643  43.452  29.897   0.338
80219W        W52644  42.316  32.942  11.140
80220W        W52645  16.991  37.609  10.955
80221W        W52646   0.789  42.732   3.322
80222W        W52647  32.934  42.959   0.382
80223W        W52648  44.904  31.789   2.196
80224W        W52649  13.474   3.202  11.528
80225W        W52650   5.186  44.719  14.044
80226W        W52651  26.630  16.625  11.209
80227W        W52652  20.504  22.063   1.709
80228W        W52653  22.584  17.438  14.938
80229W        W52654  13.678  42.486   2.348
80230W        W52655  34.359   0.940   4.158
80231W        W52656  37.324  30.414  12.541
80232W        W52657  24.520  16.250  14.828
80233W        W52658  31.134  37.935   4.172
80234W        W52659  34.080  40.437   2.534
80235W        W52660  36.900  44.907  13.438
80236W        W52661  30.267   6.866  14.962
80237W        W52662   9.976   0.235  13.927
80238W        W52663  22.839   6.401  11.113
80239W        W52664  37.430  23.629   3.851
80240W        W52665  11.623  35.486   4.536
80241W        W52666  15.023  27.057   4.100
80242W        W52667  20.609   9.939   0.799
80243W        W52668   7.131  12.802  12.013
80244W        W52669  20.917   4.256   1.705
80245W        W52670  44.714  32.168   0.109
80246W        W52671  36.966  43.106  12.479
80247W        W52672  26.254  24.555  11.721
80248W        W52673   3.321  33.106   2.732
80249W        W52674  15.879  22.136   1.774
80250W        W52675  18.675  24.258   2.612
80251W        W52676  19.214  42.444   1.856
80252W        W52677   5.890  38.502   2.271
80253W        W52678   6.889  25.009  13.088
80254W        W52679  35.727  22.712  12.951
80255W        W52680  10.157  35.836   1.578
80256W        W52681  32.179  21.157   1.229
80257W        W52682  28.671   5.962   0.877
80258W        W52683  28.349  41.478  14.224
80259W        W52684  42.464  35.196  13.002
80260W        W52685  35.650  25.448  14.811
80261W        W52686  39.382  13.387  11.947
80262W        W52687  17.030  34.894  13.065
80263W        W52688  32.838   5.684  13.957
80264W        W52689   3.712  28.191  12.743
80265W        W52690  32.105  37.760   0.227
80266W        W52691   6.847  11.626   3.632
80267W        W52692  37.839  11.725  14.314
80268W        W52693  15.861  15.622  11.883
80269W        W52694   3.358  35.312  13.863
80270W        W52695  29.927  39.539   2.399
80271W        W52696   1.082  10.027   2.384
80272W        W52697  43.316  29.596   3.297
80273W        W52698  33.373  29.441   2.174
80274W        W52699   3.271  19.507   2.866
80275W        W52700  14.203  29.061  14.863
80276W        W52701  30.744  40.212  13.417
80277W        W52702  12.215  42.509   3.154
80278W        W52703  43.289  35.044  11.931
80279W        W52704  24.561   9.841   0.339
80280W        W52705   2.243  36.056  10.638
80281W        W52706  14.193  29.198   3.301
80282W        W52707  41.463  15.787   3.877
80283W        W52708  31.602  32.215   1.261
80284W        W52709  35.577   3.318  11.153
80285W        W52710  31.150  15.818  12.305
80286W        W52711  15.142   6.908  14.841
80287W        W52712  33.370   5.212   0.843
80288W        W52713  34.249  38.428   0.904
80289W        W52714  38.359  26.984   0.148
80290W        W52715  36.980  17.197   1.794
80291W        W52716  13.876  38.948   0.860
80292W        W52717  15.790  41.535  11.482
80293W        W52718  18.940   7.660   0.975
80294W        W52719   5.607  14.199   5.100
80295W        W52720  31.080  15.763   0.876
80296W        W52721  28.792   0.731   3.570
80297W        W52722  29.388  30.137  11.000
80298W        W52723  26.169  11.737  11.893
80299W        W52724   9.258  17.033  10.922
80300W        W52725  17.492   7.747  10.760
80301W        W52726  24.714   7.782   1.035
80302W        W52727  15.183  11.399  11.158
80303W        W52728  20.296  40.738  11.648
80304W        W52729  18.234  16.700   0.229
80305W        W52730  27.742  19.402   2.881
80306W        W52731  21.060   5.713  14.820
80307W        W52732   8.395  12.181  12.423
80308W        W52733  10.310   0.441  10.719
80309W        W52734  13.388  25.925   2.952
80310W        W52735  15.679  33.697  14.494
80311W        W52736   8.987  16.611  10.747
80312W        W52737  43.373  33.429   0.500
80313W        W52738  28.914   8.652   4.488
80314W        W52739  21.078  38.834  14.817
80315W        W52740  41.072  44.996   1.906
80316W        W52741  34.843  34.521   0.260
80317W        W52742  38.011   0.306  12.662
80318W        W52743  12.625  13.776  12.498
80319W        W52744  27.171  31.617   4.516
80320W        W52745  41.462  23.521  13.974
80321W        W52746  27.643   7.449   4.668
80322W        W52747  11.682  15.629  10.671
80323W        W52748  28.907  13.249   4.539
80324W        W52749   4.981  18.223  13.731
80325W        W52750  31.999  12.911  11.440
80326W        W52751  12.924   2.999  11.538
80327W        W52752  26.333  37.967  10.318
80328W        W52753  39.555   7.450  13.601
80329W        W52754   3.885   7.854   2.399
80330W        W52755  40.407  19.649   3.733
80331W        W52756  31.960   6.892   4.570
80332W        W52757  24.592  38.517   0.319
80333W        W52758  13.377  24.736   5.182
80334W        W52759  42.792  26.487  14.779
80335W        W52760  19.739  38.533   0.765
80336W        W52761  13.254  21.683  12.658
80337W        W52762  35.394   9.855  14.012
80338W        W52763  26.028  12.008   4.283
80339W        W52764  22.339   2.342   1.356
80340W        W52765   1.074  35.371  10.547
80341W        W52766   8.782   6.206   9.738
80342W        W52767  33.110   7.266   4.215
80343W        W52768  10.758  29.015  11.570
80344W        W52769  27.506   1.546  13.829
80345W        W52770  30.022  43.460   4.601
80346W        W52771   6.373  10.754  11.985
80347W        W52772  40.394  12.693   5.078
80348W        W52773   5.549  11.685   2.938
80349W        W52774  42.054   8.235  12.067
80350W        W52775   6.850   0.082   1.460
80351W        W52776  20.735  18.319   4.356
80352W        W52777  39.293  42.168   1.959
80353W        W52778  15.166  19.829   3.152
80354W        W52779  13.689   2.236  12.610
80355W        W52780  35.059  35.033   3.226
80356W        W52781  27.017  31.899   1.308
80357W        W52782  37.896  16.257   2.052
80358W        W52783  24.573  30.099  14.080
80359W        W52784  38.368   3.331   4.409
80360W        W52785  14.311  22.637   3.230
80361W        W52786  36.266  32.184  13.869
80362W        W52787  36.696   9.462  10.724
80363W        W52788   8.727  31.616   0.333
80364W        W52789  36.092   7.760  13.215
80365W        W52790   9.383  13.111  12.363
80366W        W52791  34.170   8.296  13.527
80367W        W52792   4.254   0.245  11.968
80368W        W52793  30.953   8.570  10.578
80369W        W52794  18.182  34.360   0.789
80370W        W52795   4.569   0.831   0.397
80371W        W52796  33.693  27.955  12.381
80372W        W52797  32.202   4.907   0.921
80373W        W52798   5.919  27.690  11.042
80374W        W52799  22.733  27.921   3.159
80375W        W52800  25.191   6.732  14.729
80376W        W52801  36.817  41.232  11.643
80377W        W52802  44.325  38.430  10.699
80378W        W52803  23.403  43.303  14.420
80379W        W52804  37.917  27.700   1.169
80380W        W52805  10.745  19.818   1.176
80381W        W52806  44.790  35.362   3.204
80382W        W52807  41.807   1.327   2.451
80383W        W52808  31.940  36.340   0.911
80384W        W52809  24.396  18.651  12.039
80385W        W52810  40.358  22.557   3.277
80386W        W52811  27.210   8.441  11.979
80387W        W52812   2.927  28.021  11.211
80388W        W52813   0.228   8.165  13.267
80389W        W52814  33.377  40.954   4.514
80390W        W52815  11.197  42.443   4.190
80391W        W52816  21.268  25.530   3.706
80392W        W52817  12.300  24.166  11.662
80393W        W52818  39.093  12.859  13.298
80394W        W52819  34.568   0.326  10.375
80395W        W52820   1.334  23.530  10.431
80396W        W52821   7.848  11.182   2.865
80397W        W52822   3.912  23.191  10.727
80398W        W52823  24.080   0.983  12.100
80399W        W52824   8.258  15.510   4.102
80400W        W52825   2.291  23.633   1.831
80401W        W52826  23.150   1.232   4.684
80402W        W52827  16.183  34.580  13.069
80403W        W52828  13.337  43.274  14.142
80404W        W52829  17.142  32.421  11.573
80405W        W52830  22.194  15.204   0.474
80406W        W52831  42.477   1.824   0.917
80407W        W52832  41.404  38.953   3.254
80408W        W52833  27.555  28.460  12.844
80409W        W52834  34.914  40.109   4.736
80410W        W52835  21.441  21.019  14.570
80411W        W52836   0.379  39.390   1.572
80412W        W52837  29.642   5.424  13.045
80413W        W52838  38.839  37.916   0.881
80414W        W52839  26.445  31.792  12.967
80415W        W52840  37.400  34.723   2.793
80416W        W52841  44.700   2.337  13.755
80417W        W52842  12.715  20.829   1.310
80418W        W52843   5.758  12.277  11.016
80419W        W52844  44.363  11.832   0.697
80420W        W52845  26.036   8.847   0.294
80421W        W52846  20.023  30.488  10.332
80422W        W52847  25.977  18.311  10.607
80423W        W52848  19.642  26.524  13.837
80424W        W52849  10.048   8.235   3.297
80425W        W52850  12.803  24.526  12.839
80426W        W52851  19.820  15.818  14.852
80427W        W52852   9.363   9.733   0.836
80428W        W52853  24.743  16.195  11.885
80429W        W52854  37.472  26.689  11.425
80430W        W52855  34.082   1.512   2.837
80431W        W52856   7.621  32.728  13.811
80432W        W52857  43.408   5.955  12.460
80433W        W52858  11.700   8.941   3.216
80434W        W52859  14.684  36.037   4.112
80435W        W52860   1.464  13.365   3.107
80436W        W52861  19.825  11.637   3.954
80437W        W52862  14.152  44.065   2.787
80438W        W52863  35.218  10.831   1.300
80439W        W52864  11.139  29.764  13.909
80440W        W52865  33.150  29.650  12.855
80441W        W52866  25.990  18.813   1.700
80442W        W52867   2.462  21.659   4.270
80443W        W52868  44.578   4.799  11.530
80444W        W52869  15.279   2.294   0.735
80445W        W52870  27.420   4.371  13.392
80446W        W52871  10.899  16.239  11.996
80447W        W52872  29.587  25.984   4.189
80448W        W52873  41.927   2.710   2.111
80449W        W52874  25.038  42.318  10.594
80450W        W52875   1.890  11.644   3.306
80451W        W52876  44.254  14.089  12.880
80452W        W52877  23.192  36.584   2.883
80453W        W52878  40.285   8.724   2.215
80454W        W52879  30.082  44.966   3.116
80455W        W52880  13.128  23.500  11.785
80456W        W52881  25.586  40.056  13.064
80457W        W52882   8.174   1.827   3.239
80458W        W52883  37.598  39.436   3.745
80459W        W52884   8.365  17.665  13.265
80460W        W52885   4.077  31.630  11.967
80461W        W52886  13.954  16.704   2.701
80462W        W52887  24.217  31.074   1.780
80463W        W52888  16.314   0.366  13.363
80464W        W52889  16.204  44.711   4.673
80465W        W52890   6.248  33.680   4.467
80466W        W52891  21.017  40.479   0.611
80467W        W52892  41.449   4.794   2.739
80468W        W52893  42.999  37.580   4.160
80469W        W52894  15.760  15.410   0.254
80470W        W52895   3.433  40.914   3.944
80471W        W52896  24.587  36.032   3.587
80472W        W52897  22.187  31.916   2.831
80473W        W52898  18.920  36.221  12.618
80474W        W52899  21.692  39.272   3.827
80475W        W52900   2.396   8.923  10.682
80476W        W52901   5.214  20.279   3.195
80477W        W52902  36.976  29.023   1.049
80478W        W52903  23.504  21.384   3.388
80479W        W52904  21.802  17.646  12.532
80480W        W52905  27.910   9.640   0.312
80481W        W52906  27.576  43.505  12.002
80482W        W52907  44.329  15.574  13.725
80483W        W52908  29.290  31.282  10.171
80484W        W52909  11.897  17.671   2.568
80485W        W52910  35.053  23.087   4.958
80486W        W52911  17.580  20.622  11.162
80487W        W52912  11.282  13.373   0.969
80488W        W52913  24.057   6.936  11.442
80489W        W52914   8.615  10.331  14.468
80490W        W52915  18.394  14.034   0.940
80491W        W52916  36.927  22.493   1.096
80492W        W52917   2.314  13.080   5.339
80493W        W52918   6.269  22.103   3.157
80494W        W52919  28.656   4.431  12.049
80495W        W52920  28.101  30.145   3.760
80496W        W52921  15.631  23.152  12.482
80497W        W52922   9.581   5.437  10.628
80498W        W52923  22.736  29.009   9.823
80499W        W52924  40.016   6.713   4.596
80500W        W52925  11.399  14.272  10.534
80501W        W52926   1.762  38.459  11.515
80502W        W52927  44.387  33.162   1.247
80503W        W52928   4.024  24.083  14.826
80504W        W52929  43.513  33.899   2.741
80505W        W52930  37.953   9.383   0.194
80506W        W52931  32.082  28.000  11.680
80507W        W52932  35.606  15.851   2.320
80508W        W52933  20.077  16.510  11.121
80509W        W52934  33.167  17.157   5.025
80510W        W52935  34.670  17.366   3.269
80511W        W52936  11.695  44.764   0.795
80512W        W52937  29.002  38.612  12.917
80513W        W52938  24.529  17.492  10.893
80514W        W52939  27.219  23.371   3.600
80515W        W52940  16.014  20.705   4.274
80516W        W52941   8.594  14.728   2.354
80517W        W52942   5.891  39.986   3.321
80518W        W52943  37.817  28.110  11.606
80519W        W52944  23.250  28.782  14.581
80520W        W52945  44.144  15.195   3.110
80521W        W52946   9.423   5.884  11.535
80522W        W52947  26.979   7.802  10.645
80523W        W52948  33.099  14.847   2.704
80524W        W52949   4.324   6.228   2.163
80525W        W52950  14.593  35.956   2.285
80526W        W52951  44.384  29.898   3.782
80527W        W52952  37.316  16.578   2.740
80528W        W52953   4.679  22.504  12.560
80529W        W52954  34.859   9.122  11.634
80530W        W52955   1.961  30.598  14.487
80531W        W52956   9.147  15.218  11.722
80532W        W52957  13.096  30.307   3.771
80533W        W52958  18.176  20.259  11.124
80534W        W52959  14.120  37.885   0.903
80535W        W52960  37.593   6.816  11.693
80536W        W52961  18.117  43.046   4.693
80537W        W52962  32.096  39.856  13.753
80538W        W52963  33.632   6.271   4.722
80539W        W52964  10.438  33.605  12.533
80540W        W52965  29.388  38.001   1.531
80541W        W52966   2.115  12.214  13.494
80542W        W52967  41.362  27.646  14.379
80543W        W52968  44.839  44.912  12.290
80544W        W52969  18.317  29.150   0.416
80545W        W52970  36.344  35.603  12.382
80546W        W52971  31.136  29.095  12.386
80547W        W52972  19.997  14.754   4.587
80548W        W52973   2.795  19.652  11.554
80549W        W52974  34.440  16.846  10.413
80550W        W52975  23.612  20.508  14.306
80551W        W52976  21.707  20.855  12.341
80552W        W52977   1.394  19.701   0.898
80553W        W52978  25.636  29.556   1.004
80554W        W52979  31.493  20.674  12.707
80555W        W52980  35.461  12.844  13.362
80556W        W52981  11.773  13.592   2.204
80557W        W52982   9.471  38.845  11.157
80558W        W52983  17.214  24.208  12.487
80559W        W52984   4.786  13.770   3.483
80560W        W52985  43.196  25.219   2.374
80561W        W52986  32.092  39.365  10.654
80562W        W52987  10.627  40.766  13.034
80563W        W52988  23.577  30.174  12.445
80564W        W52989  29.505  11.286   1.426
80565W        W52990  41.482  29.942   2.744
80566W        W52991  16.220  24.809  11.565
80567W        W52992  11.279   1.956  12.414
80568W        W52993  20.337  30.899   2.700
80569W        W52994  10.129  41.924  14.803
80570W        W52995   7.333   5.644  10.287
80571W        W52996   0.564  23.951  11.506
80572W        W52997  29.132  29.732  13.018
80573W        W52998   1.242  22.046   1.866
80574W        W52999  23.048   1.229  12.385
80575W        W53000   0.248   5.078   4.169
80576W        W53001  39.006  39.873  10.617
80577W        W53002  34.136  36.855  12.880
80578W        W53003  27.345  31.043  14.935
80579W        W53004  13.282  23.885  14.803
80580W        W53005  35.496  27.067  10.767
80581W        W53006  16.454  12.174   3.617
80582W        W53007  16.539   5.832   1.147
80583W        W53008  32.646   9.697  11.182
80584W        W53009  15.135  22.127   3.417
80585W        W53010  30.583  30.331  12.011
80586W        W53011  25.997  42.015  11.124
80587W        W53012   1.857  35.069  14.054
80588W        W53013   6.713  40.227  14.138
80589W        W53014  28.512  25.886   3.270
80590W        W53015  38.082  12.686  11.756
80591W        W53016  15.207  37.385  11.638
80592W        W53017   9.668  13.154  13.961
80593W        W53018  21.610   6.423  12.914
80594W        W53019  32.161  11.780  14.564
80595W        W53020   6.531  36.951  12.398
80596W        W53021  19.735  22.625   0.020
80597W        W53022  29.573   5.880   4.548
80598W        W53023   9.248  14.768  12.827
80599W        W53024  35.622  17.244   1.464
80600W        W53025  11.558   5.827  11.482
80601W        W53026  19.573  11.607   2.086
80602W        W53027   9.446  42.199   4.163
80603W        W53028  38.734  16.152  11.579
80604W        W53029  37.227   9.711  11.437
80605W        W53030  29.418  11.630   4.636
80606W        W53031  17.680  13.274  13.828
80607W        W53032  23.115  20.620   4.827
80608W        W53033  32.614   5.341  11.377
80609W        W53034  34.228  43.069   4.077
80610W        W53035  30.610   2.364  11.109
80611W        W53036  11.958   0.746  10.939
80612W        W53037  44.219  32.957  14.754
80613W        W53038  35.719  40.410   5.037
80614W        W53039  38.070   1.286  10.718
80615W        W53040  15.250  27.359  12.836
80616W        W53041  33.906  35.632   4.166
80617W        W53042  19.186  23.228   3.705
80618W        W53043  20.977  23.029   3.346
80619W        W53044  10.565  20.124   4.502
80620W        W53045   2.289   6.380  12.553
80621W        W53046  19.361  44.202   2.253
80622W        W53047  21.076  25.643  10.854
80623W        W53048  12.419  35.807   4.452
80624W        W53049  32.821  32.428   0.917
80625W        W53050  19.227   4.682  12.940
80626W        W53051   3.034  21.605   0.777
80627W        W53052   0.893  17.038  14.264
80628W        W53053   0.469   7.323   4.358
80629W        W53054  29.577   2.236   2.407
80630W        W53055  26.917  33.693  12.936
80631W        W53056  16.179   1.500   0.318
80632W        W53057  22.791  15.621   0.343
80633W        W53058  41.356  41.450   4.164
80634W        W53059  36.107  34.982   4.115
80635W        W53060   3.751  19.841   1.322
80636W        W53061  31.877  19.774   1.919
80637W        W53062   8.453  19.201  12.940
80638W        W53063  28.670  28.547  13.874
80639W        W53064   8.781  41.683   4.538
80640W        W53065  44.185  43.852   2.209
80641W        W53066  21.185  35.058   5.081
80642W        W53067  22.788   8.881  11.427
80643W        W53068  32.364   9.178  12.462
80644W        W53069  18.482   3.769   4.601
80645W        W53070  43.541  22.437  13.926
80646W        W53071  17.043   4.921   1.578
80647W        W53072   4.928  34.926   3.762
80648W        W53073  36.504  14.807   4.618
80649W        W53074  44.044  11.144  10.678
80650W        W53075   8.640  13.202  14.439
80651W        W53076   7.174   3.981   4.204
80652W        W53077   9.292  36.852   3.632
80653W        W53078  25.379  16.032  14.881
80654W        W53079  38.429  18.295   3.132
80655W        W53080  34.139  24.045  12.397
80656W        W53081  15.491  30.988   2.187
80657W        W53082  22.860  28.921   4.962
80658W        W53083  12.311  30.651  13.975
80659W        W53084  11.138   5.812  13.421
80660W        W53085  12.419  18.481  14.468
80661W        W53086  18.030  11.751   4.669
80662W        W53087  34.347  18.556   0.807
80663W        W53088  28.234  13.241   2.526
80664W        W53089  40.005   4.667   4.600
80665W        W53090  16.294  27.106  13.763
80666W        W53091   4.411  12.683   2.795
80667W        W53092  23.022   2.286   4.441
80668W        W53093   8.687  20.272  11.660
80669W        W53094  38.863   9.164  11.976
80670W        W53095  36.102  38.213   2.619
80671W        W53096  15.342  42.526  13.269
80672W        W53097  23.999  12.289   4.626
80673W        W53098  44.657  23.573   1.476
80674W        W53099   0.004  18.231   1.778
80675W        W53100  16.061  30.677  11.677
80676W        W53101  10.717   1.243   3.209
80677W        W53102   3.612  39.399   3.538
80678W        W53103  21.808   2.374   1.271
80679W        W53104  17.156  21.248   0.880
80680W        W53105  10.910  15.592  13.370
80681W        W53106  11.362   1.963  14.813
80682W        W53107   8.972  28.443   3.224
80683W        W53108  10.402   5.880   9.894
80684W        W53109  30.634  36.035  13.933
80685W        W53110  16.812  39.207  14.921
80686W        W53111  11.495  30.902   3.674
80687W        W53112   0.569  21.238  11.016
80688W        W53113  38.059  41.389   1.886
80689W        W53114  12.241  28.294   1.195
80690W        W53115   0.839  38.740  10.632
80691W        W53116  16.731  36.387   1.727
80692W        W53117  14.995  33.133   0.946
80693W        W53118  32.930  26.603   2.264
80694W        W53119  21.248   3.457  12.620
80695W        W53120  40.624  32.010  10.638
80696W        W53121  20.763  26.152   3.285
80697W        W53122  35.648  24.625   5.480
80698W        W53123   3.493  43.923  11.209
80699W        W53124  37.823   6.918   0.338
80700W        W53125  38.817  11.826   1.749
80701W        W53126   9.074   6.393  14.903
80702W        W53127   0.943  18.187  12.423
80703W        W53128  17.121  14.735   0.803
80704W        W53129  25.397   7.824  10.475
80705W        W53130  35.666  23.136  12.657
80706W        W53131  15.105  43.821   3.640
80707W        W53132  14.766  44.875   4.424
80708W        W53133  11.235  19.596   1.152
80709W        W53134  32.153  24.132   2.734
80710W        W53135  31.161  42.930  12.438
80711W        W53136  12.452   5.411   2.810
80712W        W53137  14.079  19.137   0.204
80713W        W53138  38.490   9.969   0.757
80714W        W53139   9.782  44.484  14.416
80715W        W53140   0.585   0.538  14.856
80716W        W53141  27.384  43.236  13.228
80717W        W53142  25.041   3.918   2.422
80718W        W53143  38.392   9.747   2.453
80719W        W53144  43.015  13.226   0.960
80720W        W53145  21.520   7.334  13.116
80721W        W53146   7.206  42.942  13.198
80722W        W53147   8.905  38.439   0.362
80723W        W53148   1.887  28.053   0.782
80724W        W53149   3.906   2.264  12.154
80725W        W53150  13.865  30.425   4.138
80726W        W53151   1.057  13.017  11.209
80727W        W53152  38.744  30.529  14.897
80728W        W53153  26.029  18.103   3.295
80729W        W53154  24.977   9.123   0.522
80730W        W53155   9.689   8.991   3.715
80731W        W53156  23.813  33.453  11.623
80732W        W53157  18.659  42.735   0.311
80733W        W53158  26.604  25.445   3.293
80734W        W53159  13.615  18.426  14.763
80735W        W53160   4.817  12.271   4.505
80736W        W53161  36.927  28.091  12.986
80737W        W53162  43.910  31.673  12.477
80738W        W53163  43.551  13.239   2.943
80739W        W53164  37.434   4.436  12.484
80740W        W53165  16.564  26.663  13.831
80741W        W53166   6.096  35.562  11.961
80742W        W53167  25.104  27.735  12.566
80743W        W53168  43.872   8.754   1.245
80744W        W53169   7.859  29.130   2.862
80745W        W53170  31.639   4.874  14.981
80746W        W53171  26.052   8.414   2.273
80747W        W53172   0.239  35.056   4.836
80748W        W53173   8.252  16.544   4.156
80749W        W53174  22.325  41.858   3.359
80750W        W53175   3.283  39.923   4.771
80751W        W53176  22.066  39.918  13.528
80752W        W53177  34.136  30.612  12.102
80753W        W53178  39.302  25.335  10.708
80754W        W53179  32.216  27.637   1.863
80755W        W53180  31.541  16.343  13.062
80756W        W53181  36.760  40.514   3.274
80757W        W53182  10.252  30.625  13.545
80758W        W53183  21.778  35.349   1.413
80759W        W53184  30.930  26.923  13.991
80760W        W53185  21.685   8.379   2.207
80761W        W53186  28.414  15.724   1.360
80762W        W53187  31.365  30.632  11.574
80763W        W53188   2.504  41.143   5.198
80764W        W53189  43.416  41.988   0.356
80765W        W53190  18.954  23.790  13.034
80766W        W53191  30.910   7.206  12.617
80767W        W53192  25.566  27.692  11.914
80768W        W53193   4.336   7.274   1.976
80769W        W53194  27.456  30.465  13.818
80770W        W53195  31.182  26.460   4.656
80771W        W53196  24.955  25.664  12.417
80772W        W53197  26.252   7.873  13.977
80773W        W53198  33.949   8.643  11.537
80774W        W53199  44.716  10.288  12.003
80775W        W53200  16.570  33.690   4.189
80776W        W53201  32.652   4.798   1.851
80777W        W53202  15.333  15.814  11.074
80778W        W53203   0.301  24.160  11.091
80779W        W53204  39.081  19.730  12.602
80780W        W53205  14.458  36.452  11.647
80781W        W53206   6.327  39.941   4.327
80782W        W53207  40.004  11.172   4.017
80783W        W53208  21.229  18.750   3.247
80784W        W53209  18.794   8.923   3.263
80785W        W53210  44.856   4.868  11.956
80786W        W53211  35.166  39.773   4.428
80787W        W53212  42.020  32.386   4.161
80788W        W53213  43.540   8.660  14.058
80789W        W53214  14.783  30.082  11.548
80790W        W53215   3.050   7.246  14.716
80791W        W53216  21.376  17.238   3.779
80792W        W53217  16.291   2.540   0.391
80793W        W53218  18.799  23.526   2.098
80794W        W53219  23.974  42.602   5.069
80795W        W53220  24.167  40.638  12.147
80796W        W53221  29.496  32.622   2.861
80797W        W53222  42.217  25.525  14.962
80798W        W53223  38.390  22.687   3.406
80799W        W53224  15.833  31.007   2.576
80800W        W53225  33.475  39.602  12.548
80801W        W53226   9.625  24.771  10.688
80802W        W53227  31.846   5.913   2.578
80803W        W53228  21.614  30.216  13.147
80804W        W53229  11.763  27.541   1.610
80805W        W53230  26.143  24.633  13.086
80806W        W53231  28.474   3.204   2.009
80807W        W53232  37.446  24.709  12.377
80808W        W53233  28.714  15.850   3.717
80809W        W53234  32.849  17.233  14.870
80810W        W53235  15.344  33.663   1.910
80811W        W53236  10.368   0.542  13.048
80812W        W53237   5.294  24.978  11.604
80813W        W53238  30.102  13.656   4.116
80814W        W53239  30.725  15.124  12.375
80815W        W53240  35.936  10.338  11.170
80816W        W53241  38.569   8.927   1.326
80817W        W53242   1.925  36.707   2.472
80818W        W53243  41.174  35.867   1.054
80819W        W53244  13.159  39.548  11.569
80820W        W53245   8.278  30.027  13.777
80821W        W53246   4.131  27.664   2.217
80822W        W53247  41.310  11.049   4.135
80823W        W53248  34.392  26.472  12.984
80824W        W53249   2.192  11.656   1.659
80825W        W53250   3.701  13.617  11.152
80826W        W53251  10.415  31.948  10.632
80827W        W53252  12.183   2.521   0.671
80828W        W53253  24.624  25.708  14.738
80829W        W53254  30.218  40.193   4.381
80830W        W53255  13.283  43.667   3.788
80831W        W53256   0.611   9.018   3.246
80832W        W53257  29.870  36.784   2.019
80833W        W53258  24.425   0.938  14.321
80834W        W53259  15.776  37.003  12.944
80835W        W53260  23.890  23.613  14.530
80836W        W53261  14.258  15.874   1.167
80837W        W53262  17.767  43.210  14.352
80838W        W53263  14.055  31.520   1.924
80839W        W53264  11.628  29.607   5.487
80840W        W53265  38.388  10.464   0.748
80841W        W53266  31.249  22.463  12.038
80842W        W53267   2.505  28.845  12.525
80843W        W53268  25.390  40.670  14.805
80844W        W53269  19.081   3.440  14.321
80845W        W53270  30.391  42.556  11.910
80846W        W53271  29.486  31.206  13.906
80847W        W53272  15.789   9.964  10.651
80848W        W53273  41.141   0.384  12.502
80849W        W53274  14.277  27.539   4.955
80850W        W53275  42.827  11.087   3.210
80851W        W53276  42.092  21.078  12.840
80852W        W53277   3.442  38.420  11.967
80853W        W53278  27.728  17.074  14.330
80854W        W53279  25.386   9.729  12.886
80855W        W53280   5.998   0.005   3.682
80856W        W53281   9.274  36.907  11.872
80857W        W53282  37.093  12.370  10.572
80858W        W53283  44.805  42.415  10.742
80859W        W53284   2.306  32.432   0.367
80860W        W53285   9.870  23.818   2.771
80861W        W53286  24.147  23.339  11.923
80862W        W53287  19.401  33.180   2.872
80863W        W53288  42.479  38.408  12.631
80864W        W53289  25.698   7.650  14.685
80865W        W53290  32.119  34.149  10.580
80866W        W53291  20.216  24.601  13.927
80867W        W53292  25.793  18.331  13.793
80868W        W53293   7.135  20.789  10.751
80869W        W53294   1.195  31.110   0.471
80870W        W53295  31.272  42.065  10.769
80871W        W53296   0.079  14.676  11.462
80872W        W53297   4.663  27.122   2.789
80873W        W53298  23.395   8.301   4.915
80874W        W53299  42.349   5.803  13.851
80875W        W53300  35.734  21.319   2.561
80876W        W53301  29.132  18.628   1.737
80877W        W53302  37.134  41.421   3.761
80878W        W53303  12.824   6.752   2.842
80879W        W53304  35.210  38.605  12.068
80880W        W53305  23.072  39.042   4.018
80881W        W53306   5.350   6.737   0.982
80882W        W53307  10.153  24.002   0.805
80883W        W53308  19.034  42.572   2.860
80884W        W53309  20.691  14.140  11.723
80885W        W53310   4.529  16.266   2.850
80886W        W53311   2.984  16.156  13.877
80887W        W53312  35.321  24.527   5.104
80888W        W53313  33.563  15.075   2.877
80889W        W53314   2.228  40.851   3.142
80890W        W53315   0.521   5.637   1.739
80891W        W53316  23.803  18.237  13.972
80892W        W53317  10.247  27.024   4.185
80893W        W53318  11.622  35.371  12.971
80894W        W53319  31.509  20.443   0.794
80895W        W53320  42.938  42.327   1.191
80896W        W53321   8.025  17.191   0.657
80897W        W53322  21.418  17.761   3.710
80898W        W53323  39.089   5.431   3.187
80899W        W53324  25.255  39.355   4.688
80900W        W53325  32.612   3.993   1.914
80901W        W53326  14.778  17.094   4.405
80902W        W53327  37.660  34.985   1.238
80903W        W53328   4.047  32.489  14.592
80904W        W53329  37.380  24.675   3.324
80905W        W53330  17.657  38.348  13.887
80906W        W53331  14.925  22.294  11.971
80907W        W53332  11.608  25.190   0.157
80908W        W53333  15.042  23.652  12.005
80909W        W53334  41.045  35.863  10.608
80910W        W53335  17.238  25.029  12.029
80911W        W53336  18.024  21.500   0.857
80912W        W53337  35.641  28.314   3.686
80913W        W53338  24.591   0.053   1.874
80914W        W53339  28.886   6.977   3.123
80915W        W53340  27.773  24.122   3.843
80916W        W53341  18.738  31.345   3.734
80917W        W53342  27.086  24.253   3.157
80918W        W53343  37.534  29.420  12.191
80919W        W53344  17.615  19.079   2.669
80920W        W53345  16.974  16.269   2.341
80921W        W53346  34.128  37.591   3.703
80922W        W53347  35.288   3.842  11.148
80923W        W53348  15.092  40.975  12.321
80924W        W53349  18.626  26.702  11.271
80925W        W53350   3.948   5.451   2.683
80926W        W53351   0.384  31.586  10.538
80927W        W53352   2.441  22.683   0.341
80928W        W53353  20.518  37.507  11.953
80929W        W53354   7.415  33.593   2.785
80930W        W53355  40.477  12.378   4.693
80931W        W53356  42.881  12.826  13.772
80932W        W53357  15.578   4.484  11.565
80933W        W53358   2.670  11.956   3.738
80934W        W53359  36.073  21.260  12.535
80935W        W53360  37.481  26.690  12.533
80936W        W53361  17.235  35.072   2.305
80937W        W53362  36.552  10.904   4.155
80938W        W53363  22.594   3.922   0.896
80939W        W53364  36.734   0.128  12.731
80940W        W53365  16.618  42.014   3.475
80941W        W53366  39.372   0.973  11.181
80942W        W53367  14.547  17.164  11.127
80943W        W53368   0.635  22.129  13.362
80944W        W53369   3.429   0.564   0.758
80945W        W53370   8.404  37.518   4.602
80946W        W53371  28.977  14.977  12.823
80947W        W53372  42.943  26.588   3.230
80948W        W53373  14.883  35.517   2.333
80949W        W53374  35.003  16.544   3.331
80950W        W53375  28.513  13.406   2.967
80951W        W53376  26.375  43.561  13.196
80952W        W53377  32.439  44.952  12.822
80953W        W53378  27.161  43.554  12.848
80954W        W53379  19.416  38.126   1.676
80955W        W53380  22.023  36.909  13.470
80956W        W53381  17.083  23.994  14.782
80957W        W53382   4.814  37.276  13.401
80958W        W53383  37.624   6.867   2.817
80959W        W53384  42.581  36.308   2.204
80960W        W53385  25.131  20.331  12.483
80961W        W53386  23.088  39.317  14.389
80962W        W53387  17.718  35.369   0.519
80963W        W53388  14.554  28.325   3.234
80964W        W53389  39.389  23.576   3.711
80965W        W53390  30.111   4.741  11.960
80966W        W53391  42.942  29.561   4.738
80967W        W53392   5.905  24.203   0.471
80968W        W53393  34.533   3.907   3.764
80969W        W53394  24.101  14.476  11.597
80970W        W53395  37.526  15.353   0.447
80971W        W53396   3.681  37.353   0.667
80972W        W53397  19.717  37.348  12.361
80973W        W53398  22.606   3.181   2.659
80974W        W53399   6.703  35.564  11.375
80975W        W53400   6.422  41.745  13.273
80976W        W53401  29.549  42.539  12.416
80977W        W53402  37.839  37.428   4.703
80978W        W53403  19.038   7.658   1.874
80979W        W53404  13.125  12.327   0.900
80980W        W53405  33.257  25.455   3.600
80981W        W53406  19.300  31.670   1.290
80982W        W53407  39.875  30.628   1.512
80983W        W53408  40.944  20.215  11.163
80984W        W53409  36.944  15.614   5.195
80985W        W53410  24.964  34.284  10.845
80986W        W53411   4.774  37.596   4.354
80987W        W53412  16.446  39.174  13.980
80988W        W53413  12.856  30.138   4.300
80989W        W53414  18.805   7.169   1.764
80990W        W53415  19.849  26.140   0.034
80991W        W53416  22.749  12.711  14.587
80992W        W53417  21.590  12.821   4.926
80993W        W53418  29.734  14.097   2.281
80994W        W53419   8.069  11.290   3.718
80995W        W53420   2.327  40.118   0.758
80996W        W53421   1.657  16.262  11.572
80997W        W53422   0.922   2.259   0.017
80998W        W53423   5.137  14.907  14.577
80999W        W53424  37.465  26.164   3.626
81000W        W53425  14.890   2.209   1.085
81001W        W53426  28.702   7.148   1.180
81002W        W53427  30.515  32.475   3.937
81003W        W53428  26.704   4.624   5.245
81004W        W53429  44.474  29.512   1.785
81005W        W53430   5.184  43.792   4.148
81006W        W53431  11.673  38.619   4.124
81007W        W53432  31.026   7.231  11.173
81008W        W53433   7.754  40.337  13.912
81009W        W53434  13.752  17.192   2.668
81010W        W53435   7.805  35.829  12.918
81011W        W53436   9.115  42.254  13.256
81012W        W53437  25.491  27.435  14.805
81013W        W53438  18.575  31.393  14.464
81014W        W53439  25.425  15.081  14.898
81015W        W53440  14.249  30.190   3.153
81016W        W53441  19.554  41.386   4.245
81017W        W53442  44.313  26.579  13.924
81018W        W53443   2.805  40.892  14.688
81019W        W53444   0.267  14.793  13.600
81020W        W53445   1.152  11.301  12.361
81021W        W53446  22.237  35.593   3.662
81022W        W53447   1.718  19.619   1.441
81023W        W53448   9.789  13.623   4.735
81024W        W53449  10.699  23.287   0.801
81025W        W53450  10.708  10.371  13.363
81026W        W53451   1.051  21.928   0.568
81027W        W53452  18.311  44.490   4.779
81028W        W53453  26.562  42.024   2.862
81029W        W53454  28.610   2.545   2.753
81030W        W53455  31.178  22.209  12.546
81031W        W53456  20.703  14.480   1.407
81032W        W53457   3.230  19.919   4.632
81033W        W53458  14.515  17.113   3.348
81034W        W53459  37.880  44.850   0.252
81035W        W53460  14.705  21.837  11.100
81036W        W53461  33.024  12.270  11.603
81037W        W53462  34.710  40.550  14.805
81038W        W53463  23.265  40.552  11.821
81039W        W53464  17.594  25.650   4.384
81040W        W53465   5.710  32.831  14.403
81041W        W53466  17.143   6.713  13.115
81042W        W53467  24.867  42.374   4.109
81043W        W53468  20.238  23.132   3.730
81044W        W53469  39.494  21.955   3.151
81045W        W53470  14.785  41.691   4.987
81046W        W53471  25.294  16.046   0.976
81047W        W53472  25.136  33.469   2.481
81048W        W53473  24.751   6.724   1.440
81049W        W53474  44.209  24.654   1.163
81050W        W53475  26.972  40.517  10.932
81051W        W53476   0.671  28.168  13.388
81052W        W53477   6.524  43.892   3.925
81053W        W53478   3.402  42.475  13.323
81054W        W53479  15.114  26.724   3.440
81055W        W53480   2.722  42.902   1.018
81056W        W53481   2.905  35.693   4.594
81057W        W53482  25.140  21.740   0.966
81058W        W53483  15.145  13.540   2.851
81059W        W53484   3.659  44.364   3.647
81060W        W53485  36.226  12.276   0.423
81061W        W53486  37.219  16.252  13.788
81062W        W53487  29.597   7.252   5.066
81063W        W53488  13.171  10.455   4.807
81064W        W53489  20.792  33.857   0.269
81065W        W53490  20.923   9.007  11.535
81066W        W53491   2.977  40.560   1.342
81067W        W53492   7.668  31.124   1.038
81068W        W53493  14.387  39.487   1.794
81069W        W53494  18.185  25.395   1.656
81070W        W53495  14.282  28.777  13.925
81071W        W53496   7.333  14.564  14.951
81072W        W53497  23.526  40.953   3.601
81073W        W53498  34.994   3.826   0.319
81074W        W53499   4.495   3.198   4.252
81075W        W53500  24.170   0.579   2.359
81076W        W53501  31.409   3.877   0.291
81077W        W53502  10.508  43.809  14.214
81078W        W53503  44.794  25.879  10.522
81079W        W53504  11.095  24.606  11.588
81080W        W53505  35.931   0.867   0.662
81081W        W53506  26.257  12.050  14.754
81082W        W53507  30.098  33.170   4.435
81083W        W53508  26.715   0.653   4.197
81084W        W53509   0.171  31.977   3.169
81085W        W53510  30.932  14.970   4.934
81086W        W53511  13.053   2.846  12.597
81087W        W53512  37.762  30.387   0.919
81088W        W53513  31.618  36.825  14.327
81089W        W53514  28.343   2.170  14.506
81090W        W53515  39.623  33.398   4.269
81091W        W53516  22.186  33.506  13.973
81092W        W53517  15.164  43.333   4.863
81093W        W53518  40.833   5.869  10.783
81094W        W53519   4.446  11.091   4.206
81095W        W53520  37.060  16.579   3.831
81096W        W53521   8.246  36.019   2.051
81097W        W53522  27.124   3.952   1.897
81098W        W53523  24.296  25.550   3.653
81099W        W53524   0.315   1.936   3.620
81100W        W53525  44.002  11.737   1.223
81101W        W53526   6.108  21.307  13.921
81102W        W53527  20.217  20.811   2.827
81103W        W53528  44.932  34.115  13.160
81104W        W53529  40.564   8.256  11.829
81105W        W53530  37.572  22.865   3.262
81106W        W53531  31.322  14.606  12.852
81107W        W53532  15.849  25.079   1.992
81108W        W53533  39.414  29.765  11.641
81109W        W53534  21.739   5.435   3.205
81110W        W53535  16.340  20.866  14.421
81111W        W53536  35.441  11.828  14.475
81112W        W53537  11.794   8.583  10.680
81113W        W53538  24.499  12.002  11.925
81114W        W53539  43.796  27.392  11.947
81115W        W53540  35.592  25.191   2.622
81116W        W53541  23.985   1.250   3.304
81117W        W53542  26.007  14.366  12.833
81118W        W53543  26.158  23.161   3.725
81119W        W53544   2.756  35.040   4.031
81120W        W53545  40.774  29.602   2.905
81121W        W53546  41.994  39.488   3.580
81122W        W53547  12.617   2.402   0.977
81123W        W53548  37.867   0.714  12.368
81124W        W53549  38.891   5.200  13.873
81125W        W53550  41.909  12.238  12.862
81126W        W53551   8.268  19.613   1.620
81127W        W53552  37.922  27.923  10.739
81128W        W53553  10.408  17.054  14.746
81129W        W53554  17.658   5.393  12.553
81130W        W53555  26.948  13.910  14.300
81131W        W53556  31.000   9.240   1.338
81132W        W53557  43.893   0.011  11.691
81133W        W53558  14.179  15.377   1.308
81134W        W53559  43.462  30.162  13.955
81135W        W53560  31.131  19.659   1.455
81136W        W53561   9.767  12.553   1.326
81137W        W53562  12.218  28.117   0.496
81138W        W53563   8.805   8.616  11.417
81139W        W53564   6.707  33.529  13.156
81140W        W53565  34.484  15.697   0.775
81141W        W53566   4.671  41.211  13.497
81142W        W53567  42.924  34.621   0.839
81143W        W53568  42.400  24.126   2.313
81144W        W53569  27.453  15.272  14.791
81145W        W53570  33.140  19.809   4.147
81146W        W53571  37.770  34.585   3.862
81147W        W53572  39.751  15.248   4.540
81148W        W53573  42.277   7.007  14.238
81149W        W53574   8.146  36.432   2.344
81150W        W53575  39.122  43.667   3.681
81151W        W53576  17.859  17.548  12.436
81152W        W53577  26.117  26.382  12.028
81153W        W53578   7.859   8.281  11.487
81154W        W53579  23.442  12.797   3.223
81155W        W53580  40.504  42.201  10.781
81156W        W53581  30.134  27.883  13.085
81157W        W53582  15.497  35.817   4.058
81158W        W53583  40.359  21.638  12.049
81159W        W53584   1.368  32.465   3.361
81160W        W53585  18.290   5.304  12.891
81161W        W53586  19.721  31.983  14.807
81162W        W53587  23.663   6.291   2.809
81163W        W53588  12.281  15.272  14.207
81164W        W53589  20.080  31.004   4.996
81165W        W53590  33.349  14.240  12.770
81166W        W53591  19.054  38.085   2.451
81167W        W53592  14.905  14.385  14.024
81168W        W53593  30.902  27.187   3.807
81169W        W53594  26.591  35.956  13.256
81170W        W53595  30.182   2.069  11.181
81171W        W53596  35.703   6.244  12.397
81172W        W53597  38.300  40.015  11.049
81173W        W53598  24.779  22.789   0.400
81174W        W53599  40.243   4.384   4.202
81175W        W53600  23.408  42.489   1.822
81176W        W53601  30.573  39.976  10.773
81177W        W53602   0.031  26.877  10.768
81178W        W53603  20.476  33.499  11.629
81179W        W53604  23.821   1.416  10.497
81180W        W53605   3.294  41.995  14.307
81181W        W53606   8.453  30.117  10.671
81182W        W53607  15.858  32.449  11.136
81183W        W53608   5.433   2.888  14.213
81184W        W53609  34.646  22.604   0.886
81185W        W53610   1.443   2.284   1.974
81186W        W53611  39.854  27.840   2.583
81187W        W53612  36.501  18.952  12.937
81188W        W53613  24.062   6.007   0.411
81189W        W53614   8.817  18.320  14.492
81190W        W53615  17.363  44.583   4.128
81191W        W53616  41.007  42.667   2.607
81192W        W53617  15.150   3.173  14.501
81193W        W53618  11.658   2.414   1.926
81194W        W53619  29.403  24.020   5.131
81195W        W53620  39.982  38.281  10.510
81196W        W53621  11.343  23.004   5.005
81197W        W53622  34.013  30.482  10.643
81198W        W53623   2.757   5.640   0.886
81199W        W53624   1.765  23.399  13.951
81200W        W53625  26.997  35.549   1.256
81201W        W53626  36.371  21.048   4.750
81202W        W53627  23.827  36.916  10.974
81203W        W53628  43.330   1.365   0.854
81204W        W53629   4.010   9.878   4.655
81205W        W53630   9.144  25.988   4.136
81206W        W53631  10.109  31.183   0.324
81207W        W53632  22.240   5.372  10.613
81208W        W53633  11.733   2.868   2.219
81209W        W53634  14.752  24.678  12.510
81210W        W53635  16.583  25.808  11.143
81211W        W53636  40.971   1.338   1.996
81212W        W53637  21.472  21.643  14.241
81213W        W53638   1.500  33.839  11.114
81214W        W53639   5.446  35.989  12.258
81215W        W53640   0.014  20.717   4.606
81216W        W53641   8.377  44.655  12.701
81217W        W53642   1.924  40.387   0.894
81218W        W53643  13.319   6.840   1.255
81219W        W53644   3.224  17.260  14.570
81220W        W53645  41.238   5.628  12.429
81221W        W53646  40.066  18.264  13.039
81222W        W53647   2.406  17.094  13.265
81223W        W53648  25.727   5.632   4.134
81224W        W53649  18.814   2.247  12.537
81225W        W53650  26.682   1.983  12.012
81226W        W53651   3.324   0.506   1.632
81227W        W53652  28.448  34.936  14.927
81228W        W53653  28.412  19.071  11.168
81229W        W53654  27.486  16.287  14.910
81230W        W53655  11.190  43.913   0.869
81231W        W53656   5.267  22.049   2.994
81232W        W53657  41.859  12.784   3.332
81233W        W53658  13.197  41.555   1.918
81234W        W53659   0.036  20.618  10.541
81235W        W53660   0.740  14.075   2.148
81236W        W53661   2.343  25.228   1.677
81237W        W53662  24.114  37.831   3.611
81238W        W53663  14.820  39.342   0.974
81239W        W53664  21.262  41.940  14.952
81240W        W53665  38.670  11.863   3.129
81241W        W53666  29.040  28.965  14.904
81242W        W53667  26.658  35.825  11.031
81243W        W53668   8.681  18.000  13.515
81244W        W53669  20.562   7.182   1.198
81245W        W53670   8.025   1.935  11.079
81246W        W53671   6.761  38.466  12.207
81247W        W53672   8.034  31.953   3.735
81248W        W53673  24.038  26.752  14.354
81249W        W53674   6.192  25.471   2.175
81250W        W53675  17.246  17.012  14.980
81251W        W53676  30.926  10.375   1.702
81252W        W53677  24.039  17.853   5.032
81253W        W53678  27.996   1.580   1.438
81254W        W53679  22.586  14.098  13.449
81255W        W53680   1.190  10.186   0.528
81256W        W53681   1.211  43.770  11.589
81257W        W53682  26.914  27.098  11.485
81258W        W53683  24.163  39.189  10.684
81259W        W53684   8.987   9.182   1.701
81260W        W53685  13.563   3.024   1.745
81261W        W53686  28.129  20.467   4.054
81262W        W53687  39.969  31.375   2.162
81263W        W53688   7.751  18.551   3.931
81264W        W53689   7.120  42.512  12.367
81265W        W53690  26.840  19.516   2.760
81266W        W53691   2.512  39.594  11.514
81267W        W53692  43.738  10.163  14.974
81268W        W53693  17.312  25.163   9.802
81269W        W53694  30.961   3.326   3.188
81270W        W53695  44.785  27.870   3.658
81271W        W53696  21.233  37.389   4.523
81272W        W53697   2.261  44.290  13.247
81273W        W53698  28.651  27.860  14.041
81274W        W53699  15.734  23.706   0.823
81275W        W53700  22.471  13.727   0.467
81276W        W53701  40.621  34.867   0.187
81277W        W53702  38.308  11.319   0.502
81278W        W53703  26.447  26.748  12.423
81279W        W53704   6.290  13.370  13.021
81280W        W53705  17.234  13.641  13.424
81281W        W53706   9.953  42.400   2.831
81282W        W53707  28.262  28.114  10.521
81283W        W53708  33.018  33.945   1.669
81284W        W53709   6.483   0.940   4.596
81285W        W53710   9.709  16.613   3.250
81286W        W53711  43.343  31.499  11.161
81287W        W53712  30.085   2.923  10.644
81288W        W53713  24.444   5.226   4.668
81289W        W53714  42.935  28.473  12.537
81290W        W53715  31.150  14.890  13.273
81291W        W53716  23.529  24.581  10.746
81292W        W53717  16.153  36.343  10.740
81293W        W53718  23.440  31.527   0.934
81294W        W53719  43.727  44.893  14.231
81295W        W53720  41.067  41.346   1.911
81296W        W53721  27.055  16.619   4.261
81297W        W53722  15.997  12.267   1.400
81298W        W53723  28.608  40.115   1.233
81299W        W53724  12.655  22.048   9.689
81300W        W53725  15.044  25.226   3.109
81301W        W53726  40.580  13.226  11.580
81302W        W53727  18.821  13.515   3.593
81303W        W53728  39.924  33.364   2.356
81304W        W53729  43.829  37.355   4.630
81305W        W53730  26.614   9.207   4.244
81306W        W53731  38.074  41.345   5.010
81307W        W53732  16.814  27.533  14.292
81308W        W53733   0.147  34.520  13.374
81309W        W53734   1.749   1.331   4.689
81310W        W53735  29.080  30.440  14.390
81311W        W53736  14.739   8.542  11.627
81312W        W53737  31.392  38.536  11.590
81313W        W53738  17.363   0.982  13.538
81314W        W53739  18.742  37.094   0.761
81315W        W53740  41.498  11.192  10.773
81316W        W53741  41.914  26.717  11.151
81317W        W53742  43.621  37.884  13.034
81318W        W53743   7.164  16.197   0.330
81319W        W53744  35.975   3.586   4.132
81320W        W53745  36.795  36.386   0.014
81321W        W53746  25.696   0.487  12.957
81322W        W53747  38.556  26.497  11.121
81323W        W53748  34.173  20.312   0.040
81324W        W53749  11.949  41.748   0.438
81325W        W53750   9.726  24.260  10.680
81326W        W53751   8.163  12.076  13.844
81327W        W53752  32.597  27.683  13.477
81328W        W53753   8.848  22.516  12.437
81329W        W53754  32.669  17.104  12.554
81330W        W53755   0.249  27.383   1.373
81331W        W53756  22.999  17.158   2.810
81332W        W53757   8.436  32.949   0.418
81333W        W53758  29.941  39.860  11.211
81334W        W53759  11.452  25.561  11.224
81335W        W53760  27.055  12.367  14.410
81336W        W53761  15.229   8.371  10.541
81337W        W53762   6.934   3.522   3.754
81338W        W53763  15.279  26.895  12.116
81339W        W53764  35.467  44.925  12.965
81340W        W53765  34.435  43.905   0.350
81341W        W53766   8.595  20.197   0.336
81342W        W53767  34.425  34.196  13.722
81343W        W53768  35.603  33.643  11.487
81344W        W53769  24.369  29.975   2.082
81345W        W53770  43.851   4.609   3.105
81346W        W53771  18.992   4.878  12.497
81347W        W53772  41.295  16.172  11.640
81348W        W53773  25.626  18.538   1.411
81349W        W53774   5.418  15.432  11.066
81350W        W53775  33.874  41.432   1.357
81351W        W53776  12.624  43.585  14.299
81352W        W53777  14.743  32.470   1.750
81353W        W53778   6.721  32.407   0.819
81354W        W53779  26.946  14.583   3.006
81355W        W53780  22.496  13.830   4.381
81356W        W53781  23.210  19.102   2.811
81357W        W53782   7.758   5.266   0.325
81358W        W53783  34.372  44.848   4.273
81359W        W53784   5.438  25.607   1.667
81360W        W53785  22.965  11.820  11.031
81361W        W53786  44.632  21.591   4.144
81362W        W53787  19.163  24.672  12.534
81363W        W53788  37.469  36.801  14.293
81364W        W53789  34.859   9.449   2.410
81365W        W53790  25.759  38.066   4.112
81366W        W53791   6.900  15.368  11.550
81367W        W53792  13.616  25.287  14.465
81368W        W53793  13.139   0.582   0.031
81369W        W53794  29.147  26.663   4.648
81370W        W53795  25.547  30.996   3.656
81371W        W53796   6.718  40.862  14.992
81372W        W53797  16.394  22.507  14.832
81373W        W53798   5.816  20.899   2.412
81374W        W53799  44.225  17.229  10.036
81375W        W53800  42.751   8.950  12.308
81376W        W53801   5.203  34.063  12.336
81377W        W53802  27.147  36.406   0.684
81378W        W53803  42.038  37.461  12.482
81379W        W53804  25.425  25.120   4.168
81380W        W53805  12.332  29.509   4.668
81381W        W53806  22.249  13.743   2.868
81382W        W53807  32.190  15.184   1.359
81383W        W53808  28.186  40.932   0.746
81384W        W53809   1.415  40.050   3.219
81385W        W53810  36.157  35.669  14.059
81386W        W53811  41.561  23.944  12.358
81387W        W53812  43.885  19.936   3.414
81388W        W53813   5.921  24.407  12.845
81389W        W53814   8.127  43.784  13.343
81390W        W53815   3.601  19.211  11.585
81391W        W53816  35.384  32.131  14.331
81392W        W53817  39.008  38.042  13.008
81393W        W53818  21.767  28.131  12.327
81394W        W53819  37.790  26.032  10.640
81395W        W53820  33.865  40.406  12.835
81396W        W53821   3.082  37.425   1.335
81397W        W53822  40.430  31.237   0.873
81398W        W53823  41.480  36.911   0.472
81399W        W53824  11.943  35.151  13.781
81400W        W53825  25.143  33.540  11.905
81401W        W53826  13.598  29.440   3.382
81402W        W53827  20.714  18.700  13.524
81403W        W53828   3.842  41.055  12.595
81404W        W53829  17.536  38.054  14.473
81405W        W53830  30.103  28.092  11.799
81406W        W53831  23.829  13.361  11.806
81407W        W53832  38.852  29.131   1.300
81408W        W53833  13.176   6.847  11.437
81409W        W53834  25.094  31.873   3.204
81410W        W53835  17.537  16.562   0.937
81411W        W53836  33.098  40.462  13.343
81412W        W53837  40.502  21.806  11.372
81413W        W53838  41.374  33.070  13.499
81414W        W53839  12.433   6.178  10.601
81415W        W53840   0.315   0.582  13.982
81416W        W53841  33.565  38.975   1.426
81417W        W53842  24.880   2.454   2.459
81418W        W53843  15.877   9.146   1.318
81419W        W53844  39.900  16.574  14.791
81420W        W53845  23.281  16.141   3.519
81421W        W53846  31.049  20.492   2.445
81422W        W53847  21.950  21.631   2.336
81423W        W53848   0.381   6.033   1.458
81424W        W53849  28.531  33.135   9.834
81425W        W53850  14.531   6.115   4.216
81426W        W53851  32.977   1.952  12.517
81427W        W53852  37.899   3.204   2.434
81428W        W53853   4.447  23.936  12.113
81429W        W53854  36.877  42.146  14.464
81430W        W53855  21.443  11.910   4.919
81431W        W53856  34.096  10.443  12.550
81432W        W53857  35.026  24.687   3.663
81433W        W53858  16.765  33.044  13.285
81434W        W53859  13.323  27.193   3.193
81435W        W53860  19.550  11.411   0.700
81436W        W53861   0.765  17.634   4.206
81437W        W53862  28.472   6.868   1.775
81438W        W53863  26.139  25.967  13.401
81439W        W53864   2.227  21.558   2.688
81440W        W53865  41.813  17.781  12.812
81441W        W53866  38.892  25.727   1.201
81442W        W53867  30.606  10.574   3.729
81443W        W53868  12.840   9.755   1.902
81444W        W53869   9.190  10.211  13.032
81445W        W53870   7.300  11.198   1.667
81446W        W53871  36.577   8.641  14.388
81447W        W53872  11.080   2.689   2.771
81448W        W53873  32.147  31.903  10.624
81449W        W53874  14.679  10.907  14.042
81450W        W53875   6.642  17.028   3.355
81451W        W53876   8.561  34.093   3.051
81452W        W53877   2.615  11.774  14.767
81453W        W53878  19.199   8.534  14.180
81454W        W53879  33.254  31.440   2.348
81455W        W53880  32.998  17.806   3.382
81456W        W53881  29.675  16.470  13.090
81457W        W53882  26.149  33.208  14.381
81458W        W53883   5.988  16.055  12.482
81459W        W53884  43.465  30.914   3.816
81460W        W53885   7.170  22.709   2.094
81461W        W53886  11.756  20.765  14.940
81462W        W53887  18.231  32.133  10.821
81463W        W53888  12.672  21.603   4.544
81464W        W53889  41.235   6.389  12.100
81465W        W53890  24.647  16.171  13.248
81466W        W53891  20.146  40.619   1.454
81467W        W53892  26.296   5.247  11.172
81468W        W53893  18.770  36.094   2.319
81469W        W53894  13.167  24.435  13.363
81470W        W53895  37.075  28.986  14.272
81471W        W53896  18.246  39.006  12.849
81472W        W53897   8.793  42.729   2.384
81473W        W53898   2.520  44.807   0.207
81474W        W53899  42.212  19.106   2.731
81475W        W53900   6.930   6.925  10.677
81476W        W53901  12.854   2.975  14.330
81477W        W53902   1.151   0.742  13.822
81478W        W53903  24.233  19.205   1.848
81479W        W53904  36.514  29.289   4.191
81480W        W53905  34.406  41.149  12.808
81481W        W53906   3.924  27.920   1.754
81482W        W53907   7.266  38.986  12.969
81483W        W53908   9.848  24.288  14.279
81484W        W53909   0.676  14.007   5.083
81485W        W53910   1.855  15.318   4.295
81486W        W53911  44.834  37.125   1.369
81487W        W53912  24.795  42.794  12.532
81488W        W53913   7.932  33.120   4.230
81489W        W53914  35.944  27.677  12.048
81490W        W53915  31.972   7.825  10.860
81491W        W53916  35.402   5.240  11.815
81492W        W53917  28.198   4.285   1.359
81493W        W53918  39.115  18.799   0.542
81494W        W53919  32.596  20.511   4.910
81495W        W53920  36.316   0.444  11.264
81496W        W53921  11.766  13.185   0.990
81497W        W53922  10.101  34.413   0.377
81498W        W53923  23.017   7.255  11.716
81499W        W53924   4.950  26.351   5.015
81500W        W53925  39.398  10.641   3.139
81501W        W53926  44.928  43.741   1.795
81502W        W53927  31.867  38.931  11.000
81503W        W53928  36.641  35.038   0.452
81504W        W53929   4.263   4.968  11.205
81505W        W53930  32.629  13.018   3.061
81506W        W53931  17.908  36.410  14.586
81507W        W53932  33.081  16.965  10.303
81508W        W53933  16.869  44.912  12.532
81509W        W53934  44.873  18.842   3.774
81510W        W53935  16.567  14.141  11.250
81511W        W53936  22.539  29.129   0.261
81512W        W53937  20.521  17.305  13.970
81513W        W53938  44.360  36.063  10.865
81514W        W53939  33.761  38.091  11.112
81515W        W53940   4.265  29.005  13.123
81516W        W53941  26.961  18.468  10.919
81517W        W53942  13.235  17.350   0.395
81518W        W53943   0.832   7.638  12.594
81519W        W53944  14.724   9.910   2.654
81520W        W53945  31.993  41.855  14.374
81521W        W53946   3.077  36.459   3.738
81522W        W53947  37.112  37.409  10.453
81523W        W53948  18.193  39.780  13.519
81524W        W53949  21.697  10.321  14.366
81525W        W53950   3.813  39.279  10.674
81526W        W53951  32.999  10.350  12.874
81527W        W53952  36.831  25.215  10.580
81528W        W53953  19.520  26.060  14.638
81529W        W53954  44.497  12.305  13.469
81530W        W53955  22.179   7.399  10.649
81531W        W53956   6.415   5.727   0.592
81532W        W53957  20.634  18.721  14.540
81533W        W53958  22.995   7.206  12.230
81534W        W53959  12.060  24.341  10.484
81535W        W53960  38.956  13.403   1.202
81536W        W53961   0.762  10.732   1.415
81537W        W53962  31.566  14.249  13.433
81538W        W53963  28.560  43.215   1.553
81539W        W53964  28.027  28.432  14.825
81540W        W53965  18.154   9.351   3.680
81541W        W53966   3.793  30.492   2.498
81542W        W53967  22.538  24.099  13.877
81543W        W53968   1.276  21.908  12.217
81544W        W53969  20.346   5.115   1.765
81545W        W53970   3.122  26.020   2.799
81546W        W53971  33.882  23.202  11.343
81547W        W53972   4.526  24.588   1.891
81548W        W53973  37.505  44.395   9.978
81549W        W53974  30.175   4.838  12.514
81550W        W53975  23.173  12.612   2.272
81551W        W53976   3.822   2.743   3.342
81552W        W53977   5.623  42.568  12.514
81553W        W53978  30.897   7.204  10.125
81554W        W53979  34.873  35.909   5.162
81555W        W53980  41.880  20.621   2.144
81556W        W53981  15.345  28.414   3.629
81557W        W53982  14.034  15.329  11.843
81558W        W53983  39.494  36.530   0.773
81559W        W53984  14.761   1.809  13.782
81560W        W53985   2.070   3.007  11.837
81561W        W53986  32.726   0.214  11.149
81562W        W53987   5.816  17.309   1.278
81563W        W53988  30.584  30.534   2.362
81564W        W53989  26.893  41.225  12.980
81565W        W53990  43.955  13.612  10.792
81566W        W53991   4.414  27.058   4.619
81567W        W53992   5.390  33.370  11.459
81568W        W53993  43.205  16.027   4.692
81569W        W53994  16.879  15.369  12.407
81570W        W53995  34.014  27.132  13.498
81571W        W53996  38.550   2.801   2.867
81572W        W53997   4.540  28.502  14.231
81573W        W53998   8.157  39.901  14.351
81574W        W53999  19.723   5.580  11.095
81575W        W54000   3.128  38.514  12.865
81576W        W54001  27.257  21.270  11.995
81577W        W54002  28.411  20.158   3.728
81578W        W54003  19.670  15.388   3.931
81579W        W54004  41.460  17.569  14.909
81580W        W54005  37.912   8.846  13.687
81581W        W54006  17.777  13.738   1.368
81582W        W54007  34.824  25.751  14.985
81583W        W54008   6.574  11.080  13.973
81584W        W54009   1.218  24.221  13.302
81585W        W54010  18.225  27.676   1.875
81586W        W54011  36.180   3.665  14.923
81587W        W54012  29.625  44.300   4.621
81588W        W54013  13.168   5.961   0.714
81589W        W54014  42.844  23.219  13.125
81590W        W54015   8.802  40.314  10.462
81591W        W54016  29.621  27.668   2.824
81592W        W54017  34.993   0.375  10.057
81593W        W54018  15.712  27.726   2.823
81594W        W54019  31.518  21.737   2.643
81595W        W54020   7.816  35.497  14.889
81596W        W54021  23.484  35.373   3.204
81597W        W54022  35.334  34.582   3.180
81598W        W54023  15.454   1.254   3.354
81599W        W54024  30.859  34.113  13.293
81600W        W54025  39.608   3.300  13.789
81601W        W54026   3.869   8.237   0.246
81602W        W54027  18.833  25.163  10.295
81603W        W54028  36.146  39.051  12.668
81604W        W54029  30.080  27.083   1.569
81605W        W54030  20.152  39.611  12.407
81606W        W54031  34.011  41.840   2.170
81607W        W54032  44.736   6.844   0.846
81608W        W54033  13.727   1.806   0.221
81609W        W54034  38.414  15.183   2.418
81610W        W54035  22.975  31.053   1.970
81611W        W54036  29.630  22.746  12.444
81612W        W54037  24.933   0.775  14.370
81613W        W54038  15.827  38.957  12.931
81614W        W54039   1.991  40.250  10.681
81615W        W54040  13.474  14.682  13.812
81616W        W54041   2.267  44.283  13.741
81617W        W54042   3.133  31.874   5.007
81618W        W54043  24.830  40.341   3.643
81619W        W54044  25.448  21.663   3.744
81620W        W54045  22.509   6.828  10.235
81621W        W54046   8.269  42.998   2.306
81622W        W54047  21.336  24.724  13.404
81623W        W54048  12.296  29.514  13.063
81624W        W54049  13.703  17.699   2.758
81625W        W54050  44.915  30.594  11.156
81626W        W54051  26.907  14.675   1.343
81627W        W54052  20.689   9.217   2.343
81628W        W54053  43.281  23.922   0.925
81629W        W54054  28.447  19.494   0.327
81630W        W54055   4.332  30.539  11.988
81631W        W54056  30.127  44.646   3.909
81632W        W54057  42.816   2.558  13.418
81633W        W54058  32.594  40.622  12.788
81634W        W54059  17.819   3.498  14.848
81635W        W54060  22.267  40.885   0.871
81636W        W54061  26.949   3.583   4.876
81637W        W54062   9.841  11.727   2.774
81638W        W54063  20.601  35.629  11.079
81639W        W54064   5.091   4.437  14.281
81640W        W54065  38.462  33.073  12.450
81641W        W54066   2.275   7.160   5.102
81642W        W54067  32.853  20.186   1.169
81643W        W54068   7.125   2.329  14.309
81644W        W54069  14.295  31.396  14.026
81645W        W54070  31.391  20.058  12.287
81646W        W54071  35.231  34.228  10.230
81647W        W54072  28.741  13.408   1.759
81648W        W54073  16.526   0.918  14.921
81649W        W54074  14.645  10.688  10.697
81650W        W54075  20.805   7.883   0.455
81651W        W54076  16.741  30.652  11.859
81652W        W54077  27.599   4.726   1.832
81653W        W54078  33.896  30.497  13.522
81654W        W54079  10.350  10.674  10.745
81655W        W54080   9.002  24.411  12.999
81656W        W54081   1.237   5.826   2.753
81657W        W54082  10.095  15.294  11.163
81658W        W54083  24.867  22.100   9.964
81659W        W54084  42.382   9.881   1.449
81660W        W54085  20.298  14.759   1.204
81661W        W54086  16.647   7.314  10.969
81662W        W54087  21.083  31.029  10.406
81663W        W54088   9.546  26.978   1.189
81664W        W54089  23.133  33.396   1.417
81665W        W54090  33.544  40.943  12.077
81666W        W54091  19.247  13.550  13.402
81667W        W54092  13.062  44.508   1.968
81668W        W54093  44.482  34.094  12.333
81669W        W54094  34.530  15.139   2.768
81670W        W54095  31.400   6.003  13.062
81671W        W54096  17.010  14.108  10.513
81672W        W54097   6.445   3.448  11.604
81673W        W54098  13.828  17.527  12.881
81674W        W54099  19.378  23.547   1.924
81675W        W54100  24.569  22.589  14.072
81676W        W54101  29.888  24.218   2.184
81677W        W54102   9.828  18.222  14.709
81678W        W54103  21.969  19.604   3.702
81679W        W54104  32.444   5.249   0.026
81680W        W54105  10.697  15.105  13.347
81681W        W54106  42.969  30.440   3.734
81682W        W54107   2.630  14.293   3.983
81683W        W54108   6.414  22.585  14.407
81684W        W54109  10.932  39.040   3.642
81685W        W54110   9.615  21.833  12.647
81686W        W54111  25.428   8.626  13.371
81687W        W54112  19.760   9.792   1.109
81688W        W54113  10.176  39.143   5.084
81689W        W54114  28.507  15.903   0.389
81690W        W54115  28.137  41.749   4.978
81691W        W54116   4.362  33.246   4.897
81692W        W54117   6.614  20.006  12.513
81693W        W54118  31.720   4.455   3.251
81694W        W54119  24.270  32.091  14.413
81695W        W54120  26.085  15.690  12.062
81696W        W54121  21.305   5.363   2.898
81697W        W54122  39.496  16.848   2.288
81698W        W54123   4.323  27.844  13.429
81699W        W54124  10.903  37.018   0.475
81700W        W54125  29.591  38.078   0.882
81701W        W54126  37.993  21.981   0.426
81702W        W54127  40.193   0.984  14.965
81703W        W54128   9.747   3.631   2.657
81704W        W54129  11.225  38.778  13.117
81705W        W54130  12.859   1.451  10.908
81706W        W54131   5.986  14.237  12.900
81707W        W54132   3.792  15.152   1.204
81708W        W54133  22.312   5.722  14.744
81709W        W54134  43.862  11.352   2.164
81710W        W54135  12.096  18.817   2.769
81711W        W54136   8.401  14.077   4.166
81712W        W54137  28.081  40.766   2.968
81713W        W54138  44.829  15.122  11.501
81714W        W54139  23.650  44.162   3.668
81715W        W54140   8.745  23.871   0.087
81716W        W54141   4.760   1.090   4.508
81717W        W54142   1.329  36.457   2.735
81718W        W54143  36.062   4.571  13.965
81719W        W54144  36.482  22.078  14.768
81720W        W54145  42.003  28.844  13.182
81721W        W54146  28.211  21.340  13.088
81722W        W54147  30.489  44.499   4.219
81723W        W54148  11.067   1.439  14.938
81724W        W54149   7.467  30.657   5.235
81725W        W54150  42.726  42.626  11.177
81726W        W54151  13.997   9.271   4.813
81727W        W54152  41.019   3.289   3.553
81728W        W54153  15.521  10.295   2.284
81729W        W54154  26.667  43.411  10.568
81730W        W54155   2.150  25.797  14.792
81731W        W54156  32.585  29.541  10.592
81732W        W54157   6.673  44.070   3.135
81733W        W54158  43.815  28.639   1.483
81734W        W54159  38.226   0.885  13.514
81735W        W54160  13.143   0.824  11.653
81736W        W54161  40.976  17.442  11.076
81737W        W54162  42.023  34.005  10.632
81738W        W54163  39.831  32.896  14.828
81739W        W54164   2.905  22.996   3.748
81740W        W54165  23.636   8.999   0.166
81741W        W54166  16.111  38.952  14.350
81742W        W54167  24.112  37.312   0.286
81743W        W54168   3.514   6.952   1.388
81744W        W54169  11.791  20.617   3.336
81745W        W54170  38.663  31.082  13.901
81746W        W54171  40.494  34.956   0.657
81747W        W54172  31.992   3.352  14.340
81748W        W54173  11.808   1.863  14.564
81749W        W54174  13.908   8.822   2.514
81750W        W54175  39.249  15.336  13.343
81751W        W54176  43.532  40.400   2.330
81752W        W54177   5.946  36.375   0.761
81753W        W54178   1.054  34.109  11.240
81754W        W54179   2.949  42.700  13.147
81755W        W54180  18.316  11.995   1.956
81756W        W54181  42.283  11.742  14.956
81757W        W54182   3.319  26.265   0.528
81758W        W54183  33.451   7.918  12.908
81759W        W54184  41.407  31.954   4.673
81760W        W54185  32.649  42.183  11.180
81761W        W54186  23.378   2.055   4.152
81762W        W54187   5.906  13.414   3.392
81763W        W54188  16.962  40.943  13.928
81764W        W54189  20.730   1.184  10.682
81765W        W54190  23.097  17.525  10.651
81766W        W54191  11.962  42.820  12.510
81767W        W54192  32.468  17.499   4.530
81768W        W54193  12.632   4.484  11.163
81769W        W54194   8.248  34.533   0.724
81770W        W54195   7.831  11.678   3.427
81771W        W54196   3.200  24.158  10.853
81772W        W54197  41.347  15.076   1.465
81773W        W54198   7.347  37.291  10.358
81774W        W54199  10.133  24.347  13.603
81775W        W54200   9.761  22.859  12.837
81776W        W54201  34.436  41.493   3.322
81777W        W54202  27.711  14.269  13.327
81778W        W54203  25.375  17.271   2.374
81779W        W54204  26.418   6.308   5.014
81780W        W54205  23.145  26.692  12.585
81781W        W54206   2.411  42.640  12.357
81782W        W54207  30.820  40.243  11.192
81783W        W54208   9.369   7.197   4.104
81784W        W54209  24.217   9.395  12.885
81785W        W54210   2.203  15.043   5.095
81786W        W54211  26.385   6.190  12.198
81787W        W54212  28.707  17.636  12.992
81788W        W54213   9.828   4.485  10.950
81789W        W54214  23.574  19.566   4.518
81790W        W54215  22.087  35.006  11.572
81791W        W54216  40.373  42.407   3.503
81792W        W54217  15.215  42.314  10.551
81793W        W54218  39.817  29.083   1.192
81794W        W54219  14.121   4.928   1.163
81795W        W54220  26.938  20.809  13.505
81796W        W54221   4.015  27.075  13.786
81797W        W54222   7.767  22.354  12.435
81798W        W54223   2.636   0.936  13.920
81799W        W54224   8.196   5.848   2.985
81800W        W54225  41.438  42.646  14.958
81801W        W54226  16.188  24.050   3.875
81802W        W54227  37.573  22.815   5.115
81803W        W54228  26.432  13.828  11.542
81804W        W54229  25.620   8.831  13.936
81805W        W54230  13.338   8.337  12.562
81806W        W54231  11.210  17.636   0.048
81807W        W54232  42.332  25.110   2.330
81808W        W54233  40.453  15.046   1.273
81809W        W54234  32.565  39.381   0.811
81810W        W54235  40.814  12.602   4.365
81811W        W54236  40.994  36.863   3.620
81812W        W54237  21.073   6.622  13.790
81813W        W54238  10.233  19.489   1.829
81814W        W54239  19.681  19.157   3.551
81815W        W54240  27.791  27.880  14.017
81816W        W54241  33.055   7.957  13.556
81817W        W54242  44.960  34.520   0.769
81818W        W54243   1.436   0.228  12.323
81819W        W54244  14.331  36.883  10.712
81820W        W54245   1.918   2.402   0.936
81821W        W54246  30.161  39.833  12.110
81822W        W54247  20.119  22.988  12.906
81823W        W54248  35.913  23.977   2.208
81824W        W54249  26.050  43.050  14.274
81825W        W54250  29.947  26.864  13.049
81826W        W54251  15.336  44.076  13.425
81827W        W54252  17.571  23.087  11.208
81828W        W54253  15.736  34.158   1.277
81829W        W54254  30.432   2.166  10.664
81830W        W54255  19.283  13.291   4.355
81831W        W54256  23.288   8.601   0.350
81832W        W54257  39.702  38.706  11.404
81833W        W54258  30.034  36.535  12.047
81834W        W54259  43.879  35.384  14.084
81835W        W54260  43.042  29.590   2.387
81836W        W54261  22.559  41.814   2.911
81837W        W54262  16.569  36.477   4.754
81838W        W54263  15.181  27.648  11.490
81839W        W54264  17.289   4.530  14.219
81840W        W54265  39.614   1.151  11.627
81841W        W54266  43.547  17.891   4.043
81842W        W54267   8.109  34.361  11.982
81843W        W54268  33.417  39.070  12.408
81844W        W54269  39.134  14.698   1.449
81845W        W54270  19.903  14.469   0.947
81846W        W54271  24.729  13.662  11.111
81847W        W54272  36.591   6.237   3.245
81848W        W54273   1.584   0.348   0.599
81849W        W54274  34.026  30.578   4.910
81850W        W54275  38.361  23.550   3.897
81851W        W54276  41.740  13.276   4.011
81852W        W54277  25.597   0.164  10.602
81853W        W54278  25.417   3.311  13.458
81854W        W54279  37.856  22.261  14.988
81855W        W54280  40.974   0.386  13.917
81856W        W54281  31.003   1.733  13.145
81857W        W54282  26.941   9.911   0.301
81858W        W54283  28.443  30.859  13.519
81859W        W54284  17.273  17.019  11.432
81860W        W54285  38.742   4.416  10.209
81861W        W54286  38.398  35.347  13.906
81862W        W54287  37.130  29.019   4.627
81863W        W54288  30.420  32.450   4.461
81864W        W54289  23.191  24.730   4.088
81865W        W54290   1.257   5.893  11.079
81866W        W54291  34.353  14.576  13.826
81867W        W54292  28.354  44.713   1.175
81868W        W54293  36.405  34.639   3.338
81869W        W54294   2.372   9.125   1.888
81870W        W54295  35.587   8.895   2.250
81871W        W54296  26.113   7.858   1.883
81872W        W54297   9.724  19.238   0.304
81873W        W54298  18.392  42.834  11.522
81874W        W54299  26.962  10.670   3.029
81875W        W54300  36.980  13.798  10.648
81876W        W54301  29.609   8.744   2.434
81877W        W54302   2.233  10.858   4.483
81878W        W54303  37.827   9.251   2.721
81879W        W54304  19.766  29.101   2.735
81880W        W54305  11.389  36.186   2.216
81881W        W54306  13.612  32.922  14.814
81882W        W54307  16.597  10.105  11.443
81883W        W54308   1.810   4.023   0.651
81884W        W54309  14.114  37.439  12.860
81885W        W54310  37.476  14.723  13.442
81886W        W54311   3.527  17.843  11.573
81887W        W54312  28.557  11.849   4.583
81888W        W54313  32.043  25.349  12.485
81889W        W54314  38.439   1.126   2.732
81890W        W54315   3.886   8.206  10.577
81891W        W54316  35.885  31.663  13.383
81892W        W54317  22.929   9.801  14.016
81893W        W54318  36.578  21.646  11.594
81894W        W54319   7.184  27.530   1.262
81895W        W54320  15.141  34.008   0.389
81896W        W54321  10.619  17.652  11.052
81897W        W54322  34.971  15.876   4.498
81898W        W54323  29.545   6.441  11.052
81899W        W54324  31.675   0.393  10.713
81900W        W54325   9.775  22.264   0.817
81901W        W54326  43.885  22.615   3.691
81902W        W54327  35.105  22.091   0.876
81903W        W54328  12.210   7.011  13.982
81904W        W54329  20.105  16.267   2.478
81905W        W54330  35.332  15.801   0.383
81906W        W54331  42.004  27.918  13.104
81907W        W54332   6.112  10.839   2.203
81908W        W54333   9.696  38.963   0.255
81909W        W54334  38.135  30.471   2.885
81910W        W54335  43.472  41.509  14.286
81911W        W54336  22.019   1.224   3.234
81912W        W54337  18.076   1.244  11.237
81913W        W54338  21.539  42.260  13.851
81914W        W54339  27.475  39.455  11.936
81915W        W54340   5.201  24.479  11.770
81916W        W54341  42.019  23.191   3.965
81917W        W54342  36.969  43.039   3.721
81918W        W54343   6.184   7.131   0.286
81919W        W54344  30.925   0.891  13.432
81920W        W54345  18.814  18.585   1.284
81921W        W54346  25.891   0.247  13.962
81922W        W54347  10.696  17.125  10.279
81923W        W54348  26.493   4.758  11.021
81924W        W54349  12.428  36.000  14.044
81925W        W54350  20.571  30.507   0.843
81926W        W54351  20.580  42.170   0.694
81927W        W54352  41.559   5.157   0.727
81928W        W54353  30.538  10.032  10.756
81929W        W54354  19.219  33.138   0.196
81930W        W54355  27.481  31.143  12.542
81931W        W54356  36.574   6.211  12.406
81932W        W54357  27.119  40.242   4.086
81933W        W54358   0.710  40.161   3.743
81934W        W54359   7.674  41.855   3.997
81935W        W54360  39.435  15.360   2.159
81936W        W54361  33.544   5.819   4.447
81937W        W54362  26.084  30.148   0.028
81938W        W54363  44.775  19.235  13.483
81939W        W54364   8.728  16.095   4.696
81940W        W54365   7.356   5.167  13.533
81941W        W54366  17.630  22.568  12.966
81942W        W54367  35.924  25.225   1.668
81943W        W54368  33.336  35.421  12.563
81944W        W54369  17.646  13.684   4.326
81945W        W54370  40.258  12.722   0.414
81946W        W54371  26.601   1.606   2.772
81947W        W54372  38.559  27.521   0.728
81948W        W54373  22.982  39.622   3.406
81949W        W54374  34.504  17.346  14.782
81950W        W54375  35.634   4.860  13.955
81951W        W54376  23.324   4.154  11.471
81952W        W54377  26.464   6.851  10.764
81953W        W54378  23.641  12.064  11.775
81954W        W54379  36.484  34.184   1.057
81955W        W54380  10.720   9.879  11.663
81956W        W54381  12.692  28.711   3.220
81957W        W54382  41.405  35.074  14.501
81958W        W54383   7.688   2.881  14.803
81959W        W54384  24.932  23.959  11.708
81960W        W54385  35.287   0.152   0.415
81961W        W54386   4.271  15.271  13.371
81962W        W54387  32.568  22.688  11.179
81963W        W54388  10.664  44.318   3.149
81964W        W54389  20.119  38.913  12.593
81965W        W54390  19.290  17.379  14.415
81966W        W54391  37.380  28.529  11.854
81967W        W54392   2.994   4.815   4.502
81968W        W54393  23.794  18.179   2.626
81969W        W54394  33.371  41.068   0.422
81970W        W54395  11.918   7.744   4.094
81971W        W54396  16.114  24.680   3.291
81972W        W54397  36.961  15.072  10.939
81973W        W54398  24.378  26.598   0.109
81974W        W54399  30.792   1.888   1.277
81975W        W54400  34.435   4.921   2.789
81976W        W54401  26.732  32.163  11.039
81977W        W54402  12.185  29.528   2.658
81978W        W54403  43.870  28.139   0.431
81979W        W54404  32.561   4.351  11.561
81980W        W54405  28.876  27.701   1.257
81981W        W54406   1.914   1.316  14.856
81982W        W54407  29.551  24.563   4.253
81983W        W54408  30.332   3.386  10.048
81984W        W54409  22.760  29.501   3.298
81985W        W54410   8.155   9.156  12.011
81986W        W54411  35.277  15.295  14.668
81987W        W54412  33.429  39.386   3.740
81988W        W54413   3.367  21.215  11.488
81989W        W54414  39.952   4.975  12.483
81990W        W54415  38.558  37.093  10.532
81991W        W54416  17.533  19.105  12.856
81992W        W54417  15.615  28.763   3.887
81993W        W54418  44.339  30.921   3.639
81994W        W54419   6.936  44.267  13.810
81995W        W54420  44.268  28.132  13.312
81996W        W54421  22.959  17.204   1.077
81997W        W54422  15.571  27.004  11.450
81998W        W54423  19.007  39.823   3.676
81999W        W54424   9.865  35.384   1.804
82000W        W54425  43.750  31.324  13.368
82001W        W54426  22.979  37.295  14.330
82002W        W54427   1.977  14.100  10.771
82003W        W54428   3.413  21.710  13.243
82004W        W54429  20.675   4.284   0.498
82005W        W54430  28.464   1.974  13.326
82006W        W54431  25.702   3.440  11.969
82007W        W54432   1.229   2.729  10.674
82008W        W54433  26.491  23.204   0.508
82009W        W54434   7.984  30.570   3.409
82010W        W54435  29.727  44.001  12.283
82011W        W54436   2.813   6.772  14.957
82012W        W54437   4.957   3.658  12.006
82013W        W54438   9.361   6.000   4.607
82014W        W54439  25.700  28.550   4.861
82015W        W54440   3.227  22.275  14.741
82016W        W54441  40.880  14.739  13.345
82017W        W54442   8.429  29.004  11.964
82018W        W54443  17.795  30.498  12.557
82019W        W54444   8.444   7.195  11.121
82020W        W54445  39.416   2.808  13.829
82021W        W54446  17.109  11.309   1.286
82022W        W54447  41.398  10.290   4.247
82023W        W54448  12.455  41.520  13.768
82024W        W54449  35.323  29.585   4.743
82025W        W54450   2.741  38.420   3.802
82026W        W54451   2.525  30.871   0.797
82027W        W54452  16.152  27.602  13.576
82028W        W54453   5.747   8.906  14.444
82029W        W54454  43.416  13.755  12.881
82030W        W54455   9.727  30.509  13.304
82031W        W54456  39.401   0.426   3.798
82032W        W54457   1.197   4.735  11.054
82033W        W54458  39.216  27.829   1.512
82034W        W54459  29.845  35.318   2.665
82035W        W54460  39.848  11.695  13.503
82036W        W54461  13.709  31.170  11.571
82037W        W54462   0.932  14.790   0.477
82038W        W54463  39.979  39.289  13.604
82039W        W54464  12.760   2.188   1.888
82040W        W54465   1.262   4.932   4.889
82041W        W54466  33.059  28.148   3.252
82042W        W54467  36.986  12.667   0.464
82043W        W54468  44.774  28.639  13.986
82044W        W54469   2.705  17.484   2.456
82045W        W54470  43.032  22.539  14.891
82046W        W54471   3.267  17.062   3.282
82047W        W54472  33.026  41.787   3.397
82048W        W54473  15.620   8.555  10.239
82049W        W54474   1.825   3.538  14.472
82050W        W54475  40.413   3.202   0.372
82051W        W54476  30.024   0.928  11.892
82052W        W54477  24.253  14.334  10.887
82053W        W54478  31.559   2.230   3.380
82054W        W54479  27.169   4.364   2.731
82055W        W54480  16.325  22.699   3.672
82056W        W54481  20.935  12.914   0.455
82057W        W54482  38.538  22.675  13.921
82058W        W54483  33.951  33.844  13.022
82059W        W54484  23.669  41.839  11.049
82060W        W54485  23.671  38.950  13.834
82061W        W54486   9.868  44.411  12.712
82062W        W54487  39.037  41.317  11.641
82063W        W54488  28.955  31.923   1.887
82064W        W54489  26.508  10.429  13.844
82065W        W54490   9.742  39.801   3.798
82066W        W54491   6.874  31.792  14.454
82067W        W54492  28.679  24.577  12.029
82068W        W54493   2.934  17.082  13.989
82069W        W54494  17.343   3.313   0.932
82070W        W54495   6.793  16.541   0.706
82071W        W54496   3.068   7.191   1.265
82072W        W54497   2.576  15.611   2.320
82073W        W54498  31.423  27.465  11.828
82074W        W54499  33.587  22.022   4.528
82075W        W54500  15.302  25.705   0.859
82076W        W54501  38.107  21.714  13.398
82077W        W54502  26.443  35.314   3.426
82078W        W54503  33.967  44.428  12.165
82079W        W54504  40.331  11.753   2.750
82080W        W54505  28.366  22.693  10.688
82081W        W54506  11.619  26.017   1.091
82082W        W54507  34.868  16.909  13.840
82083W        W54508   1.926  22.015  10.693
82084W        W54509  19.524   7.703   3.711
82085W        W54510  13.827  17.671  14.276
82086W        W54511   0.453  24.214  12.600
82087W        W54512   5.077   3.925  12.428
82088W        W54513   0.189  14.178   5.189
82089W        W54514  13.830  21.978  13.574
82090W        W54515  32.493  44.534  13.112
82091W        W54516  16.723  15.878  10.644
82092W        W54517  35.101   9.010   1.260
82093W        W54518   8.833   4.910   0.285
82094W        W54519   0.334  11.773   4.151
82095W        W54520  14.810  30.581  12.636
82096W        W54521  19.388   9.397   4.176
82097W        W54522  37.862  26.133   2.244
82098W        W54523  36.375   9.928  11.627
82099W        W54524  11.872   6.277  13.661
82100W        W54525  14.853  43.046  12.238
82101W        W54526  11.141  34.384   0.713
82102W        W54527  18.153  13.559   2.875
82103W        W54528  33.677  33.541   1.772
82104W        W54529  30.240  34.354  12.481
82105W        W54530  16.020  22.101  14.892
82106W        W54531  16.813  40.077   4.095
82107W        W54532   0.696   2.795  11.483
82108W        W54533  25.501   7.241  12.459
82109W        W54534  23.080  31.861   2.242
82110W        W54535  44.831  35.897  13.434
82111W        W54536  25.924  30.615   0.321
82112W        W54537   6.238  20.824  14.070
82113W        W54538  29.490  32.320  10.084
82114W        W54539  44.435  27.764   5.026
82115W        W54540  43.114   2.787   3.151
82116W        W54541  29.344  42.710  13.251
82117W        W54542  23.950  12.465  12.480
82118W        W54543   4.439  43.020  12.974
82119W        W54544   6.199   7.341  11.086
82120W        W54545  22.691   1.961  11.672
82121W        W54546  17.525  40.846   2.450
82122W        W54547  37.421  11.533   2.711
82123W        W54548  21.143  44.788  12.856
82124W        W54549  31.917  41.552   2.857
82125W        W54550   6.859  32.645  12.018
82126W        W54551  29.107  12.365  10.338
82127W        W54552   6.891  44.240  12.839
82128W        W54553  35.202   1.615   1.783
82129W        W54554  28.588  18.682   2.693
82130W        W54555  13.376  44.964   1.182
82131W        W54556  38.083  30.508   2.346
82132W        W54557  41.004  20.911   1.246
82133W        W54558  10.838  21.710   3.262
82134W        W54559   8.437   0.212   0.344
82135W        W54560  11.193   2.460  14.933
82136W        W54561  35.137  31.085  13.391
82137W        W54562  22.618  28.768  13.643
82138W        W54563   0.728  35.439  14.873
82139W        W54564   9.405  21.946  11.169
82140W        W54565   0.959  26.699  10.658
82141W        W54566  33.485  16.416   0.257
82142W        W54567  30.596   7.416  11.944
82143W        W54568  40.198  33.561  12.578
82144W        W54569  20.223  26.395  14.156
82145W        W54570   4.954  10.125   3.232
82146W        W54571  15.334   0.341   1.924
82147W        W54572  28.694  32.452  11.649
82148W        W54573  21.100  15.119   1.269
82149W        W54574  23.326  26.142   4.188
82150W        W54575  36.017  24.021  13.408
82151W        W54576  26.751  39.890  10.346
82152W        W54577  14.998   7.113   1.802
82153W        W54578  25.636  18.098   4.658
82154W        W54579  12.998   4.326   2.819
82155W        W54580  26.377   3.894  12.893
82156W        W54581   2.976  42.376   2.810
82157W        W54582   4.813  43.897  14.994
82158W        W54583  34.779   8.741   5.086
82159W        W54584   4.791   4.781  14.581
82160W        W54585  11.623   0.400   4.854
82161W        W54586   8.404  16.316   1.120
82162W        W54587   7.286  14.429   0.873
82163W        W54588  35.871   2.375   4.627
82164W        W54589  20.074   9.772  11.575
82165W        W54590  39.229  38.481   4.795
82166W        W54591  12.177   8.681   2.389
82167W        W54592  21.750  32.551  12.317
82168W        W54593   6.684  41.394   1.212
82169W        W54594  43.402  36.548  13.079
82170W        W54595  42.494  18.276   3.596
82171W        W54596  34.169  39.350   2.814
82172W        W54597  42.072  36.362   3.661
82173W        W54598  26.974  13.245  13.836
82174W        W54599  18.114  27.449  13.086
82175W        W54600  32.682  43.898  10.807
82176W        W54601  17.630  27.001   3.169
82177W        W54602   4.526  23.056  10.734
82178W        W54603  18.708  35.405  14.292
82179W        W54604   9.816   7.105   2.642
82180W        W54605  21.166   7.730  13.155
82181W        W54606  28.939  44.445   1.186
82182W        W54607   0.893  38.653   1.554
82183W        W54608  37.674  34.946   0.242
82184W        W54609  32.639  24.345  14.224
82185W        W54610  41.905   1.778   2.159
82186W        W54611  10.095  37.549   0.317
82187W        W54612  27.948  24.631  14.484
82188W        W54613  35.067  42.314   4.878
82189W        W54614  28.242   1.285  14.481
82190W        W54615   4.770   1.120   5.035
82191W        W54616  15.686  44.516   3.629
82192W        W54617  19.108  36.884   4.249
82193W        W54618  11.228  19.792  12.968
82194W        W54619  24.957  35.162   0.417
82195W        W54620  21.117  42.559   2.310
82196W        W54621   1.916   4.177   2.767
82197W        W54622  40.548  10.462   4.473
82198W        W54623  12.677  25.209   2.923
82199W        W54624  32.456   3.528  14.237
82200W        W54625  40.508  25.060  14.254
82201W        W54626  35.036  32.810  13.906
82202W        W54627  24.972  14.593  12.538
82203W        W54628  14.483  34.973   2.688
82204W        W54629   3.441  31.205   0.771
82205W        W54630  29.960  44.461   5.101
82206W        W54631  25.193  30.045  14.703
82207W        W54632   6.118  19.131   4.816
82208W        W54633   1.940   4.890  11.552
82209W        W54634  40.787   0.436  12.095
82210W        W54635  39.517  16.342  10.783
82211W        W54636  40.958  12.584  13.427
82212W        W54637  34.534  26.993   3.688
82213W        W54638  12.378   0.046   1.325
82214W        W54639  13.690  34.587  13.881
82215W        W54640  44.178   7.822  13.936
82216W        W54641  41.095   7.139  11.728
82217W        W54642  38.240  25.582   5.137
82218W        W54643  16.265  17.337   2.213
82219W        W54644  19.075  26.610  11.028
82220W        W54645  42.930   7.828  14.348
82221W        W54646  33.127   8.433   2.451
82222W        W54647  41.708  41.164  12.344
82223W        W54648  24.998  32.371   3.921
82224W        W54649   6.235  28.229  11.074
82225W        W54650  10.806  29.353   1.173
82226W        W54651  26.156  34.585   0.899
82227W        W54652  17.677   0.923   0.875
82228W        W54653  37.122  15.190   3.747
82229W        W54654  20.141  13.939   2.306
82230W        W54655   2.936  18.476   2.517
82231W        W54656  31.536  38.532   4.291
82232W        W54657  42.428  36.826   2.326
82233W        W54658  40.937  44.814   1.435
82234W        W54659  24.089  34.652   4.585
82235W        W54660  22.486  31.416   3.079
82236W        W54661  10.588  44.029  11.815
82237W        W54662  21.713   9.189  13.396
82238W        W54663  21.634  35.491  10.717
82239W        W54664   3.345  17.845  12.942
82240W        W54665  44.978  11.823  13.730
82241W        W54666  14.342  40.014   4.434
82242W        W54667  16.310   9.538  12.154
82243W        W54668  29.235  27.528   1.977
82244W        W54669  38.257  19.091  10.738
82245W        W54670  18.519  14.309  14.952
82246W        W54671  35.374  31.820   4.135
82247W        W54672  22.692  35.584   4.510
82248W        W54673  33.951  37.989   2.759
82249W        W54674  24.260  42.106  13.582
82250W        W54675  16.122  18.030   3.692
82251W        W54676  38.534   7.930  12.816
82252W        W54677  16.773  42.286   4.800
82253W        W54678  44.803  24.376   2.321
82254W        W54679  35.603  13.088  13.815
82255W        W54680  39.562   5.220   3.130
82256W        W54681  35.583  22.886  11.886
82257W        W54682  12.728  34.905   2.237
82258W        W54683   7.210   2.361  12.162
82259W        W54684   1.454  21.545   3.304
82260W        W54685  17.894  10.656  11.242
82261W        W54686  18.689  12.161   4.723
82262W        W54687  24.718  39.247   1.884
82263W        W54688   1.859  29.659  12.424
82264W        W54689   5.325  20.648  11.920
82265W        W54690  10.812  36.372   1.774
82266W        W54691  31.681   6.300  12.742
82267W        W54692  40.170  39.594  12.388
82268W        W54693  26.919   5.128  13.531
82269W        W54694  21.875  17.159  12.309
82270W        W54695  29.145   3.777  14.725
82271W        W54696  11.864  37.464  14.914
82272W        W54697  35.558  37.906  11.624
82273W        W54698  33.853  11.880   3.183
82274W        W54699  41.801   4.148   1.855
82275W        W54700  31.588  24.927   3.282
82276W        W54701  30.860  19.099  14.910
82277W        W54702   6.239  31.668   4.703
82278W        W54703  18.893  42.701  11.621
82279W        W54704  20.065  36.323   0.269
82280W        W54705  12.742  40.431   4.529
82281W        W54706  42.415   6.027   2.796
82282W        W54707  17.068  11.356   2.227
82283W        W54708   1.475   1.936   3.871
82284W        W54709  20.105  12.409  14.741
82285W        W54710  43.392   4.881  12.614
82286W        W54711  25.732  16.352   0.261
82287W        W54712  10.775  16.894   2.254
82288W        W54713  15.734  26.609  14.625
82289W        W54714  20.511  42.383  11.070
82290W        W54715  18.066  23.677   1.404
82291W        W54716  14.370  21.432   5.559
82292W        W54717  11.753  31.550  12.831
82293W        W54718  26.609   1.695  10.675
82294W        W54719  26.625   7.781   2.067
82295W        W54720   2.356  32.225  11.210
82296W        W54721  25.747  14.680  14.824
82297W        W54722  42.266   5.614   0.995
82298W        W54723  21.710  37.360  13.452
82299W        W54724   6.534  35.590   5.383
82300W        W54725  35.625  36.011   0.426
82301W        W54726  22.209  38.837   4.220
82302W        W54727  19.420  33.470  11.089
82303W        W54728  17.305  18.745   3.295
82304W        W54729  41.372   6.412  11.187
82305W        W54730  22.708  20.242   0.296
82306W        W54731   9.952  33.514   2.717
82307W        W54732  19.826  19.204  12.526
82308W        W54733  25.011  28.320   0.013
82309W        W54734  35.262  25.204   0.719
82310W        W54735  27.108  35.551   0.226
82311W        W54736  31.457  12.335  10.770
82312W        W54737  43.069  17.891  11.508
82313W        W54738  23.971  17.542  13.012
82314W        W54739  15.147  23.277  12.347
82315W        W54740   1.655  16.023   3.664
82316W        W54741   6.637  40.317  11.426
82317W        W54742  42.907  31.390   3.108
82318W        W54743  32.636  35.158   2.225
82319W        W54744   8.482  40.858  11.042
82320W        W54745  40.053  22.634  14.620
82321W        W54746  29.970   6.932   1.750
82322W        W54747  36.367  41.810  10.560
82323W        W54748  26.254  39.666   0.262
82324W        W54749  17.221  33.365  10.563
82325W        W54750  23.717  29.884   3.620
82326W        W54751  31.766   7.168   2.761
82327W        W54752  41.753  38.097  14.859
82328W        W54753  25.479  13.397  11.548
82329W        W54754  38.066  43.848   4.673
82330W        W54755  35.410  13.880   4.891
82331W        W54756  44.293  41.034  11.927
82332W        W54757  13.889  21.470   2.731
82333W        W54758  29.995   7.908   4.679
82334W        W54759  39.120  30.461   2.482
82335W        W54760  30.644  44.521   0.758
82336W        W54761  39.857  31.162   1.666
82337W        W54762   5.139  40.515  14.158
82338W        W54763  10.400   9.459  13.490
82339W        W54764  33.745   1.916  11.997
82340W        W54765   0.780  41.807  11.418
82341W        W54766  41.241  24.142   2.078
82342W        W54767  28.868  29.403   3.606
82343W        W54768   1.281  18.001  11.058
82344W        W54769   4.309  35.481   3.366
82345W        W54770  15.618  21.561  14.437
82346W        W54771  24.943  43.388   2.423
82347W        W54772  13.964   2.709   2.077
82348W        W54773  19.607  35.846  14.602
82349W        W54774  28.194   9.288   2.729
82350W        W54775  26.523  42.547   1.491
82351W        W54776   7.605   2.517   2.381
82352W        W54777  34.839  38.414  11.165
82353W        W54778  14.851  35.066   0.142
82354W        W54779  10.844   4.727  13.720
82355W        W54780  18.143  43.504   0.430
82356W        W54781  11.873  12.892   4.373
82357W        W54782  36.053  41.031   0.029
82358W        W54783  25.960  38.519  12.985
82359W        W54784  25.621  41.794   4.740
82360W        W54785  17.697  44.868  11.864
82361W        W54786  17.282  41.983  13.078
82362W        W54787  34.032  24.454  13.471
82363W        W54788  11.694  43.817   1.883
82364W        W54789   7.245  20.247   0.302
82365W        W54790  22.545  15.248  13.154
82366W        W54791  19.673  29.578  13.715
82367W        W54792  22.482  23.008   4.040
82368W        W54793  37.338  16.158   3.730
82369W        W54794  18.087  29.994  12.105
82370W        W54795  29.467  42.208   3.076
82371W        W54796  11.221   1.000  11.195
82372W        W54797  34.674  43.683   1.705
82373W        W54798  31.129  29.073  13.232
82374W        W54799  18.807  15.782   3.071
82375W        W54800  30.535  40.412  11.587
82376W        W54801   8.089   3.310  14.841
82377W        W54802  42.165  10.217   2.277
82378W        W54803  44.753  43.289   4.168
82379W        W54804  26.461   5.351  14.704
82380W        W54805  17.804  42.271   3.672
82381W        W54806  36.021  33.445   3.720
82382W        W54807  29.699  10.179  12.338
82383W        W54808  12.787  23.333  11.429
82384W        W54809   0.395  32.101  13.781
82385W        W54810  32.988  26.955  11.050
82386W        W54811  12.137   1.887   4.934
82387W        W54812  43.407  18.127  13.975
82388W        W54813  23.083  20.832  14.704
82389W        W54814  17.551   2.512   3.644
82390W        W54815  41.022  11.198   3.714
82391W        W54816  25.644  38.546   4.237
82392W        W54817  42.323  29.719   3.098
82393W        W54818  31.509  40.048   0.610
82394W        W54819  36.422   5.994  13.420
82395W        W54820   3.786  28.474   0.076
82396W        W54821  15.256  38.299   3.939
82397W        W54822  27.386  10.247  14.458
82398W        W54823  29.543  27.992   0.180
82399W        W54824  12.289  43.451  10.663
82400W        W54825  13.509  19.579   1.141
82401W        W54826  38.073  44.253   2.197
82402W        W54827  19.498  43.807   3.988
82403W        W54828  10.953  35.241   3.384
82404W        W54829  15.081  10.108  13.732
82405W        W54830  25.595  41.696  14.888
82406W        W54831   4.762  29.086   2.727
82407W        W54832  22.589   2.960  13.461
82408W        W54833  42.922  38.946  13.101
82409W        W54834   3.229   9.231  14.980
82410W        W54835  30.971  25.976  12.950
82411W        W54836  14.453  22.288   3.614
82412W        W54837   6.817  29.042  14.313
82413W        W54838  12.113  16.724   4.090
82414W        W54839  15.372  44.565  13.588
82415W        W54840  33.980   8.909  13.497
82416W        W54841   3.778  37.520   4.131
82417W        W54842  21.783  36.991  11.540
82418W        W54843   9.927  17.106   3.195
82419W        W54844  44.502  32.916  14.312
82420W        W54845  22.584   0.869   0.686
82421W        W54846   7.045   5.145   0.876
82422W        W54847  39.795  43.927  11.833
82423W        W54848   5.258  14.886   1.562
82424W        W54849  11.141  29.568  13.395
82425W        W54850   9.205  18.507   3.219
82426W        W54851  15.188   6.412   2.181
82427W        W54852   2.974  35.478  12.490
82428W        W54853   6.150  34.168  11.982
82429W        W54854  27.831  17.351  11.692
82430W        W54855  17.675   0.205   4.681
82431W        W54856   1.808  36.325  13.690
82432W        W54857   5.817  15.979   4.560
82433W        W54858  44.687   7.659   4.763
82434W        W54859  30.427   3.363   0.882
82435W        W54860  29.109  38.814   1.186
82436W        W54861  21.034  27.835  13.636
82437W        W54862  21.708  23.491  11.154
82438W        W54863   4.761   3.427  12.423
82439W        W54864  32.082   8.445  13.872
82440W        W54865  11.944  10.290   2.815
82441W        W54866  30.973  27.452  11.541
82442W        W54867  36.634  42.917  13.537
82443W        W54868  43.112   5.192   2.804
82444W        W54869   1.965   1.803   4.589
82445W        W54870  19.298   2.434  12.557
82446W        W54871  18.755  23.674  12.571
82447W        W54872  17.507  39.086   3.051
82448W        W54873   9.444  27.328  12.059
82449W        W54874  38.555   6.912  11.462
82450W        W54875   4.152  41.109  14.413
82451W        W54876  11.693  21.542  12.042
82452W        W54877   8.739  18.036   1.453
82453W        W54878  29.930  43.079   2.794
82454W        W54879  32.942   0.894  10.490
82455W        W54880  42.289  20.219  11.484
82456W        W54881   9.275  24.517   2.157
82457W        W54882   7.305   3.197  13.564
82458W        W54883  39.189  25.940  14.851
82459W        W54884   9.614  15.013  11.511
82460W        W54885  39.562  13.355  14.440
82461W        W54886   4.456   3.128  11.469
82462W        W54887  17.945  12.269   2.493
82463W        W54888  42.945  12.700   2.122
82464W        W54889  32.105  15.874   2.812
82465W        W54890  11.751  17.058  10.646
82466W        W54891  12.167   0.281  11.996
82467W        W54892   0.965  43.257  14.346
82468W        W54893  14.388  32.642  11.137
82469W        W54894  35.430  39.999   3.658
82470W        W54895  14.622  10.779   2.200
82471W        W54896  15.671  34.365   4.010
82472W        W54897  39.770  30.682  12.406
82473W        W54898  41.062  37.407  12.469
82474W        W54899  26.167  25.614   0.880
82475W        W54900  12.815  38.352  13.919
82476W        W54901   6.448  26.561  10.500
82477W        W54902   5.127  21.974  11.884
82478W        W54903  35.430  16.137  12.756
82479W        W54904  35.416  29.483   1.863
82480W        W54905  40.645   1.266  10.771
82481W        W54906  28.622  32.445   0.867
82482W        W54907  25.546  33.302  11.026
82483W        W54908  33.998   6.459  13.336
82484W        W54909   5.617  31.661  14.885
82485W        W54910  22.140  11.633  14.360
82486W        W54911  13.263  27.203   0.641
82487W        W54912  23.071  41.544   4.248
82488W        W54913  33.485  23.461   3.756
82489W        W54914  17.858  24.046  14.358
82490W        W54915  13.344  18.507  13.460
82491W        W54916   7.744  30.967   1.515
82492W        W54917  26.878  43.318  12.480
82493W        W54918  39.724  35.073   2.623
82494W        W54919   1.140   4.117   1.327
82495W        W54920  26.188  36.130   1.329
82496W        W54921  28.417  11.491   4.223
82497W        W54922  44.960  26.363  10.653
82498W        W54923   5.484  19.302   1.731
82499W        W54924  42.384  37.417   1.406
82500W        W54925  27.969   6.161  12.411
82501W        W54926  33.605   9.716  12.924
82502W        W54927  33.175   3.837  10.542
82503W        W54928  35.807   6.881  12.554
82504W        W54929  24.225  37.699  10.671
82505W        W54930  10.804   9.393  11.451
82506W        W54931  40.287  28.570   3.609
82507W        W54932  39.086  35.690   1.200
82508W        W54933   3.270  43.823   3.716
82509W        W54934  23.530   1.455   2.006
82510W        W54935  15.758   7.423  13.584
82511W        W54936   4.214  31.457   4.487
82512W        W54937  15.796   9.953   4.072
82513W        W54938  12.216  29.139   2.273
82514W        W54939  11.891  11.157  10.262
82515W        W54940  29.678  19.970  11.593
82516W        W54941  13.237   7.513   2.445
82517W        W54942   3.172  15.529  11.188
82518W        W54943   1.941  41.603   0.834
82519W        W54944  34.083  17.537   2.826
82520W        W54945  15.170   9.430  14.564
82521W        W54946  35.343   2.909  14.336
82522W        W54947  30.382  14.268   2.743
82523W        W54948  19.855  19.254  13.432
82524W        W54949   5.004  38.034   3.876
82525W        W54950  37.743  40.324  14.850
82526W        W54951  42.869  32.658  12.423
82527W        W54952   2.691  24.414   3.347
82528W        W54953  17.153  15.846  13.359
82529W        W54954  30.064  16.363  11.504
82530W        W54955   8.860  18.058  11.634
82531W        W54956  33.812  22.450  10.681
82532W        W54957  25.609  23.494  12.005
82533W        W54958  13.233  36.653   3.648
82534W        W54959  33.372  15.714   3.457
82535W        W54960   2.403  22.142   0.428
82536W        W54961  42.769  40.330   0.543
82537W        W54962  40.842  18.717  12.844
82538W        W54963  21.115  29.896   2.675
82539W        W54964   1.862  31.579  10.541
82540W        W54965  12.400  14.153   0.371
82541W        W54966   3.876  37.073  11.393
82542W        W54967  31.587   6.824   3.099
82543W        W54968  29.573  31.106  12.152
82544W        W54969   5.846  26.543  13.386
82545W        W54970  14.320  42.293  11.290
82546W        W54971  32.344   4.417   2.026
82547W        W54972  13.128  20.679  10.457
82548W        W54973  31.952  14.563  14.880
82549W        W54974  15.724  25.571   4.130
82550W        W54975   6.227  30.423  13.407
82551W        W54976  25.800  42.572  12.115
82552W        W54977  12.372  36.419   3.196
82553W        W54978   7.377   0.973   4.600
82554W        W54979  33.523   3.787   4.745
82555W        W54980  13.201  20.001   1.131
82556W        W54981   9.470   5.258  13.437
82557W        W54982  21.684  44.357  13.371
82558W        W54983  24.248  40.538   0.199
82559W        W54984  35.012  23.124  10.986
82560W        W54985  42.232   9.825  13.911
82561W        W54986  36.033  44.003   3.575
82562W        W54987   7.826  26.552   0.308
82563W        W54988  31.254   5.138   2.227
82564W        W54989  19.655   5.923  12.671
82565W        W54990   1.491  34.043  14.083
82566W        W54991   2.385  33.973  11.736
82567W        W54992  20.742  20.523  11.581
82568W        W54993  31.184  22.319   3.267
82569W        W54994  19.540   3.783  10.847
82570W        W54995  13.757  29.089   3.714
82571W        W54996   0.784  33.183   1.071
82572W        W54997  43.701  36.906   3.341
82573W        W54998   7.123   7.171   1.929
82574W        W54999  31.626  25.227   2.426
82575W        W55000  38.515  42.502  14.361
82576W        W55001   7.270  26.894  13.545
82577W        W55002  40.421  22.717  10.435
82578W        W55003   5.228  26.736   4.217
82579W        W55004   7.645  33.353   2.351
82580W        W55005  36.858   0.749   0.192
82581W        W55006  40.416  24.544  13.450
82582W        W55007  11.322  26.932   0.687
82583W        W55008  29.909  38.086  13.919
82584W        W55009   8.386  10.419   2.270
82585W        W55010   3.783  34.439  13.247
82586W        W55011   5.812  20.848  14.966
82587W        W55012   8.165  37.357  12.132
82588W        W55013  44.986  24.657  10.392
82589W        W55014  19.026   0.550  13.406
82590W        W55015   7.181  27.473   0.269
82591W        W55016  24.658  12.801  14.787
82592W        W55017  41.386  26.769   3.744
82593W        W55018  28.194  16.285  12.022
82594W        W55019   3.466  34.588  14.421
82595W        W55020  10.784  40.503   4.713
82596W        W55021  39.834  34.870   3.548
82597W        W55022  43.950  40.864  10.859
82598W        W55023  26.575  28.409   0.682
82599W        W55024  30.915  19.067  11.291
82600W        W55025  21.011  12.147  12.198
82601W        W55026   9.307  36.729   5.001
82602W        W55027   0.181  21.272  13.495
82603W        W55028   7.127  40.294   3.192
82604W        W55029  14.074   1.845   3.393
82605W        W55030  36.803  21.564   2.358
82606W        W55031  18.725  15.507   2.646
82607W        W55032  43.761   7.320  12.257
82608W        W55033  31.756  35.157   0.483
82609W        W55034  12.628  35.080   2.924
82610W        W55035  21.757  28.363  11.780
82611W        W55036   6.419  19.710   0.222
82612W        W55037  32.971  16.458   1.490
82613W        W55038  39.425  31.887  10.448
82614W        W55039   5.143  30.590  10.780
82615W        W55040  29.547  41.828  12.902
82616W        W55041  14.764   5.029   0.457
82617W        W55042  40.772  13.608   0.207
82618W        W55043   9.374  25.691   2.838
82619W        W55044  11.784  29.495  14.572
82620W        W55045  20.429   7.429  11.545
82621W        W55046  23.118  35.846   0.310
82622W        W55047   3.425   2.780  13.684
82623W        W55048  21.236  30.569  13.958
82624W        W55049  22.812   1.923  13.994
82625W        W55050  36.098  14.248  13.774
82626W        W55051  43.277  14.089   2.222
82627W        W55052  20.050  24.119  13.746
82628W        W55053   4.710  44.452   4.574
82629W        W55054  18.645  30.417  12.315
82630W        W55055  28.910  27.740   0.755
82631W        W55056  18.807   7.292  12.519
82632W        W55057   7.296  14.057  10.732
82633W        W55058  15.965  26.430   9.954
82634W        W55059  13.574  38.060  10.751
82635W        W55060  43.043   4.943  10.723
82636W        W55061   5.328  29.772   2.805
82637W        W55062  15.858   0.960   1.555
82638W        W55063  18.895  35.085   1.357
82639W        W55064  30.571  39.902  14.863
82640W        W55065  22.456  28.142   0.243
82641W        W55066  28.769   3.471  11.181
82642W        W55067  18.546  40.051  11.582
82643W        W55068  25.189  30.662   4.790
82644W        W55069  38.965   7.276   1.219
82645W        W55070  38.064   5.205  13.251
82646W        W55071  40.597  31.126   2.773
82647W        W55072   8.638  23.000   4.121
82648W        W55073  33.992   6.319  10.901
82649W        W55074  38.492  23.148  13.691
82650W        W55075  23.145  19.996   2.760
82651W        W55076  26.955  42.836   1.844
82652W        W55077  33.119  21.283   3.373
82653W        W55078  12.782  36.382  13.582
82654W        W55079  25.896  43.792   1.698
82655W        W55080   1.243  31.642   3.894
82656W        W55081  29.943  26.677  10.951
82657W        W55082  18.871   0.340  11.043
82658W        W55083   3.670  23.909   1.891
82659W        W55084  43.327   6.824   0.260
82660W        W55085  38.785   2.940   0.842
82661W        W55086  22.202  37.576  10.638
82662W        W55087   4.332   8.864   1.789
82663W        W55088   2.470  25.314  13.104
82664W        W55089  40.299  14.635  13.131
82665W        W55090  19.967   1.053  10.902
82666W        W55091  20.674   8.926   1.336
82667W        W55092  16.298   5.478  12.140
82668W        W55093   7.409   6.784   3.627
82669W        W55094   5.532  42.117  11.619
82670W        W55095   1.277  31.633   2.042
82671W        W55096   8.379  12.237   4.513
82672W        W55097  20.488  15.689  10.636
82673W        W55098   6.807   2.311  14.736
82674W        W55099   6.707  19.709   0.875
82675W        W55100  27.539  23.471   3.152
82676W        W55101  10.686  38.144  12.600
82677W        W55102  35.102   1.181   2.663
82678W        W55103  32.201  42.805  12.368
82679W        W55104  18.109  17.532  11.672
82680W        W55105  19.336   8.311   3.741
82681W        W55106   0.004  19.161   4.176
82682W        W55107   4.511   1.796   4.232
82683W        W55108  22.038  41.514  14.956
82684W        W55109   7.710   1.683  11.499
82685W        W55110  42.492   3.890  12.419
82686W        W55111  10.435   8.202  12.490
82687W        W55112  24.713  21.750   1.886
82688W        W55113   2.832  19.695   3.837
82689W        W55114  11.121  24.502  14.515
82690W        W55115  23.322  24.546   4.560
82691W        W55116   4.391   4.401  11.506
82692W        W55117  29.151  26.459  13.136
82693W        W55118  11.811   4.008   4.073
82694W        W55119  14.598   9.552   0.729
82695W        W55120  43.292   4.221  11.205
82696W        W55121  19.837  30.090   4.787
82697W        W55122   9.056  17.076   4.643
82698W        W55123  32.173  12.830  14.443
82699W        W55124  39.848  10.696   1.032
82700W        W55125  43.015  22.008   2.337
82701W        W55126  25.180  11.621  11.187
82702W        W55127  27.987   3.276  12.169
82703W        W55128  21.302  38.539  12.968
82704W        W55129  25.482  32.803  10.820
82705W        W55130  15.737  12.130  12.434
82706W        W55131   3.343   3.384  10.108
82707W        W55132  27.395   7.271   2.980
82708W        W55133   8.258   3.220   3.762
82709W        W55134   6.300   5.689  11.572
82710W        W55135  17.694   3.264   1.912
82711W        W55136   7.484   9.487  11.043
82712W        W55137  20.143   5.988  12.850
82713W        W55138  35.169  28.177   3.862
82714W        W55139  18.733   3.023   3.364
82715W        W55140   6.749  24.944   0.412
82716W        W55141  26.812  34.899   4.831
82717W        W55142  31.580  34.602  10.634
82718W        W55143  25.833   1.732  12.288
82719W        W55144  17.766  27.695  13.421
82720W        W55145  22.845  23.682  10.559
82721W        W55146  25.485   0.999  13.447
82722W        W55147  13.778  17.594  12.353
82723W        W55148  15.313  37.108  13.926
82724W        W55149   2.763  36.580  11.924
82725W        W55150   5.765  41.402  12.105
82726W        W55151  44.382  22.239   1.101
82727W        W55152   0.777  33.701   3.263
82728W        W55153   8.407  12.197  11.045
82729W        W55154  23.200  16.171  13.953
82730W        W55155  26.393  38.300  11.187
82731W        W55156   3.855  29.468   3.818
82732W        W55157  41.567  39.919  13.448
82733W        W55158  19.595  30.192   1.835
82734W        W55159   1.862  22.522  10.898
82735W        W55160  10.286   4.268   2.444
82736W        W55161  26.030  44.948   4.182
82737W        W55162  35.049  34.419   4.789
82738W        W55163  13.765  33.511  12.386
82739W        W55164  43.480  29.375   3.729
82740W        W55165  41.171  42.865  10.326
82741W        W55166  37.742  20.264  13.547
82742W        W55167  10.087  15.359   2.935
82743W        W55168   7.504  13.201  13.987
82744W        W55169  23.051  25.643   0.849
82745W        W55170  37.310  20.080  13.796
82746W        W55171   8.410   2.948  14.371
82747W        W55172  30.646  17.137  14.451
82748W        W55173  41.479  36.459   0.187
82749W        W55174  13.099  33.568  10.814
82750W        W55175   5.217  39.617   0.808
82751W        W55176   6.677  11.753   4.593
82752W        W55177  29.064  41.735   2.738
82753W        W55178   3.684  14.294  11.489
82754W        W55179   1.350  19.601   0.007
82755W        W55180   3.261  39.552  12.933
82756W        W55181  28.141   4.269  12.053
82757W        W55182  17.606  22.606  10.240
82758W        W55183  18.302  19.305   0.365
82759W        W55184  40.907   3.782   4.276
82760W        W55185  35.647  23.525   3.289
82761W        W55186  12.872  38.986   0.875
82762W        W55187  39.138   3.342  14.924
82763W        W55188  43.753  38.575  11.572
82764W        W55189  13.656  38.498  12.126
82765W        W55190  39.390   1.029   1.433
82766W        W55191  26.529  14.541  11.422
82767W        W55192  13.660  29.223   4.903
82768W        W55193   7.987  12.561  13.127
82769W        W55194  24.889  17.112   2.246
82770W        W55195   0.328  20.703   0.273
82771W        W55196  19.187  40.199  11.052
82772W        W55197  42.709  27.013  14.829
82773W        W55198  19.585   3.332   1.508
82774W        W55199  38.357   7.866   0.747
82775W        W55200   9.512  40.917   4.487
82776W        W55201  44.645  24.402  12.556
82777W        W55202  19.478  20.776   3.078
82778W        W55203  19.727  23.943  14.942
82779W        W55204  23.254  35.840   3.154
82780W        W55205  22.163  12.397  11.415
82781W        W55206  16.796  28.862   4.087
82782W        W55207   4.213  29.832  12.766
82783W        W55208  21.202  14.615   1.442
82784W        W55209   4.239  16.565   2.159
82785W        W55210  35.296  44.135  10.692
82786W        W55211   6.273  30.427   0.387
82787W        W55212  35.333  16.666  14.425
82788W        W55213  29.460  42.505  10.425
82789W        W55214  16.903  26.505   5.142
82790W        W55215  12.260  18.185  14.952
82791W        W55216  28.073   4.640  12.705
82792W        W55217  44.805  44.433  14.580
82793W        W55218  40.729  22.543   3.639
82794W        W55219   5.255  13.233  11.760
82795W        W55220   8.944  40.068  13.917
82796W        W55221  26.170  21.130  11.122
82797W        W55222  34.435  32.007  13.995
82798W        W55223  31.293  10.307  14.359
82799W        W55224  35.353  27.650   2.891
82800W        W55225  17.238  38.073   0.418
82801W        W55226  44.810  43.452   1.187
82802W        W55227   9.605  40.115   1.957
82803W        W55228  24.667  41.508  14.343
82804W        W55229  17.087   1.185   2.194
82805W        W55230  13.712  13.675   1.006
82806W        W55231  36.035  43.019   3.754
82807W        W55232  13.086  41.832  14.800
82808W        W55233  13.183  29.400   2.297
82809W        W55234  23.749  38.815   3.371
82810W        W55235  26.925   2.499   3.124
82811W        W55236   5.970  29.821   1.323
82812W        W55237   4.717  14.589   0.491
82813W        W55238  23.603  11.111   0.715
82814W        W55239  33.642  31.900   4.199
82815W        W55240  13.043   7.684   0.795
82816W        W55241  11.688  25.211  11.989
82817W        W55242  33.674  27.028  10.884
82818W        W55243  12.913  25.705   3.743
82819W        W55244  42.763  19.216   0.251
82820W        W55245   1.893  31.622  12.867
82821W        W55246   7.313  29.010  14.797
82822W        W55247   9.605  29.163   4.060
82823W        W55248  30.331   2.880   0.750
82824W        W55249  43.208  29.184  13.905
82825W        W55250   6.144   1.506   4.796
82826W        W55251  13.257  13.815   1.248
82827W        W55252  17.186  14.530   2.886
82828W        W55253  36.025  24.192   4.927
82829W        W55254  12.553  12.737  13.279
82830W        W55255   9.693  26.913   2.885
82831W        W55256  23.286  44.898   0.937
82832W        W55257   1.932   9.314  13.488
82833W        W55258  36.593  34.740   4.676
82834W        W55259  21.158   8.702  14.899
82835W        W55260  38.327  33.512   0.468
82836W        W55261  13.573   2.133   4.521
82837W        W55262  26.460   6.072   3.764
82838W        W55263  29.131  21.198   4.148
82839W        W55264  33.628  24.813  12.442
82840W        W55265  12.233   7.814  11.468
82841W        W55266   0.701  33.868   2.773
82842W        W55267  28.172   8.652   3.145
82843W        W55268  26.671  17.200   0.832
82844W        W55269  38.265  20.193  12.621
82845W        W55270  43.941  32.132   2.003
82846W        W55271  40.044  18.078   2.748
82847W        W55272   6.368  19.136   0.060
82848W        W55273  21.799  37.631   1.879
82849W        W55274  38.733  26.638   0.256
82850W        W55275  39.008  34.443   0.751
82851W        W55276  42.921   1.885   0.603
82852W        W55277  39.969   3.490   0.395
82853W        W55278  33.877  41.076   4.345
82854W        W55279  34.566  15.864  14.611
82855W        W55280  35.603  11.432   3.121
82856W        W55281  37.901  18.370  12.508
82857W        W55282  23.003  41.055  14.096
82858W        W55283   8.937  37.997  10.956
82859W        W55284  24.770  44.918  10.745
82860W        W55285  19.015  37.595  11.892
82861W        W55286  18.724  29.353   4.985
82862W        W55287  31.076  40.038  10.267
82863W        W55288   5.516  43.437   1.931
82864W        W55289   4.901  22.637  12.106
82865W        W55290  41.958  11.431  10.917
82866W        W55291  14.463  10.342   4.184
82867W        W55292   9.881  10.802   0.029
82868W        W55293  14.888  34.637  10.348
82869W        W55294  35.060   1.912   3.258
82870W        W55295  33.914  13.755  11.668
82871W        W55296  22.252  11.299  10.579
82872W        W55297  11.254  35.665   2.354
82873W        W55298   3.684  39.986   3.197
82874W        W55299  40.528  30.296  11.505
82875W        W55300   9.667  25.059  11.123
82876W        W55301  24.525   3.299  13.346
82877W        W55302  42.884  37.192  13.830
82878W        W55303  42.213   3.752   4.250
82879W        W55304  18.548  14.750  12.305
82880W        W55305  31.430  41.516   2.665
82881W        W55306  17.622  32.927  12.927
82882W        W55307  10.678  43.365  12.408
82883W        W55308  37.324  27.740   0.690
82884W        W55309   3.264   6.415  13.271
82885W        W55310  21.100  30.541  10.232
82886W        W55311  37.076   8.131  11.679
82887W        W55312  25.661  25.424   3.290
82888W        W55313  44.518  21.692  14.783
82889W        W55314   1.897   0.821  11.431
82890W        W55315   1.519  40.934   2.628
82891W        W55316  15.174  32.389   1.326
82892W        W55317  30.514  25.505   4.122
82893W        W55318  24.819  44.809   3.616
82894W        W55319  29.131  38.741  10.247
82895W        W55320   9.604  16.137   0.481
82896W        W55321  39.798   1.234  11.149
82897W        W55322   9.608  34.442  12.285
82898W        W55323  12.046  43.739   0.301
82899W        W55324  11.720  11.830   1.470
82900W        W55325  12.245  43.933   2.762
82901W        W55326   2.400   4.784   1.318
82902W        W55327  44.333  17.222   4.161
82903W        W55328  28.716  21.066  13.922
82904W        W55329  44.244  11.927  10.143
82905W        W55330  24.150  15.051   0.952
82906W        W55331   6.931  26.282  11.185
82907W        W55332  16.988  35.581  13.382
82908W        W55333  19.905  12.078  11.680
82909W        W55334  37.865   5.868   1.133
82910W        W55335  28.976   1.822   4.331
82911W        W55336   1.722  36.928  14.366
82912W        W55337  43.366  13.332   2.465
82913W        W55338  11.887  11.527   3.310
82914W        W55339  43.973  40.319  13.600
82915W        W55340  37.619  21.208   3.768
82916W        W55341  15.240   5.780   0.460
82917W        W55342   1.268  39.456  10.814
82918W        W55343   8.493  13.676   1.818
82919W        W55344  14.704   2.668   0.949
82920W        W55345  20.149   1.280  14.415
82921W        W55346  22.527  10.614   5.487
82922W        W55347  32.705  15.232   1.348
82923W        W55348  34.647  37.549  14.545
82924W        W55349  18.862  11.126  12.620
82925W        W55350  26.003  28.072   1.806
82926W        W55351  22.731  25.035   5.108
82927W        W55352  22.837  22.510  12.880
82928W        W55353  26.223  12.569  14.929
82929W        W55354   0.428  19.493   4.171
82930W        W55355   7.132   5.777   2.942
82931W        W55356  32.322  19.286  13.511
82932W        W55357  17.023  15.236  14.334
82933W        W55358  27.691  11.261   2.353
82934W        W55359  26.081  23.467   0.265
82935W        W55360  20.739  33.181  14.876
82936W        W55361  21.583  24.305  13.252
82937W        W55362  32.286  23.267   2.555
82938W        W55363   3.252  16.807  13.252
82939W        W55364  26.206  20.427   1.941
82940W        W55365  44.966  26.478  13.420
82941W        W55366  27.523  42.518   3.690
82942W        W55367  14.390  35.051  13.239
82943W        W55368  12.861  40.897  11.498
82944W        W55369  33.702  11.132   3.301
82945W        W55370   0.444  33.086  11.938
82946W        W55371  42.851  17.796  14.497
82947W        W55372  30.517  26.248   4.646
82948W        W55373  18.183  18.194   4.825
82949W        W55374  18.161  17.433   2.276
82950W        W55375  38.702  34.582  14.777
82951W        W55376   0.969  21.715  12.644
82952W        W55377  14.200   7.935  13.938
82953W        W55378  24.708   4.209  13.240
82954W        W55379  36.005   5.941   0.342
82955W        W55380  18.729  34.412  12.399
82956W        W55381  17.753  29.048   4.852
82957W        W55382  21.142  36.753   2.178
82958W        W55383   1.578  43.265  13.573
82959W        W55384   9.765  33.099   2.995
82960W        W55385  20.015   1.069  12.159
82961W        W55386  34.047  15.312   2.876
82962W        W55387  26.680   3.437   0.397
82963W        W55388  44.549   8.640   1.803
82964W        W55389   2.134  19.077  13.924
82965W        W55390  34.833  13.521  13.856
82966W        W55391  12.650  17.843  10.948
82967W        W55392   6.150  41.931   4.511
82968W        W55393   8.297  41.609   1.850
82969W        W55394  11.276   2.971   1.962
82970W        W55395  38.192   6.188   0.161
82971W        W55396  37.399  32.829  10.530
82972W        W55397  20.465  44.431   4.690
82973W        W55398  21.836  17.010   3.125
82974W        W55399  27.924  18.495  12.418
82975W        W55400  33.082  15.793  11.982
82976W        W55401   3.768  31.039   3.309
82977W        W55402  20.672  24.348  10.793
82978W        W55403  44.420   8.389   5.091
82979W        W55404  20.022  28.370  12.358
82980W        W55405  20.274  14.832   3.691
82981W        W55406  26.976  44.375   0.514
82982W        W55407  25.101  37.865  11.217
82983W        W55408  11.376  24.381  14.978
82984W        W55409  41.185  13.057   3.365
82985W        W55410  19.112  21.945   3.315
82986W        W55411  41.950   6.860  10.467
82987W        W55412  43.707  20.039   0.512
82988W        W55413  29.749   1.110  14.357
82989W        W55414  23.518  40.053  14.693
82990W        W55415   3.636  16.968  14.756
82991W        W55416  10.173  42.335   0.880
82992W        W55417  39.077   9.724   1.344
82993W        W55418  42.466   2.782   0.936
82994W        W55419   1.824  12.186   3.291
82995W        W55420  23.598  10.683   1.404
82996W        W55421  34.991  16.615  14.829
82997W        W55422   2.278  30.080  14.518
82998W        W55423   8.122  35.446  14.269
82999W        W55424   8.900  17.570   3.709
83000W        W55425  40.385  40.964   2.842
83001W        W55426  36.824   2.160   0.759
83002W        W55427  28.037  23.141  10.686
83003W        W55428   1.768  23.446  14.834
83004W        W55429  43.320  13.859   0.977
83005W        W55430  27.830  34.665   1.979
83006W        W55431   2.499  26.913  10.477
83007W        W55432  32.528  34.488  10.707
83008W        W55433  22.127   1.826  13.407
83009W        W55434  35.143   0.372  13.888
83010W        W55435  32.135   2.020   1.656
83011W        W55436   3.621   8.934  12.145
83012W        W55437  18.058   3.510   1.636
83013W        W55438  27.662  21.925   4.792
83014W        W55439  21.954   5.383   4.207
83015W        W55440  39.886   2.855  14.064
83016W        W55441  41.099  14.664   1.794
83017W        W55442  43.303  42.289   2.670
83018W        W55443   8.335   1.482  13.818
83019W        W55444   0.134  30.096   0.265
83020W        W55445  13.048   1.402   0.435
83021W        W55446  38.282  30.449   5.280
83022W        W55447  41.361  28.553   0.961
83023W        W55448  17.997   9.371  12.930
83024W        W55449   5.476  20.787  11.431
83025W        W55450  28.609  17.308   2.771
83026W        W55451  18.761  39.853   4.533
83027W        W55452   4.754   1.139  12.879
83028W        W55453  44.991   5.003   1.873
83029W        W55454   1.618  16.621   0.923
83030W        W55455  13.135  14.445  11.200
83031W        W55456  25.288  14.652   1.774
83032W        W55457   1.034   7.752   2.950
83033W        W55458  27.412  43.085   0.479
83034W        W55459   3.552  20.099  13.995
83035W        W55460   3.116  36.455  10.569
83036W        W55461  11.844  38.428  13.313
83037W        W55462  29.857  27.472  14.751
83038W        W55463   4.626  37.608  10.857
83039W        W55464  26.036   8.415  12.118
83040W        W55465  44.749   8.857  13.487
83041W        W55466  17.371  28.356  14.889
83042W        W55467  19.170  42.553   0.300
83043W        W55468  22.023  12.747   4.623
83044W        W55469  19.051  22.233   1.734
83045W        W55470  43.913  23.794   0.499
83046W        W55471  34.671   6.597  13.912
83047W        W55472   7.394  19.275  13.964
83048W        W55473   9.550  37.458  14.438
83049W        W55474  35.356  40.797   0.306
83050W        W55475  34.305  31.081  11.189
83051W        W55476  35.550   2.780  11.961
83052W        W55477   0.522  42.766  12.488
83053W        W55478  43.373  44.040  13.488
83054W        W55479  14.372  34.763   4.217
83055W        W55480  17.014  21.203  13.403
83056W        W55481  23.464   4.189   0.792
83057W        W55482  34.443  12.687  12.043
83058W        W55483   0.702   3.233   5.024
83059W        W55484   1.421   3.294   4.434
83060W        W55485  12.279  24.756   0.880
83061W        W55486  25.154  21.989  13.234
83062W        W55487  18.723   7.162   4.600
83063W        W55488  16.629  43.754   2.322
83064W        W55489  10.324  19.559   4.672
83065W        W55490  25.438  21.696  14.957
83066W        W55491  16.293   7.572  13.066
83067W        W55492   8.933  41.428   2.784
83068W        W55493  36.130  17.043   1.403
83069W        W55494  41.757  29.974   4.354
83070W        W55495  11.007  10.582  12.844
83071W        W55496  26.603  29.228   1.895
83072W        W55497   9.455  35.456  13.708
83073W        W55498   2.030  19.197   1.341
83074W        W55499  13.259  25.398  14.907
83075W        W55500   6.714   2.130   4.140
83076W        W55501  28.495  28.983  11.611
83077W        W55502  27.440   5.916  11.676
83078W        W55503  38.996  33.196  12.388
83079W        W55504  20.756   7.650   2.252
83080W        W55505  16.848  37.969   0.064
83081W        W55506  32.409   9.906  14.941
83082W        W55507  37.453   5.303   0.921
83083W        W55508  36.296  43.281   3.364
83084W        W55509  20.891   3.947  12.629
83085W        W55510   1.876  40.851  10.617
83086W        W55511  34.157  39.339   3.320
83087W        W55512  38.293  13.788   2.843
83088W        W55513  40.025   1.352   3.033
83089W        W55514  43.250   9.100   1.812
83090W        W55515  34.985  18.648  14.753
83091W        W55516   4.181   4.061   4.785
83092W        W55517   4.323   2.292  14.521
83093W        W55518  38.733  33.988  14.248
83094W        W55519  20.037  43.436   4.739
83095W        W55520   3.029  18.085  13.777
83096W        W55521  37.541  44.545   3.179
83097W        W55522  11.447   9.214   1.469
83098W        W55523  41.278  29.473   2.982
83099W        W55524   4.955   6.722   0.481
83100W        W55525   4.712   2.791  13.009
83101W        W55526  14.621  37.885  14.902
83102W        W55527  34.483  37.839   4.500
83103W        W55528   2.814  18.789   0.373
83104W        W55529  31.409  44.528   3.797
83105W        W55530  39.642  20.103   2.887
83106W        W55531  31.826  32.213  14.990
83107W        W55532  41.339  42.440  13.093
83108W        W55533  37.960  17.611  14.087
83109W        W55534  43.347  16.177  10.571
83110W        W55535  38.964   4.666   1.765
83111W        W55536  28.946  28.566   1.833
83112W        W55537   7.435  38.914  14.884
83113W        W55538  30.892   2.417  10.668
83114W        W55539  17.660  13.372  10.649
83115W        W55540  22.562  30.772  13.854
83116W        W55541  31.885  40.782  10.701
83117W        W55542   4.342  30.493  13.312
83118W        W55543   6.179  43.885   1.554
83119W        W55544  30.379  26.626   3.281
83120W        W55545  33.877  14.690   2.215
83121W        W55546  31.624  38.614  14.872
83122W        W55547  42.612   7.385   0.994
83123W        W55548  33.454  19.266   3.209
83124W        W55549  12.552  13.694   3.248
83125W        W55550  33.607   5.790  12.506
83126W        W55551  29.712   3.854  13.334
83127W        W55552  33.926  38.003   4.400
83128W        W55553  17.482  25.692  13.574
83129W        W55554  19.585   4.203   3.281
83130W        W55555  25.722  32.044   0.814
83131W        W55556   6.265  34.104   4.192
83132W        W55557  12.019   3.888  10.555
83133W        W55558  17.223  34.626   2.649
83134W        W55559  13.758  41.137  11.964
83135W        W55560  41.882   4.192   3.592
83136W        W55561   1.982  18.276   2.858
83137W        W55562   4.987  32.538   2.855
83138W        W55563   0.469  16.092  14.318
83139W        W55564   8.175  27.556   4.318
83140W        W55565  13.280  24.906   9.804
83141W        W55566  11.671   9.525   4.052
83142W        W55567  44.589  14.132  12.011
83143W        W55568  21.253   3.469  14.004
83144W        W55569   7.319  27.407  13.697
83145W        W55570  37.016  30.988   2.141
83146W        W55571  16.230  33.712  11.538
83147W        W55572  25.054  22.221  11.924
83148W        W55573  18.755  32.633   4.987
83149W        W55574   1.903  27.431   2.021
83150W        W55575  20.083  30.110  14.730
83151W        W55576  34.995   8.739  12.899
83152W        W55577   8.774  29.982  13.553
83153W        W55578  19.695  19.914   4.653
83154W        W55579  40.366  12.294  13.383
83155W        W55580  36.095  37.747   4.536
83156W        W55581  39.785  12.599   4.257
83157W        W55582  15.097  27.742  14.891
83158W        W55583   4.356  31.818  13.430
83159W        W55584   2.454   1.957   4.352
83160W        W55585  19.151  17.918   2.374
83161W        W55586  29.569  26.019  13.000
83162W        W55587  10.233  12.490   4.894
83163W        W55588  25.481  35.864   0.928
83164W        W55589   9.107   6.719  13.096
83165W        W55590  24.088  32.146   0.427
83166W        W55591   2.075  37.018  11.595
83167W        W55592  14.020  22.292  13.942
83168W        W55593  24.002   5.343   3.035
83169W        W55594  19.505  15.693  11.208
83170W        W55595   7.680   8.865   2.862
83171W        W55596  42.504  44.288  12.359
83172W        W55597  20.111  35.032   0.271
83173W        W55598  10.617  24.868  12.389
83174W        W55599  13.433  35.797   1.247
83175W        W55600  15.013  42.041   1.551
83176W        W55601  30.056  30.877   3.443
83177W        W55602  23.963  20.770  11.524
83178W        W55603  20.587  15.363   1.968
83179W        W55604   4.312  42.790  13.412
83180W        W55605  31.984  33.516   2.139
83181W        W55606  11.170  10.406   0.769
83182W        W55607  35.432  39.068  12.018
83183W        W55608  19.237  25.934   0.945
83184W        W55609   9.217  44.326  11.388
83185W        W55610   7.495   5.897   1.472
83186W        W55611  23.952  22.299   4.694
83187W        W55612  44.700   0.330   0.217
83188W        W55613  26.980  19.454   5.116
83189W        W55614  22.469   0.166   2.874
83190W        W55615   2.678   0.531   0.450
83191W        W55616  43.333  33.935  11.130
83192W        W55617  17.678  15.125  14.370
83193W        W55618  36.342  25.001   2.131
83194W        W55619  34.385  23.194   0.909
83195W        W55620  19.658  28.914  13.351
83196W        W55621  23.293  23.923   2.728
83197W        W55622  42.448  13.841   3.763
83198W        W55623  11.545  11.556   4.498
83199W        W55624  21.083  31.863  13.462
83200W        W55625  18.083  19.555   1.024
83201W        W55626   4.277  15.875   0.512
83202W        W55627  19.035  30.807  11.105
83203W        W55628  14.541  33.420   0.844
83204W        W55629  26.097  42.790   3.830
83205W        W55630  30.383   7.247   2.098
83206W        W55631  17.456   6.433   2.963
83207W        W55632  43.774  37.644  11.134
83208W        W55633  12.622  14.156  13.582
83209W        W55634  30.414  40.618  13.550
83210W        W55635  34.043  12.090  11.227
83211W        W55636  43.954  23.570  11.938
83212W        W55637  18.300  13.832  14.898
83213W        W55638  10.664   6.293   1.971
83214W        W55639   2.812  13.868  12.432
83215W        W55640  28.825  22.621   0.248
83216W        W55641  31.388  20.174   0.347
83217W        W55642  12.911  28.815   0.501
83218W        W55643   9.744  13.284   3.909
83219W        W55644  43.102  22.887   2.147
83220W        W55645  44.972   8.140  14.606
83221W        W55646  13.014  16.529   0.727
83222W        W55647  32.021  21.225   1.702
83223W        W55648  27.018   3.842  14.134
83224W        W55649   5.911  37.876   0.896
83225W        W55650  43.345  32.340   4.657
83226W        W55651  24.673   5.958  12.098
83227W        W55652  37.542  21.677   2.806
83228W        W55653   8.054   3.445  11.590
83229W        W55654  13.179  18.066   2.355
83230W        W55655  16.130  17.191  10.754
83231W        W55656  36.440  12.053   2.131
83232W        W55657  14.095  33.538  10.961
83233W        W55658  11.214  17.192   2.255
83234W        W55659  38.211   0.257   3.084
83235W        W55660  14.212  29.595   1.356
83236W        W55661  10.064   3.245   1.711
83237W        W55662   9.653  18.341  14.227
83238W        W55663   0.970  12.378   2.840
83239W        W55664  14.522  31.912   2.714
83240W        W55665  35.759   4.768   2.225
83241W        W55666  44.991  10.162  12.542
83242W        W55667  41.594  32.992   4.589
83243W        W55668   2.309  16.792   2.234
83244W        W55669  21.679  32.422   4.110
83245W        W55670  29.097   8.882   0.760
83246W        W55671  17.022  18.040  13.948
83247W        W55672  21.065  39.588   1.193
83248W        W55673  40.300  27.381  11.203
83249W        W55674   5.821  23.375  13.046
83250W        W55675  13.429  37.036  10.665
83251W        W55676  15.681  29.650   2.874
83252W        W55677  13.661  18.536   2.097
83253W        W55678   7.687  10.403  10.951
83254W        W55679  41.302  40.574   1.666
83255W        W55680  40.381  20.742   2.273
83256W        W55681   3.947  12.047  12.232
83257W        W55682  12.665   5.654   0.489
83258W        W55683  24.088  20.581  13.564
83259W        W55684  10.304  29.392   1.344
83260W        W55685   1.242   7.697   0.787
83261W        W55686  17.202  28.725   0.468
83262W        W55687   6.665  23.030  14.270
83263W        W55688  10.349  20.810   3.376
83264W        W55689  32.466   9.850   2.853
83265W        W55690  18.508  36.788   1.124
83266W        W55691  36.598  43.557  10.309
83267W        W55692  13.273  36.551  10.621
83268W        W55693  39.323  19.799   0.286
83269W        W55694  37.769  25.800   5.077
83270W        W55695  36.455  14.548   3.673
83271W        W55696  18.754  13.598   0.047
83272W        W55697  26.631  14.359   2.174
83273W        W55698   0.350  26.562   3.962
83274W        W55699   4.415  15.218  14.947
83275W        W55700  27.405  13.709  14.317
83276W        W55701  42.555   8.106  12.068
83277W        W55702  37.800  37.032  12.083
83278W        W55703   2.108  17.524   0.724
83279W        W55704  39.921  11.761  14.984
83280W        W55705  42.023   5.722  12.200
83281W        W55706  22.562   2.373  11.971
83282W        W55707   9.661  13.557   3.184
83283W        W55708  17.054  17.970  12.484
83284W        W55709   4.423  26.099   3.344
83285W        W55710  34.045  25.048   3.315
83286W        W55711   4.540  13.754  13.941
83287W        W55712  13.289  42.807   4.467
83288W        W55713  41.093  27.020  12.642
83289W        W55714  36.109  27.540  12.517
83290W        W55715  13.310  11.742   3.344
83291W        W55716  43.223  23.153  13.488
83292W        W55717   8.228  41.051   3.256
83293W        W55718  26.596  44.432   1.307
83294W        W55719  13.896   0.856   5.356
83295W        W55720  22.228  27.851   4.596
83296W        W55721  38.456   7.671   3.324
83297W        W55722  15.478  40.554   5.069
83298W        W55723   7.647  22.635   4.708
83299W        W55724  35.212  40.439   5.046
83300W        W55725  15.726  37.647  10.714
83301W        W55726  26.501   9.688   4.357
83302W        W55727  20.279  19.311  14.756
83303W        W55728  29.833  16.356   0.715
83304W        W55729   2.276   3.260   1.480
83305W        W55730  38.737  31.642   3.683
83306W        W55731  37.027  34.487   3.084
83307W        W55732  44.714   1.265   0.861
83308W        W55733  44.298  19.081  12.322
83309W        W55734   8.507  26.750   3.791
83310W        W55735  11.287  38.446   1.694
83311W        W55736   4.499  33.537  11.391
83312W        W55737  23.538  37.428   3.416
83313W        W55738   6.040  44.281  11.162
83314W        W55739  12.784  24.061  14.365
83315W        W55740   9.331  37.708  10.139
83316W        W55741  27.636  39.291   0.552
83317W        W55742  23.751   3.479  13.787
83318W        W55743  26.105   7.380  13.951
83319W        W55744  36.755  23.000   3.924
83320W        W55745  27.700   9.480  11.339
83321W        W55746   3.878  24.585   0.622
83322W        W55747   6.388  43.457   1.334
83323W        W55748  32.425   5.959  13.060
83324W        W55749  38.088  35.606  10.982
83325W        W55750  20.951   3.473   2.846
83326W        W55751   9.146  32.109  13.718
83327W        W55752  27.296  20.762  14.860
83328W        W55753  17.999  15.737  13.000
83329W        W55754  37.663  24.980   1.415
83330W        W55755   0.462  16.939   3.592
83331W        W55756  32.541  29.381   2.698
83332W        W55757  26.925  18.660   4.754
83333W        W55758  10.179  23.595   1.518
83334W        W55759   7.289  28.871   2.010
83335W        W55760  18.171  37.262   0.344
83336W        W55761  10.419  37.259   3.209
83337W        W55762  24.332  22.413  10.545
83338W        W55763  13.882  40.342  13.365
83339W        W55764  38.632   9.271  11.499
83340W        W55765   7.649  21.861   2.851
83341W        W55766  12.918   1.779  14.128
83342W        W55767  38.749   4.652   2.238
83343W        W55768   9.751  26.946   3.389
83344W        W55769  10.328  44.302  14.905
83345W        W55770  18.160  25.956  11.191
83346W        W55771  35.374   1.271  11.335
83347W        W55772   4.966  14.178   0.814
83348W        W55773   3.982   5.709   1.328
83349W        W55774  37.105   6.158  13.519
83350W        W55775  38.950   0.209   1.378
83351W        W55776  30.456  28.523  11.716
83352W        W55777  13.995  31.139   2.273
83353W        W55778  41.006   0.398  11.604
83354W        W55779   3.757  42.425  10.954
83355W        W55780  43.255  24.406   4.434
83356W        W55781  43.477  10.881   1.922
83357W        W55782  36.652  18.135   3.721
83358W        W55783  43.618   0.582   4.127
83359W        W55784  28.999   1.951   1.662
83360W        W55785  21.094  28.203  12.588
83361W        W55786  44.559   2.729  12.997
83362W        W55787  21.245   8.630   2.214
83363W        W55788  42.491  18.678   4.260
83364W        W55789   7.102   9.025   1.260
83365W        W55790   2.326  41.564  14.456
83366W        W55791  32.109  25.571  13.255
83367W        W55792   7.977  39.368  10.964
83368W        W55793  14.671  30.562  11.656
83369W        W55794  25.676   2.469  12.913
83370W        W55795  27.620  22.657   1.753
83371W        W55796  27.155  21.375  13.289
83372W        W55797  33.943  39.789   3.160
83373W        W55798   7.198  18.433   3.144
83374W        W55799  16.401  38.396  11.537
83375W        W55800  11.965  23.108   0.334
83376W        W55801  42.430  29.217   2.857
83377W        W55802  18.150   6.334  10.745
83378W        W55803   9.307  23.460   5.116
83379W        W55804  29.552  26.268   2.711
83380W        W55805  34.086   3.885  13.036
83381W        W55806  13.296  22.416  11.562
83382W        W55807  23.163   4.361   3.650
83383W        W55808   4.466  31.513   1.344
83384W        W55809  24.577   1.002  11.654
83385W        W55810  23.731  24.538   4.232
83386W        W55811  16.732  37.585   3.140
83387W        W55812  31.234  19.092   9.873
83388W        W55813   9.345  32.135  12.339
83389W        W55814  12.894  28.329  13.957
83390W        W55815  22.721  31.720  14.441
83391W        W55816  43.503  29.455   2.820
83392W        W55817  41.011   3.705  14.789
83393W        W55818  24.572  36.868  14.964
83394W        W55819  16.291  11.219   3.642
83395W        W55820  19.056  19.426   1.364
83396W        W55821  35.492   5.266  14.238
83397W        W55822  44.248   8.615  10.088
83398W        W55823  12.166  19.626   2.325
83399W        W55824  40.591  33.177   1.747
83400W        W55825  34.838   2.682   3.727
83401W        W55826  10.736  22.065  11.503
83402W        W55827  33.538  31.135  10.284
83403W        W55828  17.540  13.598   4.818
83404W        W55829  34.645  37.308  12.129
83405W        W55830  13.824   9.101   2.105
83406W        W55831   8.933  20.836   1.880
83407W        W55832  22.610  43.839   1.443
83408W        W55833  13.762  10.637   0.396
83409W        W55834  43.235  19.960  11.454
83410W        W55835   5.165   8.891  13.835
83411W        W55836  10.667  30.386  12.029
83412W        W55837  16.801  36.468  13.538
83413W        W55838   0.375  42.596  13.332
83414W        W55839  30.238  19.798  12.894
83415W        W55840  14.705  29.476  10.771
83416W        W55841  24.857  10.229  13.386
83417W        W55842   5.331  18.056  11.651
83418W        W55843  43.611  31.676   2.632
83419W        W55844  37.826   2.870  11.655
83420W        W55845  16.386  26.216   4.329
83421W        W55846  24.022  28.698  10.722
83422W        W55847  42.766  33.983   4.528
83423W        W55848  37.122  37.180  13.061
83424W        W55849  15.819   4.437   1.695
83425W        W55850  11.542  34.637   0.505
83426W        W55851  18.543  28.517  11.890
83427W        W55852  29.350   9.051   2.101
83428W        W55853  32.168  14.769   2.930
83429W        W55854  26.631  15.111  10.743
83430W        W55855   5.755  40.556   4.813
83431W        W55856  26.554   6.833   4.453
83432W        W55857   7.935  20.682  13.526
83433W        W55858  41.435  15.592  12.372
83434W        W55859   1.884  19.308  14.908
83435W        W55860  40.342  39.409   0.296
83436W        W55861  28.447  18.288  13.638
83437W        W55862  43.384  18.093   0.012
83438W        W55863  13.308  12.014   2.910
83439W        W55864   5.719  32.442   3.724
83440W        W55865  38.844  41.919  11.024
83441W        W55866   5.679  14.739   0.310
83442W        W55867   9.371  16.986   1.709
83443W        W55868   3.198  12.180   3.702
83444W        W55869  18.140  28.433   4.775
83445W        W55870  41.784  41.363   4.723
83446W        W55871  12.723  28.202  13.375
83447W        W55872  32.566  39.462   3.774
83448W        W55873  11.213  26.371  10.071
83449W        W55874  42.883   0.211   1.337
83450W        W55875  10.442  34.970  13.800
83451W        W55876  40.827  33.985  14.964
83452W        W55877  28.019   6.962  11.948
83453W        W55878  30.403  34.999   2.093
83454W        W55879  15.314  40.881   0.886
83455W        W55880  11.781  19.689  14.888
83456W        W55881  35.082  15.306  12.886
83457W        W55882  27.762  29.171   4.624
83458W        W55883  44.368  10.519   4.191
83459W        W55884  31.070   7.633  10.387
83460W        W55885  16.297  23.732  12.551
83461W        W55886  18.470  34.369  11.891
83462W        W55887  42.082  21.982   2.922
83463W        W55888  24.427  14.867  11.657
83464W        W55889  25.965  32.988   3.255
83465W        W55890  27.886  20.091   2.297
83466W        W55891   0.466  26.461  10.671
83467W        W55892   5.564   2.319  11.617
83468W        W55893  33.059  30.184   3.674
83469W        W55894  30.616  27.657  12.399
83470W        W55895  14.731  22.075  10.630
83471W        W55896  29.477  31.362   4.466
83472W        W55897  22.933   1.684   3.268
83473W        W55898  31.005  23.841  14.129
83474W        W55899  35.139  28.719  10.911
83475W        W55900  44.213  36.811   0.252
83476W        W55901   5.754   3.542  11.116
83477W        W55902  14.646  43.906   2.900
83478W        W55903  41.226  20.314  11.591
83479W        W55904  44.803  43.955  12.161
83480W        W55905  19.521  31.747   3.569
83481W        W55906  32.523  38.355   0.355
83482W        W55907  25.063  29.357   1.921
83483W        W55908  26.095   5.945   0.725
83484W        W55909  17.286  16.341   1.855
83485W        W55910  10.807  44.518  14.840
83486W        W55911  33.604  35.864  13.486
83487W        W55912  15.598   3.603   0.972
83488W        W55913  18.895  43.824  14.342
83489W        W55914  27.960  10.912  12.147
83490W        W55915  16.904  22.208   1.837
83491W        W55916  31.198  25.659  13.539
83492W        W55917  37.366  23.155   2.895
83493W        W55918  20.118  16.738  14.286
83494W        W55919  28.877   3.414  14.975
83495W        W55920  21.483   7.659  12.340
83496W        W55921   4.153  30.478   4.260
83497W        W55922   6.860   0.256  12.099
83498W        W55923  40.248  25.657   4.898
83499W        W55924   4.235  44.216   4.590
83500W        W55925  32.150  12.431  14.067
83501W        W55926   9.454  12.716   2.192
83502W        W55927  16.674  20.982  11.592
83503W        W55928  30.387  30.104  14.710
83504W        W55929   5.709  28.800  14.728
83505W        W55930  12.605   2.147   4.250
83506W        W55931  29.629  43.721   1.000
83507W        W55932  42.830   2.223  12.026
83508W        W55933  18.681  11.170   2.913
83509W        W55934  41.385  24.082  12.839
83510W        W55935  23.597  31.059  13.748
83511W        W55936  28.894  29.528  12.511
83512W        W55937   7.788  44.447   0.989
83513W        W55938  16.061  44.401  12.694
83514W        W55939  30.515  37.120   2.817
83515W        W55940  15.413   7.485   0.700
83516W        W55941  19.815  26.659   5.102
83517W        W55942   3.415  35.550  13.392
83518W        W55943  22.198  38.544   3.761
83519W        W55944  21.700  18.558  12.372
83520W        W55945  33.716   3.732  10.441
83521W        W55946  20.685  11.620  14.995
83522W        W55947  21.523  27.951  13.494
83523W        W55948  43.020  18.830   4.306
83524W        W55949  29.681  44.272   3.186
83525W        W55950  23.417  13.103   4.152
83526W        W55951  23.673   7.245  13.449
83527W        W55952  39.060  36.038  13.436
83528W        W55953  12.875  30.387  10.242
83529W        W55954  10.143  19.149  13.629
83530W        W55955  22.695  38.988   4.394
83531W        W55956  24.506  11.069   2.307
83532W        W55957   1.827   6.986   3.553
83533W        W55958  42.729   1.973  14.604
83534W        W55959  30.705  27.415  10.227
83535W        W55960   3.023   0.701  14.931
83536W        W55961  34.962  44.156  12.092
83537W        W55962  44.374  31.079   0.881
83538W        W55963  28.287  11.671   3.705
83539W        W55964  39.051  43.399   0.333
83540W        W55965  17.533  39.867   0.523
83541W        W55966  15.326  43.502   3.965
83542W        W55967  28.919  24.555   4.569
83543W        W55968  20.464  35.120   0.699
83544W        W55969  22.110  29.620  14.562
83545W        W55970  10.727  15.333  12.893
83546W        W55971  16.640  37.993  13.378
83547W        W55972  10.864  37.425   1.811
83548W        W55973  18.583  22.754   3.272
83549W        W55974  20.370  20.328   3.604
83550W        W55975  42.525  25.176  14.704
83551W        W55976   3.083  28.137   5.060
83552W        W55977   1.009  41.909   1.938
83553W        W55978  16.246  31.591   1.882
83554W        W55979  24.451   0.115   3.251
83555W        W55980  25.116   7.445   4.366
83556W        W55981  44.313  15.074  13.809
83557W        W55982  13.270   8.756  14.287
83558W        W55983  22.531  12.585  10.567
83559W        W55984  44.006  26.118  14.788
83560W        W55985   7.636   2.716   4.135
83561W        W55986  42.865  31.537   1.595
83562W        W55987  21.017   1.820  12.904
83563W        W55988  29.703  32.506  14.358
83564W        W55989  19.978  22.158   1.700
83565W        W55990   5.278  13.329  10.704
83566W        W55991  23.319  40.379   2.469
83567W        W55992  37.889  31.657  10.739
83568W        W55993  29.003  43.253   4.924
83569W        W55994  16.809   0.143   3.386
83570W        W55995   5.878  17.578  10.386
83571W        W55996   5.533  27.235  13.803
83572W        W55997  40.544   9.075  13.990
83573W        W55998  27.070  44.678   3.268
83574W        W55999  14.206  16.217  13.397
83575W        W56000   4.424  29.097   2.287
83576W        W56001  32.123  26.780   5.269
83577W        W56002   5.958  15.205   0.825
83578W        W56003  17.620  14.077  13.482
83579W        W56004  14.896  29.971  12.077
83580W        W56005  20.204  43.885  11.903
83581W        W56006  10.647  16.717  12.130
83582W        W56007  29.102  26.680  12.424
83583W        W56008  24.880  30.125   1.347
83584W        W56009  13.744  11.337   1.969
83585W        W56010   9.877  31.933  10.619
83586W        W56011  32.857   8.925  10.749
83587W        W56012   2.732  10.720  11.186
83588W        W56013   9.698   8.779   3.202
83589W        W56014  41.047  29.531   1.305
83590W        W56015  41.273   2.289   3.291
83591W        W56016  13.494   4.313   2.749
83592W        W56017   0.507  43.308  14.898
83593W        W56018   3.398  21.732  11.519
83594W        W56019  12.501  36.442  12.770
83595W        W56020  34.845  19.218  10.727
83596W        W56021  35.684  20.149  11.202
83597W        W56022  20.955  37.950  13.393
83598W        W56023   6.861  13.713   4.614
83599W        W56024   8.101  27.860   2.528
83600W        W56025   3.344  23.665  12.033
83601W        W56026  11.592  25.715  14.542
83602W        W56027  18.078   8.979  11.166
83603W        W56028  37.978  19.503   4.594
83604W        W56029   9.201  14.426   3.770
83605W        W56030  10.894  23.679  13.823
83606W        W56031  31.174  38.771   3.247
83607W        W56032  16.135   9.133   3.801
83608W        W56033  35.286   4.838  11.123
83609W        W56034  11.435  33.950  10.321
83610W        W56035  13.739  27.183   0.880
83611W        W56036  36.059  32.410  11.493
83612W        W56037  26.554  44.241  10.411
83613W        W56038  11.840  42.885   4.610
83614W        W56039  24.281   2.511  12.169
83615W        W56040  19.669  39.666   4.865
83616W        W56041  42.362   0.571  12.949
83617W        W56042  42.343  13.219   2.339
83618W        W56043   7.809  23.583   3.721
83619W        W56044  28.420   0.824  11.628
83620W        W56045  39.834  21.969  11.219
83621W        W56046  36.488  24.204  11.594
83622W        W56047  42.492   4.810   1.423
83623W        W56048  42.955  34.015   2.201
83624W        W56049  30.757   5.402  14.034
83625W        W56050  35.955  20.340   3.739
83626W        W56051  10.187  29.162   0.885
83627W        W56052  44.695   4.699   3.855
83628W        W56053  28.880   5.200  11.564
83629W        W56054   2.018  13.368   0.345
83630W        W56055   6.716  22.557  14.827
83631W        W56056  17.235  12.965  10.295
83632W        W56057  35.505  14.707  13.998
83633W        W56058   1.270   7.001  12.031
83634W        W56059  37.794  20.659   0.262
83635W        W56060  44.305   2.874   4.076
83636W        W56061  19.040  39.301  11.955
83637W        W56062   9.222   4.171   4.016
83638W        W56063  39.324  22.130  10.476
83639W        W56064  21.934  14.542   0.672
83640W        W56065   0.010  37.482   0.433
83641W        W56066   0.256   3.797   3.688
83642W        W56067  14.171  24.088   1.793
83643W        W56068  27.008  28.575  12.042
83644W        W56069  18.010  26.160  14.331
83645W        W56070  27.534  41.956   1.868
83646W        W56071  41.011  33.708   0.437
83647W        W56072  11.183   5.374  11.471
83648W        W56073  32.190  24.685  13.858
83649W        W56074   8.311  23.165  13.498
83650W        W56075  11.283   9.144  10.266
83651W        W56076  19.585   8.385  10.727
83652W        W56077  37.366  16.301  12.147
83653W        W56078  35.632  13.725  12.499
83654W        W56079  30.589   7.442  11.434
83655W        W56080  26.978   5.373   4.046
83656W        W56081  30.154  42.754   0.092
83657W        W56082   3.230  35.977  12.094
83658W        W56083  18.354  37.033   4.682
83659W        W56084  30.842  24.580   4.776
83660W        W56085   4.135  14.852  14.420
83661W        W56086  33.998  35.165   0.192
83662W        W56087   6.844  42.174  12.001
83663W        W56088   6.696   3.264   2.249
83664W        W56089  38.271  36.364   1.751
83665W        W56090  42.474  36.884  13.744
83666W        W56091   1.920   6.674   3.119
83667W        W56092  19.211  32.890  13.830
83668W        W56093  10.251   1.070  12.089
83669W        W56094  11.145  36.848   3.667
83670W        W56095  13.767   3.731   0.709
83671W        W56096  39.372  19.863  10.521
83672W        W56097  22.987   2.527   3.556
83673W        W56098  16.340   2.895  13.124
83674W        W56099  19.722  28.982   1.013
83675W        W56100  32.486  12.123   1.284
83676W        W56101   9.313  21.287   3.772
83677W        W56102  26.231  31.537   0.305
83678W        W56103  35.620  19.038  14.925
83679W        W56104  15.276  17.108  10.516
83680W        W56105  18.674  11.128  13.621
83681W        W56106  25.389  21.724   2.768
83682W        W56107   7.437   7.456  14.730
83683W        W56108  30.554  30.979   3.672
83684W        W56109  35.388  43.867  12.012
83685W        W56110  14.845   1.797   2.198
83686W        W56111  35.847   3.001  14.355
83687W        W56112  36.062  44.417  14.034
83688W        W56113  32.801  18.677   3.124
83689W        W56114  21.229  21.760  11.410
83690W        W56115  28.427  22.371   1.242
83691W        W56116  16.728  23.564   4.291
83692W        W56117   6.891   8.463  12.673
83693W        W56118   5.488  31.592  12.306
83694W        W56119   8.422  25.750  11.989
83695W        W56120   2.193  24.355   2.405
83696W        W56121  34.068  35.375  12.948
83697W        W56122  28.043  41.336   4.658
83698W        W56123  25.678   0.464   3.927
83699W        W56124  11.846  21.159   2.591
83700W        W56125  20.556   7.835  11.198
83701W        W56126   9.645  17.279   2.804
83702W        W56127   8.290   3.487   0.299
83703W        W56128  38.025  16.623   0.047
83704W        W56129   6.134  29.833   3.916
83705W        W56130  10.178  17.740   4.986
83706W        W56131  41.990   3.054  13.752
83707W        W56132  21.684   0.944  12.071
83708W        W56133   6.746  42.782   1.678
83709W        W56134  40.355  15.578   0.341
83710W        W56135  21.509  34.400  13.224
83711W        W56136  31.055  35.078  11.947
83712W        W56137  41.516  18.235  13.460
83713W        W56138   2.901  26.950   3.331
83714W        W56139  38.146   6.790   2.776
83715W        W56140  44.495  14.189   3.923
83716W        W56141  31.571  16.852   5.809
83717W        W56142  19.165  14.247   4.584
83718W        W56143  31.220  37.381  11.893
83719W        W56144  28.015  36.532  14.185
83720W        W56145  26.995  32.989  11.594
83721W        W56146   8.302  17.757  14.242
83722W        W56147  29.589  11.312  13.078
83723W        W56148   1.647   0.840  13.940
83724W        W56149   8.823   4.731  10.652
83725W        W56150  16.162   1.192   1.213
83726W        W56151  15.015  20.549  14.025
83727W        W56152  33.544   4.144  10.747
83728W        W56153  20.172   2.678  12.442
83729W        W56154  26.609  11.696  11.105
83730W        W56155  15.779   5.385  13.441
83731W        W56156  11.580   3.925  10.896
83732W        W56157  12.158  43.899   0.779
83733W        W56158   6.702  28.561  10.548
83734W        W56159  31.630   8.399   2.282
83735W        W56160  24.500   0.254  12.076
83736W        W56161   8.629  31.045   2.716
83737W        W56162  39.609  39.464   4.681
83738W        W56163   9.290  32.659   0.462
83739W        W56164   7.184  31.228   0.906
83740W        W56165  29.966  34.601  11.112
83741W        W56166  43.316  35.951   2.667
83742W        W56167  40.177  22.100   3.133
83743W        W56168  43.339  22.723   2.898
83744W        W56169  14.128   3.359  13.079
83745W        W56170  15.320  13.031   4.044
83746W        W56171  21.090  38.579  10.113
83747W        W56172   3.227   5.867   3.637
83748W        W56173  37.165  22.813   9.736
83749W        W56174  11.753  19.668   3.077
83750W        W56175  17.919  40.552  13.058
83751W        W56176  29.708  11.531   0.788
83752W        W56177  27.720  10.559  11.033
83753W        W56178  41.550   0.281  11.573
83754W        W56179  42.281  34.963   3.728
83755W        W56180  27.814   7.696   5.079
83756W        W56181   2.741  40.102   3.484
83757W        W56182  36.603  31.421   1.840
83758W        W56183  27.416  23.629   0.270
83759W        W56184  28.077  43.493  11.872
83760W        W56185   0.883  44.746  13.088
83761W        W56186  31.946  22.982  13.448
83762W        W56187  34.574   3.428   3.921
83763W        W56188  15.596  26.524  13.168
83764W        W56189  31.130   4.405  12.004
83765W        W56190   2.220  31.662   0.753
83766W        W56191  13.192   1.739   1.370
83767W        W56192  30.075  40.464  13.946
83768W        W56193   2.384  32.886   3.805
83769W        W56194  33.146  33.447   0.943
83770W        W56195   6.778  29.929   3.170
83771W        W56196  12.973  35.777  12.014
83772W        W56197  42.550   5.377  13.286
83773W        W56198  23.085  12.797  11.394
83774W        W56199  21.304  40.540  12.796
83775W        W56200   1.029   1.246  11.729
83776W        W56201  32.920  29.624   2.435
83777W        W56202  32.003  12.225   1.026
83778W        W56203  20.210   6.234  13.354
83779W        W56204  18.729  35.416   0.970
83780W        W56205   0.348  35.862   4.861
83781W        W56206  42.817  37.108  12.011
83782W        W56207   7.345  17.225  11.508
83783W        W56208  14.140  14.918   2.264
83784W        W56209  37.093   2.721   5.204
83785W        W56210  27.012  11.633  10.539
83786W        W56211   4.355   5.933  11.257
83787W        W56212  24.974   0.918  12.550
83788W        W56213   9.071  32.096   5.068
83789W        W56214   5.185  40.305  12.302
83790W        W56215  26.738  39.592   2.894
83791W        W56216  13.201   8.217  10.720
83792W        W56217  35.858  26.530  13.487
83793W        W56218   0.427   4.153  12.532
83794W        W56219   2.139   5.356  14.236
83795W        W56220  21.647  43.902   1.497
83796W        W56221  13.848  12.156   4.161
83797W        W56222  44.890  34.509   2.689
83798W        W56223  12.565  35.483   1.408
83799W        W56224   0.900   4.918  11.442
83800W        W56225   6.359  33.453   2.101
83801W        W56226  23.238  15.788   4.279
83802W        W56227  24.408   3.455  11.964
83803W        W56228  35.093   0.207  13.353
83804W        W56229  13.795  34.871  12.541
83805W        W56230  24.069  26.508  10.760
83806W        W56231  41.383  11.706   2.836
83807W        W56232  16.881  44.718   1.741
83808W        W56233  32.205  42.935   0.972
83809W        W56234  44.269  28.802  11.608
83810W        W56235  22.748  33.190  13.148
83811W        W56236   2.835  25.697   3.584
83812W        W56237  32.799  39.526   1.261
83813W        W56238  31.737  22.190  13.780
83814W        W56239   2.394  16.505   4.736
83815W        W56240  27.129  44.895  14.762
83816W        W56241  15.602   4.279   4.266
83817W        W56242  37.222   6.720  12.451
83818W        W56243  28.650  20.022  14.046
83819W        W56244  40.333  25.426   0.814
83820W        W56245   8.104  34.073  13.864
83821W        W56246  14.856  13.627   3.819
83822W        W56247  18.327  28.649  13.457
83823W        W56248  43.061   1.173   4.251
83824W        W56249  12.551   4.629  13.012
83825W        W56250   3.406   8.496   1.231
83826W        W56251   1.474  12.413  10.574
83827W        W56252  43.750  25.069  11.371
83828W        W56253   4.549   1.066  12.186
83829W        W56254  31.112  13.334   4.014
83830W        W56255  29.603  12.339   2.288
83831W        W56256  19.149  38.074   1.220
83832W        W56257   3.740   7.836  14.564
83833W        W56258  22.326  36.300  12.651
83834W        W56259  24.251  14.067   4.124
83835W        W56260   1.276  24.554  10.613
83836W        W56261  36.880   7.423  13.037
83837W        W56262  43.220  25.678   1.241
83838W        W56263  42.409   9.729  13.423
83839W        W56264   3.054  31.808   1.872
83840W        W56265  38.399  14.795   0.220
83841W        W56266  37.305  25.748  13.503
83842W        W56267  37.801  41.249   2.318
83843W        W56268  37.700  32.111  12.084
83844W        W56269  19.130  35.077  10.733
83845W        W56270  13.437  40.066  12.579
83846W        W56271  16.094  27.008   1.372
83847W        W56272  19.075   9.355  12.039
83848W        W56273  43.037  31.919   0.892
83849W        W56274  11.586  22.766   1.843
83850W        W56275  23.562   7.623   2.739
83851W        W56276  21.960  20.667   3.722
83852W        W56277   1.459  25.048  10.838
83853W        W56278   1.005  25.253   3.659
83854W        W56279   1.862   7.784   2.895
83855W        W56280   2.988  34.550  12.068
83856W        W56281  33.596  32.146   1.872
83857W        W56282  11.868  38.490  11.399
83858W        W56283  39.004  16.786  13.043
83859W        W56284  30.243  35.848  14.280
83860W        W56285   2.990   3.804   0.890
83861W        W56286  27.958  25.727   3.683
83862W        W56287  14.513  15.307  14.347
83863W        W56288   2.254  15.711  14.568
83864W        W56289  36.021  30.127   2.806
83865W        W56290  12.995  12.340   4.609
83866W        W56291   8.823  36.594  12.464
83867W        W56292  18.569  18.047  11.864
83868W        W56293  22.625  37.939  10.971
83869W        W56294  40.801  36.684   3.161
83870W        W56295   6.497  21.470   0.436
83871W        W56296  32.074   1.076   4.106
83872W        W56297   3.258  17.653   2.834
83873W        W56298  25.585  24.977  11.024
83874W        W56299   8.430  44.005   2.612
83875W        W56300   6.181  14.999   1.715
83876W        W56301  33.844  18.509  14.287
83877W        W56302  14.295  43.598  13.954
83878W        W56303   4.797  13.703   4.905
83879W        W56304  37.536   5.025   1.320
83880W        W56305  33.817  36.023  11.887
83881W        W56306  13.343  12.886   4.947
83882W        W56307  23.104  34.145  10.666
83883W        W56308   4.656  10.330  11.735
83884W        W56309   6.915   5.794  12.391
83885W        W56310  39.517  34.401  13.419
83886W        W56311  12.722  26.750  10.783
83887W        W56312  29.461   4.253  14.523
83888W        W56313  29.028  33.743   4.102
83889W        W56314   2.186  30.024   3.597
83890W        W56315  32.570   5.358   2.623
83891W        W56316  25.948  35.398   3.577
83892W        W56317  22.294  25.710  11.105
83893W        W56318  28.467  23.578   1.905
83894W        W56319  39.289  17.250  10.520
83895W        W56320  13.370  33.198  12.478
83896W        W56321  23.457  23.151   2.280
83897W        W56322  10.829  43.446  13.222
83898W        W56323  24.188  24.687   4.621
83899W        W56324  26.514  18.353  11.143
83900W        W56325  17.533  12.592   1.337
83901W        W56326  31.542  25.499  12.530
83902W        W56327  13.716  20.484   3.731
83903W        W56328  21.669  19.967   2.283
83904W        W56329  24.616  10.947   4.624
83905W        W56330  34.210  13.873  11.269
83906W        W56331  26.190  28.992   0.387
83907W        W56332  32.539  22.724  13.579
83908W        W56333  15.757  18.572   4.363
83909W        W56334  25.211  33.383   1.949
83910W        W56335  40.096  24.012   4.433
83911W        W56336  22.520  30.734   1.928
83912W        W56337  23.008  31.577   1.808
83913W        W56338  17.096  37.348  10.527
83914W        W56339   9.207  33.995  11.207
83915W        W56340   0.468  22.264   0.004
83916W        W56341  11.770  29.713  13.123
83917W        W56342  14.937  10.378  11.476
83918W        W56343  31.918  16.866   2.411
83919W        W56344  37.497   7.580   0.419
83920W        W56345  34.073   1.680   3.747
83921W        W56346  29.160  16.120   4.820
83922W        W56347  27.770  41.151   2.859
83923W        W56348  17.624  44.416   2.677
83924W        W56349  40.759  35.995  14.339
83925W        W56350  36.775  19.044  12.498
83926W        W56351  19.711   6.453   3.241
83927W        W56352  26.571  41.773   3.318
83928W        W56353  16.781  30.183  13.738
83929W        W56354   2.811  24.963  12.352
83930W        W56355  41.316   6.487   2.133
83931W        W56356   2.771  26.993   0.691
83932W        W56357  35.459  40.383  11.915
83933W        W56358  24.920  24.592   3.213
83934W        W56359   3.986  11.875  11.733
83935W        W56360  33.583  42.611  12.638
83936W        W56361  35.854   1.984  11.260
83937W        W56362  33.104  41.493   2.178
83938W        W56363  35.524  29.454   2.403
83939W        W56364   4.838   2.951  10.678
83940W        W56365  40.439   2.885   0.792
83941W        W56366  10.321  24.717  13.236
83942W        W56367  27.252  18.228   2.668
83943W        W56368   4.971  24.760   1.642
83944W        W56369  31.058   4.762   4.068
83945W        W56370  37.746  27.418   3.228
83946W        W56371  23.721   6.147   0.818
83947W        W56372  26.014  24.036   4.146
83948W        W56373  15.445  15.015   3.174
83949W        W56374  40.061  25.378   2.380
83950W        W56375  10.419  43.701  13.517
83951W        W56376  24.615  15.223   0.758
83952W        W56377  30.584  35.426   4.729
83953W        W56378  10.228  41.249  10.495
83954W        W56379   3.860  36.148  11.623
83955W        W56380  43.524   5.290  12.903
83956W        W56381  17.567   9.438   1.968
83957W        W56382  39.364  44.895   2.006
83958W        W56383  34.603  22.283   3.113
83959W        W56384  34.670  28.069   0.261
83960W        W56385  25.638  42.929   5.035
83961W        W56386  30.867   7.899  13.320
83962W        W56387  22.756  13.154  11.582
83963W        W56388  41.332  15.290  13.417
83964W        W56389   1.224   5.248  14.086
83965W        W56390   6.660  23.409   1.368
83966W        W56391  18.348  38.304   4.047
83967W        W56392  44.903  24.889   0.904
83968W        W56393  36.260  38.793   0.457
83969W        W56394  14.816  37.672  14.394
83970W        W56395  10.346  35.884   4.359
83971W        W56396  15.346  24.630   3.701
83972W        W56397  16.829  43.299   4.521
83973W        W56398   4.579  11.428   2.912
83974W        W56399  30.418  21.260  13.347
83975W        W56400  15.796  32.568  13.174
83976W        W56401  42.768  34.526   3.237
83977W        W56402  32.689  17.849   5.149
83978W        W56403  26.126  44.889   3.645
83979W        W56404  42.679  31.647   1.132
83980W        W56405  13.493  35.602   0.432
83981W        W56406  16.615  41.436   2.624
83982W        W56407  35.357  32.643   1.869
83983W        W56408  32.460   6.213  12.109
83984W        W56409  38.142  42.880  14.302
83985W        W56410  42.629   0.804   3.524
83986W        W56411  24.602  13.315  11.463
83987W        W56412  28.839  37.488  13.360
83988W        W56413  35.111  22.760   5.343
83989W        W56414  20.506  38.478   0.324
83990W        W56415  38.035  25.549  11.478
83991W        W56416  34.189   8.157   0.250
83992W        W56417  20.553   1.584   1.285
83993W        W56418  22.649  27.649  11.092
83994W        W56419  12.000  12.299   3.287
83995W        W56420   5.730  38.118  12.479
83996W        W56421  18.414  24.994   1.405
83997W        W56422  31.470  42.133   1.700
83998W        W56423  25.726  42.517   0.417
83999W        W56424   7.291  41.294  12.042
84000W        W56425  16.283  17.672  14.856
84001W        W56426   2.285  38.971  10.977
84002W        W56427  24.147  27.573  13.476
84003W        W56428  37.522  41.821   0.902
84004W        W56429  41.308  32.668  11.862
84005W        W56430  15.390  39.887   2.408
84006W        W56431  39.805  18.019  10.953
84007W        W56432  32.853  14.504   3.405
84008W        W56433  27.109  18.680   0.170
84009W        W56434  40.203  28.455  14.236
84010W        W56435  25.744  22.010  13.949
84011W        W56436  36.995  36.546   4.866
84012W        W56437  35.938  22.630   5.079
84013W        W56438  32.287  33.518  14.754
84014W        W56439  35.634  18.095  14.666
84015W        W56440  20.190  35.651   2.341
84016W        W56441  43.672  34.574   0.237
84017W        W56442  14.205  17.041  13.292
84018W        W56443   6.206  44.795   1.247
84019W        W56444  15.094  22.689  10.134
84020W        W56445  38.066  35.064  11.079
84021W        W56446   3.948  35.799  12.429
84022W        W56447  18.158  41.994   2.374
84023W        W56448   8.147  13.851  10.420
84024W        W56449   7.428  10.176   3.848
84025W        W56450  38.327   7.464  13.019
84026W        W56451  17.524  32.904   0.639
84027W        W56452  43.894  40.352  14.106
84028W        W56453  20.581  13.161  12.069
84029W        W56454   7.730  31.666  11.954
84030W        W56455  35.814  42.815   4.802
84031W        W56456  10.269   3.743   0.969
84032W        W56457  35.464  22.158  12.405
84033W        W56458  41.882  31.106   1.414
84034W        W56459  25.178  14.245   0.878
84035W        W56460  38.357  43.214  10.095
84036W        W56461  40.036  39.422  11.880
84037W        W56462   1.812   8.708   2.339
84038W        W56463  42.833  44.724  11.530
84039W        W56464  19.561  44.320  13.402
84040W        W56465  33.572  33.044  12.077
84041W        W56466   0.748  41.922  14.244
84042W        W56467  28.824   0.724  12.876
84043W        W56468   9.310   4.862  12.478
84044W        W56469   2.762  32.869   4.164
84045W        W56470  18.253   4.849   1.370
84046W        W56471  13.254  25.928  14.953
84047W        W56472   2.994  22.649   2.263
84048W        W56473   4.806  25.158   2.604
84049W        W56474  42.639  39.698   0.391
84050W        W56475  31.117   7.147   4.611
84051W        W56476  26.917   8.307   2.844
84052W        W56477  40.840  19.556  11.006
84053W        W56478   9.237  12.736   0.167
84054W        W56479  20.024  34.140  11.104
84055W        W56480  41.346  31.154   4.147
84056W        W56481  36.668   7.816  10.487
84057W        W56482  40.419   5.164  12.565
84058W        W56483  30.429  12.609  14.122
84059W        W56484  44.199  20.023   0.693
84060W        W56485  12.838  34.575  11.520
84061W        W56486  10.377  31.142  14.876
84062W        W56487   0.442  18.152  12.232
84063W        W56488  37.638  19.340   3.170
84064W        W56489  39.154  42.798   5.387
84065W        W56490  24.310  38.611  12.146
84066W        W56491   6.693   5.423   0.255
84067W        W56492   3.080  35.676  10.385
84068W        W56493  41.083   5.953  11.226
84069W        W56494  35.845  25.242   3.722
84070W        W56495  33.470  33.088  13.973
84071W        W56496  40.111  34.703  12.608
84072W        W56497  15.309  35.355   3.638
84073W        W56498  38.578  41.846  12.601
84074W        W56499  35.421  40.234  13.863
84075W        W56500  40.963  30.492  12.195
84076W        W56501  14.354  37.427   2.451
84077W        W56502  33.186  30.286   1.725
84078W        W56503  42.825  16.130  11.465
84079W        W56504  42.543  26.261  14.257
84080W        W56505  40.248   8.537  13.241
84081W        W56506   2.439  43.405   1.806
84082W        W56507  27.070   8.199   0.744
84083W        W56508  32.875   3.467   3.544
84084W        W56509   0.294   4.788  10.731
84085W        W56510  11.646   3.353  14.839
84086W        W56511   4.972  43.647   0.783
84087W        W56512  31.394  19.073  14.815
84088W        W56513  21.075  43.830   4.060
84089W        W56514  28.056  23.516  11.599
84090W        W56515  27.421   3.414  13.311
84091W        W56516  10.198   5.985  12.658
84092W        W56517  44.313  12.394   3.661
84093W        W56518  21.631   4.513  13.329
84094W        W56519  29.862  43.510  12.364
84095W        W56520  33.673   3.460   2.811
84096W        W56521  23.265  30.581   0.698
84097W        W56522  18.597  20.448   3.879
84098W        W56523  41.484  33.961  12.503
84099W        W56524  27.267  16.398   1.901
84100W        W56525  32.005   0.953   3.584
84101W        W56526  17.878  43.810   1.670
84102W        W56527  17.738   9.578   3.850
84103W        W56528  33.327   8.831   2.724
84104W        W56529  31.371  24.710   0.370
84105W        W56530  12.873  40.907   2.276
84106W        W56531   2.328  21.650   1.294
84107W        W56532  34.301  35.580   0.281
84108W        W56533   9.634   9.246  11.132
84109W        W56534   1.530  40.742  12.708
84110W        W56535   8.206  26.194   2.357
84111W        W56536   3.386  32.572  13.621
84112W        W56537  22.195  21.181   2.315
84113W        W56538  26.787   9.788   1.970
84114W        W56539  16.509   1.312   4.209
84115W        W56540  35.074  27.213   3.066
84116W        W56541   7.226  40.335  14.867
84117W        W56542  22.768  13.078   0.764
84118W        W56543  13.913   4.730  11.720
84119W        W56544  22.661   6.373   0.886
84120W        W56545  24.454   3.791  14.118
84121W        W56546   4.404  29.590  13.348
84122W        W56547  33.841  18.746   3.228
84123W        W56548  21.970  14.171  11.549
84124W        W56549  31.008  43.905  11.372
84125W        W56550  42.877  15.062  10.230
84126W        W56551   6.397  10.344  12.643
84127W        W56552  13.138  24.791   4.285
84128W        W56553  29.393  14.489  14.429
84129W        W56554  17.304  20.255  12.152
84130W        W56555  41.908  17.627  11.218
84131W        W56556   8.198   3.713   4.380
84132W        W56557  34.400  25.160   1.004
84133W        W56558  13.768  32.426  14.839
84134W        W56559  11.767  19.053   0.553
84135W        W56560  44.913   5.596   3.252
84136W        W56561  41.399   9.369  13.997
84137W        W56562   4.227  10.148   1.234
84138W        W56563  15.273  26.548   3.888
84139W        W56564  40.050   1.882  12.384
84140W        W56565  18.161  33.525  11.552
84141W        W56566  24.967   1.274  11.244
84142W        W56567   7.762   8.779  10.702
84143W        W56568  13.714  27.642  14.511
84144W        W56569  44.054  13.319   0.910
84145W        W56570  11.427  42.836   9.793
84146W        W56571  44.822   2.404  14.247
84147W        W56572   4.879  17.713  11.971
84148W        W56573  24.148   9.656  10.788
84149W        W56574   1.870   7.193  11.282
84150W        W56575  42.992  18.460  14.978
84151W        W56576  39.427  22.650   3.929
84152W        W56577  12.929  28.030   3.690
84153W        W56578  44.499  44.426  10.182
84154W        W56579  44.035   1.615  14.805
84155W        W56580  35.215  23.610  10.317
84156W        W56581  11.643   4.331   0.778
84157W        W56582   0.747   4.396   0.817
84158W        W56583  29.441   5.957  13.892
84159W        W56584  14.526  39.368  12.022
84160W        W56585  37.985  29.056  11.502
84161W        W56586   8.802  33.894   4.608
84162W        W56587  36.957   7.661  12.588
84163W        W56588  38.576  19.231   1.654
84164W        W56589   2.878  26.218   1.524
84165W        W56590   4.849  33.056   1.799
84166W        W56591  15.764  16.253   1.269
84167W        W56592  34.163  35.173  14.318
84168W        W56593   8.342  22.622   0.748
84169W        W56594  14.660   9.252  14.532
84170W        W56595  44.948  21.453  14.980
84171W        W56596  42.040   8.268   2.095
84172W        W56597  38.182  22.962  11.456
84173W        W56598  37.564  32.789   3.052
84174W        W56599   8.443  20.118  14.419
84175W        W56600   8.883   2.285   1.424
84176W        W56601   9.908  25.662  11.882
84177W        W56602  11.831  11.232   2.916
84178W        W56603  32.989  30.360  11.484
84179W        W56604   1.508  26.787  11.439
84180W        W56605  22.719  15.158   0.608
84181W        W56606  42.150  39.368  12.434
84182W        W56607  10.224   9.334   5.053
84183W        W56608  12.184  22.362   1.954
84184W        W56609   4.780   6.726  11.355
84185W        W56610  41.568  13.069  10.712
84186W        W56611  41.991  41.971  13.517
84187W        W56612  26.417  23.579  13.505
84188W        W56613   2.833  25.373   0.928
84189W        W56614  11.154   9.344   2.771
84190W        W56615   9.327   0.833   3.662
84191W        W56616  37.958   7.260   1.242
84192W        W56617  30.553  11.750   3.180
84193W        W56618  15.028  24.814  12.931
84194W        W56619  41.954  18.718   4.930
84195W        W56620  44.527  15.003  14.383
84196W        W56621  18.415   7.351   2.402
84197W        W56622   4.460  15.424   3.179
84198W        W56623  37.564  25.894   4.079
84199W        W56624  39.790  41.479   5.287
84200W        W56625   1.850  17.774   3.633
84201W        W56626   2.469  41.380   4.737
84202W        W56627  24.051  39.410  14.704
84203W        W56628  44.839  40.580   2.870
84204W        W56629   6.436  39.110  14.414
84205W        W56630  32.334  37.850  10.735
84206W        W56631   1.908  40.656   3.553
84207W        W56632  27.746  39.822   0.588
84208W        W56633  11.887  40.896  10.361
84209W        W56634  15.698  44.669  14.334
84210W        W56635  32.091  39.558   0.929
84211W        W56636  43.990  31.352  13.834
84212W        W56637  15.195  28.683   1.332
84213W        W56638  40.353  42.482  12.911
84214W        W56639  29.025  25.966   4.118
84215W        W56640   2.293  10.254   4.393
84216W        W56641  28.660   4.892  13.525
84217W        W56642  28.445  38.860   3.290
84218W        W56643  43.034  11.758   2.201
84219W        W56644   2.560  42.064  11.531
84220W        W56645   2.636  31.986   3.887
84221W        W56646  28.043  41.694  13.826
84222W        W56647   0.466   8.673  12.462
84223W        W56648  21.110  39.399   0.711
84224W        W56649  13.188  28.891  11.057
84225W        W56650  28.373  28.503   0.523
84226W        W56651  38.024  38.987  10.279
84227W        W56652  35.002  24.103   5.124
84228W        W56653   6.211   2.076  13.372
84229W        W56654  29.459  14.379   4.186
84230W        W56655  21.322  16.062  12.176
84231W        W56656  35.380  25.936  14.881
84232W        W56657  26.066   9.663   4.083
84233W        W56658  44.659  40.802   0.907
84234W        W56659  16.554   4.771   2.817
84235W        W56660  39.588  14.131  11.473
84236W        W56661  44.754   4.398  13.362
84237W        W56662  23.597  20.035   4.756
84238W        W56663   2.420  22.296  13.936
84239W        W56664  33.065  22.457   0.827
84240W        W56665  19.409   3.021  14.202
84241W        W56666  33.756   1.411  12.037
84242W        W56667   0.210  41.435   0.513
84243W        W56668   1.347  24.121  10.905
84244W        W56669  18.593  40.487  11.268
84245W        W56670   7.726  34.900  13.907
84246W        W56671  14.645  14.177  12.088
84247W        W56672  29.046  33.872   3.608
84248W        W56673  41.915  30.870   2.405
84249W        W56674  10.212  13.552   2.705
84250W        W56675  13.219  36.094  14.729
84251W        W56676  20.707  20.491  14.504
84252W        W56677   4.862  36.220  14.990
84253W        W56678   0.040  22.877  14.140
84254W        W56679  39.180  23.241   1.960
84255W        W56680  39.502  36.393   2.312
84256W        W56681   0.491  33.367   0.329
84257W        W56682   9.039  41.897  14.591
84258W        W56683  16.316  14.121  12.531
84259W        W56684  10.721  36.413  13.298
84260W        W56685   2.450   8.784   0.322
84261W        W56686  34.813  14.881   3.136
84262W        W56687  30.194  40.843  12.401
84263W        W56688  33.456  26.703  12.125
84264W        W56689  10.233  24.441  10.658
84265W        W56690  30.981   6.129   4.834
84266W        W56691  16.350  44.914  13.595
84267W        W56692  14.828  22.100   5.208
84268W        W56693  12.158  41.236   0.458
84269W        W56694  30.536  35.549   3.750
84270W        W56695   3.482  39.017  10.351
84271W        W56696  14.613  41.220  14.330
84272W        W56697  13.751  40.080   3.714
84273W        W56698   8.030  24.294  12.074
84274W        W56699  34.402  22.255  12.920
84275W        W56700  39.918  22.889   3.239
84276W        W56701  12.637  41.339   3.415
84277W        W56702  38.575   5.849  11.123
84278W        W56703  32.647   8.714  12.561
84279W        W56704  27.291  33.464  11.030
84280W        W56705  42.397  18.613   3.210
84281W        W56706   0.045  36.572   1.996
84282W        W56707  13.614  13.174  11.170
84283W        W56708  35.483  42.039  13.353
84284W        W56709  33.392  30.878   1.227
84285W        W56710  38.673  17.402  12.621
84286W        W56711  25.650   4.171   2.722
84287W        W56712   8.243   2.699  11.627
84288W        W56713  41.594  20.132   2.353
84289W        W56714   6.340  40.939  12.057
84290W        W56715  21.742  34.572  10.521
84291W        W56716  35.058  37.821   0.436
84292W        W56717  21.940  21.024  14.445
84293W        W56718  44.252   8.172  14.340
84294W        W56719  12.205  21.385   1.784
84295W        W56720  32.920  33.528  13.886
84296W        W56721  17.036  35.524   2.574
84297W        W56722  34.852  11.097   2.758
84298W        W56723  29.652  32.111   3.494
84299W        W56724   8.472  39.802   2.316
84300W        W56725  19.517   9.438  14.333
84301W        W56726  14.208  42.415  11.784
84302W        W56727  15.714  13.557  14.383
84303W        W56728  38.431  24.606  12.440
84304W        W56729  14.160  41.808  13.123
84305W        W56730   2.076  18.175   4.264
84306W        W56731  15.812  25.195   0.393
84307W        W56732  44.091  27.822   2.716
84308W        W56733  12.213  28.711  11.382
84309W        W56734   3.345  23.616   2.386
84310W        W56735   5.043  13.847  13.905
84311W        W56736  27.277  32.766  13.436
84312W        W56737  19.047   0.877   3.153
84313W        W56738   2.312   8.320  12.073
84314W        W56739  27.172  27.908  10.622
84315W        W56740   6.235   5.617   1.057
84316W        W56741  25.472   6.284  14.860
84317W        W56742   4.416  28.422  11.988
84318W        W56743  43.244  42.364   2.158
84319W        W56744  20.659  37.871  12.306
84320W        W56745  42.950   6.606  14.923
84321W        W56746  37.996   4.686  13.175
84322W        W56747  43.037  13.548  11.244
84323W        W56748   5.237   7.886   2.885
84324W        W56749  16.622  32.391  11.628
84325W        W56750  10.223  35.432   5.084
84326W        W56751  19.230  29.579  13.992
84327W        W56752  17.126  18.265   2.877
84328W        W56753   9.357  36.844   3.009
84329W        W56754  44.368  28.659  11.132
84330W        W56755  39.631  32.139  14.995
84331W        W56756   2.966   0.224   2.686
84332W        W56757  31.266   3.394   2.727
84333W        W56758  16.608  44.386   3.574
84334W        W56759  28.312  18.149   2.631
84335W        W56760  25.171   2.348  11.660
84336W        W56761  25.031   0.921   1.137
84337W        W56762  38.092  42.439  10.495
84338W        W56763   5.385  37.066  10.321
84339W        W56764  21.226  44.904  14.246
84340W        W56765  11.713  10.541   2.381
84341W        W56766  44.195   9.097   4.531
84342W        W56767  24.341  26.548   1.295
84343W        W56768   5.868  21.177   3.855
84344W        W56769  40.046  42.202  14.038
84345W        W56770  22.213  37.334  13.278
84346W        W56771  10.710  31.549  10.755
84347W        W56772  39.212   6.298   3.124
84348W        W56773  33.471   2.775   3.922
84349W        W56774  27.012  43.872   0.468
84350W        W56775  33.188  26.527   1.820
84351W        W56776  32.807  41.140   0.381
84352W        W56777   4.720  41.792  10.592
84353W        W56778   1.726  11.745  13.662
84354W        W56779   4.648  25.465  12.575
84355W        W56780  38.116  17.238   1.734
84356W        W56781   2.213  20.592   4.660
84357W        W56782   7.051   1.267  10.546
84358W        W56783   8.906   0.445  13.934
84359W        W56784  28.492  33.671   5.310
84360W        W56785  17.841  27.718   3.659
84361W        W56786  25.895   3.245   4.539
84362W        W56787   1.436  26.199   1.635
84363W        W56788  27.794  36.613  12.704
84364W        W56789  28.980  11.598   4.904
84365W        W56790   1.372  30.783   2.677
84366W        W56791  32.673  37.479  13.500
84367W        W56792  44.976  12.901   5.206
84368W        W56793  27.670  37.297  12.930
84369W        W56794  29.505   6.410   4.532
84370W        W56795   8.970  11.709   4.884
84371W        W56796  43.910  29.174   0.421
84372W        W56797  39.908  39.287  14.484
84373W        W56798  35.335  34.619   0.307
84374W        W56799  16.806  38.386   1.427
84375W        W56800  25.940  24.127  11.898
84376W        W56801  23.958  13.716  12.563
84377W        W56802  10.858  22.242  12.991
84378W        W56803  35.432  42.903   5.134
84379W        W56804   2.074  31.116   2.217
84380W        W56805  18.115  44.342   2.782
84381W        W56806   7.932   5.960  11.935
84382W        W56807  26.755  24.117  14.328
84383W        W56808  20.457  25.632  11.915
84384W        W56809  33.883  30.108   4.159
84385W        W56810   4.770  25.149  14.885
84386W        W56811  17.790   6.743  13.897
84387W        W56812  25.511  38.889  14.327
84388W        W56813  32.040   1.516   3.315
84389W        W56814  17.362  10.096   0.712
84390W        W56815   2.315   8.349   3.620
84391W        W56816  26.867  32.919   1.197
84392W        W56817  23.073  23.178   0.625
84393W        W56818  35.904   4.422  11.373
84394W        W56819  37.590   1.507  13.507
84395W        W56820  15.350  21.113  12.917
84396W        W56821   0.046   6.810   3.717
84397W        W56822   7.681  18.755  13.069
84398W        W56823   3.174  40.960  14.288
84399W        W56824  35.681   5.760   2.508
84400W        W56825  13.099  24.687  12.446
84401W        W56826  37.515  42.075   3.237
84402W        W56827  40.765  22.350   1.427
84403W        W56828   7.789  31.475   0.210
84404W        W56829  44.814  40.758   2.249
84405W        W56830  23.669  44.360  13.797
84406W        W56831   1.827  35.914   0.784
84407W        W56832  11.621  24.006  14.122
84408W        W56833  22.282  31.876   0.433
84409W        W56834   8.319  22.242  11.945
84410W        W56835  38.939   6.496  13.490
84411W        W56836  15.135   8.584   4.035
84412W        W56837  15.310  43.454   0.469
84413W        W56838   7.901   9.694   1.357
84414W        W56839  34.231   0.144  12.344
84415W        W56840  11.809   5.340  10.700
84416W        W56841   3.373   8.872   1.777
84417W        W56842   1.661  30.459  14.905
84418W        W56843   8.309   5.433   1.215
84419W        W56844  17.626  30.332   9.753
84420W        W56845  28.588   3.518   2.935
84421W        W56846  12.806  37.561   2.917
84422W        W56847  33.931  23.542   2.954
84423W        W56848  16.767  25.157   0.195
84424W        W56849  34.505  43.493   4.236
84425W        W56850  17.215  18.325   0.692
84426W        W56851   3.438   8.604  10.651
84427W        W56852  34.194  22.832   1.835
84428W        W56853  30.894  26.713  13.451
84429W        W56854  35.354  12.636   2.982
84430W        W56855  26.609   7.486  14.062
84431W        W56856  38.482  18.706   1.953
84432W        W56857   9.215  20.149   4.002
84433W        W56858  44.432  15.680  14.264
84434W        W56859  15.151  34.933  11.338
84435W        W56860  40.799   1.196   3.252
84436W        W56861  27.119   2.054   3.292
84437W        W56862  44.978  17.656   2.179
84438W        W56863  17.055   0.553  11.368
84439W        W56864  19.584   5.425  12.514
84440W        W56865   3.524  44.745   1.878
84441W        W56866  26.097  41.268   3.629
84442W        W56867   0.298  33.518   4.217
84443W        W56868  11.248  25.705   2.354
84444W        W56869  30.610  19.551  14.559
84445W        W56870   4.945  17.598   3.105
84446W        W56871  43.862  23.292   0.478
84447W        W56872  13.513  43.275  14.679
84448W        W56873  35.147  43.059  12.506
84449W        W56874   5.175  11.881   4.482
84450W        W56875  33.026   5.158   1.735
84451W        W56876  40.841  36.952  11.117
84452W        W56877  36.680  38.927  13.590
84453W        W56878  41.389  12.282  13.556
84454W        W56879   4.066  33.177   3.909
84455W        W56880  11.039  34.953   4.389
84456W        W56881  11.852  21.616   3.404
84457W        W56882  35.796  25.475  13.356
84458W        W56883  34.614  33.747  13.917
84459W        W56884   3.863  25.176   4.971
84460W        W56885  21.523  33.629   0.786
84461W        W56886  44.305  23.479   1.839
84462W        W56887  31.134  38.837  14.734
84463W        W56888  22.708   0.726  12.899
84464W        W56889  32.399  32.989  13.630
84465W        W56890  12.803  20.331   1.308
84466W        W56891   2.007   7.735   1.354
84467W        W56892  24.546  19.832  10.405
84468W        W56893  17.331  32.672  12.109
84469W        W56894  34.288  39.508   1.410
84470W        W56895   9.901  40.233  14.037
84471W        W56896  22.467  15.681  13.407
84472W        W56897  34.048  25.933   2.665
84473W        W56898   5.392  30.740   2.701
84474W        W56899  23.628   6.955  11.102
84475W        W56900   0.287  20.209   4.671
84476W        W56901   6.450  12.213   4.653
84477W        W56902  38.216  13.476   1.477
84478W        W56903  36.445   9.457   1.036
84479W        W56904  26.180   9.591   4.937
84480W        W56905  12.109   3.215  12.853
84481W        W56906   3.437  44.388  13.858
84482W        W56907  43.392  25.983   1.714
84483W        W56908  24.964  25.544   0.515
84484W        W56909  16.213  29.045  13.842
84485W        W56910  29.652  32.899   2.408
84486W        W56911   1.111  34.903   4.496
84487W        W56912  36.885   8.078   0.906
84488W        W56913   2.899  39.983  14.765
84489W        W56914  20.715  43.400   0.390
84490W        W56915  17.354  30.553   2.652
84491W        W56916  37.778  39.986   0.747
84492W        W56917  14.571  31.372  13.028
84493W        W56918   7.164   0.935   3.621
84494W        W56919  25.600  25.167  10.561
84495W        W56920  42.319   8.543   4.683
84496W        W56921  32.065  18.472  13.243
84497W        W56922  36.990  39.725  13.543
84498W        W56923   6.942  33.942  12.920
84499W        W56924  26.332  32.412  14.747
84500W        W56925  17.458  10.783   3.972
84501W        W56926  18.744   2.471   1.214
84502W        W56927  23.076  43.863  13.301
84503W        W56928   0.264  44.894   0.759
84504W        W56929  17.089   0.296  11.970
84505W        W56930  11.947  21.283  11.681
84506W        W56931  44.252   9.078   1.879
84507W        W56932  33.234  33.671  11.505
84508W        W56933  37.659  22.384  11.958
84509W        W56934  12.188  29.967   0.659
84510W        W56935  38.870   6.807  12.033
84511W        W56936  39.325  14.229  12.583
84512W        W56937  33.380  22.058  11.389
84513W        W56938  20.961  12.065  11.120
84514W        W56939  32.592  43.947   4.416
84515W        W56940  20.318   7.937   2.242
84516W        W56941  10.073  31.618  12.523
84517W        W56942  28.641   0.432  10.716
84518W        W56943  24.192  19.597  13.702
84519W        W56944   9.340  18.078   1.665
84520W        W56945   1.473  39.292   2.197
84521W        W56946  28.612  25.715   3.888
84522W        W56947  24.267  39.895  14.750
84523W        W56948  43.403  17.640   0.825
84524W        W56949  32.033  13.296   4.224
84525W        W56950  28.140   6.647  12.318
84526W        W56951  31.112  21.976   2.423
84527W        W56952  44.898  41.807  10.855
84528W        W56953  31.975  25.669   2.157
84529W        W56954  29.230  32.444  12.924
84530W        W56955  19.932  18.106  12.427
84531W        W56956  20.177  29.864   2.643
84532W        W56957  44.552  43.375  12.458
84533W        W56958   2.273  41.643  12.510
84534W        W56959  33.312   4.263   2.358
84535W        W56960   5.233   1.341  11.969
84536W        W56961  43.525  39.019   3.785
84537W        W56962  34.534   7.497   3.722
84538W        W56963  23.724  32.121   4.638
84539W        W56964  31.569  29.087   0.500
84540W        W56965   6.384  40.401  12.183
84541W        W56966  16.735  22.455  12.924
84542W        W56967  14.258  36.016   1.513
84543W        W56968   7.580   1.020   3.331
84544W        W56969  13.950   7.332  14.468
84545W        W56970  34.171  26.094   1.894
84546W        W56971  20.369  38.447   2.825
84547W        W56972  44.388  27.439  10.690
84548W        W56973  40.728  44.804   3.679
84549W        W56974  36.634  33.173   0.759
84550W        W56975  21.138   4.798  13.831
84551W        W56976  24.558  13.127  14.307
84552W        W56977  27.881  19.696  11.579
84553W        W56978  38.942   2.453  11.009
84554W        W56979   4.560  15.333  10.601
84555W        W56980  30.898  18.992  13.594
84556W        W56981  40.013  34.522  14.623
84557W        W56982  38.075   2.073   3.744
84558W        W56983  43.791  26.527   1.307
84559W        W56984  33.124  33.355  14.361
84560W        W56985  25.112  38.555  13.566
84561W        W56986  22.661  16.927   0.067
84562W        W56987   9.448  11.547  12.948
84563W        W56988  43.945  34.135   2.882
84564W        W56989  17.512  16.263   0.049
84565W        W56990  21.183  32.917  10.650
84566W        W56991  38.463  16.119   4.555
84567W        W56992   8.012   8.475   2.662
84568W        W56993  16.719  42.978   1.891
84569W        W56994  24.233  42.283   3.632
84570W        W56995   8.306   2.109   2.837
84571W        W56996  29.183  40.716   0.661
84572W        W56997  18.637  43.092  11.890
84573W        W56998   5.817  44.740   4.134
84574W        W56999  12.492  35.376  11.394
84575W        W57000  37.641  24.694   2.506
84576W        W57001  34.481  37.607  13.562
84577W        W57002  18.275   6.748  13.722
84578W        W57003  40.165  39.897  12.888
84579W        W57004  41.757  33.446  11.600
84580W        W57005  26.989   3.678   1.217
84581W        W57006  16.843  19.747   2.741
84582W        W57007  18.704  22.153  11.435
84583W        W57008   3.718  19.143   3.616
84584W        W57009   7.437  29.857   4.128
84585W        W57010  28.222  13.164  12.533
84586W        W57011   7.902  15.603   0.491
84587W        W57012  14.762  42.027  10.677
84588W        W57013  23.171   9.002   1.262
84589W        W57014  23.038  30.651   0.187
84590W        W57015  23.741  42.533  13.059
84591W        W57016  38.061  28.443  11.137
84592W        W57017  19.502  10.896   3.431
84593W        W57018  10.747  32.581   4.726
84594W        W57019  21.799  34.842   0.034
84595W        W57020  41.171  18.308   3.373
84596W        W57021   2.444  26.191  14.998
84597W        W57022  40.495  44.523   0.532
84598W        W57023   1.777  20.861   4.496
84599W        W57024  22.740   6.872  11.916
84600W        W57025  30.652  33.955   4.074
84601W        W57026  38.591  21.245  14.474
84602W        W57027  37.495  40.272  14.025
84603W        W57028  16.773  21.153  14.361
84604W        W57029  17.149  21.093  14.701
84605W        W57030  26.490   9.273   2.943
84606W        W57031  22.952  28.507  14.883
84607W        W57032  35.970  36.296   4.080
84608W        W57033  37.508  11.200   1.401
84609W        W57034  39.985   5.797   1.281
84610W        W57035   5.137  42.523   3.610
84611W        W57036  31.877  14.754   4.848
84612W        W57037  18.204  37.306  11.687
84613W        W57038  14.325  21.479  13.472
84614W        W57039  34.394  19.583  11.227
84615W        W57040  40.356  16.059  14.485
84616W        W57041   2.411  37.382  11.365
84617W        W57042  25.922  23.285   3.046
84618W        W57043  24.496  28.430  14.986
84619W        W57044  41.510  25.075   1.710
84620W        W57045   7.882   1.306   1.282
84621W        W57046  33.449  24.693   3.207
84622W        W57047   8.192  22.192   3.306
84623W        W57048  44.048   0.493  12.551
84624W        W57049  35.610  39.826  12.961
84625W        W57050  39.370   1.671  13.406
84626W        W57051  29.701  18.102  11.986
84627W        W57052  17.837  22.202  14.635
84628W        W57053  20.811  19.828  10.941
84629W        W57054  39.626  29.647  13.852
84630W        W57055   7.889  17.085   1.194
84631W        W57056  10.424   3.415  11.089
84632W        W57057   8.712  36.588  14.292
84633W        W57058  25.637  13.081   2.851
84634W        W57059  10.610  37.336  10.697
84635W        W57060  14.649  41.143  12.509
84636W        W57061  41.293  37.962   4.622
84637W        W57062  40.145  19.846   3.229
84638W        W57063   9.059  32.625  12.861
84639W        W57064   2.239  32.835  13.820
84640W        W57065  41.055  41.539   0.785
84641W        W57066  15.686  28.570   0.997
84642W        W57067  39.710  18.187  12.035
84643W        W57068  17.693  44.974  14.963
84644W        W57069   1.799  39.501  12.546
84645W        W57070  41.684  30.042  13.392
84646W        W57071  20.626   5.691   2.524
84647W        W57072  26.292  37.454  12.553
84648W        W57073  10.114  18.570  11.176
84649W        W57074  20.914  35.419   0.762
84650W        W57075  37.050  20.970  11.049
84651W        W57076   7.747   7.121   0.013
84652W        W57077  39.741  35.149  11.148
84653W        W57078  44.277  34.658  13.595
84654W        W57079  27.546  19.129  14.731
84655W        W57080  26.903  10.616   4.350
84656W        W57081   7.868  15.913  12.915
84657W        W57082  18.533  41.217   1.591
84658W        W57083  25.540  34.517  14.554
84659W        W57084  13.208  31.088  11.586
84660W        W57085   9.237  35.466  11.132
84661W        W57086  28.704  30.720  10.312
84662W        W57087  35.365   1.290  13.967
84663W        W57088  40.838   9.188  13.018
84664W        W57089  17.189  24.760  10.754
84665W        W57090  43.344  29.194  14.756
84666W        W57091  20.085   9.809  10.557
84667W        W57092   1.012  41.767  12.803
84668W        W57093  11.231  25.956   1.829
84669W        W57094  22.927  21.184  12.943
84670W        W57095  28.416   9.119   2.290
84671W        W57096  19.369   5.394   2.713
84672W        W57097  37.358  40.936   2.162
84673W        W57098  21.299  25.763  11.633
84674W        W57099  10.850  30.564   2.843
84675W        W57100  19.601  17.885  12.024
84676W        W57101  15.652  41.230  13.415
84677W        W57102   0.288  14.597  12.303
84678W        W57103  26.518  38.759   3.099
84679W        W57104  30.006  12.225  12.633
84680W        W57105  14.602  36.726  14.432
84681W        W57106  29.705  33.057   3.736
84682W        W57107  39.036  10.299   4.583
84683W        W57108  44.355  16.606  10.638
84684W        W57109  20.164  43.380   0.845
84685W        W57110   0.926  14.272   0.281
84686W        W57111   1.413   0.258  13.845
84687W        W57112  35.900  34.199  13.945
84688W        W57113  35.455  26.563  10.606
84689W        W57114  34.347  14.849   0.141
84690W        W57115  11.322  33.504  13.678
84691W        W57116  10.848  22.575  14.423
84692W        W57117  19.389  32.049  14.359
84693W        W57118  37.686  15.825   1.450
84694W        W57119  13.698   7.836   4.625
84695W        W57120  40.583  15.676  12.496
84696W        W57121  26.508  20.292  11.079
84697W        W57122  30.648   5.869   2.166
84698W        W57123   9.071  38.823  13.511
84699W        W57124  15.981  11.258  14.959
84700W        W57125   2.990  42.899   1.527
84701W        W57126  43.238  21.523   1.721
84702W        W57127  11.860   0.437   1.255
84703W        W57128   3.049   7.174   3.797
84704W        W57129  10.170  37.439  12.595
84705W        W57130  41.192  37.308   3.804
84706W        W57131  37.396  16.368   3.215
84707W        W57132  37.143  30.550   3.651
84708W        W57133   4.853  42.066  11.006
84709W        W57134  33.044  14.121  11.416
84710W        W57135   7.666   2.363  11.896
84711W        W57136  29.466  28.543   0.931
84712W        W57137  32.627  12.522  14.860
84713W        W57138  20.001  10.820   4.250
84714W        W57139  41.785  11.296  12.819
84715W        W57140   8.817  17.288  11.219
84716W        W57141  30.595  35.971   0.664
84717W        W57142   1.196  21.064   3.155
84718W        W57143  18.991  38.938   5.052
84719W        W57144  10.006  26.467   2.642
84720W        W57145   2.295  37.502   4.598
84721W        W57146  31.450  43.503  10.963
84722W        W57147  17.791   1.422   0.927
84723W        W57148  18.002  42.516   2.505
84724W        W57149  17.583  13.169   4.459
84725W        W57150  36.359  24.547  10.213
84726W        W57151  13.998  38.921  13.631
84727W        W57152  22.746  38.285  12.255
84728W        W57153  41.314  40.259  10.719
84729W        W57154   1.207  43.538  12.870
84730W        W57155  39.340   9.907  12.500
84731W        W57156  10.089  39.061   1.162
84732W        W57157  37.530  28.411  10.992
84733W        W57158   4.053  18.828  14.135
84734W        W57159  29.021  26.735  13.548
84735W        W57160   7.786  43.569  12.995
84736W        W57161  32.920  28.146   1.809
84737W        W57162  23.560   5.781   4.606
84738W        W57163   6.509   9.374  11.669
84739W        W57164  21.558  29.164  13.141
84740W        W57165   6.322  38.646  13.482
84741W        W57166  44.062  17.200  13.216
84742W        W57167   6.294  31.987   2.237
84743W        W57168  28.134  29.941  12.626
84744W        W57169   6.396  23.970  14.302
84745W        W57170  13.653   1.480  13.506
84746W        W57171  15.161  23.261  14.519
84747W        W57172   9.379  26.659  12.642
84748W        W57173   1.549   1.991  13.031
84749W        W57174  40.213  24.280  14.874
84750W        W57175  43.659  38.990   4.740
84751W        W57176  32.540  35.388   3.145
84752W        W57177  22.090  33.680  13.043
84753W        W57178   5.263  29.169   4.087
84754W        W57179  14.224  17.714  12.556
84755W        W57180   2.301  20.749  10.771
84756W        W57181  32.371  10.578  14.328
84757W        W57182  27.940   2.402   1.734
84758W        W57183  35.369   2.267   4.645
84759W        W57184  18.588  16.993  10.418
84760W        W57185  18.246  39.269   4.014
84761W        W57186  34.342  11.254  12.213
84762W        W57187   7.725  26.508   4.672
84763W        W57188  19.531  32.552   4.520
84764W        W57189  21.449  41.265  11.173
84765W        W57190  30.964  15.289   1.966
84766W        W57191  41.939   3.257   3.047
84767W        W57192   4.926   0.370   2.661
84768W        W57193  27.927  44.209   3.327
84769W        W57194   7.473  33.843  11.649
84770W        W57195   7.887  12.152  12.430
84771W        W57196  24.960  16.328   0.116
84772W        W57197  17.706  36.316   3.202
84773W        W57198  29.654  27.122   3.237
84774W        W57199  44.860  16.929  11.914
84775W        W57200  19.708   0.993   1.208
84776W        W57201  41.331   8.643   0.029
84777W        W57202   0.319  43.009   1.601
84778W        W57203  31.563  40.834   4.594
84779W        W57204   1.914  19.242   0.462
84780W        W57205   1.791  34.101  12.865
84781W        W57206   1.380  41.879   4.700
84782W        W57207  35.569  17.812  11.342
84783W        W57208  24.079  30.441   0.350
84784W        W57209  14.735  43.425   3.270
84785W        W57210  35.854   1.877  10.759
84786W        W57211   5.321   3.388   2.583
84787W        W57212  14.312  40.162  14.345
84788W        W57213  37.907  21.744   4.128
84789W        W57214   5.195  40.524   4.612
84790W        W57215  38.818   9.769  12.603
84791W        W57216  33.003  39.096   3.787
84792W        W57217  38.053  13.964  13.218
84793W        W57218  23.134   6.080   0.368
84794W        W57219   6.706  18.123  13.411
84795W        W57220  34.566  15.367  13.479
84796W        W57221  22.752  17.635   4.034
84797W        W57222  35.961  21.266   3.553
84798W        W57223   9.694  32.204   4.242
84799W        W57224  30.347  10.588   1.026
84800W        W57225  18.755   1.270  14.259
84801W        W57226   6.382   8.936  13.265
84802W        W57227  32.434  17.439  12.968
84803W        W57228   6.091   5.158  13.879
84804W        W57229   5.808  32.662   0.841
84805W        W57230  31.254   7.119   2.779
84806W        W57231  36.177  35.122  13.341
84807W        W57232  26.154  25.939  12.444
84808W        W57233  39.791  13.652   4.547
84809W        W57234  22.598  24.330   3.167
84810W        W57235  28.660  34.161   0.973
84811W        W57236   6.240  26.022   1.798
84812W        W57237  18.761   4.531   0.905
84813W        W57238  29.189  37.808  14.198
84814W        W57239  37.317  29.011   0.278
84815W        W57240  11.233  21.322  12.005
84816W        W57241  20.598  32.337  10.701
84817W        W57242  17.099  32.158  14.212
84818W        W57243  29.999  30.979   2.941
84819W        W57244  21.290  44.852   2.341
84820W        W57245   6.339   3.654  13.243
84821W        W57246  18.721   2.795  11.529
84822W        W57247  17.314   7.721   4.301
84823W        W57248   5.362   8.247   1.091
84824W        W57249  41.808   7.740   4.622
84825W        W57250  10.338  37.937  11.869
84826W        W57251   2.799   5.418   3.330
84827W        W57252  37.381  25.931   4.784
84828W        W57253  19.102  12.415   0.400
84829W        W57254  10.284  33.383   0.920
84830W        W57255   6.755  18.210  14.344
84831W        W57256   0.898  20.048   0.660
84832W        W57257  28.632  26.822   0.799
84833W        W57258  15.694  28.051  12.155
84834W        W57259  16.620  24.155  13.305
84835W        W57260   9.350  21.713   1.996
84836W        W57261   6.440  14.280   3.293
84837W        W57262  41.321  39.321   4.145
84838W        W57263   6.905   5.379   2.639
84839W        W57264  30.406  41.370   0.202
84840W        W57265  36.508  14.630  13.834
84841W        W57266  35.467  28.243  12.039
84842W        W57267   4.019   8.713  11.265
84843W        W57268  40.132   0.985  11.488
84844W        W57269  42.328  41.914  13.928
84845W        W57270  28.581  31.065   4.760
84846W        W57271  42.003  15.215   1.935
84847W        W57272  10.936  13.710  11.319
84848W        W57273  13.217  36.551   1.790
84849W        W57274   6.140  29.420  12.443
84850W        W57275  38.348  40.992  10.493
84851W        W57276  38.753  22.173  13.141
84852W        W57277  13.550  32.177   2.928
84853W        W57278  43.791  21.233  13.290
84854W        W57279  26.143  18.696   0.253
84855W        W57280  24.048   9.406   3.729
84856W        W57281   2.725  36.713   4.546
84857W        W57282  18.809  40.784   4.666
84858W        W57283  11.164  23.040   3.138
84859W        W57284  36.461   8.860  13.910
84860W        W57285  16.152  20.080   1.175
84861W        W57286  38.506  37.291  12.933
84862W        W57287  21.636  30.396  11.513
84863W        W57288  35.119  21.604  14.129
84864W        W57289  32.948  42.399   0.761
84865W        W57290   2.496  31.901  11.612
84866W        W57291  15.673  25.904  13.915
84867W        W57292  26.810  42.320  14.309
84868W        W57293   0.535   4.075  13.890
84869W        W57294  24.958  34.154   0.253
84870W        W57295  16.924  40.968   2.823
84871W        W57296  36.931  14.490   2.372
84872W        W57297  34.407  44.182  12.098
84873W        W57298   0.496  20.760  11.837
84874W        W57299  15.830  33.405  14.094
84875W        W57300  25.388  15.586   0.751
84876W        W57301  36.804   9.245   2.700
84877W        W57302   7.093  38.205  12.517
84878W        W57303   0.970   0.464  10.566
84879W        W57304  22.734   8.685  10.570
84880W        W57305  13.291  19.195   4.143
84881W        W57306  24.185  12.300  12.915
84882W        W57307  33.614  29.844  12.707
84883W        W57308   7.304  42.151   4.668
84884W        W57309  28.024  33.974  12.910
84885W        W57310  26.565  18.046  11.550
84886W        W57311  18.513  39.958   3.541
84887W        W57312  13.624   4.746   1.831
84888W        W57313   0.041   4.476   1.396
84889W        W57314  25.505  39.370   3.289
84890W        W57315  40.073   0.312  14.859
84891W        W57316  24.942  27.983   2.012
84892W        W57317  40.500  21.021   1.271
84893W        W57318  27.576  39.464   2.997
84894W        W57319   1.215  34.727   0.416
84895W        W57320  24.612  32.601  14.780
84896W        W57321   8.095  33.102   0.027
84897W        W57322  27.850  29.941   2.839
84898W        W57323  13.118  26.451  13.707
84899W        W57324   9.435  36.057   3.308
84900W        W57325   9.744  34.741  11.384
84901W        W57326  29.055  40.830   4.612
84902W        W57327   2.198   5.184   3.976
84903W        W57328   1.492  22.181   2.792
84904W        W57329  22.113  29.152   0.540
84905W        W57330  34.486  29.226  10.970
84906W        W57331  30.458   9.377  13.949
84907W        W57332  22.350  11.356   2.149
84908W        W57333  34.103  44.322  14.568
84909W        W57334  39.588  29.371   3.954
84910W        W57335  23.989   5.344  12.874
84911W        W57336  15.360  16.048   0.852
84912W        W57337  18.282  21.832   3.952
84913W        W57338  21.207  38.032  12.908
84914W        W57339  43.487   7.514   4.200
84915W        W57340  22.774  32.069   4.659
84916W        W57341   2.729  32.607  14.030
84917W        W57342   1.271  25.097   1.839
84918W        W57343   6.741  23.998  11.055
84919W        W57344   1.495  10.761   3.191
84920W        W57345   4.167  25.686   3.601
84921W        W57346  17.112  15.154   4.576
84922W        W57347  29.421  44.902  14.704
84923W        W57348  25.546  36.850   1.102
84924W        W57349  32.125  16.597  10.970
84925W        W57350  34.600  39.347  10.726
84926W        W57351  38.038  21.028   1.144
84927W        W57352  43.997  37.499   9.989
84928W        W57353  38.936  39.708   0.552
84929W        W57354  37.648   0.330   0.336
84930W        W57355  21.662  25.505   1.014
84931W        W57356  12.974   4.610  13.853
84932W        W57357  22.952  27.094   4.015
84933W        W57358  38.980  19.930   3.662
84934W        W57359   3.674  44.829   3.873
84935W        W57360  32.521  17.615  11.517
84936W        W57361  10.248  38.427   0.303
84937W        W57362  22.866  32.702   9.895
84938W        W57363   8.322  30.369  14.603
84939W        W57364  13.376  23.588  13.988
84940W        W57365  19.647   8.949  14.323
84941W        W57366  43.424  20.867   4.545
84942W        W57367  38.003   2.651  11.227
84943W        W57368   2.147  42.406  11.969
84944W        W57369   7.208  30.856   4.548
84945W        W57370   4.850  23.254  11.657
84946W        W57371   6.936  22.002  12.535
84947W        W57372  24.231  11.634  13.386
84948W        W57373  13.621  11.049  12.973
84949W        W57374  17.732  17.600   3.145
84950W        W57375  34.963   4.243  13.288
84951W        W57376  17.505  40.804  14.009
84952W        W57377  25.723  38.917  10.706
84953W        W57378  28.907  15.724  13.487
84954W        W57379  29.481  21.537  14.861
84955W        W57380  18.700  35.162   0.463
84956W        W57381  19.043  10.262  11.929
84957W        W57382   3.376  16.376  11.514
84958W        W57383  18.687  12.358  12.143
84959W        W57384  23.336  27.693  12.854
84960W        W57385  39.486  41.112   2.899
84961W        W57386  21.102   7.298  12.233
84962W        W57387  20.098  17.515   3.406
84963W        W57388  42.989  15.598   1.414
84964W        W57389   3.435  27.874   1.998
84965W        W57390   0.938  32.441   3.692
84966W        W57391   6.642   9.135   0.998
84967W        W57392  25.868  16.833  13.387
84968W        W57393  26.940   3.753   3.282
84969W        W57394  15.613   7.920   0.902
84970W        W57395  16.788  35.091   0.336
84971W        W57396  23.971  34.710   3.640
84972W        W57397  29.057   5.851   3.576
84973W        W57398  29.871  44.910  14.946
84974W        W57399  13.003  38.854   4.677
84975W        W57400  44.849  29.448  14.503
84976W        W57401  35.862   2.246  14.011
84977W        W57402  26.945  29.707  11.155
84978W        W57403  31.124  38.979  11.586
84979W        W57404  24.150  25.530  12.621
84980W        W57405  11.132  12.994  14.572
84981W        W57406  16.407  12.163   4.121
84982W        W57407   3.233   6.186   2.407
84983W        W57408  36.846  38.773  11.073
84984W        W57409  40.203  23.732   1.399
84985W        W57410   1.484   8.357   0.440
84986W        W57411  36.165  20.247  11.891
84987W        W57412   7.778  33.962  12.549
84988W        W57413  18.921  27.862   1.507
84989W        W57414  24.669  12.811  11.517
84990W        W57415   3.117  33.031   3.192
84991W        W57416  10.274  38.730   2.128
84992W        W57417  36.418  16.085   2.740
84993W        W57418   8.968   3.789   4.251
84994W        W57419  39.854  36.689  12.316
84995W        W57420  32.356   7.057  12.606
84996W        W57421   8.898  36.531  13.451
84997W        W57422  29.033  20.949  11.900
84998W        W57423  16.627  33.131   3.620
84999W        W57424  14.419   5.902  11.279
85000W        W57425  14.654   9.317  10.938
85001W        W57426  40.534  18.731  13.315
85002W        W57427   3.164  25.655  13.557
85003W        W57428  21.641  43.515  13.048
85004W        W57429  14.458  20.078  14.552
85005W        W57430  15.914   8.878  10.568
85006W        W57431  32.995   1.226   3.135
85007W        W57432  28.401  41.305   3.266
85008W        W57433  35.334  22.546  10.968
85009W        W57434   8.030  29.477  13.902
85010W        W57435  18.951  28.485  11.339
85011W        W57436   5.598  21.300  14.871
85012W        W57437   6.431  19.384  11.980
85013W        W57438  39.040  25.353   2.521
85014W        W57439  12.847  22.035   4.310
85015W        W57440  26.557  11.550  11.626
85016W        W57441  36.741  23.002  11.403
85017W        W57442  37.922  23.741  10.659
85018W        W57443  13.153   1.008   1.059
85019W        W57444  23.044  34.372  11.193
85020W        W57445  43.222  41.395  10.295
85021W        W57446   1.547  43.250   4.045
85022W        W57447  26.364  44.275   4.687
85023W        W57448  32.969  13.175  11.824
85024W        W57449   3.208   5.432   4.241
85025W        W57450  19.225  17.629  13.011
85026W        W57451  20.201  32.116   1.157
85027W        W57452  40.868  21.334  14.342
85028W        W57453  42.522  17.080  11.916
85029W        W57454  12.256  42.416  11.115
85030W        W57455  38.946  16.288  13.080
85031W        W57456  20.899  11.335  12.468
85032W        W57457  15.284  21.480   0.229
85033W        W57458  37.056  38.106  14.459
85034W        W57459   3.297  32.550   2.900
85035W        W57460  42.576  37.427  12.480
85036W        W57461  11.217  31.349   0.962
85037W        W57462   2.485  36.914   3.236
85038W        W57463  29.637   2.396  14.732
85039W        W57464   8.780  34.668   1.678
85040W        W57465  17.261  34.379  13.928
85041W        W57466  31.610  11.735   0.891
85042W        W57467  24.236  37.479  12.382
85043W        W57468  27.076   8.315  10.770
85044W        W57469  29.143   8.441   0.458
85045W        W57470  17.690   2.455   0.740
85046W        W57471  32.653  23.292   3.333
85047W        W57472  32.794  35.860  13.822
85048W        W57473  39.343  17.985   0.228
85049W        W57474  10.156  43.219   3.351
85050W        W57475  31.413  32.687   1.285
85051W        W57476  36.412  16.871  12.001
85052W        W57477   3.255  32.648   1.891
85053W        W57478  31.538  16.571   4.799
85054W        W57479  10.416  41.916   1.700
85055W        W57480   3.459  37.022  14.810
85056W        W57481  25.339  39.377  14.264
85057W        W57482  15.575  13.263  13.841
85058W        W57483  44.860  44.672   4.612
85059W        W57484  17.070  33.891  13.950
85060W        W57485  18.747  17.444  13.122
85061W        W57486  29.250  24.385   3.256
85062W        W57487  42.631  41.911   1.078
85063W        W57488  10.296  16.095  12.919
85064W        W57489   7.871  13.954   4.387
85065W        W57490  43.227   3.208   0.659
85066W        W57491  38.336  34.562   2.817
85067W        W57492   3.508  42.567   0.926
85068W        W57493  43.372  36.427   0.041
85069W        W57494  23.567   5.406   0.041
85070W        W57495   6.433   8.610  10.437
85071W        W57496  43.940  21.237   2.727
85072W        W57497  40.923  21.268  10.042
85073W        W57498  17.102  26.371   3.738
85074W        W57499  34.731  17.249   1.227
85075W        W57500  23.964  21.399   3.635
85076W        W57501  43.346   2.542   1.379
85077W        W57502  11.144  25.937   0.864
85078W        W57503  23.547  15.748   0.936
85079W        W57504  16.146   3.511   0.459
85080W        W57505  33.587  18.549  11.088
85081W        W57506  36.964   1.059   3.822
85082W        W57507  21.367   9.720   5.079
85083W        W57508  35.444  39.169   1.362
85084W        W57509   0.351  31.893  12.836
85085W        W57510  22.019  43.875  11.036
85086W        W57511  39.251  16.078   1.476
85087W        W57512  19.452  28.470  11.457
85088W        W57513  14.228   2.354   1.744
85089W        W57514  22.903   0.691   2.037
85090W        W57515   9.666  26.422   0.747
85091W        W57516   1.697  34.110   2.786
85092W        W57517  25.158  16.530  13.879
85093W        W57518   0.557   6.471   1.259
85094W        W57519  10.921  15.467  11.694
85095W        W57520  28.496  26.141   4.170
85096W        W57521  29.156  41.094  14.199
85097W        W57522  20.317  21.430   3.345
85098W        W57523  37.216  12.059  12.575
85099W        W57524  16.460  23.343  13.489
85100W        W57525  36.350  21.167   0.241
85101W        W57526  42.090  14.106   4.032
85102W        W57527  25.050  37.661   4.220
85103W        W57528  27.438  32.467  10.554
85104W        W57529  41.853  39.862  11.245
85105W        W57530  41.230  34.117   3.763
85106W        W57531   9.618  18.726  11.128
85107W        W57532   2.935  20.670   4.153
85108W        W57533  40.387  35.519   2.599
85109W        W57534  15.716   0.258  11.599
85110W        W57535   8.842  43.323  13.451
85111W        W57536  36.017  22.689  12.074
85112W        W57537  10.346  30.168   3.140
85113W        W57538  26.194  21.119   4.072
85114W        W57539  13.911  34.527  11.335
85115W        W57540   3.718  16.184   2.760
85116W        W57541   1.881  19.252  13.072
85117W        W57542   5.675  15.139  11.602
85118W        W57543  23.457  14.786   0.764
85119W        W57544  22.289  33.647   3.732
85120W        W57545  41.747  35.585   4.821
85121W        W57546  42.036  42.767  12.469
85122W        W57547   5.217   0.988  11.586
85123W        W57548  37.176  42.879   4.167
85124W        W57549  31.108  35.327   2.699
85125W        W57550  35.995  23.117  11.350
85126W        W57551  39.348  34.511  11.655
85127W        W57552  27.101  26.975  13.704
85128W        W57553  15.157  42.400   4.669
85129W        W57554  10.934  31.575  14.360
85130W        W57555  22.009  12.570  10.722
85131W        W57556  37.991  12.219   4.751
85132W        W57557   5.852  28.230   0.779
85133W        W57558  17.917  34.831  13.514
85134W        W57559  26.559  31.568   5.106
85135W        W57560   5.874   9.504   1.358
85136W        W57561  12.837  25.106  11.198
85137W        W57562   8.421  44.735  14.308
85138W        W57563   9.235  43.363  10.417
85139W        W57564  31.392  27.085   3.712
85140W        W57565  18.634   8.574   1.776
85141W        W57566   1.791  31.300   4.532
85142W        W57567  32.062   7.464  13.878
85143W        W57568  16.680  32.574  10.728
85144W        W57569  18.516  12.740  14.974
85145W        W57570  44.137  32.628   0.917
85146W        W57571  19.648  11.179   4.925
85147W        W57572  31.891  12.276   4.533
85148W        W57573  37.411   8.322   1.712
85149W        W57574  23.162  12.141   4.006
85150W        W57575   0.291  34.527  11.381
85151W        W57576  36.346  40.067  11.912
85152W        W57577  40.014  27.207  12.003
85153W        W57578  23.576  23.167  12.496
85154W        W57579  21.568  12.787   4.380
85155W        W57580  14.185  15.409   4.136
85156W        W57581   5.617  18.172   0.357
85157W        W57582  25.266   8.389   4.771
85158W        W57583  24.977  16.883  11.158
85159W        W57584  23.994  44.868   3.339
85160W        W57585  26.091  38.365   3.072
85161W        W57586   8.297  41.957  11.439
85162W        W57587  35.454  38.492  14.963
85163W        W57588   4.659  35.597   1.845
85164W        W57589   4.927  33.459   4.154
85165W        W57590  37.551  25.181   2.294
85166W        W57591  44.419  20.322  13.851
85167W        W57592  25.102   0.570   2.108
85168W        W57593  15.184  37.169   2.886
85169W        W57594   4.656  17.693  13.461
85170W        W57595   0.808  36.086   4.728
85171W        W57596   6.352  20.403  12.020
85172W        W57597  11.601   3.584  14.003
85173W        W57598  21.264  21.544  12.018
85174W        W57599  16.814  30.326   3.354
85175W        W57600  18.261   7.674  14.717
85176W        W57601  35.608  39.252   2.995
85177W        W57602  42.158  40.402   4.251
85178W        W57603  34.879  32.090  10.525
85179W        W57604  32.029  39.133   2.280
85180W        W57605  11.746  14.461   4.127
85181W        W57606   3.984  20.798   2.175
85182W        W57607  18.058  18.239   3.811
85183W        W57608  14.817  12.242  13.531
85184W        W57609  18.760   4.933  10.303
85185W        W57610  44.728  34.408   1.233
85186W        W57611  18.140  32.067  14.008
85187W        W57612  31.914   5.828  11.605
85188W        W57613   0.251   5.135  12.514
85189W        W57614  43.353   9.294   2.836
85190W        W57615  14.728   4.140  13.209
85191W        W57616  24.651  10.825  10.420
85192W        W57617  12.399  35.110  12.604
85193W        W57618  42.943   6.857  10.459
85194W        W57619   3.624  13.864  12.868
85195W        W57620  19.269   2.190   3.317
85196W        W57621   4.707  10.928   0.241
85197W        W57622  27.849  26.891  14.374
85198W        W57623   0.873  26.423  14.508
85199W        W57624  14.258  26.188   3.228
85200W        W57625   4.451   5.049  10.712
85201W        W57626  12.264  27.547   3.953
85202W        W57627  12.655  19.323   1.303
85203W        W57628  39.981  28.907   2.191
85204W        W57629  18.501  31.035   2.395
85205W        W57630  25.036  26.377  10.771
85206W        W57631  19.150   6.452   4.894
85207W        W57632  35.365  10.274  14.357
85208W        W57633  43.747  26.704  12.448
85209W        W57634   4.968  43.376  13.861
85210W        W57635  35.582  21.793   0.979
85211W        W57636  12.669   0.208  12.790
85212W        W57637  34.877  44.476  12.486
85213W        W57638   6.636  23.626  11.364
85214W        W57639  32.367   8.105  10.636
85215W        W57640  16.595  36.096  10.597
85216W        W57641  13.635  35.095  13.852
85217W        W57642   7.279  18.601   3.655
85218W        W57643  39.387  15.283  10.693
85219W        W57644  17.555  12.620   3.839
85220W        W57645  31.935  18.973   4.159
85221W        W57646  19.221  15.735   4.210
85222W        W57647   4.383  38.537   4.501
85223W        W57648  36.980  39.835  11.676
85224W        W57649  11.297  42.828  13.165
85225W        W57650  38.454  30.879   3.468
85226W        W57651  30.503   8.333   1.734
85227W        W57652  12.658  12.672   1.243
85228W        W57653   6.659   4.905  12.571
85229W        W57654  39.329   6.915   4.187
85230W        W57655  33.092  32.855  14.267
85231W        W57656  30.522  12.604   1.770
85232W        W57657  16.846  41.919   1.887
85233W        W57658  39.434  19.392  14.322
85234W        W57659  16.649  13.610  11.254
85235W        W57660   0.216   7.682   4.657
85236W        W57661   7.470   1.932   4.467
85237W        W57662   4.484  32.226   0.953
85238W        W57663  12.938   4.925  14.288
85239W        W57664  13.666   3.508  10.565
85240W        W57665  18.289  12.530  14.055
85241W        W57666  32.300  38.352  11.564
85242W        W57667  40.083  38.489   1.787
85243W        W57668  38.523  16.373  10.719
85244W        W57669  13.268  39.531   3.078
85245W        W57670  20.390  24.623  11.146
85246W        W57671   8.776  16.349   3.154
85247W        W57672  36.113  25.605  14.995
85248W        W57673  34.998  13.048  11.581
85249W        W57674  12.120   5.471   4.145
85250W        W57675  10.602  16.809   4.099
85251W        W57676  41.777   0.804  12.990
85252W        W57677  28.166   2.227   0.560
85253W        W57678  37.061   3.916  10.619
85254W        W57679  22.508   9.708   0.400
85255W        W57680  36.431  37.781   2.692
85256W        W57681  10.679   7.470  11.058
85257W        W57682  18.037  23.915  11.442
85258W        W57683  26.214  36.814  13.481
85259W        W57684  15.373  25.471  14.023
85260W        W57685   2.005   4.027  14.299
85261W        W57686   7.149  29.067  13.826
85262W        W57687  27.096  20.690   0.473
85263W        W57688  41.799  17.339   4.137
85264W        W57689  13.778  32.122  11.557
85265W        W57690  26.930   8.264   3.360
85266W        W57691  38.908  20.724   3.290
85267W        W57692  28.570  32.810   1.274
85268W        W57693  34.737  34.834  13.455
85269W        W57694  29.629  30.872  10.200
85270W        W57695  40.122   4.906  12.969
85271W        W57696  22.268   7.189  12.789
85272W        W57697  39.712  32.527  11.143
85273W        W57698  32.533   6.141  13.928
85274W        W57699  24.188   1.612  10.822
85275W        W57700   0.438  35.722  11.179
85276W        W57701   5.034   6.213   3.872
85277W        W57702  30.457  12.347   0.491
85278W        W57703  18.626  40.773  10.677
85279W        W57704   5.641  43.414   3.737
85280W        W57705   2.400  31.614  13.456
85281W        W57706  26.646  37.947   4.196
85282W        W57707  29.639   6.076   1.713
85283W        W57708  24.690  36.955  13.475
85284W        W57709  34.490  24.858  10.348
85285W        W57710  21.106  14.846   2.718
85286W        W57711  25.910  10.521  12.687
85287W        W57712  20.795  21.502  12.256
85288W        W57713  18.709  33.562  10.089
85289W        W57714  20.128   9.440  10.974
85290W        W57715  42.270  10.240  11.027
85291W        W57716  41.273   0.454   1.875
85292W        W57717  17.262  33.503  13.585
85293W        W57718  19.093  28.487   3.168
85294W        W57719  32.914  17.637   3.864
85295W        W57720  22.934  23.423   1.351
85296W        W57721  30.460   8.098   2.723
85297W        W57722  25.232  43.083  12.569
85298W        W57723  11.658   8.099  14.334
85299W        W57724   5.817  22.297   2.356
85300W        W57725  19.168   0.722   5.007
85301W        W57726   7.711  16.738  13.507
85302W        W57727  29.944  40.872  13.665
85303W        W57728  11.991  28.482   0.230
85304W        W57729  10.916  38.482   4.681
85305W        W57730  29.866  27.100  11.224
85306W        W57731  34.516  10.651  13.558
85307W        W57732  18.611  30.206   5.339
85308W        W57733  37.469  22.872  13.123
85309W        W57734  23.817  28.299   1.313
85310W        W57735  28.206  34.444  14.521
85311W        W57736  34.347  21.031  14.668
85312W        W57737  29.413  27.582  10.626
85313W        W57738  29.757  36.924  11.867
85314W        W57739  35.129  15.009   0.696
85315W        W57740  15.840  15.695  10.989
85316W        W57741  16.531  24.171  12.385
85317W        W57742   9.183  24.905  11.529
85318W        W57743  25.734   0.894  13.906
85319W        W57744   0.526  28.080  11.569
85320W        W57745  40.079  16.514   3.247
85321W        W57746  37.450  14.600   1.122
85322W        W57747  28.388  17.308   1.907
85323W        W57748  35.536  44.392  12.025
85324W        W57749   4.821  44.420  14.290
85325W        W57750  14.267  27.100   2.772
85326W        W57751  15.072  15.944  12.094
85327W        W57752   6.197  13.863  14.296
85328W        W57753  21.999  14.729   2.478
85329W        W57754  14.098   4.423   3.589
85330W        W57755  39.587  13.583  11.518
85331W        W57756  24.292  36.032   4.053
85332W        W57757  40.584  34.089  13.116
85333W        W57758  27.033  42.271   3.633
85334W        W57759  32.790  28.739  11.563
85335W        W57760  12.419  14.747   2.427
85336W        W57761   7.551   6.910  11.959
85337W        W57762  22.290   7.505  11.557
85338W        W57763   5.957  35.508   0.732
85339W        W57764  30.951   5.794  11.348
85340W        W57765  21.679   8.613  14.844
85341W        W57766   2.479  42.494   3.812
85342W        W57767  15.823   8.336   0.082
85343W        W57768  10.167   7.126  10.296
85344W        W57769  24.006   2.211   0.014
85345W        W57770  33.542  19.472   1.284
85346W        W57771   8.168   5.359   3.204
85347W        W57772  23.059  36.880  13.349
85348W        W57773  43.421  41.521   3.766
85349W        W57774  12.212  13.106   3.395
85350W        W57775  33.449  30.479   2.124
85351W        W57776  32.856  27.990  12.516
85352W        W57777   4.926  23.592  10.658
85353W        W57778   5.190  10.151   1.288
85354W        W57779  20.294  42.847  12.861
85355W        W57780  44.281  18.568   1.824
85356W        W57781   0.952  20.178  12.981
85357W        W57782  10.779   8.184  13.387
85358W        W57783  23.005   3.453   2.796
85359W        W57784   6.785  36.052  12.875
85360W        W57785  31.501   5.769  12.082
85361W        W57786  29.864  24.703   3.809
85362W        W57787   0.274   5.156  11.085
85363W        W57788   6.401  39.133  13.262
85364W        W57789  14.026  16.333  12.822
85365W        W57790  39.025   3.598   1.343
85366W        W57791  41.792  44.386  11.205
85367W        W57792  10.643  23.131  10.538
85368W        W57793   6.351  21.679  14.426
85369W        W57794  42.204  11.078  13.007
85370W        W57795  20.623   9.237  11.139
85371W        W57796   3.452  32.598  12.568
85372W        W57797   5.851  37.938  13.363
85373W        W57798  37.616  19.107   1.859
85374W        W57799  28.666  29.050   0.951
85375W        W57800  27.438  26.737  10.908
85376W        W57801  23.079   3.264  10.924
85377W        W57802  20.371  33.906  13.885
85378W        W57803  34.049  36.487   1.656
85379W        W57804   2.316   5.476   0.648
85380W        W57805   1.958   6.491   3.593
85381W        W57806  41.330  30.658  13.981
85382W        W57807   1.792   4.815   1.710
85383W        W57808   0.971  22.505   1.871
85384W        W57809  37.607   2.250  10.674
85385W        W57810  42.987  44.795  12.979
85386W        W57811  39.362  40.684   0.874
85387W        W57812  31.876  33.597  12.809
85388W        W57813  38.835  20.212   3.236
85389W        W57814  19.616   8.678  12.451
85390W        W57815  33.521   7.453  11.991
85391W        W57816   9.783  39.897  14.842
85392W        W57817  44.265  44.254  12.639
85393W        W57818   9.011  42.971  12.592
85394W        W57819  26.435  24.084  12.010
85395W        W57820  33.104  12.908   0.490
85396W        W57821   0.832  43.030  10.756
85397W        W57822  20.846   5.869  14.347
85398W        W57823  44.262  32.082   0.892
85399W        W57824  28.287  41.657  13.345
85400W        W57825  33.156  22.145  12.624
85401W        W57826  39.418   1.068  14.462
85402W        W57827  21.018  18.723  11.676
85403W        W57828  18.643  37.013  14.309
85404W        W57829  15.781  32.102  14.470
85405W        W57830  27.729  14.827  12.103
85406W        W57831  17.700  37.868   0.334
85407W        W57832  43.369  28.658   3.301
85408W        W57833  36.825  33.798   3.657
85409W        W57834  40.617  43.103   0.043
85410W        W57835  28.094  37.252  10.317
85411W        W57836  33.911  40.260   1.633
85412W        W57837  31.669  28.281  10.504
85413W        W57838  39.938  25.235   2.864
85414W        W57839   9.340  24.690  11.992
85415W        W57840  32.747  37.869   2.538
85416W        W57841  12.841  19.641  13.287
85417W        W57842  22.649  10.256  13.487
85418W        W57843  15.279  35.082  14.384
85419W        W57844  39.022  16.025   4.581
85420W        W57845  42.056  11.162   4.536
85421W        W57846  41.901  44.983   9.886
85422W        W57847  43.348   2.790   0.384
85423W        W57848   2.836  12.913   3.853
85424W        W57849  24.311   8.361   2.730
85425W        W57850  37.883   1.325   2.286
85426W        W57851  13.635  19.581   3.711
85427W        W57852  37.123  10.750   2.256
85428W        W57853  16.755  21.944   1.410
85429W        W57854  25.160  18.345  13.104
85430W        W57855  13.549  13.195   1.186
85431W        W57856  32.544  44.340   1.024
85432W        W57857  16.443  38.871   2.303
85433W        W57858  25.614   0.272  14.435
85434W        W57859  15.949  31.342  12.472
85435W        W57860  16.379   9.515  14.954
85436W        W57861  29.061  15.066   4.874
85437W        W57862  17.559  43.421   0.720
85438W        W57863   0.680  34.417  12.495
85439W        W57864  25.004  18.772  10.459
85440W        W57865  42.249  24.141   0.244
85441W        W57866  23.524  36.253  13.681
85442W        W57867  38.066  19.633   3.308
85443W        W57868  44.340   4.167  12.102
85444W        W57869   2.265  12.596  11.095
85445W        W57870  19.579  34.823  10.731
85446W        W57871   3.094  16.533  12.382
85447W        W57872  29.045  18.557  12.488
85448W        W57873   4.319  36.448   4.327
85449W        W57874  24.766  29.355  14.992
85450W        W57875  43.822  10.442   4.137
85451W        W57876  33.650  25.506   2.760
85452W        W57877  29.579  36.909   3.142
85453W        W57878  15.605  29.117  11.235
85454W        W57879  30.049  27.971   2.991
85455W        W57880  40.360  29.622   4.647
85456W        W57881   0.251  20.166  10.683
85457W        W57882  39.862  31.167  11.488
85458W        W57883   2.462  23.622  10.258
85459W        W57884  40.722   2.037   4.919
85460W        W57885   9.710  32.469  13.126
85461W        W57886  40.325  20.219  10.747
85462W        W57887  44.181   4.701   1.761
85463W        W57888  17.684  32.199   9.613
85464W        W57889  39.442   8.770  13.383
85465W        W57890  20.199  39.165   2.310
85466W        W57891   4.162  11.725   1.199
85467W        W57892  10.345  40.912  14.528
85468W        W57893   7.189  12.335  14.857
85469W        W57894  35.968   4.790   1.748
85470W        W57895  22.124   8.644   2.313
85471W        W57896  15.656  44.745  11.637
85472W        W57897   6.228  23.925  11.182
85473W        W57898  38.339   9.342   1.500
85474W        W57899  14.830   2.323   4.190
85475W        W57900   0.189  37.058   2.195
85476W        W57901   5.440  13.991   4.125
85477W        W57902  41.742   0.305   2.043
85478W        W57903  19.161   7.715   4.082
85479W        W57904  14.097   2.487  12.889
85480W        W57905  34.540   5.834   2.673
85481W        W57906  16.603  20.710  12.105
85482W        W57907  13.957  33.924   1.275
85483W        W57908  22.747   0.592  12.024
85484W        W57909  19.149  28.474  12.355
85485W        W57910  34.179  17.661   0.446
85486W        W57911  39.314  36.840   3.627
85487W        W57912  12.664  43.328  14.757
85488W        W57913  36.001  12.885  13.349
85489W        W57914  20.565  25.904   4.166
85490W        W57915  44.474  20.183  11.510
85491W        W57916   0.870  12.357   3.751
85492W        W57917   3.590  23.363  14.345
85493W        W57918  42.064   1.690   1.227
85494W        W57919   3.535  19.644  13.044
85495W        W57920   4.206  18.119   4.589
85496W        W57921  25.171  29.429   1.423
85497W        W57922  16.287  12.630   1.624
85498W        W57923   8.956  21.011  14.350
85499W        W57924  36.079  21.993   4.669
85500W        W57925  20.462  12.732  14.178
85501W        W57926  30.343  20.898   0.704
85502W        W57927  12.386  33.819  11.937
85503W        W57928  15.075  24.744   3.261
85504W        W57929  41.484  31.858   1.482
85505W        W57930  22.291  43.564   4.146
85506W        W57931  24.983  16.337   2.816
85507W        W57932  17.805   7.218  11.620
85508W        W57933   2.242  41.145   0.859
85509W        W57934  17.094  25.980  12.562
85510W        W57935  30.542  12.660   0.909
85511W        W57936  22.874  19.510   2.833
85512W        W57937  27.595  16.852  12.343
85513W        W57938   3.874  12.390  13.278
85514W        W57939   2.348  11.434   3.105
85515W        W57940   0.036   2.479   1.209
85516W        W57941  34.885  18.252   0.453
85517W        W57942  28.077  39.303   2.236
85518W        W57943  41.689  19.564  10.442
85519W        W57944  41.980  44.548   4.080
85520W        W57945  34.993  12.795   0.571
85521W        W57946   1.415   4.966   4.386
85522W        W57947   8.328  39.300   4.706
85523W        W57948  25.892  26.517  14.589
85524W        W57949   2.317  14.557   2.567
85525W        W57950  15.652  24.606  14.200
85526W        W57951   2.777  25.500  11.604
85527W        W57952  24.758  30.427   2.943
85528W        W57953  36.904  26.413   2.555
85529W        W57954  26.212  32.987  11.922
85530W        W57955  13.374  28.186   2.725
85531W        W57956   4.893   1.199   3.097
85532W        W57957  13.618   2.074   3.218
85533W        W57958  23.700  44.199   0.790
85534W        W57959  14.240  17.805  13.053
85535W        W57960   9.695  19.444   1.897
85536W        W57961  14.359  10.144   0.090
85537W        W57962  31.156   7.609  13.672
85538W        W57963  17.307  31.427  10.876
85539W        W57964  25.940  23.621   9.705
85540W        W57965  24.067   4.646   0.891
85541W        W57966   7.837  13.858   3.483
85542W        W57967   3.837   5.489   0.880
85543W        W57968  31.850  13.833   3.078
85544W        W57969  39.394   1.716   0.562
85545W        W57970  36.007  34.927  12.505
85546W        W57971   0.330  31.576   1.949
85547W        W57972  37.052  24.457   3.668
85548W        W57973  35.891  11.631  11.528
85549W        W57974  19.116  26.563   3.394
85550W        W57975  17.455  29.192  11.862
85551W        W57976  12.758  20.069   0.859
85552W        W57977  15.910  41.291  10.161
85553W        W57978  40.413  26.223   2.601
85554W        W57979  26.440  22.954   0.954
85555W        W57980  29.708   7.962  14.502
85556W        W57981  24.896  32.054   4.347
85557W        W57982  31.175  23.799   0.503
85558W        W57983   5.251  28.922   1.810
85559W        W57984  31.876  10.842   0.971
85560W        W57985  44.707  36.901   0.490
85561W        W57986  30.726  40.600  12.937
85562W        W57987  13.825  20.169   2.373
85563W        W57988  25.189  42.016   4.539
85564W        W57989  21.963  27.613   1.844
85565W        W57990  40.514  24.838  11.081
85566W        W57991  32.134  13.834   3.497
85567W        W57992  13.374  21.151  12.309
85568W        W57993  13.826   4.086  13.651
85569W        W57994   5.185  13.285   0.977
85570W        W57995  15.587   3.884   2.367
85571W        W57996  24.050  16.624   0.720
85572W        W57997  18.614  35.605  11.211
85573W        W57998  37.082  36.083  11.411
85574W        W57999   4.915  34.579   0.257
85575W        W58000  26.060   1.203  11.073
85576W        W58001  18.576  21.223   3.194
85577W        W58002  18.637  20.523   2.617
85578W        W58003  35.321  22.035  11.135
85579W        W58004  11.308  22.661  13.165
85580W        W58005  22.018  26.422   1.109
85581W        W58006  29.810  24.548  12.816
85582W        W58007  32.125  38.472  11.015
85583W        W58008  34.281  38.381   2.704
85584W        W58009  35.804  22.118   4.239
85585W        W58010  11.516  24.807  14.398
85586W        W58011  12.310  30.705  11.988
85587W        W58012  22.629  32.074   2.178
85588W        W58013   5.459  44.822  14.477
85589W        W58014  31.069  15.246  11.463
85590W        W58015  35.066  31.620  11.400
85591W        W58016  30.119  37.653   2.367
85592W        W58017  28.952  39.550  11.924
85593W        W58018  31.126  38.977  12.406
85594W        W58019   1.805  42.477   3.603
85595W        W58020  41.397  22.013  12.617
85596W        W58021  26.669  37.000   1.631
85597W        W58022  41.224   0.920   0.031
85598W        W58023   0.895  10.429  11.085
85599W        W58024  22.011  11.883   1.301
85600W        W58025  22.860  29.098   1.195
85601W        W58026  13.103  32.417   3.178
85602W        W58027  19.250  29.898   3.742
85603W        W58028  13.089  19.444  11.232
85604W        W58029  10.215   7.488   2.751
85605W        W58030   2.691  40.396   1.736
85606W        W58031  24.588  15.063   2.820
85607W        W58032  36.396  17.255   4.190
85608W        W58033  40.497  32.168  14.069
85609W        W58034  10.154  32.081  11.043
85610W        W58035  43.066  13.313  13.893
85611W        W58036  35.078  24.005   1.955
85612W        W58037   1.517  42.727   4.071
85613W        W58038  14.545  24.997  12.952
85614W        W58039   5.905  35.497  14.802
85615W        W58040   7.882  15.214   0.836
85616W        W58041   8.523  16.862   0.380
85617W        W58042  11.795  20.788  14.083
85618W        W58043  43.449  36.395  12.568
85619W        W58044   0.031  21.566  10.851
85620W        W58045   7.931  27.433   2.259
85621W        W58046  40.115  38.541   1.283
85622W        W58047  31.471  15.065   1.285
85623W        W58048  35.808   4.819  11.076
85624W        W58049   8.010  25.697  13.520
85625W        W58050  29.614  30.368  10.288
85626W        W58051   0.429  12.429  11.210
85627W        W58052   6.651  11.582  13.965
85628W        W58053  21.596  38.607  12.098
85629W        W58054   7.764  16.346  13.166
85630W        W58055  12.331  18.224  10.712
85631W        W58056  16.595  26.507  14.328
85632W        W58057  37.170  22.919   3.623
85633W        W58058  15.079  12.008   3.568
85634W        W58059  33.210  33.052  14.788
85635W        W58060  20.839  21.417  14.884
85636W        W58061  19.741  27.878  11.115
85637W        W58062   7.953  24.597   2.634
85638W        W58063   1.877   7.215   1.177
85639W        W58064  39.107  44.171   1.404
85640W        W58065  24.436  19.619   2.759
85641W        W58066  23.808  36.365   0.741
85642W        W58067  44.963  41.440   1.840
85643W        W58068  44.887  15.584  13.515
85644W        W58069   1.172   5.610  14.485
85645W        W58070  41.981   9.841   3.104
85646W        W58071   2.283   0.993   4.165
85647W        W58072  35.286   5.177  14.726
85648W        W58073   5.243  39.086   0.771
85649W        W58074   8.235   3.631  13.529
85650W        W58075  36.986   4.294  10.950
85651W        W58076  13.710  40.006   0.047
85652W        W58077  23.245  10.711  12.878
85653W        W58078  23.717  26.186  11.982
85654W        W58079   0.463  20.676   4.887
85655W        W58080  41.019   0.856  11.349
85656W        W58081  10.848  21.661   1.435
85657W        W58082   3.440  37.991   3.113
85658W        W58083  18.787  23.135   0.403
85659W        W58084  31.868  24.498   1.838
85660W        W58085  12.848   6.267  12.625
85661W        W58086  27.889   9.751   2.688
85662W        W58087  41.968  19.242   2.274
85663W        W58088  15.692  23.816  10.387
85664W        W58089   8.108  37.042   1.006
85665W        W58090  27.471  38.536   4.946
85666W        W58091  24.379  35.947  12.399
85667W        W58092  39.966  25.720   2.006
85668W        W58093  28.985  44.971   4.543
85669W        W58094  22.494   2.943   4.547
85670W        W58095  14.764   9.574   4.498
85671W        W58096   2.297  40.285   4.381
85672W        W58097  26.982  21.034  12.338
85673W        W58098   8.199  41.855   3.840
85674W        W58099   8.608   3.254  12.305
85675W        W58100  13.213  23.374  14.838
85676W        W58101  26.240  11.727   0.245
85677W        W58102  37.440  21.693   3.861
85678W        W58103  30.321  38.776   1.896
85679W        W58104  12.605  44.081  11.610
85680W        W58105  12.217  38.786  11.964
85681W        W58106  10.307  22.094   4.601
85682W        W58107   9.334  11.593   4.250
85683W        W58108   8.235  24.195   2.815
85684W        W58109   4.099  34.903  14.971
85685W        W58110   1.633  34.894   4.574
85686W        W58111   3.799  28.460  11.162
85687W        W58112   1.483  21.530   1.903
85688W        W58113  16.820  17.720  11.518
85689W        W58114  36.035  12.785  12.440
85690W        W58115  41.481  24.612   3.414
85691W        W58116   4.470  38.719  10.191
85692W        W58117  35.980  37.239  11.223
85693W        W58118  17.372  25.061  11.147
85694W        W58119  21.556   5.954  14.970
85695W        W58120  26.432  28.908  11.977
85696W        W58121  27.558  38.512  10.500
85697W        W58122  23.347   7.716  11.457
85698W        W58123  19.551  18.822  13.506
85699W        W58124  33.920  34.580   3.117
85700W        W58125  34.068  11.310   1.652
85701W        W58126  11.940  42.254   0.733
85702W        W58127  42.070  27.869   3.201
85703W        W58128  28.854   2.126  14.367
85704W        W58129  11.923   3.644   0.549
85705W        W58130  11.590  10.055   2.483
85706W        W58131  44.533   6.483  13.920
85707W        W58132  21.085  24.718   1.876
85708W        W58133  19.224  17.730   1.542
85709W        W58134   7.142  23.634  13.026
85710W        W58135  21.272  15.270  11.560
85711W        W58136   0.445  27.260  13.623
85712W        W58137  44.367  22.738  11.178
85713W        W58138  23.187  19.557   3.244
85714W        W58139  11.389  12.128  14.544
85715W        W58140  33.969   9.258   2.372
85716W        W58141   2.348  30.508   4.665
85717W        W58142   2.408  16.464   3.761
85718W        W58143  11.275  40.348   2.451
85719W        W58144  26.325   8.847   3.293
85720W        W58145  27.717  38.337  11.459
85721W        W58146  11.629  29.471  10.657
85722W        W58147   9.410  25.694  11.901
85723W        W58148  36.817   3.438  13.470
85724W        W58149   2.224  10.240   3.887
85725W        W58150  13.501  42.055  10.810
85726W        W58151  41.833  27.194  12.427
85727W        W58152  29.876  21.619   4.051
85728W        W58153  16.337  39.178  12.626
85729W        W58154  31.418  18.190   0.432
85730W        W58155  40.484  38.641   0.731
85731W        W58156  26.642  10.637  13.320
85732W        W58157   4.648  38.992  13.949
85733W        W58158  29.651  36.603  13.577
85734W        W58159   6.150  33.147  11.901
85735W        W58160  34.564  15.970  11.365
85736W        W58161  31.515  42.310  14.738
85737W        W58162  29.087  33.859  13.929
85738W        W58163  38.959   3.719  13.132
85739W        W58164  39.486  31.159   2.074
85740W        W58165  37.694  13.379   1.317
85741W        W58166   3.722   1.475  12.589
85742W        W58167  44.686  26.004  11.377
85743W        W58168  37.016  31.946   3.439
85744W        W58169  11.250   5.788   3.048
85745W        W58170  19.168  16.199  11.839
85746W        W58171  12.589  35.602  12.514
85747W        W58172  38.875  26.483  13.297
85748W        W58173  10.881   5.974  13.851
85749W        W58174  10.128  30.993  14.447
85750W        W58175  23.690   0.856  13.828
85751W        W58176  28.351   5.080   3.753
85752W        W58177  33.789  30.958  11.185
85753W        W58178   7.780  31.158  11.307
85754W        W58179  35.561  23.018   1.979
85755W        W58180  17.158   1.452  13.452
85756W        W58181  26.413   7.185   2.957
85757W        W58182  25.523  39.562  12.973
85758W        W58183  25.841  39.434  14.352
85759W        W58184   3.593  41.388  10.299
85760W        W58185  12.759   1.968  11.550
85761W        W58186  42.840  26.910  11.628
85762W        W58187   6.459  34.559   1.501
85763W        W58188  37.483  36.600   5.027
85764W        W58189  39.829   6.119  14.073
85765W        W58190  35.641  44.515  10.760
85766W        W58191  23.781   8.497   0.206
85767W        W58192  16.933   8.361   1.388
85768W        W58193  34.371  24.101  14.881
85769W        W58194  13.482  12.672   2.319
85770W        W58195  41.399  33.407  11.147
85771W        W58196  36.512  15.676   4.941
85772W        W58197  44.767  22.571  14.503
85773W        W58198   8.470  39.025  14.869
85774W        W58199  39.249   5.768  14.911
85775W        W58200  34.451   0.312   3.073
85776W        W58201  39.759  35.460  12.016
85777W        W58202  24.739  31.760   2.823
85778W        W58203  41.494  29.022   0.700
85779W        W58204  33.814   9.220   4.016
85780W        W58205  10.425  28.755  12.552
85781W        W58206  17.632   5.606   0.549
85782W        W58207  23.968  26.104   4.963
85783W        W58208   1.254   0.059  14.307
85784W        W58209  13.799   1.705   2.851
85785W        W58210   4.644   0.636  13.019
85786W        W58211  24.478  11.935   2.714
85787W        W58212   0.045  43.124  12.467
85788W        W58213  28.762  35.991   3.802
85789W        W58214  35.856  36.277  14.649
85790W        W58215  18.113   9.172   0.755
85791W        W58216  11.846  37.497   0.857
85792W        W58217   1.439   5.103  10.762
85793W        W58218  41.771  41.049  14.143
85794W        W58219  29.572  41.703   2.957
85795W        W58220  18.249  15.489   2.311
85796W        W58221   0.860  30.966   2.674
85797W        W58222   9.339  33.143  14.516
85798W        W58223  14.041   2.411   4.584
85799W        W58224  20.745   5.917   2.036
85800W        W58225  16.875  13.975   3.774
85801W        W58226  32.539  22.986   4.753
85802W        W58227  15.814  24.087   0.292
85803W        W58228   3.301  19.259   4.545
85804W        W58229  43.072   6.864   2.276
85805W        W58230  33.122  19.010   2.398
85806W        W58231  14.962   0.375   5.046
85807W        W58232   1.453  27.344  10.574
85808W        W58233  22.462  36.804  12.626
85809W        W58234   1.871  10.442  14.315
85810W        W58235  14.202   1.831   0.026
85811W        W58236  13.463  33.025   1.086
85812W        W58237  44.338  30.154  12.559
85813W        W58238  22.934  29.579  10.653
85814W        W58239  30.148  26.960  11.637
85815W        W58240   7.943   1.898  11.906
85816W        W58241  18.258   8.831   1.514
85817W        W58242  16.731  28.016   0.400
85818W        W58243  22.912   1.165   3.308
85819W        W58244  44.513  41.378  14.393
85820W        W58245  24.654  31.913   4.816
85821W        W58246  20.828   3.774  10.441
85822W        W58247   9.675  24.214  12.433
85823W        W58248  16.364   9.094   1.453
85824W        W58249   2.364  10.475   2.385
85825W        W58250   9.202  13.422  11.107
85826W        W58251  37.708  30.250  11.976
85827W        W58252   8.207   6.345   4.062
85828W        W58253  23.662   0.232   0.486
85829W        W58254  41.072  43.899  14.040
85830W        W58255   4.361  43.532   2.236
85831W        W58256  38.880  43.672   2.769
85832W        W58257  11.418  29.302  13.029
85833W        W58258   2.650   1.276   3.419
85834W        W58259  29.907  24.479  11.425
85835W        W58260  38.533   1.517  10.706
85836W        W58261  19.329   6.079   3.228
85837W        W58262   3.790  35.316   2.698
85838W        W58263  28.980  18.354  14.340
85839W        W58264  44.697   6.808  14.823
85840W        W58265   9.532  23.234  10.757
85841W        W58266  19.867  15.115  14.363
85842W        W58267   9.058  15.689  11.940
85843W        W58268  29.574  32.595   3.380
85844W        W58269  36.949  16.662   4.867
85845W        W58270  27.077  35.094  14.989
85846W        W58271   0.235  43.501   1.446
85847W        W58272  33.968  37.784   3.231
85848W        W58273  22.900  12.552   0.582
85849W        W58274  11.126  41.445   4.421
85850W        W58275  26.913  34.550   3.739
85851W        W58276  34.058   4.526  13.536
85852W        W58277  13.337   1.030   2.342
85853W        W58278  34.025  33.575   1.377
85854W        W58279  27.579  13.250   0.476
85855W        W58280  23.255  24.435   2.778
85856W        W58281  19.142  27.198   0.968
85857W        W58282  28.114  16.557  13.758
85858W        W58283  42.393  28.229   0.345
85859W        W58284  23.570  21.269   3.913
85860W        W58285  17.720  31.409  11.181
85861W        W58286  18.046  36.602   2.209
85862W        W58287  35.836  26.239  10.811
85863W        W58288   3.666  42.850  12.109
85864W        W58289  22.263  24.782  14.069
85865W        W58290   1.214  40.035   3.691
85866W        W58291  31.361  12.222   3.381
85867W        W58292  40.348   0.725  11.936
85868W        W58293   0.153  27.684   4.612
85869W        W58294  37.810  40.275  11.834
85870W        W58295   4.165  37.435   0.486
85871W        W58296  17.563   3.510   3.759
85872W        W58297   9.139  25.692   2.285
85873W        W58298  10.337   5.281   4.973
85874W        W58299  42.395  17.952   1.745
85875W        W58300  39.447  10.195  12.091
85876W        W58301  44.481   4.791  10.734
85877W        W58302  35.388  27.421  14.887
85878W        W58303   2.423  40.103   2.111
85879W        W58304  36.107  43.306  12.006
85880W        W58305  22.899  21.701   4.144
85881W        W58306  43.521  42.330  14.247
85882W        W58307  19.695  36.069  13.055
85883W        W58308  24.117  21.040   1.652
85884W        W58309  36.134   2.081  14.415
85885W        W58310   1.945  40.500   4.720
85886W        W58311  14.445   3.000  11.424
85887W        W58312   5.073  26.798   1.324
85888W        W58313  14.725  44.433  11.157
85889W        W58314   3.306   2.666  13.202
85890W        W58315   1.734  34.505  12.495
85891W        W58316  11.886  36.991  14.344
85892W        W58317  19.969  12.201   4.043
85893W        W58318   6.299  13.660  13.462
85894W        W58319   1.966  33.478   4.930
85895W        W58320  17.189   3.284  10.928
85896W        W58321  38.362  16.326  11.917
85897W        W58322  14.370   7.659   2.446
85898W        W58323  16.918   9.610   2.690
85899W        W58324   8.991  33.403  14.812
85900W        W58325  24.680  27.212   1.786
85901W        W58326  16.007  26.162   3.337
85902W        W58327  35.358  27.055  11.264
85903W        W58328  28.623  29.383  10.652
85904W        W58329   4.883  21.151  10.819
85905W        W58330  31.931  17.642  12.905
85906W        W58331  30.026  27.056   0.529
85907W        W58332   9.607  43.369   0.171
85908W        W58333   3.986  20.046   4.114
85909W        W58334  29.522  41.435  11.984
85910W        W58335  17.815  14.827   1.930
85911W        W58336  22.981  11.091  13.482
85912W        W58337  23.566  27.211   3.151
85913W        W58338  11.137   3.049   3.633
85914W        W58339   6.557  12.860  11.204
85915W        W58340  39.793  33.030  13.586
85916W        W58341  33.032  35.147  12.241
85917W        W58342  34.547  32.726  13.747
85918W        W58343  38.291  22.090   4.210
85919W        W58344  25.181   4.391  13.963
85920W        W58345  39.976  33.666  13.898
85921W        W58346   9.720  38.598  12.868
85922W        W58347  28.688   9.321  11.459
85923W        W58348  15.722  36.048  10.633
85924W        W58349  40.774  43.800  11.879
85925W        W58350   5.642  36.890   1.787
85926W        W58351  14.678  27.246   0.751
85927W        W58352  15.552  35.026  11.657
85928W        W58353  26.997  22.439   0.294
85929W        W58354  17.638  20.545   1.791
85930W        W58355  39.775  23.102  13.353
85931W        W58356  24.562  44.508   2.711
85932W        W58357  39.874  36.933  13.930
85933W        W58358  27.043  17.468  14.406
85934W        W58359  37.483  39.281  14.916
85935W        W58360  37.680  37.395   2.755
85936W        W58361  38.972   4.611  12.098
85937W        W58362  29.100  33.047   4.587
85938W        W58363  11.821  34.537   4.874
85939W        W58364   5.476  30.059   1.305
85940W        W58365   9.817  42.957   5.145
85941W        W58366  18.424  36.353  12.674
85942W        W58367  18.136  32.509  10.503
85943W        W58368  33.729  31.837   3.655
85944W        W58369  30.321   9.064  10.479
85945W        W58370  42.025  12.692  11.592
85946W        W58371  13.277  15.839  11.326
85947W        W58372  39.714   3.189  12.612
85948W        W58373  31.283  24.279   0.644
85949W        W58374   0.670  14.133  12.925
85950W        W58375   8.752   3.807   1.737
85951W        W58376   0.270  36.141  13.635
85952W        W58377  44.088  38.830  12.139
85953W        W58378   1.637  23.214   0.305
85954W        W58379   5.123  39.125  14.450
85955W        W58380  39.136  34.964  11.573
85956W        W58381  22.526  43.312  14.248
85957W        W58382  13.643  40.528  14.904
85958W        W58383  10.413   7.655  11.781
85959W        W58384  42.165  36.517  12.324
85960W        W58385  37.828   2.457   0.846
85961W        W58386  11.590  15.172   4.916
85962W        W58387  16.261  16.846   2.386
85963W        W58388   0.279   2.364   1.840
85964W        W58389  35.037  18.565   3.035
85965W        W58390  16.829  23.766  12.487
85966W        W58391   8.643  21.959  14.432
85967W        W58392  34.926  10.774   0.484
85968W        W58393  25.019   8.482   0.713
85969W        W58394  22.757   7.692   5.022
85970W        W58395   9.422   5.649  12.009
85971W        W58396  40.434  24.561  14.044
85972W        W58397   7.353  23.184   0.366
85973W        W58398  23.058  34.920   1.306
85974W        W58399   5.687  14.759   1.810
85975W        W58400   6.037  14.706   2.191
85976W        W58401   3.787  21.753  10.722
85977W        W58402   8.839  13.785  13.947
85978W        W58403  25.699   3.540   4.079
85979W        W58404  40.877  40.882  13.722
85980W        W58405   5.688   9.392  13.023
85981W        W58406  38.307  25.366  10.645
85982W        W58407  33.016   7.704  12.551
85983W        W58408  17.491  20.102  12.592
85984W        W58409   6.255  20.693   2.224
85985W        W58410  17.500  33.154  14.777
85986W        W58411  21.612  38.566   2.011
85987W        W58412  14.083  30.736  11.531
85988W        W58413  18.090  17.984  12.611
85989W        W58414  13.811  34.247   4.739
85990W        W58415  18.635  26.535  13.880
85991W        W58416  21.170   2.583   4.413
85992W        W58417  27.202  21.509   2.330
85993W        W58418  26.095  28.289   2.755
85994W        W58419   4.279  13.078   3.102
85995W        W58420  30.149   8.716  14.765
85996W        W58421  36.035  20.024  13.373
85997W        W58422  41.408  42.452  13.599
85998W        W58423  17.057   3.721  13.889
85999W        W58424  25.572  42.007   2.748
86000W        W58425  37.750   4.612  10.036
86001W        W58426   7.388  13.541  14.906
86002W        W58427  31.466  40.120   3.129
86003W        W58428  34.269  44.856  14.558
86004W        W58429   3.151  40.778   4.863
86005W        W58430  35.076  10.320  11.165
86006W        W58431  36.578  28.404  10.451
86007W        W58432  22.174  25.207  11.816
86008W        W58433  42.829  10.281   0.297
86009W        W58434  28.305   7.778   2.865
86010W        W58435  35.376   0.323   4.582
86011W        W58436  43.301  43.215  13.942
86012W        W58437  37.269  19.230  12.513
86013W        W58438  16.233  13.445  12.972
86014W        W58439  19.955   2.241   0.748
86015W        W58440   9.604  25.930   4.462
86016W        W58441   6.635  21.236  13.863
86017W        W58442  22.175  18.074  10.638
86018W        W58443  38.405  24.685   3.662
86019W        W58444  26.468   4.643   2.353
86020W        W58445  18.858  40.675   5.218
86021W        W58446   8.294  23.117   0.595
86022W        W58447   7.188  43.457   3.660
86023W        W58448  41.929  13.147  12.591
86024W        W58449  23.860  39.309  12.524
86025W        W58450  18.877  37.586  14.299
86026W        W58451  28.529   9.848   3.267
86027W        W58452  19.948  24.121   4.637
86028W        W58453  41.875  37.275   1.311
86029W        W58454  39.832  18.263   0.432
86030W        W58455  23.554   2.428  14.896
86031W        W58456  27.708  16.780   0.025
86032W        W58457   4.682  44.750   2.131
86033W        W58458   7.685  14.129  13.280
86034W        W58459   4.855  16.627  10.681
86035W        W58460   2.570  30.299  12.800
86036W        W58461  36.873  25.596  14.402
86037W        W58462   7.670  44.377  13.992
86038W        W58463   1.421  40.473   4.724
86039W        W58464  18.387  35.949   4.470
86040W        W58465  39.057  25.537  11.665
86041W        W58466  39.022   6.713  13.976
86042W        W58467  17.559   0.710   3.121
86043W        W58468  37.226  42.202   2.827
86044W        W58469  31.384  28.975   0.038
86045W        W58470  14.586  18.734   2.956
86046W        W58471  23.103   0.195   3.387
86047W        W58472  36.441  19.152   3.779
86048W        W58473  20.096  32.356  13.823
86049W        W58474  18.036   7.888  12.479
86050W        W58475  11.143  37.413  11.635
86051W        W58476  39.990  26.943   3.648
86052W        W58477  36.810  33.565  11.125
86053W        W58478  25.229   8.355  10.474
86054W        W58479  23.939   7.535  11.999
86055W        W58480  18.004  18.273   0.299
86056W        W58481  42.735  20.074   4.576
86057W        W58482  25.924   6.922  13.045
86058W        W58483   1.238  32.736  13.836
86059W        W58484  16.644   3.589  10.259
86060W        W58485  40.259  23.132  10.727
86061W        W58486  24.164  25.959  13.386
86062W        W58487  26.942   3.071  14.547
86063W        W58488  41.994  21.594  14.739
86064W        W58489  20.946  36.933  12.166
86065W        W58490  32.599  25.461  13.337
86066W        W58491  23.322  14.552   3.148
86067W        W58492   5.432  12.105  14.461
86068W        W58493  40.483  33.108  10.440
86069W        W58494  22.098  19.086   3.043
86070W        W58495  38.612   6.339   4.257
86071W        W58496  27.805  37.522  13.883
86072W        W58497  23.100   8.178  12.581
86073W        W58498  41.907  32.030  10.789
86074W        W58499  10.418  15.542  11.529
86075W        W58500  32.488   2.716  13.935
86076W        W58501  28.482  24.021   4.753
86077W        W58502  22.923   0.753   4.607
86078W        W58503   4.953  25.453   0.335
86079W        W58504   9.629   1.832  12.940
86080W        W58505  11.267  26.427  14.942
86081W        W58506  21.742  26.165   1.923
86082W        W58507   9.871  42.468   0.466
86083W        W58508  35.149   7.697   4.461
86084W        W58509   1.077  26.102   0.315
86085W        W58510  21.568  34.847   1.389
86086W        W58511  11.593   4.337  14.361
86087W        W58512  29.935  34.365   2.633
86088W        W58513  18.226  17.340  14.409
86089W        W58514   5.291  37.059   2.825
86090W        W58515   3.477  18.081  12.056
86091W        W58516  43.317  38.664  14.535
86092W        W58517   8.610  44.530   4.223
86093W        W58518  29.393   3.913   1.522
86094W        W58519   5.720  35.100   4.813
86095W        W58520   7.238  42.404   2.901
86096W        W58521  17.625   0.350  12.095
86097W        W58522   4.458  40.318  13.400
86098W        W58523  35.678  30.491  13.855
86099W        W58524  34.157   0.651  13.134
86100W        W58525  17.207   8.329   0.542
86101W        W58526  22.503  19.777  13.850
86102W        W58527  20.240  40.488   0.940
86103W        W58528  26.297  11.641   0.792
86104W        W58529  30.070   2.911   4.033
86105W        W58530   7.349   3.380   0.299
86106W        W58531  37.459   4.004  11.155
86107W        W58532  28.566  30.068  14.226
86108W        W58533  39.622  21.529  11.629
86109W        W58534   5.408   4.888   1.490
86110W        W58535  14.224  11.952   3.852
86111W        W58536  12.052  10.467  12.080
86112W        W58537   8.584   9.331   2.687
86113W        W58538  30.008  13.852   1.263
86114W        W58539  29.255   2.900  11.898
86115W        W58540  19.146  15.610  13.031
86116W        W58541  41.251  43.864  12.043
86117W        W58542  19.150  22.007   4.374
86118W        W58543  34.418  36.422   2.892
86119W        W58544  43.171  38.775  14.063
86120W        W58545   9.547  40.870  12.076
86121W        W58546  35.080  37.282  14.468
86122W        W58547  21.425  26.044  13.925
86123W        W58548  19.017  44.594   0.310
86124W        W58549  13.014   8.891  11.906
86125W        W58550  31.462  35.857  13.586
86126W        W58551  15.166   2.140  10.815
86127W        W58552  41.766  10.266  13.814
86128W        W58553   2.314  41.934  14.862
86129W        W58554  39.044  20.672  12.414
86130W        W58555  33.777  18.579  12.262
86131W        W58556  35.830  42.232   1.761
86132W        W58557   7.872   7.311  12.067
86133W        W58558  28.051   8.185  11.044
86134W        W58559  24.189  21.890  11.214
86135W        W58560  34.520  30.583  10.784
86136W        W58561   1.476  13.839   3.334
86137W        W58562  33.799   2.413  12.771
86138W        W58563  44.035  26.056   1.302
86139W        W58564  12.431   9.077   2.191
86140W        W58565   5.778  12.101  11.972
86141W        W58566  10.764  39.673   1.371
86142W        W58567  20.249  38.480   0.759
86143W        W58568   0.793   2.451   2.939
86144W        W58569  41.921   0.306  12.952
86145W        W58570  15.964  20.067  12.382
86146W        W58571  24.535  42.342  12.464
86147W        W58572  32.096  42.906   1.863
86148W        W58573  38.949   1.205  10.655
86149W        W58574  13.277  14.613   4.695
86150W        W58575  33.141   5.255  14.431
86151W        W58576  11.571  27.165   5.031
86152W        W58577  34.787   5.099  11.461
86153W        W58578  10.665   8.670   4.602
86154W        W58579   6.916   2.849   2.019
86155W        W58580  33.983   7.217  11.972
86156W        W58581  32.177  18.109   5.071
86157W        W58582  40.048   1.855   2.335
86158W        W58583   3.474   9.597  11.467
86159W        W58584  42.729  15.093   1.224
86160W        W58585  10.253   2.981  11.280
86161W        W58586   2.757   8.620   0.990
86162W        W58587  22.692   8.347   3.358
86163W        W58588  23.510  13.667   2.505
86164W        W58589  39.047  44.340   3.180
86165W        W58590  29.357  44.305   2.279
86166W        W58591   6.891  35.327  10.946
86167W        W58592  42.108   0.341   0.748
86168W        W58593  43.166  13.139   3.360
86169W        W58594  27.116  21.700   1.022
86170W        W58595  27.305   2.504  11.039
86171W        W58596  42.810  41.449   1.292
86172W        W58597  19.098  10.178  11.419
86173W        W58598  13.095   6.380   1.964
86174W        W58599  40.541  41.446   2.035
86175W        W58600  14.343   1.904  13.509
86176W        W58601  44.419  31.601  12.585
86177W        W58602  34.934  26.975  14.248
86178W        W58603  41.065  19.140  10.774
86179W        W58604  19.408  40.413  12.434
86180W        W58605  41.005   7.968  14.381
86181W        W58606  32.024   9.630  14.345
86182W        W58607  18.994   9.841   2.630
86183W        W58608  20.283   5.821   1.105
86184W        W58609  22.795  36.517   0.009
86185W        W58610   2.145  36.124  13.321
86186W        W58611  20.360  31.433   3.710
86187W        W58612  17.768   3.928   2.863
86188W        W58613  15.307   7.201  13.710
86189W        W58614  21.532  16.338  14.373
86190W        W58615  16.463  37.591  11.043
86191W        W58616  44.094  24.812   3.287
86192W        W58617  13.775  10.662   4.618
86193W        W58618  11.904  23.643  13.879
86194W        W58619  14.850  25.394   0.766
86195W        W58620  15.394   4.397  13.810
86196W        W58621  29.317  37.434  12.486
86197W        W58622  31.102  33.421   2.333
86198W        W58623   0.751   7.749   2.323
86199W        W58624  24.942   3.542  14.844
86200W        W58625  32.832   4.446  12.288
86201W        W58626  39.272  41.882   0.333
86202W        W58627  15.742   5.109   3.779
86203W        W58628  24.509   2.874  14.399
86204W        W58629   1.206   5.446   4.247
86205W        W58630  43.895  19.266   3.256
86206W        W58631  23.153   9.077  13.503
86207W        W58632  34.616  12.865   4.590
86208W        W58633  20.596  21.767   4.782
86209W        W58634  37.487  17.760   4.962
86210W        W58635  43.430  39.974   4.153
86211W        W58636  30.609   8.085  12.583
86212W        W58637  41.800  19.061  14.896
86213W        W58638  42.598   1.468   2.736
86214W        W58639  18.816  40.587   2.335
86215W        W58640   8.418  35.170  14.600
86216W        W58641   0.271  41.006  10.580
86217W        W58642   0.221   8.667  13.421
86218W        W58643  33.597  34.998   3.756
86219W        W58644  22.478  36.047   4.508
86220W        W58645  44.829  16.063   3.578
86221W        W58646   8.607  17.042  13.782
86222W        W58647  12.456  20.065   4.196
86223W        W58648   6.793  33.082  12.889
86224W        W58649  26.136  36.382   0.726
86225W        W58650   6.732  34.964  13.902
86226W        W58651  17.500  39.912  14.781
86227W        W58652   4.522  11.775  13.306
86228W        W58653  21.628  18.855   4.638
86229W        W58654  44.258  34.607   4.147
86230W        W58655  10.666  38.255  10.922
86231W        W58656  27.512   3.137   3.476
86232W        W58657  40.577  15.635   3.061
86233W        W58658  29.884  38.658   2.329
86234W        W58659   1.998   8.551  10.790
86235W        W58660  15.856   2.710  13.066
86236W        W58661  15.705  12.333   2.929
86237W        W58662   5.683  30.077   3.728
86238W        W58663  15.700  17.642  11.405
86239W        W58664  36.319  19.924   3.194
86240W        W58665   1.192   2.236  13.864
86241W        W58666  12.283  44.922   4.702
86242W        W58667  26.606  37.463   3.971
86243W        W58668  13.974  17.373   4.069
86244W        W58669  19.038  30.167  12.787
86245W        W58670  36.068  15.382   0.260
86246W        W58671  44.406  44.335  13.121
86247W        W58672   3.753  32.390   0.387
86248W        W58673  37.153  28.558  13.101
86249W        W58674  29.153  18.721   3.706
86250W        W58675  20.618  16.596   0.736
86251W        W58676  44.304  28.169  11.222
86252W        W58677  33.424   8.691  10.718
86253W        W58678  18.468   3.461   3.733
86254W        W58679  12.767  35.770  10.696
86255W        W58680  17.992   7.833  14.288
86256W        W58681  42.930   6.414  11.209
86257W        W58682   1.364  40.030   2.698
86258W        W58683  28.186  32.700   0.737
86259W        W58684  10.932   5.841   2.106
86260W        W58685   4.309  25.562   4.817
86261W        W58686  22.283  34.981  11.098
86262W        W58687  12.540  28.668  13.555
86263W        W58688  25.829  43.026   2.041
86264W        W58689  15.098  23.059   4.791
86265W        W58690  41.451   2.838   1.912
86266W        W58691   4.289  31.545   3.981
86267W        W58692  18.097  20.212  14.881
86268W        W58693  23.816  13.388   0.825
86269W        W58694  36.587  27.630   4.275
86270W        W58695  22.833  37.933  11.468
86271W        W58696   5.339  20.445  10.603
86272W        W58697  14.136   0.201   0.784
86273W        W58698  28.844  41.573   3.209
86274W        W58699  34.323   3.075   3.596
86275W        W58700  17.527  11.278  12.518
86276W        W58701  22.507  35.878   1.320
86277W        W58702  43.684  25.342   2.158
86278W        W58703  21.689  35.653  12.114
86279W        W58704  27.520  17.856   3.591
86280W        W58705   4.396  19.708  11.503
86281W        W58706  21.667  31.201   0.259
86282W        W58707  15.102  35.928   0.378
86283W        W58708   6.175   2.636   3.229
86284W        W58709  15.673  30.960   4.155
86285W        W58710   1.759  13.646   2.733
86286W        W58711  34.687  18.260   5.016
86287W        W58712  29.087  38.139  11.641
86288W        W58713   4.414  21.560  13.547
86289W        W58714  10.223  36.780   3.218
86290W        W58715  34.386   5.242   4.358
86291W        W58716  37.901  39.607   4.121
86292W        W58717   1.302  38.875  12.499
86293W        W58718  34.576  30.110  13.534
86294W        W58719   7.656   5.212  10.393
86295W        W58720   2.414  25.669   0.287
86296W        W58721  41.761  35.295   1.756
86297W        W58722  43.405   4.871   3.270
86298W        W58723   3.680   7.875  14.051
86299W        W58724  29.655  33.081  10.201
86300W        W58725  41.778   9.056   3.189
86301W        W58726   4.481   8.687   0.711
86302W        W58727  17.723  35.816   3.159
86303W        W58728  31.795   1.025  12.306
86304W        W58729   2.361  12.397  10.635
86305W        W58730  33.703  17.829   0.487
86306W        W58731   9.730  11.593  11.673
86307W        W58732  13.313  15.309   4.077
86308W        W58733  31.527   9.302  12.186
86309W        W58734   9.442  16.668  11.650
86310W        W58735  14.583   4.913  10.565
86311W        W58736  16.116  29.031  13.305
86312W        W58737  31.221  28.084   2.254
86313W        W58738  16.941  29.327  11.685
86314W        W58739  20.327  17.717  13.179
86315W        W58740  19.310  30.959  13.874
86316W        W58741  33.536   2.923  11.983
86317W        W58742  10.380  16.082  11.562
86318W        W58743  20.070  22.895  11.486
86319W        W58744  23.056   3.633   3.257
86320W        W58745   5.358   0.024   3.290
86321W        W58746  35.473   6.853  11.890
86322W        W58747  22.119   7.384   1.368
86323W        W58748  24.771  28.852  14.826
86324W        W58749  31.555  14.593   1.029
86325W        W58750  44.034  11.444   0.806
86326W        W58751   7.197  36.156  11.217
86327W        W58752  39.890  33.318   3.847
86328W        W58753  26.466  36.632  10.645
86329W        W58754  29.636  27.970  12.000
86330W        W58755   2.959  35.974   0.395
86331W        W58756  10.253   8.773  14.858
86332W        W58757   4.390  37.543   4.714
86333W        W58758   6.130  30.043   0.899
86334W        W58759   7.693  10.829   0.428
86335W        W58760  13.376  26.795   0.958
86336W        W58761   8.351  22.198   2.801
86337W        W58762   1.252  22.549   2.323
86338W        W58763  12.731  39.805  10.575
86339W        W58764  42.531  40.987  12.390
86340W        W58765  15.209  34.951   3.936
86341W        W58766  41.225  10.359  13.707
86342W        W58767  30.079  19.244   3.063
86343W        W58768  24.265  26.910  11.015
86344W        W58769  23.046  31.781   3.104
86345W        W58770  30.158  38.483   0.059
86346W        W58771   4.769  11.054  10.688
86347W        W58772  34.035   1.081  11.087
86348W        W58773  19.371  32.259   3.633
86349W        W58774  21.188  21.279  11.530
86350W        W58775  29.299  40.674   4.130
86351W        W58776  40.079   5.825   2.187
86352W        W58777  27.347  27.174  11.174
86353W        W58778  34.836  10.745  13.143
86354W        W58779  13.685  24.401  13.416
86355W        W58780  43.825  24.840   5.011
86356W        W58781  34.410  28.907   3.337
86357W        W58782  28.240  37.546   4.721
86358W        W58783  29.166  12.949   0.895
86359W        W58784  16.327  31.201   5.010
86360W        W58785  15.132   1.543  12.380
86361W        W58786   0.617  20.281   1.306
86362W        W58787  33.847  34.548   3.655
86363W        W58788  13.458   4.646  10.113
86364W        W58789  24.906  35.646   3.829
86365W        W58790   3.481  40.919   2.575
86366W        W58791  36.729  43.778   4.080
86367W        W58792  38.855  26.796   4.093
86368W        W58793   0.525  23.650  11.095
86369W        W58794  20.402  11.227  10.732
86370W        W58795  43.827  21.440   2.094
86371W        W58796  42.237  27.349  12.940
86372W        W58797  35.886  41.870   5.068
86373W        W58798  12.934  21.678   1.341
86374W        W58799  39.975   9.720  11.545
86375W        W58800  25.471   3.995  12.552
86376W        W58801   8.226  11.176   1.825
86377W        W58802  41.010  31.615   1.923
86378W        W58803   8.482   4.892   2.358
86379W        W58804  31.374  19.685   4.595
86380W        W58805   9.218  39.100  11.681
86381W        W58806  18.234  13.748  13.393
86382W        W58807  40.202  40.900  11.926
86383W        W58808  35.144  23.125   1.602
86384W        W58809  12.746   8.481  10.591
86385W        W58810  22.029  44.281  10.715
86386W        W58811  28.630  14.129  13.826
86387W        W58812  19.832  13.287  11.007
86388W        W58813  32.022   3.197  11.658
86389W        W58814  12.084  36.727   4.140
86390W        W58815  21.604  21.973  11.659
86391W        W58816  23.260   2.888  11.600
86392W        W58817  25.465  29.023  14.348
86393W        W58818  13.452  26.486  11.962
86394W        W58819  17.554  31.598   1.734
86395W        W58820  12.567   8.085   2.813
86396W        W58821  37.309   8.330   3.083
86397W        W58822  37.929   7.791   2.740
86398W        W58823  27.400  37.026   4.849
86399W        W58824  34.128   5.891  14.963
86400W        W58825  37.910  23.558  14.066
86401W        W58826  36.677  21.317  11.195
86402W        W58827   2.574  17.741  14.738
86403W        W58828  40.757  23.029  10.739
86404W        W58829  30.402  25.164  14.829
86405W        W58830  31.103  14.544   0.761
86406W        W58831   0.840   3.043  13.475
86407W        W58832  35.934  10.770  10.898
86408W        W58833   2.224   4.114   3.837
86409W        W58834  19.275  31.014  10.695
86410W        W58835  43.280   8.512   4.347
86411W        W58836  23.800  10.826  11.080
86412W        W58837  43.594  33.145  10.901
86413W        W58838  25.679  39.138  11.993
86414W        W58839  27.434  19.081   1.301
86415W        W58840  27.403  15.814  10.520
86416W        W58841   6.425   8.873   3.674
86417W        W58842  35.783  20.699   0.517
86418W        W58843   3.421   0.809   1.219
86419W        W58844  24.627  26.182   2.898
86420W        W58845  26.566  41.455  11.063
86421W        W58846  15.254  38.070   2.352
86422W        W58847  19.231  27.710  13.049
86423W        W58848  28.699  43.691  14.752
86424W        W58849  44.008  42.206  13.512
86425W        W58850  33.180   2.475  14.096
86426W        W58851  13.843  32.276  10.623
86427W        W58852  20.796  32.659   1.753
86428W        W58853  43.559  29.587   2.112
86429W        W58854  42.409   2.722   4.168
86430W        W58855  27.634  35.971   1.815
86431W        W58856   2.665  42.773   3.407
86432W        W58857  14.911  28.452  10.655
86433W        W58858  22.291  30.585  12.674
86434W        W58859   0.742   7.048   1.888
86435W        W58860   0.472  44.791   3.052
86436W        W58861  33.957  15.182  14.977
86437W        W58862  40.376  29.147  10.332
86438W        W58863  33.726  16.122  14.880
86439W        W58864  19.122  33.816  12.558
86440W        W58865  17.878  18.714  11.187
86441W        W58866  17.704  19.827  10.519
86442W        W58867  44.765  33.124  13.931
86443W        W58868  31.132  42.034  12.113
86444W        W58869  23.268  33.909   2.349
86445W        W58870  39.196   6.355   1.581
86446W        W58871  40.948  19.647   3.720
86447W        W58872  43.372  20.159  14.747
86448W        W58873  25.002  37.526   2.717
86449W        W58874  40.945   2.868  10.769
86450W        W58875  31.096  27.566   2.759
86451W        W58876  43.592   8.426   0.401
86452W        W58877  36.684  10.402   0.739
86453W        W58878  24.503  24.747   2.238
86454W        W58879  30.997  25.555   1.785
86455W        W58880   7.667  37.048  11.224
86456W        W58881  25.275   7.839   3.326
86457W        W58882   7.830  10.113  14.824
86458W        W58883  32.526  15.915  13.026
86459W        W58884  18.605  36.900  13.332
86460W        W58885  31.610  35.378  11.078
86461W        W58886   5.071   5.763  13.831
86462W        W58887  38.463   2.382  11.191
86463W        W58888  25.752  15.142  14.007
86464W        W58889  16.694  40.541   1.757
86465W        W58890  32.731  23.600  13.566
86466W        W58891  40.551  29.396  10.756
86467W        W58892  26.281  13.838  14.920
86468W        W58893  34.261  27.245   4.748
86469W        W58894  28.244  39.344  13.352
86470W        W58895  12.431  19.062  11.726
86471W        W58896  23.040  12.288   1.793
86472W        W58897  41.465  20.773  14.052
86473W        W58898  28.222  36.532  12.433
86474W        W58899   6.318  18.717   3.641
86475W        W58900  31.804  42.984  14.237
86476W        W58901   1.298  18.490   3.932
86477W        W58902  30.803  44.383   2.083
86478W        W58903  23.058  29.933   4.744
86479W        W58904  15.831  35.903   3.230
86480W        W58905  40.400   3.061   4.364
86481W        W58906  27.599   3.876  10.841
86482W        W58907  44.587   1.341  10.796
86483W        W58908  29.467   8.331  11.978
86484W        W58909  11.214  27.029   2.670
86485W        W58910  27.854   8.466   1.823
86486W        W58911  42.244  28.125   2.124
86487W        W58912  36.124  19.685   4.485
86488W        W58913  41.118  31.949  10.735
86489W        W58914  36.564  13.134   2.635
86490W        W58915   1.821  37.485   3.648
86491W        W58916  40.097  25.507  11.762
86492W        W58917  32.814  17.783  12.055
86493W        W58918  31.128  20.223  10.889
86494W        W58919  14.714  23.807  11.035
86495W        W58920  25.671   1.028  14.797
86496W        W58921   7.601  10.743  11.392
86497W        W58922  14.940  15.853   3.809
86498W        W58923  36.976  11.350  10.621
86499W        W58924  28.435  13.340   0.260
86500W        W58925  15.385  26.176   4.232
86501W        W58926   2.476   8.910   3.211
86502W        W58927  23.212  44.750   3.078
86503W        W58928  43.098  37.055  11.015
86504W        W58929  13.087  37.882  10.662
86505W        W58930   0.993  34.140  12.208
86506W        W58931  26.057  25.696  13.894
86507W        W58932   0.259  22.023   2.022
86508W        W58933   8.023   9.695   3.151
86509W        W58934  11.312  16.335   1.860
86510W        W58935  44.889  22.010  11.561
86511W        W58936  22.608  30.824   4.658
86512W        W58937  31.179  34.096  12.890
86513W        W58938  16.611  38.461   0.812
86514W        W58939   6.665  12.754  10.723
86515W        W58940  24.232  19.152   2.840
86516W        W58941  25.067  24.989   2.857
86517W        W58942  44.715  26.129  13.089
86518W        W58943  11.187  34.384  11.514
86519W        W58944  25.411  26.882   2.341
86520W        W58945   7.683  31.953  10.143
86521W        W58946   4.933  24.498   4.073
86522W        W58947  19.794  24.062   3.741
86523W        W58948  26.967  30.225  14.957
86524W        W58949  26.449  36.823   4.786
86525W        W58950  14.965  38.545   2.606
86526W        W58951   2.895   9.071   0.487
86527W        W58952   1.242  19.792   1.394
86528W        W58953  16.228  19.051   3.798
86529W        W58954  39.810   9.678  11.066
86530W        W58955  16.583   8.417  13.308
86531W        W58956  23.003   1.575  12.806
86532W        W58957  27.959  38.752  11.972
86533W        W58958  44.768   2.735   2.662
86534W        W58959  41.405  44.021   1.261
86535W        W58960   7.034  44.337  10.396
86536W        W58961  25.478  31.713  10.644
86537W        W58962  26.884  11.156   2.835
86538W        W58963  16.633   7.468   2.574
86539W        W58964  37.585  21.684  11.588
86540W        W58965  39.756  34.429  12.357
86541W        W58966  24.198  21.580   1.737
86542W        W58967  15.163   4.941   0.798
86543W        W58968  27.215  15.001  13.508
86544W        W58969  31.983  11.271  10.659
86545W        W58970  34.851  11.156  12.857
86546W        W58971   0.209   7.539  12.031
86547W        W58972  37.655  17.130   3.742
86548W        W58973  19.802   8.283  11.565
86549W        W58974   7.654   1.987  13.929
86550W        W58975  14.016  24.786   1.241
86551W        W58976  19.126  15.190  14.373
86552W        W58977  28.018  39.308  10.649
86553W        W58978  20.791  32.645  14.464
86554W        W58979  36.637   3.397  11.200
86555W        W58980  36.897  15.053  11.957
86556W        W58981  37.076  40.535   1.855
86557W        W58982  22.941  19.079   3.245
86558W        W58983  44.161  40.884  12.861
86559W        W58984  25.000   3.948   2.937
86560W        W58985  30.562  33.017   4.236
86561W        W58986   8.120   3.060  11.190
86562W        W58987  16.692  18.525  13.027
86563W        W58988   7.375  35.675  14.632
86564W        W58989  28.566  44.676  14.852
86565W        W58990  17.865  15.629   4.569
86566W        W58991  16.577  42.815   4.580
86567W        W58992  42.352   9.776   4.737
86568W        W58993  24.281  17.156  10.534
86569W        W58994   0.925  19.559  13.854
86570W        W58995  38.076  25.864  14.495
86571W        W58996  15.687  27.169  10.472
86572W        W58997  37.911  16.664  13.403
86573W        W58998  44.758  36.499   2.918
86574W        W58999  21.240  15.893   1.771
86575W        W59000  37.589  34.837  10.689
86576W        W59001  28.613  13.946  14.865
86577W        W59002   3.357  29.029  13.110
86578W        W59003  26.020   7.262  12.597
86579W        W59004   3.215  20.826  13.675
86580W        W59005  42.933  22.116  12.603
86581W        W59006  10.893  23.010  11.885
86582W        W59007   6.524  22.867   0.434
86583W        W59008  30.887  17.089  13.360
86584W        W59009  20.531  40.336   4.538
86585W        W59010  35.037  15.148  12.398
86586W        W59011  22.605  19.481  11.917
86587W        W59012  17.088  39.137  11.184
86588W        W59013  10.864   8.824   5.445
86589W        W59014  20.753  43.899  10.678
86590W        W59015  30.532  10.383  13.008
86591W        W59016  26.481  43.225  12.823
86592W        W59017  29.374  36.988   3.618
86593W        W59018  40.492  37.587  13.115
86594W        W59019  42.771  21.700  14.402
86595W        W59020   9.725  39.034   0.766
86596W        W59021  35.500  22.716  14.816
86597W        W59022  36.894  21.112   0.207
86598W        W59023  42.365  13.731  13.750
86599W        W59024   2.503  38.395   4.827
86600W        W59025  24.650  17.130  12.780
86601W        W59026  39.633  27.348   3.695
86602W        W59027   3.998  32.676   1.718
86603W        W59028   9.830  14.739  12.906
86604W        W59029  21.256  15.064   0.732
86605W        W59030  29.920  18.178   0.274
86606W        W59031   9.463  16.609  14.655
86607W        W59032  33.608  25.381  11.590
86608W        W59033  38.381  34.108  14.622
86609W        W59034   3.946  15.741  11.032
86610W        W59035   9.225   8.181  10.281
86611W        W59036   0.340  28.935   0.017
86612W        W59037   7.823  34.517   4.653
86613W        W59038   7.147  25.006  12.614
86614W        W59039   7.890  18.735  12.591
86615W        W59040  30.063  19.026   2.598
86616W        W59041  40.052  28.644  12.122
86617W        W59042   1.745  35.621   2.783
86618W        W59043  34.437  37.591   3.289
86619W        W59044  27.014  37.990  11.633
86620W        W59045  36.479  27.320   2.836
86621W        W59046  38.881  30.449   4.226
86622W        W59047  27.921   4.904  10.757
86623W        W59048  28.885   3.170   3.166
86624W        W59049   8.582  14.223  11.221
86625W        W59050  17.061   2.242  10.082
86626W        W59051  39.265  27.837  12.861
86627W        W59052  38.785  10.655  11.044
86628W        W59053  24.410  24.303  14.441
86629W        W59054  25.342   1.254   1.393
86630W        W59055  19.260  35.922   3.291
86631W        W59056   0.780   6.979   3.207
86632W        W59057  19.902  38.030   1.878
86633W        W59058   5.446  11.451  11.123
86634W        W59059  13.674  19.199   1.464
86635W        W59060  22.796   2.204   0.695
86636W        W59061   0.760  15.533  14.936
86637W        W59062  34.350   1.894   4.383
86638W        W59063  35.262   1.863   9.812
86639W        W59064  38.535  25.871  10.623
86640W        W59065  24.336  40.974   3.317
86641W        W59066  39.054  44.370  10.881
86642W        W59067  27.003   5.266   1.369
86643W        W59068  37.918   7.385   0.165
86644W        W59069   4.460  35.816  12.398
86645W        W59070   4.785   9.308   4.454
86646W        W59071  13.552   7.631   1.911
86647W        W59072   5.387   1.084   2.328
86648W        W59073  21.543   8.910   3.979
86649W        W59074  38.113   4.870   4.382
86650W        W59075  20.954   1.665  14.986
86651W        W59076   9.835   3.020  11.005
86652W        W59077   3.449  28.801   1.023
86653W        W59078  27.498  39.438   0.080
86654W        W59079  24.352  34.414  13.849
86655W        W59080  21.041   0.338   4.982
86656W        W59081  37.939  29.964   0.715
86657W        W59082  37.092   5.862   4.174
86658W        W59083  25.571  26.114  14.509
86659W        W59084  37.452  40.930   4.328
86660W        W59085  29.184  27.128   1.034
86661W        W59086  44.076  27.135  12.331
86662W        W59087  20.446  18.725   0.021
86663W        W59088   3.955  26.461   4.089
86664W        W59089  24.495  42.576   5.083
86665W        W59090  23.809   8.770  11.280
86666W        W59091  37.967  32.579  14.096
86667W        W59092  35.791  20.236   3.275
86668W        W59093  12.365  13.643  14.358
86669W        W59094  41.259   6.305  14.428
86670W        W59095   4.122   5.459  11.429
86671W        W59096  35.362  19.069  12.554
86672W        W59097   9.648  25.203  12.640
86673W        W59098  39.604  24.674  11.499
86674W        W59099   1.886  44.565   3.643
86675W        W59100  23.067  28.106   1.180
86676W        W59101  37.636  36.853  10.615
86677W        W59102  18.783  12.594   1.932
86678W        W59103  19.347  34.559   1.896
86679W        W59104   7.611  39.066  12.535
86680W        W59105  22.108  34.369  14.732
86681W        W59106  25.632  20.441   2.194
86682W        W59107  22.791  39.822   1.022
86683W        W59108  40.409  28.549  14.710
86684W        W59109   3.877   9.256   0.292
86685W        W59110  17.528  30.159   2.334
86686W        W59111  17.386  26.069   4.158
86687W        W59112  31.365  18.276  11.124
86688W        W59113   2.378   4.796   4.260
86689W        W59114   9.420  25.616   3.367
86690W        W59115  11.228  18.803   1.823
86691W        W59116  11.561  14.724  14.850
86692W        W59117  29.633  12.839   4.226
86693W        W59118  37.494  36.027   2.216
86694W        W59119  36.247  33.054  12.302
86695W        W59120  31.933  32.276   3.766
86696W        W59121  29.968  10.495  13.584
86697W        W59122   2.694  26.576   5.023
86698W        W59123  10.255  14.382   0.965
86699W        W59124  40.104  16.149  12.496
86700W        W59125   8.765  21.090  11.382
86701W        W59126  31.889  14.215   2.687
86702W        W59127  25.525   1.493   1.811
86703W        W59128  32.633  30.030  11.665
86704W        W59129   1.481  34.543   0.861
86705W        W59130  34.572  30.533  11.823
86706W        W59131  11.520  41.970   0.713
86707W        W59132  37.836  31.660   0.221
86708W        W59133  31.896  35.554  14.773
86709W        W59134  19.875  18.670   0.495
86710W        W59135  31.206  17.011   4.195
86711W        W59136  11.883   4.819   3.660
86712W        W59137   4.644  24.502   1.306
86713W        W59138  13.895  41.339   3.695
86714W        W59139  33.067  21.565   3.786
86715W        W59140  26.704  27.181   0.841
86716W        W59141   1.643   8.718  12.400
86717W        W59142   9.265  18.254  12.875
86718W        W59143  23.271  38.018   2.756
86719W        W59144  15.193  40.015  14.957
86720W        W59145  23.189  40.863   2.667
86721W        W59146  26.631   2.331  12.493
86722W        W59147  25.698  43.190  14.799
86723W        W59148  22.959   6.183  13.274
86724W        W59149  31.532  13.129  12.732
86725W        W59150  39.519  41.305   3.979
86726W        W59151  34.393   0.103   3.819
86727W        W59152  10.709  24.684  10.658
86728W        W59153  43.373  35.741  11.348
86729W        W59154  10.758   9.166  13.275
86730W        W59155  11.779  39.418  13.842
86731W        W59156  25.979  42.470  14.500
86732W        W59157   9.985  28.742   3.261
86733W        W59158  14.149  23.114   3.216
86734W        W59159  21.532  35.506   4.348
86735W        W59160  27.960  34.197   1.244
86736W        W59161  30.494  36.383  12.844
86737W        W59162  42.729  36.084  10.180
86738W        W59163  35.553   8.052  12.934
86739W        W59164  20.589  38.873   0.010
86740W        W59165  38.484   2.552  14.518
86741W        W59166   5.196  24.543  13.649
86742W        W59167   2.995   3.205   2.014
86743W        W59168  11.442   7.783   9.829
86744W        W59169  42.966  36.613  11.966
86745W        W59170  36.036  23.516  10.115
86746W        W59171   6.101  21.263   3.159
86747W        W59172  22.675  34.048  10.363
86748W        W59173  31.622  39.578  10.667
86749W        W59174  33.138   6.741  10.658
86750W        W59175  32.844  11.375   4.565
86751W        W59176  18.794  33.907   4.703
86752W        W59177  26.656  15.687  14.584
86753W        W59178  11.253  11.344  14.994
86754W        W59179  31.120  16.559   3.968
86755W        W59180   3.640  23.137   0.027
86756W        W59181  29.907   1.939   2.757
86757W        W59182   6.254  41.570   0.331
86758W        W59183  33.666   5.246   1.288
86759W        W59184   1.812  21.131  14.287
86760W        W59185  18.193  21.633   2.415
86761W        W59186  12.265   5.979   1.598
86762W        W59187  38.512  36.219  10.513
86763W        W59188   1.633  26.638  14.976
86764W        W59189  27.269  21.703  12.905
86765W        W59190  35.978  39.535   2.126
86766W        W59191  29.907  23.587   1.326
86767W        W59192  33.394  24.822  11.566
86768W        W59193  12.845  32.698  11.149
86769W        W59194  33.687  25.823  10.565
86770W        W59195  42.195  44.023  11.916
86771W        W59196  31.902  38.603   2.272
86772W        W59197   5.666  36.830   5.501
86773W        W59198  10.340  10.731   4.439
86774W        W59199  11.135  20.162  14.497
86775W        W59200  37.083  38.296   1.710
86776W        W59201  37.807  26.453  12.897
86777W        W59202  37.458   4.260   0.912
86778W        W59203   6.276  11.702   2.342
86779W        W59204  31.399   9.191   0.947
86780W        W59205  39.463  32.219   0.476
86781W        W59206  19.324  43.429   0.028
86782W        W59207  31.127   6.355  10.663
86783W        W59208  42.989  12.245   1.869
86784W        W59209  27.278  27.401   3.406
86785W        W59210  43.949   4.940   0.332
86786W        W59211  44.495  44.872  14.993
86787W        W59212  36.596   4.904  14.836
86788W        W59213  23.787  27.523  10.809
86789W        W59214  25.256   4.443   4.204
86790W        W59215  33.831   3.934   0.922
86791W        W59216  39.388  42.496  13.058
86792W        W59217  44.366   0.981   2.983
86793W        W59218  17.875  13.578  11.091
86794W        W59219  31.565  22.703   3.988
86795W        W59220  31.974  18.085   3.775
86796W        W59221  25.365  39.335   2.201
86797W        W59222  15.867   4.622   3.974
86798W        W59223   9.152  12.339  11.959
86799W        W59224  32.150  32.833  12.035
86800W        W59225   8.594  23.305  10.669
86801W        W59226  39.081  10.734  10.570
86802W        W59227  13.665   9.383   0.019
86803W        W59228  20.698  39.003  11.846
86804W        W59229  23.725  18.577   1.867
86805W        W59230  39.304  27.381   1.230
86806W        W59231  40.217  22.977   2.259
86807W        W59232  28.675   6.222   0.417
86808W        W59233  20.396  28.551   3.961
86809W        W59234  32.664  35.329   0.956
86810W        W59235  44.657  26.160  14.067
86811W        W59236  13.835  26.978  11.090
86812W        W59237   5.691  16.243  12.853
86813W        W59238  23.994  23.657   3.225
86814W        W59239  36.388  35.506  11.807
86815W        W59240   7.454  30.012  14.678
86816W        W59241  41.878   5.779   2.759
86817W        W59242   2.384   3.484   2.772
86818W        W59243  24.185   1.928  14.263
86819W        W59244  21.544  18.804  11.927
86820W        W59245  24.341   4.006   4.230
86821W        W59246  25.159   9.886  12.419
86822W        W59247   0.373  41.200   3.871
86823W        W59248  12.730  14.883   3.328
86824W        W59249  11.169  41.792  14.678
86825W        W59250  27.699  35.307  12.574
86826W        W59251   6.694  43.268  12.057
86827W        W59252  19.514  22.012   0.986
86828W        W59253   6.146   9.322   0.894
86829W        W59254  21.348  38.405  14.910
86830W        W59255   2.791   5.796   1.883
86831W        W59256  18.121   2.255  14.953
86832W        W59257  41.391  13.177  14.973
86833W        W59258  36.166   9.809   2.371
86834W        W59259  41.040  41.376  14.858
86835W        W59260  40.567  40.279   1.991
86836W        W59261  28.419   1.007   2.667
86837W        W59262   7.286  14.750   2.616
86838W        W59263  14.348  12.650  14.490
86839W        W59264  14.953  22.442  14.922
86840W        W59265  36.540  12.575   0.088
86841W        W59266   8.969  36.342   4.092
86842W        W59267  41.216   9.899  13.939
86843W        W59268   5.810  28.462   4.056
86844W        W59269  23.133   4.736   1.408
86845W        W59270  44.982   9.822  11.865
86846W        W59271   4.194  29.508  11.310
86847W        W59272  35.054  28.684  11.417
86848W        W59273  34.808  29.678   0.916
86849W        W59274  29.697   8.327  10.672
86850W        W59275  10.247  38.819  13.890
86851W        W59276  29.408  26.779   2.654
86852W        W59277  42.432  13.854  11.493
86853W        W59278   5.847  36.881   3.115
86854W        W59279  28.112   5.922  10.741
86855W        W59280   7.967  38.427  12.494
86856W        W59281  21.201  37.515  10.693
86857W        W59282  42.818  28.979   2.315
86858W        W59283  26.099   4.173  14.247
86859W        W59284  10.617   4.419   3.863
86860W        W59285  35.041  30.644  11.623
86861W        W59286  20.741  30.573   2.783
86862W        W59287  44.401  10.276  14.344
86863W        W59288   7.520  26.582   1.442
86864W        W59289   2.935  28.474  12.424
86865W        W59290  12.692  39.867  14.959
86866W        W59291  17.804  18.257   1.559
86867W        W59292   6.221   7.819  14.809
86868W        W59293  28.241  16.291  13.044
86869W        W59294  25.677  39.829   3.540
86870W        W59295  30.176   1.446  13.333
86871W        W59296  34.851  38.472   4.478
86872W        W59297  27.072   9.204   4.481
86873W        W59298  23.210  40.054  12.983
86874W        W59299   4.649  31.105   2.733
86875W        W59300   1.265  20.310   1.363
86876W        W59301  10.710  20.759  11.069
86877W        W59302   4.406   6.705   3.237
86878W        W59303  20.618  20.777   3.768
86879W        W59304  44.211   7.766  10.626
86880W        W59305  22.162  14.730   1.101
86881W        W59306  16.642  39.823  14.345
86882W        W59307  36.478  37.747  12.983
86883W        W59308  27.269  33.565   5.627
86884W        W59309  36.951  10.843  10.776
86885W        W59310  22.835   6.705   2.353
86886W        W59311  14.986  38.602  10.975
86887W        W59312  15.024  41.359   4.633
86888W        W59313  19.608  35.046   2.108
86889W        W59314  43.047  37.385  11.645
86890W        W59315   1.010  16.116   0.942
86891W        W59316  10.043   9.772  11.143
86892W        W59317   3.714  36.906  14.326
86893W        W59318  13.736  14.051   1.377
86894W        W59319  21.554  41.771   1.324
86895W        W59320   6.278  31.339   1.964
86896W        W59321  11.243  15.015   4.551
86897W        W59322   9.375  26.514   1.910
86898W        W59323  29.248  36.243   2.771
86899W        W59324   3.858   8.246   1.676
86900W        W59325  15.339  23.496   0.480
86901W        W59326   2.084  29.602   3.871
86902W        W59327  16.625  16.587   0.934
86903W        W59328  39.648  31.865  10.912
86904W        W59329  40.463  43.517   3.269
86905W        W59330  19.745  26.105  10.587
86906W        W59331   6.929   5.191  11.825
86907W        W59332  39.601  40.994   2.208
86908W        W59333  16.723  35.040   4.683
86909W        W59334  36.397  18.711   1.318
86910W        W59335  14.858   7.934  13.503
86911W        W59336   4.864  41.263   4.253
86912W        W59337  27.043   0.681  13.693
86913W        W59338   2.728  24.116  10.623
86914W        W59339   7.729  25.040   3.541
86915W        W59340  29.021  42.330  12.163
86916W        W59341  29.954  17.755   2.073
86917W        W59342   6.835  18.861   3.754
86918W        W59343  34.910   8.130  11.541
86919W        W59344  27.816  26.393   1.203
86920W        W59345  31.833  24.704  14.252
86921W        W59346  32.176  26.576   4.770
86922W        W59347  40.219  30.418  13.486
86923W        W59348  20.489   0.811   1.666
86924W        W59349  40.099  10.736   0.577
86925W        W59350  30.143  22.162  11.648
86926W        W59351  21.261  41.077   3.653
86927W        W59352  31.067   3.138  12.011
86928W        W59353  28.540   1.883   0.376
86929W        W59354  35.508  11.934  14.984
86930W        W59355  17.590  44.993   9.910
86931W        W59356   9.842  35.441  14.095
86932W        W59357  15.755  27.835  11.686
86933W        W59358  34.880   5.346   2.797
86934W        W59359  13.720   1.456  14.035
86935W        W59360  40.491  26.088  14.929
86936W        W59361  36.379  38.193  13.867
86937W        W59362  30.013  38.780   1.112
86938W        W59363  27.308  22.993   3.112
86939W        W59364  22.202  42.335  11.599
86940W        W59365  13.636   0.712   2.657
86941W        W59366  41.582  26.593   0.367
86942W        W59367  14.529  39.302  14.930
86943W        W59368   3.386  12.268   1.415
86944W        W59369  28.261  23.938  11.234
86945W        W59370  29.985  18.293   3.207
86946W        W59371  27.238  43.547   0.156
86947W        W59372  27.683  20.590   4.719
86948W        W59373  24.049   9.052  14.367
86949W        W59374  18.886  34.058  13.548
86950W        W59375  28.390  26.673  11.956
86951W        W59376   6.383  37.937   3.679
86952W        W59377  24.944  24.052  13.590
86953W        W59378  35.429  31.559   3.692
86954W        W59379   3.776  18.567   4.258
86955W        W59380  41.576  35.874  13.940
86956W        W59381  16.566   3.755  12.002
86957W        W59382  29.936  12.075   1.357
86958W        W59383  37.057  24.974  13.796
86959W        W59384  37.896  13.162  11.602
86960W        W59385  42.990  31.760   4.905
86961W        W59386  18.637  17.435  10.689
86962W        W59387  19.800  22.256  11.925
86963W        W59388  13.748  39.574   2.821
86964W        W59389  27.048  15.338  10.506
86965W        W59390  38.460  29.040   0.442
86966W        W59391  28.654  10.661   3.999
86967W        W59392  42.971  32.662  11.554
86968W        W59393  15.364  43.323   2.386
86969W        W59394  14.165  36.928   2.505
86970W        W59395   1.339  16.620  13.463
86971W        W59396  14.646  25.842  14.191
86972W        W59397  43.690  25.423  12.096
86973W        W59398  10.037   6.143  10.181
86974W        W59399  41.743  29.217  12.189
86975W        W59400  24.736  43.927  14.431
86976W        W59401  42.834   3.394  10.728
86977W        W59402  34.470  18.626  12.933
86978W        W59403  10.120  30.762  11.517
86979W        W59404  42.479   6.456  12.536
86980W        W59405  13.984  19.639   1.338
86981W        W59406  38.817  19.188   0.767
86982W        W59407  19.471  23.612  10.676
86983W        W59408  12.629   8.617   2.800
86984W        W59409  28.338  22.073  13.589
86985W        W59410  30.572  40.134  12.015
86986W        W59411  21.458   3.283   0.937
86987W        W59412  28.990  14.297  11.473
86988W        W59413   1.432  19.080   0.031
86989W        W59414  36.438  21.343   4.336
86990W        W59415   6.712  35.513   3.045
86991W        W59416   7.256  20.668   4.843
86992W        W59417  43.382  15.671   5.024
86993W        W59418  31.534  17.068  14.912
86994W        W59419   9.785  26.012   1.066
86995W        W59420  12.242  26.555   4.063
86996W        W59421  22.592   6.552  11.547
86997W        W59422  11.774   3.466  10.717
86998W        W59423  44.995   8.328  10.751
86999W        W59424  10.567  17.839  14.312
87000W        W59425  44.823   3.959  10.927
87001W        W59426  32.529   1.382   3.256
87002W        W59427  24.132  27.506   1.553
87003W        W59428  18.870  31.214   1.223
87004W        W59429  20.578   8.379  13.043
87005W        W59430   5.205  23.924   2.673
87006W        W59431  28.447  34.865  10.775
87007W        W59432  19.726  25.233  10.597
87008W        W59433  29.578  27.416  11.967
87009W        W59434  28.124   8.855   5.063
87010W        W59435  27.552  17.162   2.236
87011W        W59436   0.510  11.679  11.103
87012W        W59437  12.358  43.392  12.944
87013W        W59438  15.261   6.773  13.393
87014W        W59439   5.341  30.698   5.105
87015W        W59440   2.937  30.988   1.484
87016W        W59441   9.798  29.539   4.350
87017W        W59442   0.329  17.009  13.842
87018W        W59443   5.714   7.293   1.898
87019W        W59444  23.668  34.865  12.443
87020W        W59445  35.487  34.136  11.427
87021W        W59446  26.640  30.139  13.384
87022W        W59447  32.093  34.976  12.667
87023W        W59448  44.370  43.918   2.698
87024W        W59449   2.703  44.736   0.788
87025W        W59450  37.065   3.117  11.312
87026W        W59451  21.553   2.850   1.239
87027W        W59452  13.898  25.811  11.544
87028W        W59453  10.157   3.808  10.861
87029W        W59454  42.210  38.456  13.999
87030W        W59455   0.982  15.081   3.659
87031W        W59456  10.220  10.388   3.545
87032W        W59457  31.903   9.644  12.731
87033W        W59458   2.926  38.762   3.109
87034W        W59459   0.423   9.775  14.023
87035W        W59460   0.451  31.214   2.861
87036W        W59461   0.003   0.650  14.385
87037W        W59462  43.927   5.970   3.672
87038W        W59463  18.134   5.805  11.600
87039W        W59464  38.062   9.720  11.494
87040W        W59465  26.714  44.077   2.681
87041W        W59466   7.676  44.058   1.936
87042W        W59467  41.435  26.248  12.808
87043W        W59468   1.018  27.406   1.780
87044W        W59469  18.688  15.281   0.382
87045W        W59470   3.661  21.661   4.573
87046W        W59471  27.326   7.407  10.035
87047W        W59472  18.999  37.132  13.520
87048W        W59473   1.902  23.947  14.814
87049W        W59474  17.783  38.808   1.929
87050W        W59475   1.039  26.232  12.268
87051W        W59476   2.750   5.150   4.181
87052W        W59477  15.169  23.481   1.420
87053W        W59478  14.805  35.573   0.000
87054W        W59479   5.789   8.342   3.514
87055W        W59480  25.314  34.139  14.268
87056W        W59481   7.857  38.122   3.227
87057W        W59482  14.726  17.344  14.595
87058W        W59483  44.849  21.466   3.140
87059W        W59484   8.796   3.639  14.940
87060W        W59485  11.589   6.793   5.002
87061W        W59486   7.445   1.171   0.755
87062W        W59487  30.097  41.384  12.979
87063W        W59488  13.651  25.561   4.617
87064W        W59489  25.142  15.639   3.236
87065W        W59490   4.736   4.955   4.223
87066W        W59491   0.019  11.706   1.324
87067W        W59492  30.520  16.340   2.181
87068W        W59493   5.601   5.977   4.206
87069W        W59494  11.336   4.787   1.408
87070W        W59495  39.277  11.010   2.580
87071W        W59496  41.533  31.706  12.718
87072W        W59497   4.774  11.828   4.144
87073W        W59498   3.838   1.884  14.851
87074W        W59499  21.187  37.911  14.899
87075W        W59500  18.340  15.422   4.748
87076W        W59501  29.882  37.062   1.153
87077W        W59502   6.284   4.213  12.164
87078W        W59503  31.554  20.080   3.229
87079W        W59504  25.974   5.256  12.501
87080W        W59505  37.558  20.217   2.760
87081W        W59506   0.883   6.142  13.906
87082W        W59507  35.872  14.096  10.525
87083W        W59508   5.187  41.462   0.795
87084W        W59509   9.199   0.427   3.357
87085W        W59510  19.856   8.219  12.487
87086W        W59511  19.189  37.429  11.441
87087W        W59512   6.137  16.357  12.012
87088W        W59513  25.433  24.156  11.755
87089W        W59514   3.900  15.647  13.984
87090W        W59515  41.615  44.424   0.896
87091W        W59516  24.630  12.287  10.641
87092W        W59517   4.185  19.639   2.466
87093W        W59518   0.901  38.505  12.092
87094W        W59519  25.726   4.698  12.098
87095W        W59520  20.596  42.849  11.266
87096W        W59521  17.058  23.747   1.357
87097W        W59522  12.793   6.033   2.315
87098W        W59523  25.504  36.162   4.594
87099W        W59524  28.136  17.657  10.749
87100W        W59525   0.670  11.062  12.423
87101W        W59526  42.877   2.819   3.942
87102W        W59527  37.386  14.414   2.118
87103W        W59528   1.166   1.829  14.895
87104W        W59529  43.973  29.500   2.419
87105W        W59530   8.187  40.684  12.091
87106W        W59531   5.262   6.297   0.698
87107W        W59532   6.943  16.798  13.926
87108W        W59533   7.205  44.675   1.333
87109W        W59534  13.363  13.344  14.740
87110W        W59535  40.691  24.894   5.296
87111W        W59536  24.223   1.117  10.663
87112W        W59537  24.621  33.521  12.004
87113W        W59538  29.050   6.830  11.132
87114W        W59539   2.208  38.122   2.252
87115W        W59540  10.494  34.398   3.720
87116W        W59541   4.860   2.452   0.838
87117W        W59542  27.781  22.210  10.474
87118W        W59543  30.127  27.881   4.388
87119W        W59544  14.478   5.338   0.748
87120W        W59545  40.780   5.742   1.675
87121W        W59546  29.150  25.030  13.846
87122W        W59547  35.852   1.665  13.509
87123W        W59548  18.143   2.508   0.419
87124W        W59549  43.537  22.586  11.035
87125W        W59550   5.843  16.075   3.057
87126W        W59551  21.524  28.557  13.870
87127W        W59552  32.793  20.868  11.951
87128W        W59553  41.846  33.646   1.404
87129W        W59554  39.339   7.889   4.528
87130W        W59555   0.930  37.414  11.206
87131W        W59556   5.442  10.635  14.454
87132W        W59557  31.557  41.817   1.200
87133W        W59558  34.822  19.793  12.797
87134W        W59559  22.032  26.087  12.344
87135W        W59560  12.518  38.862  14.842
87136W        W59561  19.210  18.201   1.774
87137W        W59562  39.908   6.362   0.390
87138W        W59563  35.149  22.760  13.847
87139W        W59564  27.158  18.799  14.656
87140W        W59565   7.760   7.411  13.095
87141W        W59566   4.557   0.382  12.368
87142W        W59567   5.690  41.547   0.711
87143W        W59568  19.184  39.144   1.176
87144W        W59569  21.305  40.062  13.029
87145W        W59570  31.041  32.468   0.971
87146W        W59571  39.577  44.820   1.556
87147W        W59572  17.602  22.834   1.443
87148W        W59573  18.414  23.117  11.927
87149W        W59574  19.755  35.643   3.415
87150W        W59575  17.711  44.655  13.460
87151W        W59576  35.342  34.498   4.076
87152W        W59577  25.572   2.068   4.214
87153W        W59578   5.889   4.853  11.990
87154W        W59579  18.748  44.724  14.863
87155W        W59580  19.835   9.808  12.037
87156W        W59581  10.125   8.496   2.857
87157W        W59582  11.488  34.753   2.649
87158W        W59583  15.418  10.444  11.332
87159W        W59584  20.978  26.547  11.083
87160W        W59585  40.357  18.989  13.896
87161W        W59586  42.185  30.985   1.820
87162W        W59587  40.226  22.024   4.151
87163W        W59588   0.470   3.287   0.044
87164W        W59589   8.721  34.617  12.937
87165W        W59590   5.349  25.935   4.859
87166W        W59591  24.790  41.517  10.637
87167W        W59592  26.967  41.454   3.241
87168W        W59593   3.807   6.900  14.126
87169W        W59594  32.858  32.054   0.297
87170W        W59595   6.714  25.681  13.572
87171W        W59596  34.238  27.592  13.594
87172W        W59597  23.399  41.512   4.671
87173W        W59598  41.379  10.678  12.848
87174W        W59599  40.097   5.273   0.862
87175W        W59600  37.789   2.303   3.364
87176W        W59601  34.658  15.742   2.212
87177W        W59602  17.120  39.059  13.811
87178W        W59603   4.847   3.342   2.356
87179W        W59604   2.994   0.928   0.393
87180W        W59605  31.516  22.779   0.625
87181W        W59606  13.037   9.195   4.557
87182W        W59607  43.078   0.721  10.539
87183W        W59608  42.443  11.639  12.189
87184W        W59609  11.868   0.939  14.002
87185W        W59610   7.155  41.129  14.327
87186W        W59611  44.959   7.428  13.068
87187W        W59612   4.844  21.373   5.155
87188W        W59613  21.966  34.874   0.552
87189W        W59614   1.791  26.966   3.159
87190W        W59615  24.185   4.989  11.114
87191W        W59616  37.136  26.630   3.673
87192W        W59617  30.966  21.458   4.769
87193W        W59618  33.522  18.251   0.709
87194W        W59619   2.838  40.770  13.250
87195W        W59620  24.080   7.293   1.225
87196W        W59621  39.355  21.065  13.512
87197W        W59622  15.557  40.909   3.890
87198W        W59623  26.442   7.318   4.279
87199W        W59624  17.609  42.318   1.693
87200W        W59625   9.419  12.209   3.415
87201W        W59626   7.545  12.202  13.002
87202W        W59627  36.495  39.986  13.449
87203W        W59628   0.880  30.466   0.301
87204W        W59629  28.671  37.557  11.110
87205W        W59630  43.181  39.483  11.070
87206W        W59631  15.466  30.927   4.647
87207W        W59632   6.181  18.290   3.278
87208W        W59633   7.690  28.438   3.747
87209W        W59634  24.263  32.989  13.775
87210W        W59635  41.232  38.628  13.747
87211W        W59636  26.074   5.715  11.004
87212W        W59637   2.952  34.331  13.530
87213W        W59638   7.755  43.426  10.579
87214W        W59639   1.922  38.101   2.813
87215W        W59640  36.540   7.452   4.271
87216W        W59641  27.349  21.467  14.476
87217W        W59642   5.216   2.140  13.601
87218W        W59643   9.662   4.386  11.534
87219W        W59644   5.325   0.588  13.475
87220W        W59645  19.096   0.745   2.292
87221W        W59646  25.772   1.709  14.041
87222W        W59647  12.605  40.340  13.830
87223W        W59648  17.214  17.237  13.072
87224W        W59649   0.805  41.988   2.406
87225W        W59650  14.200  38.866   2.873
87226W        W59651   1.698   1.831  11.718
87227W        W59652  12.078  34.148  13.311
87228W        W59653  36.529  18.735   2.367
87229W        W59654  14.620   2.574  11.134
87230W        W59655  12.687  14.516  13.165
87231W        W59656  27.167   9.113  13.018
87232W        W59657  43.849  13.364  11.242
87233W        W59658   8.422  31.467  14.034
87234W        W59659  31.919  20.188  13.371
87235W        W59660   3.094  12.857   2.419
87236W        W59661  27.903  31.931   1.806
87237W        W59662   7.212   4.664   0.842
87238W        W59663   5.831  42.150  12.048
87239W        W59664  23.717  27.330   1.840
87240W        W59665  42.386   3.387   3.283
87241W        W59666  24.794  35.821   3.122
87242W        W59667  38.414   8.395  12.201
87243W        W59668  24.727  20.379  13.821
87244W        W59669  20.493  19.696  13.945
87245W        W59670  22.101   4.163   4.550
87246W        W59671  32.377  34.203  11.396
87247W        W59672  24.618  10.274   3.713
87248W        W59673   1.232  38.361  13.302
87249W        W59674  33.952  20.005   3.886
87250W        W59675   2.447  11.770   0.682
87251W        W59676   0.046  16.500   0.897
87252W        W59677  27.400  33.147   4.019
87253W        W59678  17.975  42.503  12.064
87254W        W59679  43.836  11.926   0.754
87255W        W59680   9.299  38.029   2.603
87256W        W59681  42.413   4.283   2.166
87257W        W59682  28.092  11.439   5.176
87258W        W59683  33.827  44.341   0.930
87259W        W59684  13.634   1.209   2.867
87260W        W59685  16.265  33.370   1.193
87261W        W59686   4.356   2.788   3.610
87262W        W59687  42.033  12.814   0.284
87263W        W59688   1.722   6.310   2.155
87264W        W59689   8.416  40.009  13.881
87265W        W59690  40.861   5.502  11.391
87266W        W59691  41.892   1.229  10.236
87267W        W59692  42.388  35.281   4.224
87268W        W59693   0.471  18.220  11.244
87269W        W59694  14.747  12.854  11.852
87270W        W59695   6.889  18.205   2.774
87271W        W59696  13.550  30.682  11.577
87272W        W59697  20.514  22.108  13.069
87273W        W59698   3.329  16.149  10.516
87274W        W59699  20.181   1.946   1.937
87275W        W59700  21.517  33.357   0.331
87276W        W59701  29.145  22.580   1.763
87277W        W59702  22.689  37.366   1.387
87278W        W59703   2.559  29.887   2.783
87279W        W59704  25.449  42.103  12.607
87280W        W59705   3.799  24.635  14.074
87281W        W59706  13.570  44.059  13.036
87282W        W59707  18.070  28.186  13.466
87283W        W59708  15.712  43.542  11.074
87284W        W59709  28.866  33.663   1.218
87285W        W59710  27.916  17.700  11.259
87286W        W59711  10.254  38.448  14.768
87287W        W59712  41.829   8.154   2.572
87288W        W59713  36.485  17.500   4.617
87289W        W59714   9.140  15.754   2.327
87290W        W59715  31.043  24.928   3.295
87291W        W59716   7.511  14.013   2.721
87292W        W59717  17.125  13.181  14.883
87293W        W59718  18.531  30.400  10.869
87294W        W59719   8.668   5.003   1.891
87295W        W59720  10.903  33.878  12.399
87296W        W59721  21.282  37.550   1.861
87297W        W59722  38.336  10.403   1.661
87298W        W59723  14.866  44.768   1.176
87299W        W59724  24.539  32.063  10.189
87300W        W59725  36.456   7.850  12.495
87301W        W59726  41.191  14.149  13.805
87302W        W59727  40.836   8.401  12.522
87303W        W59728  29.577  26.868  12.347
87304W        W59729  35.527  36.344   0.944
87305W        W59730   3.697   8.850   2.442
87306W        W59731  22.667  40.374   4.555
87307W        W59732   0.037  20.597   3.208
87308W        W59733   5.020  36.703   3.802
87309W        W59734  34.682  30.813   0.450
87310W        W59735  15.994  35.430  14.287
87311W        W59736   0.592  12.871  12.943
87312W        W59737  20.067  26.112   4.048
87313W        W59738   3.451  20.684  11.577
87314W        W59739   0.944  26.523   3.163
87315W        W59740   7.744  25.704   0.377
87316W        W59741  20.081  40.091  12.534
87317W        W59742  33.458  32.781  11.636
87318W        W59743  21.592  13.163   2.571
87319W        W59744  19.268  39.132  11.042
87320W        W59745   5.220  11.957   3.227
87321W        W59746  19.470  41.373   2.223
87322W        W59747  43.508  16.791  11.194
87323W        W59748   3.102  17.469   4.142
87324W        W59749  11.079  23.600  14.311
87325W        W59750   1.371  32.681   3.830
87326W        W59751  10.239  11.831   3.110
87327W        W59752  25.944  42.243  12.506
87328W        W59753  37.414  30.469  13.086
87329W        W59754   5.332  33.582  12.477
87330W        W59755   3.063  30.111   4.645
87331W        W59756  11.956  40.078   1.808
87332W        W59757  24.254  30.362  13.435
87333W        W59758  15.665  13.021  12.298
87334W        W59759  13.740  39.960  11.253
87335W        W59760  14.328  33.099  12.382
87336W        W59761  33.453  11.545   3.087
87337W        W59762  15.074   9.876   3.649
87338W        W59763   0.246   9.281   0.292
87339W        W59764  21.749  12.125  11.673
87340W        W59765  38.085  44.759   3.715
87341W        W59766   2.473  24.756  11.043
87342W        W59767   0.668  32.428   2.834
87343W        W59768  17.751  26.302   2.419
87344W        W59769  26.246  15.214  12.001
87345W        W59770  36.493   6.912  11.542
87346W        W59771   3.505  32.992  12.917
87347W        W59772  44.411  44.253   0.818
87348W        W59773   8.657  10.768  13.500
87349W        W59774  43.424   8.344  11.983
87350W        W59775  20.635  30.966  12.332
87351W        W59776  10.878  24.240   4.305
87352W        W59777   1.901  25.040  14.815
87353W        W59778  37.454  30.591   2.733
87354W        W59779  22.059  40.368   2.238
87355W        W59780  37.861  41.365  10.699
87356W        W59781  10.728  26.939   2.381
87357W        W59782  31.518  11.129   3.880
87358W        W59783  13.793  38.482  14.792
87359W        W59784  38.464  10.196   3.336
87360W        W59785  21.286  26.166  14.411
87361W        W59786   4.429  32.601  10.451
87362W        W59787   4.901  22.246  12.949
87363W        W59788  30.146  44.712  11.065
87364W        W59789  28.565  29.890  11.551
87365W        W59790  27.603  27.985  14.958
87366W        W59791  27.682  19.146   3.680
87367W        W59792  13.278  33.574   4.746
87368W        W59793   2.933  20.473   3.156
87369W        W59794  19.523  11.834  14.437
87370W        W59795  10.227  11.632   4.162
87371W        W59796  33.091  26.137   1.438
87372W        W59797  16.816  16.771   2.220
87373W        W59798  33.309  20.806  10.964
87374W        W59799  42.011   9.836   4.327
87375W        W59800  24.672  21.543  12.707
87376W        W59801  10.994  25.461   0.851
87377W        W59802  13.231  36.913  12.983
87378W        W59803  11.005   6.485  12.997
87379W        W59804  20.974  17.304  13.570
87380W        W59805  39.332  42.885   1.282
87381W        W59806  37.135   2.469   0.471
87382W        W59807  33.054   3.475   1.402
87383W        W59808  40.324   7.125  14.940
87384W        W59809  33.267  25.755   4.078
87385W        W59810  31.118  14.798  14.754
87386W        W59811  11.633  10.000   4.228
87387W        W59812   0.898  22.186  12.431
87388W        W59813  40.518  31.203  14.058
87389W        W59814  31.822  20.802   1.924
87390W        W59815  36.012  10.546  12.349
87391W        W59816  26.120  12.650  12.128
87392W        W59817  40.373   4.134   0.780
87393W        W59818  30.073   6.685   1.301
87394W        W59819  19.700  22.182  12.910
87395W        W59820  23.628  15.714   3.935
87396W        W59821  15.716  26.356  14.172
87397W        W59822  43.230  11.234  12.066
87398W        W59823  30.694  14.210  13.534
87399W        W59824  12.740  32.434  14.450
87400W        W59825   1.010  18.755  14.994
87401W        W59826  42.431  27.502   4.757
87402W        W59827   9.356  38.594  11.586
87403W        W59828  43.188  19.595  14.049
87404W        W59829  40.320  34.496   0.439
87405W        W59830  38.999  39.290   0.262
87406W        W59831   1.978   6.492   4.969
87407W        W59832  17.150  16.584   3.613
87408W        W59833  43.400   6.639  11.747
87409W        W59834  38.989  11.998  14.444
87410W        W59835  40.739  33.351   2.205
87411W        W59836  30.353  24.127   4.094
87412W        W59837  29.566  27.196   0.711
87413W        W59838  18.930  26.366   0.966
87414W        W59839   3.890   8.416   3.991
87415W        W59840  21.212   5.307  13.811
87416W        W59841  12.846  42.308   1.753
87417W        W59842  24.962  37.714   1.798
87418W        W59843  36.790  13.311  11.490
87419W        W59844   6.506   1.666   0.189
87420W        W59845  19.991  42.785   0.177
87421W        W59846  15.602  25.560  11.730
87422W        W59847   3.691   2.038   2.862
87423W        W59848   1.417  10.267   3.838
87424W        W59849  31.995   7.957   0.655
87425W        W59850  22.610  38.091   4.543
87426W        W59851  19.140  27.184   2.722
87427W        W59852  19.615  21.843   4.511
87428W        W59853  32.652  18.371   5.100
87429W        W59854   2.494   3.001   2.427
87430W        W59855  14.159   8.101   0.857
87431W        W59856  28.002  27.633   2.901
87432W        W59857  14.552   3.347   1.782
87433W        W59858  14.753   2.420  14.543
87434W        W59859  35.201  41.606   3.622
87435W        W59860  32.098  39.335  12.509
87436W        W59861  44.027   9.458  11.593
87437W        W59862  16.710  23.012   0.470
87438W        W59863  27.432  34.937   1.791
87439W        W59864  21.451  17.236  14.395
87440W        W59865  19.052   9.799   1.718
87441W        W59866  13.926  32.962  11.655
87442W        W59867   4.470  26.173   4.864
87443W        W59868  25.709  37.627  12.926
87444W        W59869  41.392   9.176   0.036
87445W        W59870  38.455   0.599  11.255
87446W        W59871  13.706  37.075   0.192
87447W        W59872   0.678   4.868   3.639
87448W        W59873  22.978   5.391   2.658
87449W        W59874  43.762   6.506   0.331
87450W        W59875  27.191  14.883   0.960
87451W        W59876  40.276  34.893   1.816
87452W        W59877  23.266  44.527  14.568
87453W        W59878  33.336   9.488   4.166
87454W        W59879   5.708   9.054  13.915
87455W        W59880  23.585  35.868   2.311
87456W        W59881  37.847  28.044   2.486
87457W        W59882   2.279  20.535  14.343
87458W        W59883   9.395  31.100   1.265
87459W        W59884   1.482   2.125   3.333
87460W        W59885   7.452  30.276  12.913
87461W        W59886  32.549  19.204  14.340
87462W        W59887  22.015  41.504   4.563
87463W        W59888  35.555  16.281  11.454
87464W        W59889   8.662  43.907   1.716
87465W        W59890  39.628  16.601  11.231
87466W        W59891   4.937   2.838   2.212
87467W        W59892  36.857  34.956   3.245
87468W        W59893  44.995  25.257  12.989
87469W        W59894  21.771  12.357   0.263
87470W        W59895   0.612  29.253  12.571
87471W        W59896  22.654  32.643   0.493
87472W        W59897  31.523   6.207   2.304
87473W        W59898  19.608  36.875   4.115
87474W        W59899   6.245   3.921  14.421
87475W        W59900  32.062  39.388   1.430
87476W        W59901  32.910  16.492  11.513
87477W        W59902   5.411  17.761  12.056
87478W        W59903  37.067  26.102  14.459
87479W        W59904   1.301  24.606   4.609
87480W        W59905  21.837  32.560   2.371
87481W        W59906  11.684  13.485  10.688
87482W        W59907   8.450  20.058  12.889
87483W        W59908  23.135  42.490   1.300
87484W        W59909  15.878  22.870  12.900
87485W        W59910  32.608   5.966  12.531
87486W        W59911  21.703   9.660  10.712
87487W        W59912  23.722  16.684   3.441
87488W        W59913   3.936   5.655  13.351
87489W        W59914  42.249  22.194  14.022
87490W        W59915  28.938  11.219   0.286
87491W        W59916   1.016  19.095   0.401
87492W        W59917  34.406  40.205   1.921
87493W        W59918  16.679  37.482   0.200
87494W        W59919  14.339  10.214  11.527
87495W        W59920  41.555  16.851   3.798
87496W        W59921  14.021  27.382   2.407
87497W        W59922  30.553   6.822   4.465
87498W        W59923   7.758  38.786  12.966
87499W        W59924  30.117  32.105   1.732
87500W        W59925  40.246  12.855  11.488
87501W        W59926  43.491  39.849  13.546
87502W        W59927  10.087  26.057  11.585
87503W        W59928  40.988  26.167   4.250
87504W        W59929  23.090  16.596  12.522
87505W        W59930  13.113  14.857  11.524
87506W        W59931  33.914  30.896  14.545
87507W        W59932  11.186  10.415  10.089
87508W        W59933  21.011  17.178  14.089
87509W        W59934  40.843  33.889   3.973
87510W        W59935  43.754  20.566   2.668
87511W        W59936   7.367  13.740  13.075
87512W        W59937  42.353  30.423  12.094
87513W        W59938   9.067  18.778  11.179
87514W        W59939  29.453   4.291  13.433
87515W        W59940  12.285  35.290   0.363
87516W        W59941   4.444  39.331   3.976
87517W        W59942  13.682  11.260   2.904
87518W        W59943  26.432  25.047  12.006
87519W        W59944   4.909   7.489   0.774
87520W        W59945   9.632  38.035   2.181
87521W        W59946  26.740  41.687  10.620
87522W        W59947   5.467   4.452   1.238
87523W        W59948  35.334  14.808   3.115
87524W        W59949  31.363  37.186   2.786
87525W        W59950   5.312  17.896   1.398
87526W        W59951  25.370  36.344   0.470
87527W        W59952  36.595  27.738  12.549
87528W        W59953  14.773  32.935  12.555
87529W        W59954  10.705  26.177  10.572
87530W        W59955  34.442  32.660  11.129
87531W        W59956   1.292   4.160  10.589
87532W        W59957   8.246  43.343  13.047
87533W        W59958  34.503  12.843   0.366
87534W        W59959  40.507  14.928  13.699
87535W        W59960  36.939  27.219  13.354
87536W        W59961  43.024  13.574   0.131
87537W        W59962   4.917   8.470   0.930
87538W        W59963  34.156  27.212   1.307
87539W        W59964  34.848  13.349   2.370
87540W        W59965   5.425   3.059   1.271
87541W        W59966  15.038   0.355   3.716
87542W        W59967  38.101  16.098  10.860
87543W        W59968   3.260  21.232   1.940
87544W        W59969  24.597   8.726   0.486
87545W        W59970  27.745  11.858   1.950
87546W        W59971   2.423   4.242  12.362
87547W        W59972  24.280  17.725   1.418
87548W        W59973  20.023   8.537  12.065
87549W        W59974  30.265  30.192   1.932
87550W        W59975  29.620  33.391  12.510
87551W        W59976  29.407   5.232  12.347
87552W        W59977   8.667  18.521   3.945
87553W        W59978   0.007  25.969  10.987
87554W        W59979   3.494  21.233   3.799
87555W        W59980  36.075  18.699   2.111
87556W        W59981  17.151  29.040  14.442
87557W        W59982  26.547  29.453   5.047
87558W        W59983  44.018   3.055  11.665
87559W        W59984  10.394  13.019  12.983
87560W        W59985  16.315  44.224   2.417
87561W        W59986   0.311  38.027  14.105
87562W        W59987  22.709  36.878   1.238
87563W        W59988  35.080  42.850  14.292
87564W        W59989  34.420   2.798   1.310
87565W        W59990  37.757  40.107   4.134
87566W        W59991  20.542  22.953  11.709
87567W        W59992  15.540  22.407   3.276
87568W        W59993  33.185  32.169  12.404
87569W        W59994   9.264   9.942   0.373
87570W        W59995  23.958  15.623   1.914
87571W        W59996  23.739  16.203   3.738
87572W        W59997  23.536  25.445  14.504
87573W        W59998   5.410  35.637  14.798
87574W        W59999  11.346  41.743   2.499
87575W        W60000  23.391  21.016   2.153
87576W        W60001   6.009  18.211  14.098
87577W        W60002  34.080   7.177  10.987
87578W        W60003  33.394  42.542   0.407
87579W        W60004   7.296  41.929   3.663
87580W        W60005  10.112  29.252   4.045
87581W        W60006  44.329   5.645  14.389
87582W        W60007   1.730   9.379   4.067
87583W        W60008   2.800   1.425  13.876
87584W        W60009  41.982  38.623  11.006
87585W        W60010  44.333  35.635  14.282
87586W        W60011  30.086  17.370  11.609
87587W        W60012  14.751  10.497   0.041
87588W        W60013  17.112  27.469  13.362
87589W        W60014  14.099  32.461   3.337
87590W        W60015  30.468  29.551   4.359
87591W        W60016   4.175  31.813  12.924
87592W        W60017  15.027   4.390   2.708
87593W        W60018   8.383  38.798  10.145
87594W        W60019  27.474  25.993   4.236
87595W        W60020   1.506  22.704  14.470
87596W        W60021  31.945  40.443  12.515
87597W        W60022  34.120  41.299  12.398
87598W        W60023  17.702  12.682  14.462
87599W        W60024  12.876   8.213  13.437
87600W        W60025  30.143   6.740  10.538
87601W        W60026   6.876   4.718   1.268
87602W        W60027  12.065  38.864   1.426
87603W        W60028  15.234  34.449   3.752
87604W        W60029   3.704  19.988  11.179
87605W        W60030  25.884  10.870   2.286
87606W        W60031   1.022   4.206  13.844
87607W        W60032  13.676  28.961  12.356
87608W        W60033  44.938  37.499  14.742
87609W        W60034  26.292  10.928   3.614
87610W        W60035   8.855  26.751   1.497
87611W        W60036  26.985  21.684  11.901
87612W        W60037  32.039  44.923   0.773
87613W        W60038  22.613   8.645   9.685
87614W        W60039  24.536  36.289   3.087
87615W        W60040  18.067  24.605   1.495
87616W        W60041  18.442  25.464   0.690
87617W        W60042   9.610  25.289  10.654
87618W        W60043  36.506  40.406  12.610
87619W        W60044  15.795  22.897   1.382
87620W        W60045  37.403   7.054  12.102
87621W        W60046   2.755  44.016   3.660
87622W        W60047  17.849  14.079  11.147
87623W        W60048  12.168   4.631  12.543
87624W        W60049  32.957  24.607   3.376
87625W        W60050   0.527  31.921  10.975
87626W        W60051  26.728  32.180  12.643
87627W        W60052  29.188  29.042   1.019
87628W        W60053  44.428   4.266  10.717
87629W        W60054  29.706  39.095   4.285
87630W        W60055  25.324  43.866  12.471
87631W        W60056   0.438  36.938  14.841
87632W        W60057   6.863   4.332  14.443
87633W        W60058  33.563  42.740   3.007
87634W        W60059  32.550  32.058  12.021
87635W        W60060  44.776   6.357   3.652
87636W        W60061   6.296  30.636  14.825
87637W        W60062   0.984  28.288   1.985
87638W        W60063  34.262  31.392   0.466
87639W        W60064  24.410  15.362  13.465
87640W        W60065  27.667  39.492  13.426
87641W        W60066  42.215  25.834  12.107
87642W        W60067  32.542  31.004  10.683
87643W        W60068  22.355  15.624  11.014
87644W        W60069  17.743  17.117  12.938
87645W        W60070  17.837   8.736  11.930
87646W        W60071  11.244  36.494   0.437
87647W        W60072  11.282  43.785  13.978
87648W        W60073  20.951   7.505   5.095
87649W        W60074  33.097  41.439  10.928
87650W        W60075   2.207  43.873  14.040
87651W        W60076  30.157  29.171   2.269
87652W        W60077  30.066  15.318   4.629
87653W        W60078  35.491   8.844  10.632
87654W        W60079  30.123  16.942   1.809
87655W        W60080  11.381  21.506   2.217
87656W        W60081  24.551  25.192  10.392
87657W        W60082  43.438  24.060   1.452
87658W        W60083  29.638  12.572  12.542
87659W        W60084  34.364  25.581  12.027
87660W        W60085  37.112  29.473  14.025
87661W        W60086  27.747  38.492   2.488
87662W        W60087  15.304  17.547   0.785
87663W        W60088  29.109  22.618   3.157
87664W        W60089   2.746  14.270   3.500
87665W        W60090   8.858  33.884   1.121
87666W        W60091  25.235  41.895   3.666
87667W        W60092  42.871  24.384   2.270
87668W        W60093   6.403  11.648  11.444
87669W        W60094  25.647   2.202  13.937
87670W        W60095  39.137  24.199  13.795
87671W        W60096  39.931  25.567  11.257
87672W        W60097  32.404  16.881   3.295
87673W        W60098  28.016   0.784  11.084
87674W        W60099   1.823  11.888  11.173
87675W        W60100  14.850  29.397   1.801
87676W        W60101   8.302  24.226   4.304
87677W        W60102   5.374  14.051  14.709
87678W        W60103  25.912   0.488   2.465
87679W        W60104  14.115  32.472   2.429
87680W        W60105  43.340   0.729   1.738
87681W        W60106  31.989  42.868   3.193
87682W        W60107   4.745  10.694   4.395
87683W        W60108   2.750  20.336  14.390
87684W        W60109  38.937  15.558  10.616
87685W        W60110  35.928  25.994   4.277
87686W        W60111  11.746  16.280   2.902
87687W        W60112  39.588  20.574   0.817
87688W        W60113  25.064  21.510  13.636
87689W        W60114  35.133  20.691   2.751
87690W        W60115  31.695  25.773  13.458
87691W        W60116  23.695   6.234   4.346
87692W        W60117  40.447  21.661  14.314
87693W        W60118  41.977  19.620  12.504
87694W        W60119  34.525  11.917   0.774
87695W        W60120   7.668   5.208   3.160
87696W        W60121  25.073   5.437   3.360
87697W        W60122  23.545  23.860   1.303
87698W        W60123  18.180  12.148   0.648
87699W        W60124  36.566  27.515  13.781
87700W        W60125  14.834  34.016   1.379
87701W        W60126  15.753  23.289   5.177
87702W        W60127  44.653   3.830   4.422
87703W        W60128  22.551   8.339  14.256
87704W        W60129  29.254   5.892  14.663
87705W        W60130  27.128  40.206  10.550
87706W        W60131  39.417  15.784  14.225
87707W        W60132  29.506  16.764  10.900
87708W        W60133  16.862  43.994   1.752
87709W        W60134  43.803  37.019   2.166
87710W        W60135  32.252   4.760  10.643
87711W        W60136   2.818  18.667  10.675
87712W        W60137  18.960   6.748   2.875
87713W        W60138  16.098   1.769  14.877
87714W        W60139   1.750  10.899  13.538
87715W        W60140  38.012  20.696  13.382
87716W        W60141  10.883  15.582  12.439
87717W        W60142  26.912  35.335   3.218
87718W        W60143  25.238  26.391   0.378
87719W        W60144   5.902  30.198  12.547
87720W        W60145  39.713  44.856  12.579
87721W        W60146  15.519  29.640  13.808
87722W        W60147  38.863  20.111   2.335
87723W        W60148  40.263  35.948   0.780
87724W        W60149  28.083  40.825   2.450
87725W        W60150  25.995  17.173   4.377
87726W        W60151  13.822  21.697  11.107
87727W        W60152  32.598  24.615   2.308
87728W        W60153  44.065  36.007   3.106
87729W        W60154  11.790  30.586  12.650
87730W        W60155   0.860  20.776  13.501
87731W        W60156  25.749  14.808  12.058
87732W        W60157  13.527  12.228  14.247
87733W        W60158  38.296   4.063  14.415
87734W        W60159   8.438  27.456   2.415
87735W        W60160  27.300  21.714   0.136
87736W        W60161   4.277  17.870  14.542
87737W        W60162  12.688  12.562  10.903
87738W        W60163  39.273  23.571   4.995
87739W        W60164  10.806  32.389  11.174
87740W        W60165  26.738  23.746  13.875
87741W        W60166   7.446  18.599   4.530
87742W        W60167   6.142  33.129   0.274
87743W        W60168  24.446  23.312  12.406
87744W        W60169   7.790  23.259   0.070
87745W        W60170  18.573  41.330  11.476
87746W        W60171  19.264  38.790  10.648
87747W        W60172   1.309  39.326   4.530
87748W        W60173   5.504  44.835  11.156
87749W        W60174  17.068  26.551  13.746
87750W        W60175  37.902  44.698   4.189
87751W        W60176   0.714  42.428  10.479
87752W        W60177  38.872  24.462   0.729
87753W        W60178  13.123  19.575   3.845
87754W        W60179   3.233  42.938  12.396
87755W        W60180   4.820  15.387  12.942
87756W        W60181   5.173  29.458   0.117
87757W        W60182   4.116  17.322   3.552
87758W        W60183  19.751   0.579   0.905
87759W        W60184  21.468  29.661  12.005
87760W        W60185  16.582  29.096   3.690
87761W        W60186  44.470  43.816  14.857
87762W        W60187  10.210   0.724  11.128
87763W        W60188  39.161  38.274  13.846
87764W        W60189  15.131  17.316   4.103
87765W        W60190  39.511   0.253  14.150
87766W        W60191   9.280   4.363   2.283
87767W        W60192  22.554  28.916  11.663
87768W        W60193  43.861   6.926   1.923
87769W        W60194   8.943  12.625  12.940
87770W        W60195   1.015  37.527   0.085
87771W        W60196  36.512   6.456   4.479
87772W        W60197  29.911   1.308  10.950
87773W        W60198  26.895  20.749   2.843
87774W        W60199  29.999  26.905  13.979
87775W        W60200   2.733  36.004  14.920
87776W        W60201  16.330   5.965   2.861
87777W        W60202  31.644  27.638   0.805
87778W        W60203   8.640   3.640   1.222
87779W        W60204  36.931  21.604   1.443
87780W        W60205  12.241  36.399   4.514
87781W        W60206  17.406  32.803   2.714
87782W        W60207  42.788  28.121  12.876
87783W        W60208  27.450  40.275  12.671
87784W        W60209  26.878  35.451  10.239
87785W        W60210   6.615  21.184   3.206
87786W        W60211   3.736  40.797  13.030
87787W        W60212   3.532   1.828  13.029
87788W        W60213  27.675  39.733  12.350
87789W        W60214   5.160  28.623   0.360
87790W        W60215  30.125  23.972  11.491
87791W        W60216  19.777  24.534   0.978
87792W        W60217   6.423  16.586  11.155
87793W        W60218  27.522  38.865  12.250
87794W        W60219   6.151  40.293   5.133
87795W        W60220  32.437   1.884   3.322
87796W        W60221  29.937  39.366  11.236
87797W        W60222  19.144   9.090  14.268
87798W        W60223  43.819  17.086   4.122
87799W        W60224  23.124  31.934  11.877
87800W        W60225   9.737  44.856   0.277
87801W        W60226  43.349  29.018   4.279
87802W        W60227  38.544  22.123   1.370
87803W        W60228   0.682  11.295  14.323
87804W        W60229  14.941  24.459   2.256
87805W        W60230  12.739  38.355   3.923
87806W        W60231  13.015  11.266  10.656
87807W        W60232  19.736  27.391   1.939
87808W        W60233   2.789  23.235  12.450
87809W        W60234  33.336  21.017   0.761
87810W        W60235  15.352   6.816   3.513
87811W        W60236  44.062  21.270  13.738
87812W        W60237   9.381   8.312  12.188
87813W        W60238  26.074   6.877   2.189
87814W        W60239  23.731  43.072   0.926
87815W        W60240  41.451  29.144  11.737
87816W        W60241  11.584  16.128  13.878
87817W        W60242   0.955  29.425   2.754
87818W        W60243  18.677  34.415   0.903
87819W        W60244  12.683  31.104   4.106
87820W        W60245  18.002  23.674   4.099
87821W        W60246  27.683  32.639   3.425
87822W        W60247   8.730  10.542   1.775
87823W        W60248   5.247   4.716  12.838
87824W        W60249  32.314  12.217   3.642
87825W        W60250   7.969  38.936  14.753
87826W        W60251  24.252   1.403  11.630
87827W        W60252  12.668  20.249   3.247
87828W        W60253  36.076  44.934  12.166
87829W        W60254  32.009  22.746   1.735
87830W        W60255   0.787  27.950   0.347
87831W        W60256  26.227  20.564  13.930
87832W        W60257  19.964  19.630   0.928
87833W        W60258  43.534  12.275   3.249
87834W        W60259  19.892  27.076  13.047
87835W        W60260  14.323  19.462   1.690
87836W        W60261  42.404  28.290   3.214
87837W        W60262  31.113  19.737  11.084
87838W        W60263  42.359  12.716  10.903
87839W        W60264  19.275   9.942   2.161
87840W        W60265  28.646  34.118   4.304
87841W        W60266  11.580  15.655   4.098
87842W        W60267  38.017  13.336   2.851
87843W        W60268   7.603  19.906   2.224
87844W        W60269  23.529  38.545  13.450
87845W        W60270  23.161  19.980  12.492
87846W        W60271  29.699  44.440   3.679
87847W        W60272  11.065   8.812   3.693
87848W        W60273  41.967   9.501   2.700
87849W        W60274  31.484  44.248   3.335
87850W        W60275   4.398   4.388  12.607
87851W        W60276  10.487  17.284  13.253
87852W        W60277  16.974  10.231   3.746
87853W        W60278  40.900  14.908  10.724
87854W        W60279   8.759  17.481  13.512
87855W        W60280  38.391   1.029  13.040
87856W        W60281  29.063  19.576   4.273
87857W        W60282   1.204  29.031  11.954
87858W        W60283  10.141  38.857   3.260
87859W        W60284  44.088  43.531  10.088
87860W        W60285  33.290  35.941  13.900
87861W        W60286  36.053  39.850  13.222
87862W        W60287  23.481  34.069  13.921
87863W        W60288  24.334  18.081   2.651
87864W        W60289  30.567   3.802  11.576
87865W        W60290  31.467  37.039   0.651
87866W        W60291  20.764  42.064  13.919
87867W        W60292  11.614  33.617  10.702
87868W        W60293  14.804   8.975   2.231
87869W        W60294  18.357  19.107  13.520
87870W        W60295  16.535  14.261   0.333
87871W        W60296  29.868   6.776   4.550
87872W        W60297   7.174  10.847  13.451
87873W        W60298   4.210  26.902  13.341
87874W        W60299   4.019   2.380  13.553
87875W        W60300  42.846  25.204  13.005
87876W        W60301  12.802   1.864  12.555
87877W        W60302  24.419  39.755   0.230
87878W        W60303   1.767  30.454  11.348
87879W        W60304   5.988  17.658   2.567
87880W        W60305  20.304  18.612  13.803
87881W        W60306  34.465  34.913   0.307
87882W        W60307  15.223   5.663  13.509
87883W        W60308   5.260  40.342   0.096
87884W        W60309   7.922  24.989  12.102
87885W        W60310  39.558   3.109   0.228
87886W        W60311   6.170  44.311  11.682
87887W        W60312  18.601  23.251   0.866
87888W        W60313   1.986  42.802   1.462
87889W        W60314  33.106  34.057  14.009
87890W        W60315  36.592  25.420  14.846
87891W        W60316  10.338  37.296   2.453
87892W        W60317   3.592  32.767  11.038
87893W        W60318   3.415  26.821  12.113
87894W        W60319  15.877  21.576   2.325
87895W        W60320   3.400  29.614  14.818
87896W        W60321  44.261  36.661   3.243
87897W        W60322  13.331  23.133  12.074
87898W        W60323   5.199  24.155  10.897
87899W        W60324   8.323   9.911  12.872
87900W        W60325  14.513  10.310   2.386
87901W        W60326   4.314  33.326   2.710
87902W        W60327  20.478   3.058  12.535
87903W        W60328  26.486  38.346   3.406
87904W        W60329   3.395  16.067   0.019
87905W        W60330  25.426   2.724   0.233
87906W        W60331  11.721  15.651   0.700
87907W        W60332   0.396   3.834  13.417
87908W        W60333   6.047   1.489  10.770
87909W        W60334  15.696  29.718  12.931
87910W        W60335  12.855  36.367   1.468
87911W        W60336  34.244  31.888  11.584
87912W        W60337  27.898  37.577   2.836
87913W        W60338  21.725  34.502  11.022
87914W        W60339  30.312  41.046   3.265
87915W        W60340  31.383  12.794  14.034
87916W        W60341  13.650  13.549   2.193
87917W        W60342  17.858   3.494   5.024
87918W        W60343  44.825  26.651  13.885
87919W        W60344   1.211  40.994  10.687
87920W        W60345  15.783  39.925   4.326
87921W        W60346  40.444  20.522  11.148
87922W        W60347   7.810  23.125  11.694
87923W        W60348   3.472  37.359   1.671
87924W        W60349  12.338  12.891  10.764
87925W        W60350  38.202  42.371   1.855
87926W        W60351   6.250  22.027   4.225
87927W        W60352   9.645  29.195  12.001
87928W        W60353   6.941   4.325  11.514
87929W        W60354  15.870  16.634  13.019
87930W        W60355  30.641  14.249  14.990
87931W        W60356  29.997   4.930   2.800
87932W        W60357  25.935  37.596   0.010
87933W        W60358  30.459   9.621  12.610
87934W        W60359  10.349  41.532   2.602
87935W        W60360  42.805   9.095   3.656
87936W        W60361  39.765  24.000   1.712
87937W        W60362   4.398  44.495  13.399
87938W        W60363  12.890  25.728   2.042
87939W        W60364  16.999  11.838   2.470
87940W        W60365   9.884   8.354   2.411
87941W        W60366   3.238  12.359   2.889
87942W        W60367  43.779   4.788  11.123
87943W        W60368   2.345  12.304   2.757
87944W        W60369  18.702  27.351   0.662
87945W        W60370  32.390   3.481  14.741
87946W        W60371  24.611   0.378   1.478
87947W        W60372  19.271  17.606  13.916
87948W        W60373   5.066  34.731  13.506
87949W        W60374   5.725  22.089   4.274
87950W        W60375  12.642  16.062   3.738
87951W        W60376  10.314   8.329   0.738
87952W        W60377  37.929  32.472   2.797
87953W        W60378   6.498   8.706   1.744
87954W        W60379  10.630  30.456  12.905
87955W        W60380  18.298  20.698  14.816
87956W        W60381  19.771   5.887   1.126
87957W        W60382  29.913  42.353  11.183
87958W        W60383  35.852  17.729   0.798
87959W        W60384  39.321  16.100   4.129
87960W        W60385  20.149   7.737   3.104
87961W        W60386  39.422  35.925   4.164
87962W        W60387   7.663  33.599   3.262
87963W        W60388  39.778  43.095  12.536
87964W        W60389  29.019   2.870   2.742
87965W        W60390  19.127   2.205  12.130
87966W        W60391  43.617  37.211  10.926
87967W        W60392  21.852  11.278  10.178
87968W        W60393  22.238  12.316   4.810
87969W        W60394  39.520  34.910   3.127
87970W        W60395  28.249  31.183   1.173
87971W        W60396   0.269  36.966   1.673
87972W        W60397  35.499   7.303  13.658
87973W        W60398  32.496   6.859  14.024
87974W        W60399  27.408  29.507   3.552
87975W        W60400  31.691  37.575   2.243
87976W        W60401  44.484  11.478   0.298
87977W        W60402   6.293   6.306  14.277
87978W        W60403   6.935  23.682   1.894
87979W        W60404  20.328  28.530  11.169
87980W        W60405   9.835  19.219   1.388
87981W        W60406  16.988  23.193  14.540
87982W        W60407  13.226  11.079  14.012
87983W        W60408  29.047  38.677   4.052
87984W        W60409  22.773  23.443  11.020
87985W        W60410  25.279  34.615   0.794
87986W        W60411   9.771   4.306   0.699
87987W        W60412  34.524  23.244   2.336
87988W        W60413  27.670  17.712  14.062
87989W        W60414  13.316   0.645   1.973
87990W        W60415  13.544   3.407  12.967
87991W        W60416  42.154   8.662  11.141
87992W        W60417  15.731  28.871  14.208
87993W        W60418  15.864  24.591   0.143
87994W        W60419  23.710  35.649   2.762
87995W        W60420  44.375   5.890   1.217
87996W        W60421  37.972   9.208   1.866
87997W        W60422  18.710  37.646   2.602
87998W        W60423  15.236  18.881  14.591
87999W        W60424  12.200   0.823  13.229
88000W        W60425  41.497  41.448  11.929
88001W        W60426  43.012  34.594   1.790
88002W        W60427  25.581   5.195  11.986
88003W        W60428  34.571  20.107   2.147
88004W        W60429  29.233  36.776   4.358
88005W        W60430  41.558  40.340  14.401
88006W        W60431  32.088  25.226   5.138
88007W        W60432  23.953  31.423  10.791
88008W        W60433  11.862  41.054  11.210
88009W        W60434  36.083  25.566   2.407
88010W        W60435   5.786  29.090   3.837
88011W        W60436   5.371   4.686  12.050
88012W        W60437  21.108   2.924   4.034
88013W        W60438  26.221  42.813   1.176
88014W        W60439  29.929   1.587   4.051
88015W        W60440  12.500  31.892   3.673
88016W        W60441  36.963  36.869  14.927
88017W        W60442  11.766  18.057  13.865
88018W        W60443  28.739  34.204   4.798
88019W        W60444   2.727  10.353   3.103
88020W        W60445  40.023  43.075   3.860
88021W        W60446  27.854   5.355  11.518
88022W        W60447  22.210   7.027  14.355
88023W        W60448  10.080  34.089   3.337
88024W        W60449  44.453  20.321  12.921
88025W        W60450  29.819  29.287   5.001
88026W        W60451   2.698  19.809   0.311
88027W        W60452  22.112   9.652   2.379
88028W        W60453  35.015   9.765  10.577
88029W        W60454  25.732  22.611   2.246
88030W        W60455   3.475   0.812  10.041
88031W        W60456   1.924  19.278   2.716
88032W        W60457  22.854  17.602  12.387
88033W        W60458  33.350  10.895   3.977
88034W        W60459  28.413  30.427  13.873
88035W        W60460  44.429   0.416  13.749
88036W        W60461   6.157   4.164   4.423
88037W        W60462  44.957  22.238  12.369
88038W        W60463  27.122  28.099   0.703
88039W        W60464  18.108  30.612  11.129
88040W        W60465  44.916  33.958   1.449
88041W        W60466  19.786  13.942   0.943
88042W        W60467  44.960  40.328  13.322
88043W        W60468  35.599  11.053   0.454
88044W        W60469  15.339  25.037  14.377
88045W        W60470  42.711  23.477   1.225
88046W        W60471  15.199  28.551   0.818
88047W        W60472  38.048  12.211  12.957
88048W        W60473  17.645  25.122   0.903
88049W        W60474  22.267  19.524  12.359
88050W        W60475  20.295  13.618   3.290
88051W        W60476  43.061  19.257   4.037
88052W        W60477   2.396  29.806  12.661
88053W        W60478   5.433  15.059  14.978
88054W        W60479  25.494  37.392   2.797
88055W        W60480  42.222  21.363   4.717
88056W        W60481  30.654  22.329  14.914
88057W        W60482  34.677  34.655  11.100
88058W        W60483  15.338  20.002   4.594
88059W        W60484   1.653  29.902  13.636
88060W        W60485  26.700  42.984   1.286
88061W        W60486   2.689   5.878   3.639
88062W        W60487  44.323  33.065   3.246
88063W        W60488   8.686  25.673  14.711
88064W        W60489  28.901  38.350   0.391
88065W        W60490   2.186  13.781  14.999
88066W        W60491   6.520  39.792   0.797
88067W        W60492  41.591  19.299   0.784
88068W        W60493  20.999  30.521   3.213
88069W        W60494  17.718  18.061  14.290
88070W        W60495  27.227  25.559   4.409
88071W        W60496  27.232  41.383   1.724
88072W        W60497   4.691  35.110   2.276
88073W        W60498  14.275  25.714   4.459
88074W        W60499  43.628  32.472  14.287
88075W        W60500  25.979  11.620   2.973
88076W        W60501  39.837   8.375   3.030
88077W        W60502  26.293   0.226   2.675
88078W        W60503   4.361  14.610  11.123
88079W        W60504  21.736  21.828   1.085
88080W        W60505   0.969  22.174   2.811
88081W        W60506  19.913  23.368  10.569
88082W        W60507  43.448  38.519   0.908
88083W        W60508  11.308  22.906  11.109
88084W        W60509  10.439  13.951   4.310
88085W        W60510  43.895  33.895  13.955
88086W        W60511   3.254  22.016   0.598
88087W        W60512   3.399  43.789  10.713
88088W        W60513  11.842  29.974  10.511
88089W        W60514  11.821  26.044   2.104
88090W        W60515  19.773   4.183   1.835
88091W        W60516  44.007  18.749  12.030
88092W        W60517  33.787  31.171   0.513
88093W        W60518   4.934   9.904  11.698
88094W        W60519  26.733  27.751   2.683
88095W        W60520  30.069  18.927  11.252
88096W        W60521   0.326  19.089  12.027
88097W        W60522  20.156  27.512   2.253
88098W        W60523  26.089   7.420   2.245
88099W        W60524  38.991  19.746   4.527
88100W        W60525  40.215  30.533   4.573
88101W        W60526  13.918  37.972   3.206
88102W        W60527  19.043  11.830  11.448
88103W        W60528  13.855  28.546  13.011
88104W        W60529   0.304  36.294  12.230
88105W        W60530   6.469  22.573   3.285
88106W        W60531  28.135  21.318   2.826
88107W        W60532   3.512  43.910  12.026
88108W        W60533  20.384  40.032   2.055
88109W        W60534   7.647  37.446  12.184
88110W        W60535   4.029  27.969  13.844
88111W        W60536  10.673   9.470  14.827
88112W        W60537  26.984   5.262   2.291
88113W        W60538  27.903  36.432   1.828
88114W        W60539  31.061  28.342  12.902
88115W        W60540  44.372  16.531  11.175
88116W        W60541  21.647   2.540  12.464
88117W        W60542  43.618  15.861  13.653
88118W        W60543  36.579   8.201  11.016
88119W        W60544  38.072  28.420  14.303
88120W        W60545  33.363  34.254   9.921
88121W        W60546  37.560  44.781   3.781
88122W        W60547  20.236  10.869  12.995
88123W        W60548  24.987  41.481   4.519
88124W        W60549   2.649   3.826  11.572
88125W        W60550  36.145  18.144  14.552
88126W        W60551  31.206  10.013   3.863
88127W        W60552  16.774  30.968   4.924
88128W        W60553  42.965  33.429  12.021
88129W        W60554  37.519  35.524   2.304
88130W        W60555  37.776  37.855  12.677
88131W        W60556  31.914  31.393  13.751
88132W        W60557  15.779  15.571  14.272
88133W        W60558  31.393  27.262  14.308
88134W        W60559  25.257  24.230  14.235
88135W        W60560  38.412  30.644   0.308
88136W        W60561  41.104  24.081   3.761
88137W        W60562  26.721  36.922  13.521
88138W        W60563  40.554  10.241  14.493
88139W        W60564  35.080  38.910   4.380
88140W        W60565   4.805   7.352   4.585
88141W        W60566   0.184   6.703   4.570
88142W        W60567  20.244  20.535  13.575
88143W        W60568  15.270  39.593   1.198
88144W        W60569   9.691  25.514   1.232
88145W        W60570  40.937  30.676   2.908
88146W        W60571  35.885  35.480  10.834
88147W        W60572   9.953  17.163   0.788
88148W        W60573  25.922  16.639   4.620
88149W        W60574  21.579  28.682  10.824
88150W        W60575  38.371  32.966   0.451
88151W        W60576  35.756  23.048   4.217
88152W        W60577  35.345  28.124   5.243
88153W        W60578  33.567   3.730  13.820
88154W        W60579  42.506  36.517   4.510
88155W        W60580  23.131  18.021   1.346
88156W        W60581  39.395  24.256   3.306
88157W        W60582  31.410  27.936  12.536
88158W        W60583   4.378   9.894  13.046
88159W        W60584   1.777  21.752  13.051
88160W        W60585  20.343  10.280  10.703
88161W        W60586  18.731   9.817   0.264
88162W        W60587  23.105  22.669  11.821
88163W        W60588  39.130  14.847   4.685
88164W        W60589  17.673   2.394   5.144
88165W        W60590  19.107   2.249  11.178
88166W        W60591   2.673   9.076   4.262
88167W        W60592   9.533   3.514  14.450
88168W        W60593  25.867  36.011  14.292
88169W        W60594  27.532  28.023   1.437
88170W        W60595  32.087  16.284  13.550
88171W        W60596  15.887  10.140   1.331
88172W        W60597  26.416  22.213   5.273
88173W        W60598  24.131   0.706  10.942
88174W        W60599   3.450  15.027   3.317
88175W        W60600  36.632  31.920  12.996
88176W        W60601  35.611  20.182   0.315
88177W        W60602   0.544  20.527  10.423
88178W        W60603  35.799  25.084   4.594
88179W        W60604  20.282  29.913   4.599
88180W        W60605   7.347  40.806  12.936
88181W        W60606  27.582  12.204   4.794
88182W        W60607  15.462  21.841  12.409
88183W        W60608  26.983  27.235   1.283
88184W        W60609   0.826  43.510   0.232
88185W        W60610  29.940  32.087  11.978
88186W        W60611   6.664  12.067   2.340
88187W        W60612  28.614   9.497  11.942
88188W        W60613  34.195  32.574   3.601
88189W        W60614  39.023  25.177  11.149
88190W        W60615  28.670  25.240  10.625
88191W        W60616  24.486   8.625   4.015
88192W        W60617  38.167  42.969   4.042
88193W        W60618  37.018  24.510  11.608
88194W        W60619  22.557  21.741  12.565
88195W        W60620  19.684   2.670  14.935
88196W        W60621   5.340   3.373  14.375
88197W        W60622   9.836  27.440  11.509
88198W        W60623  17.686  15.662  14.326
88199W        W60624  11.554  35.940   1.461
88200W        W60625  27.079  15.397   0.938
88201W        W60626  11.630  18.847   4.643
88202W        W60627  29.456  30.682  11.605
88203W        W60628  38.328  14.804  10.797
88204W        W60629  37.018   5.787   4.688
88205W        W60630  20.642  32.032  12.543
88206W        W60631  36.451  10.176   3.534
88207W        W60632  18.500  15.644   1.866
88208W        W60633  28.562  40.822   2.787
88209W        W60634   3.091  36.862  11.641
88210W        W60635  33.324  10.459  12.126
88211W        W60636  33.294  36.096  11.944
88212W        W60637  18.175  24.131  12.325
88213W        W60638  31.176  22.123  10.731
88214W        W60639   9.607  36.416  11.049
88215W        W60640  39.377  29.568   4.371
88216W        W60641  20.613   0.520   1.225
88217W        W60642  41.433  30.159  12.931
88218W        W60643  25.147  16.589  10.778
88219W        W60644  29.461  36.499   1.835
88220W        W60645   9.335  27.524  14.802
88221W        W60646  20.330   3.652  12.453
88222W        W60647  17.081   4.989   4.407
88223W        W60648  21.459   5.006  11.636
88224W        W60649  27.483  15.740  13.874
88225W        W60650  14.660  37.808   1.475
88226W        W60651  17.076  38.947   3.326
88227W        W60652  11.626  40.700   9.922
88228W        W60653  14.602  36.938   0.245
88229W        W60654  20.010   5.642   4.216
88230W        W60655  43.711   1.408   0.483
88231W        W60656   2.677   5.732  10.819
88232W        W60657  19.066  36.312   3.623
88233W        W60658   1.348  23.748  11.997
88234W        W60659  44.912  39.416   2.360
88235W        W60660  29.207  44.763   2.557
88236W        W60661  22.015  41.844   2.909
88237W        W60662  14.614  39.388  10.982
88238W        W60663  13.250   4.753   1.037
88239W        W60664  21.645  10.477   9.835
88240W        W60665  32.616  41.354   2.211
88241W        W60666  25.219  41.828  11.459
88242W        W60667  13.125  17.147  14.890
88243W        W60668  14.291  42.073   1.797
88244W        W60669   2.534  10.089  13.636
88245W        W60670   4.399  41.520   1.204
88246W        W60671  25.028  31.483  10.769
88247W        W60672   5.365  18.812  14.348
88248W        W60673   4.326   8.573  13.575
88249W        W60674  25.593  33.660   2.715
88250W        W60675   0.217  32.164  12.146
88251W        W60676  36.555   7.922  13.413
88252W        W60677  17.213  29.674   4.236
88253W        W60678   6.883  11.720  13.403
88254W        W60679  41.179   5.141  12.286
88255W        W60680   4.799   5.881   2.691
88256W        W60681  17.243  42.821  13.366
88257W        W60682  33.632  30.909   2.339
88258W        W60683  33.875  15.624  10.764
88259W        W60684   4.196   6.332   0.239
88260W        W60685  15.865  12.160   0.437
88261W        W60686  21.771   1.010  11.556
88262W        W60687  20.730   3.541   1.296
88263W        W60688  14.246  36.383   3.785
88264W        W60689  15.876  20.812   0.297
88265W        W60690   1.277   9.833   3.630
88266W        W60691   0.284  12.607  13.897
88267W        W60692  38.143  10.916  12.444
88268W        W60693  18.984   3.763  10.726
88269W        W60694  20.492  26.181   3.727
88270W        W60695  20.660  11.651  13.317
88271W        W60696   3.806  38.604   0.269
88272W        W60697   2.815  23.064  13.324
88273W        W60698  32.543  36.017  10.407
88274W        W60699  41.498  14.342   1.861
88275W        W60700  26.005  28.754  13.037
88276W        W60701   1.443  26.268  11.472
88277W        W60702  12.395  16.195   3.280
88278W        W60703  10.229  19.106   1.034
88279W        W60704  17.745  39.474   4.170
88280W        W60705  10.116  39.021  12.041
88281W        W60706   0.389  29.450   0.035
88282W        W60707  33.173   9.653   0.700
88283W        W60708  12.789  10.644  12.666
88284W        W60709   1.370   2.018  11.277
88285W        W60710  41.203  37.699   4.147
88286W        W60711  30.186   4.189  12.057
88287W        W60712  44.984   0.326   0.764
88288W        W60713  43.926  21.973  11.678
88289W        W60714  22.488  35.540  14.316
88290W        W60715  19.827  13.422   3.659
88291W        W60716  32.494  44.069  10.348
88292W        W60717   7.741  33.476   1.488
88293W        W60718  18.292  37.631  13.860
88294W        W60719   3.992  18.840  14.700
88295W        W60720  12.751   4.620   4.124
88296W        W60721   2.269  27.609  12.576
88297W        W60722  28.644  27.175  10.695
88298W        W60723   6.414  43.015   3.805
88299W        W60724   8.883   8.035  14.304
88300W        W60725  20.229  17.137   0.233
88301W        W60726  44.615   4.869   1.362
88302W        W60727  31.444   1.348  12.047
88303W        W60728  20.620  35.976  13.343
88304W        W60729  34.077  24.388   2.657
88305W        W60730  29.481  27.023  12.854
88306W        W60731  23.909  14.269   1.378
88307W        W60732  30.567  35.319   4.229
88308W        W60733  22.669   2.859  14.881
88309W        W60734  44.862   9.114  14.340
88310W        W60735  31.190  11.067  14.492
88311W        W60736  21.941  40.586  10.982
88312W        W60737  44.746  11.096  14.186
88313W        W60738  32.613  43.932   3.389
88314W        W60739  36.280  21.569   2.426
88315W        W60740  44.281   2.862  12.553
88316W        W60741  12.167  25.040   2.892
88317W        W60742  13.964  20.063  12.150
88318W        W60743  42.862  30.349  13.991
88319W        W60744  37.070  38.325  10.890
88320W        W60745  22.684   6.605  10.663
88321W        W60746  33.917   0.539  14.365
88322W        W60747  24.708   6.621  12.631
88323W        W60748  30.596  18.747   1.217
88324W        W60749  12.988  15.651   2.415
88325W        W60750  29.848   4.221   0.839
88326W        W60751  23.514   1.446   0.155
88327W        W60752  33.196  20.904   2.427
88328W        W60753  28.474   2.512   0.870
88329W        W60754  25.535  22.009   4.527
88330W        W60755   9.818   6.454   9.816
88331W        W60756   4.997   7.679  13.525
88332W        W60757  43.314  34.070   1.802
88333W        W60758  44.290  13.622  11.188
88334W        W60759  19.619  17.294  13.120
88335W        W60760  37.582  18.839   3.256
88336W        W60761  17.040   9.871  10.719
88337W        W60762  41.295   2.904  12.941
88338W        W60763  36.906  32.592  13.348
88339W        W60764  29.469  15.498   0.476
88340W        W60765  20.100  43.530  14.926
88341W        W60766  27.559  15.675  13.020
88342W        W60767   1.326  42.998  12.112
88343W        W60768  36.099  21.124  14.793
88344W        W60769  30.402   2.185   3.386
88345W        W60770  22.296  42.468  14.428
88346W        W60771  16.757  23.995   4.591
88347W        W60772  24.391   3.063  13.916
88348W        W60773   1.765  17.162   3.273
88349W        W60774  37.346  15.313   4.630
88350W        W60775  35.612  17.306  11.494
88351W        W60776  39.735  43.277   2.949
88352W        W60777  11.971  41.840  11.692
88353W        W60778  37.512  44.753  11.326
88354W        W60779  38.809  35.546  14.754
88355W        W60780  27.460   1.209  11.582
88356W        W60781   1.057  18.736   0.758
88357W        W60782  12.348  17.647   2.255
88358W        W60783   8.912  15.759  10.614
88359W        W60784  12.788  29.816   2.036
88360W        W60785   3.124   7.749   0.867
88361W        W60786  34.530  13.375   4.568
88362W        W60787  18.255  27.404   3.695
88363W        W60788   1.556  43.981   3.341
88364W        W60789  28.752  33.394  14.255
88365W        W60790   2.760  17.422  14.342
88366W        W60791   6.937  18.794   4.590
88367W        W60792  21.458   2.843  10.979
88368W        W60793  37.744  39.395  11.468
88369W        W60794  16.780  29.678  13.634
88370W        W60795  40.097   8.402   3.469
88371W        W60796  11.414  15.086  12.605
88372W        W60797  10.098  30.609  11.021
88373W        W60798  27.309   8.618   3.202
88374W        W60799  29.100  41.365  10.977
88375W        W60800  20.086  37.396   4.634
88376W        W60801  34.557   9.852   2.247
88377W        W60802   3.659   5.270   0.430
88378W        W60803  12.190  11.453   1.258
88379W        W60804  32.049  22.602   4.131
88380W        W60805  44.248  41.550  12.014
88381W        W60806  31.844  18.021  13.404
88382W        W60807   1.467  32.552  13.402
88383W        W60808  30.437  16.928  10.178
88384W        W60809  37.551  13.355   0.324
88385W        W60810  12.623   7.398   1.785
88386W        W60811  27.424   0.706   1.350
88387W        W60812   7.154  10.257   2.815
88388W        W60813   6.223   3.773  12.535
88389W        W60814  34.148  21.334  12.038
88390W        W60815  44.347  10.867  11.506
88391W        W60816  26.562  14.630   1.729
88392W        W60817  18.102  19.152   2.836
88393W        W60818  13.561  30.698   3.749
88394W        W60819  36.863  29.420  14.489
88395W        W60820  30.001   9.692  13.830
88396W        W60821  25.467   3.676   2.624
88397W        W60822  40.786   6.183   4.605
88398W        W60823  38.393   4.398  13.982
88399W        W60824   3.487  16.483  12.924
88400W        W60825  42.159  27.977   4.638
88401W        W60826   4.456  10.853   3.739
88402W        W60827   5.920  23.755  10.775
88403W        W60828   9.698  13.214   4.417
88404W        W60829   1.467  29.597   0.513
88405W        W60830  21.086  44.954   0.431
88406W        W60831  21.975  11.726  11.944
88407W        W60832  19.467  26.250   2.663
88408W        W60833  10.778  38.536   3.410
88409W        W60834  41.991  25.202  13.960
88410W        W60835  38.318  22.654  14.433
88411W        W60836  15.357  11.830  12.111
88412W        W60837  44.867  26.981  11.625
88413W        W60838  11.305  21.032  14.928
88414W        W60839  11.410  37.287  12.099
88415W        W60840  10.077  29.477   0.464
88416W        W60841  32.188  20.771   4.698
88417W        W60842  31.039  34.918   2.331
88418W        W60843   0.540  10.130  12.528
88419W        W60844  29.835  34.976  12.909
88420W        W60845  15.095  19.836   1.685
88421W        W60846  36.171  23.145   9.768
88422W        W60847  13.619  37.494   4.080
88423W        W60848  20.077  40.423  11.029
88424W        W60849   3.967  26.523  14.942
88425W        W60850  32.997  37.025   1.381
88426W        W60851   0.973  10.800   0.947
88427W        W60852  38.544  22.607  13.341
88428W        W60853  24.148  41.866  11.316
88429W        W60854  10.219   8.466   1.769
88430W        W60855  28.188  40.347   1.433
88431W        W60856  14.664  19.284   3.812
88432W        W60857   8.114  23.055   2.284
88433W        W60858  34.545  12.069   4.075
88434W        W60859   1.809   9.909   3.683
88435W        W60860   0.347  19.111   1.906
88436W        W60861  14.343   5.097  13.626
88437W        W60862  30.720  39.241  12.592
88438W        W60863  38.366   2.919   4.074
88439W        W60864  17.840  38.460   4.096
88440W        W60865  39.283   4.505  12.898
88441W        W60866  21.244  14.847   3.233
88442W        W60867   1.975  23.435  12.445
88443W        W60868  16.297  16.145   1.657
88444W        W60869   3.996  31.892   0.431
88445W        W60870  26.575  13.173  13.387
88446W        W60871  13.537  24.892  12.586
88447W        W60872   0.623  16.423   0.025
88448W        W60873  43.922  18.079  14.082
88449W        W60874  15.153  17.997  12.941
88450W        W60875   3.417  21.746  13.821
88451W        W60876  19.264  29.998  10.785
88452W        W60877  41.151  32.054  12.517
88453W        W60878   8.450  13.306   3.664
88454W        W60879   7.407  28.091  14.965
88455W        W60880   6.308  27.319  11.076
88456W        W60881  27.517  15.215   0.694
88457W        W60882  37.268   8.832  12.958
88458W        W60883  35.061  28.064   2.957
88459W        W60884  14.808  18.236  14.976
88460W        W60885  18.773  43.776  13.840
88461W        W60886   9.114  32.114  11.121
88462W        W60887  29.429  34.541  13.438
88463W        W60888   7.324  44.450   4.304
88464W        W60889  40.734  41.880   4.494
88465W        W60890  39.472  13.694   3.331
88466W        W60891  23.924  28.771  13.898
88467W        W60892  12.064   8.729  12.054
88468W        W60893   2.761  34.284   1.769
88469W        W60894  26.432  24.670  12.636
88470W        W60895   6.457  18.966   0.952
88471W        W60896  22.166   2.034   2.823
88472W        W60897  42.920  37.046   4.169
88473W        W60898  30.102  25.138   4.362
88474W        W60899  43.086   7.130   1.840
88475W        W60900  10.695  13.347  12.073
88476W        W60901  41.579  33.810  13.991
88477W        W60902  39.371  16.855   0.906
88478W        W60903   2.209   3.431   2.263
88479W        W60904  17.681  28.012   1.518
88480W        W60905  32.573  41.838   3.663
88481W        W60906   8.512  10.654  11.106
88482W        W60907  28.393  37.638   3.576
88483W        W60908   7.458   1.531  13.839
88484W        W60909  27.578  31.916  11.955
88485W        W60910  44.920  35.050  14.004
88486W        W60911  17.779  42.381   4.168
88487W        W60912  35.914  15.884  14.356
88488W        W60913  38.883  31.206   1.289
88489W        W60914  44.989  30.006   2.009
88490W        W60915   9.913  39.726  13.922
88491W        W60916  27.336  32.852  14.912
88492W        W60917   8.117  38.116   1.894
88493W        W60918  39.092  10.587  13.608
88494W        W60919  22.005  32.118   4.544
88495W        W60920   3.866  42.136  10.558
88496W        W60921  40.396  32.103   3.664
88497W        W60922  28.192  39.289  14.312
88498W        W60923  19.013  29.039   3.237
88499W        W60924  34.419   9.367   2.097
88500W        W60925   0.645  29.933  11.113
88501W        W60926   9.914  13.543  14.905
88502W        W60927  18.556  42.624   1.350
88503W        W60928  12.348  32.589  11.164
88504W        W60929   5.308  10.632   2.096
88505W        W60930   2.954  13.795   4.389
88506W        W60931   4.838  10.905   0.793
88507W        W60932   5.220   3.060   3.263
88508W        W60933   3.387   8.642  13.466
88509W        W60934  44.234  31.608  10.964
88510W        W60935  10.662  26.094  13.492
88511W        W60936   8.121  21.887  13.305
88512W        W60937   0.444  16.569  14.551
88513W        W60938  29.422  30.669  13.958
88514W        W60939  16.708  12.116  11.990
88515W        W60940  41.095  32.431   2.210
88516W        W60941  16.105  43.924  10.748
88517W        W60942   2.811  10.112   0.477
88518W        W60943  32.556  16.126  11.693
88519W        W60944  41.734  12.039   4.327
88520W        W60945  39.775  15.349  13.407
88521W        W60946  35.759  38.415   4.161
88522W        W60947   5.849  33.599  13.273
88523W        W60948  37.552  41.765  11.026
88524W        W60949  12.182   2.565  12.046
88525W        W60950  16.007   8.806   5.087
88526W        W60951  37.879  30.863   2.665
88527W        W60952  10.903  20.778  13.992
88528W        W60953  18.155  12.654  10.764
88529W        W60954   5.136   7.954   0.718
88530W        W60955  33.107  10.399   4.394
88531W        W60956   8.082  33.558  13.965
88532W        W60957  10.795  23.630  10.545
88533W        W60958  34.145  16.612  12.718
88534W        W60959  37.085  15.344   0.848
88535W        W60960  15.356   0.057   1.169
88536W        W60961  44.865  36.003   0.273
88537W        W60962  28.170  14.291   3.857
88538W        W60963  12.572  12.101  14.033
88539W        W60964   5.838  31.466   3.849
88540W        W60965  15.372  11.390   4.121
88541W        W60966  33.880  29.630   3.425
88542W        W60967  38.555  35.361   3.252
88543W        W60968  42.672   7.389  14.248
88544W        W60969  17.270   0.203   3.179
88545W        W60970   2.545  23.225  10.594
88546W        W60971  23.974  32.900  12.362
88547W        W60972  36.094  13.279  12.987
88548W        W60973   6.356  31.886  13.528
88549W        W60974  13.093   1.218  11.319
88550W        W60975  13.847   9.823  13.095
88551W        W60976   7.549  22.068   3.864
88552W        W60977  25.980   0.890   4.625
88553W        W60978   6.100  18.317   0.463
88554W        W60979  11.840  26.932   0.382
88555W        W60980  16.936   7.454  11.977
88556W        W60981   7.432  27.094   1.383
88557W        W60982  42.869  30.007  11.423
88558W        W60983  20.467  23.868  10.738
88559W        W60984   5.208  43.009  13.547
88560W        W60985   4.755  24.240   4.527
88561W        W60986  37.458   1.976  14.780
88562W        W60987   3.202  24.485   3.252
88563W        W60988  20.556  28.709   3.092
88564W        W60989  39.124   7.277  14.348
88565W        W60990   2.321  14.734  14.279
88566W        W60991  17.938  34.367  11.968
88567W        W60992   1.808  16.640   4.102
88568W        W60993  29.037  20.822  14.558
88569W        W60994   2.735  25.592  11.095
88570W        W60995  33.589  14.294   3.186
88571W        W60996  20.130  27.482   3.275
88572W        W60997  33.155   9.709  11.167
88573W        W60998  12.110  15.888   2.894
88574W        W60999  33.028  29.658  14.412
88575W        W61000  21.576   5.476   0.870
88576W        W61001  24.899   5.424   0.328
88577W        W61002  16.502  17.089  11.133
88578W        W61003   3.434  35.502  10.755
88579W        W61004  27.217  11.779   1.253
88580W        W61005  40.425  36.345   1.516
88581W        W61006  19.062   0.797   9.936
88582W        W61007  26.154  43.857  13.805
88583W        W61008  11.400   8.467  11.010
88584W        W61009  32.243   0.316   4.532
88585W        W61010   2.353  21.191  13.475
88586W        W61011  42.949  37.571   3.277
88587W        W61012   4.405   9.086  13.441
88588W        W61013  12.489  37.197  10.474
88589W        W61014  14.867  41.860  12.887
88590W        W61015  32.444  14.679   2.481
88591W        W61016  23.751  31.161  11.877
88592W        W61017   3.201  14.854   2.874
88593W        W61018  31.071  33.911   2.448
88594W        W61019   7.346  31.646  14.951
88595W        W61020   0.236   7.820  11.579
88596W        W61021  42.335  23.534   0.876
88597W        W61022  43.251  27.187  12.843
88598W        W61023   2.231  27.362   2.671
88599W        W61024  36.743  11.143  12.461
88600W        W61025  19.196   2.238   1.345
88601W        W61026  30.120  12.114  10.600
88602W        W61027  29.635  21.002   3.228
88603W        W61028  34.780  16.311  11.028
88604W        W61029   1.196  35.323  13.932
88605W        W61030  15.149   1.245  11.014
88606W        W61031   1.612  35.188  14.511
88607W        W61032  19.113  31.345  14.494
88608W        W61033  43.035   7.232   4.991
88609W        W61034  22.521  35.224   3.451
88610W        W61035   5.888  19.484   4.047
88611W        W61036  17.564  42.722  13.779
88612W        W61037  27.058  42.754   2.767
88613W        W61038  12.389  15.596   3.800
88614W        W61039  31.096  18.807   1.288
88615W        W61040  40.976  20.667   3.937
88616W        W61041  42.339  38.925  14.705
88617W        W61042  41.570  20.802   3.312
88618W        W61043   5.629  23.268   1.340
88619W        W61044  19.604  29.451   4.166
88620W        W61045  16.589  42.120  10.710
88621W        W61046   2.408   6.168  10.804
88622W        W61047  22.662  36.518  10.656
88623W        W61048   7.448   3.884   2.345
88624W        W61049  20.016  44.852  12.226
88625W        W61050  16.868  32.661  11.188
88626W        W61051   8.716  22.241   3.184
88627W        W61052   3.574  28.194  10.071
88628W        W61053   7.519  16.769  11.103
88629W        W61054  26.897   3.899  12.837
88630W        W61055   6.709  14.852  12.944
88631W        W61056  22.145   4.882  14.265
88632W        W61057  35.159   6.702  13.416
88633W        W61058  23.721   0.826   3.211
88634W        W61059   9.628  19.099   3.211
88635W        W61060   4.936   3.155   2.827
88636W        W61061  10.166  29.216   2.269
88637W        W61062   0.774   2.655   1.349
88638W        W61063  10.384  27.973   0.376
88639W        W61064  21.235   4.900  14.384
88640W        W61065   7.011  22.771   0.215
88641W        W61066  41.450  15.430  13.903
88642W        W61067  10.263  27.189   2.256
88643W        W61068  19.705  10.839  11.410
88644W        W61069  20.907  15.612  11.604
88645W        W61070  23.234  39.958  11.013
88646W        W61071  20.742  38.028   4.957
88647W        W61072  15.543  21.061  14.294
88648W        W61073   2.372  13.443  10.761
88649W        W61074  13.027  36.408  12.739
88650W        W61075  15.264  14.170   4.869
88651W        W61076   0.887   0.258  12.960
88652W        W61077   5.324  25.432  13.808
88653W        W61078  22.673   4.531  12.589
88654W        W61079   8.881  13.229  13.981
88655W        W61080   4.874  30.327   3.862
88656W        W61081  22.696  25.077  11.001
88657W        W61082  22.125  22.021   1.968
88658W        W61083  27.618  43.239  11.566
88659W        W61084  41.177  16.796  14.462
88660W        W61085  31.680  22.145   3.294
88661W        W61086  31.961   7.142  13.482
88662W        W61087  20.497  26.589   3.388
88663W        W61088  41.947  14.578   1.656
88664W        W61089  23.062  29.988  12.373
88665W        W61090  22.014  13.631  12.283
88666W        W61091  14.396  36.776  13.015
88667W        W61092  41.039  17.461  12.530
88668W        W61093  26.663  11.877  13.927
88669W        W61094  10.870   3.290   1.963
88670W        W61095   7.385  11.159   4.255
88671W        W61096  30.016  27.905  14.979
88672W        W61097   4.427  10.658   3.257
88673W        W61098  12.534  21.341   2.229
88674W        W61099  38.840  25.979   4.759
88675W        W61100  39.155  16.572  12.567
88676W        W61101  19.203  27.572  14.468
88677W        W61102  29.377   8.402   0.923
88678W        W61103  22.559  13.250   0.231
88679W        W61104   5.422  39.480   2.123
88680W        W61105  32.498  16.629   4.289
88681W        W61106  19.901  22.871  10.647
88682W        W61107  35.845  24.939  14.761
88683W        W61108  26.039   5.398   3.243
88684W        W61109  42.968  40.437  14.005
88685W        W61110  41.702   0.482  13.396
88686W        W61111  10.096  40.404  11.585
88687W        W61112  20.156  39.129   1.435
88688W        W61113  36.948  24.001  12.359
88689W        W61114  42.381   2.032  12.920
88690W        W61115  13.670  42.321   0.472
88691W        W61116  34.880  43.136   4.503
88692W        W61117  33.932  36.654   4.072
88693W        W61118  33.584  29.429  13.039
88694W        W61119   6.392  23.868   3.739
88695W        W61120  19.239   9.897  12.923
88696W        W61121  35.499  41.903  14.827
88697W        W61122  26.621   8.805  11.280
88698W        W61123  15.272  42.829  14.846
88699W        W61124   4.712   0.902  13.994
88700W        W61125  14.519  31.036  11.655
88701W        W61126  44.241  10.308   1.175
88702W        W61127  21.696  39.568  14.971
88703W        W61128  27.018  23.083  10.572
88704W        W61129  27.895   5.665   0.382
88705W        W61130  13.168  43.300  10.763
88706W        W61131   2.801  28.344  11.612
88707W        W61132  35.620  13.038  12.915
88708W        W61133  22.531  15.164  11.172
88709W        W61134   9.872   5.185   4.574
88710W        W61135   7.922  23.798   1.845
88711W        W61136   3.712  16.543  14.485
88712W        W61137  21.973  18.294   1.701
88713W        W61138  26.837  25.181   2.726
88714W        W61139  24.410  30.043   1.573
88715W        W61140  19.713   8.684   3.657
88716W        W61141   2.891  34.975   2.011
88717W        W61142  15.725  31.447  10.091
88718W        W61143   9.689  11.102   0.982
88719W        W61144  42.610  15.176  14.474
88720W        W61145  23.058  13.286  11.160
88721W        W61146  23.471   3.382   2.598
88722W        W61147  43.890  15.841  10.683
88723W        W61148   0.739  17.049   3.165
88724W        W61149  26.991  16.109  14.605
88725W        W61150  24.710  38.947  10.848
88726W        W61151  40.956  44.629  10.053
88727W        W61152  38.299  21.187  13.420
88728W        W61153  33.502  27.767   2.550
88729W        W61154  43.807   4.603   0.915
88730W        W61155  16.714  18.291  13.610
88731W        W61156  12.237   5.467  13.816
88732W        W61157  13.521   4.306  11.156
88733W        W61158  30.140  32.513  11.162
88734W        W61159   0.537  30.377   5.029
88735W        W61160  11.111  44.047  12.514
88736W        W61161  17.177   9.360   3.951
88737W        W61162   2.063  40.916   0.411
88738W        W61163  15.872  13.854   0.878
88739W        W61164   4.349  26.390   4.413
88740W        W61165  16.293  43.148  11.193
88741W        W61166  30.199  24.873  12.710
88742W        W61167  27.177   9.880  13.894
88743W        W61168  39.153  34.042  10.749
88744W        W61169   9.355   2.532  14.957
88745W        W61170  41.564  41.954   3.584
88746W        W61171  40.847  31.353   2.351
88747W        W61172  13.107  22.151   0.407
88748W        W61173  39.975  13.212  13.062
88749W        W61174  25.196  20.077   2.815
88750W        W61175  25.208  33.356  12.416
88751W        W61176  37.472   8.789  11.066
88752W        W61177  43.725  40.552   4.063
88753W        W61178  41.001  42.018  10.763
88754W        W61179   1.260  39.765   2.230
88755W        W61180  44.893  37.369  11.673
88756W        W61181  33.058  30.406  13.775
88757W        W61182  10.428  40.070   1.355
88758W        W61183  22.620  19.270   1.282
88759W        W61184  22.160  44.389   3.644
88760W        W61185  33.189  11.658   1.690
88761W        W61186  16.641  39.105  10.445
88762W        W61187  27.470  44.980   0.790
88763W        W61188  25.651   6.467  13.037
88764W        W61189  36.760  10.890  11.257
88765W        W61190  17.045  41.438   0.724
88766W        W61191  20.243  41.004   1.125
88767W        W61192  13.550  25.308  13.019
88768W        W61193   7.568  12.849  11.179
88769W        W61194  44.975  13.264  11.528
88770W        W61195   6.833  11.229   3.090
88771W        W61196  40.434  27.690  12.112
88772W        W61197   9.985   5.928   4.975
88773W        W61198  23.475  20.691  11.347
88774W        W61199  20.027  32.043   0.685
88775W        W61200  10.309  11.932   2.591
88776W        W61201  40.896  34.442  11.914
88777W        W61202   0.452  26.053  12.571
88778W        W61203  37.864  15.392  13.995
88779W        W61204  35.837  29.082   3.110
88780W        W61205   5.406  26.213  14.962
88781W        W61206  37.280  41.950  12.909
88782W        W61207  44.945   5.978  11.346
88783W        W61208   6.917  27.221   0.891
88784W        W61209  10.761  20.686   2.398
88785W        W61210   7.956  23.854   4.278
88786W        W61211  39.826  28.446  10.676
88787W        W61212  10.851   1.313   1.732
88788W        W61213  18.687  29.829  12.054
88789W        W61214  37.954   8.661  11.508
88790W        W61215   8.997   7.464   4.348
88791W        W61216  38.482  43.368  12.759
88792W        W61217  15.195  22.398   0.364
88793W        W61218  26.146  34.921  13.911
88794W        W61219  10.907   1.709  13.152
88795W        W61220  19.587  13.693  14.527
88796W        W61221   8.387  22.019  11.120
88797W        W61222  24.227  26.510   2.416
88798W        W61223  43.374   5.145   0.314
88799W        W61224  25.957  33.339   0.327
88800W        W61225  23.087   0.759  14.977
88801W        W61226  10.921  15.202  14.279
88802W        W61227  18.630   8.695  13.769
88803W        W61228  33.896  11.974  12.479
88804W        W61229  44.804  44.384  14.060
88805W        W61230  34.067  36.087   0.271
88806W        W61231   3.695  37.138   2.441
88807W        W61232   7.208   7.325   1.440
88808W        W61233   6.719  15.211  13.335
88809W        W61234   9.277  38.616  14.478
88810W        W61235  27.854  22.442   2.394
88811W        W61236  32.013  35.397  11.973
88812W        W61237   7.812  30.191   4.382
88813W        W61238  35.855  34.625   0.376
88814W        W61239  18.651  33.999  14.420
88815W        W61240  20.524  12.626  14.943
88816W        W61241  22.296  21.177   3.690
88817W        W61242  38.085  41.237  13.497
88818W        W61243   0.551  44.802  13.491
88819W        W61244  44.498   8.773  12.659
88820W        W61245  32.330  38.022   1.260
88821W        W61246  42.036  44.239  13.871
88822W        W61247  24.560  18.860   3.768
88823W        W61248  37.422  36.073  12.815
88824W        W61249  25.294   9.287   1.447
88825W        W61250   5.165  16.767   2.185
88826W        W61251  22.751  24.600  13.346
88827W        W61252  37.990   5.719   0.252
88828W        W61253  10.156  29.157  14.930
88829W        W61254  12.097  37.435  12.492
88830W        W61255   0.828  14.304  14.709
88831W        W61256  25.716  20.019   1.283
88832W        W61257  15.190  36.329  14.943
88833W        W61258  30.118  14.898   2.258
88834W        W61259   6.258  41.343   2.137
88835W        W61260   2.143  36.623  13.410
88836W        W61261  23.502  36.526  13.215
88837W        W61262  15.453   7.147   4.318
88838W        W61263  35.280  22.618   4.835
88839W        W61264  43.420  16.303   3.290
88840W        W61265  27.586  34.962   4.370
88841W        W61266  11.189  36.335   3.979
88842W        W61267   1.064   2.803  11.864
88843W        W61268   3.532  27.480   4.235
88844W        W61269  11.179  15.998  12.566
88845W        W61270   3.480  24.063   3.244
88846W        W61271  18.863  31.914  12.286
88847W        W61272  37.278   0.135  11.618
88848W        W61273   8.933  27.091  14.855
88849W        W61274  35.370  35.338   1.802
88850W        W61275  38.956   2.360  14.503
88851W        W61276  44.254   0.955  11.657
88852W        W61277  25.209  39.518  13.363
88853W        W61278  32.166  38.170  13.381
88854W        W61279   4.355  35.590   1.058
88855W        W61280  43.536  20.526  10.617
88856W        W61281  42.759  22.981  14.907
88857W        W61282  29.094  29.201  12.973
88858W        W61283  10.653  25.719  12.058
88859W        W61284   2.826  12.211   2.598
88860W        W61285  43.238  12.267  14.463
88861W        W61286  38.454   6.470  11.169
88862W        W61287  12.600   4.838   4.772
88863W        W61288  34.592  34.366   1.690
88864W        W61289  36.108   4.297  10.926
88865W        W61290   7.666  32.430  11.321
88866W        W61291  39.173  36.913  13.391
88867W        W61292   4.698  38.719   3.217
88868W        W61293  31.114  39.478   3.698
88869W        W61294  27.997   4.749  12.204
88870W        W61295  27.068  40.827  13.706
88871W        W61296  12.074   3.185  12.351
88872W        W61297  43.405  44.914   4.791
88873W        W61298  38.629  28.686   1.434
88874W        W61299   1.941   4.692  13.007
88875W        W61300  20.147  13.343   0.206
88876W        W61301  37.187   8.652   3.850
88877W        W61302  40.660  26.043   0.404
88878W        W61303  41.072  22.543   1.022
88879W        W61304  25.563  43.399  10.907
88880W        W61305  26.423   0.244   4.359
88881W        W61306   4.868   7.667  10.942
88882W        W61307  17.298  27.643   0.246
88883W        W61308  41.777  38.997   4.199
88884W        W61309  35.143  23.610   1.370
88885W        W61310  26.961  26.007  14.122
88886W        W61311  37.342   3.444  13.498
88887W        W61312  41.413  33.597  12.095
88888W        W61313  13.216  16.059   4.727
88889W        W61314  18.725  13.246  11.693
88890W        W61315  38.010   4.755  14.924
88891W        W61316   0.005  38.042  11.161
88892W        W61317  16.892  22.721  14.769
88893W        W61318  21.538   6.311   0.830
88894W        W61319   2.525   1.074   1.045
88895W        W61320  29.923  14.501   2.615
88896W        W61321  42.994   5.268  12.955
88897W        W61322   7.980  29.557  11.200
88898W        W61323  40.795  39.648  14.562
88899W        W61324   2.464  21.530  14.190
88900W        W61325  17.195  10.161   1.386
88901W        W61326   7.323  22.206  14.335
88902W        W61327  32.891  38.413   1.976
88903W        W61328  10.746   3.498   0.970
88904W        W61329  15.554  31.427   2.483
88905W        W61330  30.361  33.571   4.257
88906W        W61331  42.211  17.182  13.346
88907W        W61332  32.616  27.572  10.486
88908W        W61333  42.288  26.891   3.655
88909W        W61334  20.352  15.295  14.305
88910W        W61335  17.816   8.107   2.268
88911W        W61336  22.825  32.163  11.490
88912W        W61337   1.927  31.432  13.830
88913W        W61338  12.336  42.283   3.612
88914W        W61339   1.878   9.417   1.865
88915W        W61340  25.067  20.123  14.535
88916W        W61341  25.476   5.383   0.101
88917W        W61342  10.740  33.424  12.140
88918W        W61343   9.799   2.456  13.746
88919W        W61344  14.134  12.796  13.471
88920W        W61345   1.717   5.682   2.763
88921W        W61346  35.253  31.903   2.586
88922W        W61347  11.182  13.493   4.866
88923W        W61348  31.632  18.627  11.433
88924W        W61349  10.816  16.590   0.888
88925W        W61350   1.795  40.650  11.864
88926W        W61351   3.838  31.263   4.173
88927W        W61352  11.190  12.734  13.171
88928W        W61353  27.185   2.366   2.172
88929W        W61354  39.433  11.950  14.777
88930W        W61355  44.936  43.396   3.185
88931W        W61356  21.774  22.597  11.066
88932W        W61357  31.218  29.943   0.886
88933W        W61358  43.093   8.004   2.697
88934W        W61359   9.435  28.582  12.628
88935W        W61360  27.095  15.053   3.317
88936W        W61361  33.037   4.990  11.413
88937W        W61362  27.569   4.699  12.843
88938W        W61363  12.590  23.983   2.805
88939W        W61364  15.541   7.266  12.977
88940W        W61365  15.197  12.367   1.740
88941W        W61366  39.064   2.355   3.729
88942W        W61367   9.144   8.991   9.744
88943W        W61368  22.712   3.365  14.826
88944W        W61369  20.223  28.433   2.794
88945W        W61370  26.050   4.211   1.963
88946W        W61371   8.220  18.174   4.639
88947W        W61372  10.683   8.383  12.918
88948W        W61373  29.089  39.352   1.796
88949W        W61374  36.316  21.624   0.508
88950W        W61375   1.470  40.743  14.888
88951W        W61376   4.919  23.792  11.553
88952W        W61377  31.938  12.777   4.310
88953W        W61378   2.817   9.811   1.633
88954W        W61379   5.061  34.559   1.833
88955W        W61380  43.305  44.394  13.015
88956W        W61381  15.863  22.851  10.034
88957W        W61382  13.450  13.569  13.755
88958W        W61383  35.287  39.852  14.461
88959W        W61384  42.861   7.465  12.824
88960W        W61385  19.260  44.856   1.012
88961W        W61386  16.771  44.792   2.259
88962W        W61387  18.027  27.507   2.325
88963W        W61388  28.167  36.579   0.201
88964W        W61389  38.984  36.404  11.651
88965W        W61390  10.205   0.171   0.416
88966W        W61391  31.556  23.252  11.889
88967W        W61392   3.181  41.010   3.486
88968W        W61393  23.042   7.626   5.451
88969W        W61394  44.827  38.323   3.862
88970W        W61395  20.992  26.967  13.545
88971W        W61396  18.060   0.231  11.745
88972W        W61397  30.358  43.007  12.201
88973W        W61398   7.276   8.681  10.549
88974W        W61399  31.538  40.601   3.303
88975W        W61400  11.785  11.264  11.216
88976W        W61401  22.579  15.833   1.254
88977W        W61402  25.672   0.912   1.822
88978W        W61403  36.313   8.362  14.003
88979W        W61404   3.392   9.378   3.656
88980W        W61405   8.165  19.121   4.620
88981W        W61406   6.837  20.266   4.687
88982W        W61407  40.359  25.679  13.924
88983W        W61408  14.292  16.259   4.528
88984W        W61409  11.091  20.122   4.602
88985W        W61410  24.601  34.341  14.542
88986W        W61411  33.290  18.583   1.476
88987W        W61412  15.365  33.193  10.424
88988W        W61413  35.591  31.149  12.461
88989W        W61414  16.130   7.736   1.782
88990W        W61415  33.845  31.197  12.980
88991W        W61416  16.052  27.089  12.603
88992W        W61417  37.392  19.181  11.170
88993W        W61418   2.811  10.068  14.354
88994W        W61419   7.972  33.901   0.625
88995W        W61420  16.550   6.724   0.760
88996W        W61421  37.965   6.179  12.172
88997W        W61422  15.270  24.113   3.704
88998W        W61423  25.243   3.100   3.862
88999W        W61424  40.369  32.180  12.015
89000W        W61425  32.657  37.343  14.336
89001W        W61426  12.630   2.747  11.877
89002W        W61427  17.042  35.072   2.810
89003W        W61428  13.774  30.888  11.135
89004W        W61429  10.578  21.092   4.187
89005W        W61430   3.975  18.672   3.385
89006W        W61431  32.369  15.679  11.510
89007W        W61432  21.285  13.333  11.496
89008W        W61433   2.285  17.984   3.830
89009W        W61434  36.583   5.260  13.559
89010W        W61435  20.625  18.721   0.977
89011W        W61436  44.453   7.112  12.922
89012W        W61437  24.132  32.423  13.553
89013W        W61438   9.383   3.191  11.945
89014W        W61439   7.322   8.587  12.406
89015W        W61440   4.427  16.198   0.915
89016W        W61441  37.884  42.799   1.838
89017W        W61442  40.230   3.451   5.082
89018W        W61443  36.935  32.755   2.787
89019W        W61444  38.394  23.095   4.215
89020W        W61445  42.044  16.750   1.373
89021W        W61446  31.006   6.251   2.280
89022W        W61447  29.738  37.821  13.506
89023W        W61448  18.128  32.676  13.456
89024W        W61449  26.460  14.647   2.826
89025W        W61450  15.840  25.179  12.866
89026W        W61451  14.647  28.014  10.742
89027W        W61452   7.263  30.049  14.174
89028W        W61453  39.875  19.148   1.514
89029W        W61454  17.301  43.269  12.003
89030W        W61455  16.115  14.237  11.062
89031W        W61456   4.322  27.346   0.885
89032W        W61457   7.007  13.004  11.552
89033W        W61458  29.481  17.349  14.953
89034W        W61459  15.311  27.212  13.860
89035W        W61460  24.912  25.911  10.641
89036W        W61461  39.814  32.089   1.762
89037W        W61462  25.577  19.917   0.784
89038W        W61463  31.186  44.450  14.871
89039W        W61464  13.101  13.752  10.577
89040W        W61465  18.013   0.317   4.169
89041W        W61466  10.940  33.194   2.644
89042W        W61467  35.916   3.176  12.437
89043W        W61468  31.134  14.632   1.332
89044W        W61469   5.907  12.227   3.822
89045W        W61470  28.052  13.612   0.053
89046W        W61471  27.497  42.433   2.826
89047W        W61472  40.303  43.964  11.012
89048W        W61473  41.031  31.121  12.826
89049W        W61474  41.795  31.599   4.623
89050W        W61475  37.469  39.922  10.634
89051W        W61476  13.351  30.437   3.340
89052W        W61477  23.228  20.062  11.249
89053W        W61478  35.460  37.991   4.851
89054W        W61479  22.550  11.307  14.376
89055W        W61480   8.854  36.043  13.252
89056W        W61481   9.268  15.512  13.302
89057W        W61482  26.650  33.346  14.446
89058W        W61483  44.248  27.738  14.529
89059W        W61484  35.138   5.901  11.270
89060W        W61485   1.873  33.976  11.839
89061W        W61486  32.606   3.705  13.108
89062W        W61487   6.941  11.324   4.512
89063W        W61488  38.597   3.021  10.964
89064W        W61489  42.503  19.108   3.189
89065W        W61490  18.397  26.377   0.876
89066W        W61491  30.346   0.725  12.925
89067W        W61492  20.114  39.425  13.338
89068W        W61493  16.504  40.974   5.057
89069W        W61494  20.982  17.779  12.398
89070W        W61495  44.500  40.587  14.831
89071W        W61496  26.943  15.629   4.511
89072W        W61497  27.688  40.426   1.432
89073W        W61498  24.831  36.453  14.779
89074W        W61499  25.632  34.678  14.071
89075W        W61500   9.031   9.153  13.022
89076W        W61501  32.660  27.212  14.869
89077W        W61502  38.397  43.395  11.515
89078W        W61503   8.795  12.122   3.690
89079W        W61504  33.050  18.740  13.604
89080W        W61505   4.867  31.190   4.988
89081W        W61506   6.277  43.006   1.636
89082W        W61507  10.330  31.626   0.463
89083W        W61508  30.007  10.066  10.548
89084W        W61509  34.361   7.898  12.555
89085W        W61510   7.695   2.765  13.008
89086W        W61511  44.240  21.876  12.955
89087W        W61512  11.116  35.706  14.647
89088W        W61513  15.295   8.620   3.227
89089W        W61514  13.849  25.062   2.923
89090W        W61515  34.121  43.500   3.294
89091W        W61516  28.624  26.195  11.869
89092W        W61517  35.313   3.806   0.850
89093W        W61518   3.145  18.152   2.142
89094W        W61519  22.646   0.256   4.681
89095W        W61520   4.346  17.409   0.416
89096W        W61521   5.272  28.244   4.401
89097W        W61522  25.091  13.326  10.734
89098W        W61523   8.052  22.792  12.526
89099W        W61524  18.169   9.245   0.221
89100W        W61525  41.274  25.187  13.049
89101W        W61526   6.595  36.624  11.998
89102W        W61527  24.439  26.079   4.801
89103W        W61528  18.578  21.425   2.136
89104W        W61529  22.446  40.734  11.873
89105W        W61530  31.533  10.844  10.906
89106W        W61531  35.999  10.342   4.623
89107W        W61532  11.447  27.525   1.219
89108W        W61533   3.581  23.217   0.952
89109W        W61534  12.639  30.837   1.834
89110W        W61535  44.357   7.097  13.415
89111W        W61536  42.972  12.361  11.418
89112W        W61537  18.794  36.506  13.019
89113W        W61538  43.316   9.697   2.525
89114W        W61539  35.651  23.845  10.233
89115W        W61540   7.436  21.573  12.163
89116W        W61541  31.227  17.216   2.632
89117W        W61542  22.430  29.620   2.900
89118W        W61543  28.534  22.230  12.904
89119W        W61544  21.016   8.456   3.871
89120W        W61545   5.259   1.400   0.486
89121W        W61546   8.516  22.863   4.960
89122W        W61547   0.420  31.528   3.255
89123W        W61548  26.966  25.553  12.477
89124W        W61549  27.317  37.036   2.212
89125W        W61550  17.747  39.116  12.182
89126W        W61551  34.389   1.310  13.912
89127W        W61552  17.632  18.768   4.509
89128W        W61553   0.419  35.330   1.290
89129W        W61554  12.554  36.711   2.812
89130W        W61555  28.085  39.804  13.543
89131W        W61556  39.426  44.941  11.058
89132W        W61557  39.976  17.284  12.967
89133W        W61558  26.661  25.986  12.427
89134W        W61559  15.311  44.192   4.811
89135W        W61560  29.025   7.589   1.083
89136W        W61561  17.840  24.845  12.536
89137W        W61562  31.235   8.701   5.384
89138W        W61563  17.588  20.676  12.191
89139W        W61564  21.012  19.706  11.708
89140W        W61565  19.327  16.649   3.291
89141W        W61566  14.475  25.217  14.806
89142W        W61567  39.253  14.334   4.723
89143W        W61568   8.958  25.878   4.626
89144W        W61569  25.383  14.874   3.743
89145W        W61570  27.758   8.376   3.250
89146W        W61571  44.271   0.086  13.357
89147W        W61572  11.382  42.146  13.437
89148W        W61573  13.525   7.125  11.185
89149W        W61574  19.707  24.771   1.462
89150W        W61575  15.105  27.863  12.861
89151W        W61576  35.565  22.320   0.818
89152W        W61577  28.646   2.967   4.545
89153W        W61578  21.661  27.249  12.921
89154W        W61579  28.775  20.593   2.846
89155W        W61580  15.395   4.724   3.642
89156W        W61581  34.450  23.139  13.987
89157W        W61582  32.421   2.498  11.428
89158W        W61583  35.583  22.376  11.955
89159W        W61584   9.635  40.924  12.954
89160W        W61585  25.608  21.697   2.294
89161W        W61586  38.432  23.168   4.724
89162W        W61587  29.988  14.766   1.168
89163W        W61588  16.125   4.016  12.052
89164W        W61589  38.394  10.220  12.364
89165W        W61590  13.737  27.555   4.891
89166W        W61591  12.798   2.842  13.046
89167W        W61592  42.900  37.440  10.254
89168W        W61593  36.404  28.508  13.834
89169W        W61594  42.636   8.765  11.003
89170W        W61595  20.235  22.815   0.183
89171W        W61596   0.839   8.724   0.751
89172W        W61597  40.373  18.111   1.309
89173W        W61598  27.481  11.255   0.413
89174W        W61599  32.431  16.100   0.235
89175W        W61600   8.207  16.685  13.427
89176W        W61601   1.463   9.539  13.422
89177W        W61602  31.674  19.655   1.431
89178W        W61603  38.946   7.429   9.907
89179W        W61604   4.973  15.512   2.723
89180W        W61605   2.789  43.647  13.988
89181W        W61606   4.193  34.474   1.451
89182W        W61607  28.687   9.811  10.997
89183W        W61608   9.779  32.630   2.204
89184W        W61609   8.752  15.242  10.983
89185W        W61610  40.771   7.624   3.981
89186W        W61611  29.681  24.989  13.719
89187W        W61612   4.326  21.609   1.316
89188W        W61613  16.821  17.319   0.027
89189W        W61614  21.724  20.564   2.970
89190W        W61615  23.560  37.377  11.860
89191W        W61616  38.852  15.029  14.795
89192W        W61617   5.059  23.611   9.965
89193W        W61618  41.014  10.682  10.619
89194W        W61619   3.990  23.084   1.816
89195W        W61620  32.668  18.210   1.920
89196W        W61621  14.181  10.779   4.303
89197W        W61622  39.006   4.212  14.718
89198W        W61623   4.263   3.399  13.491
89199W        W61624  35.948  22.312   3.781
89200W        W61625  17.540   9.631  10.840
89201W        W61626  43.210   7.674  10.422
89202W        W61627   4.502   5.851   1.865
89203W        W61628  34.182   1.330  14.929
89204W        W61629  33.424  18.541   4.540
89205W        W61630  31.648  18.511  11.946
89206W        W61631  11.001  37.924  11.638
89207W        W61632  10.057  36.602  14.470
89208W        W61633  33.020  16.536   4.263
89209W        W61634  41.967  36.366  14.383
89210W        W61635   8.630  12.637   0.775
89211W        W61636  18.805   6.806   1.383
89212W        W61637   2.906  19.660  13.889
89213W        W61638  14.058  14.792  12.494
89214W        W61639  21.488  38.314   4.504
89215W        W61640  31.223  35.031  14.431
89216W        W61641  21.261  32.057  11.164
89217W        W61642  16.163  30.974  14.368
89218W        W61643  28.450  18.153   1.424
89219W        W61644  19.505  38.930   3.352
89220W        W61645  36.857  34.690   0.122
89221W        W61646   8.758  32.936  14.790
89222W        W61647  34.362  14.135  11.706
89223W        W61648  25.161  23.058   2.544
89224W        W61649  37.814  39.325   3.288
89225W        W61650  23.668   0.247   1.026
89226W        W61651  23.997  28.865  12.989
89227W        W61652  23.134  27.706   3.707
89228W        W61653  38.385  23.073   1.249
89229W        W61654  12.331  43.817   4.668
89230W        W61655  18.086   2.053  13.502
89231W        W61656  44.748  10.885   2.677
89232W        W61657  21.586  20.182  13.367
89233W        W61658  10.690   4.652  14.707
89234W        W61659   0.170  16.506   3.213
89235W        W61660   3.191  11.481   3.228
89236W        W61661  26.866   8.348  11.248
89237W        W61662  17.851   2.897   3.101
89238W        W61663  10.185  28.020   4.079
89239W        W61664  12.485  43.774  13.337
89240W        W61665   1.673   3.984   1.449
89241W        W61666  28.198   0.211   1.790
89242W        W61667  19.904   4.417  10.483
89243W        W61668   5.420  15.723   1.241
89244W        W61669  35.246   3.741   4.902
89245W        W61670  29.214  28.557  12.394
89246W        W61671   3.017  13.595   1.637
89247W        W61672   9.025  26.182   2.131
89248W        W61673  21.039   2.939   1.120
89249W        W61674  21.834  38.374  11.697
89250W        W61675  33.135  22.943  14.019
89251W        W61676  30.633  41.380  13.276
89252W        W61677  13.423  24.125   0.795
89253W        W61678   4.265   5.522  10.530
89254W        W61679  12.028  31.664   2.286
89255W        W61680  33.983  44.012   0.057
89256W        W61681  11.192   6.729   4.652
89257W        W61682   0.150  35.989  11.535
89258W        W61683  19.774  38.000   3.832
89259W        W61684  30.571  12.766   2.261
89260W        W61685  33.664   3.300   2.299
89261W        W61686  40.180  11.183  14.255
89262W        W61687   6.321  41.418  11.849
89263W        W61688  29.167  16.559   0.002
89264W        W61689  36.988  13.778   1.721
89265W        W61690   3.914  26.027   4.365
89266W        W61691   6.093  15.313  14.529
89267W        W61692   7.445   6.163  13.368
89268W        W61693  13.327  26.622   3.228
89269W        W61694  10.221  32.918  14.690
89270W        W61695  11.148   5.424   0.764
89271W        W61696   5.575  34.155   2.750
89272W        W61697  39.565  19.674  12.477
89273W        W61698   9.848  15.505  11.561
89274W        W61699  27.821  29.492   3.224
89275W        W61700  21.522   6.477  14.824
89276W        W61701  41.451  18.183  10.575
89277W        W61702  32.128  26.168  13.078
89278W        W61703  11.630  20.257  14.033
89279W        W61704   5.709   9.700   0.256
89280W        W61705  39.400  29.490  12.069
89281W        W61706   1.455  37.068  13.868
89282W        W61707  44.551  21.664  12.471
89283W        W61708  38.958  34.480  13.504
89284W        W61709  36.602  17.186   3.574
89285W        W61710  10.907  35.528   0.411
89286W        W61711  38.763  43.940  10.353
89287W        W61712  25.168  10.347   2.287
89288W        W61713  31.704  31.496   1.437
89289W        W61714  44.057  12.330   4.129
89290W        W61715  41.968  14.014  13.912
89291W        W61716  15.038  39.468  11.951
89292W        W61717  43.588  40.829   2.644
89293W        W61718  41.366  44.358  11.971
89294W        W61719  16.021   4.938   1.723
89295W        W61720  40.599  38.279   1.059
89296W        W61721   9.114  20.743   0.865
89297W        W61722  24.513  28.229   0.757
89298W        W61723   7.368  35.921   2.401
89299W        W61724  38.655  12.100  14.075
89300W        W61725  17.568  24.157  12.075
89301W        W61726  39.900  44.945   3.299
89302W        W61727   2.994  28.123   2.807
89303W        W61728  26.176  35.858  12.656
89304W        W61729  19.565  17.270  10.670
89305W        W61730  44.377  36.359  11.683
89306W        W61731  13.191  23.687   3.890
89307W        W61732  16.588  28.714   2.704
89308W        W61733  44.759   7.083   0.363
89309W        W61734  14.791  27.930   3.538
89310W        W61735  18.341  12.898   4.250
89311W        W61736  21.301  41.976  11.161
89312W        W61737  11.742   5.814  14.461
89313W        W61738   2.065  41.074   1.682
89314W        W61739  29.081  20.165  13.798
89315W        W61740   5.688  16.115  14.084
89316W        W61741  19.058  22.451   3.271
89317W        W61742  23.249  39.033  11.111
89318W        W61743  25.006  43.480  12.342
89319W        W61744  27.452  24.436   3.582
89320W        W61745  12.085  44.152   5.014
89321W        W61746   4.312  37.069  14.157
89322W        W61747  14.254   3.438  10.349
89323W        W61748  42.066   0.668   1.819
89324W        W61749   6.441  24.781   4.095
89325W        W61750  24.695  38.310  13.363
89326W        W61751   2.532  12.533  13.398
89327W        W61752  41.478  30.302   1.397
89328W        W61753  39.488  41.628   4.875
89329W        W61754   4.417  38.035   1.708
89330W        W61755   3.911  21.231   4.784
89331W        W61756  27.085   7.428  11.036
89332W        W61757  33.964   4.386   0.698
89333W        W61758  12.438   5.734   2.025
89334W        W61759   1.927  38.577   1.967
89335W        W61760   0.393   1.862   4.553
89336W        W61761  30.547  43.058   2.549
89337W        W61762  10.726  30.648   2.346
89338W        W61763  29.612  43.386  10.598
89339W        W61764  18.593   2.597   0.730
89340W        W61765   4.286  23.764  13.916
89341W        W61766  40.276  12.295  12.267
89342W        W61767  38.879  34.531  11.415
89343W        W61768  41.367  22.521  12.475
89344W        W61769  35.153  18.153  12.086
89345W        W61770  30.022   6.500  14.439
89346W        W61771  17.736  10.107  10.649
89347W        W61772  23.991  11.814  12.982
89348W        W61773  43.709  31.031  12.925
89349W        W61774  16.762  22.423   4.554
89350W        W61775  42.681  27.459   2.372
89351W        W61776  23.098  24.673   2.337
89352W        W61777  29.759  38.734   0.271
89353W        W61778  37.327  37.737   2.619
89354W        W61779  10.213   8.730   3.356
89355W        W61780  27.930  19.693   0.316
89356W        W61781  17.347  30.991   3.654
89357W        W61782  28.521  24.260  11.587
89358W        W61783   4.064  21.947   0.998
89359W        W61784   2.642  20.521   0.785
89360W        W61785  35.568  18.868  12.995
89361W        W61786  21.178  32.617  12.918
89362W        W61787  36.368  43.824   3.075
89363W        W61788  36.874  44.535   3.706
89364W        W61789  13.080  34.948   4.531
89365W        W61790  32.983  28.824   3.777
89366W        W61791   2.529   9.243   3.796
89367W        W61792  42.061  20.143  11.931
89368W        W61793  17.811  10.640  11.748
89369W        W61794   5.357  15.543  12.877
89370W        W61795  41.974  41.343   0.863
89371W        W61796  28.023  14.883   1.781
89372W        W61797  13.276   4.812   3.014
89373W        W61798  40.177  21.162  14.227
89374W        W61799  28.613  22.573   2.818
89375W        W61800  30.061  24.598  13.278
89376W        W61801  23.971   9.022   1.668
89377W        W61802  36.101  25.156  11.971
89378W        W61803  22.536  12.732   2.376
89379W        W61804  34.745  33.623  10.349
89380W        W61805   4.926  27.731  14.905
89381W        W61806  18.319  43.462  14.004
89382W        W61807  19.177  41.006  12.800
89383W        W61808   2.503  41.976   1.399
89384W        W61809  29.429   2.457   0.704
89385W        W61810  32.728  26.945  12.480
89386W        W61811   7.205  10.444   4.696
89387W        W61812  16.665  25.111   4.597
89388W        W61813  21.205   9.769   1.448
89389W        W61814  23.549  28.866   4.184
89390W        W61815  18.131  42.420   1.992
89391W        W61816  25.417  43.734   1.324
89392W        W61817   8.467  37.625  11.801
89393W        W61818  30.588  31.091  12.640
89394W        W61819  41.498  10.615   1.015
89395W        W61820  11.261  34.843  14.231
89396W        W61821   9.307  40.183  10.362
89397W        W61822  22.196  15.455   3.291
89398W        W61823  40.772  23.445   4.154
89399W        W61824  16.788   7.276  11.473
89400W        W61825   6.384  35.069   2.996
89401W        W61826   0.969  37.649   1.371
89402W        W61827  24.764   1.424  12.517
89403W        W61828  18.185  33.474   2.584
89404W        W61829  40.998  38.254   3.634
89405W        W61830  27.097  33.364   2.598
89406W        W61831  30.487  27.919   1.336
89407W        W61832  18.581  19.103  13.028
89408W        W61833  28.574   5.717  10.783
89409W        W61834  19.197   4.696  13.987
89410W        W61835  10.257  17.240   2.184
89411W        W61836  32.321   0.038  11.409
89412W        W61837   9.543   8.299   3.337
89413W        W61838   3.817  11.726  12.601
89414W        W61839  32.636  30.478   3.206
89415W        W61840  27.001  36.898  12.604
89416W        W61841  30.462  18.635   3.096
89417W        W61842  31.994   8.882  10.016
89418W        W61843  37.889  28.540   1.767
89419W        W61844  24.624  32.075  10.723
89420W        W61845  40.012  20.586   3.692
89421W        W61846  39.339  34.640  12.141
89422W        W61847  16.457  40.299   1.350
89423W        W61848  37.938  44.236  10.748
89424W        W61849  42.336  33.969  12.432
89425W        W61850  21.832  24.448  12.814
89426W        W61851   6.700   7.211   0.278
89427W        W61852  26.961   4.752   2.259
89428W        W61853   5.077  25.038  13.547
89429W        W61854  38.594  25.920   4.213
89430W        W61855  13.633  32.539  13.880
89431W        W61856  27.208  39.711   2.725
89432W        W61857  31.198  11.238   4.594
89433W        W61858  28.090   2.746   0.567
89434W        W61859  15.886  40.305   1.226
89435W        W61860  38.428  33.322  11.193
89436W        W61861   4.987   1.203  13.326
89437W        W61862  15.519  10.698   4.646
89438W        W61863  43.212  22.504  10.088
89439W        W61864  15.255  39.070   0.943
89440W        W61865  27.550   4.768   0.906
89441W        W61866  28.647   1.286  11.568
89442W        W61867  14.595  39.495  13.518
89443W        W61868  22.517  32.540   3.755
89444W        W61869  27.968  32.576   9.798
89445W        W61870  40.800  23.801  12.482
89446W        W61871  41.438  35.800   3.031
89447W        W61872   4.789  27.640   0.943
89448W        W61873   2.343  15.582   4.249
89449W        W61874   1.356  27.749  11.379
89450W        W61875  30.013  33.972   3.348
89451W        W61876  23.034  35.649  12.567
89452W        W61877  25.989  20.322  10.692
89453W        W61878  44.849   5.437  13.428
89454W        W61879  35.774  25.649   9.569
89455W        W61880  11.273  30.219   4.447
89456W        W61881  24.405  34.070   3.179
89457W        W61882  34.847  18.266   2.616
89458W        W61883  42.676   3.704  13.545
89459W        W61884  32.404  40.585  12.326
89460W        W61885   5.018  31.238  11.054
89461W        W61886  30.210  39.577  11.647
89462W        W61887  35.515  13.404   2.738
89463W        W61888  31.482  40.818  11.042
89464W        W61889  14.521  41.335   4.521
89465W        W61890  13.635   0.031   0.750
89466W        W61891  26.878  23.715   0.901
89467W        W61892  29.232   1.172  14.498
89468W        W61893  32.943  22.126  10.606
89469W        W61894  23.196  10.827  14.821
89470W        W61895  39.413  33.071   3.883
89471W        W61896   8.940  33.473   2.794
89472W        W61897  38.958  18.981   3.423
89473W        W61898   3.111  36.130  14.027
89474W        W61899  29.012  35.977  10.823
89475W        W61900  33.880  31.091  12.091
89476W        W61901  39.468  24.755  12.961
89477W        W61902  14.114  15.381  13.026
89478W        W61903  31.739  23.622   3.670
89479W        W61904   9.829  20.592   3.259
89480W        W61905  32.427  32.068  10.197
89481W        W61906  38.805  19.304  12.477
89482W        W61907  26.532  14.248  12.153
89483W        W61908  32.643   0.999   1.341
89484W        W61909   8.162  15.011   4.069
89485W        W61910   6.959  36.558  11.620
89486W        W61911  33.722   9.883  13.407
89487W        W61912  34.837  13.471   3.311
89488W        W61913  35.938  23.048   3.292
89489W        W61914   6.318   6.777   2.985
89490W        W61915  39.000  35.570   2.206
89491W        W61916  31.785  14.624  10.998
89492W        W61917  13.099  24.930   1.281
89493W        W61918  30.767  23.635  14.622
89494W        W61919   5.280  22.527  11.257
89495W        W61920  41.447  21.952  14.577
89496W        W61921  13.184  11.665  13.025
89497W        W61922  24.422  43.235   3.338
89498W        W61923  34.854   3.387  11.260
89499W        W61924  13.317  41.752   2.894
89500W        W61925  32.830  29.981  14.823
89501W        W61926  31.434  38.983   4.589
89502W        W61927  14.638  27.112  10.895
89503W        W61928   8.289  34.660   3.534
89504W        W61929  37.377  28.908   4.179
89505W        W61930  16.702  25.599  10.673
89506W        W61931  18.038   6.278  13.902
89507W        W61932  39.748  19.307  11.740
89508W        W61933  33.998  14.461  12.415
89509W        W61934  19.801  18.685  13.951
89510W        W61935  22.802  33.556  11.454
89511W        W61936  13.697  16.674  13.950
89512W        W61937  13.281  17.696  11.049
89513W        W61938  13.239   2.990   1.332
89514W        W61939  43.681  14.272  11.599
89515W        W61940   4.235  36.275   1.426
89516W        W61941  38.548  34.490  14.306
89517W        W61942   2.256  42.483  12.827
89518W        W61943  22.445  42.177  12.827
89519W        W61944  16.014  10.217   2.153
89520W        W61945  16.304  14.708   1.794
89521W        W61946  37.550  11.724  13.259
89522W        W61947  11.166  35.006   1.438
89523W        W61948  17.106  10.635   2.710
89524W        W61949  40.098  31.034  13.760
89525W        W61950  32.851  40.912  14.538
89526W        W61951  28.919  25.164   2.219
89527W        W61952  44.938  44.666   1.975
89528W        W61953  36.334  27.927   1.290
89529W        W61954  14.689  22.091   0.252
89530W        W61955  13.021  34.363  11.093
89531W        W61956  13.134  13.269   0.857
89532W        W61957  13.860  28.186   3.804
89533W        W61958  28.097  26.993   1.840
89534W        W61959  44.734  41.418  12.030
89535W        W61960  26.112  26.621   0.446
89536W        W61961   2.283  26.337  10.126
89537W        W61962  44.945  39.607   4.315
89538W        W61963  36.103   5.205   3.292
89539W        W61964  30.447  20.332  14.929
89540W        W61965   4.801  31.612  13.978
89541W        W61966   0.446  14.225   3.591
89542W        W61967   1.898  43.360  11.630
89543W        W61968  15.315  15.764  13.056
89544W        W61969  22.685  19.242   1.814
89545W        W61970  28.095  24.064  13.127
89546W        W61971  15.638  25.036  13.907
89547W        W61972  17.695  22.253   3.351
89548W        W61973  36.995  39.464  13.003
89549W        W61974  19.506  37.480  11.002
89550W        W61975  24.976  16.284  12.557
89551W        W61976  24.798   7.891  14.504
89552W        W61977   2.658   4.215   3.119
89553W        W61978  18.998  10.252   2.967
89554W        W61979  44.435  16.994  10.996
89555W        W61980  42.332  13.743  12.344
89556W        W61981  39.039  32.022   2.408
89557W        W61982  44.909   8.970   1.199
89558W        W61983  25.062  35.456   4.871
89559W        W61984  11.237  14.382  11.879
89560W        W61985  23.491  43.307   4.505
89561W        W61986  40.049  44.756   4.689
89562W        W61987  32.644  12.627  12.496
89563W        W61988  25.544   8.269   3.393
89564W        W61989  42.445   4.812  12.453
89565W        W61990  11.234  41.598   2.016
89566W        W61991  32.049   6.887   0.673
89567W        W61992   0.414   1.480  14.559
89568W        W61993  17.962  10.276   4.730
89569W        W61994  34.837  32.997   0.780
89570W        W61995   6.440  11.878   5.062
89571W        W61996  24.708  11.140  13.833
89572W        W61997  40.479  22.666  13.328
89573W        W61998  17.270   7.859  11.990
89574W        W61999  31.873  29.806   5.220
89575W        W62000  43.588  39.675   3.758
89576W        W62001   2.544  10.790  13.899
89577W        W62002  15.165  34.076  11.919
89578W        W62003  42.456  18.591  14.424
89579W        W62004  28.741  39.320  13.220
89580W        W62005   1.344  34.146   1.848
89581W        W62006  14.843   8.574   0.902
89582W        W62007  41.712  33.210   3.955
89583W        W62008  19.124   0.491   1.839
89584W        W62009  14.489   1.947   0.910
89585W        W62010   0.896  37.546   9.891
89586W        W62011  28.598  19.248  13.392
89587W        W62012  20.487  34.504   4.084
89588W        W62013  17.359  20.510   0.353
89589W        W62014   9.415  26.508   3.375
89590W        W62015  28.973   8.872  12.961
89591W        W62016  31.202   1.210   4.595
89592W        W62017   1.450  22.819  11.979
89593W        W62018  44.580   1.365   2.060
89594W        W62019   5.938   7.890  14.390
89595W        W62020   3.952  23.706  13.154
89596W        W62021  18.353  29.289  10.721
89597W        W62022  10.107  11.414   0.818
89598W        W62023  16.748  33.991  10.551
89599W        W62024  35.857  25.989  13.557
89600W        W62025  42.330  40.501  14.816
89601W        W62026   0.302  43.686   0.180
89602W        W62027   3.681  31.711  13.845
89603W        W62028  28.665  39.812   2.674
89604W        W62029  31.583  29.344  12.540
89605W        W62030  27.083  29.943   4.003
89606W        W62031  42.059  36.022  12.992
89607W        W62032  12.597  23.781   2.266
89608W        W62033  16.065  28.218   3.278
89609W        W62034  35.776  13.500   3.435
89610W        W62035  29.120  12.003   3.350
89611W        W62036  23.062  33.696  10.255
89612W        W62037  18.806  28.906  12.126
89613W        W62038  25.647   5.719   0.936
89614W        W62039  37.322  27.467  12.006
89615W        W62040  13.891  16.327   0.423
89616W        W62041  16.991   7.872  10.704
89617W        W62042   4.675  29.939  13.040
89618W        W62043  35.337   3.649   1.838
89619W        W62044  26.136  36.887   1.904
89620W        W62045   1.290  27.636   3.674
89621W        W62046  15.772  14.159  13.127
89622W        W62047  44.848   4.866  11.097
89623W        W62048   7.148  38.613   2.695
89624W        W62049  29.986  15.180  12.009
89625W        W62050  43.058  11.188   0.737
89626W        W62051  12.353  20.591  11.514
89627W        W62052  32.841  18.144  13.415
89628W        W62053  20.490  32.350   4.182
89629W        W62054   1.325  26.257  13.279
89630W        W62055  42.485  33.188   3.265
89631W        W62056  39.974  24.340  11.641
89632W        W62057  40.557  18.415  11.958
89633W        W62058  38.798   8.194  11.931
89634W        W62059   6.778  15.302  13.922
89635W        W62060   0.854  41.717   4.782
89636W        W62061  31.309  22.738   3.546
89637W        W62062  11.869   9.775   1.655
89638W        W62063  27.805  36.985   2.358
89639W        W62064   0.867  35.145   3.548
89640W        W62065  41.681  42.177   4.668
89641W        W62066  33.671  43.055   2.631
89642W        W62067  26.572  15.324  11.219
89643W        W62068   2.741  44.845  10.674
89644W        W62069  19.195  12.228   3.372
89645W        W62070  14.617  13.171   3.879
89646W        W62071  11.694  42.056  11.206
89647W        W62072  21.687  11.018  13.861
89648W        W62073   6.179   5.689   2.856
89649W        W62074  19.586  17.352   2.940
89650W        W62075  26.616   5.024   3.997
89651W        W62076  17.215  41.585  13.386
89652W        W62077   9.612  43.682  13.769
89653W        W62078  14.778   4.208  12.190
89654W        W62079  12.030  11.623   0.493
89655W        W62080  35.687   5.365   1.458
89656W        W62081  30.355  26.679   0.323
89657W        W62082  24.407   8.710  14.527
89658W        W62083  15.825  33.111   1.344
89659W        W62084  31.130  38.245  10.628
89660W        W62085   5.165  30.632   4.170
89661W        W62086  42.144  12.513  14.447
89662W        W62087   2.971  11.782  14.352
89663W        W62088  11.995  37.468  13.402
89664W        W62089  18.730  42.325   3.743
89665W        W62090  34.617   7.616  11.016
89666W        W62091  44.634  29.724   1.296
89667W        W62092   6.508   4.942   1.712
89668W        W62093  24.568   4.189   3.125
89669W        W62094   0.943  19.256   3.620
89670W        W62095  23.944   0.329  10.575
89671W        W62096  10.101  29.464  10.251
89672W        W62097   8.705  23.781  10.964
89673W        W62098  29.603   6.241   3.595
89674W        W62099  12.224  16.179  11.832
89675W        W62100  14.776  38.609  13.290
89676W        W62101   2.280  14.257  14.045
89677W        W62102  37.387   0.731   0.148
89678W        W62103  10.168   0.446   2.842
89679W        W62104  24.085  28.155   3.828
89680W        W62105  36.549  42.829  12.558
89681W        W62106  22.603  10.384   3.277
89682W        W62107  14.242  43.474  10.705
89683W        W62108  12.588  30.235   3.792
89684W        W62109  25.333   3.776  12.103
89685W        W62110   8.942   5.351  14.385
89686W        W62111   0.385  33.486  14.478
89687W        W62112  17.595  23.092   2.749
89688W        W62113   6.931   5.624   0.705
89689W        W62114   5.655  40.995  13.446
89690W        W62115  19.666  17.596  12.513
89691W        W62116  29.794  22.278  12.609
89692W        W62117  24.280  11.801   3.830
89693W        W62118  15.859  26.531   1.150
89694W        W62119  18.716   3.611  14.918
89695W        W62120   0.165  21.085   3.266
89696W        W62121  18.640   1.767   1.845
89697W        W62122   1.020  36.324  13.857
89698W        W62123  43.073   4.308  12.091
89699W        W62124  24.886  19.777   0.228
89700W        W62125  27.440   9.780  12.134
89701W        W62126   0.760  23.527  14.356
89702W        W62127   6.675  27.741  12.128
89703W        W62128   2.287  32.823  12.104
89704W        W62129   4.863  25.037  10.965
89705W        W62130  40.054  21.969  13.398
89706W        W62131  11.858  32.145   2.347
89707W        W62132  33.926  15.816   4.746
89708W        W62133  12.838  30.181   2.422
89709W        W62134  15.246  37.005   3.359
89710W        W62135   5.145  44.426  12.873
89711W        W62136   2.771  10.140   2.261
89712W        W62137  28.873  40.480  10.967
89713W        W62138   9.257  19.048  12.416
89714W        W62139  40.155  10.071   2.288
89715W        W62140   0.718  15.151   3.218
89716W        W62141  43.787  21.066   0.259
89717W        W62142  12.573  18.663   3.893
89718W        W62143   8.663  39.296   2.352
89719W        W62144  25.488  22.783   4.131
89720W        W62145  25.471  27.613  10.434
89721W        W62146   0.973   0.424   3.809
89722W        W62147  11.532  26.264   4.033
89723W        W62148  13.162  24.256   5.199
89724W        W62149   4.649  35.588  14.357
89725W        W62150  14.837  44.860  10.884
89726W        W62151   5.277   3.445  12.523
89727W        W62152  39.805   8.206  11.229
89728W        W62153  36.851   6.502  10.849
89729W        W62154  37.064  42.570   0.830
89730W        W62155  18.515  39.094   0.256
89731W        W62156  26.638  42.229  12.984
89732W        W62157   5.795  37.377   0.837
89733W        W62158  20.707  21.955  13.519
89734W        W62159  10.842  17.071  11.767
89735W        W62160  12.273  30.707  11.115
89736W        W62161  14.890  44.399  13.765
89737W        W62162  41.297  23.061  12.510
89738W        W62163  21.972  29.372  12.905
89739W        W62164   5.031   0.916   4.094
89740W        W62165  22.192   7.120  11.889
89741W        W62166  38.107   2.204  13.078
89742W        W62167  26.767   1.801  14.960
89743W        W62168  20.331  39.310  14.972
89744W        W62169  24.182  37.022  13.495
89745W        W62170  12.566  17.369  10.738
89746W        W62171  21.260   1.387  13.064
89747W        W62172  41.800  31.354   0.832
89748W        W62173  14.070  31.034  12.863
89749W        W62174  33.929   2.966   1.261
89750W        W62175  21.790  20.659   4.278
89751W        W62176  39.802  11.174   1.309
89752W        W62177   8.840   3.875   2.701
89753W        W62178  18.539  22.667  14.230
89754W        W62179   3.978  17.090   2.674
89755W        W62180  31.189  34.411   1.692
89756W        W62181  12.658   1.491  11.374
89757W        W62182  35.048  14.449  12.046
89758W        W62183   4.866  11.615   1.429
89759W        W62184   6.030   6.352  11.327
89760W        W62185  22.622  29.490  14.399
89761W        W62186  28.100  44.843  13.940
89762W        W62187  39.943  16.322  14.189
89763W        W62188  33.340  15.542  13.586
89764W        W62189  37.807  37.905   2.833
89765W        W62190  18.007  24.321  11.847
89766W        W62191  40.453  15.603  11.377
89767W        W62192  11.777  22.559  11.472
89768W        W62193  42.729  18.255   0.848
89769W        W62194  44.941   7.273   4.495
89770W        W62195  38.821  18.558   3.739
89771W        W62196   4.183  18.436   0.532
89772W        W62197  30.923   4.189   1.760
89773W        W62198  33.577  10.454   4.144
89774W        W62199  34.033   4.952  12.172
89775W        W62200  10.911  27.141  14.425
89776W        W62201  33.563  24.450   3.682
89777W        W62202  15.910   0.049  13.358
89778W        W62203  29.038  22.810  13.544
89779W        W62204  13.229   8.183   4.314
89780W        W62205   4.776  41.952   4.643
89781W        W62206  11.024  22.817  10.370
89782W        W62207  10.655  29.369  13.396
89783W        W62208   2.904   7.472  12.936
89784W        W62209  30.320  35.067  13.033
89785W        W62210  17.357  17.587  12.365
89786W        W62211  34.402  42.827  11.206
89787W        W62212  23.998   4.681  10.215
89788W        W62213   0.842  40.908  13.769
89789W        W62214  31.382  40.333   3.750
89790W        W62215   6.858  20.666  11.195
89791W        W62216   8.967   8.894  14.190
89792W        W62217  41.759  15.770   3.156
89793W        W62218  38.701  30.069  12.115
89794W        W62219  21.274   5.218   1.867
89795W        W62220  32.078  19.288  12.168
89796W        W62221   2.311   2.676  14.404
89797W        W62222  34.465   7.686   2.819
89798W        W62223   2.848   7.210  10.688
89799W        W62224  15.589  14.360  14.934
89800W        W62225  32.400  43.976   0.372
89801W        W62226  43.746  17.140   2.422
89802W        W62227   0.352   1.453  11.210
89803W        W62228  31.471  32.631  14.208
89804W        W62229  35.175  18.185   3.745
89805W        W62230   8.671  15.174   4.048
89806W        W62231  32.189  41.764  11.183
89807W        W62232  40.392  31.647  12.038
89808W        W62233  36.585  20.085  14.415
89809W        W62234  17.183  26.393   0.697
89810W        W62235  16.315  15.451  11.675
89811W        W62236   0.456  41.257   1.965
89812W        W62237  38.648  30.069  14.644
89813W        W62238  26.332  27.766  13.032
89814W        W62239  18.034  19.481  10.719
89815W        W62240  12.593  13.806  10.648
89816W        W62241   8.382  37.475  10.235
89817W        W62242   9.717  36.218  12.817
89818W        W62243   7.451   2.227  13.033
89819W        W62244  13.229  40.043   3.783
89820W        W62245  19.363  32.066   4.716
89821W        W62246   6.757  42.424   1.311
89822W        W62247  40.341   0.355   1.987
89823W        W62248  40.076  19.133  13.061
89824W        W62249  26.428  24.190   1.712
89825W        W62250  10.342  21.747  13.527
89826W        W62251   1.496  32.053  13.528
89827W        W62252  23.988   7.245  13.887
89828W        W62253   9.800  37.614   4.624
89829W        W62254  28.129   8.877   3.659
89830W        W62255   9.864  41.959  11.633
89831W        W62256  20.742  23.809  13.709
89832W        W62257  21.519  36.877  13.373
89833W        W62258  27.667  33.858   1.499
89834W        W62259  24.937  22.607   3.582
89835W        W62260   6.793   7.144  12.471
89836W        W62261  25.509  11.352  11.463
89837W        W62262  27.731   7.749  13.872
89838W        W62263  16.593  43.037  11.584
89839W        W62264   2.888  22.324   0.377
89840W        W62265  21.603  36.563   3.213
89841W        W62266  38.106  28.024  13.486
89842W        W62267  33.404   5.326  14.879
89843W        W62268  18.492  44.869  14.443
89844W        W62269  13.091   2.001  14.788
89845W        W62270  26.156  42.292   3.849
89846W        W62271   6.928  16.406  12.424
89847W        W62272  22.055  36.234  13.924
89848W        W62273  27.963  13.993   1.911
89849W        W62274  17.347  34.000  13.495
89850W        W62275  22.696  28.304  12.994
89851W        W62276   5.729  38.262  11.627
89852W        W62277  24.070  26.298   4.494
89853W        W62278  17.722  14.259   0.289
89854W        W62279  12.283  38.778   3.175
89855W        W62280   9.655  10.931   0.475
89856W        W62281  13.227  15.700   2.864
89857W        W62282   2.056  13.219  13.032
89858W        W62283  10.449   8.879   2.884
89859W        W62284   6.853   9.262   2.478
89860W        W62285   3.677   3.240  13.971
89861W        W62286  41.876  34.563   1.046
89862W        W62287  11.858  21.910   2.977
89863W        W62288  24.352   4.226  14.360
89864W        W62289  38.518  28.780  14.996
89865W        W62290  35.967  29.705  14.375
89866W        W62291  19.593  11.796  11.391
89867W        W62292  26.623   2.791  11.687
89868W        W62293  37.342   4.449  14.428
89869W        W62294  23.102  13.248   4.535
89870W        W62295  28.463  21.965   2.190
89871W        W62296  37.577  41.736   2.857
89872W        W62297  18.247  22.149  14.250
89873W        W62298  16.087  17.593  11.091
89874W        W62299   8.381  11.251   4.483
89875W        W62300  42.842  25.016  14.291
89876W        W62301  10.659  18.757   0.056
89877W        W62302  22.210  37.424  11.841
89878W        W62303  10.754  22.324   4.464
89879W        W62304  20.524  43.843   4.094
89880W        W62305   4.636  23.032  12.571
89881W        W62306  15.683  26.782   3.709
89882W        W62307  19.607  19.144  10.635
89883W        W62308  38.829  20.771  10.448
89884W        W62309  23.557  10.020   3.169
89885W        W62310  44.343  15.947   3.809
89886W        W62311  28.456  22.140   3.595
89887W        W62312  42.257   9.260   0.746
89888W        W62313   2.707  34.647   1.351
89889W        W62314  21.260  18.090   4.068
89890W        W62315  10.353  25.735  12.520
89891W        W62316  21.592  19.675   4.056
89892W        W62317  23.013  18.310   1.792
89893W        W62318  30.656  26.416   3.709
89894W        W62319  44.918  24.974   2.307
89895W        W62320  29.394   1.987   2.838
89896W        W62321   7.998  37.989   0.896
89897W        W62322   7.293  20.102  14.795
89898W        W62323  11.254  31.177  14.384
89899W        W62324  34.503   4.573   1.819
89900W        W62325  19.561  37.121   0.316
89901W        W62326  42.590  38.451   1.358
89902W        W62327  40.386  30.032   1.484
89903W        W62328  19.131   3.437  13.326
89904W        W62329  14.578  44.928   0.741
89905W        W62330  11.085   6.764  13.476
89906W        W62331  19.400  38.399  11.093
89907W        W62332   6.436  21.187  14.376
89908W        W62333  25.646   4.864   2.107
89909W        W62334  33.401  13.050  12.535
89910W        W62335  27.599  35.240  14.919
89911W        W62336  28.893   0.891   2.558
89912W        W62337  23.018  24.046  10.088
89913W        W62338  21.049  34.427  11.136
89914W        W62339  19.185  21.642   1.259
89915W        W62340  40.345   5.444  14.432
89916W        W62341  44.535  20.519   1.507
89917W        W62342  16.801  23.996   0.320
89918W        W62343   9.849  41.019   4.876
89919W        W62344  35.516  29.682  13.084
89920W        W62345  14.016  36.455   2.708
89921W        W62346  39.512  14.904  13.441
89922W        W62347   4.836  42.802   1.261
89923W        W62348  18.206  40.372   3.652
89924W        W62349  23.568  12.038   4.828
89925W        W62350   5.122  44.680   4.381
89926W        W62351   2.527   7.862  12.042
89927W        W62352  38.345  42.054   1.437
89928W        W62353   3.216  22.193   3.290
89929W        W62354  35.478  29.484   0.431
89930W        W62355  22.245  10.629  13.962
89931W        W62356  43.596  16.221  12.872
89932W        W62357  25.925   4.210  12.515
89933W        W62358  16.292  10.316  10.026
89934W        W62359  30.968  17.810  10.575
89935W        W62360  42.491   4.621   4.678
89936W        W62361  29.194  28.117  13.455
89937W        W62362  28.534  18.388  11.214
89938W        W62363  32.087  35.401  12.979
89939W        W62364  27.946  24.971   2.260
89940W        W62365  22.160   7.158  11.114
89941W        W62366  30.908  20.520  14.814
89942W        W62367   9.750  16.564  13.318
89943W        W62368   4.700  39.784   0.009
89944W        W62369  41.580   7.591  11.603
89945W        W62370  21.743  14.593   1.842
89946W        W62371  39.165  11.298  13.063
89947W        W62372  16.541  44.708   3.190
89948W        W62373  19.059  43.553   0.478
89949W        W62374   7.115  16.015   1.483
89950W        W62375  29.476  44.959  13.000
89951W        W62376  16.805   0.733   1.814
89952W        W62377  22.215  16.807  11.483
89953W        W62378  33.954  26.275   1.456
89954W        W62379  27.684   1.524   4.560
89955W        W62380  36.404  43.720  14.081
89956W        W62381  14.729  36.370  12.935
89957W        W62382  31.107  19.823  11.907
89958W        W62383  16.180  39.901   4.676
89959W        W62384  10.344  37.525  14.853
89960W        W62385  13.715   9.950   0.928
89961W        W62386  40.436  43.777   2.822
89962W        W62387  32.477  21.698  12.627
89963W        W62388  31.941  18.214   0.389
89964W        W62389  39.846  25.125  11.535
89965W        W62390  17.831  21.706  13.466
89966W        W62391  16.088  15.841   0.381
89967W        W62392  13.762  32.523  11.926
89968W        W62393  43.662  22.084  14.276
89969W        W62394   3.226  19.141  13.743
89970W        W62395  34.876  31.648   4.134
89971W        W62396   2.603  20.220   1.211
89972W        W62397   0.780  12.891   3.834
89973W        W62398   3.757  44.049   4.479
89974W        W62399   3.730  25.968   2.874
89975W        W62400  30.576  12.265  10.409
89976W        W62401  28.679  25.014   4.625
89977W        W62402  23.017   5.418   0.862
89978W        W62403  33.113  14.869   3.663
89979W        W62404  42.472   8.772  13.297
89980W        W62405  20.293  13.196  14.023
89981W        W62406  17.238  41.908   0.666
89982W        W62407   9.027  25.083   3.767
89983W        W62408  25.088  12.873   3.218
89984W        W62409   4.483  14.148  14.337
89985W        W62410   6.805   1.923  14.356
89986W        W62411  32.902  44.716  10.723
89987W        W62412  32.330  16.159   5.038
89988W        W62413  41.524   7.661   1.522
89989W        W62414  33.459  38.432   4.154
89990W        W62415  13.888  18.725   1.260
89991W        W62416  27.530  42.370  13.876
89992W        W62417  19.673  25.995  11.613
89993W        W62418  17.524  27.867   4.097
89994W        W62419   4.170  36.590  10.667
89995W        W62420  26.928  39.075   0.011
89996W        W62421  38.384  23.951  13.455
89997W        W62422  34.650  32.506   2.852
89998W        W62423  43.659  35.382   2.218
89999W        W62424  38.796  20.605   2.183
90000W        W62425  26.739  29.718   4.669
90001W        W62426  34.050  39.477  11.345
90002W        W62427  15.145  39.636  12.450
90003W        W62428  41.800  37.465  12.018
90004W        W62429  19.304  29.100   0.219
90005W        W62430   3.334   0.977  12.159
90006W        W62431  11.896  43.913   3.752
90007W        W62432  14.773  16.311  12.361
90008W        W62433  28.474  42.924  13.598
90009W        W62434  40.124  22.558   0.718
90010W        W62435  30.089  32.599   2.295
90011W        W62436   8.442  29.571  13.542
90012W        W62437  35.570  39.739   4.090
90013W        W62438  35.463  31.935   2.116
90014W        W62439  43.767  34.785  11.910
90015W        W62440   5.716  41.052   3.900
90016W        W62441  38.444   2.331   2.371
90017W        W62442  18.040  40.298   1.285
90018W        W62443   1.145   1.345  10.630
90019W        W62444  37.076  32.370   3.106
90020W        W62445  42.553  31.724   0.614
90021W        W62446   0.548  37.418  10.254
90022W        W62447  31.161  36.605  14.415
90023W        W62448  35.231  19.658   4.663
90024W        W62449  19.599  30.869   3.814
90025W        W62450  27.101   2.166  10.708
90026W        W62451  17.569  13.886  12.913
90027W        W62452   2.273  13.674   1.340
90028W        W62453   5.354   6.423   0.205
90029W        W62454  44.721  18.143   4.646
90030W        W62455   8.275  11.420  14.943
90031W        W62456   4.541  25.101   1.731
90032W        W62457  44.881  29.876  12.102
90033W        W62458  15.112  14.792  11.619
90034W        W62459   6.960  27.261   2.217
90035W        W62460  17.670  36.515   1.266
90036W        W62461   1.502  36.396  14.554
90037W        W62462  26.961  16.207   1.516
90038W        W62463  37.439   4.273  10.719
90039W        W62464  11.409   3.967  14.809
90040W        W62465  19.999  14.524  13.393
90041W        W62466  27.657  42.407   4.690
90042W        W62467  26.992   2.282   4.104
90043W        W62468  15.049  38.312  11.833
90044W        W62469  39.911  25.234   4.133
90045W        W62470  24.390  26.768  12.991
90046W        W62471   5.304  20.221  11.638
90047W        W62472  32.982  29.500  10.906
90048W        W62473   6.602  32.015  10.799
90049W        W62474  35.234  12.724  11.915
90050W        W62475  41.490  14.644  12.430
90051W        W62476  21.423  35.848   2.817
90052W        W62477  41.434  34.544   0.193
90053W        W62478  14.734  33.380  12.074
90054W        W62479  28.204   6.972  10.705
90055W        W62480  38.872  24.659  13.922
90056W        W62481  41.956   9.221   3.636
90057W        W62482  30.970  26.031  11.464
90058W        W62483  29.888   5.382   2.229
90059W        W62484  37.455   8.113   4.933
90060W        W62485  33.379   0.014  10.748
90061W        W62486  13.270  23.618  12.287
90062W        W62487  11.702  19.175   2.927
90063W        W62488  35.668  32.865  12.978
90064W        W62489  26.495  26.493  13.347
90065W        W62490  36.505  23.269  12.601
90066W        W62491   3.871  13.754  14.743
90067W        W62492  39.394  30.363  13.339
90068W        W62493  42.886   7.094   0.095
90069W        W62494  40.094  26.242   4.142
90070W        W62495  26.462  12.718   2.288
90071W        W62496   7.657   9.716   4.061
90072W        W62497  24.002  40.510   3.312
90073W        W62498  16.704   9.407   1.245
90074W        W62499  16.043  37.274   3.692
90075W        W62500  24.652  10.264   1.991
90076W        W62501   6.350   2.458   2.684
90077W        W62502  35.713  39.082   2.189
90078W        W62503   2.728  27.523  11.222
90079W        W62504   4.159  38.212   1.258
90080W        W62505  16.085  28.363   2.069
90081W        W62506  14.999  13.130   0.534
90082W        W62507  17.139  35.396   3.565
90083W        W62508   1.011   5.652  12.959
90084W        W62509  32.374  26.900   0.154
90085W        W62510  39.009  38.784   0.939
90086W        W62511  17.100  40.445  13.833
90087W        W62512   8.286  27.567  13.944
90088W        W62513  19.867   3.399  14.035
90089W        W62514  19.788  30.633   0.927
90090W        W62515  31.490  36.926   1.672
90091W        W62516   0.271   1.264  12.077
90092W        W62517  27.166  22.658  10.957
90093W        W62518  22.632  26.821  10.695
90094W        W62519  13.887  30.337  11.798
90095W        W62520   9.347  13.843   5.024
90096W        W62521  34.231   6.754  10.745
90097W        W62522  31.822  11.839  13.003
90098W        W62523   7.866  28.093  11.196
90099W        W62524   6.086  35.335   4.506
90100W        W62525  30.734  21.965  12.612
90101W        W62526  11.166   4.706   2.732
90102W        W62527  35.192  43.315  12.968
90103W        W62528  19.644   9.997  10.278
90104W        W62529  43.897  35.032   0.332
90105W        W62530  24.013  40.887   3.686
90106W        W62531   5.247  10.921  11.990
90107W        W62532  12.732  35.851  13.596
90108W        W62533  22.130  10.863  10.323
90109W        W62534  29.829  19.067   4.277
90110W        W62535  23.449  22.255   3.551
90111W        W62536  11.264  27.390  10.684
90112W        W62537  27.973  42.786   3.777
90113W        W62538  22.662   0.805  11.551
90114W        W62539   7.321  21.298  12.997
90115W        W62540   3.799  36.031  10.527
90116W        W62541  42.122   5.912   3.205
90117W        W62542  39.852  13.439   4.058
90118W        W62543  41.641   0.313   0.556
90119W        W62544  35.504  35.097   2.927
90120W        W62545  18.469  30.512   1.636
90121W        W62546   5.549   8.872  12.968
90122W        W62547   6.893  28.640   1.711
90123W        W62548  43.310  30.128  11.162
90124W        W62549  12.202  15.619   3.322
90125W        W62550  41.767  41.280  11.500
90126W        W62551   5.747  40.918  10.586
90127W        W62552   9.100   5.851  11.125
90128W        W62553  42.933  38.052   2.675
90129W        W62554  20.220  10.850   2.316
90130W        W62555   6.417  24.597  13.208
90131W        W62556  27.204   8.216   4.340
90132W        W62557  17.282  12.427  10.264
90133W        W62558  40.103  15.577   3.282
90134W        W62559  19.632  44.289   4.111
90135W        W62560  39.872  26.748   0.804
90136W        W62561  21.486  43.049  14.536
90137W        W62562  28.337   4.802   1.337
90138W        W62563  33.635   1.683   1.765
90139W        W62564  13.575  24.154   3.758
90140W        W62565  31.996  11.104   2.695
90141W        W62566  28.728  10.906  13.569
90142W        W62567  40.092  18.061   3.533
90143W        W62568  15.748  18.670  12.947
90144W        W62569  42.790  30.131   0.938
90145W        W62570  19.469  13.108  12.440
90146W        W62571   0.224  30.054   0.775
90147W        W62572  17.031   4.282  14.984
90148W        W62573  19.672   8.127   2.782
90149W        W62574   7.366  23.495  14.904
90150W        W62575   3.660  22.721  11.663
90151W        W62576   9.325   4.998  11.632
90152W        W62577  40.199  36.534   3.856
90153W        W62578   0.258  36.528   3.459
90154W        W62579  43.211  40.011  11.193
90155W        W62580   9.118  34.498  12.150
90156W        W62581  18.045  41.931   3.179
90157W        W62582  22.287  24.745   2.921
90158W        W62583  13.072  32.139   4.548
90159W        W62584   5.457   3.473   0.297
90160W        W62585   7.672  24.014  14.867
90161W        W62586  37.133  22.640  12.814
90162W        W62587  20.216  15.679  12.857
90163W        W62588  13.634  34.990   1.846
90164W        W62589  24.743   7.292   0.267
90165W        W62590  17.648  43.216  11.081
90166W        W62591  24.330   9.011   1.282
90167W        W62592  15.426  23.137   9.940
90168W        W62593  22.588  39.867  13.443
90169W        W62594  37.940  37.591  10.935
90170W        W62595  41.822  26.606   4.390
90171W        W62596   1.868  14.484  11.078
90172W        W62597  32.164   9.334   2.204
90173W        W62598  13.874   9.612  11.152
90174W        W62599  44.901  31.534   0.777
90175W        W62600  15.098  14.765  12.603
90176W        W62601  41.749  19.224  12.184
90177W        W62602   9.510  10.668  12.010
90178W        W62603  17.674  26.577   3.728
90179W        W62604  35.815  12.881   0.771
90180W        W62605  42.470  32.048  14.095
90181W        W62606  30.967  21.996   4.635
90182W        W62607  43.050  33.636   2.817
90183W        W62608  37.456  34.944  12.115
90184W        W62609   0.684  32.212   4.597
90185W        W62610  20.141  20.744   1.833
90186W        W62611  38.398  40.684   4.896
90187W        W62612  22.530  41.838   0.381
90188W        W62613  16.538  33.895  13.839
90189W        W62614  32.021   3.062  12.146
90190W        W62615  14.092  28.149  11.549
90191W        W62616  36.376  44.788  12.564
90192W        W62617  33.862   5.009   4.258
90193W        W62618  26.653  41.865  11.931
90194W        W62619  13.176  34.626   2.236
90195W        W62620  26.007  14.769  12.505
90196W        W62621  44.246  20.867   9.900
90197W        W62622   2.005  37.422   1.473
90198W        W62623  38.887   1.467  12.454
90199W        W62624  43.585  16.012  14.224
90200W        W62625  13.558  15.324   1.832
90201W        W62626  26.125  31.007   5.086
90202W        W62627  26.524  23.744  11.203
90203W        W62628  36.355  20.077  14.886
90204W        W62629   4.161  14.266   3.821
90205W        W62630  22.201  29.271  10.946
90206W        W62631  33.441  41.488   3.606
90207W        W62632  42.447  19.538   2.933
90208W        W62633   0.728  33.151  11.498
90209W        W62634   0.975   5.384   1.915
90210W        W62635  13.446  37.431   2.218
90211W        W62636  14.131  25.624  14.469
90212W        W62637  37.984   4.167  14.846
90213W        W62638  37.270  38.496  11.673
90214W        W62639  33.149   2.387   1.515
90215W        W62640  12.434  11.296  14.384
90216W        W62641   9.613  31.086   0.488
90217W        W62642  42.124  22.152   4.345
90218W        W62643  32.890  25.034   3.670
90219W        W62644   4.929   1.846   3.882
90220W        W62645  22.007  23.199   4.158
90221W        W62646  38.760  15.147  12.532
90222W        W62647  27.051  38.860  12.476
90223W        W62648  43.552  30.611   2.900
90224W        W62649   3.014   7.719   1.366
90225W        W62650   3.626  40.455   4.091
90226W        W62651  43.479  16.311  13.360
90227W        W62652  16.774  10.836  14.860
90228W        W62653  34.850  37.584   1.801
90229W        W62654   6.914  15.887  11.561
90230W        W62655  37.821  29.948   3.731
90231W        W62656  11.238  33.374  10.958
90232W        W62657  42.454  13.094  11.240
90233W        W62658   6.200   2.753   4.557
90234W        W62659  12.105   9.784   4.131
90235W        W62660   4.185  23.659   2.378
90236W        W62661   6.781   0.789  14.716
90237W        W62662   8.538   1.166  12.462
90238W        W62663  15.359   3.026  12.375
90239W        W62664  13.385  19.207   3.104
90240W        W62665  16.861  29.564   3.616
90241W        W62666   2.973  35.617  13.993
90242W        W62667  33.884  22.526   3.874
90243W        W62668  31.330  11.366   1.130
90244W        W62669  37.794   4.697  10.873
90245W        W62670  36.883  20.321   1.703
90246W        W62671  22.657   6.721  12.760
90247W        W62672   1.277  20.768  11.310
90248W        W62673  26.323  36.580   4.136
90249W        W62674   4.768   0.789   1.830
90250W        W62675  18.326  41.130  12.468
90251W        W62676  24.177   5.759  14.288
90252W        W62677   6.237  32.138   9.762
90253W        W62678  43.998  26.243  13.431
90254W        W62679   4.908  20.961   2.305
90255W        W62680   9.344  24.476  13.390
90256W        W62681  33.977  10.359  13.900
90257W        W62682   9.485  18.652   0.900
90258W        W62683   4.664  14.082   1.226
90259W        W62684  35.308  40.305   3.255
90260W        W62685   9.863  37.260  14.025
90261W        W62686  27.901  37.862   1.940
90262W        W62687  13.710  29.444  11.760
90263W        W62688  28.644  10.380   4.466
90264W        W62689  32.823  25.739   3.231
90265W        W62690  39.823   0.208  11.248
90266W        W62691  31.465  11.675  13.375
90267W        W62692  25.108  23.938   3.679
90268W        W62693  27.483  30.509   1.669
90269W        W62694  31.796  32.990  14.355
90270W        W62695   6.766   4.661   4.130
90271W        W62696   2.234  21.113   4.630
90272W        W62697  21.559  20.122   2.764
90273W        W62698  39.380   3.995  13.014
90274W        W62699   2.064  24.246  13.104
90275W        W62700   5.254  28.456   0.871
90276W        W62701   5.946  24.585   4.124
90277W        W62702  25.030  37.900  14.002
90278W        W62703  11.406  18.064  14.825
90279W        W62704  11.239   6.223   0.229
90280W        W62705  30.895   5.133  12.638
90281W        W62706  11.829  44.035   3.248
90282W        W62707  18.186  24.508   0.979
90283W        W62708  33.697   0.728   2.851
90284W        W62709  17.362   1.682   4.923
90285W        W62710   2.980   4.269   4.482
90286W        W62711  31.206  16.247  13.579
90287W        W62712  24.074  40.933   0.493
90288W        W62713  42.508  18.503  11.126
90289W        W62714  24.049   0.783   0.961
90290W        W62715  28.776  25.702  11.349
90291W        W62716  39.421  10.454   0.810
90292W        W62717   7.334  23.576   3.259
90293W        W62718   8.686  36.834  13.099
90294W        W62719  40.735  41.420   1.526
90295W        W62720   2.205  39.081   1.924
90296W        W62721   9.839  25.070   4.235
90297W        W62722   7.138  25.401  13.566
90298W        W62723  41.221   9.574   3.722
90299W        W62724   4.363  13.642  11.291
90300W        W62725  42.256  24.104   2.826
90301W        W62726  30.888  10.654  14.343
90302W        W62727  11.424  10.564   1.745
90303W        W62728  44.841  31.660   3.735
90304W        W62729  29.147  12.582   4.180
90305W        W62730  37.373   6.031   1.469
90306W        W62731  12.032  44.786  12.176
90307W        W62732  36.598  35.672  14.836
90308W        W62733  31.115  19.624  12.384
90309W        W62734  43.339  13.831   1.745
90310W        W62735   2.424  38.129   3.478
90311W        W62736  26.220  39.963   2.250
90312W        W62737  14.291  16.688  11.078
90313W        W62738   5.819  21.977  10.670
90314W        W62739  38.779  19.665  13.920
90315W        W62740  29.066  27.722   2.428
90316W        W62741   1.980  29.625  14.501
90317W        W62742  20.023  21.768   0.202
90318W        W62743  18.066   6.855  12.542
90319W        W62744   9.872  19.517  14.175
90320W        W62745  26.656   3.962   0.360
90321W        W62746  29.945  13.408   0.761
90322W        W62747   4.018   9.199  11.931
90323W        W62748  23.752  26.234  11.042
90324W        W62749   3.463   3.934   4.185
90325W        W62750  20.776  23.573  11.013
90326W        W62751  17.245  16.094   0.504
90327W        W62752  20.596  14.301  10.937
90328W        W62753  32.386  39.048   3.525
90329W        W62754  32.252  39.360   2.773
90330W        W62755  32.479  38.342  12.993
90331W        W62756   1.229  32.393   1.024
90332W        W62757   9.350  39.559  14.723
90333W        W62758  32.031  20.683   1.447
90334W        W62759  21.077  43.321  14.725
90335W        W62760  21.253  40.286   0.206
90336W        W62761   6.875  13.586   0.702
90337W        W62762   1.515  17.462   1.969
90338W        W62763  37.929  31.087  12.584
90339W        W62764  40.745   2.906  13.018
90340W        W62765   7.628  19.394   2.338
90341W        W62766   9.686  39.098   4.478
90342W        W62767  10.088  39.416  11.446
90343W        W62768   0.254   8.565  14.794
90344W        W62769  24.436  35.391   2.244
90345W        W62770   0.053  29.445  13.081
90346W        W62771  34.532   5.953   1.805
90347W        W62772  43.294  20.513  11.468
90348W        W62773  19.182  32.995  11.016
90349W        W62774   5.932  37.030   4.672
90350W        W62775  14.202  35.367   3.623
90351W        W62776  24.876  29.788   4.575
90352W        W62777   0.021   2.266   0.733
90353W        W62778   2.027   2.278   5.111
90354W        W62779  18.050  20.608  11.483
90355W        W62780  39.811  33.818   0.877
90356W        W62781   5.874   8.816  13.390
90357W        W62782  12.732  11.663   1.827
90358W        W62783  34.552  44.423   0.785
90359W        W62784  21.571  26.579   0.106
90360W        W62785  28.996  34.518  11.838
90361W        W62786   0.432  34.488  11.877
90362W        W62787   1.263  38.414  10.703
90363W        W62788   8.190  32.990  14.072
90364W        W62789  39.682   7.022   0.775
90365W        W62790  12.647  12.051  10.751
90366W        W62791  32.879  42.939   2.135
90367W        W62792  11.610  31.483  13.612
90368W        W62793  27.239  18.510   4.378
90369W        W62794  12.076   1.803   9.692
90370W        W62795  22.991  42.819   5.092
90371W        W62796   1.928  13.697  14.534
90372W        W62797   8.200  10.596  14.624
90373W        W62798   2.785  29.034  13.415
90374W        W62799  19.449  38.296   0.264
90375W        W62800   7.281  37.962  10.254
90376W        W62801  28.039  10.389   0.925
90377W        W62802  29.816   1.764   1.265
90378W        W62803  43.956  17.642  13.830
90379W        W62804   4.240  40.940  10.993
90380W        W62805  24.396  12.793   1.432
90381W        W62806  37.860  20.395  14.455
90382W        W62807  30.076  21.649  12.335
90383W        W62808  23.950  18.299  14.894
90384W        W62809  35.330  24.648  10.427
90385W        W62810  40.235  28.067  14.792
90386W        W62811   8.757  35.259   0.852
90387W        W62812  43.057  44.263  11.671
90388W        W62813   3.850  12.070  13.694
90389W        W62814  26.918  16.875  12.004
90390W        W62815  31.220  17.065   2.127
90391W        W62816  39.433  19.705  11.972
90392W        W62817  33.863  16.839   4.951
90393W        W62818   7.981  11.543  11.884
90394W        W62819  39.650  41.458  14.667
90395W        W62820   0.091  25.758  13.075
90396W        W62821  21.692  14.095   0.807
90397W        W62822  24.235  41.849  14.331
90398W        W62823  16.808   7.264   1.304
90399W        W62824  41.242  37.861  10.749
90400W        W62825  19.661  32.892   2.417
90401W        W62826  16.726  40.055  13.853
90402W        W62827  39.962  25.135   1.743
90403W        W62828  36.786   8.124  14.973
90404W        W62829  10.234  13.280  11.848
90405W        W62830   3.915  29.472   1.325
90406W        W62831  44.286  38.899  13.991
90407W        W62832  17.142   7.851   3.828
90408W        W62833  38.270  32.031  10.928
90409W        W62834  23.318   2.838  12.114
90410W        W62835  33.037  33.168   1.382
90411W        W62836  10.417   6.682  11.987
90412W        W62837   7.928  11.245  12.551
90413W        W62838  34.314  35.323   4.144
90414W        W62839  38.921  44.772   0.275
90415W        W62840  14.350   9.181  13.390
90416W        W62841  37.320  17.727  12.828
90417W        W62842  13.989  12.597   2.417
90418W        W62843  23.216  27.034  12.045
90419W        W62844  26.468  12.413  11.824
90420W        W62845  10.599  31.172   4.460
90421W        W62846  26.500  30.430  14.965
90422W        W62847  28.139  32.597  14.409
90423W        W62848  33.011  31.822  14.431
90424W        W62849   1.678   1.971   1.630
90425W        W62850  36.696  10.767  12.819
90426W        W62851  42.880  21.506   2.160
90427W        W62852  27.267  30.699  13.380
90428W        W62853  26.513  40.600  11.471
90429W        W62854  10.469  25.070  12.858
90430W        W62855  14.118  31.982   2.237
90431W        W62856  33.430  23.458  10.624
90432W        W62857  13.302  44.823  12.595
90433W        W62858  41.078  39.689   2.816
90434W        W62859  13.301  25.630   0.378
90435W        W62860   3.294  33.527  13.440
90436W        W62861  22.478  20.239   2.367
90437W        W62862  24.752  32.825  13.802
90438W        W62863   6.924  39.998   3.608
90439W        W62864   2.341  18.632  13.367
90440W        W62865   2.254   5.152  11.852
90441W        W62866  37.852  27.516  11.096
90442W        W62867  17.810   1.198  13.305
90443W        W62868  26.114  31.705   9.817
90444W        W62869   0.337  20.178   2.168
90445W        W62870  12.869  29.708   0.274
90446W        W62871  36.898  43.605  12.443
90447W        W62872  20.694   1.856   1.743
90448W        W62873  27.328   9.545  10.983
90449W        W62874  15.146   6.829  10.587
90450W        W62875   6.736  27.659  10.681
90451W        W62876  18.705  36.784  13.838
90452W        W62877  15.098  31.572  14.332
90453W        W62878  39.547  33.003  11.508
90454W        W62879  22.421  13.264  14.718
90455W        W62880  43.366  21.619   2.274
90456W        W62881  42.151  43.856   2.326
90457W        W62882  34.879  42.445   2.979
90458W        W62883  17.214  35.384  11.337
90459W        W62884   5.127  40.412   3.212
90460W        W62885  20.073  31.127   5.482
90461W        W62886  15.634  29.090   0.324
90462W        W62887   2.845  25.169  10.838
90463W        W62888  25.937   2.928  12.898
90464W        W62889   5.840  15.220  13.626
90465W        W62890  12.501  44.973   0.367
90466W        W62891  29.931  41.848  13.870
90467W        W62892  32.867  21.474  14.989
90468W        W62893  24.661   1.851  14.916
90469W        W62894  34.880  43.433   1.028
90470W        W62895  26.074  43.302   1.513
90471W        W62896  14.609   1.374  14.008
90472W        W62897  29.617  10.689   2.424
90473W        W62898   9.631  35.283   9.703
90474W        W62899   2.220   1.327   1.413
90475W        W62900  37.511  16.664   3.604
90476W        W62901  23.871  18.108  11.630
90477W        W62902   4.523   1.272   1.768
90478W        W62903   2.202  44.478   1.903
90479W        W62904  28.759  28.401  10.605
90480W        W62905  21.170  23.293  12.487
90481W        W62906  25.080  38.130  10.716
90482W        W62907  23.721  28.150  13.007
90483W        W62908  25.176  28.488   3.114
90484W        W62909  44.934  34.880   3.292
90485W        W62910  30.014  43.107   1.920
90486W        W62911   1.308  31.446  11.722
90487W        W62912  40.416  35.477   4.104
90488W        W62913  23.444   1.870  12.872
90489W        W62914  38.847  28.949  14.217
90490W        W62915  15.631  28.869   4.718
90491W        W62916  44.748   7.455   1.299
90492W        W62917  28.034  30.077  14.044
90493W        W62918   7.802   7.765  11.515
90494W        W62919  15.331  20.078  14.757
90495W        W62920  38.515  15.577   2.018
90496W        W62921  19.952  25.499   0.496
90497W        W62922   6.685  17.047   4.263
90498W        W62923  20.603  28.985  12.498
90499W        W62924   8.611  35.128  12.950
90500W        W62925  32.421   3.545   0.264
90501W        W62926  13.594   2.820  13.470
90502W        W62927  20.961  31.863  14.575
90503W        W62928  29.937  40.497   4.708
90504W        W62929  30.838   0.002   2.681
90505W        W62930  16.945   1.357   3.881
90506W        W62931  39.861  13.733   1.790
90507W        W62932  20.089   1.700  11.148
90508W        W62933  14.107  39.428   0.436
90509W        W62934  22.698  39.224   3.609
90510W        W62935  35.425   4.357   2.208
90511W        W62936  22.016   8.963   4.173
90512W        W62937   1.557  19.354  10.639
90513W        W62938   2.309  38.734   2.292
90514W        W62939  16.288  15.055  10.745
90515W        W62940  12.729   5.003   2.333
90516W        W62941  13.603   0.848  11.436
90517W        W62942  44.046   3.498  11.889
90518W        W62943   3.605  28.572   0.578
90519W        W62944  37.896  16.498  11.641
90520W        W62945  41.539  12.684   0.275
90521W        W62946  39.507  28.739   2.401
90522W        W62947  16.657   6.718   4.537
90523W        W62948  22.194  20.719   4.624
90524W        W62949  20.752  37.945   2.363
90525W        W62950  18.487   8.696  11.053
90526W        W62951  28.681   4.438   1.211
90527W        W62952  40.966  37.237   2.684
90528W        W62953  19.555  29.920   1.390
90529W        W62954  20.745  41.375  12.962
90530W        W62955  19.008   3.350  12.326
90531W        W62956  33.059  39.506  11.082
90532W        W62957   7.852  19.791   2.708
90533W        W62958  36.564  17.437   3.119
90534W        W62959  33.767  35.660   0.268
90535W        W62960  44.554  17.178   2.766
90536W        W62961   0.445  32.371  12.558
90537W        W62962  36.484  10.759  12.229
90538W        W62963  43.029  24.296  11.194
90539W        W62964  26.002  15.420   1.958
90540W        W62965   0.091  32.002  10.664
90541W        W62966  27.710  19.277  10.689
90542W        W62967  14.171  25.672   3.229
90543W        W62968  40.527  26.685  14.132
90544W        W62969  17.682   2.311   4.136
90545W        W62970  29.081  35.631  13.128
90546W        W62971  33.514  37.554  10.277
90547W        W62972   6.280   4.867  10.280
90548W        W62973  33.229   4.820  14.773
90549W        W62974   1.771   4.306   1.858
90550W        W62975  39.035  13.332  14.441
90551W        W62976   1.712  41.485   1.613
90552W        W62977  12.427  33.906   1.208
90553W        W62978  17.903  33.731   5.028
90554W        W62979  41.813  20.086   2.837
90555W        W62980   7.657  28.127  13.480
90556W        W62981  15.248  44.619   4.451
90557W        W62982  13.688  43.756  14.881
90558W        W62983  41.828  32.645   0.433
90559W        W62984  27.576  37.288   4.170
90560W        W62985  20.557   3.381  11.618
90561W        W62986  22.926   9.105  10.953
90562W        W62987  12.229  16.796   1.823
90563W        W62988  15.195  37.625   2.665
90564W        W62989   3.210   0.486  11.045
90565W        W62990   9.838  26.777   1.907
90566W        W62991  40.991   2.469  12.979
90567W        W62992  31.002  29.718   1.331
90568W        W62993  37.467  31.192   4.139
90569W        W62994  20.317  10.554  14.471
90570W        W62995  20.171   7.981   4.584
90571W        W62996  23.983   9.234   5.060
90572W        W62997  44.789  14.855   2.352
90573W        W62998  22.119  39.384  10.816
90574W        W62999  38.830  44.477  13.276
90575W        W63000  21.868  25.441  11.063
90576W        W63001   7.762  30.179  11.849
90577W        W63002  35.935  33.618   4.217
90578W        W63003  24.048   3.300  14.693
90579W        W63004  36.489  33.357   2.403
90580W        W63005   3.455   5.853  11.004
90581W        W63006   7.202  18.797   1.143
90582W        W63007   3.308   6.280   0.737
90583W        W63008  22.273  21.523   1.903
90584W        W63009  18.111  23.686   2.312
90585W        W63010  40.590  39.831   2.918
90586W        W63011  17.259   5.185  10.662
90587W        W63012  30.908  27.622  14.955
90588W        W63013   8.475  43.198  12.595
90589W        W63014   0.294   0.543   2.363
90590W        W63015  16.174   4.143  10.970
90591W        W63016  33.864  29.600   2.901
90592W        W63017  44.350  44.465   1.316
90593W        W63018  19.235  33.806   3.709
90594W        W63019  28.367  40.432   4.962
90595W        W63020  15.072  40.077  11.119
90596W        W63021   3.760  34.107   1.949
90597W        W63022  44.878  23.571  12.239
90598W        W63023  30.596   6.359  13.644
90599W        W63024  14.262   6.341  12.080
90600W        W63025  32.088  33.840   1.693
90601W        W63026  33.982  17.673  13.160
90602W        W63027  24.567   1.928  13.888
90603W        W63028  25.973  15.776  13.940
90604W        W63029  39.465  16.538  12.981
90605W        W63030   1.465   5.135   3.895
90606W        W63031  25.021   2.944   2.253
90607W        W63032   4.925  30.023   2.296
90608W        W63033  17.202   5.589  13.875
90609W        W63034  10.286  22.625   4.542
90610W        W63035   2.236  42.220   4.181
90611W        W63036  22.551   2.892   3.099
90612W        W63037   6.773  24.455   2.321
90613W        W63038   1.774  26.106   4.730
90614W        W63039  10.115  27.092   0.374
90615W        W63040  31.041  36.252   0.692
90616W        W63041   8.276   9.442   9.732
90617W        W63042  34.459   8.456   3.747
90618W        W63043  39.578  40.942   1.297
90619W        W63044  26.642   7.196  14.484
90620W        W63045   5.859  10.343  12.619
90621W        W63046  27.890  20.236  14.182
90622W        W63047  10.709  34.733   1.414
90623W        W63048  17.002   6.227  12.915
90624W        W63049   6.325   8.236   1.831
90625W        W63050   9.773  19.966  10.531
90626W        W63051  15.676  17.804  10.878
90627W        W63052   1.269  28.854   3.175
90628W        W63053  25.549  15.967  13.469
90629W        W63054  21.496  31.667   5.091
90630W        W63055  41.880   5.569   0.648
90631W        W63056   4.201   1.456  11.393
90632W        W63057  27.838  26.458  11.198
90633W        W63058  14.285   5.388  11.388
90634W        W63059  17.692  44.384  11.556
90635W        W63060  41.033   4.991   0.759
90636W        W63061  25.709  17.034  11.566
90637W        W63062  33.427  34.878  12.484
90638W        W63063  34.412  15.563  11.647
90639W        W63064  25.003   2.206   1.470
90640W        W63065  28.328  27.149   1.260
90641W        W63066  36.809  25.351   1.819
90642W        W63067  36.532  42.096  13.679
90643W        W63068  40.304  40.634  13.924
90644W        W63069   4.961  35.853  12.390
90645W        W63070  32.967  19.089  11.275
90646W        W63071  25.184  44.409  10.680
90647W        W63072  34.037  26.850   5.057
90648W        W63073  20.675  31.958   1.357
90649W        W63074  27.659  30.171  12.643
90650W        W63075   4.915  17.167  13.604
90651W        W63076   3.311  29.210   0.099
90652W        W63077   5.290   8.868  12.112
90653W        W63078   3.610   4.731   3.738
90654W        W63079  36.869  26.196   4.479
90655W        W63080  24.069  31.009  13.530
90656W        W63081  38.827  42.872  14.919
90657W        W63082  30.403  23.546  10.706
90658W        W63083  34.121  38.131   3.572
90659W        W63084  30.107   3.305   4.850
90660W        W63085   8.892  34.887  13.362
90661W        W63086  26.471  38.023  11.766
90662W        W63087  29.295  23.453  14.712
90663W        W63088   7.699  36.342   0.199
90664W        W63089  44.991  44.707  12.756
90665W        W63090  31.994  21.771  12.811
90666W        W63091  28.908  14.762   1.262
90667W        W63092  28.190  42.585  11.644
90668W        W63093  38.907  33.181   4.631
90669W        W63094  18.699  14.041   3.643
90670W        W63095  24.483   1.306  12.096
90671W        W63096  40.632  37.367  13.587
90672W        W63097  36.426  31.416  10.695
90673W        W63098  22.980  10.772   4.157
90674W        W63099  19.817  21.655  10.944
90675W        W63100  12.663  26.580   1.719
90676W        W63101  21.214  38.935  11.982
90677W        W63102  14.359  43.469   1.485
90678W        W63103  30.482  32.197   0.803
90679W        W63104  25.553  11.767   2.632
90680W        W63105  24.392  10.230  11.490
90681W        W63106  11.743  37.632   1.864
90682W        W63107  31.553  20.537   2.295
90683W        W63108  36.458  10.313   1.719
90684W        W63109  13.745  12.389  10.724
90685W        W63110  31.829   2.444   1.752
90686W        W63111  41.647  30.015   3.848
90687W        W63112   4.203  24.085   1.049
90688W        W63113  11.630  34.526  14.399
90689W        W63114  14.131  12.833  12.603
90690W        W63115  20.877  26.359  11.527
90691W        W63116  15.704  20.145   4.031
90692W        W63117  14.865  43.494   2.384
90693W        W63118   8.357  21.289   9.902
90694W        W63119   1.569   8.744   3.262
90695W        W63120  10.527  13.487   9.898
90696W        W63121  40.559  29.867  10.549
90697W        W63122  19.854  24.662   4.133
90698W        W63123  41.809  34.839   1.995
90699W        W63124  38.427  27.856   3.675
90700W        W63125  15.872  27.334  13.980
90701W        W63126  14.248  15.797  13.864
90702W        W63127  38.545  36.966  11.493
90703W        W63128  22.634   7.414  11.092
90704W        W63129  20.647  36.555   2.824
90705W        W63130  38.516  43.197  14.030
90706W        W63131  36.451  11.088   3.437
90707W        W63132  36.872   2.840   3.282
90708W        W63133   2.336   0.194  10.927
90709W        W63134  15.657  37.121  11.607
90710W        W63135  37.377   2.729  10.718
90711W        W63136  21.022  19.766   1.851
90712W        W63137  18.246  28.730   0.041
90713W        W63138   6.946  22.584  14.346
90714W        W63139   6.691  38.898  11.895
90715W        W63140  17.092  39.588   0.721
90716W        W63141   9.482  28.593   3.234
90717W        W63142  34.089  36.762   3.601
90718W        W63143  21.878  33.620  11.163
90719W        W63144   6.236  20.510  13.303
90720W        W63145  24.837   9.099   1.332
90721W        W63146  41.291  21.194   0.764
90722W        W63147  23.234  12.584  14.716
90723W        W63148  29.622  42.765   1.866
90724W        W63149  42.010  37.090  13.814
90725W        W63150   9.454  27.758   0.865
90726W        W63151   1.866   8.329   2.774
90727W        W63152  24.198  15.118   0.392
90728W        W63153  29.189  10.208   5.109
90729W        W63154  15.932   3.738  11.206
90730W        W63155  22.480  34.543  14.387
90731W        W63156   6.329  13.429  13.969
90732W        W63157   5.963  43.470  11.567
90733W        W63158  20.671  40.419  14.577
90734W        W63159  13.871  30.456   0.680
90735W        W63160  19.982  15.320  12.115
90736W        W63161  35.184  22.066  14.333
90737W        W63162  11.589  14.192   0.925
90738W        W63163   3.000  24.114   4.524
90739W        W63164  16.302  13.818   1.518
90740W        W63165  21.616  26.358   4.768
90741W        W63166  31.724  14.864  12.604
90742W        W63167  16.894  14.219   0.810
90743W        W63168  17.576  24.470  10.516
90744W        W63169  30.548  12.892   4.007
90745W        W63170  30.031   5.302   4.699
90746W        W63171  32.095  24.739   3.177
90747W        W63172   5.690  24.065  12.534
90748W        W63173  35.389  10.656  13.084
90749W        W63174  29.953  41.732   4.937
90750W        W63175  16.101  44.210   4.994
90751W        W63176  20.907  27.357   5.088
90752W        W63177  23.910   3.496  12.080
90753W        W63178   1.362  13.511   1.772
90754W        W63179  11.706  32.074  11.968
90755W        W63180  38.004   0.805   3.662
90756W        W63181  33.528  15.300   0.299
90757W        W63182   0.192  29.640  12.472
90758W        W63183  13.167  25.049  14.328
90759W        W63184  14.108   7.863  11.504
90760W        W63185  39.459  37.400  14.664
90761W        W63186  31.548  17.802   3.710
90762W        W63187   6.516  18.951   5.104
90763W        W63188   9.674  34.998  10.521
90764W        W63189  35.593  39.272  14.262
90765W        W63190  44.787   3.331  14.299
90766W        W63191  15.264  10.781   1.390
90767W        W63192   4.798  14.086   0.326
90768W        W63193  29.065  10.739   0.229
90769W        W63194  44.723  32.973   4.552
90770W        W63195  34.992  24.339  14.530
90771W        W63196  17.138  28.662  11.189
90772W        W63197  10.695  26.763  11.999
90773W        W63198  37.882  41.210   1.414
90774W        W63199  20.491  43.437  12.995
90775W        W63200   5.638  34.008  12.990
90776W        W63201  10.222  42.740   3.133
90777W        W63202  12.722  38.904  14.358
90778W        W63203  13.383  20.086  12.444
90779W        W63204  37.661  36.086  13.260
90780W        W63205  11.799  35.023   3.594
90781W        W63206  10.889  12.746   0.836
90782W        W63207  32.923  14.309  14.501
90783W        W63208  38.454  37.872  14.565
90784W        W63209  19.992  35.847   5.079
90785W        W63210  10.732   3.018   1.224
90786W        W63211   3.216  23.141   2.198
90787W        W63212  27.020  16.122  12.481
90788W        W63213   1.914   0.523  12.071
90789W        W63214  33.711  13.834   0.946
90790W        W63215  36.335  10.892  14.070
90791W        W63216   5.929  39.843   1.560
90792W        W63217  15.380  13.518   3.811
90793W        W63218  18.658  30.870   3.909
90794W        W63219  33.141   1.479  10.997
90795W        W63220  21.884  24.114   3.643
90796W        W63221  19.475   1.434  10.083
90797W        W63222  36.957   3.341   2.229
90798W        W63223  27.141   3.867   3.769
90799W        W63224  44.941  13.344   3.814
90800W        W63225  35.497  41.239  13.729
90801W        W63226   0.217  21.633   2.377
90802W        W63227  27.605  13.125   0.974
90803W        W63228  14.747  38.114  13.369
90804W        W63229  15.773   7.435  11.186
90805W        W63230  12.264  32.083   2.033
90806W        W63231  32.930  22.651   0.324
90807W        W63232  11.137  22.209   0.580
90808W        W63233  11.757  32.516   0.440
90809W        W63234  13.700  22.271   3.257
90810W        W63235  22.979  37.603   2.796
90811W        W63236  34.086   7.262   0.214
90812W        W63237  43.812  21.578  12.036
90813W        W63238  25.088  10.865   2.993
90814W        W63239  40.929  15.501   3.831
90815W        W63240  31.069  21.413   9.962
90816W        W63241   7.347   3.382   0.857
90817W        W63242  32.991  16.155  12.947
90818W        W63243   3.731  25.240  11.416
90819W        W63244  10.323  32.945   1.193
90820W        W63245  25.192  23.458   3.831
90821W        W63246   4.983   5.650  12.453
90822W        W63247  35.553  38.172  12.060
90823W        W63248   1.374  28.057   0.818
90824W        W63249  38.089  42.004  12.512
90825W        W63250  36.208  19.589   1.861
90826W        W63251  40.349  30.503  11.081
90827W        W63252   0.587   8.243  11.622
90828W        W63253  41.669  38.958   1.917
90829W        W63254  26.301  39.935  11.882
90830W        W63255  35.136  43.432   1.926
90831W        W63256   6.343  22.419   4.571
90832W        W63257  15.562  30.732  11.535
90833W        W63258  43.316  15.624  13.999
90834W        W63259  22.760  23.010  13.835
90835W        W63260  16.573   2.489  10.978
90836W        W63261  28.165  12.819   4.216
90837W        W63262  11.888  32.400  10.249
90838W        W63263  30.491  43.888  13.106
90839W        W63264  25.626   3.972  14.740
90840W        W63265   0.129   5.962   1.905
90841W        W63266   4.963  17.720  10.564
90842W        W63267   5.622  22.007  12.004
90843W        W63268  31.012   0.780   1.276
90844W        W63269  36.429  42.155   0.433
90845W        W63270  35.202  13.236  14.520
90846W        W63271   7.311   5.388  12.129
90847W        W63272   8.730  10.875  12.116
90848W        W63273  15.708  30.348  12.488
90849W        W63274  13.589  15.660   0.810
90850W        W63275  23.192  28.179  12.993
90851W        W63276  36.278  25.605  13.504
90852W        W63277  43.616  19.293  14.060
90853W        W63278  41.610  19.675   3.195
90854W        W63279  35.142  41.608  13.907
90855W        W63280  19.082  23.551   1.029
90856W        W63281   7.149   4.119  13.690
90857W        W63282  29.173  37.479   0.452
90858W        W63283  19.959  38.976  13.575
90859W        W63284  17.616  22.469   0.550
90860W        W63285   0.429   2.353  14.887
90861W        W63286  32.674   8.638   3.718
90862W        W63287  34.102   9.323  13.894
90863W        W63288  20.545  20.963  13.563
90864W        W63289  38.608  29.960  13.481
90865W        W63290  33.785   9.428  12.469
90866W        W63291  32.519  31.641   2.718
90867W        W63292   5.375  28.420   1.761
90868W        W63293   7.789  10.341  13.874
90869W        W63294  10.536  41.910  12.952
90870W        W63295  42.950  14.057  12.125
90871W        W63296  43.611  10.843  13.371
90872W        W63297  10.452  39.550  10.940
90873W        W63298   6.994  16.314  10.752
90874W        W63299  24.449  37.368  11.913
90875W        W63300  41.532  10.396  13.285
90876W        W63301  14.582  22.839  10.166
90877W        W63302  44.880  11.437   1.808
90878W        W63303   2.017  29.576  13.451
90879W        W63304  19.509   2.099  14.288
90880W        W63305   2.530  42.421  13.809
90881W        W63306  44.018   4.579  10.605
90882W        W63307  41.025  26.989   4.593
90883W        W63308   6.340  17.244  10.736
90884W        W63309  33.935  32.930  11.495
90885W        W63310  24.508  18.137  13.340
90886W        W63311  34.443  30.353   0.415
90887W        W63312  16.024  27.710  13.082
90888W        W63313  38.362   3.325  12.665
90889W        W63314  13.590  37.401   3.574
90890W        W63315  25.458  12.974  12.849
90891W        W63316  19.204   8.902   4.361
90892W        W63317   6.452  27.791  11.092
90893W        W63318   4.317  30.620  10.582
90894W        W63319  42.478   3.895   3.345
90895W        W63320  29.131   0.508   2.790
90896W        W63321  42.012  28.076   1.190
90897W        W63322   8.294  27.390  11.666
90898W        W63323  16.519  40.570   3.634
90899W        W63324  26.948  40.282   4.589
90900W        W63325  31.972   1.554   4.306
90901W        W63326  22.616   5.508  11.508
90902W        W63327  11.347  26.158  12.361
90903W        W63328  36.183  14.991  13.601
90904W        W63329  13.744  10.144   4.690
90905W        W63330  32.470  30.470  11.431
90906W        W63331   0.419   7.606  11.136
90907W        W63332  22.624  32.389  14.989
90908W        W63333  44.679  41.340   3.080
90909W        W63334  17.044  33.398   0.091
90910W        W63335  22.563  29.372  11.426
90911W        W63336  21.821  17.033   3.640
90912W        W63337  39.291  24.474  13.383
90913W        W63338  41.824  23.803  12.781
90914W        W63339  29.017  37.102  11.506
90915W        W63340  18.115  14.255  14.319
90916W        W63341  19.771   2.798  10.725
90917W        W63342  41.446  21.139   0.259
90918W        W63343  19.266   0.753   1.373
90919W        W63344  20.790  31.869  10.973
90920W        W63345   2.305  37.650  13.332
90921W        W63346  35.590  27.423   4.304
90922W        W63347  26.567  39.985   3.771
90923W        W63348  43.948   7.342   4.684
90924W        W63349  36.181  40.998   2.786
90925W        W63350  15.544  33.092   0.895
90926W        W63351  25.016  15.591   4.902
90927W        W63352  42.464  20.093   4.153
90928W        W63353  17.741   0.686   1.828
90929W        W63354  23.640  34.964  11.554
90930W        W63355  35.322  26.542  13.068
90931W        W63356  13.863   9.254   1.237
90932W        W63357   7.000  43.936  12.443
90933W        W63358   0.967  21.004  13.956
90934W        W63359   3.206  22.568   3.645
90935W        W63360  14.423  29.620   0.512
90936W        W63361  43.091  20.704  12.460
90937W        W63362  44.836  11.560  11.333
90938W        W63363  18.656   1.757   0.185
90939W        W63364   7.901   0.174  11.065
90940W        W63365   3.642   2.355   3.679
90941W        W63366  33.412  43.303   5.011
90942W        W63367  29.793  18.131  13.714
90943W        W63368  32.500  15.200   1.806
90944W        W63369  10.554   0.058   2.362
90945W        W63370  17.846  41.308  12.627
90946W        W63371  23.255  16.266   0.792
90947W        W63372  36.992  43.881  12.001
90948W        W63373  12.297  17.053  13.484
90949W        W63374   5.091  22.317  14.473
90950W        W63375  30.829  16.125  10.103
90951W        W63376  16.820  18.837   0.067
90952W        W63377  32.567   2.102  11.108
90953W        W63378  23.966  17.055   1.992
90954W        W63379  23.658   7.362  12.869
90955W        W63380  30.071  35.320  13.466
90956W        W63381   2.368  37.599   1.829
90957W        W63382  39.551  38.491   1.700
90958W        W63383   5.249   1.575   3.178
90959W        W63384  11.198  15.556  12.838
90960W        W63385  23.206  44.819  12.009
90961W        W63386  43.829  36.753  13.541
90962W        W63387  23.564  40.244  12.605
90963W        W63388   3.991  30.479   4.819
90964W        W63389  26.578  38.986  12.322
90965W        W63390  37.876   1.787  10.759
90966W        W63391  14.508   7.360  12.378
90967W        W63392  20.503  44.816  10.470
90968W        W63393   2.996   6.859  13.484
90969W        W63394  42.043  15.708  13.590
90970W        W63395  17.725  17.475  13.784
90971W        W63396  12.462  38.719  13.916
90972W        W63397  35.086  20.170   2.821
90973W        W63398  18.023   8.762   0.457
90974W        W63399   3.898  37.093   1.299
90975W        W63400  38.028   8.796   0.471
90976W        W63401  41.957  25.050   1.991
90977W        W63402   8.449   7.369  13.394
90978W        W63403  18.593  14.082  13.570
90979W        W63404  43.433  44.010  14.367
90980W        W63405   9.820  25.737  13.841
90981W        W63406  26.184  35.601  11.009
90982W        W63407  14.549  29.242  13.355
90983W        W63408  31.555  22.591  12.548
90984W        W63409  40.856   5.287   0.316
90985W        W63410  13.748  39.465  11.072
90986W        W63411  19.549  13.569  10.650
90987W        W63412   3.339  24.849  13.008
90988W        W63413   2.725  34.238   4.068
90989W        W63414  10.772  32.682   1.305
90990W        W63415  19.691  32.074  11.078
90991W        W63416  30.694  27.095  12.424
90992W        W63417  30.462  37.811  11.525
90993W        W63418  19.676  40.162   4.739
90994W        W63419  32.607   1.484  13.426
90995W        W63420  30.590   5.405   4.371
90996W        W63421  32.881  23.503  10.650
90997W        W63422  21.308  27.047   3.209
90998W        W63423  23.776  34.575   1.784
90999W        W63424  40.960  21.026  10.548
91000W        W63425  21.131  26.591   4.545
91001W        W63426  38.909  37.992  12.146
91002W        W63427   1.722  12.444   0.871
91003W        W63428  21.955  43.877  14.621
91004W        W63429  37.730  38.935   1.305
91005W        W63430  13.793  27.749  10.669
91006W        W63431  38.813   4.702  12.985
91007W        W63432  44.481   3.327  14.724
91008W        W63433   1.555  30.977   2.198
91009W        W63434  28.699  17.273  11.798
91010W        W63435  36.325  13.693   0.832
91011W        W63436  13.200  30.325  11.144
91012W        W63437  36.597  15.387   0.420
91013W        W63438   7.603  43.228  11.047
91014W        W63439  13.211  12.528   2.757
91015W        W63440   3.206   4.566  11.097
91016W        W63441  41.058  44.866   9.589
91017W        W63442  20.733   1.444   4.596
91018W        W63443  33.614  36.935   0.922
91019W        W63444  10.175  24.986  14.634
91020W        W63445  35.549  30.562  12.863
91021W        W63446  38.625  40.426  11.250
91022W        W63447  14.801   5.331   1.458
91023W        W63448  43.531   5.967   4.884
91024W        W63449   6.875  30.409  14.206
91025W        W63450  23.156  37.943  14.913
91026W        W63451  25.265   6.343  14.370
91027W        W63452  19.595  11.146   1.842
91028W        W63453  18.772   0.968   2.694
91029W        W63454  39.584  17.192   4.521
91030W        W63455  25.293  31.492  13.583
91031W        W63456  39.048   4.267   0.216
91032W        W63457  26.290  11.198  12.578
91033W        W63458  11.305  39.067  12.696
91034W        W63459  19.244   9.832   1.235
91035W        W63460  10.278   1.066   2.373
91036W        W63461   0.244  10.255  13.866
91037W        W63462  28.939   7.816  14.868
91038W        W63463  22.492   8.442  11.247
91039W        W63464  32.994   0.712   3.259
91040W        W63465  38.730  17.682   2.761
91041W        W63466   9.179  32.006   2.631
91042W        W63467  11.667  24.274  13.080
91043W        W63468  11.720  15.382  12.898
91044W        W63469  26.911  32.440   3.653
91045W        W63470  24.257  43.094  10.078
91046W        W63471  38.894  42.911  11.149
91047W        W63472  28.363   1.756  11.544
91048W        W63473  37.532  17.843   2.429
91049W        W63474  18.160  36.463  10.778
91050W        W63475  26.474  32.616   1.383
91051W        W63476  18.040  18.263   1.111
91052W        W63477  20.642  14.234   2.964
91053W        W63478   0.532  35.501   0.347
91054W        W63479   1.883   4.149  11.304
91055W        W63480  21.500  27.776  10.497
91056W        W63481  15.002  41.003   4.214
91057W        W63482  18.520  18.171   3.601
91058W        W63483  17.057  17.528   2.584
91059W        W63484  36.728  22.372  10.579
91060W        W63485  29.974  25.025  12.268
91061W        W63486   2.269  16.291   2.414
91062W        W63487   8.849  44.758   2.388
91063W        W63488   4.457  34.067   4.595
91064W        W63489  34.322   0.487   2.624
91065W        W63490  21.975  14.168  12.103
91066W        W63491  26.358  35.914  14.518
91067W        W63492  32.107   0.880  11.432
91068W        W63493   7.935  36.032  11.097
91069W        W63494   6.998  33.401   4.213
91070W        W63495  28.167  40.897  11.082
91071W        W63496  38.935  36.996   1.858
91072W        W63497  23.961   9.079   2.405
91073W        W63498   0.332  36.391   3.970
91074W        W63499   4.660   9.765   0.167
91075W        W63500   8.677   7.212  14.979
91076W        W63501  14.512  17.550   1.788
91077W        W63502  43.872  27.350  13.532
91078W        W63503  13.125   7.792  10.979
91079W        W63504  13.297  22.166  11.112
91080W        W63505  25.279  38.519   1.961
91081W        W63506   5.497  25.509   4.520
91082W        W63507   1.280  36.724   3.670
91083W        W63508  35.419   1.751   2.222
91084W        W63509  31.572   2.197   4.696
91085W        W63510  15.777  38.980  10.975
91086W        W63511  42.837  32.126   3.616
91087W        W63512   2.241  41.437   3.722
91088W        W63513   1.243  29.500  14.901
91089W        W63514   1.748   3.467   1.467
91090W        W63515   7.722  27.658   4.112
91091W        W63516  42.328  19.541  13.061
91092W        W63517  40.306  44.866   2.184
91093W        W63518  39.582  31.099  12.154
91094W        W63519  13.093   1.737   4.062
91095W        W63520  43.829  20.981   3.203
91096W        W63521  22.704  38.882   0.995
91097W        W63522  33.640   8.420   2.587
91098W        W63523  22.705  24.255   1.422
91099W        W63524  24.137   0.017   1.602
91100W        W63525   6.071  42.818  12.446
91101W        W63526  11.235  37.079  12.936
91102W        W63527  41.521  24.563  11.157
91103W        W63528  18.064  30.518  12.100
91104W        W63529   5.244  10.466   3.760
91105W        W63530  37.347  44.898   1.735
91106W        W63531  41.462  12.992  14.417
91107W        W63532  11.142   4.962  14.804
91108W        W63533  29.303  32.005  11.067
91109W        W63534  26.931   6.189  11.130
91110W        W63535  44.980  35.503   2.249
91111W        W63536  25.392  37.558   0.120
91112W        W63537   4.405  26.536  14.090
91113W        W63538  27.596  43.724   2.275
91114W        W63539  11.428  36.838   3.206
91115W        W63540  33.846  17.652   2.353
91116W        W63541   4.427  35.433  14.798
91117W        W63542   4.477  43.994  13.219
91118W        W63543  31.459   6.750   4.585
91119W        W63544  38.828  12.914  14.766
91120W        W63545   8.717   2.443   0.823
91121W        W63546  33.029  31.670  12.387
91122W        W63547  32.976  44.279   4.615
91123W        W63548  36.128  15.277   3.691
91124W        W63549  12.382  34.896   3.828
91125W        W63550  31.030   9.440   1.849
91126W        W63551  26.174  26.377  11.105
91127W        W63552  27.634  21.646  12.504
91128W        W63553   5.769  24.450  14.798
91129W        W63554  44.800  41.755   2.217
91130W        W63555  17.869  31.027  12.611
91131W        W63556  41.458  29.859   0.088
91132W        W63557   2.219  35.989   1.797
91133W        W63558  33.391  22.171  10.883
91134W        W63559  34.530   8.163   2.390
91135W        W63560   9.452  29.505  13.401
91136W        W63561  41.410  16.344   0.778
91137W        W63562  19.578  36.619   0.360
91138W        W63563  38.013  15.474   3.530
91139W        W63564  22.787  35.875  10.975
91140W        W63565   0.542  41.751  12.597
91141W        W63566  16.224  35.158   4.817
91142W        W63567  42.378  16.984  13.788
91143W        W63568  22.900  24.437   1.892
91144W        W63569  43.340  22.160   1.041
91145W        W63570  36.716  39.146   4.601
91146W        W63571  30.217  39.505   4.801
91147W        W63572  32.354  39.601  12.083
91148W        W63573   1.990  14.419  12.326
91149W        W63574  26.557  33.531   2.769
91150W        W63575  35.391  16.092   4.299
91151W        W63576  29.602  35.026   0.186
91152W        W63577  26.235  31.997  10.216
91153W        W63578  29.938  40.914  14.171
91154W        W63579   5.341  10.259  13.016
91155W        W63580  24.971   4.894  14.057
91156W        W63581  26.986  30.131  12.122
91157W        W63582  20.091  33.867  10.657
91158W        W63583  40.097  43.919  12.890
91159W        W63584  12.827  20.295   4.469
91160W        W63585  13.205  37.402   3.233
91161W        W63586  22.748  21.664  13.040
91162W        W63587  30.436  16.578   0.316
91163W        W63588  18.092  27.196   1.471
91164W        W63589  26.211  37.950   3.901
91165W        W63590  28.004  13.284  14.672
91166W        W63591  21.362  38.803   4.638
91167W        W63592  44.756  20.603   0.328
91168W        W63593  20.126   6.274   1.441
91169W        W63594  33.696  26.449   0.909
91170W        W63595  15.584  19.287   1.263
91171W        W63596  32.682   5.818   0.172
91172W        W63597  24.521  26.789   3.461
91173W        W63598  23.344  39.970   2.828
91174W        W63599  22.126  19.076  13.077
91175W        W63600  28.214  25.232   4.531
91176W        W63601  42.983  24.490  12.670
91177W        W63602  22.619  26.440   5.053
91178W        W63603  39.834   3.483  11.648
91179W        W63604  32.014  18.120  11.998
91180W        W63605  16.636  29.931   2.414
91181W        W63606  29.631  24.298   3.608
91182W        W63607   9.546   6.654  12.255
91183W        W63608  40.847  42.963  10.712
91184W        W63609  21.106   8.606  11.077
91185W        W63610   2.807  25.462   1.905
91186W        W63611  43.390   2.361   3.107
91187W        W63612  34.880  30.918  13.965
91188W        W63613  12.293  38.406   1.356
91189W        W63614  35.214   8.733  11.050
91190W        W63615  37.534   5.163  13.978
91191W        W63616   4.922  26.723  14.866
91192W        W63617   4.567  39.421   3.146
91193W        W63618  39.416  18.922  10.642
91194W        W63619  19.765  43.800  11.625
91195W        W63620   0.531  40.712   3.769
91196W        W63621  40.563  29.616   1.175
91197W        W63622  41.295  11.343  13.475
91198W        W63623  24.178  21.605  14.312
91199W        W63624  20.083  29.147   1.358
91200W        W63625   2.163  39.417   3.444
91201W        W63626  20.819  17.533   0.612
91202W        W63627  20.275  18.195  12.024
91203W        W63628  21.058  40.767  14.598
91204W        W63629  37.626  19.752   4.307
91205W        W63630  14.298  30.691   0.506
91206W        W63631  40.392  20.476  12.002
91207W        W63632  36.529   1.727   3.190
91208W        W63633  17.293   0.209  12.465
91209W        W63634  29.475  21.477   0.885
91210W        W63635   5.925  27.496  14.042
91211W        W63636   6.404   5.842  12.431
91212W        W63637  12.554  24.227  10.540
91213W        W63638  21.027  28.535  13.936
91214W        W63639  38.408  37.407  14.333
91215W        W63640  18.167   4.202   4.669
91216W        W63641  12.608  30.578   0.360
91217W        W63642  42.379  10.672  14.927
91218W        W63643  25.077   8.752  10.797
91219W        W63644  32.550  20.574   1.432
91220W        W63645  16.531  43.474  14.353
91221W        W63646  29.211  27.762   4.676
91222W        W63647   7.302  25.498  14.680
91223W        W63648  30.686  25.558   1.341
91224W        W63649  31.151  19.541  14.920
91225W        W63650  41.726  39.446   0.360
91226W        W63651  42.787  18.768   0.991
91227W        W63652  35.938  11.846  12.375
91228W        W63653  33.508  43.413   0.619
91229W        W63654  11.244  33.868  13.265
91230W        W63655  41.263  44.165  14.742
91231W        W63656  28.305   7.872   3.717
91232W        W63657  14.239   0.477  13.788
91233W        W63658  37.783   3.433   1.964
91234W        W63659   2.950  38.575  11.921
91235W        W63660  40.520  18.579   2.719
91236W        W63661  26.586  38.368   1.900
91237W        W63662   5.219  34.313   2.378
91238W        W63663  41.858   0.285  14.289
91239W        W63664   6.729  22.484  12.520
91240W        W63665  17.757  29.192   2.301
91241W        W63666  32.604  18.578   0.699
91242W        W63667  15.329  38.050  12.196
91243W        W63668  16.401  31.007  10.652
91244W        W63669  18.686   9.264  14.472
91245W        W63670  30.551  16.531   9.832
91246W        W63671  29.503  21.732  12.102
91247W        W63672  28.714   2.808   1.193
91248W        W63673  11.796   0.424  13.239
91249W        W63674  17.737  37.998  13.263
91250W        W63675  24.767   2.548   4.179
91251W        W63676  11.047   1.425   3.676
91252W        W63677  41.497  37.472   4.587
91253W        W63678   4.386  13.534  12.993
91254W        W63679   3.334  35.225   2.355
91255W        W63680   8.155  13.044   4.040
91256W        W63681  40.846  14.150  13.423
91257W        W63682  34.046  39.781   1.779
91258W        W63683  30.917  28.617  13.345
91259W        W63684  15.706  41.817   3.384
91260W        W63685  38.198   3.643   1.683
91261W        W63686   8.867   1.292   0.793
91262W        W63687   9.956  17.308   0.295
91263W        W63688  29.146  27.425  12.939
91264W        W63689   7.722  17.647  10.660
91265W        W63690  32.589   7.778  13.458
91266W        W63691  41.859  21.727   3.530
91267W        W63692  26.532  32.107   1.324
91268W        W63693  35.037  20.597  11.513
91269W        W63694   5.310  34.856   4.574
91270W        W63695   1.257  22.291   0.959
91271W        W63696   8.375  43.432   2.988
91272W        W63697  33.869  21.942  11.457
91273W        W63698  38.327  24.452  13.516
91274W        W63699   6.846  25.454   0.404
91275W        W63700  34.294  42.253  13.941
91276W        W63701  29.373  24.438   4.818
91277W        W63702  34.578  29.181   4.354
91278W        W63703  40.351   5.440  12.993
91279W        W63704  23.114  23.692   0.505
91280W        W63705  16.133  35.785   5.255
91281W        W63706  34.661   3.904  14.922
91282W        W63707   5.454  32.100  12.545
91283W        W63708  41.926  32.584  11.555
91284W        W63709  34.940  13.796  10.725
91285W        W63710  33.465   6.863   0.463
91286W        W63711  27.946  14.378   2.798
91287W        W63712  30.452   5.556   3.865
91288W        W63713  39.041  44.172   3.709
91289W        W63714  28.106  30.246   0.392
91290W        W63715  36.983  22.267  14.724
91291W        W63716  18.576  43.751   4.332
91292W        W63717  15.695   1.008   4.618
91293W        W63718  43.551  36.072  12.957
91294W        W63719  16.835  14.174   2.291
91295W        W63720   1.726  22.765  12.942
91296W        W63721   2.526  29.638   3.566
91297W        W63722   9.904  21.222  14.907
91298W        W63723  11.432  33.557   4.936
91299W        W63724  27.424  40.134   4.557
91300W        W63725  42.749  20.229   0.373
91301W        W63726  29.459  18.305   0.506
91302W        W63727  29.816  12.205   3.151
91303W        W63728  29.489  41.475   4.788
91304W        W63729  15.213  16.823   3.162
91305W        W63730  32.664   9.348  14.065
91306W        W63731  44.251  13.576   4.491
91307W        W63732  21.266  42.618   3.143
91308W        W63733  23.988  39.889   4.555
91309W        W63734  23.165  13.740  10.940
91310W        W63735   0.669  14.385   0.719
91311W        W63736  30.966  16.432  13.990
91312W        W63737  44.879  24.472  13.447
91313W        W63738  32.576  39.413   0.277
91314W        W63739  11.286  42.158  11.985
91315W        W63740  14.646   0.672   1.436
91316W        W63741  17.328  13.444   3.775
91317W        W63742  43.341  35.430   2.631
91318W        W63743  32.518  14.609   0.427
91319W        W63744   3.878  38.276   4.730
91320W        W63745  32.028  13.716   1.859
91321W        W63746  31.373   5.194  10.607
91322W        W63747  10.692   2.335  14.786
91323W        W63748  36.694  24.056   3.279
91324W        W63749  34.938  22.555   4.431
91325W        W63750  12.183   5.796  11.971
91326W        W63751  37.546  25.145  11.012
91327W        W63752  13.133   0.815   4.308
91328W        W63753  38.126  11.100   3.294
91329W        W63754  29.554   6.104   4.092
91330W        W63755  21.216  38.398  13.484
91331W        W63756  15.747  17.204   2.232
91332W        W63757   5.275  26.939   0.861
91333W        W63758  34.617  25.512  14.541
91334W        W63759  42.306  28.988   2.399
91335W        W63760  37.586  29.139  14.476
91336W        W63761  10.840  42.856   3.722
91337W        W63762  34.604  26.888  14.748
91338W        W63763   1.499   8.735   1.468
91339W        W63764  38.010  16.033  12.826
91340W        W63765   4.920  16.422   4.288
91341W        W63766  22.124  13.221   4.461
91342W        W63767   9.393   8.833  12.864
91343W        W63768  43.402  24.743  14.723
91344W        W63769  31.983   2.403  13.400
91345W        W63770  17.154  22.590   1.290
91346W        W63771  43.369  11.246   4.843
91347W        W63772  23.044  40.948   0.403
91348W        W63773  18.033  31.557   2.582
91349W        W63774  10.298  10.730  14.697
91350W        W63775   1.299  38.949   3.607
91351W        W63776  27.026   4.280  11.585
91352W        W63777  28.172   7.165  13.351
91353W        W63778  22.783   2.550   1.082
91354W        W63779  41.837  22.340   1.477
91355W        W63780  43.868   9.095   0.237
91356W        W63781  27.004  29.180   2.236
91357W        W63782   8.744  10.713   4.874
91358W        W63783  18.363   5.243   2.732
91359W        W63784  39.620   0.024   4.545
91360W        W63785  42.993  21.032   0.857
91361W        W63786  11.251  39.949  10.731
91362W        W63787   6.229   6.924   0.936
91363W        W63788  10.421   9.292   2.179
91364W        W63789   1.307  19.832  14.567
91365W        W63790   6.695  37.991   0.391
91366W        W63791  13.693   5.012  10.454
91367W        W63792  39.824  12.735  12.369
91368W        W63793   4.561  33.545  10.868
91369W        W63794  23.212   1.748   4.562
91370W        W63795  25.978  11.188  13.007
91371W        W63796   8.454  10.363  11.544
91372W        W63797  39.878  42.311  13.044
91373W        W63798  10.238  19.300  13.136
91374W        W63799  30.681   8.259   3.174
91375W        W63800  40.414  16.457  13.015
91376W        W63801  23.653  14.173  12.511
91377W        W63802   3.774   4.905  13.801
91378W        W63803  32.522  27.171   3.841
91379W        W63804  43.534  13.263   0.948
91380W        W63805  22.618  35.947  12.418
91381W        W63806  14.840  20.107  11.152
91382W        W63807  18.252  26.590  14.536
91383W        W63808  26.695  18.083   1.778
91384W        W63809  33.620  18.565   2.786
91385W        W63810   0.532  12.025   1.300
91386W        W63811   2.932  19.529  14.904
91387W        W63812  32.337  43.453  11.601
91388W        W63813  21.698   9.328   1.917
91389W        W63814   9.804  38.563  10.822
91390W        W63815  16.811  29.029  14.885
91391W        W63816  26.658  14.735   4.157
91392W        W63817  12.268   2.151   2.301
91393W        W63818  43.457  28.439   0.580
91394W        W63819  37.107  28.559   0.432
91395W        W63820  18.167  42.545   1.030
91396W        W63821  25.476  10.793  13.506
91397W        W63822  34.711  13.983  13.071
91398W        W63823  34.342  17.638   2.212
91399W        W63824   2.930  32.922  12.616
91400W        W63825  13.078  43.920  12.920
91401W        W63826  35.958  31.015   4.554
91402W        W63827  40.838  22.490  10.696
91403W        W63828  17.121  19.906  12.903
91404W        W63829   6.730  29.978  13.959
91405W        W63830  14.009  44.485   3.594
91406W        W63831  22.225  19.309   4.055
91407W        W63832  33.633  33.194   2.555
91408W        W63833  36.190  32.804  12.800
91409W        W63834  25.554  32.419  13.547
91410W        W63835  42.373  10.835  13.946
91411W        W63836  17.482  34.834   1.842
91412W        W63837  24.067  24.915   5.067
91413W        W63838  37.596  44.029   2.276
91414W        W63839  22.340  24.175  14.378
91415W        W63840   4.422  13.158   2.605
91416W        W63841  26.170  43.098   2.437
91417W        W63842  27.908  29.666   2.100
91418W        W63843   1.735  14.677   1.833
91419W        W63844  15.245   9.215  13.634
91420W        W63845  31.142  29.233   1.403
91421W        W63846  20.672  28.164   4.344
91422W        W63847  18.965  19.608   2.205
91423W        W63848  28.218  29.256  14.450
91424W        W63849  15.219  44.484  11.491
91425W        W63850   0.552  12.113  14.800
91426W        W63851  13.260   2.447   4.226
91427W        W63852   2.870   6.832   4.562
91428W        W63853  43.709  30.939   2.235
91429W        W63854  12.173  16.970  11.192
91430W        W63855  21.769  41.301   1.291
91431W        W63856  31.481  36.353  13.432
91432W        W63857  23.367   3.254  13.512
91433W        W63858  15.231  18.214   4.426
91434W        W63859  23.370  25.239   0.843
91435W        W63860  44.798  12.658   2.150
91436W        W63861   8.729  39.813   1.832
91437W        W63862  33.932  26.953  12.080
91438W        W63863  26.569   1.780  11.540
91439W        W63864   1.389  23.701   0.504
91440W        W63865  35.737  18.966  10.644
91441W        W63866  31.196  20.704   4.885
91442W        W63867  27.698   6.937   0.345
91443W        W63868  31.133  32.247  14.188
91444W        W63869   8.696  30.282  11.118
91445W        W63870  18.058  18.627   2.762
91446W        W63871  27.459   6.729   2.824
91447W        W63872  13.490   3.950   1.560
91448W        W63873  39.993  29.364   1.841
91449W        W63874  28.883  43.175  14.635
91450W        W63875   7.784  44.813  11.974
91451W        W63876  35.986  25.400   2.884
91452W        W63877  22.517  14.390   1.315
91453W        W63878  29.546  44.946  10.693
91454W        W63879   7.149  23.277   4.093
91455W        W63880   4.645  19.801  11.919
91456W        W63881  44.882  35.164  11.856
91457W        W63882  31.161   5.602  13.285
91458W        W63883  32.595  35.597   4.792
91459W        W63884   1.779  37.417   4.617
91460W        W63885  10.784  34.738  14.984
91461W        W63886  44.559   5.821  11.012
91462W        W63887  16.607  17.459  14.496
91463W        W63888  39.854   7.963   3.348
91464W        W63889  28.067   4.862   0.880
91465W        W63890  27.880  27.917  11.378
91466W        W63891  29.488  33.485   3.500
91467W        W63892   6.425  12.567  14.952
91468W        W63893  34.922   4.512   3.134
91469W        W63894  21.956  11.845   2.200
91470W        W63895  21.497   3.705   3.739
91471W        W63896  35.740  24.667   2.833
91472W        W63897   0.405  41.088   3.382
91473W        W63898  32.675   5.494   4.606
91474W        W63899  40.317   0.203  12.015
91475W        W63900  17.964  10.391   2.776
91476W        W63901  27.942  41.622  14.992
91477W        W63902  12.664   5.688   1.022
91478W        W63903  26.033  22.257  12.825
91479W        W63904   8.411  34.085  11.615
91480W        W63905  20.428  18.535   2.638
91481W        W63906  35.345   2.009  10.612
91482W        W63907  11.572  26.114  11.155
91483W        W63908  19.624  39.604   2.637
91484W        W63909  26.387  27.596   0.855
91485W        W63910  24.462  15.627  13.923
91486W        W63911   4.389   2.727  10.558
91487W        W63912  29.447  10.558  12.068
91488W        W63913   2.457  35.549  12.582
91489W        W63914  20.534  35.433  11.538
91490W        W63915  13.676  42.535  13.502
91491W        W63916   9.323   7.927   3.639
91492W        W63917  30.039   0.535  14.135
91493W        W63918  41.534   9.888  12.009
91494W        W63919  29.175  10.255   0.358
91495W        W63920  10.398  23.245   1.822
91496W        W63921  13.425  15.667   3.726
91497W        W63922  13.426   2.002  13.012
91498W        W63923  32.453  13.372   1.681
91499W        W63924  37.136  37.104  11.471
91500W        W63925  13.614   0.241   2.400
91501W        W63926   9.523  42.944  14.850
91502W        W63927   8.020   6.393   5.369
91503W        W63928  31.494  43.838   1.344
91504W        W63929  27.536  12.274   0.220
91505W        W63930  37.977  41.088  13.982
91506W        W63931  26.883   1.861  11.084
91507W        W63932  24.056  36.108   4.508
91508W        W63933  30.165   3.829  12.480
91509W        W63934  22.197  41.369  13.529
91510W        W63935  22.606   3.397   3.156
91511W        W63936  30.793   2.766  13.899
91512W        W63937  21.301  32.812  14.355
91513W        W63938  12.312  24.682  14.073
91514W        W63939  18.983   5.971  14.793
91515W        W63940  10.664  39.444   4.400
91516W        W63941  17.474   8.753   0.415
91517W        W63942  22.052  40.987   3.811
91518W        W63943  20.681  34.097  11.292
91519W        W63944  11.692  24.010   3.804
91520W        W63945   3.440  23.512  13.064
91521W        W63946  21.267  28.373  14.743
91522W        W63947  26.711  17.061   2.761
91523W        W63948  43.060  29.830  12.508
91524W        W63949  29.514  32.875   4.226
91525W        W63950  23.910   9.269  11.054
91526W        W63951  20.132   9.410   1.885
91527W        W63952  32.965   4.952   3.741
91528W        W63953  37.588   2.573   2.223
91529W        W63954  33.663  25.425  13.974
91530W        W63955  39.509   0.750  14.055
91531W        W63956  39.514  17.036   3.201
91532W        W63957  40.316  30.851   1.694
91533W        W63958  12.298  43.544   1.937
91534W        W63959  26.067  24.802   0.180
91535W        W63960  43.423  40.490  12.355
91536W        W63961  11.127  17.360   4.539
91537W        W63962  10.312   8.766  10.680
91538W        W63963  33.101  29.262  14.041
91539W        W63964  12.690   4.274  11.607
91540W        W63965  15.584  19.291   3.699
91541W        W63966  40.311  24.015  12.637
91542W        W63967  26.931   7.099   5.183
91543W        W63968  18.720   6.359  11.300
91544W        W63969  18.099  11.799  12.473
91545W        W63970  12.353  31.435   4.434
91546W        W63971  17.592  34.419   0.348
91547W        W63972  25.945  14.213  14.922
91548W        W63973  26.358  33.001   5.055
91549W        W63974  32.951   5.841  10.635
91550W        W63975  36.597  21.642   0.956
91551W        W63976  26.572  12.177  14.347
91552W        W63977  36.868  18.563  12.560
91553W        W63978   4.947  20.265  14.908
91554W        W63979  39.830  24.743   2.682
91555W        W63980  32.447   1.959  14.423
91556W        W63981  21.184  27.551  14.059
91557W        W63982   1.276  38.759   2.758
91558W        W63983  15.784  24.627  12.560
91559W        W63984  14.299  25.535   1.800
91560W        W63985  10.308  40.481   4.476
91561W        W63986  24.406  38.416   1.714
91562W        W63987  29.358  40.791  12.775
91563W        W63988  23.177   4.577   0.507
91564W        W63989   4.232   8.106  13.350
91565W        W63990  43.523   9.298   2.268
91566W        W63991  36.106  34.237  12.111
91567W        W63992  27.538  29.877   0.900
91568W        W63993  41.832  29.922   1.332
91569W        W63994  30.884   1.329  10.937
91570W        W63995   1.779  25.717  14.200
91571W        W63996  39.587  26.514   2.526
91572W        W63997  30.103  36.557   0.395
91573W        W63998  31.445  44.779   3.307
91574W        W63999  32.748  40.393  11.509
91575W        W64000  16.158  43.166   3.754
91576W        W64001   9.886  23.901  12.847
91577W        W64002  33.427   1.290   4.456
91578W        W64003  29.951  11.708  11.376
91579W        W64004  20.716  22.558  12.995
91580W        W64005  28.484  41.292   1.003
91581W        W64006  37.564  24.548  11.375
91582W        W64007  38.008  18.565   2.180
91583W        W64008  27.250  11.775   1.783
91584W        W64009  19.313  33.525  10.194
91585W        W64010  30.359  20.775  13.523
91586W        W64011  42.140  24.675  10.913
91587W        W64012  23.411  17.404  12.391
91588W        W64013   2.576  23.083   0.692
91589W        W64014  44.607  35.587   0.122
91590W        W64015  14.176  43.761  12.176
91591W        W64016  20.815  12.357  10.664
91592W        W64017  17.779   6.889  11.236
91593W        W64018  31.731  31.602  10.560
91594W        W64019   6.841  14.309   0.006
91595W        W64020   1.027  39.562  12.113
91596W        W64021  31.437  39.841   3.552
91597W        W64022  30.636  23.706  12.091
91598W        W64023  10.372  22.532  14.945
91599W        W64024  29.254  22.199   1.015
91600W        W64025  40.254   4.390  13.035
91601W        W64026  16.684  43.340  13.813
91602W        W64027  37.488  12.854   0.389
91603W        W64028   0.630  32.799  11.032
91604W        W64029  29.407  30.413   5.668
91605W        W64030  12.691   7.467   1.239
91606W        W64031  10.920   3.491  11.224
91607W        W64032  27.374  12.308  12.064
91608W        W64033  24.945  11.242   3.794
91609W        W64034   7.935  42.592   1.263
91610W        W64035  11.829  24.683   1.234
91611W        W64036  31.923  36.464   4.109
91612W        W64037  26.560  32.581  14.004
91613W        W64038  37.881  25.909  12.894
91614W        W64039  14.476  15.476  11.112
91615W        W64040  28.938  19.128  11.189
91616W        W64041  29.754  41.134   4.084
91617W        W64042  30.657  28.992   2.283
91618W        W64043  43.228  28.486  11.216
91619W        W64044   4.698  27.089   3.808
91620W        W64045  28.643   7.830   3.284
91621W        W64046   8.440  25.722  11.095
91622W        W64047  38.300  31.010  13.504
91623W        W64048  44.673  14.626   0.968
91624W        W64049  15.787  10.164  14.431
91625W        W64050  29.127  29.211   4.419
91626W        W64051  20.203  39.487  10.959
91627W        W64052  44.261   5.673   4.218
91628W        W64053  39.342   9.438  11.163
91629W        W64054  36.683  27.249   4.611
91630W        W64055  38.382  25.026   1.941
91631W        W64056  25.519  29.696  12.035
91632W        W64057   0.083  12.949   1.798
91633W        W64058  27.670  23.092   3.509
91634W        W64059  23.138   3.245   0.454
91635W        W64060  27.984  33.885   4.124
91636W        W64061  11.987   6.465   5.143
91637W        W64062  13.168   0.526   4.905
91638W        W64063  22.637  29.672   4.538
91639W        W64064  20.624  19.620  11.352
91640W        W64065  16.094   6.250  14.746
91641W        W64066   1.795   3.279  14.017
91642W        W64067   3.417   3.087  12.883
91643W        W64068  32.512  18.235   2.409
91644W        W64069  33.447  17.276  11.632
91645W        W64070  17.763  32.559  12.412
91646W        W64071  17.613  44.255   1.674
91647W        W64072  12.559   9.090  13.638
91648W        W64073  16.517  31.340   5.659
91649W        W64074  36.390   1.819   1.284
91650W        W64075   6.206  42.530   3.833
91651W        W64076  34.895   0.589  11.997
91652W        W64077  16.498  11.294  14.972
91653W        W64078  29.488  22.422   0.363
91654W        W64079  19.436   7.242  10.800
91655W        W64080  33.008  35.616  12.029
91656W        W64081  44.389   6.104   4.481
91657W        W64082  28.643   6.762   4.556
91658W        W64083  34.036  16.585   4.061
91659W        W64084  24.053  25.315  12.147
91660W        W64085  12.665   6.733   1.039
91661W        W64086  43.901  28.658   3.017
91662W        W64087  34.573  23.937   1.868
91663W        W64088  29.215  34.050  11.794
91664W        W64089  20.039  42.040  14.460
91665W        W64090  43.974  13.376  14.044
91666W        W64091   3.916  12.296  10.724
91667W        W64092  34.653  26.568   3.965
91668W        W64093   5.321  44.202  10.624
91669W        W64094  41.223  17.793   1.290
91670W        W64095  26.038  30.629  14.803
91671W        W64096   8.885   3.411  13.195
91672W        W64097  31.612  11.087  14.831
91673W        W64098   0.705  21.709   1.423
91674W        W64099  34.961  44.015  14.033
91675W        W64100  42.595  15.059  12.047
91676W        W64101   6.664  43.026  14.425
91677W        W64102   4.438  41.282   1.674
91678W        W64103  24.431  43.021  13.682
91679W        W64104  30.058  23.300   3.116
91680W        W64105   9.257  43.504   3.908
91681W        W64106  36.996   8.269   2.663
91682W        W64107  28.690  27.394   2.273
91683W        W64108  24.297  38.359   1.221
91684W        W64109  28.159  16.983  14.065
91685W        W64110  34.064  21.410   2.511
91686W        W64111  29.023  17.124   4.415
91687W        W64112  13.102  14.829   4.174
91688W        W64113  37.901  31.195  12.062
91689W        W64114  35.179  16.922   4.602
91690W        W64115  27.400  11.584  11.805
91691W        W64116  16.046  22.529   0.622
91692W        W64117  42.081   8.196   3.514
91693W        W64118  39.003  31.712   4.534
91694W        W64119   1.915  28.191  13.964
91695W        W64120  28.672  26.391  12.349
91696W        W64121  27.038  41.247   3.793
91697W        W64122   5.850  25.168   0.354
91698W        W64123  39.848  36.603  14.327
91699W        W64124   2.509  29.467  13.040
91700W        W64125  41.936  15.073   2.849
91701W        W64126  31.140  41.041   4.360
91702W        W64127   6.594  15.582  11.193
91703W        W64128  16.701  37.962  11.337
91704W        W64129   6.436  42.044  14.295
91705W        W64130  26.779   2.728   2.319
91706W        W64131  21.015  27.895  10.210
91707W        W64132  33.008  26.479  12.051
91708W        W64133   8.066   0.416  12.759
91709W        W64134  42.804  33.488   4.271
91710W        W64135  27.542   1.767  12.416
91711W        W64136  44.005   7.340  14.065
91712W        W64137   3.197  33.855  13.018
91713W        W64138  23.977  39.503  11.118
91714W        W64139  12.383   9.783   1.621
91715W        W64140   1.445  18.918  12.897
91716W        W64141  40.057  12.233   0.419
91717W        W64142  14.218  27.319  11.158
91718W        W64143  19.667  18.242   3.107
91719W        W64144   7.347   9.305   3.866
91720W        W64145  18.095  27.241  13.554
91721W        W64146   3.496  18.863   1.906
91722W        W64147  21.997  37.511  14.308
91723W        W64148  33.415  12.803   3.655
91724W        W64149  15.347  15.672  14.567
91725W        W64150  24.775  30.390   0.910
91726W        W64151  12.772  13.682   1.901
91727W        W64152   2.767  36.561   1.212
91728W        W64153  37.845  43.486  10.083
91729W        W64154  37.433   3.941  14.407
91730W        W64155  43.359   0.018   1.327
91731W        W64156  33.660  23.589  11.984
91732W        W64157   4.791   3.869   0.562
91733W        W64158  15.325  38.110   3.266
91734W        W64159   2.292  27.095   0.510
91735W        W64160   2.908  30.937   3.382
91736W        W64161  38.877  39.400   3.285
91737W        W64162  39.845  23.523   0.776
91738W        W64163  34.109  22.820  14.733
91739W        W64164  14.461  41.022  13.012
91740W        W64165  37.303   2.267   4.351
91741W        W64166   3.421  42.436   1.422
91742W        W64167  26.592  19.245  11.975
91743W        W64168   7.358   2.523  12.640
91744W        W64169  34.378  16.994   4.191
91745W        W64170  25.107  14.030   1.861
91746W        W64171   8.458  33.815  13.025
91747W        W64172  30.145  16.177   3.779
91748W        W64173  33.520  23.210   1.935
91749W        W64174  36.941  34.582   2.579
91750W        W64175  14.290   9.219   3.911
91751W        W64176  22.717  26.289  10.791
91752W        W64177  14.870  11.342  13.106
91753W        W64178  40.577  14.788   3.611
91754W        W64179   1.504  13.442  12.412
91755W        W64180  12.556  39.076  13.574
91756W        W64181  30.929  37.122  11.539
91757W        W64182   2.924  22.277  12.703
91758W        W64183  40.700  29.974   3.263
91759W        W64184  34.229  13.851   0.876
91760W        W64185  44.485  13.883   2.581
91761W        W64186   1.814   8.410   1.826
91762W        W64187  38.023  39.408  11.922
91763W        W64188  42.488   6.315   3.270
91764W        W64189  28.467  43.512   3.769
91765W        W64190  18.238  35.323   1.927
91766W        W64191   2.690   4.654   0.875
91767W        W64192  12.747  12.854   4.338
91768W        W64193   8.216  36.840  14.986
91769W        W64194  44.788  22.079   4.929
91770W        W64195  10.625  23.259  12.846
91771W        W64196  19.147  33.415  13.862
91772W        W64197   5.322  26.897  14.176
91773W        W64198  33.140   2.588   3.522
91774W        W64199  21.475  38.047   1.871
91775W        W64200   1.387  15.576  10.661
91776W        W64201  33.069  13.189   4.299
91777W        W64202  37.437  22.578   0.878
91778W        W64203  29.212  17.764  12.861
91779W        W64204   6.162  35.956  13.079
91780W        W64205   5.222  28.684   1.335
91781W        W64206  39.331   5.455  12.094
91782W        W64207  15.877  11.343   4.062
91783W        W64208  30.277  23.544  14.425
91784W        W64209  27.903  28.632   0.777
91785W        W64210  31.004  34.604   0.418
91786W        W64211   1.857  33.120   0.834
91787W        W64212  20.539  12.039   1.409
91788W        W64213  43.911  42.302   4.910
91789W        W64214  30.987   2.901  14.361
91790W        W64215  10.830  14.678  14.372
91791W        W64216  13.202  28.081  14.936
91792W        W64217  37.492  42.307  14.672
91793W        W64218  23.217   1.769  12.365
91794W        W64219  19.028   7.045   3.296
91795W        W64220  39.968  38.973   4.448
91796W        W64221  43.541  25.466  13.824
91797W        W64222   9.168   1.760   0.289
91798W        W64223  17.938   2.897   2.219
91799W        W64224  16.493  34.846   1.605
91800W        W64225  43.428  41.480  13.760
91801W        W64226  24.466  19.102  14.983
91802W        W64227   8.066  27.988   3.145
91803W        W64228  11.835  17.620   0.860
91804W        W64229  15.687   9.436   4.058
91805W        W64230   6.612   2.423  14.269
91806W        W64231  23.449   7.946  14.031
91807W        W64232  17.947  23.329  11.891
91808W        W64233   2.430  33.876   5.037
91809W        W64234  22.622  11.438  12.199
91810W        W64235   1.564   1.404   0.768
91811W        W64236  26.420  24.889   2.698
91812W        W64237   6.840  16.032   3.233
91813W        W64238  35.726  28.450  12.482
91814W        W64239  37.038  11.637  13.887
91815W        W64240  27.363  36.938   3.865
91816W        W64241  22.940  39.535  11.148
91817W        W64242  14.093   3.640  10.800
91818W        W64243  19.294  27.608   1.755
91819W        W64244  38.008   6.493   2.346
91820W        W64245  24.467  11.352   1.232
91821W        W64246  21.251  39.338  14.700
91822W        W64247  13.650  43.603  11.915
91823W        W64248  14.970  21.612  11.583
91824W        W64249  16.110  43.748   2.195
91825W        W64250  16.296  41.698  12.889
91826W        W64251  34.762  28.346   0.898
91827W        W64252   1.768  39.993  12.394
91828W        W64253  16.008   5.736  14.934
91829W        W64254  14.776  42.737   1.538
91830W        W64255  25.300   7.582   2.389
91831W        W64256  12.669   0.995  11.541
91832W        W64257  20.527  27.098   0.198
91833W        W64258  17.018  11.015   0.859
91834W        W64259  20.569   5.056   4.540
91835W        W64260  23.435  38.361   4.535
91836W        W64261   0.507   1.854  14.197
91837W        W64262  14.115  19.544   5.065
91838W        W64263  18.082  43.038   3.668
91839W        W64264  21.691   7.821  10.595
91840W        W64265  43.619  37.330   1.782
91841W        W64266  11.705  16.874   2.202
91842W        W64267  19.366  37.736  14.188
91843W        W64268  12.320  30.342   1.037
91844W        W64269  18.698  35.049  10.345
91845W        W64270   9.269   0.279   1.789
91846W        W64271  21.202  11.757  12.508
91847W        W64272  27.141  22.098  10.508
91848W        W64273   1.389  36.640   0.893
91849W        W64274  12.258   7.333   0.997
91850W        W64275  34.619  14.973  13.055
91851W        W64276  37.404  38.620   2.594
91852W        W64277  41.683  40.722   4.157
91853W        W64278  44.519   4.550   3.388
91854W        W64279   1.359   9.189   1.737
91855W        W64280   3.764  23.463  11.172
91856W        W64281  11.150  26.115   0.351
91857W        W64282  19.254  35.876   4.663
91858W        W64283  35.899   9.345  13.375
91859W        W64284  33.889   1.319  13.726
91860W        W64285  36.586  10.793   1.278
91861W        W64286  23.742  32.590  12.015
91862W        W64287   3.173   4.493  13.353
91863W        W64288  42.959  36.434  12.771
91864W        W64289   2.315  27.577   1.225
91865W        W64290   2.989  35.100   1.273
91866W        W64291  38.141  40.447   4.359
91867W        W64292  17.136   9.185   2.024
91868W        W64293   4.779  39.293  14.903
91869W        W64294  20.204   9.001   4.777
91870W        W64295  28.968  29.465  14.814
91871W        W64296  44.763  11.145  13.666
91872W        W64297  23.148  26.708  13.096
91873W        W64298  29.107  31.603  14.632
91874W        W64299  14.023  19.530   2.814
91875W        W64300  42.910  19.075   1.826
91876W        W64301  24.834  24.543  14.284
91877W        W64302  15.786  21.733   3.738
91878W        W64303  28.902  29.602   4.083
91879W        W64304  33.411  39.343   2.362
91880W        W64305  38.151   9.835   0.028
91881W        W64306  38.432  34.256  12.020
91882W        W64307  16.042  36.351   3.407
91883W        W64308  20.546   3.901  11.152
91884W        W64309  34.452  12.624   2.124
91885W        W64310   4.523   2.361  13.577
91886W        W64311  23.227  18.997  11.656
91887W        W64312  43.014  22.577   4.783
91888W        W64313   8.662  18.843   3.557
91889W        W64314  34.104   3.422  10.787
91890W        W64315  34.063  34.620   2.099
91891W        W64316  28.953  27.481  14.783
91892W        W64317  19.311   6.951  11.219
91893W        W64318   7.130  21.953  11.459
91894W        W64319  24.220  19.718   4.064
91895W        W64320   6.925  43.492  14.484
91896W        W64321   7.204  44.706   2.276
91897W        W64322  26.756   0.773   3.331
91898W        W64323  38.481   1.916   4.267
91899W        W64324  42.638   2.013   3.470
91900W        W64325  25.265  17.507   3.172
91901W        W64326  25.556  14.641  13.340
91902W        W64327  39.895  42.295   3.325
91903W        W64328  32.446  15.999  14.001
91904W        W64329  41.826   8.793  13.344
91905W        W64330  24.759  31.044  10.744
91906W        W64331  30.734  23.114   0.344
91907W        W64332  24.204  37.370  14.337
91908W        W64333  18.083  21.343   3.888
91909W        W64334  14.079  42.784  14.312
91910W        W64335  41.241  16.409   2.333
91911W        W64336  10.310  39.944  14.923
91912W        W64337  21.449  40.888   1.235
91913W        W64338   5.107  40.987  11.949
91914W        W64339  14.656  32.343   0.412
91915W        W64340  27.372   0.856  14.508
91916W        W64341  14.732   1.184   1.373
91917W        W64342  18.486   1.434   2.215
91918W        W64343  33.412  11.765   1.249
91919W        W64344   1.469   0.514  11.448
91920W        W64345  11.636  37.150  10.061
91921W        W64346  26.618  40.243   4.212
91922W        W64347  37.125  44.316   1.410
91923W        W64348   5.463  24.390  14.094
91924W        W64349  42.461  18.324  12.503
91925W        W64350   0.454  43.786  14.272
91926W        W64351  19.507   5.402  11.505
91927W        W64352  12.107  11.930  13.646
91928W        W64353  31.489  44.392   2.149
91929W        W64354   0.317  27.603   0.451
91930W        W64355  42.418  22.608   2.769
91931W        W64356   5.652  18.459   2.238
91932W        W64357  40.936  36.015  11.074
91933W        W64358  28.670   5.229   1.662
91934W        W64359  36.112  22.642  12.580
91935W        W64360  34.859   4.950   5.025
91936W        W64361  40.058   6.625   2.668
91937W        W64362  19.784  26.291  13.380
91938W        W64363  14.767  36.771   4.840
91939W        W64364  30.687   9.372   3.321
91940W        W64365  30.116  39.710   0.081
91941W        W64366  40.028  18.583   3.586
91942W        W64367  21.586   8.348  10.974
91943W        W64368  28.396  39.027  11.999
91944W        W64369   0.778  20.586   3.688
91945W        W64370  15.011   9.885   0.708
91946W        W64371  20.021  19.421   2.166
91947W        W64372  23.637  34.396   4.883
91948W        W64373  10.369  27.037  13.709
91949W        W64374  15.559  36.313   4.247
91950W        W64375  36.291  25.060  11.447
91951W        W64376   9.888  17.971   3.859
91952W        W64377  10.852  32.128  12.529
91953W        W64378  26.819  27.192   3.551
91954W        W64379  30.531  40.912   0.017
91955W        W64380   6.007  19.657  11.790
91956W        W64381   4.805  16.564   0.332
91957W        W64382  39.347   3.832  14.807
91958W        W64383   7.221  40.728  12.013
91959W        W64384  34.462  42.348  11.392
91960W        W64385  38.840  15.780   5.034
91961W        W64386  24.703  37.996   4.454
91962W        W64387  27.696  26.946   3.428
91963W        W64388   5.903   6.404   4.058
91964W        W64389  41.070  42.084  13.428
91965W        W64390  28.414   3.854   2.547
91966W        W64391   1.877  32.441  11.110
91967W        W64392  39.577  31.574   0.810
91968W        W64393  23.162  39.954  12.477
91969W        W64394  11.102  22.556   1.795
91970W        W64395   4.497  30.958   2.232
91971W        W64396  12.238  30.873   0.846
91972W        W64397  38.078   4.285   0.340
91973W        W64398  18.178   0.735  10.153
91974W        W64399  28.792  23.866  13.391
91975W        W64400  26.945  19.808   3.177
91976W        W64401  13.247  15.242   2.613
91977W        W64402  15.590   7.796   1.802
91978W        W64403   9.820  21.932   3.769
91979W        W64404  44.886  34.647  14.789
91980W        W64405  13.187   6.345   4.046
91981W        W64406  33.536  30.569  14.383
91982W        W64407  17.022   7.140   1.791
91983W        W64408  27.345   8.108  13.854
91984W        W64409  42.913   0.525   5.030
91985W        W64410   6.406  20.557   1.370
91986W        W64411  11.676   3.747   2.888
91987W        W64412  41.833   9.384  11.411
91988W        W64413  15.802  41.468   4.174
91989W        W64414  22.850  35.051  11.037
91990W        W64415   6.802  31.514  12.870
91991W        W64416  21.244  23.891  14.953
91992W        W64417  22.162  43.978   3.332
91993W        W64418  44.423   0.933  13.533
91994W        W64419  31.016  21.323  14.484
91995W        W64420   4.972  11.937   1.029
91996W        W64421  27.968  12.246  13.004
91997W        W64422  40.325  13.838   1.967
91998W        W64423  30.110  11.234   0.333
91999W        W64424  39.638   2.260  13.948
92000W        W64425   4.308  14.697   4.060
92001W        W64426   4.244  14.835  10.666
92002W        W64427  34.017   1.822  14.938
92003W        W64428  37.419  33.370   4.602
92004W        W64429  23.935   5.622  10.457
92005W        W64430  40.924  22.089   2.433
92006W        W64431  33.445  13.577   4.309
92007W        W64432  27.774  18.042   4.909
92008W        W64433  34.555  11.458   4.835
92009W        W64434  40.369  17.223  13.787
92010W        W64435  38.047  38.905   3.135
92011W        W64436  33.980   5.304  14.028
92012W        W64437  29.562   9.689  13.493
92013W        W64438  26.978  26.642   0.336
92014W        W64439  20.344  25.160  12.591
92015W        W64440  20.731   1.957   4.694
92016W        W64441   8.306  21.761  12.437
92017W        W64442  17.881  42.929   0.764
92018W        W64443  36.997   7.939   0.418
92019W        W64444  17.539  16.600  13.738
92020W        W64445  26.143  41.250   0.450
92021W        W64446  22.616  23.403   3.279
92022W        W64447   4.265  13.605  12.008
92023W        W64448   6.905  27.378   3.719
92024W        W64449  18.314  32.628  14.369
92025W        W64450  37.810  33.131  10.021
92026W        W64451  31.981  17.028  14.640
92027W        W64452   3.686  11.621   3.105
92028W        W64453  22.330  17.746  12.515
92029W        W64454  17.659  42.516   2.147
92030W        W64455  39.485   5.183  12.486
92031W        W64456   8.390  36.829   1.411
92032W        W64457  40.965  19.146   1.612
92033W        W64458  18.466  18.644  14.322
92034W        W64459  31.915  31.602   3.847
92035W        W64460  43.556  26.737   4.261
92036W        W64461  25.233   3.247   0.366
92037W        W64462  28.946  21.479   3.729
92038W        W64463  26.056  43.257   0.991
92039W        W64464  13.832  12.269   0.295
92040W        W64465  15.229  11.640  14.541
92041W        W64466  14.750   3.662   4.768
92042W        W64467   8.251   4.328  10.693
92043W        W64468  28.600  20.794   4.338
92044W        W64469  17.102  42.978  11.623
92045W        W64470  11.881   7.764  13.952
92046W        W64471   5.066  10.580   0.420
92047W        W64472   3.181  13.033  14.358
92048W        W64473   6.470  38.115   3.135
92049W        W64474  29.648   3.751   1.964
92050W        W64475   4.885  29.464   3.628
92051W        W64476  16.729  37.815  13.860
92052W        W64477  29.887  30.572   1.807
92053W        W64478   2.230  18.454  12.888
92054W        W64479  25.003  42.260  12.236
92055W        W64480   9.695  20.129  11.501
92056W        W64481  34.929  33.106  11.618
92057W        W64482  34.855  30.026  11.270
92058W        W64483  34.619  21.462   3.729
92059W        W64484  24.124  33.100   3.755
92060W        W64485  25.179  42.100  14.763
92061W        W64486   3.364  30.722   3.188
92062W        W64487  20.242  13.549  10.862
92063W        W64488  41.464  19.600  14.003
92064W        W64489  16.106  37.636   2.744
92065W        W64490  44.799  44.230  12.591
92066W        W64491  38.356  32.320  13.773
92067W        W64492  12.318  27.113   0.281
92068W        W64493  12.004  11.110   3.624
92069W        W64494  20.888  19.562   0.472
92070W        W64495  19.572  10.893  12.525
92071W        W64496  38.401   6.942   1.954
92072W        W64497  12.288   1.243  14.021
92073W        W64498  31.682   8.970   0.573
92074W        W64499  43.456  23.103   4.160
92075W        W64500  16.402   7.700   4.859
92076W        W64501  34.966  42.923  12.051
92077W        W64502   2.662  18.612   1.684
92078W        W64503  24.348  16.991  13.779
92079W        W64504  35.932  19.845  10.534
92080W        W64505   5.408  27.710  11.494
92081W        W64506  18.608  19.145   2.674
92082W        W64507  21.728  28.891  11.679
92083W        W64508  19.384  14.687   2.141
92084W        W64509  43.474   8.149  11.137
92085W        W64510  18.757  22.935   4.572
92086W        W64511  41.120  26.061   1.500
92087W        W64512   0.190  14.711  14.977
92088W        W64513  24.439  20.577   4.912
92089W        W64514   0.489  40.991   0.502
92090W        W64515  15.240  44.215   2.896
92091W        W64516  27.610  39.132  10.937
92092W        W64517   4.216  14.362  11.545
92093W        W64518  40.523  12.930   4.633
92094W        W64519   3.842  14.366   2.673
92095W        W64520  19.502   0.854  12.114
92096W        W64521  16.650  22.811  12.555
92097W        W64522   8.745   1.434   1.789
92098W        W64523  12.385   8.322  12.229
92099W        W64524  34.089  38.651   3.547
92100W        W64525  14.708  24.906   2.887
92101W        W64526  26.598  20.202  11.985
92102W        W64527   6.373   6.098  13.795
92103W        W64528  41.912  33.549   2.696
92104W        W64529  34.534   9.808  14.420
92105W        W64530  14.763  31.568  14.743
92106W        W64531  35.039   0.333  10.596
92107W        W64532  37.869   9.178  12.402
92108W        W64533   1.786  38.248  10.689
92109W        W64534  13.248  21.140  10.222
92110W        W64535  22.774  15.562   4.110
92111W        W64536  30.581  10.626  11.589
92112W        W64537  17.676  22.501  13.489
92113W        W64538  44.100  44.404   1.971
92114W        W64539  38.304   0.117  13.080
92115W        W64540   5.295  27.170   3.849
92116W        W64541  31.818  19.147  13.458
92117W        W64542  23.700   7.844  12.381
92118W        W64543  21.315   7.288  11.193
92119W        W64544  22.858  41.383  14.534
92120W        W64545  13.586  17.149  12.105
92121W        W64546  12.703   1.532   1.416
92122W        W64547  43.496  22.106  13.513
92123W        W64548  42.477  35.183   0.837
92124W        W64549  37.975  25.066   0.205
92125W        W64550  16.890  12.199   0.246
92126W        W64551  12.168  20.131   3.272
92127W        W64552  36.953  44.313   3.233
92128W        W64553  44.475  37.836   4.051
92129W        W64554   8.927  11.615   2.758
92130W        W64555  42.998   8.951   5.081
92131W        W64556  12.582  23.658   0.690
92132W        W64557  18.794   1.960   2.776
92133W        W64558  38.059  29.541   3.368
92134W        W64559  22.750  17.331   1.528
92135W        W64560  29.271  12.730  11.727
92136W        W64561  22.675  17.772   1.278
92137W        W64562  14.003   9.117   3.450
92138W        W64563   9.292   9.623   1.678
92139W        W64564  22.381  23.549   4.168
92140W        W64565  26.189  42.744   1.817
92141W        W64566  16.796  14.343  12.539
92142W        W64567  30.463   7.305  12.833
92143W        W64568  43.014  18.863   2.348
92144W        W64569  43.060  26.793   3.695
92145W        W64570  33.907  28.208  13.865
92146W        W64571  36.957  38.628  14.580
92147W        W64572  24.691  16.771  10.555
92148W        W64573   6.545  25.514   4.531
92149W        W64574  39.923  26.911   4.578
92150W        W64575  22.499  42.287   1.720
92151W        W64576  18.211  40.704   4.144
92152W        W64577  19.743  16.493  10.724
92153W        W64578  31.249   5.286  11.472
92154W        W64579   1.518  38.914   0.826
92155W        W64580  39.043  38.467   1.914
92156W        W64581  14.082  44.812  13.103
92157W        W64582  44.397  12.662   4.402
92158W        W64583  33.915   0.403   1.144
92159W        W64584  11.570   3.402   0.847
92160W        W64585  39.458  29.533  14.883
92161W        W64586  39.403  26.647   9.973
92162W        W64587  38.726  13.325   1.665
92163W        W64588  34.649  40.983   1.474
92164W        W64589   4.133  34.125   4.206
92165W        W64590  30.428  35.619  13.707
92166W        W64591  25.615   4.807  11.612
92167W        W64592  20.184  28.721  12.681
92168W        W64593   1.208  17.764  12.571
92169W        W64594  32.082  17.008   1.478
92170W        W64595  31.464  25.722   2.371
92171W        W64596  20.030  28.554   0.369
92172W        W64597  21.044  13.787   4.299
92173W        W64598   0.999  10.603   4.068
92174W        W64599  18.311  16.592  10.595
92175W        W64600  36.372  34.623   0.297
92176W        W64601  23.172   2.731  14.718
92177W        W64602  21.622  32.230  13.551
92178W        W64603   5.376  33.013   3.336
92179W        W64604  23.983   4.887   3.312
92180W        W64605  20.563  17.838   4.120
92181W        W64606  27.868  41.852  12.560
92182W        W64607   0.861   1.011   2.637
92183W        W64608  28.166  37.486  11.208
92184W        W64609  19.207  35.164  14.262
92185W        W64610  19.274  39.916  10.616
92186W        W64611  40.295   9.346   0.260
92187W        W64612  18.945   0.463   0.455
92188W        W64613  26.218  18.671   4.155
92189W        W64614  31.205  12.839  12.447
92190W        W64615  15.935   8.337   1.095
92191W        W64616  42.083  27.441   0.583
92192W        W64617  28.875   5.641   0.005
92193W        W64618  38.412  29.207  14.207
92194W        W64619  42.257  34.491  10.704
92195W        W64620  23.130  32.091   1.763
92196W        W64621  43.882  35.668  14.530
92197W        W64622   6.998  22.266  12.963
92198W        W64623  15.262  39.780  12.942
92199W        W64624  32.671  40.522  14.276
92200W        W64625   3.343  33.914   4.779
92201W        W64626   1.263  43.304  10.757
92202W        W64627  27.411  14.215  14.212
92203W        W64628  35.120  10.254   0.547
92204W        W64629  39.145  42.449   3.708
92205W        W64630  41.022  20.673  12.496
92206W        W64631  36.078  30.595   4.221
92207W        W64632  38.482  12.439   3.874
92208W        W64633  40.846  21.948  10.454
92209W        W64634   5.406   4.234  12.971
92210W        W64635  16.242  30.883  12.587
92211W        W64636   7.149  20.228  13.901
92212W        W64637  26.611  43.331   2.211
92213W        W64638   7.111  26.182   4.126
92214W        W64639  24.364  30.382   4.550
92215W        W64640  25.771   6.671  13.504
92216W        W64641  40.779  43.628   4.145
92217W        W64642   3.437  19.740   3.326
92218W        W64643  24.981  33.664   0.443
92219W        W64644  39.904  13.230   2.679
92220W        W64645   3.063   6.191   1.379
92221W        W64646  43.426  42.498   0.248
92222W        W64647   4.769  13.156   0.663
92223W        W64648  28.604   2.221  11.575
92224W        W64649   4.883  19.210   4.115
92225W        W64650  27.226  32.914  10.755
92226W        W64651  13.900  34.086   0.290
92227W        W64652  43.279   8.232  12.497
92228W        W64653  21.427  44.045   1.933
92229W        W64654  16.465  44.084  11.065
92230W        W64655   3.756  12.098   1.767
92231W        W64656  24.706  16.638   4.998
92232W        W64657  28.966  36.154   1.146
92233W        W64658  16.666  41.181  13.364
92234W        W64659   7.635  36.451  12.102
92235W        W64660  11.898  30.347  14.928
92236W        W64661  16.146  42.459   4.471
92237W        W64662  34.694  10.934  12.413
92238W        W64663  40.008  14.311   3.634
92239W        W64664  25.673  30.184  11.900
92240W        W64665  38.387  36.136   3.827
92241W        W64666  19.204  22.278  11.511
92242W        W64667   8.511  17.537  10.897
92243W        W64668  20.599  14.840   2.081
92244W        W64669  41.953  21.151   5.102
92245W        W64670  17.748   8.340  12.566
92246W        W64671   3.358  38.424  10.954
92247W        W64672  10.277  33.582  14.472
92248W        W64673  35.600   0.154  14.023
92249W        W64674  35.669  22.268  11.468
92250W        W64675   7.424  21.083  11.965
92251W        W64676   5.944  34.181  12.556
92252W        W64677   4.438   8.117   3.570
92253W        W64678   4.973  11.814   3.679
92254W        W64679  23.416  39.798   3.746
92255W        W64680  38.505  26.990   0.657
92256W        W64681  24.004  33.044  14.834
92257W        W64682  14.567   2.329   4.626
92258W        W64683  39.582   2.493  12.844
92259W        W64684  29.954  40.579  11.649
92260W        W64685  17.071   7.882   0.351
92261W        W64686   2.339  41.971  12.918
92262W        W64687  17.556  37.101  10.461
92263W        W64688   8.541  14.822  10.665
92264W        W64689   4.779  34.039   2.410
92265W        W64690  10.769  22.025  13.457
92266W        W64691  10.793   5.525   2.490
92267W        W64692   9.175  18.560   1.784
92268W        W64693  30.698  16.818  14.897
92269W        W64694  30.603  15.546  11.405
92270W        W64695  39.061   6.362  14.781
92271W        W64696   9.902   8.459   5.130
92272W        W64697   0.736   1.766   0.197
92273W        W64698  13.756  41.097   1.321
92274W        W64699  36.061  28.065   0.833
92275W        W64700  29.982  39.326   3.896
92276W        W64701  31.113  11.125   2.297
92277W        W64702  32.395  25.721   0.792
92278W        W64703  11.637  43.083  14.526
92279W        W64704  27.054   0.858   4.789
92280W        W64705  22.260  12.706  14.827
92281W        W64706  27.686  13.799  12.968
92282W        W64707   2.253  20.824  11.666
92283W        W64708  30.406  41.971   4.013
92284W        W64709  32.357   4.975  14.573
92285W        W64710   0.416  38.152   0.924
92286W        W64711  44.779  23.723  14.565
92287W        W64712  19.006   4.691  10.713
92288W        W64713  44.985   4.474  11.623
92289W        W64714  21.010  20.094  14.767
92290W        W64715  13.867  34.730   4.908
92291W        W64716  40.814  42.546  11.007
92292W        W64717  42.777   4.648  11.122
92293W        W64718   0.843  29.638   0.185
92294W        W64719   4.045  24.785   1.960
92295W        W64720  22.015   5.877  10.677
92296W        W64721  17.708   1.432  10.459
92297W        W64722   4.597  42.592   1.769
92298W        W64723  11.147   9.647   1.419
92299W        W64724  32.843  23.957  13.936
92300W        W64725  31.987  15.831   0.271
92301W        W64726  38.528   6.239  13.294
92302W        W64727  26.526   2.533   2.791
92303W        W64728   7.133  26.130   3.607
92304W        W64729  33.548   0.748  13.951
92305W        W64730  30.120  17.501  13.635
92306W        W64731  21.635  21.073   3.082
92307W        W64732   5.849  36.890  11.989
92308W        W64733  18.328  43.327  14.969
92309W        W64734  10.186  34.612   9.736
92310W        W64735  31.493   8.918   3.175
92311W        W64736  12.813  26.031   3.354
92312W        W64737  33.371  35.795   2.398
92313W        W64738  22.367  39.018   0.061
92314W        W64739  44.255  22.115  10.757
92315W        W64740   6.871  10.336  12.405
92316W        W64741   5.343  27.945   0.876
92317W        W64742  28.168  42.286  12.123
92318W        W64743  41.469  42.490   1.425
92319W        W64744   7.959  40.131  14.800
92320W        W64745  32.919   3.160   1.799
92321W        W64746  37.626  31.906  13.434
92322W        W64747  40.061  15.124  12.036
92323W        W64748  28.889   9.742  14.107
92324W        W64749   8.643  32.909   4.595
92325W        W64750   1.270  11.061  14.733
92326W        W64751  19.756  13.199  11.499
92327W        W64752  23.448  25.330   1.770
92328W        W64753  18.913   8.634  13.324
92329W        W64754  10.170  20.660   2.626
92330W        W64755   7.174  16.870   0.919
92331W        W64756  38.968  23.069  14.432
92332W        W64757  32.995   7.868   0.402
92333W        W64758  23.128  16.485   2.286
92334W        W64759   2.172  24.111   0.389
92335W        W64760  21.423  17.216   1.322
92336W        W64761  35.371  32.414  13.000
92337W        W64762  22.638  34.082   1.564
92338W        W64763  14.105  35.010   2.312
92339W        W64764   5.775  40.540   3.817
92340W        W64765  26.966  28.492   0.325
92341W        W64766  28.940  25.683   2.208
92342W        W64767  12.560  25.215  14.015
92343W        W64768  17.608  39.085   0.057
92344W        W64769   4.902  33.154  11.426
92345W        W64770  41.266   3.002   2.769
92346W        W64771  15.411  15.166  12.466
92347W        W64772  11.588  39.004   1.336
92348W        W64773   6.836  13.505   3.185
92349W        W64774  16.289  28.393  11.583
92350W        W64775  20.792  25.508   0.922
92351W        W64776  33.385  42.458  13.939
92352W        W64777  15.086  10.354  14.650
92353W        W64778  37.555  31.862   9.883
92354W        W64779  44.521  25.636   1.668
92355W        W64780  12.964  15.141   1.079
92356W        W64781  34.248  21.511  14.432
92357W        W64782  25.729   9.356  11.999
92358W        W64783  20.093   7.726   4.144
92359W        W64784  22.961  12.884   2.684
92360W        W64785  21.409   8.824   3.184
92361W        W64786  33.605  15.584  14.875
92362W        W64787  13.267   5.913  10.543
92363W        W64788  15.612   0.740   4.189
92364W        W64789  30.621   4.009   2.155
92365W        W64790  15.890  43.276   4.175
92366W        W64791   1.294   0.217   2.681
92367W        W64792   5.617  15.159  10.668
92368W        W64793  25.660  28.414   3.286
92369W        W64794  12.379   2.457   2.748
92370W        W64795  15.683  43.322   3.118
92371W        W64796  37.924   3.766  14.180
92372W        W64797  36.892   1.153   2.935
92373W        W64798  36.044  35.997   1.061
92374W        W64799  25.003   6.169   3.789
92375W        W64800  14.574   1.850  12.617
92376W        W64801  40.570  17.568  10.717
92377W        W64802  34.454   6.201  12.454
92378W        W64803  32.113  20.987  13.860
92379W        W64804  13.327  19.553  11.695
92380W        W64805   9.835  44.902  11.043
92381W        W64806   9.347   2.692  13.853
92382W        W64807   1.465  43.436   0.789
92383W        W64808   0.819   6.261  11.415
92384W        W64809   6.118  16.611  12.477
92385W        W64810  34.798  27.922  11.537
92386W        W64811  40.831  42.533  13.462
92387W        W64812  21.642  26.994  14.294
92388W        W64813  17.584  36.965   3.269
92389W        W64814  37.397  33.936   4.541
92390W        W64815  12.371  39.526  12.374
92391W        W64816  32.723  29.509  13.094
92392W        W64817  26.411  17.064  14.929
92393W        W64818  37.911   6.948  14.807
92394W        W64819  14.724  44.774  10.378
92395W        W64820  30.102  27.607   3.823
92396W        W64821   2.721  18.306  11.087
92397W        W64822   0.535  15.965  14.822
92398W        W64823  41.232  15.325   0.240
92399W        W64824   0.638   1.280   0.507
92400W        W64825  17.238  22.136   0.357
92401W        W64826  44.502  34.807   2.224
92402W        W64827   9.841  44.003   2.976
92403W        W64828  13.673  35.642   3.668
92404W        W64829  26.586  44.750  12.434
92405W        W64830  27.273  42.684  14.488
92406W        W64831  29.437  17.298  13.738
92407W        W64832  12.422  26.799  13.452
92408W        W64833  20.749  37.528   3.290
92409W        W64834  11.803  21.769  10.050
92410W        W64835  20.747  14.212   0.537
92411W        W64836  13.694  15.230   3.718
92412W        W64837  32.359  26.213   0.932
92413W        W64838  41.203   2.797   3.250
92414W        W64839  41.745  16.361  10.752
92415W        W64840  10.294  11.544   2.218
92416W        W64841   1.258  19.317  11.048
92417W        W64842   5.907  30.586   2.889
92418W        W64843  35.661   5.807   4.101
92419W        W64844   9.046  24.513   0.846
92420W        W64845  17.590  34.577  10.818
92421W        W64846   4.191   4.488   1.706
92422W        W64847   0.787  35.636   3.277
92423W        W64848  19.199  38.352   3.826
92424W        W64849  35.502  12.865   4.560
92425W        W64850  28.240  19.669   3.752
92426W        W64851  38.913  26.407  10.057
92427W        W64852  43.805   0.693   1.942
92428W        W64853  18.059  13.731  14.346
92429W        W64854   4.911  36.664  11.177
92430W        W64855  20.995   7.623   0.883
92431W        W64856  21.226  17.556  11.555
92432W        W64857  36.545   6.864  13.065
92433W        W64858  39.495  22.179   0.060
92434W        W64859  10.661  38.900  14.219
92435W        W64860  29.578  16.225   2.477
92436W        W64861  23.404  14.228  10.956
92437W        W64862  17.209  37.122   0.553
92438W        W64863  29.582  37.492  11.998
92439W        W64864  31.096   8.215  11.521
92440W        W64865  34.985  21.981  12.430
92441W        W64866  40.734   6.484  13.392
92442W        W64867  22.790  42.051   0.777
92443W        W64868   1.967   6.263  14.790
92444W        W64869   8.178  34.838   4.877
92445W        W64870  43.059  19.893   2.164
92446W        W64871  19.826  36.254   4.106
92447W        W64872  30.153  22.295   2.314
92448W        W64873  14.153   5.389   4.486
92449W        W64874  22.631   1.754   2.833
92450W        W64875   8.875   9.017   5.375
92451W        W64876  13.861  25.100   4.440
92452W        W64877  15.537  11.629  12.533
92453W        W64878  39.090  19.096  10.991
92454W        W64879   2.277   3.182  14.202
92455W        W64880  16.137  38.837   1.354
92456W        W64881  19.036  19.505  12.137
92457W        W64882  37.902  17.036  11.687
92458W        W64883  24.250  17.310  11.291
92459W        W64884  35.358  18.251   2.737
92460W        W64885  19.424  42.135   0.488
92461W        W64886  36.515  33.336  10.748
92462W        W64887  13.132  36.348   0.429
92463W        W64888   8.471  11.789   2.999
92464W        W64889   6.703   7.451   2.175
92465W        W64890  14.738  16.341  14.263
92466W        W64891  44.957  40.468   4.747
92467W        W64892  41.799  29.673   0.839
92468W        W64893  28.067  33.937   5.522
92469W        W64894  21.680  29.632   1.765
92470W        W64895  26.707  17.533  13.991
92471W        W64896   6.316  14.554   0.876
92472W        W64897   3.677  12.581   1.110
92473W        W64898  28.290  13.235   1.507
92474W        W64899  28.822   6.133  12.804
92475W        W64900   0.054   1.887  12.705
92476W        W64901  29.400   5.158  14.938
92477W        W64902  11.118  36.745  14.007
92478W        W64903  22.096   2.822   1.338
92479W        W64904  18.146  44.058   0.420
92480W        W64905  23.385  10.722   2.372
92481W        W64906  31.060  34.517   3.049
92482W        W64907  19.571  15.079  10.516
92483W        W64908  42.864   7.211   3.176
92484W        W64909  20.120  41.546  12.244
92485W        W64910  39.235  27.481  10.408
92486W        W64911  40.965   8.938  14.775
92487W        W64912   6.756  21.950   2.197
92488W        W64913  35.879  32.395   3.770
92489W        W64914  24.944  38.291   3.715
92490W        W64915  23.023  29.969  14.913
92491W        W64916  25.512  29.519  13.603
92492W        W64917  32.029   8.785   4.131
92493W        W64918  10.135  20.799  14.484
92494W        W64919  12.358  15.166   0.219
92495W        W64920  33.798  33.097   2.015
92496W        W64921  36.987   7.079  11.719
92497W        W64922  32.961  32.653  11.534
92498W        W64923  44.378  22.075   2.564
92499W        W64924  37.144  39.104  14.394
92500W        W64925  38.317  39.853   3.692
92501W        W64926  15.832  23.466   1.663
92502W        W64927  21.896  33.031   0.179
92503W        W64928   5.276  39.924   4.002
92504W        W64929  12.867   7.415  13.594
92505W        W64930  23.897  42.006  13.953
92506W        W64931  32.132   0.615  14.602
92507W        W64932  38.747  27.908   2.818
92508W        W64933  28.116  15.196   1.344
92509W        W64934  18.072  21.119   2.428
92510W        W64935   6.313   0.465   2.290
92511W        W64936   9.336  33.172   0.438
92512W        W64937  23.213  32.659   3.591
92513W        W64938   0.424  41.306  12.010
92514W        W64939   3.260  32.029  13.886
92515W        W64940  42.910  22.165  11.670
92516W        W64941  23.231  23.251  13.830
92517W        W64942  20.065  35.470  14.975
92518W        W64943  12.686  38.505   0.981
92519W        W64944  16.833  43.387  11.850
92520W        W64945  35.082  19.801   3.632
92521W        W64946  13.997  23.534   2.170
92522W        W64947  27.874  15.995   3.809
92523W        W64948  24.730  19.298   1.833
92524W        W64949  17.872  25.191   3.239
92525W        W64950  30.514  21.607  12.946
92526W        W64951  40.682  34.994  11.100
92527W        W64952   7.880   1.463   0.810
92528W        W64953  21.210  26.892  14.887
92529W        W64954  20.752  21.145   3.428
92530W        W64955  10.964  25.498  11.079
92531W        W64956  44.897   9.912   3.685
92532W        W64957  31.539  40.401   4.269
92533W        W64958   0.804  21.357   4.644
92534W        W64959  11.161  32.036  14.301
92535W        W64960   3.440   1.005  14.854
92536W        W64961   5.613  15.400  14.378
92537W        W64962  15.756  23.689  12.505
92538W        W64963  35.624   8.474  14.512
92539W        W64964  20.784  10.802  12.928
92540W        W64965  38.240  33.471   2.669
92541W        W64966  14.134  11.604   2.214
92542W        W64967  30.449  14.330  14.416
92543W        W64968   6.952  33.202   1.446
92544W        W64969  29.033  42.491  12.646
92545W        W64970   7.814   9.908   3.598
92546W        W64971  26.547  35.234   1.953
92547W        W64972   9.395  17.787   3.721
92548W        W64973  44.931  17.073  10.871
92549W        W64974   3.796  21.441   0.340
92550W        W64975   5.537  44.247  11.082
92551W        W64976  36.718  18.309   1.486
92552W        W64977  11.194   3.241   1.176
92553W        W64978   4.763  26.019   1.144
92554W        W64979  26.745  18.365  13.511
92555W        W64980  17.847  39.065   0.954
92556W        W64981   7.713  21.480  12.582
92557W        W64982   7.413  41.422   4.154
92558W        W64983   1.253  30.026   0.926
92559W        W64984  27.242  13.735  14.794
92560W        W64985  32.466   1.237   1.822
92561W        W64986  12.410  20.062  11.518
92562W        W64987   3.699   0.785   2.794
92563W        W64988   8.840  39.496   2.817
92564W        W64989  31.209  26.438  13.102
92565W        W64990  10.310   9.246   3.256
92566W        W64991  30.915   5.713   4.065
92567W        W64992  17.987  20.003  12.520
92568W        W64993  34.001   2.415  10.946
92569W        W64994  15.602  40.806  13.034
92570W        W64995  11.721  19.737  14.001
92571W        W64996  33.086   6.991   3.220
92572W        W64997  28.526  20.734  11.971
92573W        W64998  19.690   2.182   4.171
92574W        W64999  16.505  22.237  11.104
92575W        W65000   4.231  22.126   3.387
92576W        W65001  11.609  35.629  14.513
92577W        W65002  16.637   6.822   3.208
92578W        W65003  21.182  27.424  13.059
92579W        W65004  32.032  10.663   1.456
92580W        W65005  36.383  19.081  14.381
92581W        W65006  25.081  26.122  14.711
92582W        W65007  24.759  14.295  13.832
92583W        W65008  35.926  13.996   3.319
92584W        W65009   2.010  18.544   0.912
92585W        W65010  10.652  32.497  13.983
92586W        W65011  43.049  39.947   1.846
92587W        W65012  29.221  18.079  12.420
92588W        W65013  32.469  24.148  14.678
92589W        W65014  34.613  13.843  14.264
92590W        W65015  12.751   2.279   0.460
92591W        W65016  28.498   3.011  11.078
92592W        W65017  13.681  19.105   0.969
92593W        W65018   2.533  41.567  11.635
92594W        W65019  24.768  15.627   2.176
92595W        W65020  31.478  11.271  11.181
92596W        W65021   7.849   2.665   0.290
92597W        W65022  43.965   8.338   0.035
92598W        W65023  19.021  29.171  14.769
92599W        W65024   9.176  34.244  13.999
92600W        W65025  11.827  29.955  11.461
92601W        W65026  23.144  32.453   0.384
92602W        W65027   4.501  21.942  14.872
92603W        W65028   9.120  28.443   1.511
92604W        W65029   3.118  23.081  12.881
92605W        W65030  16.052  20.542  12.575
92606W        W65031  22.596  14.645  10.956
92607W        W65032  27.483  33.110  13.107
92608W        W65033  40.836  29.294   0.870
92609W        W65034  35.082   7.666  14.379
92610W        W65035  31.038  35.462  12.928
92611W        W65036   8.664  29.640   2.838
92612W        W65037  22.750  40.467  11.533
92613W        W65038  21.799   7.839   1.290
92614W        W65039  31.222  36.970   0.220
92615W        W65040  36.198  13.665   1.371
92616W        W65041  17.062   3.283  13.073
92617W        W65042   5.370  34.677  11.948
92618W        W65043   6.640  13.772  10.547
92619W        W65044  17.084  22.607  14.278
92620W        W65045   8.330  21.099   2.643
92621W        W65046  30.655  12.619  11.737
92622W        W65047  17.754  16.705  12.604
92623W        W65048  17.732  24.575  11.474
92624W        W65049  36.910  13.284  14.762
92625W        W65050   9.108  31.142   3.569
92626W        W65051  18.831   6.361  12.515
92627W        W65052  12.616  43.042  10.808
92628W        W65053   8.681  25.499   2.082
92629W        W65054   6.333   6.357   1.470
92630W        W65055   1.307  32.251  13.981
92631W        W65056  23.194  24.950  10.875
92632W        W65057   8.872  37.066   1.462
92633W        W65058  40.006   8.612  11.468
92634W        W65059  37.038   9.180  12.553
92635W        W65060  33.367  38.652  14.387
92636W        W65061  32.086  19.139  10.747
92637W        W65062   6.917   2.814  12.061
92638W        W65063   0.696  18.036   3.282
92639W        W65064   8.682  31.919  14.915
92640W        W65065  14.639  36.994   1.253
92641W        W65066  39.296  13.367   3.765
92642W        W65067   0.617  24.298   0.965
92643W        W65068  25.018  24.547  13.435
92644W        W65069  33.218  19.069   1.345
92645W        W65070   1.431  36.836   2.323
92646W        W65071  10.367   4.675   5.286
92647W        W65072  12.748   2.334   2.395
92648W        W65073   1.408  21.486  12.517
92649W        W65074  43.717  28.166   1.763
92650W        W65075  42.348  15.296  12.474
92651W        W65076  28.694  19.584   0.788
92652W        W65077  37.326  36.431  14.969
92653W        W65078  10.809  31.512   3.362
92654W        W65079  31.773  11.254   2.245
92655W        W65080  14.770   7.723   0.372
92656W        W65081  40.759   8.696   5.040
92657W        W65082  14.593  32.042   4.565
92658W        W65083  25.670  20.521  12.013
92659W        W65084  42.350   2.752  13.992
92660W        W65085   9.145   9.428  14.913
92661W        W65086  41.860  19.227   4.922
92662W        W65087  27.615  29.952   9.523
92663W        W65088  32.092  44.345   2.821
92664W        W65089  19.688   2.304  13.408
92665W        W65090  20.594   7.317  14.053
92666W        W65091  16.138  11.208   2.113
92667W        W65092  13.654  34.417  13.358
92668W        W65093  39.870  26.220   0.805
92669W        W65094  38.852  10.378  14.030
92670W        W65095  21.081  13.298  14.675
92671W        W65096   6.742   6.277   3.818
92672W        W65097  30.947  25.475  14.067
92673W        W65098  22.932  20.493   2.805
92674W        W65099   9.327   0.929  14.832
92675W        W65100  14.680  21.660  14.929
92676W        W65101  27.432  21.053   3.713
92677W        W65102  25.094  13.341  12.904
92678W        W65103  23.195   6.326  14.051
92679W        W65104  23.609  37.165  11.400
92680W        W65105  32.553  10.323   4.686
92681W        W65106  36.734  23.294   5.400
92682W        W65107  26.966   8.171  14.354
92683W        W65108   6.173  28.526  10.615
92684W        W65109  32.896   7.919  12.084
92685W        W65110  44.323  42.365   4.129
92686W        W65111   0.418   8.364   2.893
92687W        W65112  21.874  31.348  14.431
92688W        W65113   0.766  41.751  13.250
92689W        W65114   9.578  22.747  14.342
92690W        W65115  34.911  20.148   1.753
92691W        W65116  21.305  19.135  11.496
92692W        W65117  41.949  34.868   2.485
92693W        W65118  44.174   3.344  14.315
92694W        W65119  40.344   9.064  12.021
92695W        W65120  30.104   9.982  12.809
92696W        W65121  11.836  22.680  10.986
92697W        W65122   3.365  40.083   0.526
92698W        W65123  44.827  28.014   0.294
92699W        W65124  23.119  37.693  12.931
92700W        W65125   9.317  44.953   0.878
92701W        W65126   3.233  25.651  11.848
92702W        W65127   2.791  33.228   4.564
92703W        W65128  30.647  32.956  11.926
92704W        W65129  44.881  40.372   0.734
92705W        W65130   9.735  33.056  12.410
92706W        W65131  15.704  44.976   1.794
92707W        W65132  39.359  15.100   4.102
92708W        W65133  18.090  34.291   0.235
92709W        W65134  41.664  41.344  13.342
92710W        W65135  21.162   5.130  12.035
92711W        W65136  25.895  29.180   3.037
92712W        W65137  20.060   1.778   3.305
92713W        W65138   2.717  44.359   1.944
92714W        W65139  32.088  19.767  10.161
92715W        W65140  16.055  28.062  12.537
92716W        W65141   0.863  19.896  10.322
92717W        W65142  36.612  15.060   3.670
92718W        W65143  24.195   3.528   2.458
92719W        W65144  44.811  23.213  11.431
92720W        W65145  25.452  32.293  12.572
92721W        W65146   7.775  31.861   2.310
92722W        W65147  11.432   4.228  12.966
92723W        W65148   8.254  31.657   2.305
92724W        W65149  32.582  38.500  13.483
92725W        W65150   2.860  17.644  12.906
92726W        W65151  31.525  37.825   1.022
92727W        W65152  44.758  35.166   1.919
92728W        W65153  21.743  10.200  13.347
92729W        W65154  36.565  29.904  11.253
92730W        W65155  35.458  41.017  13.277
92731W        W65156  11.912  37.396   2.821
92732W        W65157  29.622   2.161  13.825
92733W        W65158  39.424   9.005  14.844
92734W        W65159  31.863  11.259   4.933
92735W        W65160   9.234  41.535   1.869
92736W        W65161  42.319  41.524  10.705
92737W        W65162   2.989  42.022   0.489
92738W        W65163  44.258  19.019  14.343
92739W        W65164  24.057   2.384   4.563
92740W        W65165  44.357  33.899   0.164
92741W        W65166  20.238   9.583   0.966
92742W        W65167  29.142  26.489  11.467
92743W        W65168  14.081   5.842   4.212
92744W        W65169  10.853  37.295  11.168
92745W        W65170  33.209  10.875  14.222
92746W        W65171  36.460  22.234   0.734
92747W        W65172   8.862  23.914   5.004
92748W        W65173   3.027  29.434  13.118
92749W        W65174  42.234  24.751   3.452
92750W        W65175  11.783  33.344  12.767
92751W        W65176  39.608  36.813  11.559
92752W        W65177  29.235   5.059  10.299
92753W        W65178  42.436  22.199  13.328
92754W        W65179  39.002  41.926  14.878
92755W        W65180  32.032  32.770   3.712
92756W        W65181  42.723  34.527  11.570
92757W        W65182   1.488   2.023   0.276
92758W        W65183   0.815   9.888   0.744
92759W        W65184   1.019  14.750   1.379
92760W        W65185  31.928  20.787   2.799
92761W        W65186  31.078  36.549  12.196
92762W        W65187  16.580  35.308   2.862
92763W        W65188  21.682  14.273  14.329
92764W        W65189  16.521  17.133   3.352
92765W        W65190  39.339  42.528  11.460
92766W        W65191  10.424  25.711  14.375
92767W        W65192  38.385  34.991   3.617
92768W        W65193  28.170   6.288  13.948
92769W        W65194  26.006  22.092   0.275
92770W        W65195   6.156   2.403   4.153
92771W        W65196  40.737  33.953  10.923
92772W        W65197   9.288  20.766   3.791
92773W        W65198  11.851  41.583   3.868
92774W        W65199  15.197  42.558  11.001
92775W        W65200  17.507   8.307  12.108
92776W        W65201  27.771  15.685  12.521
92777W        W65202  42.458   7.906   0.254
92778W        W65203  16.581  18.243   3.766
92779W        W65204  41.907  24.598  12.100
92780W        W65205  29.161  17.891  10.676
92781W        W65206  38.865  20.201  12.558
92782W        W65207  10.914  29.918  12.060
92783W        W65208   9.753   0.195   4.092
92784W        W65209  21.825  19.775   4.610
92785W        W65210  14.109  23.692   2.672
92786W        W65211  41.915  38.960   2.359
92787W        W65212  23.069  38.058  11.931
92788W        W65213  29.721  35.234   5.217
92789W        W65214  24.640  33.233  10.728
92790W        W65215  39.779  42.626  13.967
92791W        W65216  37.349  19.502  12.963
92792W        W65217   3.081  14.606  12.097
92793W        W65218  29.888  40.829   2.371
92794W        W65219  38.571   8.144   3.160
92795W        W65220   5.837  32.427   1.341
92796W        W65221   3.770  27.530  13.881
92797W        W65222   8.146   9.430  13.932
92798W        W65223  15.516  42.934   4.810
92799W        W65224  40.355  11.378  10.596
92800W        W65225  23.055  30.028   1.680
92801W        W65226   5.125   9.389   0.797
92802W        W65227  42.942   1.050   0.384
92803W        W65228  21.881  22.764   0.863
92804W        W65229   6.981  37.561  12.878
92805W        W65230   1.932   2.426   1.468
92806W        W65231  44.126  43.686   3.313
92807W        W65232  38.017  44.796  12.778
92808W        W65233  31.806  34.965   5.116
92809W        W65234  12.686   7.084   0.234
92810W        W65235  24.809  34.287  14.041
92811W        W65236  39.412  32.996  14.481
92812W        W65237  37.503  18.078  12.510
92813W        W65238  14.909  31.371  11.624
92814W        W65239   4.569  40.569  11.128
92815W        W65240  37.854  21.559  11.155
92816W        W65241  17.688  11.723  11.579
92817W        W65242  37.784  10.446   2.751
92818W        W65243  32.398   6.125   1.641
92819W        W65244   0.952  36.941   0.934
92820W        W65245  14.132   5.773   0.968
92821W        W65246  35.558   0.968  14.546
92822W        W65247  29.960  22.251   4.582
92823W        W65248  25.424  28.000   3.837
92824W        W65249  24.393  37.646  12.934
92825W        W65250  44.003  41.905   4.092
92826W        W65251  24.210  44.485  10.324
92827W        W65252  41.792  35.773  12.453
92828W        W65253  20.387  38.796   3.249
92829W        W65254  37.112  31.444   1.889
92830W        W65255  31.736   0.487   3.677
92831W        W65256  29.806  19.707   3.106
92832W        W65257  28.570   4.939   0.796
92833W        W65258  31.183  15.899   2.682
92834W        W65259  34.927  43.790   2.680
92835W        W65260   1.865  15.466  14.302
92836W        W65261  28.672  36.071   1.627
92837W        W65262  10.057  42.402  13.537
92838W        W65263  34.948   3.911  10.755
92839W        W65264   9.544   3.876   2.239
92840W        W65265  14.110  38.237  12.154
92841W        W65266  40.624  40.837  10.990
92842W        W65267  28.820  30.315   2.722
92843W        W65268  11.335  21.106  14.048
92844W        W65269  14.671  20.764  12.421
92845W        W65270   1.250   7.391   0.244
92846W        W65271  14.038  27.081   4.841
92847W        W65272  33.975  33.306   3.680
92848W        W65273  29.443   1.479   0.964
92849W        W65274  23.433  26.585   1.163
92850W        W65275  17.395  14.091   3.745
92851W        W65276  33.360   1.834   1.304
92852W        W65277  15.893  17.141   1.284
92853W        W65278  31.649  34.726  14.413
92854W        W65279  26.716  15.624  10.821
92855W        W65280  13.847   6.488  10.691
92856W        W65281   6.426  31.538   3.031
92857W        W65282  11.584  17.955   4.865
92858W        W65283   1.038  20.580   3.146
92859W        W65284   2.791   3.985  14.466
92860W        W65285  30.551  42.991   4.109
92861W        W65286  11.389  20.324  12.931
92862W        W65287  36.958  43.536   3.686
92863W        W65288  30.877  29.307   4.103
92864W        W65289  28.077  35.900  14.889
92865W        W65290  35.553  30.118   3.612
92866W        W65291   8.397  24.731  11.202
92867W        W65292  30.045  11.142   4.065
92868W        W65293  40.371  17.901   2.235
92869W        W65294  31.448   8.902  14.142
92870W        W65295   0.327  39.037   9.848
92871W        W65296  21.609  27.644  12.488
92872W        W65297  24.541  28.725  12.894
92873W        W65298  32.926  34.197   1.188
92874W        W65299   2.745  34.543  12.526
92875W        W65300  14.109  21.248  12.477
92876W        W65301  32.370  40.464  11.843
92877W        W65302  15.110   7.463   2.914
92878W        W65303  28.084   0.471  11.481
92879W        W65304  10.235  32.889   2.233
92880W        W65305  30.979  32.051   0.677
92881W        W65306  23.143  42.084   4.309
92882W        W65307   2.029  43.457  13.439
92883W        W65308  15.165  39.556   0.207
92884W        W65309  14.532  16.853   4.793
92885W        W65310  42.840  27.496   4.240
92886W        W65311   7.071   8.989   4.190
92887W        W65312   6.835   5.297  12.312
92888W        W65313  39.237  12.211   1.494
92889W        W65314  35.627  34.177   2.399
92890W        W65315  40.981  21.764  11.192
92891W        W65316   0.964  43.346  12.444
92892W        W65317  37.798  21.618  12.967
92893W        W65318  44.759   8.860  10.266
92894W        W65319   9.353  23.436  13.437
92895W        W65320  12.960  35.807   4.582
92896W        W65321  32.887   2.490  11.186
92897W        W65322  25.965   5.358   0.771
92898W        W65323  37.418   1.991  13.413
92899W        W65324  39.131  19.389  10.552
92900W        W65325  33.320  27.961   0.859
92901W        W65326  35.054  25.572  14.193
92902W        W65327  26.089   1.978  10.662
92903W        W65328  26.594   4.678  12.393
92904W        W65329  11.298  19.957  14.959
92905W        W65330  14.562   3.786  10.588
92906W        W65331  37.402  15.069  11.235
92907W        W65332  36.365  37.990  13.410
92908W        W65333  31.894   8.490  12.036
92909W        W65334  25.665  19.530   4.112
92910W        W65335  13.563  44.050  11.636
92911W        W65336  29.163  28.630  13.805
92912W        W65337   9.964  19.568   0.988
92913W        W65338  35.916  34.058  13.466
92914W        W65339   3.967   7.884   3.413
92915W        W65340  24.255   9.143   4.605
92916W        W65341  21.612  30.132  12.636
92917W        W65342   1.689   1.525   0.290
92918W        W65343  37.408  29.368  11.092
92919W        W65344  44.585  22.534  10.770
92920W        W65345  43.746  24.466   2.377
92921W        W65346  44.700   4.269   0.944
92922W        W65347  22.584  10.923  10.653
92923W        W65348   6.697  43.870   4.401
92924W        W65349  16.614  38.181  12.863
92925W        W65350  21.763  40.806  14.048
92926W        W65351  39.760  25.625  14.601
92927W        W65352  23.720  12.221   2.809
92928W        W65353  40.606  15.771  13.414
92929W        W65354  14.373   0.194   3.152
92930W        W65355  27.089  16.178   2.889
92931W        W65356  37.045  27.677  10.703
92932W        W65357  32.508  33.996   2.835
92933W        W65358  42.030  18.034   3.651
92934W        W65359  17.170  31.236   4.153
92935W        W65360  18.061  32.019   2.847
92936W        W65361  24.238   1.867   4.529
92937W        W65362  11.258  33.214  11.866
92938W        W65363  12.143  38.291   3.288
92939W        W65364  38.538  19.246   3.221
92940W        W65365  44.019   6.192   3.224
92941W        W65366   9.906  21.790   4.477
92942W        W65367  14.627  37.034   3.840
92943W        W65368  34.815   9.379   0.953
92944W        W65369  37.124  25.697  12.498
92945W        W65370  10.335  34.038  11.103
92946W        W65371  27.895   1.954  11.479
92947W        W65372  33.628  38.405  14.796
92948W        W65373   8.740  41.932  13.064
92949W        W65374  35.939   7.747   0.114
92950W        W65375  35.646  13.259   0.056
92951W        W65376  15.565  39.916  12.506
92952W        W65377  30.618  15.946   3.604
92953W        W65378  33.595   7.743   2.288
92954W        W65379  20.500  14.987  14.702
92955W        W65380  18.407  41.266  10.683
92956W        W65381   5.945   8.375   2.195
92957W        W65382  21.008   6.424   5.170
92958W        W65383   2.437  25.257   4.139
92959W        W65384  14.578  17.676   3.295
92960W        W65385  33.432  16.556  10.940
92961W        W65386   6.366  25.559   2.712
92962W        W65387  22.140  34.505   0.237
92963W        W65388   2.936  28.096  13.073
92964W        W65389  12.832  13.601  12.986
92965W        W65390  13.446  35.251  12.538
92966W        W65391   5.267  22.583  10.751
92967W        W65392  25.926  22.625   3.859
92968W        W65393  37.008   9.706  14.821
92969W        W65394  14.355  15.185  10.485
92970W        W65395  31.137  17.068  11.910
92971W        W65396  12.227  35.947  14.509
92972W        W65397   3.889  12.099   3.208
92973W        W65398  36.756  26.784   2.227
92974W        W65399   7.022  23.503  13.534
92975W        W65400  13.078  21.232  13.544
92976W        W65401  30.394  28.971   1.796
92977W        W65402   6.743  41.668  12.130
92978W        W65403  38.058  11.397   4.538
92979W        W65404  36.980   1.788   4.890
92980W        W65405  43.525  27.872   0.126
92981W        W65406  39.852  42.823   2.171
92982W        W65407  26.590  43.156   3.615
92983W        W65408  15.495  41.911   2.459
92984W        W65409  33.609  32.600   0.821
92985W        W65410   7.847  29.642   1.624
92986W        W65411  26.934  13.722  11.541
92987W        W65412   2.786  32.171   4.729
92988W        W65413   8.243  38.827   4.492
92989W        W65414  40.391  43.783   0.780
92990W        W65415  26.268  15.843  10.671
92991W        W65416  28.052  35.672  12.567
92992W        W65417  20.756  29.160   1.730
92993W        W65418  41.120  16.320  12.965
92994W        W65419   6.706   5.937   2.660
92995W        W65420  34.386  15.823   0.212
92996W        W65421   7.973  20.102  14.226
92997W        W65422   5.901  12.554   0.468
92998W        W65423  13.488  18.725   1.626
92999W        W65424  33.224  37.163   3.602
93000W        W65425  25.116  13.001   4.629
93001W        W65426  29.117  10.210   4.588
93002W        W65427  24.952  18.712  11.932
93003W        W65428  44.908  10.957  14.724
93004W        W65429  38.959  10.506   1.436
93005W        W65430  18.646  40.453  10.015
93006W        W65431  30.231  42.027  11.941
93007W        W65432  18.186  43.518  14.513
93008W        W65433  27.581  12.533  13.310
93009W        W65434  17.027  27.067  14.339
93010W        W65435   5.405  27.158  10.622
93011W        W65436   0.776  13.855   2.917
93012W        W65437  37.087   6.251  12.562
93013W        W65438  44.528  25.128  13.982
93014W        W65439  44.040  32.140  13.362
93015W        W65440  44.553  34.987   4.986
93016W        W65441  26.224  29.775   4.820
93017W        W65442  28.664  39.934  14.787
93018W        W65443  33.509  11.942  12.919
93019W        W65444  39.515  31.990  11.390
93020W        W65445  33.464   6.093   1.903
93021W        W65446   8.173  40.176  12.026
93022W        W65447  42.283  19.265  11.032
93023W        W65448  44.786  36.914  11.441
93024W        W65449  21.367  38.986   3.481
93025W        W65450  43.397  11.145  13.874
93026W        W65451  12.239  21.973  14.913
93027W        W65452   7.196   1.368   3.325
93028W        W65453   4.852  35.027  14.441
93029W        W65454   0.178  16.354   1.404
93030W        W65455  34.394  42.434   0.841
93031W        W65456   7.750  19.616  12.605
93032W        W65457  37.820  23.146  13.429
93033W        W65458  17.597  35.625   3.663
93034W        W65459  19.204   2.840   2.976
93035W        W65460   6.411  37.383   2.073
93036W        W65461  26.465   6.585   1.444
93037W        W65462  16.930  25.148   4.147
93038W        W65463  43.238   2.664  11.303
93039W        W65464  28.076  41.888  14.385
93040W        W65465  36.849  42.991  14.923
93041W        W65466  28.477  21.549  13.995
93042W        W65467  30.402  16.363   4.382
93043W        W65468   9.640  41.664  10.347
93044W        W65469  37.986  35.348   2.457
93045W        W65470  11.888   3.454   3.350
93046W        W65471  39.936  23.018  14.950
93047W        W65472  16.666  21.176   3.924
93048W        W65473  21.757   9.726  12.515
93049W        W65474  13.431  27.913   1.491
93050W        W65475  16.558  22.230   3.702
93051W        W65476  42.915  21.634   2.685
93052W        W65477  18.064  42.991   2.676
93053W        W65478  27.189  16.614  11.020
93054W        W65479  34.512  24.190   2.332
93055W        W65480  25.248  40.886  13.308
93056W        W65481  13.285  16.960   5.106
93057W        W65482  18.187  23.985  13.918
93058W        W65483  40.998  12.655   3.865
93059W        W65484  28.973  19.804  12.426
93060W        W65485  34.114  44.825  12.718
93061W        W65486  39.064  32.580  14.998
93062W        W65487   6.180  41.205  10.545
93063W        W65488  27.443  34.727  14.893
93064W        W65489   7.779  31.044  10.795
93065W        W65490  26.793  15.353  13.335
93066W        W65491   4.194  36.100  12.036
93067W        W65492  44.332  26.090   4.668
93068W        W65493  17.480  13.507   3.031
93069W        W65494  44.394  43.410  11.976
93070W        W65495  10.380  20.984  14.907
93071W        W65496   6.853  17.834   1.131
93072W        W65497  13.641  18.738   2.586
93073W        W65498  28.658  25.889   1.815
93074W        W65499  21.984  36.854  10.627
93075W        W65500  29.570   8.846  11.996
93076W        W65501  24.404  34.524   3.437
93077W        W65502   0.180  38.858  14.298
93078W        W65503  22.086  24.636   4.751
93079W        W65504  22.004   9.748  14.041
93080W        W65505  29.483   1.919   1.895
93081W        W65506   3.726  34.505  13.764
93082W        W65507  19.784  31.608  12.930
93083W        W65508  27.333  29.082   2.628
93084W        W65509  21.890   9.623   4.979
93085W        W65510  25.531  20.818  14.997
93086W        W65511  19.787  19.889   1.388
93087W        W65512  34.835  27.851   0.754
93088W        W65513  28.172  19.326  12.000
93089W        W65514  32.452  41.733   1.223
93090W        W65515  26.101  10.724   2.758
93091W        W65516  33.625  28.282  10.151
93092W        W65517  23.271  16.710   2.735
93093W        W65518  14.284  37.389  10.769
93094W        W65519  15.053  12.428  12.860
93095W        W65520  22.109   9.925   4.052
93096W        W65521  17.747  31.164  14.835
93097W        W65522  13.787  36.081   3.403
93098W        W65523  28.389   0.529  13.757
93099W        W65524  10.943   5.226  13.502
93100W        W65525  17.723  37.477   3.160
93101W        W65526  25.693  25.165  14.923
93102W        W65527  15.557   2.009   4.621
93103W        W65528   5.422  32.317   2.649
93104W        W65529  43.469  29.111  13.001
93105W        W65530  31.111  40.057   2.769
93106W        W65531  35.624   4.671   3.657
93107W        W65532  42.055   5.275  13.263
93108W        W65533   0.496  33.062  13.347
93109W        W65534  40.044  24.929   3.277
93110W        W65535  32.082  28.052   0.366
93111W        W65536  14.994  27.086   2.209
93112W        W65537  17.260  26.138  10.628
93113W        W65538   5.026  28.614   3.295
93114W        W65539   9.835  17.023  12.229
93115W        W65540  27.781  27.136   0.275
93116W        W65541   9.365  31.039  11.962
93117W        W65542  31.644   8.284  11.470
93118W        W65543  19.052   9.452  10.693
93119W        W65544  39.097  44.830   9.691
93120W        W65545  39.954  30.848   2.055
93121W        W65546  17.154   9.209   1.061
93122W        W65547  23.493   2.992   4.136
93123W        W65548  43.364  17.468   2.598
93124W        W65549  41.423  40.107   3.771
93125W        W65550  17.800  17.408   3.635
93126W        W65551   0.415  30.656  10.505
93127W        W65552  19.578   9.389  12.188
93128W        W65553   1.696  28.647  13.828
93129W        W65554  35.350  30.614  14.258
93130W        W65555   9.703  15.845   3.785
93131W        W65556  20.637  19.357   5.065
93132W        W65557  33.911  17.990  14.274
93133W        W65558  34.462   1.428  13.413
93134W        W65559  23.940  23.499   5.092
93135W        W65560  23.082  13.628   2.170
93136W        W65561  16.781  14.594  13.444
93137W        W65562  27.499   6.300  14.806
93138W        W65563  13.120  29.896  14.848
93139W        W65564   3.966  37.866  14.711
93140W        W65565  41.468  43.663  14.897
93141W        W65566   0.506  18.099  12.725
93142W        W65567   3.903   0.302   3.983
93143W        W65568  10.372  24.671   0.932
93144W        W65569  40.502  41.315  11.727
93145W        W65570  34.130  39.864  12.651
93146W        W65571  10.183  31.480  10.655
93147W        W65572  29.818  37.926  12.092
93148W        W65573  25.970  39.734  13.366
93149W        W65574  36.885  27.738  12.056
93150W        W65575  33.434  32.409   2.305
93151W        W65576  40.306   3.009   2.954
93152W        W65577  33.108  27.946   3.869
93153W        W65578   1.402  22.326  11.806
93154W        W65579  17.163  44.850   3.730
93155W        W65580  25.203  12.631  14.305
93156W        W65581   7.006  21.505   1.279
93157W        W65582   5.415  26.482   1.036
93158W        W65583  11.630  10.226   0.971
93159W        W65584  39.381  34.358   4.540
93160W        W65585  17.025  33.471   4.690
93161W        W65586  12.050  12.707  12.211
93162W        W65587  24.104  43.409   0.155
93163W        W65588  16.374   6.814   3.894
93164W        W65589   0.212  34.000   4.768
93165W        W65590  19.130   9.756   3.127
93166W        W65591   6.996  13.075  13.871
93167W        W65592  15.646   2.339   2.355
93168W        W65593   3.277  38.090   0.443
93169W        W65594  14.765  43.380  13.993
93170W        W65595  25.991  13.934   0.385
93171W        W65596   4.707  23.047   1.058
93172W        W65597  41.815  23.062  11.620
93173W        W65598  14.091  31.103   3.205
93174W        W65599   7.251  13.735   0.367
93175W        W65600  16.166  17.782   4.145
93176W        W65601  16.369  40.965   1.663
93177W        W65602  16.177  27.909   4.652
93178W        W65603  35.315  39.366   3.837
93179W        W65604  35.096  18.006  11.160
93180W        W65605  13.468  37.935   1.934
93181W        W65606  11.744  42.036   3.629
93182W        W65607   8.341  31.087  11.612
93183W        W65608  10.253  11.127  12.943
93184W        W65609  38.827  32.354   4.130
93185W        W65610  31.567  40.099  10.650
93186W        W65611  20.608  25.755  13.273
93187W        W65612   5.763  11.081   0.373
93188W        W65613   9.890   9.469   3.737
93189W        W65614   7.146  31.850   3.409
93190W        W65615  14.073  42.699   3.553
93191W        W65616  44.300  37.006  13.506
93192W        W65617  24.976  21.874   0.476
93193W        W65618  11.093   7.700  12.438
93194W        W65619  28.965  36.448   4.080
93195W        W65620  17.377  27.985  13.957
93196W        W65621  30.126  29.695   1.566
93197W        W65622  29.481  33.572  10.118
93198W        W65623  21.393  12.660  14.488
93199W        W65624  19.167  23.328  12.981
93200W        W65625  38.543  34.817  13.601
93201W        W65626  41.217  39.340   0.211
93202W        W65627  10.889   2.577  10.702
93203W        W65628   2.515  43.830  12.126
93204W        W65629  16.767  12.886  14.234
93205W        W65630  23.459  13.099   2.795
93206W        W65631  33.410  36.721   2.847
93207W        W65632   3.314  44.275  10.876
93208W        W65633  32.089  41.751   4.236
93209W        W65634   0.279  34.048   1.927
93210W        W65635   7.162  14.167   4.596
93211W        W65636   8.073  41.129  11.896
93212W        W65637  10.934  39.815   4.164
93213W        W65638  30.975   9.747  10.662
93214W        W65639  37.450   2.332   3.749
93215W        W65640  18.199  44.897   5.082
93216W        W65641  14.823   4.941  13.408
93217W        W65642  38.162   8.570  10.005
93218W        W65643  42.008  31.035   3.779
93219W        W65644   2.946   0.764   0.886
93220W        W65645  27.676  16.640  11.468
93221W        W65646   9.757   3.875  13.564
93222W        W65647  21.660  25.740   1.489
93223W        W65648  39.410   2.057   4.044
93224W        W65649  11.167  36.591  13.107
93225W        W65650   8.811  42.205   2.351
93226W        W65651  21.296  35.499   4.811
93227W        W65652   0.440  26.917   4.350
93228W        W65653  23.046  26.135   3.722
93229W        W65654   9.713  44.232   2.312
93230W        W65655   1.252  31.396   3.445
93231W        W65656  38.341  12.301   2.951
93232W        W65657   2.212  15.740  14.032
93233W        W65658  43.522   4.633   0.380
93234W        W65659  19.347  29.275  13.032
93235W        W65660  17.804  10.087  11.906
93236W        W65661  10.388   5.807  11.226
93237W        W65662  14.235  16.851  11.557
93238W        W65663  42.933  14.602  12.560
93239W        W65664   9.105  40.871   3.163
93240W        W65665  37.661  25.680  12.480
93241W        W65666  27.454  35.475   4.316
93242W        W65667  15.620   9.462   1.729
93243W        W65668  38.690  22.115  14.634
93244W        W65669   3.559   1.951  13.919
93245W        W65670  18.305  29.764  11.695
93246W        W65671  21.721   2.494  10.691
93247W        W65672  20.124  21.039  11.554
93248W        W65673  11.869  37.566  12.028
93249W        W65674  29.630  26.751   1.745
93250W        W65675   5.007  31.479   1.329
93251W        W65676  19.025  17.592  14.992
93252W        W65677  15.151  19.248  10.667
93253W        W65678  26.171  13.070  11.271
93254W        W65679  32.640   2.900   2.934
93255W        W65680  15.429  33.504  13.693
93256W        W65681  17.096   4.944  11.103
93257W        W65682  26.238   7.427   1.288
93258W        W65683  26.182  21.607  11.283
93259W        W65684  14.338  25.393   3.657
93260W        W65685  14.280   0.684  12.917
93261W        W65686   2.212  11.772  11.939
93262W        W65687  10.663  44.086   2.437
93263W        W65688  42.778   8.365   4.192
93264W        W65689   7.856  25.235   1.837
93265W        W65690  36.310  18.573  14.306
93266W        W65691  13.026  27.831  13.907
93267W        W65692  23.002  36.459  14.542
93268W        W65693  31.071  40.107  10.772
93269W        W65694  25.120  17.387  11.002
93270W        W65695   4.541   1.876   1.380
93271W        W65696  38.403  12.804   2.319
93272W        W65697  28.925  29.497   0.830
93273W        W65698  15.697  33.052  13.011
93274W        W65699   6.894  31.102   0.482
93275W        W65700  37.591   8.680   3.552
93276W        W65701   2.259  40.378   3.873
93277W        W65702  12.100  33.515   1.006
93278W        W65703  13.584  42.006   2.224
93279W        W65704  33.983   6.305   2.221
93280W        W65705  22.284   3.832  10.097
93281W        W65706  14.080   8.293   1.345
93282W        W65707   9.197  32.481  11.476
93283W        W65708  23.731  37.104   2.727
93284W        W65709   7.870  42.344   0.450
93285W        W65710  14.257   6.357  14.317
93286W        W65711   1.994   9.009   0.431
93287W        W65712  38.339   0.461   4.430
93288W        W65713  29.493  11.063   2.781
93289W        W65714  30.233  17.097   0.816
93290W        W65715  39.511  25.957   1.811
93291W        W65716  30.710  36.920   0.272
93292W        W65717  41.008  17.548   4.375
93293W        W65718  35.587  31.269  10.684
93294W        W65719  30.606  13.236   3.603
93295W        W65720  24.522  34.906   4.349
93296W        W65721  24.737  27.620   4.326
93297W        W65722  37.496  19.058   2.755
93298W        W65723  18.901  24.225  11.672
93299W        W65724   4.182  11.288   3.805
93300W        W65725   4.292  33.193   4.368
93301W        W65726  36.609  24.712   3.787
93302W        W65727   0.138  31.105   1.998
93303W        W65728  40.774  30.696  12.638
93304W        W65729  32.489  25.218   0.649
93305W        W65730  30.449  31.115   4.145
93306W        W65731   1.003  36.900  12.378
93307W        W65732  34.024  10.362   1.873
93308W        W65733  41.968   4.196   4.119
93309W        W65734  15.206  33.069   0.485
93310W        W65735  14.804  10.543  12.371
93311W        W65736  32.593  18.740  13.363
93312W        W65737   0.771  36.303   1.427
93313W        W65738  41.847   6.363  10.328
93314W        W65739   7.795   6.623   1.366
93315W        W65740   4.208  33.181  12.078
93316W        W65741  10.846   0.232   4.138
93317W        W65742  44.248  24.717  12.532
93318W        W65743  27.693  25.970   2.127
93319W        W65744   6.247  39.880  14.210
93320W        W65745  13.075  18.316   2.886
93321W        W65746  19.721  16.574  13.552
93322W        W65747   8.282  41.304  11.234
93323W        W65748  40.442  27.590  14.012
93324W        W65749  11.075  32.468   2.290
93325W        W65750  39.778  35.023   1.827
93326W        W65751  30.647   9.296   2.204
93327W        W65752  26.986   2.301   0.707
93328W        W65753  26.927  17.023  11.152
93329W        W65754   1.705  31.528   1.253
93330W        W65755  43.811  27.614   0.485
93331W        W65756  27.396  32.010  12.816
93332W        W65757  12.230  41.585   2.593
93333W        W65758  40.506  13.697  11.026
93334W        W65759  40.720  24.448  10.836
93335W        W65760  31.560  34.043   1.010
93336W        W65761  21.775  17.385   0.368
93337W        W65762  17.025  32.480   2.438
93338W        W65763   5.869  23.695   4.631
93339W        W65764  11.300  28.412  13.046
93340W        W65765  24.745  28.587   2.828
93341W        W65766  33.745  21.183   3.665
93342W        W65767  24.812  15.329  11.610
93343W        W65768  20.127  29.210  12.541
93344W        W65769  11.186  38.811   4.245
93345W        W65770  21.687   9.070   5.605
93346W        W65771   6.837  39.348   3.436
93347W        W65772  33.596  29.844  13.362
93348W        W65773  27.891   6.374   3.844
93349W        W65774   5.386   9.932   4.654
93350W        W65775  31.467   2.003   0.440
93351W        W65776  16.448  11.056   1.734
93352W        W65777  43.993  41.530   3.579
93353W        W65778  12.672   2.304  14.920
93354W        W65779  40.251  33.917  11.067
93355W        W65780  11.268  18.321   0.798
93356W        W65781  25.055  13.814  10.596
93357W        W65782  32.627  12.360   0.796
93358W        W65783  19.140  20.639   3.400
93359W        W65784  37.605  18.088   3.790
93360W        W65785  20.933  25.679   0.324
93361W        W65786   3.920  44.766  14.432
93362W        W65787  15.626  14.268  10.860
93363W        W65788  17.973  30.966   3.273
93364W        W65789  21.285   7.886   4.122
93365W        W65790  28.654  38.934  10.180
93366W        W65791  29.121  41.403   0.447
93367W        W65792  26.066  22.749  12.630
93368W        W65793  19.506  41.413   1.369
93369W        W65794  44.930  34.495   2.161
93370W        W65795  21.964  36.853  12.443
93371W        W65796  21.325   9.704  13.440
93372W        W65797   2.865  13.576  14.873
93373W        W65798  44.346  16.924  11.510
93374W        W65799  14.722   5.308  14.430
93375W        W65800  32.605  30.963   3.448
93376W        W65801  21.499  26.032   3.769
93377W        W65802  21.238  18.248   3.071
93378W        W65803  26.695  21.580   2.252
93379W        W65804   9.812  25.506   2.610
93380W        W65805  26.085  35.524  14.311
93381W        W65806  42.245  23.592   2.856
93382W        W65807  39.445  12.277  11.184
93383W        W65808  31.038  18.638   1.776
93384W        W65809   2.007  12.698   1.485
93385W        W65810  34.164  16.140   2.866
93386W        W65811  39.903   4.187  14.774
93387W        W65812  32.550  28.670   0.574
93388W        W65813  38.062  25.066   2.381
93389W        W65814  38.471  40.863   0.722
93390W        W65815  19.944  19.335  11.189
93391W        W65816  16.095  20.550  12.035
93392W        W65817  28.498   0.415   3.262
93393W        W65818  25.427  43.948  13.949
93394W        W65819  19.173  33.323   2.445
93395W        W65820  16.055  32.556  13.597
93396W        W65821   6.225  27.652   0.282
93397W        W65822  10.826  44.911  14.507
93398W        W65823  35.920   5.246  11.900
93399W        W65824  14.117  34.495  13.584
93400W        W65825   0.123  22.953  10.689
93401W        W65826  41.946  31.420  12.919
93402W        W65827   3.795   3.037   2.846
93403W        W65828  44.013  23.816   3.267
93404W        W65829   2.921  27.462  14.299
93405W        W65830   0.119  20.297   1.120
93406W        W65831  27.451  15.116  14.288
93407W        W65832  21.988   8.244   0.033
93408W        W65833  18.842  33.505   3.378
93409W        W65834  40.915  19.486  11.504
93410W        W65835   3.104   9.231   4.049
93411W        W65836   1.644  24.081   0.685
93412W        W65837  32.035   1.264   2.214
93413W        W65838  13.833  13.175  13.832
93414W        W65839   0.841  37.563   3.693
93415W        W65840  41.825  40.031  11.712
93416W        W65841  39.086  39.173  12.321
93417W        W65842  36.662  39.659  12.045
93418W        W65843  36.534  37.344  14.233
93419W        W65844   8.156  18.091   0.899
93420W        W65845  38.968   7.899  11.116
93421W        W65846  36.459  26.123   0.804
93422W        W65847  38.951  35.162  11.149
93423W        W65848  31.993  17.833  12.425
93424W        W65849  27.371  14.783  10.554
93425W        W65850   6.866  24.623  13.453
93426W        W65851  11.514  15.609  13.753
93427W        W65852   5.040  37.545   2.733
93428W        W65853   2.084  32.501   1.276
93429W        W65854  22.130   5.683  13.845
93430W        W65855  28.974  34.969  12.485
93431W        W65856  34.180  25.598  10.762
93432W        W65857  14.172   7.392   2.862
93433W        W65858   9.433   6.602  10.731
93434W        W65859  15.176  43.984   1.228
93435W        W65860  17.679   0.696  13.227
93436W        W65861   4.865   2.727  13.555
93437W        W65862  35.954   7.825   1.943
93438W        W65863  39.315  23.743   3.223
93439W        W65864  42.152  16.598  11.101
93440W        W65865   4.921   1.591   1.647
93441W        W65866  21.252  34.548  14.930
93442W        W65867   5.842   8.052   1.220
93443W        W65868  17.007  34.473   4.637
93444W        W65869  31.015  12.661   4.136
93445W        W65870  16.247  19.150   1.362
93446W        W65871  27.039  21.089  14.266
93447W        W65872  43.493  41.013   3.979
93448W        W65873  28.841  17.032   1.979
93449W        W65874  35.085   7.115  14.370
93450W        W65875  27.417  13.798  13.415
93451W        W65876  25.106  23.006  13.409
93452W        W65877   0.426  10.809  10.486
93453W        W65878  21.380   4.725   0.421
93454W        W65879  13.326   7.825   1.486
93455W        W65880  26.240  14.311  11.742
93456W        W65881  24.423   4.391  14.844
93457W        W65882  36.233  21.025   3.155
93458W        W65883  37.140  40.497   4.557
93459W        W65884  22.322  31.706   4.659
93460W        W65885  27.582  17.172   0.967
93461W        W65886  27.785  32.596   5.095
93462W        W65887  36.554   4.723   2.605
93463W        W65888  39.048  34.103   0.333
93464W        W65889  33.373  34.986   1.670
93465W        W65890   7.815   4.195  11.934
93466W        W65891   8.129  24.413  14.028
93467W        W65892  11.233  21.041   4.860
93468W        W65893  32.879   7.695   2.644
93469W        W65894  21.371  15.164  12.664
93470W        W65895  43.409  38.844   2.662
93471W        W65896   7.021   4.926   4.568
93472W        W65897   5.766  36.901  11.109
93473W        W65898  17.877  15.836  11.121
93474W        W65899  22.374   9.284  12.730
93475W        W65900   8.353   7.255  14.330
93476W        W65901  36.105   2.476  11.875
93477W        W65902  25.280  28.657   1.290
93478W        W65903  11.586  41.938   1.877
93479W        W65904  37.947   8.354  11.931
93480W        W65905  32.955  14.895   0.074
93481W        W65906  41.035   9.859   2.785
93482W        W65907  39.421  23.956   4.659
93483W        W65908   5.983   0.944  11.513
93484W        W65909   6.005  14.140  13.858
93485W        W65910  15.154  21.372  10.215
93486W        W65911  21.007  42.272  12.960
93487W        W65912  37.810  33.569  10.889
93488W        W65913  12.176  20.479  14.839
93489W        W65914  17.023   4.287  11.394
93490W        W65915   6.692  30.432   2.402
93491W        W65916   5.148  35.516  14.303
93492W        W65917  29.451  14.884   4.115
93493W        W65918  19.996   5.830  13.947
93494W        W65919  17.930  17.737   2.669
93495W        W65920  14.878  12.600  14.476
93496W        W65921  16.183  11.249  12.657
93497W        W65922  13.591  42.576   1.334
93498W        W65923  12.384  20.935   4.467
93499W        W65924   5.692   9.823   0.769
93500W        W65925  15.510  20.588   4.247
93501W        W65926   4.802  41.302  12.534
93502W        W65927  20.539  10.185   1.643
93503W        W65928  35.581   0.789  14.023
93504W        W65929   2.402   5.363   1.168
93505W        W65930  41.358   1.725  12.000
93506W        W65931   5.394   2.222   0.879
93507W        W65932   4.678  24.669  13.551
93508W        W65933   1.273  27.406   2.239
93509W        W65934  31.679  14.828   2.039
93510W        W65935  30.547  19.549   0.441
93511W        W65936  27.202  20.277   1.764
93512W        W65937  28.088  13.871   2.894
93513W        W65938  42.322  22.022   3.867
93514W        W65939  22.506  11.770   3.493
93515W        W65940  37.109   6.948   2.802
93516W        W65941  34.364  17.789  12.371
93517W        W65942  36.142  31.532   1.647
93518W        W65943  32.821  18.734   9.913
93519W        W65944  37.104  10.073   0.733
93520W        W65945  18.952  23.695   3.747
93521W        W65946  43.762  39.699   1.349
93522W        W65947  21.910   2.118   0.500
93523W        W65948  26.085   7.606   2.795
93524W        W65949  37.556  25.664   3.499
93525W        W65950  17.677  19.154   2.150
93526W        W65951   1.244  27.944   2.679
93527W        W65952  30.097  40.345  12.096
93528W        W65953  11.081  30.354   1.452
93529W        W65954  12.277   0.745   3.794
93530W        W65955  42.815  44.964  13.980
93531W        W65956  39.012   2.881   3.828
93532W        W65957   3.949  16.660  13.031
93533W        W65958  12.905  35.442   3.318
93534W        W65959  37.003  23.109  10.157
93535W        W65960  40.775   5.184   3.024
93536W        W65961  12.862  42.840   2.894
93537W        W65962  15.159  20.453  10.929
93538W        W65963   2.014  28.048  11.734
93539W        W65964  28.682  20.760   0.734
93540W        W65965  35.926   0.630  14.670
93541W        W65966   5.763  33.377   3.429
93542W        W65967  21.457  42.296   0.730
93543W        W65968  27.659  28.697  10.847
93544W        W65969  40.298   8.828   3.671
93545W        W65970  31.476  10.779   2.903
93546W        W65971  18.573  21.696  12.493
93547W        W65972  32.869   3.219  14.355
93548W        W65973  33.826  29.296   0.437
93549W        W65974  10.305  28.905  11.362
93550W        W65975  24.743   1.101   0.732
93551W        W65976  40.357  19.437  11.173
93552W        W65977   3.253   3.425   1.327
93553W        W65978  39.953  25.753   1.031
93554W        W65979  20.759  42.406  14.296
93555W        W65980  10.028  37.079  13.560
93556W        W65981  39.619  30.961   1.201
93557W        W65982  13.126  19.873  12.032
93558W        W65983  34.801  11.448  12.440
93559W        W65984  35.506  35.586   1.359
93560W        W65985  44.872  29.639  10.797
93561W        W65986  35.085  38.310  10.730
93562W        W65987  13.799  17.204   4.527
93563W        W65988  12.089  38.183   1.995
93564W        W65989  20.517  41.925  14.344
93565W        W65990  34.571  36.014  12.439
93566W        W65991  19.580   0.897   3.153
93567W        W65992  40.322   6.887  11.987
93568W        W65993  37.453  17.209   0.912
93569W        W65994  25.034  39.827  14.327
93570W        W65995  28.421  15.553  11.594
93571W        W65996  18.698   7.752  10.709
93572W        W65997  33.576  43.756  14.287
93573W        W65998  36.020  35.959  10.682
93574W        W65999  35.521  24.707  10.901
93575W        W66000   9.500  35.898  10.981
93576W        W66001  25.002   8.811   4.598
93577W        W66002  44.540   1.982   5.020
93578W        W66003   5.012  30.165  14.899
93579W        W66004  40.497  31.735  12.537
93580W        W66005  44.319  33.390   4.542
93581W        W66006  39.429  24.267   0.422
93582W        W66007  10.381  22.596  12.101
93583W        W66008  29.367  16.303   1.454
93584W        W66009  36.538  10.113  10.272
93585W        W66010  24.579  11.452  13.018
93586W        W66011  21.273  40.094   4.986
93587W        W66012  41.404   7.829   3.212
93588W        W66013  35.554  20.360   2.841
93589W        W66014   7.936  22.074  14.981
93590W        W66015  31.027  32.454  11.255
93591W        W66016  28.372   2.668  11.432
93592W        W66017   2.971  33.178  10.624
93593W        W66018  40.943  17.555  14.949
93594W        W66019  26.104  21.747  12.889
93595W        W66020   3.707   8.348  11.032
93596W        W66021   5.794  31.017   3.585
93597W        W66022  30.546   5.714  14.491
93598W        W66023   8.326   8.088   2.785
93599W        W66024  31.631  23.210  10.914
93600W        W66025  25.206  15.519   0.097
93601W        W66026   9.685  33.553   3.561
93602W        W66027  22.040  24.155   2.304
93603W        W66028  43.558  35.597   3.613
93604W        W66029   8.582  35.616  14.419
93605W        W66030   9.461  36.677  12.849
93606W        W66031  17.484  13.155  13.370
93607W        W66032  33.319  37.206   2.665
93608W        W66033  44.515  25.314   0.114
93609W        W66034  31.487  24.160  14.745
93610W        W66035  15.002  18.982   1.994
93611W        W66036  26.472  32.100   3.194
93612W        W66037  38.551  39.331  12.899
93613W        W66038  38.572  44.807  11.594
93614W        W66039   2.785  20.373  12.142
93615W        W66040  43.832   4.724   3.588
93616W        W66041  33.059  12.088   0.014
93617W        W66042  33.370  27.588  13.968
93618W        W66043  35.416   3.750  12.870
93619W        W66044   9.698   7.411   2.243
93620W        W66045  19.140  16.610  12.139
93621W        W66046  24.788  21.287   4.138
93622W        W66047  20.065  12.821   4.649
93623W        W66048  34.562  44.027  13.374
93624W        W66049  14.251  28.790  11.982
93625W        W66050  30.474  28.899  12.116
93626W        W66051  28.486   7.131   2.321
93627W        W66052   4.822  27.029   3.283
93628W        W66053   6.893  10.069   0.731
93629W        W66054  39.700  15.060   3.251
93630W        W66055  37.452  13.057  13.966
93631W        W66056  39.930  16.694   1.728
93632W        W66057   9.230  22.656  12.798
93633W        W66058   8.199  19.722  13.781
93634W        W66059  38.844   5.985   1.419
93635W        W66060   9.436  24.475   2.723
93636W        W66061   1.678  36.366  13.206
93637W        W66062  33.937  15.622   0.268
93638W        W66063  19.579   3.446  14.468
93639W        W66064  29.231  27.944  12.930
93640W        W66065  31.851  20.143   1.484
93641W        W66066   7.267   8.520  11.044
93642W        W66067  40.907   6.658  12.935
93643W        W66068  40.864  18.073  13.974
93644W        W66069  25.524  31.882  11.663
93645W        W66070  17.273  26.001   3.273
93646W        W66071  11.008  19.566   1.937
93647W        W66072   6.333  38.899   0.382
93648W        W66073  25.156  30.103   3.628
93649W        W66074  42.553  40.951   3.620
93650W        W66075   0.315  37.693   0.083
93651W        W66076  27.228   9.562   1.826
93652W        W66077  18.550  20.607   4.753
93653W        W66078  26.851  29.381   4.298
93654W        W66079  38.151  15.873  14.971
93655W        W66080  28.883   4.246  14.764
93656W        W66081   6.228  17.922  12.168
93657W        W66082  26.426  23.477   2.306
93658W        W66083  22.814  23.841   4.146
93659W        W66084  13.863  30.107   1.455
93660W        W66085  12.294  24.719   1.515
93661W        W66086  44.028  41.356  13.782
93662W        W66087  30.842  11.882   0.488
93663W        W66088  41.074  43.099  12.581
93664W        W66089  28.940  19.656  13.429
93665W        W66090  29.899  37.588  14.943
93666W        W66091   4.713  15.019   1.330
93667W        W66092  36.369  15.313   4.616
93668W        W66093  23.504  22.659  13.623
93669W        W66094  24.619  19.845  13.912
93670W        W66095  30.148  10.136   1.226
93671W        W66096  15.684   1.404   2.359
93672W        W66097  12.436  25.013   4.197
93673W        W66098  33.880  30.473   2.884
93674W        W66099  19.750  11.354   3.423
93675W        W66100  24.736  10.822   1.454
93676W        W66101   4.343   5.681   3.395
93677W        W66102  18.062  31.537  10.244
93678W        W66103  27.477  31.734  11.452
93679W        W66104  44.895   0.231   4.614
93680W        W66105  20.697  15.506   1.430
93681W        W66106  16.872  12.068   3.938
93682W        W66107  36.433   6.598  11.984
93683W        W66108  20.020  26.874  14.026
93684W        W66109  10.827  14.690   4.609
93685W        W66110  16.724   2.986  10.959
93686W        W66111  20.068   7.742  12.407
93687W        W66112  26.604  32.345  10.318
93688W        W66113  17.361  16.788   3.166
93689W        W66114  38.495  11.311   4.196
93690W        W66115  42.390  14.813   2.795
93691W        W66116  10.014  22.592  14.562
93692W        W66117   1.015  41.121   2.638
93693W        W66118  10.153  25.182   1.202
93694W        W66119  16.290  20.839   3.779
93695W        W66120  11.280   5.477  14.786
93696W        W66121  23.289   7.080   4.365
93697W        W66122  37.376  30.232  11.580
93698W        W66123  34.084  40.714  14.024
93699W        W66124  37.192  15.799   1.612
93700W        W66125   5.160  44.065   2.733
93701W        W66126  18.578  22.391   5.034
93702W        W66127  18.620  28.880  12.600
93703W        W66128  20.244  11.320  14.917
93704W        W66129  42.792  40.911   3.134
93705W        W66130   9.072  21.521  11.505
93706W        W66131   0.492  17.290  12.551
93707W        W66132  40.119   2.762   4.674
93708W        W66133  17.800  18.868   3.148
93709W        W66134  23.628   3.963   1.252
93710W        W66135  26.707  23.318  12.680
93711W        W66136  32.422   1.800   0.734
93712W        W66137  19.677  27.597  14.960
93713W        W66138  39.379   5.292   3.614
93714W        W66139   2.313  26.797  13.893
93715W        W66140   6.670  32.685  11.522
93716W        W66141  12.649   1.987  14.520
93717W        W66142  26.938  27.128   2.170
93718W        W66143  34.429  41.536   0.638
93719W        W66144  34.094  37.931  13.770
93720W        W66145  37.622  44.943   0.685
93721W        W66146  22.480  26.975  13.742
93722W        W66147  11.084  11.630   3.650
93723W        W66148  17.045  38.981   2.791
93724W        W66149  31.601  27.107   2.250
93725W        W66150  23.266  38.540   4.074
93726W        W66151  15.650  12.245  10.613
93727W        W66152  25.288  33.370   4.278
93728W        W66153  39.529  31.611  12.255
93729W        W66154  24.269  13.359  13.924
93730W        W66155  40.735  44.610   1.889
93731W        W66156   2.399  38.435   0.224
93732W        W66157  11.676  17.769   2.134
93733W        W66158  17.576  23.723   2.346
93734W        W66159  23.526  35.962  11.905
93735W        W66160  21.221  14.617   3.730
93736W        W66161   1.849   9.870  13.422
93737W        W66162  11.182  25.427  14.916
93738W        W66163  18.122  37.011   3.239
93739W        W66164  32.708  44.791   3.207
93740W        W66165  23.177  38.291  11.490
93741W        W66166  22.995  29.696  11.547
93742W        W66167  30.161   8.281   3.163
93743W        W66168  30.669  23.282   1.283
93744W        W66169  34.364  38.592   0.403
93745W        W66170  24.334  34.041   2.263
93746W        W66171  28.237   5.702  12.011
93747W        W66172   0.183  10.976   0.179
93748W        W66173  27.152  20.928  13.051
93749W        W66174  31.569  34.669   2.353
93750W        W66175  29.562  32.610  13.322
93751W        W66176   9.793  13.758   1.229
93752W        W66177  32.985   5.431   3.998
93753W        W66178  29.730  15.751   3.720
93754W        W66179  31.017  19.657  10.096
93755W        W66180  31.300  28.406   0.077
93756W        W66181  13.419  37.879   3.198
93757W        W66182  22.616  41.814   4.326
93758W        W66183  20.984  16.103   3.577
93759W        W66184  43.264  38.290  10.724
93760W        W66185  18.172  39.616  14.964
93761W        W66186  33.626   0.525   3.945
93762W        W66187  17.357  29.632  10.797
93763W        W66188  31.476  32.360  12.450
93764W        W66189   4.949  38.869  13.452
93765W        W66190  39.448   4.337  12.022
93766W        W66191  33.391   2.817  12.843
93767W        W66192  16.261  44.566  11.147
93768W        W66193  22.650   3.992  13.447
93769W        W66194  38.506  28.361   3.746
93770W        W66195  14.784  15.819  13.737
93771W        W66196  37.790  13.355  14.785
93772W        W66197  20.659  28.680  12.913
93773W        W66198  44.448   9.951  11.064
93774W        W66199  23.059  13.175   3.164
93775W        W66200  41.203  23.700   4.289
93776W        W66201  34.025  40.835  12.589
93777W        W66202   2.897  39.534   0.052
93778W        W66203  13.613  23.327  11.683
93779W        W66204  36.389   2.257  13.972
93780W        W66205  21.127   0.062  11.097
93781W        W66206  10.220   6.365   5.077
93782W        W66207  16.574  34.671   4.366
93783W        W66208  34.802  22.632   2.775
93784W        W66209   3.989  14.389  10.750
93785W        W66210  35.473  15.699  10.590
93786W        W66211  28.216   4.226  12.979
93787W        W66212  11.649  13.313   3.660
93788W        W66213  36.107  24.796   3.663
93789W        W66214   1.799  40.798  14.464
93790W        W66215  12.562  38.901   1.307
93791W        W66216   9.360   5.798  10.261
93792W        W66217   0.223  37.424   3.870
93793W        W66218   9.542   6.294  10.259
93794W        W66219  19.168  19.514   3.098
93795W        W66220  33.065   3.893  13.873
93796W        W66221  14.670  21.213  10.307
93797W        W66222  20.465  13.653  11.672
93798W        W66223  22.275   7.358   2.908
93799W        W66224  19.519   0.537  14.130
93800W        W66225  25.518  38.533   0.622
93801W        W66226   3.753  26.668  14.074
93802W        W66227  39.318  15.602   1.712
93803W        W66228  31.899  17.761   2.374
93804W        W66229  29.358   2.005  10.912
93805W        W66230   9.150   9.226  12.041
93806W        W66231   0.112   5.042   1.363
93807W        W66232   5.354  31.354  14.498
93808W        W66233   8.368  37.523   4.096
93809W        W66234  18.591  38.593   0.383
93810W        W66235  43.597  23.548   3.418
93811W        W66236   4.319  11.833  10.437
93812W        W66237   4.350  12.254   3.057
93813W        W66238  17.573  27.759   1.083
93814W        W66239  34.404  11.738  11.137
93815W        W66240  20.171  22.466  14.776
93816W        W66241  34.718  14.470  12.952
93817W        W66242  27.505  15.860  11.978
93818W        W66243  42.446   5.674  14.448
93819W        W66244   1.679  12.223  12.557
93820W        W66245  38.099  30.614  10.514
93821W        W66246  25.150  31.913   2.250
93822W        W66247  17.594  24.644   9.979
93823W        W66248  35.535   9.818  10.619
93824W        W66249  27.471  12.166  11.145
93825W        W66250  39.823  41.953  10.158
93826W        W66251  36.623  14.130  13.832
93827W        W66252  32.029   4.931   2.841
93828W        W66253  19.319  32.668   2.750
93829W        W66254  10.700  10.454  12.410
93830W        W66255   7.021  12.154  12.870
93831W        W66256  23.025  11.846   5.012
93832W        W66257  19.797  20.417   0.426
93833W        W66258  33.439  44.801  14.040
93834W        W66259  17.478  37.401   3.609
93835W        W66260  20.603  32.595  13.590
93836W        W66261  27.126  18.638   1.203
93837W        W66262  30.019  15.346   3.210
93838W        W66263   3.329  22.580  12.590
93839W        W66264  25.121  38.618   0.946
93840W        W66265  29.651  24.115  11.642
93841W        W66266  41.850   5.292   1.138
93842W        W66267  20.516   5.512   4.235
93843W        W66268  13.123  11.756   2.145
93844W        W66269  23.562  40.936   0.459
93845W        W66270  22.330  41.067  11.505
93846W        W66271  13.757  17.576  11.450
93847W        W66272  34.987  44.565   1.946
93848W        W66273   7.322   9.788   0.725
93849W        W66274  25.808  39.016   3.044
93850W        W66275   6.380  18.830   2.645
93851W        W66276  20.065   8.615   2.810
93852W        W66277   2.350  38.989  13.179
93853W        W66278  15.436  39.519  14.753
93854W        W66279  44.353  30.717  11.623
93855W        W66280  27.507  36.634  14.013
93856W        W66281  14.973  18.364   2.879
93857W        W66282  11.151  38.460   0.627
93858W        W66283  37.074  23.682   3.203
93859W        W66284  18.597  43.816   0.264
93860W        W66285   0.940  10.286   3.672
93861W        W66286  26.196  35.909   4.235
93862W        W66287  36.530   5.704   2.359
93863W        W66288  17.146  35.977   0.869
93864W        W66289  14.123  24.179   5.372
93865W        W66290  16.750  18.136  11.790
93866W        W66291  13.150  27.645   1.886
93867W        W66292  16.319  18.040  10.949
93868W        W66293  19.080   7.709  11.640
93869W        W66294  37.156  20.296  11.925
93870W        W66295   3.851  25.504  14.430
93871W        W66296  18.609  14.553   0.903
93872W        W66297  16.580  41.618   3.123
93873W        W66298  30.292  31.016  10.050
93874W        W66299  11.453   4.719   1.964
93875W        W66300  25.459  20.453   1.419
93876W        W66301  32.304  28.947   0.966
93877W        W66302  13.385  25.547   3.840
93878W        W66303  42.132  41.908   4.673
93879W        W66304  19.991  25.972  14.344
93880W        W66305  13.116  44.320  13.955
93881W        W66306   6.232  40.423   9.839
93882W        W66307   3.397   1.443  10.897
93883W        W66308  16.105  22.027   2.231
93884W        W66309  43.829  40.591  10.416
93885W        W66310  10.262  36.263   1.861
93886W        W66311  25.632   2.217   0.358
93887W        W66312  32.081  14.857  12.989
93888W        W66313   4.157  42.074  12.119
93889W        W66314  27.721  25.655  14.572
93890W        W66315  36.630  28.819  10.738
93891W        W66316  22.965   7.396   3.435
93892W        W66317  10.262  25.125   0.692
93893W        W66318  38.557  37.331  14.841
93894W        W66319  13.758  14.627   3.373
93895W        W66320  39.588  16.009   1.908
93896W        W66321  36.045  16.089   3.318
93897W        W66322  41.883  24.343   0.832
93898W        W66323   3.472  31.192  12.964
93899W        W66324   7.678  16.779   0.759
93900W        W66325   6.353  29.667  12.889
93901W        W66326  14.818  34.018   0.831
93902W        W66327  42.864   3.439  11.512
93903W        W66328  17.533  34.801  13.142
93904W        W66329  13.375  23.540   0.332
93905W        W66330  29.965  39.113   2.095
93906W        W66331  44.450  16.053  11.347
93907W        W66332   7.603  17.627  14.966
93908W        W66333  19.381  31.951   2.220
93909W        W66334  28.232  15.618  14.498
93910W        W66335   0.756   5.813  11.072
93911W        W66336  10.787  20.261   1.440
93912W        W66337  35.373   2.939   4.438
93913W        W66338  21.824   5.738  14.562
93914W        W66339  25.311   7.827  13.988
93915W        W66340  16.317   6.074   0.193
93916W        W66341  35.881  35.354   3.820
93917W        W66342  29.231  16.106  13.319
93918W        W66343  35.038  19.322  14.221
93919W        W66344  38.462  34.784   1.879
93920W        W66345  33.153  10.775   1.259
93921W        W66346  26.673  11.782   1.620
93922W        W66347   4.341  24.914   4.128
93923W        W66348   4.759  33.021  14.757
93924W        W66349  15.110  27.679  13.641
93925W        W66350  24.202  15.291  11.037
93926W        W66351  42.914  14.572   1.288
93927W        W66352  31.077  26.889   3.322
93928W        W66353   2.503  41.175  12.516
93929W        W66354  12.212  21.767  12.005
93930W        W66355  26.489   2.046  12.958
93931W        W66356   6.778  32.926   2.685
93932W        W66357  38.073   3.511   2.841
93933W        W66358  18.794   3.729  11.573
93934W        W66359  43.301  31.985   1.424
93935W        W66360  41.365  44.244  13.285
93936W        W66361  18.129  14.134  12.126
93937W        W66362  16.234  25.947  14.920
93938W        W66363   6.281  31.241   3.434
93939W        W66364   6.219   3.817   0.368
93940W        W66365  19.185  41.316   3.590
93941W        W66366  12.687  41.117   0.443
93942W        W66367  16.052  27.712   3.261
93943W        W66368   7.708  30.182   0.880
93944W        W66369  18.929  15.313  14.889
93945W        W66370  34.011  38.540  10.880
93946W        W66371  27.956   2.940  12.773
93947W        W66372  14.108   9.350  11.522
93948W        W66373  35.469  23.128  10.233
93949W        W66374  13.499   2.862   2.245
93950W        W66375   0.455  13.898   1.673
93951W        W66376  37.300   0.442  10.141
93952W        W66377   8.595  31.112   3.594
93953W        W66378   8.762  15.611   0.411
93954W        W66379  39.364  38.970   1.821
93955W        W66380  28.264  28.120  12.861
93956W        W66381  18.149   4.139  11.064
93957W        W66382  39.330  11.606  14.412
93958W        W66383  15.142  23.981  11.602
93959W        W66384  35.033  13.704   0.289
93960W        W66385  14.407  30.130  11.894
93961W        W66386  24.244  26.655   4.169
93962W        W66387  17.291  18.775  12.076
93963W        W66388   4.308  28.437  14.942
93964W        W66389  34.986  20.858  13.559
93965W        W66390  36.502  24.183   1.467
93966W        W66391  20.304  32.275   9.946
93967W        W66392   4.376  13.268  13.850
93968W        W66393  41.356  20.840   4.743
93969W        W66394  20.089  37.619   0.715
93970W        W66395   2.191  12.636   1.017
93971W        W66396  17.125  20.750   2.189
93972W        W66397  22.280   3.289  13.832
93973W        W66398   3.708  25.992  14.326
93974W        W66399  31.371  41.848   2.125
93975W        W66400   8.356  16.293   2.837
93976W        W66401  38.049  34.461   2.400
93977W        W66402  11.319  42.742   1.275
93978W        W66403  40.837  34.910   4.200
93979W        W66404  34.299  16.064  11.786
93980W        W66405  35.626   3.338  12.035
93981W        W66406   5.742  38.342  14.337
93982W        W66407  13.643   6.221  11.149
93983W        W66408  36.783  32.960  11.684
93984W        W66409  28.729  17.260  12.296
93985W        W66410   9.967   2.773  11.640
93986W        W66411   8.468  41.540   4.151
93987W        W66412  36.792   0.893  11.697
93988W        W66413  11.242   7.271   9.724
93989W        W66414  35.580  29.045  12.903
93990W        W66415  13.612  20.649   2.415
93991W        W66416  27.443  39.499   3.515
93992W        W66417  35.107  35.879  12.976
93993W        W66418  24.142  44.745   4.193
93994W        W66419  34.318  10.277  12.085
93995W        W66420  33.298  21.094  11.580
93996W        W66421   8.099   6.257   1.599
93997W        W66422  25.192  32.144   0.787
93998W        W66423  24.254  10.512   4.999
93999W        W66424  26.862  24.650  14.373
94000W        W66425  28.633  23.496   3.903
94001W        W66426   4.973  12.378   3.069
94002W        W66427  10.441  11.616  13.038
94003W        W66428  39.032  30.708   2.899
94004W        W66429  15.736  27.465  12.735
94005W        W66430  34.153   0.967   1.773
94006W        W66431   6.768  40.785   2.917
94007W        W66432   6.745  38.552   4.138
94008W        W66433  15.115  37.925   1.207
94009W        W66434  42.831  37.493   0.463
94010W        W66435  30.973  31.585  12.277
94011W        W66436  34.201  24.018   1.115
94012W        W66437   8.468  10.960   3.048
94013W        W66438   4.352  33.090  12.559
94014W        W66439  37.489  29.911  14.834
94015W        W66440  20.022  10.999  14.511
94016W        W66441  42.024  43.605   4.546
94017W        W66442  38.000  37.520  11.950
94018W        W66443  42.974  11.430  11.679
94019W        W66444  21.801  10.249  12.413
94020W        W66445  19.970  40.820   1.916
94021W        W66446   0.379  23.751   2.659
94022W        W66447  42.445  34.114   3.268
94023W        W66448   9.433  20.571  14.942
94024W        W66449  31.004  44.389  13.439
94025W        W66450  14.757  13.966   4.699
94026W        W66451  39.260  13.772  14.213
94027W        W66452   1.770   6.903  12.131
94028W        W66453  42.622  23.831  11.520
94029W        W66454  27.596   8.798  11.494
94030W        W66455  37.304  19.743   1.110
94031W        W66456  26.377  29.487   0.509
94032W        W66457  27.766  11.226  11.506
94033W        W66458   6.249  13.618  12.526
94034W        W66459   3.214   3.059   4.075
94035W        W66460   1.733  23.657  13.007
94036W        W66461  10.361  27.221  12.420
94037W        W66462  39.494   0.369   2.175
94038W        W66463  30.311   9.656  11.717
94039W        W66464   7.878  15.812   3.849
94040W        W66465  43.522   5.374   2.100
94041W        W66466  13.235  39.070   3.376
94042W        W66467  14.366  13.716  10.804
94043W        W66468  27.006  20.513   1.343
94044W        W66469  44.465  17.655   2.940
94045W        W66470  39.456  37.783  12.976
94046W        W66471  29.097   2.267  11.654
94047W        W66472  12.517  35.521  14.474
94048W        W66473  23.087  16.560  11.169
94049W        W66474   3.726  33.477   3.654
94050W        W66475  11.344  20.691  11.134
94051W        W66476  22.248  13.036   0.860
94052W        W66477  17.064  22.924  11.954
94053W        W66478  28.947  23.571  11.627
94054W        W66479  26.961  12.335  13.061
94055W        W66480   3.857  29.700  14.592
94056W        W66481  27.182  30.879   0.401
94057W        W66482  41.202  39.553  13.315
94058W        W66483  44.824  37.544  13.386
94059W        W66484  44.044   8.449  10.565
94060W        W66485  29.357  16.529  14.527
94061W        W66486  32.993   2.502   4.543
94062W        W66487  39.471  38.582   0.287
94063W        W66488  16.789  36.644   0.787
94064W        W66489  12.816  16.143   2.363
94065W        W66490  17.211   5.913   3.449
94066W        W66491   9.177   9.634  12.880
94067W        W66492  11.577  13.175  14.376
94068W        W66493  20.646  10.779  10.681
94069W        W66494  24.499  26.761   0.820
94070W        W66495  29.609  13.307  10.655
94071W        W66496  14.495  32.936   4.757
94072W        W66497  30.458  40.819  14.043
94073W        W66498   5.670  24.632   1.281
94074W        W66499  32.953  29.706   2.953
94075W        W66500  34.438  19.165   2.670
94076W        W66501  33.653  40.488  13.305
94077W        W66502   9.348  16.997  12.411
94078W        W66503   4.740   2.238   0.320
94079W        W66504  21.507   8.620   0.833
94080W        W66505  41.229  32.613   1.752
94081W        W66506  38.729  25.241   5.456
94082W        W66507  23.233   9.636  13.106
94083W        W66508  18.800  17.407  13.864
94084W        W66509   2.212  21.243   0.991
94085W        W66510  24.094  16.179   0.358
94086W        W66511  25.363  41.802  14.361
94087W        W66512  26.921   3.147   1.274
94088W        W66513  22.043  14.037   3.287
94089W        W66514  17.118  30.892  14.725
94090W        W66515  38.840  17.278   3.081
94091W        W66516  44.444   5.918  11.508
94092W        W66517  25.609   5.912  13.862
94093W        W66518  10.198   0.218  11.175
94094W        W66519  33.688   8.832  11.141
94095W        W66520  15.886   7.265   4.103
94096W        W66521  30.756  33.932  12.625
94097W        W66522   0.421   6.428   1.796
94098W        W66523  26.587  39.270   3.281
94099W        W66524  21.693  29.018  14.495
94100W        W66525  19.740  21.568   4.083
94101W        W66526  12.788  10.403  10.637
94102W        W66527  34.586   9.884  11.865
94103W        W66528  37.058  27.167   2.375
94104W        W66529   4.711  36.626   0.300
94105W        W66530  35.899  37.536   1.788
94106W        W66531  38.338  31.406  11.593
94107W        W66532  17.742  22.924  13.804
94108W        W66533  21.746  42.848  14.952
94109W        W66534  16.553  13.605  12.067
94110W        W66535  42.272   9.252  11.151
94111W        W66536   5.888  18.103   2.862
94112W        W66537   6.837   5.349  12.823
94113W        W66538  22.345  27.137   3.023
94114W        W66539  41.037   9.364   2.309
94115W        W66540  18.804  26.506   4.095
94116W        W66541  19.060  11.830   3.000
94117W        W66542  35.673  32.252   1.762
94118W        W66543  13.960  44.553  14.211
94119W        W66544   6.840  37.060   4.225
94120W        W66545   1.148   4.872   0.058
94121W        W66546   8.482  30.108   2.634
94122W        W66547  41.981  19.436  13.464
94123W        W66548  11.824   5.781  12.938
94124W        W66549   0.728  36.376   4.310
94125W        W66550  26.612  35.496   0.379
94126W        W66551  40.992  11.644  11.333
94127W        W66552  29.138   5.455  11.950
94128W        W66553  28.615  39.555   0.185
94129W        W66554  24.446  20.595   1.441
94130W        W66555  44.666  20.972   3.386
94131W        W66556  16.424  37.408  14.754
94132W        W66557  43.447   6.202   2.758
94133W        W66558  33.447  15.637   1.669
94134W        W66559  40.858   5.405  12.690
94135W        W66560  20.250  22.321   2.140
94136W        W66561  21.557  39.549   2.852
94137W        W66562  30.726  42.839  10.217
94138W        W66563   5.644  32.663  12.461
94139W        W66564  27.097  15.160   1.408
94140W        W66565   1.256  12.776   4.613
94141W        W66566   1.850  16.687  13.369
94142W        W66567   3.869  38.463  12.800
94143W        W66568  20.731   2.276   2.156
94144W        W66569  27.163  32.428  14.681
94145W        W66570  20.277  32.638   1.781
94146W        W66571  17.330  10.578  13.507
94147W        W66572  36.390  13.164  12.503
94148W        W66573  16.321   1.898  13.085
94149W        W66574  39.125  28.163   1.121
94150W        W66575   6.142  26.088  14.349
94151W        W66576  43.751   5.496   4.815
94152W        W66577  42.354  36.384   0.382
94153W        W66578  19.030  43.384   4.577
94154W        W66579   9.705  25.566   4.093
94155W        W66580  32.990  35.568   0.616
94156W        W66581  10.867  10.144  10.958
94157W        W66582  21.735   4.831  11.252
94158W        W66583  26.463  10.121   2.237
94159W        W66584   3.823  15.125   0.174
94160W        W66585  13.343  12.429  12.466
94161W        W66586  40.421  27.239   3.712
94162W        W66587   5.686  12.918   2.522
94163W        W66588  41.536  17.681  10.838
94164W        W66589  34.390   3.947   3.281
94165W        W66590  35.098  34.036   4.117
94166W        W66591  38.312  40.779  13.735
94167W        W66592  14.233  25.450  11.355
94168W        W66593  41.257  27.612   4.149
94169W        W66594  42.858   5.973  13.732
94170W        W66595   9.166  23.794   3.722
94171W        W66596  34.454  18.655  14.775
94172W        W66597  42.054   1.537  11.226
94173W        W66598  40.491  32.943  11.445
94174W        W66599  30.953  36.875   2.744
94175W        W66600  44.186  16.742   3.981
94176W        W66601  23.887  23.480   2.348
94177W        W66602  16.082  14.125  14.917
94178W        W66603   7.429  34.466  13.849
94179W        W66604  32.999  10.322   1.872
94180W        W66605  41.238   3.314   0.716
94181W        W66606  13.755  14.894   0.410
94182W        W66607   7.802  32.361   2.328
94183W        W66608  20.736   5.431   0.110
94184W        W66609  18.304  32.996   2.784
94185W        W66610  16.094  42.846   0.524
94186W        W66611  14.429  44.887  13.491
94187W        W66612  29.958   3.811   2.611
94188W        W66613   4.793   0.769  13.494
94189W        W66614   5.789   2.751  11.478
94190W        W66615  22.877   0.093  11.264
94191W        W66616  18.130  38.470  11.194
94192W        W66617  32.936  18.140   1.487
94193W        W66618  15.222  30.602  13.964
94194W        W66619  43.078  29.761   2.882
94195W        W66620  37.375  13.056  14.923
94196W        W66621  33.350  38.362  13.947
94197W        W66622  43.233  21.512   3.706
94198W        W66623  20.209   8.735  14.448
94199W        W66624   1.706  24.727   3.512
94200W        W66625  12.802  42.898  12.985
94201W        W66626   0.379  15.286   2.222
94202W        W66627  23.393   1.277  14.580
94203W        W66628  28.138  11.293  14.088
94204W        W66629  14.325  21.272  13.964
94205W        W66630  33.834  35.120   4.284
94206W        W66631  26.614  37.150  11.981
94207W        W66632  22.704  19.040  14.788
94208W        W66633  15.403  30.121  12.140
94209W        W66634  15.233  37.254  12.150
94210W        W66635   1.860  36.143   2.681
94211W        W66636  11.159  28.610   2.048
94212W        W66637  29.230  44.465   3.006
94213W        W66638   7.664  29.686   3.108
94214W        W66639  27.078  11.469  14.673
94215W        W66640  37.821  22.547  14.556
94216W        W66641  29.112  14.575  12.492
94217W        W66642  25.423  44.451  11.136
94218W        W66643  36.159  42.745  14.399
94219W        W66644   9.724   1.166   0.425
94220W        W66645  36.800  33.550  13.839
94221W        W66646   2.848  21.462  14.957
94222W        W66647  21.697  42.724  12.741
94223W        W66648  41.320   2.991  13.446
94224W        W66649  18.626  26.985   3.864
94225W        W66650  19.725  19.049   1.994
94226W        W66651  30.682   9.264   0.265
94227W        W66652  10.807  35.420  10.731
94228W        W66653  37.540   0.981   4.038
94229W        W66654   8.033  41.561  12.558
94230W        W66655  26.874  29.463   0.356
94231W        W66656  29.614  40.070  13.845
94232W        W66657  38.505  22.218  14.167
94233W        W66658  13.858  34.518   4.293
94234W        W66659  33.096  24.572   3.857
94235W        W66660  20.319   8.445   2.370
94236W        W66661   0.710   2.834   4.705
94237W        W66662  15.212   4.361   4.602
94238W        W66663  44.513   8.108  12.973
94239W        W66664  30.654  27.585   4.608
94240W        W66665  19.566  33.563  11.614
94241W        W66666   8.136  22.150   0.638
94242W        W66667  13.841   9.131   4.164
94243W        W66668  22.634  21.245  11.438
94244W        W66669  40.406  28.878  14.019
94245W        W66670   6.215  36.347  13.404
94246W        W66671  19.195   2.364   0.375
94247W        W66672   1.936  19.782  13.913
94248W        W66673  25.540  40.943  14.389
94249W        W66674  38.495   6.240  12.373
94250W        W66675  44.439  22.316  10.318
94251W        W66676   1.804  11.694   2.418
94252W        W66677  25.341  42.999   0.129
94253W        W66678  13.679  21.621  14.708
94254W        W66679  34.827  42.923   9.896
94255W        W66680  43.969  39.329   3.808
94256W        W66681  16.903  30.942  11.467
94257W        W66682  29.850  24.139  12.489
94258W        W66683  30.017  28.046   1.519
94259W        W66684  10.752   5.347   2.017
94260W        W66685  15.293  12.342  13.315
94261W        W66686  34.884  44.485   4.941
94262W        W66687  12.042  14.219   5.028
94263W        W66688  22.185  23.260  13.878
94264W        W66689   0.807  18.608  11.515
94265W        W66690  34.279   3.976  12.171
94266W        W66691  10.324  17.253  13.753
94267W        W66692  40.852  29.512   4.803
94268W        W66693  34.087  25.827  11.651
94269W        W66694  18.185  11.198   0.773
94270W        W66695  17.694  26.009  10.916
94271W        W66696   4.065  28.512  11.603
94272W        W66697  12.200   8.613  13.089
94273W        W66698  12.847  40.244  13.364
94274W        W66699  35.625  14.779  11.641
94275W        W66700  17.985  29.208   0.017
94276W        W66701  10.181  36.071   3.809
94277W        W66702  16.733  13.701  14.555
94278W        W66703  39.307  11.252   4.496
94279W        W66704  16.490   1.854   9.849
94280W        W66705  10.088   8.142  11.541
94281W        W66706  35.599  25.119  12.939
94282W        W66707  20.618  44.431   2.909
94283W        W66708  32.186   1.748  14.062
94284W        W66709   4.407   2.426  12.245
94285W        W66710  18.194  44.873  12.598
94286W        W66711  42.112  44.872   1.814
94287W        W66712  39.409  21.720  14.337
94288W        W66713  30.211  37.032   1.698
94289W        W66714   2.340  27.334  12.123
94290W        W66715  20.246   2.748   4.138
94291W        W66716  22.172  18.217   2.196
94292W        W66717  26.743  37.940  11.191
94293W        W66718  36.058  16.382  11.449
94294W        W66719  24.172  22.571   2.212
94295W        W66720   9.943  14.230  12.826
94296W        W66721  12.531  10.313  11.921
94297W        W66722  26.222   8.659  12.523
94298W        W66723  31.534  33.986  13.923
94299W        W66724   9.624  42.027   2.273
94300W        W66725  14.147  18.176   4.627
94301W        W66726   4.395  22.155   2.401
94302W        W66727  28.597  33.802  14.522
94303W        W66728  28.612  13.821   0.789
94304W        W66729   7.601  26.797   2.727
94305W        W66730  25.976  41.808   1.804
94306W        W66731  23.580  26.360  11.506
94307W        W66732  17.764  20.308  13.549
94308W        W66733  33.372  37.521  14.861
94309W        W66734  15.658  26.441   4.676
94310W        W66735  27.194  38.956   1.440
94311W        W66736  21.956  25.114   1.193
94312W        W66737   8.844  22.259  11.987
94313W        W66738   6.875   9.104   3.742
94314W        W66739   8.794  32.796  13.404
94315W        W66740  25.172  36.597  12.575
94316W        W66741  32.341  20.121   1.330
94317W        W66742  20.685  30.957  14.995
94318W        W66743  23.950  33.848  13.026
94319W        W66744  37.922  40.516  14.315
94320W        W66745  26.111  44.080   3.355
94321W        W66746   4.845  17.619   3.635
94322W        W66747  32.010   1.039   3.069
94323W        W66748  32.619  32.550  13.852
94324W        W66749   5.191  27.682   2.230
94325W        W66750  31.170  34.110  12.374
94326W        W66751  25.680  25.389   2.215
94327W        W66752   9.131  29.262  11.962
94328W        W66753  16.732  10.661  11.637
94329W        W66754  14.745  30.591   2.381
94330W        W66755   7.624  15.333   1.845
94331W        W66756  11.857   5.657   0.504
94332W        W66757  33.862  34.960   2.752
94333W        W66758  38.584  40.472   4.088
94334W        W66759  12.745  23.171   4.511
94335W        W66760  34.074  13.243  11.897
94336W        W66761  15.825  39.532   4.745
94337W        W66762  33.154  42.224   4.462
94338W        W66763  40.037  43.343  11.753
94339W        W66764  37.294  29.242   1.886
94340W        W66765  28.768  16.753  12.956
94341W        W66766   4.924  42.990  10.509
94342W        W66767  36.536  15.069   0.830
94343W        W66768  31.323  17.978   4.159
94344W        W66769  31.511  25.117  14.285
94345W        W66770  26.537  17.300   3.238
94346W        W66771  22.610  23.681   4.616
94347W        W66772  37.458  18.538   2.829
94348W        W66773  30.491  14.851  14.318
94349W        W66774  19.913  35.965  13.522
94350W        W66775  43.004  40.468  11.485
94351W        W66776  17.097  32.400   3.454
94352W        W66777   6.179  40.784   0.846
94353W        W66778   6.276  42.103  11.556
94354W        W66779  43.950  11.615  11.844
94355W        W66780  26.214  11.137   0.884
94356W        W66781  22.619  37.479   5.171
94357W        W66782  41.989  34.892   0.231
94358W        W66783  27.448  21.047   2.322
94359W        W66784   0.066  15.114   0.273
94360W        W66785  18.334  18.857   3.180
94361W        W66786   4.785  10.591   4.898
94362W        W66787  18.831  38.926   4.564
94363W        W66788   9.363  35.445   1.869
94364W        W66789  31.151  43.980   2.036
94365W        W66790  42.501  19.021   0.643
94366W        W66791  12.319  19.566  13.378
94367W        W66792  25.951  15.777   4.381
94368W        W66793  26.311  34.021  14.750
94369W        W66794   3.425  16.272   0.525
94370W        W66795  35.161  10.680  12.174
94371W        W66796  26.983  39.572  12.030
94372W        W66797   2.998  35.000  12.715
94373W        W66798  21.602  21.367  10.423
94374W        W66799  19.596  31.171  12.012
94375W        W66800  43.800  19.951   1.012
94376W        W66801  41.064  40.223   1.940
94377W        W66802  35.854   1.496  11.126
94378W        W66803  21.713  28.085  14.887
94379W        W66804   8.407  18.957  13.385
94380W        W66805  38.551  12.236  13.161
94381W        W66806  24.453  38.952   0.553
94382W        W66807  11.317  12.145  13.463
94383W        W66808  10.750  11.040   4.129
94384W        W66809  21.154  11.125   0.299
94385W        W66810   2.407  36.790   2.744
94386W        W66811  40.465  23.225   1.891
94387W        W66812  23.581   5.994  10.365
94388W        W66813  24.450   2.510   1.761
94389W        W66814  36.401  27.706  13.338
94390W        W66815   6.149  24.909  10.319
94391W        W66816  25.694   4.158   3.938
94392W        W66817  43.027   6.236   1.863
94393W        W66818  44.850  16.201   4.520
94394W        W66819  24.576   2.333   4.638
94395W        W66820  15.369  43.033  13.380
94396W        W66821  20.070  44.594   4.964
94397W        W66822  31.356  14.065  12.863
94398W        W66823  31.068   5.674  14.343
94399W        W66824  32.561   3.970   0.543
94400W        W66825   4.752  14.873  10.736
94401W        W66826  43.906   3.266  12.839
94402W        W66827  23.747  31.187  11.362
94403W        W66828   2.889  16.300   1.158
94404W        W66829  31.998  43.472  13.621
94405W        W66830  17.110  20.105  11.461
94406W        W66831  13.184  35.819  11.517
94407W        W66832  28.326  34.707   1.807
94408W        W66833  26.286  39.623  14.510
94409W        W66834  10.296  29.694  13.566
94410W        W66835   1.038  37.918   4.663
94411W        W66836  39.876  26.970  14.429
94412W        W66837   3.425  43.141   0.214
94413W        W66838  37.427  42.904   1.473
94414W        W66839  10.543  37.645   5.345
94415W        W66840  40.821  35.634  13.583
94416W        W66841  41.907  13.588   0.652
94417W        W66842   8.423  26.526   3.309
94418W        W66843  21.562   8.342  10.416
94419W        W66844  30.705  43.885  12.633
94420W        W66845   1.335  28.670   1.826
94421W        W66846  24.521  44.961  13.555
94422W        W66847   0.831  36.604  14.988
94423W        W66848  44.375  15.578   4.183
94424W        W66849  44.289  27.376  12.826
94425W        W66850  35.893  30.486   0.525
94426W        W66851  28.095  16.547  10.724
94427W        W66852  42.086  11.360  14.327
94428W        W66853  33.091  25.226  11.605
94429W        W66854  10.330  37.804   2.438
94430W        W66855  17.242   6.955   1.261
94431W        W66856  10.377  26.883   4.703
94432W        W66857  12.251   1.270  11.611
94433W        W66858   0.499  21.953  12.654
94434W        W66859  17.161  25.267  10.697
94435W        W66860   7.877  41.794  10.764
94436W        W66861   3.510  35.980   1.223
94437W        W66862  37.475  39.942  11.499
94438W        W66863  25.979  17.438  12.099
94439W        W66864   6.989   2.024  11.152
94440W        W66865  40.724   7.680  10.637
94441W        W66866  33.111  39.759  12.938
94442W        W66867  39.030  42.066   4.444
94443W        W66868  24.138  13.544  11.379
94444W        W66869  35.970  27.016  13.292
94445W        W66870  39.692  33.435  12.419
94446W        W66871  40.954  20.725  11.143
94447W        W66872  17.310  43.882   1.517
94448W        W66873   3.682  27.537   2.895
94449W        W66874  33.948  14.678   0.434
94450W        W66875  44.228  24.087   0.779
94451W        W66876  36.632   5.730  13.807
94452W        W66877  39.587  34.342   1.308
94453W        W66878  12.569  30.572   2.892
94454W        W66879   3.391  23.676   0.273
94455W        W66880  41.740   3.882  11.879
94456W        W66881  32.015   6.940   2.361
94457W        W66882  35.379  42.020  11.672
94458W        W66883  32.374  17.308  10.767
94459W        W66884  19.517  44.500  12.037
94460W        W66885  12.724  30.789  13.661
94461W        W66886  23.468  15.792   1.839
94462W        W66887  40.995   3.408  12.055
94463W        W66888  21.889  13.877   1.300
94464W        W66889  44.389  35.666  13.272
94465W        W66890  39.052  16.557   1.338
94466W        W66891  36.443  20.211   2.792
94467W        W66892  44.712  43.562  11.584
94468W        W66893   2.232  30.603  13.483
94469W        W66894  30.985   5.820  11.874
94470W        W66895  41.802  24.483  13.419
94471W        W66896   6.380  17.072  14.875
94472W        W66897   5.787  43.012  10.717
94473W        W66898  28.993  40.886   2.221
94474W        W66899  36.631   4.181   2.323
94475W        W66900  29.673  19.672  12.024
94476W        W66901  13.284  20.590  11.448
94477W        W66902  28.057  43.799   3.626
94478W        W66903  17.304  29.050   1.859
94479W        W66904   7.367   5.453   1.227
94480W        W66905   3.264  26.625  12.575
94481W        W66906   0.791  21.883   4.515
94482W        W66907   5.870  41.221  13.930
94483W        W66908  37.864   2.807  14.043
94484W        W66909  29.525   6.798  11.955
94485W        W66910  26.612  34.935  11.337
94486W        W66911  16.319  21.066  11.005
94487W        W66912  13.872  36.443  14.347
94488W        W66913   8.174   7.354  11.527
94489W        W66914  33.616  29.953   1.850
94490W        W66915  28.068  30.562   1.441
94491W        W66916  14.342  37.091   4.641
94492W        W66917   5.444  35.950  14.352
94493W        W66918  24.487  11.746  14.472
94494W        W66919  36.121  32.739  11.060
94495W        W66920   7.724  27.139   3.183
94496W        W66921  19.788  26.919   1.746
94497W        W66922  13.623   8.960   0.878
94498W        W66923  18.583  15.468  12.882
94499W        W66924   5.337   8.620  11.657
94500W        W66925  19.518  26.083   3.693
94501W        W66926  12.703  19.831   1.300
94502W        W66927  12.571  14.114  14.473
94503W        W66928  33.012  24.056   3.906
94504W        W66929  20.467  31.205  11.526
94505W        W66930   3.484   0.972   3.246
94506W        W66931  40.766  15.764  10.210
94507W        W66932  44.202  37.022  14.317
94508W        W66933  15.317  19.974  13.454
94509W        W66934  17.500  44.341   4.564
94510W        W66935  19.747  18.551  14.473
94511W        W66936  24.551  32.717  10.844
94512W        W66937  10.149  30.514  14.624
94513W        W66938  18.327   7.677   1.135
94514W        W66939  33.951  18.722   3.742
94515W        W66940   7.890  28.865  11.796
94516W        W66941   0.723   3.701   1.295
94517W        W66942  23.108   7.671  12.020
94518W        W66943  34.120  11.758  12.915
94519W        W66944  37.999   6.252   1.457
94520W        W66945   5.285  24.961   2.778
94521W        W66946  18.541   2.236   1.637
94522W        W66947  40.784  41.069   0.291
94523W        W66948  37.886  13.118  14.304
94524W        W66949  21.825  16.195  12.122
94525W        W66950  30.477  22.802   4.592
94526W        W66951  37.999  19.270   2.790
94527W        W66952  29.216  25.465  11.193
94528W        W66953   4.922  44.148  11.554
94529W        W66954  36.526  44.802   2.801
94530W        W66955   9.375   9.930   4.736
94531W        W66956  33.103  38.580   3.800
94532W        W66957   2.175   4.992  13.839
94533W        W66958  12.601   3.701  12.159
94534W        W66959   3.825  28.967  11.448
94535W        W66960   3.849  23.603  14.952
94536W        W66961  15.325  12.597   4.613
94537W        W66962  36.158  38.384  14.301
94538W        W66963   8.459  17.379   0.385
94539W        W66964  41.175   6.756  13.382
94540W        W66965  11.915  20.086   4.207
94541W        W66966  19.062   1.486   2.726
94542W        W66967   9.353   2.413   4.593
94543W        W66968  40.936   6.532   1.778
94544W        W66969  15.887   1.452   0.840
94545W        W66970   2.760  27.238   1.167
94546W        W66971   8.882   2.973   4.463
94547W        W66972  39.120  12.574   2.786
94548W        W66973  25.918   8.311   1.749
94549W        W66974   8.036  13.543  12.430
94550W        W66975  26.127  34.072   3.633
94551W        W66976   1.401  12.206   1.791
94552W        W66977  22.502  12.730  12.496
94553W        W66978   4.485  18.119  11.047
94554W        W66979  21.997  35.399  11.192
94555W        W66980  13.887  35.491  11.485
94556W        W66981  24.709  35.247   1.730
94557W        W66982  11.794  37.815  11.101
94558W        W66983   1.644  28.284  12.536
94559W        W66984  32.353  30.896   1.974
94560W        W66985  33.493  11.870   0.763
94561W        W66986  40.664  36.004   1.140
94562W        W66987  39.022  30.548   1.530
94563W        W66988  29.985  13.631  14.785
94564W        W66989  13.430  37.565  14.954
94565W        W66990  39.149   7.265  13.844
94566W        W66991   7.458   3.801   0.554
94567W        W66992  22.381  23.137   4.538
94568W        W66993  13.564  39.234  11.572
94569W        W66994   0.805  17.228  13.773
94570W        W66995  25.694  34.653   4.388
94571W        W66996  21.764  22.255  10.687
94572W        W66997  10.376   4.933  11.635
94573W        W66998  15.235  34.813  14.897
94574W        W66999  34.980  27.667   3.259
94575W        W67000  14.027  32.061   2.773
94576W        W67001  41.712  37.160  11.288
94577W        W67002  13.166  13.401   3.060
94578W        W67003  10.683   2.081  10.778
94579W        W67004  11.383  29.476  14.918
94580W        W67005  16.755  21.990   0.516
94581W        W67006  16.665  15.753   3.537
94582W        W67007  26.605   0.542  14.409
94583W        W67008  43.039  24.614  13.204
94584W        W67009  29.825   0.009   2.654
94585W        W67010  25.676  27.917   3.379
94586W        W67011  38.563   3.732  12.406
94587W        W67012  18.990  27.418  10.563
94588W        W67013  13.615  16.743   4.365
94589W        W67014  22.722  12.760   0.123
94590W        W67015  30.927  21.597  14.910
94591W        W67016  13.523   7.869  12.435
94592W        W67017  23.581  10.236   3.672
94593W        W67018  36.296  27.450   3.314
94594W        W67019  38.757  18.564   2.372
94595W        W67020  26.727  30.157   1.947
94596W        W67021   0.100  25.058  11.164
94597W        W67022  33.079   9.311  13.762
94598W        W67023   0.270  10.939  12.914
94599W        W67024  33.060  27.616   2.190
94600W        W67025  40.327  12.429   0.862
94601W        W67026  21.524  13.760  14.549
94602W        W67027  32.310  30.909  11.145
94603W        W67028  19.208   2.912  13.374
94604W        W67029   8.779  43.308   4.711
94605W        W67030  15.822  17.124   4.548
94606W        W67031  18.428  29.483  12.920
94607W        W67032   7.586   0.788   2.882
94608W        W67033   0.387   0.310  14.426
94609W        W67034   6.378  18.349   2.815
94610W        W67035  29.471   1.525  10.748
94611W        W67036  10.846  33.511   4.604
94612W        W67037  37.788  35.412   1.839
94613W        W67038  38.881   9.337   1.674
94614W        W67039  12.265   6.324  11.889
94615W        W67040   0.524  35.475   4.098
94616W        W67041  19.708  26.823   9.835
94617W        W67042  43.447  18.469   1.354
94618W        W67043  22.650  11.857   5.390
94619W        W67044  33.098  30.043   0.823
94620W        W67045  21.026  28.708  12.554
94621W        W67046  15.878  17.811   4.999
94622W        W67047  20.318   8.161  12.242
94623W        W67048   1.405   8.572  12.833
94624W        W67049  34.131  12.376  13.519
94625W        W67050   6.933   6.799  14.302
94626W        W67051  28.199  10.205  14.004
94627W        W67052  10.158   5.974   4.209
94628W        W67053  41.431  22.663   1.382
94629W        W67054  15.712  29.919  10.754
94630W        W67055   1.881  20.578  10.447
94631W        W67056  23.990  10.751   4.175
94632W        W67057  34.552  31.490  11.024
94633W        W67058  17.869  25.895  12.972
94634W        W67059  16.117  28.654   3.565
94635W        W67060  26.111  41.535   2.223
94636W        W67061  12.679   0.470   1.292
94637W        W67062  31.976  40.865  12.215
94638W        W67063  19.542  10.630   1.630
94639W        W67064   6.276  30.888   4.973
94640W        W67065  43.809   7.841   4.553
94641W        W67066   6.818  30.845   1.551
94642W        W67067  15.782  28.007   4.220
94643W        W67068  23.441  31.411  10.738
94644W        W67069  14.143  42.570  10.894
94645W        W67070   8.190   7.803   1.005
94646W        W67071  11.298  43.863   4.493
94647W        W67072   0.034  28.033   9.732
94648W        W67073  18.220  12.676   2.670
94649W        W67074   5.988   7.784  13.485
94650W        W67075  35.965  38.776   1.194
94651W        W67076  34.420   5.326  12.193
94652W        W67077  29.832  14.570   0.163
94653W        W67078  40.903  20.618   2.950
94654W        W67079   3.276  10.214   2.263
94655W        W67080  33.311  41.614  12.599
94656W        W67081   6.788  33.169   2.206
94657W        W67082  13.093  14.287  13.395
94658W        W67083  30.172  39.498   2.842
94659W        W67084   2.483  16.643  10.639
94660W        W67085  20.433  10.288   1.140
94661W        W67086  12.862  36.501   4.484
94662W        W67087  14.870   0.957   3.143
94663W        W67088  15.135  43.767  14.363
94664W        W67089   1.904  25.276  10.519
94665W        W67090  12.228  27.444   3.442
94666W        W67091  14.565  31.436   1.915
94667W        W67092  28.647  27.716   2.725
94668W        W67093  40.487  20.243  14.854
94669W        W67094  40.942   1.148  13.483
94670W        W67095  15.971   4.538   5.318
94671W        W67096  18.134  32.073  14.993
94672W        W67097   6.838  10.320  10.401
94673W        W67098  16.879  39.426  10.810
94674W        W67099   9.684   7.707   1.809
94675W        W67100  16.791  27.039   3.692
94676W        W67101  25.759  24.698   4.233
94677W        W67102   9.284   0.057   2.339
94678W        W67103  27.117  17.613  10.619
94679W        W67104   7.660  38.943   0.744
94680W        W67105   2.358  41.043  13.054
94681W        W67106   4.423  12.792  10.879
94682W        W67107  25.929   3.756   2.868
94683W        W67108  13.906  13.381  12.947
94684W        W67109  26.009  29.036  13.817
94685W        W67110  36.905  26.103  10.095
94686W        W67111  34.887  10.308   4.220
94687W        W67112  22.707  18.687  14.320
94688W        W67113  33.339  15.825   5.107
94689W        W67114  30.033  34.850   1.726
94690W        W67115  15.189   0.955   1.223
94691W        W67116  21.521   3.738  12.971
94692W        W67117  33.234   9.161  12.405
94693W        W67118  33.887  20.996   4.125
94694W        W67119   8.364  32.647   0.010
94695W        W67120  34.835  40.813  14.373
94696W        W67121   6.497  34.867  13.436
94697W        W67122  14.232  23.632  11.086
94698W        W67123   6.904  31.522   2.405
94699W        W67124   0.726   1.284  13.013
94700W        W67125  20.626  44.439   3.412
94701W        W67126  40.303  28.135  13.816
94702W        W67127  25.576  17.406  11.234
94703W        W67128  25.942  36.552  12.951
94704W        W67129  27.457  19.794   1.905
94705W        W67130  22.034   6.143  12.904
94706W        W67131  15.889  36.927   2.239
94707W        W67132  42.397  28.891  12.073
94708W        W67133   1.965  25.652   3.125
94709W        W67134  37.433  37.971   1.887
94710W        W67135   5.973   6.491   2.450
94711W        W67136  29.048  10.692   4.351
94712W        W67137  30.587  35.381  12.720
94713W        W67138  15.651  39.858  10.472
94714W        W67139  27.401  23.952  12.443
94715W        W67140  43.078   8.094   3.774
94716W        W67141  10.669  36.653   4.382
94717W        W67142  23.460  25.621  12.907
94718W        W67143  33.514   4.488   1.921
94719W        W67144   0.754   1.085  13.686
94720W        W67145  16.821  32.311   4.396
94721W        W67146  25.641  22.178  10.655
94722W        W67147  28.896  37.034  14.821
94723W        W67148   8.921   1.099  14.539
94724W        W67149  25.203  29.057   4.608
94725W        W67150  32.633  15.571   3.916
94726W        W67151  41.493  28.442  11.935
94727W        W67152  37.104  36.063  14.520
94728W        W67153  44.066   4.691  11.546
94729W        W67154  44.021  18.483  12.917
94730W        W67155   4.924  36.700  14.827
94731W        W67156  33.348  20.058  14.967
94732W        W67157  42.593  26.704   0.244
94733W        W67158   4.161  21.500  10.995
94734W        W67159  28.081  42.948   1.616
94735W        W67160  28.141  16.628   3.029
94736W        W67161   3.231  24.678  12.144
94737W        W67162  25.310  32.432  11.100
94738W        W67163  15.321   4.514   2.291
94739W        W67164  44.368  38.401   3.210
94740W        W67165   3.016  36.794   4.137
94741W        W67166  30.632  18.300   2.506
94742W        W67167   2.217  42.943   1.020
94743W        W67168  35.408  15.231  13.663
94744W        W67169  21.045  11.947  11.702
94745W        W67170  21.151  19.249   1.859
94746W        W67171  21.510   1.827   4.237
94747W        W67172  19.705  42.925   9.953
94748W        W67173  10.064  22.492  13.002
94749W        W67174  28.051  12.527   0.399
94750W        W67175   3.794  23.494   1.561
94751W        W67176  30.710  32.016  12.432
94752W        W67177   6.134  31.900  10.600
94753W        W67178  40.417  15.560  14.309
94754W        W67179   2.041   3.122   2.675
94755W        W67180   3.381  15.470  13.050
94756W        W67181  21.643  36.051   0.851
94757W        W67182  27.057  19.269   0.497
94758W        W67183  24.573  19.289  10.486
94759W        W67184  18.359  31.887   2.407
94760W        W67185  14.650  34.965  11.482
94761W        W67186  15.641  32.774   0.491
94762W        W67187  38.312  33.587  12.639
94763W        W67188  17.916  13.896   1.872
94764W        W67189  35.496  31.420  11.180
94765W        W67190  42.373   5.346   0.286
94766W        W67191  37.374  44.314   0.944
94767W        W67192  31.127  20.037   0.788
94768W        W67193  23.914   8.536   1.883
94769W        W67194  20.741  28.662   1.884
94770W        W67195   5.852  35.548  10.241
94771W        W67196  19.956  38.055  13.512
94772W        W67197  11.598  32.856   1.418
94773W        W67198   3.909  37.295  13.940
94774W        W67199   9.270  41.090  14.861
94775W        W67200  34.603   7.493  12.329
94776W        W67201  29.481  19.448  12.448
94777W        W67202  38.084  30.015  13.397
94778W        W67203  41.628  26.541  12.095
94779W        W67204  17.558   5.041   3.703
94780W        W67205  34.594   1.867  11.726
94781W        W67206  25.646  11.172  11.934
94782W        W67207  44.036   7.906  12.929
94783W        W67208  43.022  31.941   1.881
94784W        W67209  23.047  32.720  13.293
94785W        W67210   9.907  24.430  12.822
94786W        W67211  15.273   7.679   0.241
94787W        W67212  23.015  12.763  12.649
94788W        W67213  10.325   1.935   4.788
94789W        W67214  36.263  19.182   2.166
94790W        W67215  40.618  19.811   0.790
94791W        W67216  15.896  34.845  13.643
94792W        W67217  44.342  40.732  10.549
94793W        W67218  21.550   9.242   5.135
94794W        W67219   8.180   3.868   1.179
94795W        W67220  26.907  41.034  14.858
94796W        W67221   4.883   1.916   3.368
94797W        W67222  21.360   5.935  14.468
94798W        W67223  38.484  20.564   3.025
94799W        W67224  26.106   2.282   0.146
94800W        W67225  38.227  44.991   5.248
94801W        W67226   8.608  14.353  12.497
94802W        W67227   8.720  28.511  10.998
94803W        W67228  20.783  32.498   4.596
94804W        W67229  13.884  31.494  13.693
94805W        W67230   5.885  37.544  14.883
94806W        W67231  22.531  11.204   1.668
94807W        W67232  33.820  17.667   3.277
94808W        W67233  34.838  22.289   1.291
94809W        W67234  36.909  37.999   2.742
94810W        W67235  35.955  44.024   2.855
94811W        W67236   6.006   1.006   4.387
94812W        W67237  31.626  20.209   9.943
94813W        W67238  34.131   0.627  12.421
94814W        W67239  43.533   6.852  12.679
94815W        W67240  10.327  10.757   0.290
94816W        W67241  24.560  17.204  11.797
94817W        W67242   4.892  22.443   2.952
94818W        W67243   4.389  28.717  12.412
94819W        W67244  43.275  21.631  11.380
94820W        W67245  27.050  24.023  10.714
94821W        W67246  10.327   2.228   4.362
94822W        W67247  24.396   2.236  14.667
94823W        W67248   6.822  12.591   0.935
94824W        W67249   4.430  43.095   2.467
94825W        W67250  24.382  19.716   1.776
94826W        W67251  31.923  18.596   3.198
94827W        W67252  36.417  20.157   3.644
94828W        W67253   0.557   6.910   3.668
94829W        W67254   3.901  30.583  14.038
94830W        W67255  30.213  35.085  11.983
94831W        W67256  26.658  44.916  11.174
94832W        W67257  42.816  43.511  13.126
94833W        W67258  20.583  12.115  11.896
94834W        W67259  14.733  42.570  10.752
94835W        W67260  26.387  43.294  12.330
94836W        W67261  28.331  10.135   4.133
94837W        W67262   4.449  16.321  11.493
94838W        W67263  40.786  17.085  10.753
94839W        W67264   2.322  30.782  12.026
94840W        W67265  29.406  42.607  13.744
94841W        W67266   4.828  20.558  10.730
94842W        W67267  16.376  40.071   2.475
94843W        W67268  43.896  12.062  11.450
94844W        W67269  27.713   3.004  10.457
94845W        W67270  35.862  23.216   2.796
94846W        W67271  33.659   0.858   4.664
94847W        W67272  35.107  27.424  13.745
94848W        W67273  17.266  25.715  14.587
94849W        W67274  26.640  32.944   2.572
94850W        W67275  41.923  31.052   0.406
94851W        W67276  34.719  27.071   2.722
94852W        W67277  37.046   4.252   0.265
94853W        W67278  15.797  40.788   4.740
94854W        W67279  42.240  26.107   3.267
94855W        W67280  21.739  17.754  10.903
94856W        W67281  14.197  37.628   0.458
94857W        W67282  20.058  29.158  14.976
94858W        W67283  34.577   7.646   2.276
94859W        W67284  20.446  33.999   2.218
94860W        W67285  23.941  27.546  14.808
94861W        W67286  15.572  16.043   4.042
94862W        W67287  30.373   5.403   0.788
94863W        W67288   8.638  37.381   5.034
94864W        W67289   7.864  23.229   1.852
94865W        W67290  11.372   7.262  10.581
94866W        W67291  39.610   7.919  13.356
94867W        W67292  16.718  21.034   2.600
94868W        W67293  19.752  27.066   3.826
94869W        W67294  19.014  32.462   4.571
94870W        W67295   6.821  31.250   1.866
94871W        W67296  22.622  16.597  13.455
94872W        W67297  25.512  20.010   2.414
94873W        W67298  22.072  43.434   3.211
94874W        W67299  23.512  26.109   2.367
94875W        W67300  28.164  10.476  10.270
94876W        W67301  40.088  34.010   0.483
94877W        W67302  27.528  29.032   0.016
94878W        W67303   9.140  32.689  12.340
94879W        W67304  24.933  19.020   4.109
94880W        W67305  35.358   4.227   3.744
94881W        W67306  41.981  44.590   5.525
94882W        W67307  42.122   7.739   2.711
94883W        W67308  19.988  24.652  11.997
94884W        W67309   7.804  22.516   1.402
94885W        W67310  34.440  36.900  12.451
94886W        W67311  12.718  37.419   3.444
94887W        W67312   2.234  16.646  14.117
94888W        W67313   6.600  22.660  10.595
94889W        W67314  21.094  27.471   1.294
94890W        W67315  24.545  43.875   1.200
94891W        W67316  16.117  18.620   0.697
94892W        W67317   1.282  25.712  12.115
94893W        W67318   2.303  41.069   2.203
94894W        W67319  12.309   5.162  11.484
94895W        W67320  18.031  29.127  11.073
94896W        W67321  44.362   8.688  11.139
94897W        W67322  44.255   4.980  11.166
94898W        W67323  29.454  40.243   2.709
94899W        W67324  20.104   5.203  13.389
94900W        W67325   4.512  22.990   3.585
94901W        W67326  38.624  29.743   1.294
94902W        W67327  16.091   1.863   4.609
94903W        W67328  42.085  38.450  13.475
94904W        W67329  19.675   7.042  12.055
94905W        W67330  39.335  19.687   2.781
94906W        W67331  13.854  36.773  10.508
94907W        W67332   6.223  44.897  10.682
94908W        W67333  43.512  20.654   0.012
94909W        W67334  39.825  36.265  14.722
94910W        W67335  24.585  31.574   3.301
94911W        W67336  28.189  17.268   3.667
94912W        W67337  13.842  11.195   4.270
94913W        W67338  15.739   6.935   2.629
94914W        W67339  42.893  32.073  13.234
94915W        W67340  22.110  21.766   1.475
94916W        W67341  34.332  44.014   2.264
94917W        W67342  28.929  14.774  10.736
94918W        W67343  36.332  17.824  13.598
94919W        W67344  26.266   6.954  12.093
94920W        W67345  27.259  44.305   4.113
94921W        W67346  43.378  18.694   3.931
94922W        W67347   9.690  33.571   2.234
94923W        W67348  22.011  25.991   4.652
94924W        W67349  26.503  22.715   3.680
94925W        W67350  41.332   0.747  11.728
94926W        W67351  39.782   9.693   3.641
94927W        W67352  11.643   7.730   3.628
94928W        W67353  21.743  22.524  13.767
94929W        W67354  15.195  44.922   1.639
94930W        W67355  36.659   5.191   2.386
94931W        W67356  39.890   5.644   2.628
94932W        W67357  31.599  27.055   3.250
94933W        W67358  29.700  40.234   1.230
94934W        W67359  13.185   7.781   4.646
94935W        W67360  38.556   6.699   4.633
94936W        W67361  12.488  20.529  13.357
94937W        W67362  10.947  32.019   2.619
94938W        W67363   4.979  36.034   1.845
94939W        W67364  19.285  25.461  13.070
94940W        W67365  28.529  36.932  12.490
94941W        W67366  13.676   4.292  11.641
94942W        W67367   3.175   4.395   1.619
94943W        W67368  34.539   4.194   1.453
94944W        W67369  39.708  12.943  14.741
94945W        W67370   2.846   0.964  12.364
94946W        W67371   1.150  27.520   4.656
94947W        W67372  34.098  21.977  13.237
94948W        W67373  44.033   2.378   0.226
94949W        W67374  32.191  22.752   2.573
94950W        W67375  11.778  24.772  12.904
94951W        W67376   7.279  32.546  11.021
94952W        W67377  29.110  44.531  14.097
94953W        W67378  37.208  22.167  14.257
94954W        W67379  11.877  36.523  11.583
94955W        W67380  16.293  18.439  12.461
94956W        W67381  31.543  29.882  13.423
94957W        W67382  23.537  33.799   0.345
94958W        W67383  22.207  22.667  11.954
94959W        W67384   5.131  10.366   4.526
94960W        W67385  32.593  26.205   0.067
94961W        W67386  39.460  13.310   1.236
94962W        W67387  34.749  42.939  10.831
94963W        W67388   9.349  30.189   1.282
94964W        W67389   7.369  29.290   2.896
94965W        W67390   2.294   9.746  12.051
94966W        W67391   8.758   6.710  13.983
94967W        W67392  15.087   1.359  13.283
94968W        W67393  19.862  12.567  10.536
94969W        W67394  37.909   9.760   2.652
94970W        W67395  17.573  12.148  12.902
94971W        W67396  31.983  43.444   3.053
94972W        W67397  21.134   6.193  10.198
94973W        W67398  15.278  39.380   1.666
94974W        W67399   0.817  34.070   1.792
94975W        W67400  34.359  37.835  12.395
94976W        W67401  38.557  29.630   4.965
94977W        W67402  17.194  10.800   4.585
94978W        W67403  29.088   2.424   3.661
94979W        W67404  22.528  22.620  13.326
94980W        W67405   0.950   8.646  12.589
94981W        W67406  21.699  18.267   3.774
94982W        W67407   1.240   1.272   4.562
94983W        W67408  23.620  22.630   2.580
94984W        W67409  32.961  17.103   1.248
94985W        W67410   8.900  36.661   2.863
94986W        W67411   3.848   2.516  14.518
94987W        W67412  16.059  21.180  13.606
94988W        W67413  18.565   9.377   0.529
94989W        W67414  28.319  27.084  14.383
94990W        W67415   2.134  38.367   1.365
94991W        W67416  38.355  22.386  12.903
94992W        W67417  29.185  37.556   3.300
94993W        W67418  10.198  16.918  11.334
94994W        W67419  26.609  24.549   1.358
94995W        W67420  32.078  31.106   0.661
94996W        W67421  24.922  18.624   0.741
94997W        W67422  17.842  16.782   0.568
94998W        W67423  18.593  44.200   2.864
94999W        W67424  21.732  28.976  13.604
95000W        W67425  30.805  42.204  14.069
95001W        W67426  15.285  41.788  11.649
95002W        W67427   3.789   3.422  10.801
95003W        W67428  20.648  36.343  10.527
95004W        W67429  18.120  37.307   1.734
95005W        W67430  15.451  22.471  12.934
95006W        W67431   0.273  25.340  14.873
95007W        W67432  16.095   9.821   2.800
95008W        W67433   0.667  14.087   4.531
95009W        W67434   2.296  13.988   4.734
95010W        W67435  24.513   8.194  14.832
95011W        W67436  32.186   4.806   0.035
95012W        W67437   0.004   3.487   1.437
95013W        W67438  40.718  35.135  13.690
95014W        W67439  36.461  44.832  13.087
95015W        W67440   1.904  26.452  11.340
95016W        W67441  17.223  37.381  11.857
95017W        W67442  10.851  34.063  11.099
95018W        W67443  38.357  28.164   2.371
95019W        W67444  44.922  21.732   1.731
95020W        W67445   4.247  28.995   0.071
95021W        W67446  40.255  36.940   0.806
95022W        W67447   3.987  10.752   0.972
95023W        W67448   1.400  38.605   1.935
95024W        W67449  11.202  15.693  10.435
95025W        W67450  15.777  43.957   4.685
95026W        W67451  34.007  13.843   2.769
95027W        W67452  37.406  34.445   4.706
95028W        W67453  33.804  43.137  14.848
95029W        W67454  18.093  16.112   4.575
95030W        W67455   5.928  31.999   0.449
95031W        W67456  41.101   3.638   3.156
95032W        W67457  10.845  42.128  14.417
95033W        W67458  12.688  10.224   1.704
95034W        W67459  29.469  41.517   4.286
95035W        W67460  30.106  24.275  14.965
95036W        W67461  35.117  13.769  12.594
95037W        W67462   3.811  25.627   4.697
95038W        W67463  10.055  26.573   0.418
95039W        W67464  25.554  14.284   1.259
95040W        W67465  42.445  18.598   4.778
95041W        W67466  18.979  15.116  13.030
95042W        W67467   4.456  22.550   4.148
95043W        W67468   1.743  21.354   4.548
95044W        W67469  31.207  19.713   3.371
95045W        W67470   2.002   6.211   1.322
95046W        W67471  23.073   3.851   3.720
95047W        W67472  33.051  39.780  13.857
95048W        W67473  22.155  21.981   3.279
95049W        W67474  37.346  22.082   5.030
95050W        W67475  18.219  36.603  13.925
95051W        W67476  17.087  15.784   0.955
95052W        W67477  31.092  18.560  11.483
95053W        W67478   9.177  36.110  10.116
95054W        W67479   3.468  39.529   3.053
95055W        W67480  16.738  32.035  12.507
95056W        W67481  41.410  25.029   2.206
95057W        W67482  36.852   7.397   2.765
95058W        W67483  37.888  24.155  10.339
95059W        W67484  29.688   7.602  12.448
95060W        W67485  25.245  20.261   3.826
95061W        W67486  38.014  18.616  13.848
95062W        W67487   0.475  34.523   0.810
95063W        W67488  13.088  39.491   2.584
95064W        W67489  40.341  31.681  11.134
95065W        W67490  21.105  26.625   1.774
95066W        W67491   3.326  12.880   1.935
95067W        W67492   2.487  21.807  13.747
95068W        W67493  41.813  44.331  11.707
95069W        W67494  35.002  24.466   0.867
95070W        W67495  29.877  10.721   0.254
95071W        W67496  27.659  42.064  11.087
95072W        W67497   8.887  41.135  10.899
95073W        W67498   9.093  16.743  12.044
95074W        W67499  35.616  38.813  11.469
95075W        W67500   1.352  27.738  13.763
95076W        W67501  31.815  20.795  14.681
95077W        W67502   7.490  17.288  12.005
95078W        W67503  32.918  19.466   2.251
95079W        W67504   1.792  34.399   4.584
95080W        W67505  20.492  21.475  12.666
95081W        W67506  21.313  33.096  12.131
95082W        W67507   9.479  37.785   3.056
95083W        W67508   7.726  25.389  14.962
95084W        W67509   7.219   8.629   2.858
95085W        W67510  27.448  29.451  13.895
95086W        W67511   3.291  28.472  13.806
95087W        W67512  39.066  27.507   2.848
95088W        W67513  10.130  31.617  14.991
95089W        W67514  10.423  15.108  12.547
95090W        W67515  31.365  10.113   1.597
95091W        W67516  13.844  43.373   2.266
95092W        W67517  44.799   0.309  11.959
95093W        W67518  39.401  28.233  14.327
95094W        W67519   6.562  15.653  13.591
95095W        W67520   5.184   2.459   0.437
95096W        W67521  34.516  28.464   1.334
95097W        W67522  15.958  39.331  13.981
95098W        W67523  23.513  11.741   2.747
95099W        W67524  40.988  40.110   0.431
95100W        W67525   7.442   0.541  11.280
95101W        W67526  19.468  26.770   2.671
95102W        W67527  33.674  25.054   4.511
95103W        W67528  38.290  29.544  13.467
95104W        W67529   8.385  33.933   1.882
95105W        W67530  25.105   0.365  10.720
95106W        W67531  13.033  36.545   2.803
95107W        W67532  29.339  30.748  14.864
95108W        W67533  44.264  36.461  11.198
95109W        W67534  23.075   0.800   0.985
95110W        W67535  43.454  29.064  12.009
95111W        W67536   7.335  43.105   4.188
95112W        W67537  18.039  21.681  12.502
95113W        W67538  44.764  15.914   4.088
95114W        W67539   7.509  35.846  10.953
95115W        W67540  44.414  21.494   1.787
95116W        W67541  30.072  10.411   2.586
95117W        W67542   6.952   1.778   4.478
95118W        W67543  29.661   4.467  12.985
95119W        W67544   9.328  24.690   3.609
95120W        W67545  31.748  24.651  13.446
95121W        W67546   9.310  23.592   2.496
95122W        W67547  36.823  44.863  14.371
95123W        W67548  31.315   6.117  11.105
95124W        W67549  14.238  25.089  10.532
95125W        W67550   9.168  14.080   3.370
95126W        W67551  44.258  21.280   1.238
95127W        W67552  44.750   0.054  13.532
95128W        W67553   3.040  16.811   0.485
95129W        W67554  34.687  18.277   1.772
95130W        W67555  26.622  18.256   4.467
95131W        W67556  34.091  22.330   1.743
95132W        W67557  16.281  39.377   3.581
95133W        W67558  27.472  18.661   3.577
95134W        W67559  24.010  29.920  14.324
95135W        W67560  15.245  14.315   0.364
95136W        W67561  14.193  18.713   0.492
95137W        W67562  11.291  16.034   1.406
95138W        W67563  38.316  37.418  13.408
95139W        W67564   2.343  13.163  11.180
95140W        W67565   2.936   4.882  14.033
95141W        W67566  33.226  19.791  11.720
95142W        W67567   1.302   9.359   1.225
95143W        W67568  40.963  15.632  12.145
95144W        W67569  26.000  32.702   1.183
95145W        W67570  39.889  27.319   2.555
95146W        W67571  41.526   4.502  11.340
95147W        W67572  35.052  19.318  12.900
95148W        W67573  13.161   5.215   0.285
95149W        W67574  35.093  32.018  13.237
95150W        W67575   8.230  14.485  13.814
95151W        W67576  38.765   9.058  14.519
95152W        W67577  16.950  13.765   2.001
95153W        W67578   3.941  41.194   5.039
95154W        W67579   6.193  43.419   2.785
95155W        W67580  28.175  17.064  10.688
95156W        W67581  23.065  17.945   0.002
95157W        W67582  17.508   9.663   0.487
95158W        W67583  16.529  21.810   0.973
95159W        W67584  25.617  24.535  13.091
95160W        W67585  16.735  11.223   0.448
95161W        W67586  31.865  30.105  12.063
95162W        W67587  21.092  31.246   1.751
95163W        W67588  40.993  22.644  14.933
95164W        W67589  43.710  42.028  13.057
95165W        W67590  31.910  10.761   4.177
95166W        W67591   9.892   2.251   4.705
95167W        W67592  40.958   3.187  14.886
95168W        W67593  23.932  37.359   3.785
95169W        W67594  33.027  35.362   1.809
95170W        W67595  16.224  39.328   1.171
95171W        W67596  15.268  15.474   4.658
95172W        W67597  32.932  15.313  13.356
95173W        W67598  39.657  14.372  14.743
95174W        W67599  10.278   9.104   3.744
95175W        W67600  18.225  44.845  12.059
95176W        W67601   1.006  27.201  14.746
95177W        W67602  33.382   6.431  13.964
95178W        W67603  26.001   1.989  12.767
95179W        W67604  11.878  17.314  12.849
95180W        W67605   7.460  30.941  12.081
95181W        W67606  21.495  23.942  11.013
95182W        W67607  21.145  32.251   0.754
95183W        W67608  15.661   7.793  12.905
95184W        W67609   8.666  13.720  14.441
95185W        W67610  24.306  38.076   0.770
95186W        W67611  27.173  36.911  11.647
95187W        W67612  12.427  11.185   0.813
95188W        W67613  10.778  38.416  14.818
95189W        W67614  36.530  12.271   2.583
95190W        W67615  35.024  14.320   3.768
95191W        W67616  27.631  33.664   9.699
95192W        W67617  16.848  17.530   3.373
95193W        W67618  15.490  23.165   2.858
95194W        W67619  22.338  27.638   2.884
95195W        W67620   2.213  27.174  13.088
95196W        W67621  29.808  41.870  11.042
95197W        W67622  42.426  13.592  13.236
95198W        W67623  25.457   0.259   2.374
95199W        W67624  17.201  20.662   4.429
95200W        W67625  26.130  31.591  11.588
95201W        W67626  41.677  16.733   2.349
95202W        W67627  12.865  13.585  14.458
95203W        W67628  23.425  30.475   3.783
95204W        W67629  20.762   8.352   2.647
95205W        W67630  15.545  10.618  14.612
95206W        W67631  13.013  26.488   3.632
95207W        W67632  39.452  32.623  12.111
95208W        W67633   3.849  26.599  13.574
95209W        W67634  15.631  32.702  12.029
95210W        W67635  10.085   1.336  11.647
95211W        W67636   9.566   1.472  12.561
95212W        W67637  14.036  20.326  14.777
95213W        W67638  44.411  26.996   1.748
95214W        W67639  21.987  44.350  11.901
95215W        W67640  20.627  44.721   0.897
95216W        W67641  16.272  18.302   4.188
95217W        W67642   4.030  24.160  11.911
95218W        W67643  36.992  17.162   3.165
95219W        W67644  36.908   9.907   1.183
95220W        W67645  23.187   3.747  11.147
95221W        W67646  41.330  33.247  10.633
95222W        W67647  28.628   9.373   4.866
95223W        W67648  19.751  12.474   1.447
95224W        W67649   5.279  27.442   0.854
95225W        W67650  39.440  14.086   4.303
95226W        W67651  24.644  25.593   4.693
95227W        W67652  13.597  21.845   1.777
95228W        W67653  41.271  38.556  11.851
95229W        W67654  28.347  23.817  14.868
95230W        W67655  34.524   0.872   3.162
95231W        W67656  35.903  24.289  10.190
95232W        W67657   1.030  21.785  14.336
95233W        W67658  16.587   3.359  11.672
95234W        W67659   2.020  32.282   2.777
95235W        W67660  37.921   7.664   3.413
95236W        W67661   5.985  30.773  14.377
95237W        W67662  44.063   5.914  11.175
95238W        W67663  30.206   7.150   0.415
95239W        W67664  32.852   0.969   9.925
95240W        W67665  17.798  32.268   5.198
95241W        W67666  30.952   2.313  11.965
95242W        W67667   1.490  29.921  11.492
95243W        W67668  27.080  14.428   4.160
95244W        W67669   9.668  32.588  12.154
95245W        W67670  13.272   5.150  12.356
95246W        W67671  16.313  18.165  14.530
95247W        W67672  11.476   7.330  11.467
95248W        W67673  32.743  38.400   2.466
95249W        W67674  24.137  24.982  10.653
95250W        W67675   4.028  33.529  12.719
95251W        W67676  14.773   7.584   1.444
95252W        W67677  26.594  22.182   3.849
95253W        W67678  36.509  17.194  11.011
95254W        W67679   1.324  11.853   2.250
95255W        W67680  28.556  44.525  13.954
95256W        W67681  15.612  32.142   1.445
95257W        W67682  42.430  40.517   4.689
95258W        W67683  44.017  15.862  14.004
95259W        W67684  31.189  18.867  12.836
95260W        W67685  19.119  24.016   0.748
95261W        W67686  21.457  17.226   2.842
95262W        W67687  30.876  15.136   4.069
95263W        W67688   7.780  26.138  12.966
95264W        W67689  32.570  32.917   1.425
95265W        W67690   9.327   1.634  11.119
95266W        W67691  36.098  20.173  10.886
95267W        W67692  17.425   5.194   3.214
95268W        W67693  42.473   0.984  14.376
95269W        W67694  12.035  22.121   2.528
95270W        W67695  12.507  18.020  12.434
95271W        W67696   3.267   3.010   1.637
95272W        W67697  33.631  10.427  13.507
95273W        W67698  21.559  24.180  14.030
95274W        W67699  30.679  28.628  13.838
95275W        W67700  16.273  43.113  14.088
95276W        W67701  34.651  15.368   4.603
95277W        W67702  39.094  44.104  13.029
95278W        W67703  17.108  33.644   4.210
95279W        W67704   6.456  24.398  11.165
95280W        W67705   4.375  12.540  13.031
95281W        W67706  13.801  35.578  13.857
95282W        W67707   9.941   8.884  12.033
95283W        W67708  16.033   5.852   0.920
95284W        W67709   3.801  24.748   4.524
95285W        W67710  10.663   9.734   2.272
95286W        W67711  16.689  44.951   4.635
95287W        W67712  44.844  35.474  12.652
95288W        W67713  32.251  37.879  12.958
95289W        W67714   6.166  28.844   2.663
95290W        W67715  42.351  33.218   1.913
95291W        W67716  27.661  44.942   2.895
95292W        W67717  14.605  43.157   5.114
95293W        W67718  15.870   2.393   9.562
95294W        W67719  24.249  15.601   0.200
95295W        W67720  38.924  44.915  10.167
95296W        W67721  23.091  16.362  13.483
95297W        W67722  18.188  28.116   1.592
95298W        W67723  10.896  11.652  12.822
95299W        W67724  22.666  24.572  14.367
95300W        W67725   1.808   1.033   1.363
95301W        W67726  22.975   7.355   1.948
95302W        W67727  13.059  14.069  14.363
95303W        W67728   7.381  40.159   4.888
95304W        W67729   0.842   1.281   2.177
95305W        W67730   6.398  32.614  11.048
95306W        W67731   2.325   0.082  10.435
95307W        W67732  10.261  28.590  12.071
95308W        W67733  34.812   2.210   4.556
95309W        W67734  22.649  37.565  13.111
95310W        W67735   2.562   5.311  10.516
95311W        W67736   2.568  11.434  11.478
95312W        W67737  17.557  44.568   1.250
95313W        W67738   5.160   6.706   1.928
95314W        W67739  18.748  13.587   0.972
95315W        W67740   3.269   4.319   0.155
95316W        W67741  38.926  11.550  13.439
95317W        W67742  30.120  19.774   1.164
95318W        W67743   0.008  36.342  13.233
95319W        W67744  35.547  28.646  14.003
95320W        W67745   1.918  42.443  12.432
95321W        W67746  15.059  25.658   0.386
95322W        W67747  39.462  25.443   2.803
95323W        W67748  44.880  11.741   0.807
95324W        W67749  30.957  37.841  10.958
95325W        W67750  10.847  31.937  13.917
95326W        W67751  11.829  27.120  14.869
95327W        W67752  35.447  16.342   3.850
95328W        W67753  37.599  11.748  13.780
95329W        W67754  17.886   6.489  13.453
95330W        W67755  26.200  36.629  11.085
95331W        W67756  37.333   1.273   2.261
95332W        W67757  11.660   2.807   3.621
95333W        W67758  37.906  38.862  13.784
95334W        W67759  15.742   7.902  13.406
95335W        W67760   6.808  37.621   0.741
95336W        W67761  23.524   2.715  12.577
95337W        W67762  20.238   2.655  14.321
95338W        W67763  36.027  18.759   4.599
95339W        W67764   8.845  39.476   4.377
95340W        W67765  32.113   3.402   1.297
95341W        W67766  34.378  27.625   4.403
95342W        W67767  17.922   7.222   2.276
95343W        W67768  43.329   2.825   4.239
95344W        W67769  42.010  17.048   3.614
95345W        W67770  22.484   7.180   2.116
95346W        W67771  15.527   1.810  14.047
95347W        W67772   9.717  23.752  14.170
95348W        W67773  24.690  12.139   3.678
95349W        W67774  26.491  16.252  13.336
95350W        W67775   3.416  30.093   2.319
95351W        W67776  11.271  14.650  12.894
95352W        W67777  14.454  44.872  11.213
95353W        W67778  26.535   6.168  13.488
95354W        W67779   2.012   6.387  12.978
95355W        W67780  31.408  11.313   0.247
95356W        W67781  42.447  20.601   2.276
95357W        W67782  39.300  12.760  14.986
95358W        W67783  42.379  22.253  14.960
95359W        W67784  25.513  15.100   2.763
95360W        W67785  21.547  35.159   0.432
95361W        W67786  31.923  21.294  14.882
95362W        W67787   6.264  25.175  11.559
95363W        W67788  20.283  14.813  10.687
95364W        W67789  36.902  21.777  11.212
95365W        W67790  38.113  38.773   4.173
95366W        W67791  32.127  24.677   4.101
95367W        W67792  23.104  17.473  14.653
95368W        W67793  28.032  34.495   0.433
95369W        W67794   2.509  21.588   0.749
95370W        W67795   5.539   4.900   1.974
95371W        W67796   5.360  35.139  14.557
95372W        W67797   4.224  44.238   2.811
95373W        W67798  28.086  25.121  14.276
95374W        W67799  34.542  19.774  13.713
95375W        W67800   5.285  34.117   1.667
95376W        W67801  34.161  26.049  10.528
95377W        W67802  33.675  40.545   4.627
95378W        W67803   9.426  31.066  13.134
95379W        W67804  38.949  23.078   0.448
95380W        W67805   5.843   8.878   0.995
95381W        W67806  40.014  39.580  14.054
95382W        W67807  25.129  34.582  10.457
95383W        W67808  31.445  26.949   1.057
95384W        W67809  14.545   8.261   2.744
95385W        W67810  31.542  39.541  14.396
95386W        W67811   9.375   3.207  11.112
95387W        W67812  32.863  17.320   3.202
95388W        W67813  18.776  29.999  10.651
95389W        W67814  43.252  40.436   1.878
95390W        W67815  21.006  11.249   0.821
95391W        W67816   5.803  29.958  14.065
95392W        W67817   3.853   7.398   2.152
95393W        W67818  24.498  30.029  11.199
95394W        W67819   9.282  29.587  10.673
95395W        W67820  17.756  21.319   1.269
95396W        W67821  38.729  18.274   4.568
95397W        W67822  43.712   3.292   3.468
95398W        W67823  41.367  21.038  14.493
95399W        W67824  31.091  31.092   0.275
95400W        W67825  34.396  24.770   1.719
95401W        W67826  40.393  31.945   0.396
95402W        W67827   6.693   8.872  11.695
95403W        W67828  38.451   1.469   4.555
95404W        W67829  30.980  26.670  12.114
95405W        W67830  37.010   8.622  10.784
95406W        W67831  36.537  13.228   0.878
95407W        W67832  44.854  40.192  14.740
95408W        W67833  12.462  31.106   1.234
95409W        W67834  13.190  18.083  14.585
95410W        W67835  39.760  13.325   3.579
95411W        W67836  40.469  19.330   0.735
95412W        W67837  24.481   6.433  14.719
95413W        W67838  10.804  10.739  14.304
95414W        W67839  43.759  35.779  13.417
95415W        W67840  36.356  38.915   3.689
95416W        W67841  19.133  32.862   2.194
95417W        W67842  18.733  16.057  14.282
95418W        W67843   1.015  17.310   2.840
95419W        W67844   7.250  21.051  11.467
95420W        W67845   1.819  27.522   2.980
95421W        W67846  10.776   3.413  14.054
95422W        W67847   6.150  12.145  14.793
95423W        W67848  21.368  22.176   0.280
95424W        W67849  41.508  25.024  14.011
95425W        W67850  33.535  44.553   3.685
95426W        W67851  40.474  38.155  10.584
95427W        W67852  39.647  17.185   3.670
95428W        W67853  35.325  16.649   0.272
95429W        W67854  14.995  27.535   3.808
95430W        W67855   9.763  17.156  10.784
95431W        W67856  14.319  41.222   3.390
95432W        W67857  14.120  44.378  14.795
95433W        W67858  29.638  16.224   3.920
95434W        W67859   4.936  33.376  13.783
95435W        W67860  18.355  34.722   0.454
95436W        W67861   6.745  32.979  10.572
95437W        W67862  15.068   6.239  11.156
95438W        W67863  39.386  33.625   3.871
95439W        W67864  31.545  32.498   0.804
95440W        W67865   4.207   4.391   3.581
95441W        W67866  44.997  26.055  14.465
95442W        W67867  19.163   0.076  10.528
95443W        W67868  24.089  26.211   3.664
95444W        W67869  25.171  41.863  10.768
95445W        W67870  36.403  29.591   2.685
95446W        W67871  10.766  31.463   0.720
95447W        W67872  30.381   5.416   2.059
95448W        W67873  25.738  15.319  11.958
95449W        W67874  25.622  12.597  12.080
95450W        W67875  24.721   5.280  11.004
95451W        W67876  17.467   6.405   4.768
95452W        W67877  27.610   1.482   2.674
95453W        W67878  18.262  19.247   3.881
95454W        W67879  32.343  30.785  14.915
95455W        W67880  31.569  13.583   0.639
95456W        W67881  31.153  31.933  13.778
95457W        W67882  38.965  16.984   2.661
95458W        W67883  39.887   8.336  14.045
95459W        W67884  18.284  18.148   4.290
95460W        W67885   3.458  21.517  14.410
95461W        W67886  40.449  35.187   2.195
95462W        W67887  43.819  44.520  14.809
95463W        W67888   9.389  11.904   4.688
95464W        W67889   7.650   0.413   1.772
95465W        W67890  21.158  40.319  14.180
95466W        W67891  21.184   3.829   0.925
95467W        W67892  23.467  14.330   3.810
95468W        W67893  43.422  35.241  11.475
95469W        W67894  14.107  35.537  10.438
95470W        W67895  16.074  25.188   0.907
95471W        W67896  33.044  39.151   4.637
95472W        W67897  42.078  13.811   4.599
95473W        W67898  32.548   3.770  12.178
95474W        W67899  22.606  32.644   1.341
95475W        W67900  35.296  32.618  11.117
95476W        W67901  28.690  32.620   5.018
95477W        W67902  38.509  22.968  11.050
95478W        W67903   3.846  41.109   4.258
95479W        W67904  36.845  20.038  12.478
95480W        W67905  29.906  34.823  11.626
95481W        W67906  38.953  24.607   2.608
95482W        W67907  26.906   2.259   4.648
95483W        W67908  13.497   6.110  13.247
95484W        W67909  39.030  43.409   1.885
95485W        W67910  31.637  23.603   1.281
95486W        W67911  23.154  44.885   4.076
95487W        W67912   9.906  24.573  11.063
95488W        W67913  12.262  14.162   1.776
95489W        W67914  19.951  20.452  12.873
95490W        W67915  41.083  16.205   1.820
95491W        W67916  35.713  36.821  12.923
95492W        W67917  35.363  18.571   3.429
95493W        W67918  43.257   3.471   2.160
95494W        W67919  25.118   9.331  14.552
95495W        W67920  11.487   3.860  12.528
95496W        W67921  31.460  31.403   4.074
95497W        W67922   5.405  39.152   3.485
95498W        W67923   4.526  42.536  14.260
95499W        W67924  42.392   3.245   4.372
95500W        W67925  38.563  35.896   5.193
95501W        W67926  38.345  15.200  14.930
95502W        W67927  18.057  20.091  11.608
95503W        W67928  20.036  23.600   4.561
95504W        W67929  31.897  10.554  11.144
95505W        W67930  34.603  43.434  14.772
95506W        W67931   9.721  13.252  13.015
95507W        W67932  13.868  33.034  12.624
95508W        W67933  36.276  29.412  13.365
95509W        W67934  41.214   7.005   0.021
95510W        W67935  28.422  34.513   2.702
95511W        W67936  43.858  34.150   0.846
95512W        W67937   4.984  16.341   3.113
95513W        W67938   4.366  21.615   0.421
95514W        W67939   8.935  44.824  14.313
95515W        W67940  18.038  25.511  12.504
95516W        W67941  21.864  35.458  11.676
95517W        W67942  23.480  19.267  11.224
95518W        W67943   9.364   0.129  12.667
95519W        W67944  20.689   6.204   2.899
95520W        W67945  29.340   4.833   1.239
95521W        W67946  34.696  33.508  13.415
95522W        W67947   7.159  22.277   0.267
95523W        W67948  23.939  36.060  12.666
95524W        W67949  35.933  15.851   2.818
95525W        W67950  34.157   6.369   4.488
95526W        W67951  29.895   7.873   1.502
95527W        W67952  29.440  43.864   1.881
95528W        W67953  27.716  33.349  13.480
95529W        W67954   3.752  40.760  11.696
95530W        W67955  22.924   3.252   4.509
95531W        W67956  21.002   3.432   2.299
95532W        W67957  18.751  42.772  14.340
95533W        W67958   2.418  20.086  10.959
95534W        W67959  15.205  14.542   1.387
95535W        W67960  41.075   9.742   0.375
95536W        W67961   1.042  18.841  11.097
95537W        W67962  10.367  13.804  13.819
95538W        W67963  35.880  43.737  11.130
95539W        W67964  40.992  23.244   2.791
95540W        W67965  12.994  19.565   0.921
95541W        W67966  37.069   4.620   2.627
95542W        W67967  24.758  28.902  13.354
95543W        W67968  32.768   9.999  14.420
95544W        W67969  13.188  32.999  14.519
95545W        W67970  42.049  27.796  14.772
95546W        W67971  23.186  42.827  14.402
95547W        W67972  10.175  32.900  11.637
95548W        W67973  24.626  21.815  11.704
95549W        W67974  37.377  31.110   0.775
95550W        W67975  27.837  22.135  13.349
95551W        W67976  34.555   2.456   2.934
95552W        W67977  40.327   4.877  11.252
95553W        W67978  17.096  44.875  12.985
95554W        W67979  35.147  22.486   3.164
95555W        W67980  37.786  32.587   2.318
95556W        W67981  23.694  36.458  10.735
95557W        W67982   8.315  10.596  11.975
95558W        W67983  28.914   6.571   2.665
95559W        W67984  28.698   3.264  12.948
95560W        W67985   1.052  37.809   2.844
95561W        W67986   1.646   9.830  11.082
95562W        W67987  27.076  12.667   3.142
95563W        W67988  36.496   3.852   0.337
95564W        W67989   2.922  20.168  13.009
95565W        W67990  27.000  18.201   3.163
95566W        W67991   9.894  35.679  11.771
95567W        W67992  33.465  38.930  14.828
95568W        W67993   8.228  43.530   0.035
95569W        W67994  10.274  17.763   4.503
95570W        W67995   0.380  16.165  13.303
95571W        W67996  39.073   6.401   5.133
95572W        W67997  16.858  32.947   4.627
95573W        W67998  38.048   8.317   1.248
95574W        W67999  14.712  18.005   1.700
95575W        W68000  36.893  22.599  14.280
95576W        W68001  30.426  14.529  12.913
95577W        W68002   3.454  26.384   0.022
95578W        W68003  20.084  17.674  12.162
95579W        W68004  13.718  23.114   2.323
95580W        W68005  17.092  24.989   2.284
95581W        W68006  27.930   3.488  13.462
95582W        W68007  39.538   7.500  14.111
95583W        W68008  44.457  24.575  11.630
95584W        W68009  44.522   0.298  10.619
95585W        W68010  14.182  38.818  14.881
95586W        W68011  16.517  14.886   3.502
95587W        W68012  38.882  10.690  12.946
95588W        W68013   6.770  31.164  12.477
95589W        W68014  28.282  12.643  11.414
95590W        W68015  28.739  29.688   3.159
95591W        W68016   0.957  18.047  10.628
95592W        W68017  10.745  14.340   2.892
95593W        W68018  15.332  29.316   2.605
95594W        W68019  18.283  28.117   3.775
95595W        W68020  33.977  44.070  11.207
95596W        W68021  18.647  32.507  10.339
95597W        W68022  43.542  22.588  10.518
95598W        W68023  29.458  11.134  14.107
95599W        W68024  33.392  35.353  13.415
95600W        W68025  15.567  10.767  10.581
95601W        W68026  24.893   0.870   0.278
95602W        W68027  31.940  15.337  11.606
95603W        W68028  25.125  26.087   4.247
95604W        W68029  25.236  20.913   1.502
95605W        W68030  30.461  30.000   4.634
95606W        W68031  19.587  37.567   3.547
95607W        W68032  31.649  39.280  13.043
95608W        W68033  44.335  18.557   0.862
95609W        W68034  44.792  18.716  11.613
95610W        W68035  30.644  24.026  11.559
95611W        W68036   3.752   9.693   1.872
95612W        W68037  14.639  33.171   1.326
95613W        W68038   0.033  25.279  13.920
95614W        W68039  44.938  30.486   2.739
95615W        W68040  35.142  19.085   0.704
95616W        W68041   0.883  15.881  13.439
95617W        W68042  20.491  17.924  12.423
95618W        W68043  20.073  24.197   4.150
95619W        W68044  21.279  23.499  10.856
95620W        W68045  39.826  33.799  14.942
95621W        W68046  22.221  26.563   4.670
95622W        W68047  35.775  25.204   0.725
95623W        W68048  18.324  26.721   4.209
95624W        W68049  16.567  36.927  13.523
95625W        W68050  25.220  38.639  10.733
95626W        W68051  11.190  42.601  10.641
95627W        W68052  26.552  20.991   3.681
95628W        W68053  16.747  32.413  12.960
95629W        W68054  40.328  16.587   4.574
95630W        W68055  24.539  14.871  12.457
95631W        W68056  23.310  34.693   0.891
95632W        W68057  26.180  15.316   2.836
95633W        W68058  38.947  17.885   4.835
95634W        W68059  43.054  33.895   1.400
95635W        W68060  44.598  27.870  11.548
95636W        W68061  41.862  28.811  11.919
95637W        W68062  26.207  44.885  14.344
95638W        W68063   2.514  28.254   2.873
95639W        W68064  17.220  11.489  13.895
95640W        W68065   7.397  23.788   2.388
95641W        W68066  18.824  38.471  13.829
95642W        W68067  36.898  30.172  14.725
95643W        W68068   4.940   4.483  10.555
95644W        W68069  22.600  27.055  14.269
95645W        W68070  27.721   6.740   4.169
95646W        W68071  41.742  14.193   4.412
95647W        W68072   2.737  41.453  10.735
95648W        W68073  21.266  37.239  13.146
95649W        W68074  12.541  36.513  14.020
95650W        W68075  14.852   8.595  12.132
95651W        W68076   1.512  23.521  13.504
95652W        W68077   8.774   6.242   3.441
95653W        W68078   5.195  17.218   4.323
95654W        W68079   6.833  16.818  14.734
95655W        W68080  44.968  43.638  12.596
95656W        W68081   9.142  18.668   3.702
95657W        W68082   3.376  31.349  14.108
95658W        W68083  18.613  36.059   3.816
95659W        W68084  29.626  36.741   0.251
95660W        W68085  13.387  37.250  13.382
95661W        W68086  11.704  34.028   1.936
95662W        W68087   6.219  35.710   9.910
95663W        W68088  21.112   5.659  13.443
95664W        W68089   4.375   6.855  11.078
95665W        W68090  10.092  31.620   1.424
95666W        W68091  39.427  18.330  14.345
95667W        W68092  38.007  40.852  12.685
95668W        W68093  25.589  44.756   2.353
95669W        W68094   0.035   7.885   3.742
95670W        W68095   3.530   1.298  13.493
95671W        W68096  29.085   4.003  11.200
95672W        W68097   0.734  38.618   3.638
95673W        W68098  16.045  39.770  13.419
95674W        W68099  25.488   4.502  12.509
95675W        W68100  10.208  25.432   4.217
95676W        W68101  19.625  28.688  12.438
95677W        W68102  23.869  13.340   5.084
95678W        W68103   0.459  20.223  11.192
95679W        W68104  17.194  35.414  12.355
95680W        W68105  37.431   5.663   0.437
95681W        W68106  34.061  31.474   3.805
95682W        W68107  44.563  23.075   3.268
95683W        W68108  24.615  39.369   1.363
95684W        W68109  32.794  30.008  12.967
95685W        W68110   6.303  21.289  11.662
95686W        W68111   0.866  35.479  11.005
95687W        W68112   9.990   9.999   3.764
95688W        W68113  14.073  25.494   2.250
95689W        W68114  34.941   8.630  11.479
95690W        W68115  16.123  37.998  13.646
95691W        W68116   2.532  29.173  12.132
95692W        W68117  43.899  14.871  10.799
95693W        W68118   6.761  36.551  11.151
95694W        W68119   5.448  18.394   3.651
95695W        W68120   6.116  10.693   0.321
95696W        W68121  25.245  33.596  14.442
95697W        W68122  20.647  38.532   3.610
95698W        W68123  37.487  33.305   3.215
95699W        W68124   2.900   8.533   0.479
95700W        W68125  35.825  24.016  14.372
95701W        W68126  37.802  41.862   1.836
95702W        W68127  29.744  31.593  11.352
95703W        W68128  16.337  17.159   0.008
95704W        W68129  13.219  34.214  12.680
95705W        W68130  13.898  39.336   1.606
95706W        W68131  17.295   0.746  14.884
95707W        W68132  14.753  40.557  12.554
95708W        W68133  12.320  27.013   1.943
95709W        W68134  27.027  33.451   0.748
95710W        W68135  35.179   1.859  12.430
95711W        W68136  28.661   6.867  13.961
95712W        W68137   2.557  29.437   4.026
95713W        W68138  18.425  33.765   5.110
95714W        W68139  28.581  22.568  13.846
95715W        W68140  18.764  30.865  10.612
95716W        W68141  13.303  36.844   0.416
95717W        W68142  24.435   1.498  13.393
95718W        W68143  11.129   9.811  14.879
95719W        W68144  36.065  18.629   3.140
95720W        W68145  42.880  18.097  12.713
95721W        W68146  19.279  24.106   3.741
95722W        W68147  11.128  17.224  14.169
95723W        W68148  20.642  29.209  11.086
95724W        W68149  18.410  35.640   2.345
95725W        W68150  42.852  14.663  11.549
95726W        W68151  43.593  13.615   1.350
95727W        W68152   4.738  20.764  13.956
95728W        W68153  41.071  25.160   1.461
95729W        W68154  16.556   9.994   2.665
95730W        W68155   2.216  25.886   0.890
95731W        W68156  36.993  21.776  14.548
95732W        W68157  21.240   6.963  13.460
95733W        W68158  36.909  14.151   1.361
95734W        W68159  42.024  18.533   4.453
95735W        W68160   4.427  40.601  13.897
95736W        W68161  38.446  30.376  10.835
95737W        W68162  18.150  41.075   0.750
95738W        W68163  29.830  15.625  11.792
95739W        W68164   9.697  11.104  12.901
95740W        W68165  15.456  14.346   4.147
95741W        W68166  13.665  30.127   4.491
95742W        W68167   7.320  23.934  12.560
95743W        W68168  34.913  40.247   2.196
95744W        W68169  32.566  42.995  11.536
95745W        W68170  25.636   6.807   1.907
95746W        W68171  38.822  22.581  14.364
95747W        W68172  11.852  34.092   3.932
95748W        W68173  36.391  41.489  12.374
95749W        W68174   0.488   9.718   0.352
95750W        W68175  23.222  10.457   1.686
95751W        W68176  32.121  40.531   2.011
95752W        W68177  30.487  42.364  14.459
95753W        W68178  15.892   8.683  14.339
95754W        W68179  37.437  23.136  12.610
95755W        W68180  16.829   1.960  12.186
95756W        W68181  39.008  21.443   2.755
95757W        W68182  20.215  44.821   0.470
95758W        W68183  32.881  26.094   1.906
95759W        W68184  38.374   7.409  11.595
95760W        W68185  15.088  24.250  14.777
95761W        W68186  16.352  12.573   4.399
95762W        W68187  14.696   0.148   1.502
95763W        W68188  35.573   1.453  12.947
95764W        W68189   6.385  44.220   4.655
95765W        W68190   7.811  14.399  14.976
95766W        W68191   4.811  35.034   1.773
95767W        W68192   8.469  18.372  12.645
95768W        W68193  32.251  28.986  10.540
95769W        W68194  19.592  31.861   3.082
95770W        W68195  37.407  43.366  11.208
95771W        W68196  14.015  33.375   0.900
95772W        W68197  40.008   5.168   4.452
95773W        W68198  44.697   5.729   4.664
95774W        W68199  43.379  39.754   2.803
95775W        W68200   7.771  15.348  12.490
95776W        W68201  40.575  34.684   1.464
95777W        W68202   2.155  25.127   4.599
95778W        W68203   5.634   4.456   0.371
95779W        W68204  23.967  34.398   3.182
95780W        W68205  10.128   4.442   0.315
95781W        W68206  29.571  17.045   3.576
95782W        W68207  27.175  15.805  10.982
95783W        W68208  28.961  39.489   0.836
95784W        W68209  13.705  25.629   2.635
95785W        W68210  35.069  32.121  11.477
95786W        W68211  41.376  20.776  10.721
95787W        W68212  28.610   2.348  12.932
95788W        W68213  36.643   4.368   1.063
95789W        W68214  23.097  25.209   3.212
95790W        W68215  34.062  21.514  13.512
95791W        W68216   0.524  26.416   4.451
95792W        W68217   5.437  17.493  10.653
95793W        W68218   1.518  19.744   1.902
95794W        W68219  11.132   6.653   5.153
95795W        W68220  34.869  34.467   4.299
95796W        W68221  26.465  40.454   2.834
95797W        W68222  27.150  18.486  14.246
95798W        W68223  20.456   3.844  12.915
95799W        W68224  29.532  30.009  14.339
95800W        W68225   4.727  18.149  14.445
95801W        W68226  31.524   5.150  11.914
95802W        W68227  37.762  20.632  10.479
95803W        W68228  30.972  15.036  14.320
95804W        W68229  38.448   3.749   2.581
95805W        W68230  16.072  18.779  10.705
95806W        W68231  39.191  42.850   4.064
95807W        W68232  26.921   5.215  14.473
95808W        W68233   0.485  15.231  12.850
95809W        W68234  41.916  18.851   3.287
95810W        W68235  12.285  27.489   5.003
95811W        W68236  32.108  32.926   2.812
95812W        W68237  12.229  22.630  13.297
95813W        W68238  11.408   2.367  11.513
95814W        W68239  30.973  36.946  10.614
95815W        W68240  12.327  30.017  13.214
95816W        W68241  33.998  41.302   0.411
95817W        W68242   1.669  36.557   0.241
95818W        W68243  20.995   3.188  13.054
95819W        W68244  24.533  32.503   1.778
95820W        W68245  31.421  13.150   3.216
95821W        W68246  30.064  33.146   0.191
95822W        W68247  17.268   2.221  12.393
95823W        W68248   8.917  12.208  12.448
95824W        W68249  32.126  27.419  13.426
95825W        W68250  17.177  31.021   2.736
95826W        W68251   1.385   5.297   0.783
95827W        W68252  21.028  32.766   2.777
95828W        W68253  19.097  38.502   4.739
95829W        W68254  26.232  24.971   0.655
95830W        W68255   6.088  42.344   0.830
95831W        W68256   1.745  10.001  12.928
95832W        W68257  36.124  30.926   0.364
95833W        W68258  23.908   6.907  13.014
95834W        W68259  18.683  38.622  11.590
95835W        W68260  39.442  33.339   3.449
95836W        W68261   0.432  34.402  12.949
95837W        W68262   5.796  12.840  12.443
95838W        W68263  44.553  22.712  14.960
95839W        W68264  32.005  16.533  12.042
95840W        W68265  19.717  43.504  12.053
95841W        W68266  35.364  14.242   4.136
95842W        W68267  37.556  15.080   0.907
95843W        W68268  27.957  11.571   3.284
95844W        W68269  25.425  19.269  14.011
95845W        W68270   7.809  20.278   4.349
95846W        W68271  14.683   0.431  13.509
95847W        W68272  36.158  12.208  11.456
95848W        W68273  21.607  26.777  12.661
95849W        W68274  28.513  17.810  13.839
95850W        W68275  10.377   4.780  12.504
95851W        W68276  37.514  41.753   3.627
95852W        W68277   1.152  33.655   1.782
95853W        W68278  15.375  11.187  14.256
95854W        W68279  34.032  20.964  13.872
95855W        W68280  12.575  31.920   0.335
95856W        W68281  41.505  23.010  10.798
95857W        W68282   5.849  17.188  14.258
95858W        W68283  21.032  14.081  11.132
95859W        W68284  26.577  41.515   3.758
95860W        W68285  37.875   0.553   4.670
95861W        W68286  18.888  17.936  11.490
95862W        W68287   0.982   6.192   4.252
95863W        W68288  43.394  16.571   2.829
95864W        W68289  19.774  28.162  14.996
95865W        W68290  34.888  32.924  11.146
95866W        W68291  21.139  42.039   3.787
95867W        W68292  28.863  18.698   2.238
95868W        W68293  10.865   6.204  10.714
95869W        W68294  10.821  43.484  10.589
95870W        W68295   2.670   4.496  11.052
95871W        W68296  11.303   9.762  12.860
95872W        W68297   0.970  37.077  14.828
95873W        W68298  31.046  31.690   3.870
95874W        W68299  12.850  21.690   0.396
95875W        W68300  19.596   4.742   4.493
95876W        W68301  18.257  38.263   1.723
95877W        W68302  33.982  44.233   3.695
95878W        W68303  33.429   7.668  13.380
95879W        W68304  27.629   7.419  14.257
95880W        W68305  17.359  43.980  13.504
95881W        W68306  21.217  28.879  13.560
95882W        W68307   1.753  21.624   2.892
95883W        W68308  27.900  29.496   0.709
95884W        W68309  38.969  41.538  14.062
95885W        W68310  22.334  31.453   2.603
95886W        W68311  33.567   3.670   3.835
95887W        W68312  26.708   6.779  14.828
95888W        W68313  24.041   8.066  11.934
95889W        W68314  27.929   3.382   0.971
95890W        W68315  23.589   3.004  13.960
95891W        W68316  31.456  26.587  11.816
95892W        W68317  10.130  34.031  12.466
95893W        W68318  41.874   6.553   4.776
95894W        W68319  17.105  14.232  14.723
95895W        W68320  38.476  24.924  10.434
95896W        W68321  34.063  27.241  13.998
95897W        W68322  39.937  12.226  14.521
95898W        W68323  22.245  39.082   4.692
95899W        W68324  11.110  22.469   4.082
95900W        W68325  37.045  35.472  13.622
95901W        W68326  19.215  14.858  11.175
95902W        W68327  38.329  29.892   3.644
95903W        W68328   9.346  34.048  12.066
95904W        W68329  35.387  21.440   0.097
95905W        W68330  41.906   1.820  13.011
95906W        W68331  34.930  44.133  14.904
95907W        W68332  13.359   4.735  14.531
95908W        W68333  13.559  16.549   0.780
95909W        W68334  29.993  31.092   2.432
95910W        W68335  33.649  44.204  13.127
95911W        W68336   3.302  29.915  12.588
95912W        W68337  41.334  40.863  14.409
95913W        W68338  37.566  32.355   4.899
95914W        W68339  32.463  30.582  12.810
95915W        W68340   1.236  18.683  12.488
95916W        W68341  42.034  26.055   0.938
95917W        W68342  33.411  16.990  12.971
95918W        W68343  24.285  25.894   4.033
95919W        W68344  42.986  27.163  13.834
95920W        W68345  28.738  35.534   4.495
95921W        W68346   5.375  29.929  10.958
95922W        W68347  38.179   2.083   0.813
95923W        W68348  16.131  16.678  11.411
95924W        W68349  14.836  39.111   4.213
95925W        W68350  15.713  38.865  13.922
95926W        W68351  30.127  18.207   1.856
95927W        W68352  39.786  11.325   0.275
95928W        W68353  36.626  16.254  13.869
95929W        W68354  37.472  19.000  12.919
95930W        W68355  44.191  21.907   0.127
95931W        W68356  43.646  25.241  13.352
95932W        W68357  30.500  20.471   1.741
95933W        W68358  15.549   3.875  13.913
95934W        W68359  35.031  17.194  10.850
95935W        W68360  33.119  42.513   2.860
95936W        W68361  15.105  23.139   1.781
95937W        W68362  30.580  11.572   3.666
95938W        W68363   7.789  21.684   2.385
95939W        W68364  42.803   6.116   0.214
95940W        W68365  40.440  27.854  12.585
95941W        W68366  24.756  41.372   2.200
95942W        W68367  25.666   6.653  11.236
95943W        W68368  44.276   4.963  13.142
95944W        W68369  38.413  21.222  10.864
95945W        W68370  24.535   4.662   4.916
95946W        W68371  14.433  39.765   2.250
95947W        W68372  24.330  10.037   2.766
95948W        W68373  43.418  11.071  14.399
95949W        W68374  30.492  41.442  14.699
95950W        W68375  28.965  19.292  12.561
95951W        W68376   0.244  34.509  10.502
95952W        W68377   6.757  27.627   2.515
95953W        W68378  34.040  14.844  12.755
95954W        W68379  31.273   1.700  14.727
95955W        W68380   8.706  44.477  13.079
95956W        W68381  36.779  39.918   0.929
95957W        W68382  13.248  25.412   2.828
95958W        W68383   0.551  18.096   4.166
95959W        W68384   5.418   1.620   2.306
95960W        W68385  30.275   4.291   2.907
95961W        W68386  15.672   9.142   3.607
95962W        W68387  32.109  23.012   0.797
95963W        W68388   6.302  36.079   4.181
95964W        W68389  16.708  41.271  10.510
95965W        W68390  12.792  44.740  12.615
95966W        W68391  33.809  43.474   2.904
95967W        W68392  17.795  40.937  11.665
95968W        W68393  10.712  29.730  10.870
95969W        W68394   0.391  39.995   4.133
95970W        W68395  22.279   0.688   0.273
95971W        W68396   4.932  22.822   3.325
95972W        W68397  26.213  29.644  12.864
95973W        W68398   6.411  16.842   2.411
95974W        W68399  34.431  31.104   0.065
95975W        W68400  11.150  27.966   4.308
95976W        W68401  12.291  16.578  12.601
95977W        W68402   6.643  13.421   4.113
95978W        W68403  43.460  28.127   4.153
95979W        W68404  37.961  28.155   0.411
95980W        W68405   7.781  15.847  12.434
95981W        W68406  41.707   1.942  11.169
95982W        W68407  18.765  17.152  14.331
95983W        W68408  11.191  19.011  12.954
95984W        W68409   9.698  21.271   1.330
95985W        W68410   8.779  29.581   1.696
95986W        W68411  38.048  33.082  13.938
95987W        W68412  34.609  44.971   0.873
95988W        W68413  31.893  19.797   3.699
95989W        W68414  16.591  38.828  14.546
95990W        W68415  26.144  29.687   2.350
95991W        W68416  27.961  39.837   3.381
95992W        W68417  20.030  42.455   2.259
95993W        W68418  38.873  41.723   3.298
95994W        W68419  39.613  37.364  14.093
95995W        W68420  14.705   6.574  11.900
95996W        W68421  18.112  22.666   1.406
95997W        W68422  39.624  25.660   2.376
95998W        W68423  41.896  42.256   1.271
95999W        W68424  22.941  39.908   1.512
96000W        W68425  26.103   4.758   1.506
96001W        W68426   6.547  42.951  12.423
96002W        W68427  39.637  44.033  13.761
96003W        W68428  17.682  27.905  11.680
96004W        W68429  41.408  15.858  12.861
96005W        W68430   6.941  36.444  14.785
96006W        W68431   5.566  37.013   5.023
96007W        W68432  37.813  23.705  11.152
96008W        W68433  18.193  12.980   1.843
96009W        W68434   3.284  12.069   4.685
96010W        W68435   3.664  23.972  11.118
96011W        W68436  40.918   8.696   3.208
96012W        W68437  41.962  25.152   0.945
96013W        W68438  36.161  32.491  14.781
96014W        W68439   7.616  44.949   2.612
96015W        W68440  37.044   8.389  14.439
96016W        W68441  43.407  21.505   2.794
96017W        W68442   7.593   2.973   0.656
96018W        W68443  10.854  37.580   3.238
96019W        W68444   8.215  24.245   1.855
96020W        W68445   5.250  23.220   3.236
96021W        W68446  29.027  38.080   4.734
96022W        W68447   2.728  35.903   1.698
96023W        W68448  25.695  28.557  11.587
96024W        W68449  32.451   6.427  14.366
96025W        W68450  32.233  17.834   0.208
96026W        W68451  32.086  21.768   3.472
96027W        W68452  20.325  31.302  13.991
96028W        W68453  37.468   9.522   2.927
96029W        W68454  42.423  19.687  13.563
96030W        W68455   7.821   1.474   3.351
96031W        W68456  30.961  14.019   9.736
96032W        W68457  27.796  34.839  12.419
96033W        W68458  32.567  36.536  12.004
96034W        W68459  31.185  16.132   4.704
96035W        W68460  12.633  40.438   1.392
96036W        W68461  13.159  26.343   0.844
96037W        W68462  20.852   9.766   5.041
96038W        W68463  21.976  43.774  10.516
96039W        W68464  15.743  10.447  10.932
96040W        W68465   3.002  40.975   0.167
96041W        W68466   5.531  14.511   4.175
96042W        W68467  23.685   5.813  14.445
96043W        W68468  36.932  14.267   1.896
96044W        W68469  36.072  33.808   0.880
96045W        W68470  18.157  28.333   4.253
96046W        W68471  26.346  41.865  12.375
96047W        W68472  33.010  11.734  12.866
96048W        W68473  24.143  14.702   3.347
96049W        W68474   9.960   4.155   1.727
96050W        W68475  10.484   9.638  10.227
96051W        W68476  24.691   7.080  13.460
96052W        W68477  38.298   5.357   4.456
96053W        W68478  25.036  15.739   4.399
96054W        W68479  36.897  16.202   1.749
96055W        W68480  12.412  31.235  11.123
96056W        W68481  30.470  28.915  11.016
96057W        W68482  16.033   5.322  10.455
96058W        W68483  10.494   7.740  14.646
96059W        W68484  36.473   9.915  10.738
96060W        W68485  43.416  35.092   4.106
96061W        W68486  29.681  36.526   2.785
96062W        W68487  27.294  18.666  11.252
96063W        W68488  28.428  32.108   1.880
96064W        W68489  30.861   8.300  12.112
96065W        W68490  41.791   8.348   3.913
96066W        W68491  33.517  27.525  11.504
96067W        W68492   5.791  16.651   3.957
96068W        W68493  20.890  33.628  11.374
96069W        W68494  11.872  30.357   1.891
96070W        W68495  24.163   4.743  11.610
96071W        W68496  30.676  44.937   3.609
96072W        W68497  15.118  15.099  12.035
96073W        W68498  41.849   7.554   3.322
96074W        W68499  41.285  28.005   2.280
96075W        W68500  34.765  17.476  13.536
96076W        W68501  30.916   5.539  14.869
96077W        W68502  25.050  44.355  14.606
96078W        W68503   3.004  16.749  11.469
96079W        W68504  35.100  11.169   0.199
96080W        W68505  38.864  17.539   5.241
96081W        W68506  23.076  31.908  13.770
96082W        W68507  30.856  28.525  12.019
96083W        W68508   2.204  10.185  13.212
96084W        W68509  40.500  42.578   0.219
96085W        W68510  11.308  39.887  14.760
96086W        W68511  26.607   7.077   3.434
96087W        W68512  11.901  37.061  12.193
96088W        W68513  14.202  30.133   0.382
96089W        W68514  43.968  37.605   3.344
96090W        W68515   2.286   8.861   0.878
96091W        W68516  43.434  22.222  12.581
96092W        W68517  42.353  15.181  13.332
96093W        W68518  27.726   2.841  12.331
96094W        W68519  43.255   1.432  12.904
96095W        W68520   6.446  16.302  10.724
96096W        W68521  23.479  28.598  13.165
96097W        W68522  20.488  23.615   1.276
96098W        W68523  41.783  28.914  10.451
96099W        W68524   4.491  16.405   4.574
96100W        W68525  11.900  14.013   2.482
96101W        W68526  32.133   5.009   3.356
96102W        W68527   8.923  18.160  10.673
96103W        W68528  12.138  23.728   4.943
96104W        W68529   5.645  43.079  12.574
96105W        W68530   8.688  33.587   3.231
96106W        W68531  37.961  13.236   3.823
96107W        W68532  22.725  12.178   4.715
96108W        W68533  17.101  10.357   3.239
96109W        W68534  12.191  24.123  11.145
96110W        W68535  43.822  38.585   0.446
96111W        W68536   6.659   6.929  11.109
96112W        W68537   6.957  16.689  13.066
96113W        W68538  28.544  32.276  14.760
96114W        W68539   8.152  11.264  11.115
96115W        W68540   3.951  28.957   3.634
96116W        W68541   4.973  16.911   4.860
96117W        W68542  10.824   7.953  14.999
96118W        W68543  32.226  21.706   1.765
96119W        W68544  39.449  15.816   2.398
96120W        W68545  35.707  29.481  12.602
96121W        W68546  31.450  31.125  11.641
96122W        W68547  41.049  31.017  14.293
96123W        W68548  44.215  30.232   2.132
96124W        W68549  26.600   9.828  14.784
96125W        W68550  25.905  27.818   2.909
96126W        W68551  23.081  35.594   1.600
96127W        W68552   4.396  33.002   1.498
96128W        W68553  11.120  31.737   1.313
96129W        W68554  39.611  44.801  11.565
96130W        W68555  11.864   7.268   3.645
96131W        W68556  14.349  44.027   1.651
96132W        W68557   4.278  18.249   3.149
96133W        W68558  32.807  38.766   3.418
96134W        W68559   9.813   8.275   9.795
96135W        W68560  17.863  39.400   1.328
96136W        W68561  36.246  16.770  11.176
96137W        W68562   3.213  35.366   3.366
96138W        W68563  12.061   4.719  10.597
96139W        W68564  19.741  44.815   4.101
96140W        W68565  17.641  28.990   0.334
96141W        W68566  44.731  11.494  14.519
96142W        W68567  41.431   9.475  11.721
96143W        W68568  20.300  21.675   1.384
96144W        W68569   8.202  23.007  10.497
96145W        W68570   8.480  26.650  11.099
96146W        W68571  19.176  19.665  12.599
96147W        W68572  31.877   7.805   4.541
96148W        W68573  21.596  26.681   1.987
96149W        W68574  20.956  36.354   0.806
96150W        W68575  16.429  27.255   2.447
96151W        W68576  35.974  43.242  14.424
96152W        W68577  10.161  41.443   4.863
96153W        W68578  39.098  35.501  13.341
96154W        W68579  37.469  38.399   3.762
96155W        W68580  24.397  25.014  13.445
96156W        W68581  42.841  16.889  14.032
96157W        W68582   9.337  11.390   4.772
96158W        W68583  21.180  21.492  10.976
96159W        W68584  12.431  15.613  13.845
96160W        W68585  31.800  34.475  13.880
96161W        W68586  18.255  40.520   3.110
96162W        W68587  23.627  33.593  14.075
96163W        W68588  23.093  43.704  14.330
96164W        W68589  14.160  40.453  12.931
96165W        W68590   8.667  14.790  14.081
96166W        W68591   6.852  29.509  12.930
96167W        W68592  35.952  26.496  12.422
96168W        W68593  26.749  33.598  11.164
96169W        W68594  19.821   5.888  10.672
96170W        W68595  13.230   7.289  12.145
96171W        W68596  36.071  15.639   2.353
96172W        W68597  10.342  33.675   4.708
96173W        W68598   6.482  31.497  10.682
96174W        W68599  19.580   4.536  11.297
96175W        W68600   0.292  17.801  11.508
96176W        W68601  27.167  21.454   0.580
96177W        W68602  41.903  28.152  11.117
96178W        W68603  23.890  38.540  11.122
96179W        W68604  13.336  38.918  14.445
96180W        W68605  14.353   0.732   4.895
96181W        W68606   0.518   6.944  10.649
96182W        W68607  29.622  21.771  10.608
96183W        W68608  13.038  26.988   4.331
96184W        W68609  35.500  34.916  12.636
96185W        W68610  23.092  20.538  14.280
96186W        W68611   8.075   2.851   0.821
96187W        W68612  26.118   4.153   4.694
96188W        W68613  37.780   2.464  12.428
96189W        W68614  15.046   3.272   4.573
96190W        W68615  30.364  44.418   1.181
96191W        W68616  10.321  19.287  10.424
96192W        W68617   2.930  36.222   4.571
96193W        W68618   0.321   7.355   2.791
96194W        W68619  12.073   5.472   1.717
96195W        W68620  26.175   4.204   0.482
96196W        W68621  30.614  32.873  12.433
96197W        W68622  22.479  11.646  11.160
96198W        W68623   9.025  38.888   2.199
96199W        W68624  34.884  36.508  14.768
96200W        W68625  14.516  22.576   1.883
96201W        W68626  24.281  36.552   4.692
96202W        W68627   1.857  17.665   2.310
96203W        W68628  26.146  26.648   4.871
96204W        W68629  25.068  27.427   0.482
96205W        W68630  28.321  12.622  11.913
96206W        W68631  32.350   7.867   2.762
96207W        W68632   8.707  31.153   0.607
96208W        W68633   5.852  32.491   0.206
96209W        W68634   3.953  27.157   4.886
96210W        W68635  12.267  38.750  11.120
96211W        W68636  12.654   9.291   3.592
96212W        W68637  40.920  12.138   4.583
96213W        W68638   2.437  15.276   4.672
96214W        W68639   0.667  23.215  10.847
96215W        W68640   0.291  30.505  12.432
96216W        W68641  10.473  15.027  14.476
96217W        W68642  25.733  30.861  13.884
96218W        W68643  19.273  27.861   4.245
96219W        W68644  29.449   8.610   2.894
96220W        W68645   3.995  25.706  13.995
96221W        W68646  42.537  40.901   0.781
96222W        W68647  31.825  15.191   9.726
96223W        W68648  17.156  34.926  13.998
96224W        W68649  30.130  44.026   3.246
96225W        W68650   6.395   4.542  13.119
96226W        W68651  37.901  30.198  14.701
96227W        W68652  25.988  44.037   4.325
96228W        W68653  44.378   2.373   2.746
96229W        W68654  20.366  18.688  12.924
96230W        W68655  31.975  32.551   1.081
96231W        W68656  20.615  41.480  11.446
96232W        W68657  32.537   0.319  14.531
96233W        W68658  13.837  31.999  13.041
96234W        W68659  18.850  23.172   1.314
96235W        W68660   6.408  19.268   3.818
96236W        W68661  34.869  43.751   3.754
96237W        W68662  33.600  39.517  11.136
96238W        W68663  27.493  12.255   1.689
96239W        W68664  40.431  26.480   1.558
96240W        W68665  39.763  41.913  13.741
96241W        W68666   1.717  42.804  13.793
96242W        W68667   2.938  38.133  14.424
96243W        W68668  18.574   7.662  13.373
96244W        W68669  44.802  35.016   2.824
96245W        W68670   3.576   8.308   5.152
96246W        W68671  16.537  17.837   0.385
96247W        W68672  16.640  15.212   4.283
96248W        W68673   3.240  37.560  11.971
96249W        W68674  21.358  23.689  10.340
96250W        W68675  21.388  42.745  11.509
96251W        W68676  41.017  41.344  12.915
96252W        W68677   7.477  36.927   3.680
96253W        W68678  32.987  22.987  11.163
96254W        W68679  40.083  12.906   3.772
96255W        W68680  28.769  31.790   1.392
96256W        W68681   1.416  17.072   0.771
96257W        W68682  14.042  34.449  10.826
96258W        W68683  32.228  10.608  13.560
96259W        W68684  21.003   5.828   1.598
96260W        W68685  31.621   2.888  14.879
96261W        W68686  28.917  29.931  12.154
96262W        W68687  37.987  43.979  13.908
96263W        W68688  12.137   9.683  14.845
96264W        W68689  38.537  21.684   2.877
96265W        W68690   8.834  41.908  13.599
96266W        W68691   8.181  22.740  14.287
96267W        W68692  23.914  23.802   0.457
96268W        W68693  15.563   0.980  10.186
96269W        W68694  24.060   8.223  12.421
96270W        W68695  32.828  33.662   1.274
96271W        W68696  43.282  35.914  12.563
96272W        W68697  28.144  39.327   1.330
96273W        W68698  41.807   2.301   3.288
96274W        W68699  12.234   1.713   0.315
96275W        W68700  32.482  41.799   4.585
96276W        W68701  41.629  32.532   2.240
96277W        W68702   8.879  19.528  10.238
96278W        W68703  14.790   7.238   0.544
96279W        W68704  32.603  42.241   2.182
96280W        W68705  16.239  20.006   3.522
96281W        W68706  19.180  12.375  12.026
96282W        W68707  43.740  22.464   4.150
96283W        W68708  27.061  12.992  13.392
96284W        W68709  36.032  23.561  12.636
96285W        W68710  13.965  22.973   0.377
96286W        W68711  34.009   4.395   1.740
96287W        W68712   5.317   5.920  11.519
96288W        W68713  17.779  13.120  12.950
96289W        W68714  26.282  41.270   4.120
96290W        W68715  24.289  18.065  11.916
96291W        W68716   2.799  44.693  14.388
96292W        W68717  43.980  15.113   2.593
96293W        W68718  17.625  32.926   4.049
96294W        W68719   8.051   4.624   2.336
96295W        W68720  11.308  44.671  12.909
96296W        W68721  29.150  42.362   0.376
96297W        W68722  18.688  40.429   3.377
96298W        W68723  34.576  31.476  11.556
96299W        W68724  40.928   9.063   1.848
96300W        W68725  26.881  33.765   0.339
96301W        W68726  23.176  20.349   0.995
96302W        W68727   5.993   9.183   3.892
96303W        W68728  16.405  43.137  12.068
96304W        W68729  23.717  34.351   4.377
96305W        W68730  29.642  11.554   3.602
96306W        W68731  38.108   6.101  11.080
96307W        W68732  18.887  18.703   0.293
96308W        W68733   2.572  31.109   2.401
96309W        W68734  33.144  13.362  10.378
96310W        W68735  38.237  19.283  14.926
96311W        W68736  34.174  41.230  13.424
96312W        W68737  39.335  23.202  13.683
96313W        W68738  27.573  24.529   1.683
96314W        W68739  21.726  18.003  12.162
96315W        W68740  40.931  34.519   1.129
96316W        W68741  43.356  23.653  13.528
96317W        W68742  15.956   4.875   0.579
96318W        W68743   0.440  23.319   0.753
96319W        W68744  44.185   8.362  12.682
96320W        W68745  23.263  43.272  10.716
96321W        W68746   0.153  26.917   3.524
96322W        W68747  22.228  19.161  10.607
96323W        W68748  20.106  10.086  12.630
96324W        W68749  23.682  12.334  13.324
96325W        W68750  27.274  34.379   3.404
96326W        W68751   0.766  10.787  14.439
96327W        W68752  19.764  34.970   5.122
96328W        W68753  23.707  32.143   3.401
96329W        W68754  18.138  44.938  14.093
96330W        W68755  35.977  14.561  12.717
96331W        W68756   4.299  38.573  10.671
96332W        W68757  37.946  28.064   1.951
96333W        W68758  14.623  39.917   1.167
96334W        W68759   3.047  12.557  13.019
96335W        W68760  42.712  28.934  10.777
96336W        W68761  27.039  24.652   4.916
96337W        W68762  13.278   8.805   4.956
96338W        W68763  13.538  39.414   2.352
96339W        W68764  16.568  19.521   3.199
96340W        W68765   4.431  37.766   1.252
96341W        W68766  44.551  40.411  14.353
96342W        W68767   1.333   7.357   1.171
96343W        W68768  16.387  26.208  13.555
96344W        W68769   3.681   0.307  11.136
96345W        W68770  41.073  11.114  14.450
96346W        W68771   6.316   4.438  14.459
96347W        W68772   7.930  37.209   5.480
96348W        W68773  12.074  23.986   2.908
96349W        W68774  23.014  28.754  14.029
96350W        W68775   7.328  24.597   0.697
96351W        W68776  28.354  34.052  13.739
96352W        W68777  30.860  26.071  14.901
96353W        W68778  12.152  19.042  11.169
96354W        W68779  14.601  42.387   2.825
96355W        W68780   3.127  30.947   0.471
96356W        W68781   1.906  27.400   1.507
96357W        W68782   1.698  31.495   2.328
96358W        W68783  15.282  40.912   0.071
96359W        W68784  23.061  23.967   1.712
96360W        W68785  44.174  35.099   4.017
96361W        W68786  11.165   9.816   2.317
96362W        W68787  18.659   9.280   0.026
96363W        W68788   7.571  40.344  12.957
96364W        W68789  12.947  35.241  14.420
96365W        W68790   7.415  43.286   3.227
96366W        W68791  14.874  40.467  13.466
96367W        W68792  43.973  43.195   3.228
96368W        W68793   7.771  27.393   3.670
96369W        W68794  42.375  42.654  11.549
96370W        W68795  18.834  32.158   4.172
96371W        W68796  11.113  17.658  13.523
96372W        W68797  34.934  16.690  12.115
96373W        W68798   3.295   1.048  11.668
96374W        W68799   1.616  44.076   0.265
96375W        W68800  17.564  38.131  11.951
96376W        W68801  18.798  10.714   3.658
96377W        W68802  22.880   9.271  11.922
96378W        W68803   5.257   4.452  11.571
96379W        W68804  31.209   3.306  14.066
96380W        W68805  28.893  21.143   4.597
96381W        W68806   0.242  18.612   0.459
96382W        W68807   2.170  34.920   0.793
96383W        W68808  16.326   4.685  12.629
96384W        W68809  29.368   2.797  12.819
96385W        W68810  27.947   4.321   0.909
96386W        W68811  16.852  22.689   3.689
96387W        W68812  21.034  38.383  14.492
96388W        W68813  20.663   5.006  12.054
96389W        W68814   4.295  33.884   0.716
96390W        W68815  37.496  27.454   3.826
96391W        W68816  30.503  33.501  11.766
96392W        W68817   3.344   5.753  11.478
96393W        W68818   9.457  40.030  13.898
96394W        W68819  18.092  17.675   4.073
96395W        W68820  39.829  25.549   4.575
96396W        W68821  12.772  11.713  11.732
96397W        W68822  11.787  43.484  11.750
96398W        W68823  37.054  13.661  14.440
96399W        W68824  35.264  37.049   4.244
96400W        W68825  24.547   3.797  11.142
96401W        W68826  32.375  15.215  14.555
96402W        W68827  20.320  37.956   3.960
96403W        W68828  35.970  28.207  12.059
96404W        W68829   2.884  27.015   0.182
96405W        W68830  41.727  43.251  14.747
96406W        W68831  26.887  31.324   3.711
96407W        W68832  26.266  37.120  11.178
96408W        W68833   7.879  20.132   1.844
96409W        W68834  14.673  26.019   3.533
96410W        W68835  15.246  17.737   1.281
96411W        W68836  21.696   8.113   2.649
96412W        W68837  23.760  34.467  11.595
96413W        W68838  41.432  27.788   3.687
96414W        W68839   3.430   7.224   3.409
96415W        W68840   8.930  11.254  11.548
96416W        W68841  29.516  32.574  11.306
96417W        W68842  34.816  14.164  12.434
96418W        W68843  33.523  33.377   1.306
96419W        W68844  42.530  14.062   3.271
96420W        W68845   3.981   2.346   0.914
96421W        W68846  26.682   5.323   0.445
96422W        W68847   8.352  28.953   0.684
96423W        W68848  25.805  23.189  12.464
96424W        W68849  44.814  28.468  12.086
96425W        W68850  17.565   8.422  14.767
96426W        W68851  44.962  39.339   4.774
96427W        W68852  16.965   0.407   0.502
96428W        W68853  25.897  23.640  13.546
96429W        W68854  32.386   3.021  11.180
96430W        W68855  42.912  36.729   2.771
96431W        W68856  30.332   0.197  11.275
96432W        W68857   6.174  14.987  11.947
96433W        W68858  16.825  26.346   2.297
96434W        W68859   4.717  36.275  13.472
96435W        W68860  16.034  25.823  13.527
96436W        W68861  18.375  34.009  13.561
96437W        W68862  36.954  14.225  12.480
96438W        W68863  38.497  11.873  10.588
96439W        W68864  35.644  40.003  11.384
96440W        W68865  34.184  26.957  13.035
96441W        W68866  11.424   1.516  14.574
96442W        W68867  40.528  42.136   2.193
96443W        W68868  26.036  33.613   0.786
96444W        W68869  25.063  44.912   4.501
96445W        W68870  38.834  37.055  13.747
96446W        W68871   9.269  21.208   2.788
96447W        W68872  40.824  38.882  12.495
96448W        W68873  43.980  28.513   2.283
96449W        W68874  34.449  22.741   3.290
96450W        W68875   4.999  21.624   1.679
96451W        W68876  11.750  41.474   1.354
96452W        W68877  12.488  42.751  11.680
96453W        W68878  20.733   0.343   1.709
96454W        W68879  37.425  19.896  11.643
96455W        W68880  36.655   5.397   1.504
96456W        W68881  44.384  23.022  11.629
96457W        W68882  38.307   8.680  14.033
96458W        W68883  40.925  17.962  12.411
96459W        W68884   4.391  30.474  13.838
96460W        W68885   0.437  10.744  10.988
96461W        W68886  40.356  43.020   1.379
96462W        W68887   9.756  41.370   1.820
96463W        W68888  34.992  14.294  10.563
96464W        W68889  16.191   9.188  13.525
96465W        W68890  32.176  30.769   3.186
96466W        W68891  43.926  42.972   2.775
96467W        W68892  16.192  38.435  14.451
96468W        W68893  29.259  21.862  13.571
96469W        W68894  28.549   3.487   4.530
96470W        W68895  28.622   7.604  11.110
96471W        W68896  20.669  35.920  12.434
96472W        W68897  39.384  11.328  12.604
96473W        W68898  37.981  29.132   2.751
96474W        W68899  32.134   8.732  12.557
96475W        W68900  19.609  41.386  13.749
96476W        W68901  18.053  34.453   4.677
96477W        W68902  40.990  15.481  14.155
96478W        W68903  39.879  44.373  11.535
96479W        W68904  16.800  40.345   0.332
96480W        W68905   7.042  11.648  11.355
96481W        W68906   9.476  33.466  14.944
96482W        W68907  35.090  21.010  12.558
96483W        W68908  40.841  40.641  13.274
96484W        W68909  15.185  22.776   3.169
96485W        W68910  40.319  33.576  14.690
96486W        W68911  17.682  34.072   3.085
96487W        W68912  38.856  38.916   2.733
96488W        W68913  23.760  29.502   3.194
96489W        W68914  24.499  31.238  12.573
96490W        W68915  42.395  23.218   4.901
96491W        W68916   3.444   0.344   2.795
96492W        W68917  18.634  16.274  12.461
96493W        W68918  31.639   8.902   2.326
96494W        W68919  21.159  23.244   2.898
96495W        W68920  15.240  22.350  12.442
96496W        W68921  11.195  10.507  11.113
96497W        W68922  21.851   9.690  13.464
96498W        W68923  30.547   9.118  14.405
96499W        W68924  40.522  14.966   2.675
96500W        W68925  22.307  33.184  12.829
96501W        W68926  18.056  14.219  11.607
96502W        W68927  19.261   3.708   1.270
96503W        W68928  30.112  20.249   0.822
96504W        W68929  22.647   4.875   4.018
96505W        W68930  33.918  23.393   4.054
96506W        W68931  21.950  38.470  14.364
96507W        W68932  39.777  28.270   2.890
96508W        W68933  32.469  21.786   3.137
96509W        W68934  32.103   7.661  13.403
96510W        W68935  33.573  29.261  12.020
96511W        W68936  19.419  18.336   3.543
96512W        W68937  21.066  26.655   5.051
96513W        W68938  33.420  20.094   5.082
96514W        W68939  14.155  11.305   2.659
96515W        W68940  18.774  12.059   2.602
96516W        W68941  30.075  43.339  14.015
96517W        W68942  20.982  13.234  10.126
96518W        W68943  35.063   8.257   0.267
96519W        W68944  25.603  10.241  12.368
96520W        W68945  30.676  43.816  14.391
96521W        W68946  27.437   2.417  14.894
96522W        W68947  32.073  21.516  13.935
96523W        W68948   2.249  24.036  13.540
96524W        W68949   3.907  30.382  13.026
96525W        W68950  36.927   4.570   3.704
96526W        W68951  31.463  21.063   0.400
96527W        W68952  33.457   8.951  13.701
96528W        W68953   7.796   3.650  14.315
96529W        W68954  24.466  10.754   1.904
96530W        W68955  26.899   1.039   0.314
96531W        W68956  25.034  35.966   4.709
96532W        W68957  34.122  32.978  12.012
96533W        W68958  21.642   5.221   1.354
96534W        W68959  18.111  13.474   0.241
96535W        W68960  39.079  23.693  12.018
96536W        W68961   8.798   8.678   1.012
96537W        W68962  36.346  15.185  14.896
96538W        W68963  12.094  27.620   0.299
96539W        W68964  21.693  35.374   3.721
96540W        W68965   3.520  24.461  11.122
96541W        W68966   1.945  32.012   4.056
96542W        W68967   5.701   4.939   4.248
96543W        W68968  43.755  12.535  11.582
96544W        W68969  32.965  32.636  12.441
96545W        W68970  25.029   3.998   1.344
96546W        W68971  10.675  16.207  11.149
96547W        W68972  42.418   4.129   4.883
96548W        W68973  19.336  22.536  12.085
96549W        W68974  15.594  23.322   1.162
96550W        W68975  29.792  39.553   0.483
96551W        W68976  33.009  11.252  12.606
96552W        W68977  18.065  32.139  11.306
96553W        W68978   8.523   1.992  11.138
96554W        W68979  16.693  27.183  10.658
96555W        W68980  29.420   6.172   0.407
96556W        W68981  37.172  11.696   0.758
96557W        W68982   0.743  26.512  11.094
96558W        W68983  28.417  35.024   2.814
96559W        W68984  16.681  37.157  14.352
96560W        W68985  21.455  11.901  12.045
96561W        W68986  31.399  36.119  10.666
96562W        W68987   4.780  13.598   2.036
96563W        W68988  25.151  41.103   2.613
96564W        W68989  28.925   9.783  12.257
96565W        W68990  21.743  28.014  11.401
96566W        W68991  19.295   1.305   1.156
96567W        W68992  14.617  10.161  14.652
96568W        W68993  33.477  12.332  11.924
96569W        W68994  13.037  26.195   1.757
96570W        W68995  13.491   5.202  14.411
96571W        W68996  14.147   4.313  11.431
96572W        W68997  26.789  22.836   3.237
96573W        W68998  42.345  44.473   1.119
96574W        W68999  24.368  37.135  13.026
96575W        W69000  41.904  23.726  14.126
96576W        W69001  43.178  41.336   4.218
96577W        W69002  16.224  35.639   2.691
96578W        W69003  15.561  43.779   2.217
96579W        W69004  31.376  18.218   2.887
96580W        W69005  12.122  20.507   4.622
96581W        W69006  17.752   0.442  10.109
96582W        W69007  42.456  26.726  14.461
96583W        W69008  21.107  34.944  11.357
96584W        W69009  34.066  25.746   1.391
96585W        W69010   4.492  24.233   0.036
96586W        W69011  10.307   5.087   2.147
96587W        W69012  44.995  32.904  13.341
96588W        W69013   3.986  28.356  12.318
96589W        W69014  27.950  20.749   1.878
96590W        W69015  15.117  19.510   3.920
96591W        W69016  28.662   7.821  11.591
96592W        W69017   1.931  30.363   3.891
96593W        W69018  33.822  39.822  10.549
96594W        W69019  36.929  19.965   4.925
96595W        W69020  33.193  16.318   3.836
96596W        W69021  39.375   3.660  13.423
96597W        W69022  44.018  33.461   2.366
96598W        W69023  18.687  32.596   9.841
96599W        W69024  11.166   5.878   2.554
96600W        W69025  17.257  36.887  12.490
96601W        W69026  27.111  24.713   3.880
96602W        W69027   7.883   3.149  14.394
96603W        W69028  40.623  30.006   1.951
96604W        W69029  39.798  20.795  10.434
96605W        W69030  17.280  35.355   4.053
96606W        W69031   0.000  13.975   1.926
96607W        W69032   9.291  43.850  11.681
96608W        W69033  38.819  40.524   2.399
96609W        W69034  11.387  26.157   3.095
96610W        W69035  32.822  20.057  12.762
96611W        W69036   4.838  22.741  14.701
96612W        W69037   2.903  16.324   0.647
96613W        W69038  26.660   9.223  12.994
96614W        W69039  35.613  32.681  11.580
96615W        W69040  21.073  25.712  13.497
96616W        W69041  24.395  33.557   3.235
96617W        W69042   3.271  29.620  10.794
96618W        W69043  16.822  34.634   3.003
96619W        W69044  31.439  26.701  13.468
96620W        W69045   4.429  24.074   2.545
96621W        W69046  43.151  14.236  11.644
96622W        W69047  32.441  23.314   1.073
96623W        W69048   2.719   0.867   3.897
96624W        W69049   1.646  17.514  10.660
96625W        W69050  20.597  43.440   3.242
96626W        W69051  14.111  27.257   0.518
96627W        W69052  27.740  34.688  14.451
96628W        W69053   0.879  16.779  14.730
96629W        W69054  31.590  30.936  14.528
96630W        W69055   5.774  24.726  13.810
96631W        W69056  34.122  27.216  12.499
96632W        W69057  18.811  26.638  13.397
96633W        W69058  44.037  15.215   4.038
96634W        W69059   3.874  22.069  13.027
96635W        W69060  23.862  35.341  13.851
96636W        W69061  12.368  44.737   4.234
96637W        W69062   4.940   2.741   3.590
96638W        W69063  29.739  12.858  11.932
96639W        W69064  22.556  14.765  10.463
96640W        W69065  10.820   4.441   1.492
96641W        W69066  23.065   6.926   1.350
96642W        W69067  25.286   2.869   4.868
96643W        W69068  13.796  24.597  13.902
96644W        W69069  44.917  40.856  14.898
96645W        W69070  22.539  16.563   4.165
96646W        W69071  27.670   4.945   9.954
96647W        W69072  37.952  42.368   3.248
96648W        W69073  16.699  35.422  12.046
96649W        W69074  31.517  43.378  11.959
96650W        W69075  43.422   1.933   4.129
96651W        W69076  14.569  39.542   4.404
96652W        W69077  37.530  32.944  14.056
96653W        W69078   9.672  37.062  13.131
96654W        W69079  19.569  10.230   1.310
96655W        W69080  18.783  43.869  12.299
96656W        W69081   3.944  35.740  10.921
96657W        W69082  31.062  10.837   3.717
96658W        W69083   2.997  14.130   0.726
96659W        W69084  31.083  33.416  14.007
96660W        W69085   3.769  34.958   2.190
96661W        W69086  14.078  24.395   0.335
96662W        W69087  41.908   7.941   1.283
96663W        W69088  43.956  34.429   3.284
96664W        W69089  43.404  13.093   3.842
96665W        W69090   2.601  31.624  14.820
96666W        W69091  19.558  42.733  13.961
96667W        W69092  38.095  13.890  13.723
96668W        W69093  38.343  44.452  13.459
96669W        W69094  42.924  31.472  13.870
96670W        W69095  36.522  16.126  10.631
96671W        W69096   0.339  20.286  11.696
96672W        W69097  34.218   1.663  12.064
96673W        W69098  32.553  13.102   3.589
96674W        W69099  38.609  18.182  13.118
96675W        W69100  29.867   4.800   0.378
96676W        W69101  29.132   4.670  14.928
96677W        W69102   3.448  36.124  13.414
96678W        W69103   9.733  20.105  14.963
96679W        W69104  14.305  35.226  12.143
96680W        W69105  44.582  25.661  13.885
96681W        W69106  26.062  43.018   4.309
96682W        W69107  39.984  21.595   4.322
96683W        W69108  18.836  14.469  12.642
96684W        W69109  43.181   1.284   1.727
96685W        W69110  22.227  25.253   2.149
96686W        W69111  29.933  14.350  11.545
96687W        W69112   3.809   5.129  10.367
96688W        W69113  26.154   4.405  12.940
96689W        W69114  17.267  36.856  11.975
96690W        W69115   3.155  43.355  13.219
96691W        W69116  16.874  25.435   3.420
96692W        W69117  15.117  38.955  10.573
96693W        W69118  17.284  28.866  14.968
96694W        W69119   3.975  42.410  13.870
96695W        W69120  21.797  22.527   4.733
96696W        W69121  12.225   8.677   3.274
96697W        W69122  39.663  10.181   2.129
96698W        W69123  42.631   4.057  12.903
96699W        W69124   1.432   2.478  11.655
96700W        W69125  30.617  30.870   0.595
96701W        W69126  24.255  28.907  12.336
96702W        W69127   7.200  30.509   2.297
96703W        W69128  40.509  37.605  11.673
96704W        W69129  33.171  24.055   2.712
96705W        W69130  43.834   9.029   0.758
96706W        W69131   6.239  24.759   0.425
96707W        W69132  22.033  18.708  11.728
96708W        W69133  38.434   7.651   4.665
96709W        W69134  29.956  40.748   3.782
96710W        W69135   8.980  42.997  12.065
96711W        W69136   7.648  11.611  12.273
96712W        W69137  33.904  36.325  12.831
96713W        W69138  35.824  29.053   1.607
96714W        W69139  14.810  11.748  11.536
96715W        W69140  11.057  34.632  12.883
96716W        W69141   9.702  36.683  14.866
96717W        W69142   9.368  16.541  14.144
96718W        W69143  26.626  23.847  14.742
96719W        W69144  32.863  39.792  10.690
96720W        W69145  22.903  28.533   3.444
96721W        W69146  12.727  17.714  13.982
96722W        W69147  15.228  44.721  10.578
96723W        W69148  28.369   6.202  12.084
96724W        W69149  43.457  26.602   3.242
96725W        W69150  42.785  43.668  14.476
96726W        W69151  12.635   9.578  14.874
96727W        W69152   7.573  24.034  12.095
96728W        W69153  15.812  33.404   1.778
96729W        W69154  24.645   9.739  11.557
96730W        W69155  30.909  27.604   1.340
96731W        W69156  19.701   4.602   3.582
96732W        W69157  16.261  44.335   9.841
96733W        W69158  41.797  44.217  14.732
96734W        W69159   5.415  12.984   4.184
96735W        W69160  20.721  32.302   0.383
96736W        W69161  28.210  23.915   2.694
96737W        W69162  23.840   5.030  14.761
96738W        W69163  14.143   8.690  14.250
96739W        W69164  27.985   0.273  12.831
96740W        W69165  26.632  26.156   2.354
96741W        W69166  26.928   4.239   2.272
96742W        W69167  35.045   2.652   4.741
96743W        W69168  38.047  20.221   0.450
96744W        W69169   4.646  32.951   4.091
96745W        W69170  42.450  42.095   2.074
96746W        W69171  12.218  23.005  10.952
96747W        W69172  24.062  28.495  12.057
96748W        W69173  24.096   1.991  12.144
96749W        W69174  21.881  14.076  10.546
96750W        W69175   2.956  40.364   2.743
96751W        W69176   0.385  42.735   4.836
96752W        W69177  35.312  13.285  12.565
96753W        W69178   4.200   0.820   2.771
96754W        W69179   4.478  30.207   1.432
96755W        W69180  29.359   0.074   2.928
96756W        W69181   0.045   7.332   4.004
96757W        W69182  13.309  40.925  12.167
96758W        W69183  37.209  25.197  14.423
96759W        W69184  19.939   1.253  11.389
96760W        W69185  15.124  37.054   1.464
96761W        W69186   7.594  11.241  10.175
96762W        W69187  31.405  42.388  11.872
96763W        W69188  41.350  27.409  13.522
96764W        W69189  20.486  43.894   0.357
96765W        W69190  35.152  23.881   4.679
96766W        W69191  19.530  18.235  10.777
96767W        W69192  27.099  12.754  11.998
96768W        W69193  32.992  14.335  13.580
96769W        W69194  12.283  25.990  14.528
96770W        W69195   4.223  24.779   1.446
96771W        W69196  23.524  14.092   2.821
96772W        W69197  22.585  25.026  13.119
96773W        W69198  26.527  41.407  12.589
96774W        W69199  25.263  24.569   4.190
96775W        W69200   4.241  29.951   1.822
96776W        W69201  27.005   8.452   1.261
96777W        W69202  14.781  36.975   4.335
96778W        W69203  37.811   7.388  12.870
96779W        W69204   9.055   9.784  11.343
96780W        W69205  43.035  35.607  12.257
96781W        W69206  16.787  24.698   1.017
96782W        W69207  36.585  25.105  12.111
96783W        W69208  28.635   2.038   4.669
96784W        W69209  13.131  27.992   4.211
96785W        W69210  13.851  10.613   3.637
96786W        W69211   3.864  38.118  13.447
96787W        W69212   3.406   2.280  14.423
96788W        W69213  34.143  32.117   0.329
96789W        W69214   2.695  24.038   3.691
96790W        W69215  33.652   4.789   0.708
96791W        W69216   7.878   8.306  14.376
96792W        W69217  24.693  23.484  11.531
96793W        W69218  24.641  31.145   4.174
96794W        W69219  11.707  40.573   1.076
96795W        W69220  26.820  44.170  12.014
96796W        W69221   4.728  28.056  11.120
96797W        W69222  44.483   3.648   0.375
96798W        W69223  20.997  14.278  13.505
96799W        W69224  11.183   2.500   0.925
96800W        W69225  32.046  10.958  12.089
96801W        W69226   3.899  41.141  14.879
96802W        W69227  11.385   6.737   0.246
96803W        W69228  24.640   9.060   4.217
96804W        W69229   7.358  20.747   1.484
96805W        W69230  36.817  37.611   3.077
96806W        W69231   1.805  36.350  10.986
96807W        W69232  24.246  27.608  14.348
96808W        W69233  32.147  10.688  12.542
96809W        W69234  26.152  27.206   4.850
96810W        W69235   4.830   1.377  14.315
96811W        W69236  11.937  30.609   4.228
96812W        W69237  32.459  26.633  10.734
96813W        W69238   9.878  35.616  11.235
96814W        W69239   7.721   7.946  12.996
96815W        W69240   2.144   2.167  14.294
96816W        W69241  28.434  14.697   1.012
96817W        W69242  16.573  44.274  12.640
96818W        W69243   4.754  10.771  14.209
96819W        W69244   4.234  26.204  12.624
96820W        W69245  23.064  10.145   3.011
96821W        W69246  38.036  13.530   0.243
96822W        W69247  31.174   7.061   3.297
96823W        W69248  41.006  30.634   0.430
96824W        W69249  19.643  38.025   3.306
96825W        W69250  10.725  26.703  10.548
96826W        W69251  21.105  27.691  12.627
96827W        W69252  20.088  35.277   1.993
96828W        W69253  34.680   0.861   2.647
96829W        W69254  26.403  10.649   2.130
96830W        W69255  36.106  44.956   0.833
96831W        W69256  20.676  22.584   3.244
96832W        W69257  36.014  10.954   3.772
96833W        W69258   8.989  18.555  13.410
96834W        W69259  20.526  42.347   1.302
96835W        W69260   9.039  22.658  13.281
96836W        W69261   4.959  27.461   3.559
96837W        W69262   1.755  40.877   0.829
96838W        W69263  43.428  13.953   4.992
96839W        W69264  39.756  22.205   4.023
96840W        W69265   6.143   9.162   1.744
96841W        W69266   9.675  11.128   4.004
96842W        W69267  29.001  42.526   1.287
96843W        W69268  15.118  16.319   4.049
96844W        W69269  33.699  11.703   1.685
96845W        W69270  33.091  18.677  13.095
96846W        W69271  42.271  40.885  14.390
96847W        W69272  16.727  31.916  14.527
96848W        W69273  44.348   0.220   9.965
96849W        W69274  33.943   7.712  12.117
96850W        W69275  11.220  18.826  13.903
96851W        W69276  22.543   0.170  14.489
96852W        W69277   8.906  35.159  14.398
96853W        W69278  15.721   0.375   5.417
96854W        W69279  42.877  15.539   2.880
96855W        W69280  23.672  16.670  11.423
96856W        W69281   3.108  23.525  10.108
96857W        W69282  25.706  28.684   2.839
96858W        W69283   6.372  33.827   3.758
96859W        W69284  15.464  13.415   0.873
96860W        W69285  37.480  18.281   5.173
96861W        W69286  37.821  40.047   1.669
96862W        W69287  39.165  31.769  13.986
96863W        W69288  26.978   1.237  14.314
96864W        W69289  38.432   0.621   3.421
96865W        W69290  29.093  24.086  10.960
96866W        W69291   0.772  24.230   2.007
96867W        W69292  10.081  33.893  10.666
96868W        W69293  34.430  43.350  11.064
96869W        W69294  39.048  26.177  12.390
96870W        W69295   0.177  43.619  13.563
96871W        W69296  29.708  23.747  14.931
96872W        W69297  36.520  30.341  10.864
96873W        W69298   7.188  28.016   4.559
96874W        W69299  13.941  42.383   0.034
96875W        W69300   5.277  42.250  10.781
96876W        W69301  27.903   6.379  11.935
96877W        W69302  31.688  41.494   3.337
96878W        W69303   3.483   7.482   1.400
96879W        W69304  37.833  39.020  11.098
96880W        W69305   9.300   8.466   9.832
96881W        W69306  37.033  43.021  11.061
96882W        W69307  43.941  30.186   1.640
96883W        W69308  24.132  15.163  12.558
96884W        W69309  34.164  37.462   0.402
96885W        W69310  26.420  44.409  13.348
96886W        W69311  13.589  29.533   3.917
96887W        W69312  11.345  41.226   2.429
96888W        W69313  16.770  27.775   1.550
96889W        W69314  10.964  32.665   4.253
96890W        W69315  10.061   2.145   0.115
96891W        W69316   9.413  10.143  14.320
96892W        W69317   4.612  38.063  13.006
96893W        W69318  12.468   9.422  12.230
96894W        W69319  41.789  27.501  13.789
96895W        W69320  15.274  12.937   0.940
96896W        W69321  12.787  34.120  13.761
96897W        W69322   8.276  11.582  14.425
96898W        W69323  43.543  42.249  14.773
96899W        W69324   6.374  10.706   0.774
96900W        W69325  37.587  28.605  14.419
96901W        W69326  34.409   7.761   4.679
96902W        W69327  32.046  24.098   0.484
96903W        W69328   6.652  30.571  11.766
96904W        W69329   0.416   7.883  14.490
96905W        W69330  40.909  15.168   2.406
96906W        W69331  27.941  42.591  13.617
96907W        W69332  32.012  23.221   1.357
96908W        W69333  14.092  26.080  14.842
96909W        W69334  40.166  24.906  13.142
96910W        W69335  39.567  16.543   4.097
96911W        W69336  15.108  18.812  11.771
96912W        W69337  39.801  33.578   1.890
96913W        W69338  32.965  39.976  12.479
96914W        W69339  15.347  36.877  10.445
96915W        W69340  29.079  40.202   1.565
96916W        W69341  13.311  33.571  14.471
96917W        W69342   7.424   7.365   0.959
96918W        W69343  39.010  40.241   0.502
96919W        W69344  42.937  17.544   3.637
96920W        W69345  30.990   1.912  10.281
96921W        W69346  44.795  33.543  10.665
96922W        W69347   7.961   8.252   0.817
96923W        W69348  31.606  41.609  12.152
96924W        W69349  13.097  39.489   0.821
96925W        W69350  22.172  29.193  14.272
96926W        W69351  43.755  27.798  14.360
96927W        W69352  44.877  33.056  10.758
96928W        W69353  11.418  30.943  14.812
96929W        W69354  28.985  36.388   4.614
96930W        W69355   9.882  10.770   2.726
96931W        W69356   1.507  18.881  10.842
96932W        W69357  42.879  41.731  13.262
96933W        W69358   8.126  20.558  14.457
96934W        W69359   9.277   6.504   2.293
96935W        W69360   2.550  30.122   3.251
96936W        W69361   1.484  18.478   0.894
96937W        W69362  37.540  10.933   4.118
96938W        W69363  27.109  31.384   0.293
96939W        W69364   1.697  31.058   0.407
96940W        W69365  27.059  14.219   4.650
96941W        W69366  31.860  33.614  11.395
96942W        W69367  41.135  21.030   3.182
96943W        W69368  12.259  26.993   2.821
96944W        W69369  33.055  34.506  12.898
96945W        W69370  17.139  24.163  13.358
96946W        W69371   7.805  42.723  14.664
96947W        W69372  31.842  32.580   1.568
96948W        W69373  10.730  31.925   1.920
96949W        W69374   3.139  38.004  13.961
96950W        W69375   8.286   5.069  12.428
96951W        W69376  23.153  26.017  10.949
96952W        W69377   1.306  39.266   4.010
96953W        W69378  39.229  37.897  12.529
96954W        W69379  34.360  33.407  10.642
96955W        W69380  28.139  26.759  11.497
96956W        W69381  24.643  44.010  14.928
96957W        W69382   0.620  29.265   0.495
96958W        W69383  44.541  39.001  11.933
96959W        W69384  21.284  10.358   0.949
96960W        W69385  36.589  14.565   0.709
96961W        W69386  33.360  15.595  11.583
96962W        W69387   6.165  40.941  13.541
96963W        W69388  12.698   4.169  14.049
96964W        W69389   8.232  37.759  12.961
96965W        W69390   2.752   2.750   1.737
96966W        W69391  36.324  32.792  11.876
96967W        W69392  10.145  26.016  10.552
96968W        W69393  19.977  31.360  11.631
96969W        W69394   7.468  40.116  10.913
96970W        W69395   9.834  35.169   5.527
96971W        W69396  33.570  12.461  14.975
96972W        W69397   8.062  24.148   4.776
96973W        W69398  13.377  21.790   5.588
96974W        W69399  12.103  28.007   4.159
96975W        W69400  10.424  30.148   4.384
96976W        W69401  27.426  20.734   1.897
96977W        W69402  32.109  32.059   2.743
96978W        W69403  28.393  12.018   4.104
96979W        W69404   0.985  12.307   4.637
96980W        W69405  22.696  27.501   4.429
96981W        W69406  30.633   4.586  12.007
96982W        W69407  26.714  31.611  12.079
96983W        W69408   8.925  10.375   0.369
96984W        W69409  25.052  19.265   2.284
96985W        W69410  41.061  26.137   0.051
96986W        W69411  10.833  25.936   2.164
96987W        W69412  40.920  19.470   2.690
96988W        W69413  18.276  40.926  12.939
96989W        W69414   4.907  32.526   0.948
96990W        W69415  13.740   9.845  14.057
96991W        W69416  17.577  19.343   3.256
96992W        W69417   9.095  19.021   3.258
96993W        W69418  19.594  33.969  14.586
96994W        W69419  16.170  19.139   4.633
96995W        W69420  13.613  37.025  12.388
96996W        W69421  40.810   9.319   1.404
96997W        W69422  25.160  20.297  11.101
96998W        W69423   9.356  43.791  12.177
96999W        W69424  18.606  28.711   3.168
97000W        W69425  23.276  43.336  12.175
97001W        W69426  31.010  41.025   0.831
97002W        W69427  17.634  26.924  10.332
97003W        W69428  32.473  25.686   3.625
97004W        W69429  43.752  21.687  14.601
97005W        W69430  28.509  20.083   2.862
97006W        W69431  43.013  18.169   0.423
97007W        W69432  36.932  10.995  12.011
97008W        W69433  44.354  37.452  12.838
97009W        W69434  16.755  33.895   2.387
97010W        W69435   6.646   6.272  12.597
97011W        W69436   5.181  34.136   3.080
97012W        W69437   3.045  17.572  12.388
97013W        W69438  38.284  44.369   3.994
97014W        W69439  38.560  27.998  12.125
97015W        W69440  38.822   1.452   1.926
97016W        W69441  24.778  25.257   0.915
97017W        W69442  30.646  29.068   4.529
97018W        W69443  21.897  30.536   3.149
97019W        W69444  42.967  34.489  10.232
97020W        W69445  44.377   2.001   1.482
97021W        W69446  41.774  23.239  14.341
97022W        W69447  19.525  11.083  14.819
97023W        W69448  23.959   7.194  12.430
97024W        W69449  31.940  33.641  13.854
97025W        W69450  14.229  38.974   1.777
97026W        W69451   0.730  19.077   0.965
97027W        W69452   2.900  39.962   4.419
97028W        W69453  10.400  39.530   1.721
97029W        W69454  38.553  33.087  11.903
97030W        W69455  37.812  23.655   1.770
97031W        W69456  18.968  42.632  10.581
97032W        W69457   2.033  26.432   1.074
97033W        W69458  18.719  11.238   3.916
97034W        W69459  42.532  13.256  14.012
97035W        W69460  10.239  34.493  13.833
97036W        W69461  35.507  14.266  11.880
97037W        W69462  24.456  42.473   0.937
97038W        W69463   9.520  42.126   2.774
97039W        W69464  16.324  13.573  13.738
97040W        W69465   0.912   7.710  14.461
97041W        W69466  24.936   3.467   1.340
97042W        W69467  21.673  31.580  13.036
97043W        W69468  38.800  13.766  12.891
97044W        W69469  27.448  12.678  11.025
97045W        W69470  15.532  34.501  12.895
97046W        W69471  14.216   4.276   0.490
97047W        W69472   2.808  34.550   3.283
97048W        W69473  23.603   2.126  12.087
97049W        W69474  26.570  30.514   4.576
97050W        W69475  20.985  42.070  12.058
97051W        W69476  10.466  24.122   2.163
97052W        W69477  31.942   7.390   0.532
97053W        W69478  30.677  17.104  11.063
97054W        W69479  19.157  39.796  13.388
97055W        W69480  44.268  20.552   0.742
97056W        W69481  42.081  30.949   2.896
97057W        W69482  40.607  34.056   0.437
97058W        W69483   1.221  22.393   4.055
97059W        W69484  18.793   5.635   4.644
97060W        W69485  32.635  11.334   0.914
97061W        W69486   7.168  36.934  13.936
97062W        W69487   0.415  25.107  14.404
97063W        W69488  13.853  40.081   2.862
97064W        W69489  36.452  33.817  12.876
97065W        W69490   7.672  29.563   2.600
97066W        W69491   7.581  38.457  11.157
97067W        W69492  16.389  29.088   0.834
97068W        W69493  12.027  12.394   4.655
97069W        W69494  29.896   9.903  11.888
97070W        W69495  31.579  28.829  12.408
97071W        W69496  39.525   6.462  12.876
97072W        W69497  34.374  26.680  12.066
97073W        W69498  33.593  31.603   4.666
97074W        W69499  23.935  44.970  12.897
97075W        W69500  27.425   3.329   1.210
97076W        W69501  13.106  21.766  14.068
97077W        W69502  29.655   9.872  13.008
97078W        W69503  30.402  41.410  11.596
97079W        W69504  35.029  42.372  13.051
97080W        W69505  25.384  23.749  13.558
97081W        W69506  37.717   0.827  13.375
97082W        W69507  41.116  12.601  12.421
97083W        W69508  20.138  13.176   1.785
97084W        W69509   5.667  15.322   3.785
97085W        W69510  22.258  44.389  13.986
97086W        W69511   5.774   7.218  13.322
97087W        W69512   2.294  26.446   3.710
97088W        W69513  21.235  18.737  14.552
97089W        W69514  40.559  41.288  11.236
97090W        W69515   3.679   5.482   1.727
97091W        W69516  35.142  32.861  12.987
97092W        W69517   2.570  24.619  11.528
97093W        W69518  36.950   0.425  11.919
97094W        W69519   6.371  21.177   3.670
97095W        W69520  10.216  31.875  12.039
97096W        W69521  17.684  15.338  12.834
97097W        W69522  21.197   1.726   4.637
97098W        W69523   6.296  12.858   0.388
97099W        W69524  31.570  28.455  12.762
97100W        W69525  44.534  16.304   0.790
97101W        W69526   9.153  24.597  13.857
97102W        W69527  20.257  34.488   0.959
97103W        W69528  36.430  24.257  13.630
97104W        W69529  24.493  23.904  12.445
97105W        W69530   5.253  16.919   1.695
97106W        W69531  32.636  27.469   2.845
97107W        W69532   7.859  25.518   3.705
97108W        W69533  43.381  26.751   2.338
97109W        W69534  15.663  40.412  12.370
97110W        W69535  19.506  16.156   0.370
97111W        W69536  26.478  11.374   3.834
97112W        W69537  21.509  15.751  10.739
97113W        W69538  24.541  25.180  10.901
97114W        W69539  43.018   8.159   4.631
97115W        W69540  27.891  34.837  11.638
97116W        W69541   1.248  34.827   1.255
97117W        W69542  44.054  43.497   2.814
97118W        W69543  36.996   8.894  13.926
97119W        W69544  12.171   2.732  12.562
97120W        W69545  30.731  12.210   2.016
97121W        W69546  41.879  10.682  13.003
97122W        W69547  13.445  42.535  14.981
97123W        W69548   1.220  25.029   0.449
97124W        W69549  21.150  44.035  11.016
97125W        W69550  27.225  39.363  12.438
97126W        W69551  37.654   3.717  11.540
97127W        W69552  37.545   8.141   1.219
97128W        W69553   9.388   5.503   3.671
97129W        W69554   9.062  17.780  13.796
97130W        W69555  43.492  42.821  10.557
97131W        W69556  13.833  36.880   4.707
97132W        W69557   2.301   3.387   4.856
97133W        W69558   5.889  31.477   2.318
97134W        W69559  44.284  21.248   3.164
97135W        W69560  34.821   7.718  13.461
97136W        W69561   6.196  26.954   0.922
97137W        W69562  40.605  44.661  11.524
97138W        W69563  42.532   2.299   4.731
97139W        W69564   1.475  15.780   3.230
97140W        W69565   5.753  44.296  13.462
97141W        W69566  35.599  20.588   4.667
97142W        W69567  30.370  41.342  12.400
97143W        W69568  35.845  28.862   3.629
97144W        W69569  15.573  32.185  11.892
97145W        W69570  44.797   2.202   1.770
97146W        W69571  33.457  20.219  11.527
97147W        W69572   5.969  33.544   1.764
97148W        W69573  12.695  42.453  10.787
97149W        W69574   5.882   2.006   0.775
97150W        W69575  43.292  40.237  14.831
97151W        W69576  37.125   9.236  11.628
97152W        W69577  12.200   9.665   0.726
97153W        W69578  17.861   3.684  13.074
97154W        W69579   5.774  31.207   0.860
97155W        W69580  39.997  24.112  13.109
97156W        W69581   4.450  33.686   4.130
97157W        W69582  18.742  22.441   3.678
97158W        W69583  27.922  40.165  12.494
97159W        W69584  20.762  36.841   0.636
97160W        W69585  33.452  20.109   1.967
97161W        W69586   7.301  23.769   4.919
97162W        W69587   7.830  44.345  12.199
97163W        W69588  33.796  15.799  12.482
97164W        W69589  31.056  31.284  10.518
97165W        W69590  24.607  40.522  10.745
97166W        W69591  42.225  21.711   1.721
97167W        W69592  12.746  42.600  13.976
97168W        W69593  44.258   9.474  12.122
97169W        W69594   4.977  16.650  11.188
97170W        W69595  43.890  36.452  12.884
97171W        W69596  35.892  26.528   4.703
97172W        W69597  35.146  14.773  14.433
97173W        W69598  13.624  37.911   3.668
97174W        W69599  19.199   9.398  13.842
97175W        W69600  31.391  29.928  14.813
97176W        W69601  26.559  27.665  13.972
97177W        W69602  18.056  29.084  13.439
97178W        W69603   2.674  26.981  13.435
97179W        W69604  10.951  28.692  12.319
97180W        W69605  28.900   8.148   3.623
97181W        W69606  29.387  43.189  14.556
97182W        W69607  22.131   1.743   4.635
97183W        W69608  30.908  42.932   1.243
97184W        W69609  44.858  35.156  14.950
97185W        W69610   2.521  34.119   3.395
97186W        W69611  24.869  44.766   0.381
97187W        W69612   8.163  26.509  14.799
97188W        W69613  41.547   9.003   4.361
97189W        W69614  19.518  41.630  13.313
97190W        W69615  32.092  33.636  10.814
97191W        W69616  24.497  39.419  10.989
97192W        W69617  11.728  23.038   2.273
97193W        W69618  34.384  42.770  14.044
97194W        W69619  13.628  21.529   4.115
97195W        W69620  40.932  37.784  13.448
97196W        W69621  11.473  24.559   0.858
97197W        W69622   3.953  13.213  12.085
97198W        W69623  40.732   8.347   0.873
97199W        W69624  14.811  15.260  10.723
97200W        W69625  31.141  34.921  13.938
97201W        W69626  11.810  43.818   4.643
97202W        W69627   6.697  41.334   0.216
97203W        W69628  36.007  36.617  13.303
97204W        W69629  27.298   7.723   2.709
97205W        W69630  41.212  10.915   3.311
97206W        W69631  17.511  42.539   3.344
97207W        W69632  12.051   7.270   2.569
97208W        W69633  20.832  28.432  11.484
97209W        W69634  19.795   1.014   2.668
97210W        W69635  12.089  24.652  11.629
97211W        W69636  15.558   0.910   2.978
97212W        W69637  17.380  31.574   4.487
97213W        W69638  12.382  16.284   4.152
97214W        W69639  23.509  27.033  10.678
97215W        W69640  25.434  35.632   4.527
97216W        W69641  30.899  12.666  13.852
97217W        W69642  21.457  34.339   1.364
97218W        W69643  11.112  36.804   4.171
97219W        W69644  22.597  43.453  13.744
97220W        W69645   4.938   3.221   1.368
97221W        W69646   2.001  14.555  14.621
97222W        W69647   4.936   2.766  14.071
97223W        W69648  17.421   4.827   4.748
97224W        W69649  39.935  29.451   4.916
97225W        W69650  40.329  23.914   3.070
97226W        W69651  32.305  18.288   2.944
97227W        W69652   4.316  18.754   2.983
97228W        W69653  22.230  17.277   4.210
97229W        W69654  18.697  20.701   3.135
97230W        W69655   3.298  32.179   3.286
97231W        W69656  18.731   4.998   1.225
97232W        W69657  31.443  33.403  11.597
97233W        W69658  33.876  24.088  11.953
97234W        W69659  28.715  19.506  14.843
97235W        W69660  42.410  10.697  10.844
97236W        W69661  13.781  42.481  10.512
97237W        W69662  30.008  43.417  13.042
97238W        W69663  12.300   1.017   0.793
97239W        W69664  36.132  39.517  10.527
97240W        W69665  14.612  31.075  14.856
97241W        W69666   9.462  14.677  13.270
97242W        W69667  21.034  22.728   1.624
97243W        W69668  17.228  17.299   0.859
97244W        W69669  18.012   3.747   2.438
97245W        W69670   0.060  25.909   1.256
97246W        W69671  25.414   3.937   4.311
97247W        W69672  27.093  23.236   4.843
97248W        W69673  24.550  44.826  11.668
97249W        W69674  24.416  14.991  14.863
97250W        W69675  35.846  38.668  11.049
97251W        W69676  16.715  16.154  13.327
97252W        W69677   7.920  12.783  14.003
97253W        W69678  36.826  21.627   0.007
97254W        W69679  16.171  15.868  12.580
97255W        W69680   2.221  25.533  11.887
97256W        W69681  20.990   7.103   3.274
97257W        W69682  36.985  36.056   5.044
97258W        W69683  43.831  35.941   1.788
97259W        W69684  32.512  38.865   0.791
97260W        W69685  36.480  10.120   4.527
97261W        W69686  25.482  31.368   3.285
97262W        W69687  39.087  31.152  11.217
97263W        W69688   6.742   9.191  13.000
97264W        W69689  35.611   3.284   3.275
97265W        W69690   2.478  13.643   0.416
97266W        W69691  32.874  31.501   0.373
97267W        W69692  20.021  29.034   2.273
97268W        W69693  31.622   9.935   1.187
97269W        W69694  26.035  27.098   0.214
97270W        W69695   0.744  18.592   0.398
97271W        W69696   0.443  21.464  12.469
97272W        W69697  33.408  20.465   1.349
97273W        W69698  21.344   3.327  10.720
97274W        W69699   9.297  20.491   3.338
97275W        W69700  12.282  25.192  12.355
97276W        W69701   8.779  25.125   1.710
97277W        W69702  15.573  31.386  14.288
97278W        W69703   0.126  23.997  14.884
97279W        W69704  38.515   0.236   2.664
97280W        W69705   3.291  37.917   1.355
97281W        W69706  22.469   4.793  11.511
97282W        W69707   5.800  44.724   3.308
97283W        W69708  21.918  39.459   2.231
97284W        W69709  16.136  31.387  13.493
97285W        W69710  32.112  28.981  11.054
97286W        W69711  10.132  28.399   0.239
97287W        W69712  11.604  35.485   3.761
97288W        W69713  26.681  28.001   0.976
97289W        W69714  36.836  33.261   2.858
97290W        W69715  25.214  10.325  14.880
97291W        W69716  28.049  42.764   4.680
97292W        W69717  37.375  38.065   1.314
97293W        W69718  29.473  25.674   3.326
97294W        W69719  34.105  40.483  14.497
97295W        W69720  24.141  10.335   3.912
97296W        W69721  18.291  18.668  12.982
97297W        W69722   7.321  31.629  11.038
97298W        W69723  21.719  39.048  12.577
97299W        W69724  29.960   4.305  13.380
97300W        W69725   6.889  26.490  12.801
97301W        W69726  41.789  38.493   3.185
97302W        W69727  34.703  17.745   0.458
97303W        W69728  15.902  30.622   2.906
97304W        W69729  38.596  33.630   2.350
97305W        W69730  25.233   0.407   3.157
97306W        W69731  42.930  14.776  10.668
97307W        W69732   1.123  23.194   2.345
97308W        W69733  41.011  22.958  13.392
97309W        W69734  17.321  35.888  10.686
97310W        W69735  11.635  14.678  10.763
97311W        W69736  18.278  36.592  13.092
97312W        W69737  28.176  12.174   2.375
97313W        W69738  10.390  44.500   3.718
97314W        W69739  39.190   3.207   0.624
97315W        W69740   5.027   6.337  11.558
97316W        W69741   7.343  36.687  13.496
97317W        W69742  42.469  11.681  13.522
97318W        W69743  43.217  16.075   1.260
97319W        W69744   0.003  40.480  12.827
97320W        W69745  39.412  15.285  14.399
97321W        W69746  31.552  43.717   3.292
97322W        W69747  11.476  12.337  13.013
97323W        W69748  15.777  43.595  12.442
97324W        W69749  43.954  17.159  11.269
97325W        W69750   4.736  16.281  11.949
97326W        W69751  14.502   5.463  13.986
97327W        W69752  33.569  34.385   2.310
97328W        W69753  43.532   9.736   0.933
97329W        W69754  26.764   1.882   0.506
97330W        W69755  40.346   5.214   0.417
97331W        W69756  19.103  24.175  12.715
97332W        W69757   2.205  41.335   9.975
97333W        W69758   7.169  30.236   0.962
97334W        W69759  36.516  31.158   4.555
97335W        W69760  40.077  18.112  13.538
97336W        W69761  18.555   5.779  11.904
97337W        W69762  15.276  14.345  14.516
97338W        W69763  29.581  15.205  11.587
97339W        W69764  35.552   9.813   4.284
97340W        W69765  24.526  12.566   3.335
97341W        W69766  22.028   1.742  11.025
97342W        W69767  25.954  21.054   3.182
97343W        W69768  39.938  28.028   2.106
97344W        W69769  35.213  43.750   0.766
97345W        W69770  26.460  18.869   1.493
97346W        W69771  31.790  38.956   1.406
97347W        W69772  38.331   5.660  14.856
97348W        W69773  13.276  38.303  13.462
97349W        W69774  43.481  21.037  11.389
97350W        W69775  12.197  37.362   1.704
97351W        W69776  40.086   5.896  14.474
97352W        W69777  30.401  39.484   2.192
97353W        W69778   8.729   4.644   1.533
97354W        W69779  29.511  33.857   3.846
97355W        W69780  17.403   0.943  14.402
97356W        W69781  17.309   7.691   2.640
97357W        W69782  12.398  41.164  12.355
97358W        W69783  32.821   3.179   0.215
97359W        W69784  22.267  37.217  12.307
97360W        W69785  34.377   1.845   0.995
97361W        W69786   6.280  42.037   4.015
97362W        W69787  41.881   7.419   1.230
97363W        W69788  33.570  44.660  11.150
97364W        W69789  17.643  10.396  10.100
97365W        W69790  22.718  29.332   4.169
97366W        W69791  10.579  25.366   5.044
97367W        W69792   4.835  38.370  13.345
97368W        W69793  18.641   6.496  12.966
97369W        W69794  32.589   7.226   3.397
97370W        W69795  15.818  38.907  11.894
97371W        W69796  31.398  25.995   1.179
97372W        W69797  17.575  32.081   1.917
97373W        W69798   7.080  41.530  12.496
97374W        W69799  28.567  15.658   2.744
97375W        W69800  24.601  18.594  14.955
97376W        W69801  44.256   5.758  10.600
97377W        W69802  31.985  36.862  10.795
97378W        W69803  23.112  29.198  13.767
97379W        W69804  26.395  25.494   2.756
97380W        W69805  31.101   5.069  13.110
97381W        W69806  24.762  38.446  12.581
97382W        W69807  34.583  23.615  13.584
97383W        W69808   8.170   0.179  12.040
97384W        W69809   3.453  42.698  14.918
97385W        W69810  32.386  33.821   1.043
97386W        W69811   3.020   2.496  11.078
97387W        W69812  42.348  20.772  13.701
97388W        W69813  17.626  35.659  12.515
97389W        W69814   1.504  35.841   1.266
97390W        W69815  11.279  13.962   1.276
97391W        W69816  41.821  41.248   1.350
97392W        W69817   3.664   0.255   1.980
97393W        W69818  33.504  40.112  13.787
97394W        W69819  10.207  25.684   1.284
97395W        W69820  43.664  20.601   4.160
97396W        W69821   6.988  11.275   1.255
97397W        W69822  44.766  18.069   2.782
97398W        W69823  38.361  22.140   0.032
97399W        W69824  38.239  37.154   4.308
97400W        W69825  12.779  39.052   0.340
97401W        W69826  14.171  31.625   0.021
97402W        W69827  13.602  36.790  13.412
97403W        W69828   6.895  28.590   0.838
97404W        W69829   3.881   9.375   4.542
97405W        W69830  25.896  10.419  11.456
97406W        W69831  26.447   7.213  14.958
97407W        W69832  10.801  32.955  11.861
97408W        W69833  38.239  30.005  14.341
97409W        W69834  15.881  42.327  14.470
97410W        W69835  24.708  23.719   1.995
97411W        W69836  22.503  12.868   4.391
97412W        W69837  18.318  23.195   3.430
97413W        W69838  10.047  41.258  13.104
97414W        W69839   4.762  13.181   3.263
97415W        W69840   8.485  20.336  12.465
97416W        W69841  20.590   9.318  13.506
97417W        W69842   8.343  34.161  10.669
97418W        W69843  17.088   9.720  12.509
97419W        W69844  33.014   9.731   1.177
97420W        W69845  12.379  16.796  11.626
97421W        W69846  39.996  35.917   2.246
97422W        W69847  23.333  26.733  14.815
97423W        W69848  13.317   9.390   2.819
97424W        W69849   7.378  25.304   3.841
97425W        W69850  30.943  25.131  10.965
97426W        W69851  38.328  24.065  10.596
97427W        W69852  36.027  30.932  11.535
97428W        W69853  32.416   3.697   0.955
97429W        W69854  40.936  16.134  12.027
97430W        W69855  20.483  40.348  11.305
97431W        W69856  30.645   3.404   0.419
97432W        W69857  11.904  31.997  10.632
97433W        W69858  14.591   8.799   3.830
97434W        W69859  10.993  24.021  14.934
97435W        W69860  13.741   9.899  14.583
97436W        W69861   0.158  11.410  13.470
97437W        W69862  22.181   4.432  13.301
97438W        W69863  18.970  17.340   0.795
97439W        W69864   8.844   0.854  12.802
97440W        W69865  31.357   4.818   4.516
97441W        W69866  24.756  36.314  11.624
97442W        W69867  44.293  40.984   1.273
97443W        W69868   7.048  39.918   0.746
97444W        W69869  18.245  37.518   3.113
97445W        W69870   9.724  29.005  13.511
97446W        W69871  25.432   7.276   1.772
97447W        W69872  13.321   6.402   0.491
97448W        W69873  38.874   7.692  14.513
97449W        W69874  23.538  43.752   2.859
97450W        W69875   4.163  40.075  14.344
97451W        W69876   9.917  36.902   0.277
97452W        W69877  23.221  35.117  14.578
97453W        W69878  43.701  18.179   4.471
97454W        W69879  40.764   4.298  11.183
97455W        W69880  31.034   9.023   3.509
97456W        W69881   2.757  26.900  14.271
97457W        W69882  31.964  28.046   2.873
97458W        W69883  19.748  20.242   1.790
97459W        W69884  43.847  20.192  12.254
97460W        W69885   6.254  18.255  11.653
97461W        W69886  18.894  12.046  13.491
97462W        W69887  18.882  31.903   2.284
97463W        W69888  12.662  40.810  14.046
97464W        W69889  22.611  13.620   1.955
97465W        W69890  21.490  35.756   1.273
97466W        W69891  19.664   4.853  12.118
97467W        W69892  20.214   2.336   0.254
97468W        W69893  10.762  34.120  13.282
97469W        W69894  11.606   3.780   3.648
97470W        W69895   1.696  17.769  12.411
97471W        W69896  34.979  28.013  12.039
97472W        W69897  22.697  40.730  12.886
97473W        W69898  44.410  15.779  10.522
97474W        W69899  33.803  40.655   3.656
97475W        W69900  25.410   1.511  13.314
97476W        W69901  24.951  44.215   1.840
97477W        W69902  24.317   4.265  10.387
97478W        W69903   1.082  16.217  10.492
97479W        W69904  23.432  36.150  12.782
97480W        W69905  39.054  35.173   3.140
97481W        W69906   3.331  26.664  13.488
97482W        W69907  44.499  26.884   0.346
97483W        W69908  36.847  11.322   2.007
97484W        W69909  19.789  30.438   5.891
97485W        W69910  36.028  32.684  13.287
97486W        W69911  24.210  22.576  14.547
97487W        W69912  44.377  38.357  12.910
97488W        W69913  27.650  13.341   5.052
97489W        W69914  26.505  16.226  10.923
97490W        W69915   9.793   1.294  13.589
97491W        W69916  34.391  43.997  14.270
97492W        W69917  40.276   4.550   0.496
97493W        W69918  29.437  35.848  10.464
97494W        W69919   9.952  30.874  12.145
97495W        W69920  34.493  42.548  12.604
97496W        W69921  15.703  21.914   3.277
97497W        W69922  12.167  18.529  11.107
97498W        W69923  41.513  10.501  11.497
97499W        W69924  16.185   3.952   3.685
97500W        W69925   8.313  44.538   3.786
97501W        W69926  26.131  28.077  12.445
97502W        W69927   6.143   7.338  14.341
97503W        W69928   8.152  35.761   3.082
97504W        W69929   9.343  17.531  12.401
97505W        W69930  18.016  44.863   1.187
97506W        W69931  29.948  24.178   4.403
97507W        W69932  38.210  42.249  14.971
97508W        W69933  10.272  44.329   1.049
97509W        W69934  18.223  42.020   1.112
97510W        W69935  23.220  40.383  14.427
97511W        W69936  27.518  19.286  12.445
97512W        W69937   5.753  14.662  11.915
97513W        W69938  21.249  30.741   4.472
97514W        W69939  19.784   3.733  13.361
97515W        W69940  13.553  31.570  13.252
97516W        W69941  19.257  12.302  11.515
97517W        W69942   0.341  32.384   0.896
97518W        W69943  17.632   4.542   3.755
97519W        W69944  11.908  12.090  12.883
97520W        W69945   7.917  42.236  14.563
97521W        W69946  27.532  16.336   2.681
97522W        W69947  42.676   6.427  13.554
97523W        W69948  33.641   0.200  10.306
97524W        W69949   4.771  35.357   0.850
97525W        W69950  10.959  12.774  14.140
97526W        W69951  32.244  42.910  10.698
97527W        W69952   9.708  33.535  14.494
97528W        W69953  18.322   8.474   2.452
97529W        W69954  44.723  15.007   1.420
97530W        W69955  22.266   4.826   2.685
97531W        W69956  11.268  12.770   1.805
97532W        W69957   1.513  17.590   3.169
97533W        W69958  28.464  20.708   1.836
97534W        W69959  35.869  34.381  11.661
97535W        W69960  18.810  33.080   0.506
97536W        W69961   7.657  24.837  12.540
97537W        W69962  19.239  18.993   1.096
97538W        W69963  34.997  32.155   4.108
97539W        W69964   6.196  41.779   1.826
97540W        W69965  17.789  33.995  12.285
97541W        W69966  21.779   1.820  14.624
97542W        W69967  29.434   0.756   2.393
97543W        W69968   0.792  33.514  10.511
97544W        W69969   0.378  23.683   3.710
97545W        W69970  20.813  22.494   2.758
97546W        W69971  13.601   7.619  11.194
97547W        W69972  33.293  44.346   4.187
97548W        W69973  26.657  35.337   0.920
97549W        W69974  17.709   7.993  13.835
97550W        W69975  13.103  35.350   0.212
97551W        W69976  39.078  10.082  13.434
97552W        W69977   6.926  19.039   1.853
97553W        W69978   0.777  41.748   0.779
97554W        W69979  27.454  41.682   3.323
97555W        W69980  16.971   9.598   1.765
97556W        W69981  33.945  34.255  11.620
97557W        W69982  25.063  29.418   4.225
97558W        W69983  14.506  42.940   2.231
97559W        W69984  34.409   0.475   0.894
97560W        W69985  11.288  37.061  10.996
97561W        W69986  17.667  39.057  11.687
97562W        W69987   4.918   8.794   1.684
97563W        W69988  11.240  39.685   1.182
97564W        W69989  37.743  41.791   5.011
97565W        W69990  23.551  37.897   1.246
97566W        W69991  21.032  36.178  13.083
97567W        W69992  16.849   9.110  10.441
97568W        W69993   6.441  27.667  13.943
97569W        W69994  13.827  31.501  12.280
97570W        W69995  18.334  32.951   0.334
97571W        W69996   6.748  20.053   0.461
97572W        W69997  24.046  25.154   2.239
97573W        W69998  40.548  37.614  10.481
97574W        W69999  40.475  38.410   2.092
97575W        W70000   3.732  43.264   4.056
97576W        W70001  27.940  34.900  10.693
97577W        W70002  28.680  14.469  13.438
97578W        W70003  14.253  31.483  12.605
97579W        W70004  43.339  39.372   3.441
97580W        W70005  10.026  15.187   0.308
97581W        W70006  41.989  42.869  10.039
97582W        W70007  30.917   1.011  11.895
97583W        W70008  12.361  15.255  10.711
97584W        W70009   7.157  29.887   0.475
97585W        W70010  44.828   3.531  10.625
97586W        W70011  17.807  33.897  14.414
97587W        W70012   3.488  15.363   0.769
97588W        W70013   6.399  26.734   4.041
97589W        W70014   0.968   8.195  14.309
97590W        W70015  31.059  21.625  12.843
97591W        W70016  21.737  11.128  12.834
97592W        W70017  18.397  19.545  13.240
97593W        W70018  13.354  41.054   0.650
97594W        W70019  26.005  19.661   3.126
97595W        W70020  38.379  27.641  14.377
97596W        W70021  44.390  16.737  10.114
97597W        W70022  44.862  34.374   3.282
97598W        W70023  26.722  28.806  10.142
97599W        W70024   8.959   0.907  10.615
97600W        W70025  33.419  10.175  12.572
97601W        W70026  44.026   0.538  11.485
97602W        W70027  32.624  32.141   4.008
97603W        W70028  18.520  25.189   4.231
97604W        W70029  43.360  33.590  10.738
97605W        W70030  26.170  17.594  14.763
97606W        W70031  36.423  10.647   4.606
97607W        W70032   4.150  25.462   0.798
97608W        W70033  21.532  14.751   0.398
97609W        W70034  37.957  14.196  12.762
97610W        W70035  35.189  17.354   0.238
97611W        W70036  35.923   7.640   1.033
97612W        W70037  39.031  24.472  12.936
97613W        W70038   3.523   1.188   3.723
97614W        W70039  34.273  17.282   1.517
97615W        W70040  24.168   6.713  12.553
97616W        W70041  37.081  15.615   0.386
97617W        W70042   9.249  42.959   2.445
97618W        W70043  39.448  33.213  12.008
97619W        W70044  10.258   2.481  13.027
97620W        W70045  13.036  25.161  13.812
97621W        W70046  20.092   7.830  11.430
97622W        W70047   7.916  42.048  13.214
97623W        W70048  11.898   8.983   5.114
97624W        W70049  20.157  36.466  12.997
97625W        W70050  28.924  34.577   2.600
97626W        W70051  28.039  35.888  13.833
97627W        W70052  30.362  33.368   2.786
97628W        W70053   4.653  44.912   2.620
97629W        W70054   6.358   4.373   3.994
97630W        W70055  11.350  18.354   4.611
97631W        W70056  25.222  33.447  13.943
97632W        W70057  36.761   2.211  12.619
97633W        W70058  20.763  37.576   4.702
97634W        W70059  40.258   8.481  10.801
97635W        W70060  31.109  37.458   2.415
97636W        W70061  29.131  27.150  14.445
97637W        W70062  19.667   3.178   2.435
97638W        W70063  17.176   6.149  12.411
97639W        W70064  22.063  15.946   4.611
97640W        W70065  17.284  26.506   2.544
97641W        W70066   6.412  18.690  14.769
97642W        W70067  21.474   3.477   2.822
97643W        W70068  26.543  38.330   2.802
97644W        W70069   7.894  15.833   4.373
97645W        W70070   1.656  31.397   1.786
97646W        W70071  10.230  17.195   3.684
97647W        W70072  10.062  19.569  10.750
97648W        W70073  26.089   4.455  13.796
97649W        W70074   9.317  16.495  12.563
97650W        W70075  29.616  33.183   4.653
97651W        W70076  25.000   6.277   2.692
97652W        W70077  27.776  33.347   1.367
97653W        W70078  19.140  40.603   4.135
97654W        W70079   8.304  25.599   1.134
97655W        W70080   1.861  22.736   3.338
97656W        W70081  41.734  38.848  14.692
97657W        W70082  11.174  17.115  14.690
97658W        W70083  43.879  15.511  12.479
97659W        W70084  42.066   1.203   1.415
97660W        W70085  32.510  37.900   0.789
97661W        W70086  30.981  32.106  10.345
97662W        W70087  37.216  30.894   3.227
97663W        W70088   4.673  20.221   2.652
97664W        W70089  22.087   3.849   2.404
97665W        W70090  24.086   7.368  11.075
97666W        W70091  23.431  11.618   2.247
97667W        W70092  11.076  17.718  10.795
97668W        W70093  22.986  40.090   3.825
97669W        W70094  10.873  35.347   2.584
97670W        W70095  40.379  27.888  11.093
97671W        W70096  21.117  41.775   1.783
97672W        W70097   3.539  40.412   4.789
97673W        W70098   3.299  20.261   0.841
97674W        W70099   2.740  14.139  13.823
97675W        W70100  33.233   6.569   1.903
97676W        W70101   4.395   2.394   1.247
97677W        W70102  19.828  16.599   3.224
97678W        W70103  40.193   6.235   3.341
97679W        W70104  12.974  13.122   1.840
97680W        W70105  32.925   1.273  14.127
97681W        W70106  16.850   3.454  11.258
97682W        W70107  29.400  13.092   4.614
97683W        W70108  29.344  29.125   1.541
97684W        W70109  14.516  21.685   5.133
97685W        W70110  11.329  30.423   3.544
97686W        W70111  14.157  25.561  10.327
97687W        W70112  13.680   3.269   0.464
97688W        W70113  10.407   8.869   4.200
97689W        W70114  31.835  34.672   0.308
97690W        W70115  12.568   2.155  14.033
97691W        W70116  32.432  26.469   2.267
97692W        W70117  19.819  19.746  14.536
97693W        W70118  37.843  27.692   0.648
97694W        W70119  10.699  23.595   1.228
97695W        W70120  23.394  23.868  13.100
97696W        W70121   4.727  31.584   0.902
97697W        W70122  30.582  34.725   3.244
97698W        W70123  24.749  28.572   0.435
97699W        W70124  22.603  24.563   4.890
97700W        W70125  11.317  21.247  12.884
97701W        W70126  40.442   4.883   0.862
97702W        W70127  41.552  11.669   2.296
97703W        W70128  20.490  21.204  13.110
97704W        W70129  35.746  17.097  13.127
97705W        W70130  36.088  17.888   0.385
97706W        W70131  19.138   9.858   4.170
97707W        W70132  25.029  18.150   4.042
97708W        W70133  21.446   8.147   3.712
97709W        W70134  33.061  30.954  12.555
97710W        W70135  17.412  38.336  11.505
97711W        W70136  37.693  35.809  12.448
97712W        W70137   2.399  10.270  12.717
97713W        W70138  22.056  44.500   1.172
97714W        W70139  10.089  41.943  11.152
97715W        W70140  34.040   1.709  13.404
97716W        W70141  20.073   0.377  11.588
97717W        W70142  17.264   2.016   1.411
97718W        W70143  10.029  31.046   1.986
97719W        W70144  37.082  13.995   2.297
97720W        W70145  32.153  30.572   4.664
97721W        W70146  40.943   1.806   4.035
97722W        W70147  23.214  44.366   1.681
97723W        W70148  11.136  25.231   2.715
97724W        W70149   6.669  27.131   2.724
97725W        W70150  39.292  42.205  11.060
97726W        W70151  22.541   3.853   3.682
97727W        W70152   9.721  16.265   4.715
97728W        W70153  21.653  17.914  11.413
97729W        W70154   0.230  14.198   2.306
97730W        W70155  17.228  30.200  13.337
97731W        W70156   1.274  22.954  13.102
97732W        W70157  12.485  23.079  13.369
97733W        W70158  36.503   7.339  14.783
97734W        W70159  36.601  34.701  11.514
97735W        W70160  21.585   0.536  10.634
97736W        W70161  22.485  17.242  12.372
97737W        W70162  33.459  22.854  12.660
97738W        W70163  11.802   7.280   5.006
97739W        W70164  14.541   5.809  12.248
97740W        W70165  36.480  12.862   0.508
97741W        W70166  10.397  22.010  14.969
97742W        W70167  41.527  29.849   4.813
97743W        W70168  23.806  25.022  12.508
97744W        W70169   0.718  10.205  11.924
97745W        W70170  17.784   4.954  11.318
97746W        W70171  42.511  38.286  11.130
97747W        W70172  42.219  32.754   3.244
97748W        W70173   1.268   6.122   3.832
97749W        W70174  26.134  11.651  12.384
97750W        W70175   1.463  15.915   4.621
97751W        W70176   9.975  18.873  14.039
97752W        W70177  29.397  12.311  11.485
97753W        W70178  11.833   6.306  14.657
97754W        W70179  19.588  30.974  11.113
97755W        W70180  44.376  28.922  14.293
97756W        W70181  26.413  27.201  11.568
97757W        W70182  36.108  13.176  12.081
97758W        W70183   4.049  20.985  11.067
97759W        W70184   9.701  34.239  13.298
97760W        W70185  33.162  19.825   0.396
97761W        W70186  41.020  37.717  11.643
97762W        W70187   2.241  21.043   1.871
97763W        W70188   8.144  37.522  10.689
97764W        W70189  42.753  44.343  13.200
97765W        W70190  21.069  15.312   1.749
97766W        W70191  28.922  15.676   2.339
97767W        W70192  20.005  34.439  12.007
97768W        W70193  24.712  41.098   4.829
97769W        W70194  38.462  27.460   2.086
97770W        W70195  33.439   7.140   2.347
97771W        W70196   3.524  21.176   1.470
97772W        W70197  38.534  26.946   3.242
97773W        W70198  26.834  10.097   4.307
97774W        W70199   4.472  42.463  13.752
97775W        W70200  40.798  11.324  12.947
97776W        W70201  42.471  41.710   3.649
97777W        W70202  24.534   8.824  10.190
97778W        W70203  38.089  13.841   4.230
97779W        W70204  26.502  13.461  13.892
97780W        W70205   8.665  18.149   4.299
97781W        W70206   9.421  22.760   4.426
97782W        W70207  17.851  10.244  14.353
97783W        W70208  19.829  25.293  11.503
97784W        W70209   7.297   5.447  13.074
97785W        W70210  41.488  13.902  12.411
97786W        W70211  16.631  22.299  12.449
97787W        W70212  18.676  18.270   2.106
97788W        W70213  12.771  20.084   1.763
97789W        W70214   7.596   0.075  13.951
97790W        W70215  33.966  13.363   0.868
97791W        W70216  37.641  26.429   4.930
97792W        W70217   7.826  12.231   3.832
97793W        W70218   3.488  43.972  14.889
97794W        W70219  34.381  33.890  13.312
97795W        W70220   7.079  42.417   3.657
97796W        W70221   5.740  21.192   0.378
97797W        W70222   8.733   1.824   2.124
97798W        W70223   4.642  15.076  14.492
97799W        W70224   3.199  22.999   4.174
97800W        W70225  18.242  18.244   1.824
97801W        W70226  25.213  33.482   3.045
97802W        W70227  37.300  19.133   2.271
97803W        W70228  29.821  42.984  12.378
97804W        W70229  39.220  16.947  11.330
97805W        W70230   8.863  20.570  13.446
97806W        W70231  33.675   6.461  11.967
97807W        W70232  29.631  19.162  10.449
97808W        W70233   4.817  12.467  12.697
97809W        W70234   3.290  35.536   1.380
97810W        W70235  33.682  28.744   4.491
97811W        W70236   8.777  10.167  10.075
97812W        W70237  11.740   4.322  10.610
97813W        W70238  29.679  32.528   3.873
97814W        W70239  34.443   6.821  11.326
97815W        W70240  14.557  42.369   3.369
97816W        W70241  30.420   6.204   1.709
97817W        W70242  11.858  16.212   4.209
97818W        W70243  38.463  34.368  13.329
97819W        W70244  40.321  20.223  11.555
97820W        W70245   4.373  13.293  10.719
97821W        W70246  42.714  41.494   2.187
97822W        W70247  14.500  13.189   1.331
97823W        W70248  36.415  25.600   0.932
97824W        W70249   8.105  27.481  14.841
97825W        W70250  11.019   4.898   2.238
97826W        W70251  30.819  23.155  10.224
97827W        W70252  36.973  38.476   0.369
97828W        W70253  41.759  44.581  13.376
97829W        W70254  39.335  22.357   2.471
97830W        W70255  36.919  12.212  12.956
97831W        W70256   4.531  17.548  14.895
97832W        W70257  27.226  31.994  11.065
97833W        W70258  16.282  13.116   1.431
97834W        W70259   7.396  39.175   0.349
97835W        W70260  14.273   8.869   0.259
97836W        W70261  20.107   2.392  14.739
97837W        W70262  11.730  43.256  13.995
97838W        W70263  25.458  29.706  14.420
97839W        W70264   1.512  21.597  13.518
97840W        W70265  29.196  17.261   2.259
97841W        W70266  13.225  25.253   5.195
97842W        W70267  42.568  35.941  13.935
97843W        W70268  15.302  19.796  14.335
97844W        W70269  41.781  26.501  14.890
97845W        W70270  26.978  15.607  11.403
97846W        W70271  29.414  14.241   1.849
97847W        W70272  20.669   3.957  14.451
97848W        W70273  18.840  20.050   2.490
97849W        W70274  38.336  19.424   3.693
97850W        W70275  32.375   5.676  14.752
97851W        W70276  11.187  27.897   3.767
97852W        W70277  43.544   4.731   4.250
97853W        W70278  20.819  33.128   0.778
97854W        W70279  34.515  37.126   0.781
97855W        W70280  22.769  25.410   4.581
97856W        W70281  14.993   5.446   0.789
97857W        W70282  42.931   4.176   3.264
97858W        W70283  28.393   4.808  13.967
97859W        W70284  36.352  17.938   1.447
97860W        W70285  43.983  23.221   4.113
97861W        W70286  22.341  27.755  13.319
97862W        W70287  19.176  33.278   3.739
97863W        W70288   4.537  31.913   0.532
97864W        W70289  11.207  17.190  12.120
97865W        W70290   9.139  41.511  13.791
97866W        W70291  24.267   8.948   3.580
97867W        W70292   9.862  36.693   4.392
97868W        W70293   7.456  20.565  12.595
97869W        W70294  13.525  11.600  11.189
97870W        W70295  31.803   2.474   4.324
97871W        W70296  33.081  12.179  13.115
97872W        W70297   9.695   3.119  12.642
97873W        W70298  35.711  28.404   0.996
97874W        W70299  31.142  42.635  14.945
97875W        W70300  44.983   1.414   1.277
97876W        W70301   0.054   6.440   1.387
97877W        W70302  35.921  27.058  11.134
97878W        W70303  15.576  38.867  13.396
97879W        W70304   0.939  41.937  12.298
97880W        W70305  17.991   7.943   4.830
97881W        W70306  24.587  28.667   1.855
97882W        W70307  18.596  13.768  14.012
97883W        W70308  43.970  34.180   0.342
97884W        W70309  13.650  40.735   4.325
97885W        W70310   4.430  25.040   0.638
97886W        W70311  14.190  27.298   3.296
97887W        W70312  15.543  30.242   2.833
97888W        W70313  29.931   7.925  12.988
97889W        W70314  23.182  11.373   1.570
97890W        W70315  35.008  10.355   1.490
97891W        W70316  10.810  40.863   0.443
97892W        W70317  31.781  32.865  11.143
97893W        W70318   9.165  28.302  11.805
97894W        W70319   9.793  31.636  11.047
97895W        W70320  28.403  12.672   3.237
97896W        W70321  12.343  10.396  12.501
97897W        W70322   4.326  31.469   0.401
97898W        W70323  19.287  32.003  11.969
97899W        W70324  39.446   6.094   4.099
97900W        W70325  14.648  18.243   3.805
97901W        W70326  16.972  34.559  12.230
97902W        W70327  16.704   9.940   0.495
97903W        W70328  22.076   0.754  10.672
97904W        W70329  34.251  37.829  14.775
97905W        W70330  23.727   6.982  14.360
97906W        W70331  10.797  43.193  11.002
97907W        W70332   2.535   0.856   0.057
97908W        W70333  41.612  22.507  10.614
97909W        W70334  38.889   5.525   2.714
97910W        W70335  12.514  13.156   1.596
97911W        W70336  17.265   4.380  13.319
97912W        W70337  23.667  33.882   3.685
97913W        W70338  17.806  31.684  14.838
97914W        W70339  16.755  35.861  14.325
97915W        W70340  12.350   1.188   4.139
97916W        W70341  41.050   4.572  11.545
97917W        W70342  33.121  21.937  14.951
97918W        W70343  44.029  24.017  14.284
97919W        W70344  12.900  44.507  14.407
97920W        W70345  25.023  28.866  10.689
97921W        W70346  40.036  36.891  11.875
97922W        W70347   6.555  37.456   5.123
97923W        W70348  19.303  31.951  12.538
97924W        W70349   0.036   9.960   4.547
97925W        W70350   7.214  27.892   2.558
97926W        W70351  18.569   2.068  12.935
97927W        W70352  10.955   9.269   2.292
97928W        W70353   5.919   8.098  11.169
97929W        W70354  41.793  36.805  12.555
97930W        W70355  19.233  32.520  11.993
97931W        W70356  35.513  41.785  14.286
97932W        W70357  22.522  30.908  12.360
97933W        W70358  31.203  36.128   4.799
97934W        W70359  35.802  38.393   3.332
97935W        W70360  44.800   7.247   3.034
97936W        W70361   8.335   2.279   4.367
97937W        W70362  25.126  41.887   2.225
97938W        W70363  12.628   3.400  11.698
97939W        W70364  29.489   5.348   4.693
97940W        W70365  29.011   7.485   3.110
97941W        W70366   8.183  39.391  12.447
97942W        W70367  21.341  43.758  14.881
97943W        W70368  43.124   3.144  11.111
97944W        W70369  15.247  24.427   1.836
97945W        W70370  20.590  18.336  11.635
97946W        W70371  42.945  32.666   2.642
97947W        W70372  16.256  27.461  10.574
97948W        W70373  18.521   0.206   4.031
97949W        W70374  29.123  33.860   4.941
97950W        W70375   5.100  42.493   1.904
97951W        W70376  39.075   1.238  11.494
97952W        W70377   2.633  13.722  11.237
97953W        W70378  36.157  13.641  12.602
97954W        W70379  28.937  31.427   1.700
97955W        W70380  16.640  27.708  10.830
97956W        W70381   1.438  44.744   0.434
97957W        W70382  43.175  34.468  13.488
97958W        W70383  17.279  37.950   3.645
97959W        W70384   2.000  29.967  14.076
97960W        W70385  20.645  30.086  13.558
97961W        W70386  44.975  23.279   3.831
97962W        W70387  39.903  41.778   3.281
97963W        W70388   2.061   7.406   3.789
97964W        W70389  24.576  28.106   3.666
97965W        W70390  31.677  33.396  12.335
97966W        W70391  18.958  41.988   1.830
97967W        W70392   4.993  43.216  11.859
97968W        W70393  20.118  11.281  13.318
97969W        W70394  10.891  10.870  14.806
97970W        W70395  15.951   5.971   4.766
97971W        W70396  16.607  23.201  12.132
97972W        W70397   0.028  18.326  11.016
97973W        W70398  10.659  15.791   3.385
97974W        W70399  12.123  17.551  13.621
97975W        W70400   0.340   8.253  13.759
97976W        W70401  31.625  24.586   1.390
97977W        W70402  13.176  31.844  11.171
97978W        W70403  26.963  31.416  10.038
97979W        W70404  10.161  11.123   4.191
97980W        W70405  42.935  43.971   4.135
97981W        W70406  39.366  35.127  12.011
97982W        W70407  25.508  19.576  10.594
97983W        W70408   1.500   0.002  11.411
97984W        W70409  44.315  26.564   2.019
97985W        W70410   0.377  13.006   0.698
97986W        W70411  20.652  40.030   4.121
97987W        W70412  15.684  16.812  11.709
97988W        W70413  13.226  21.585   3.325
97989W        W70414  15.985  23.220  14.353
97990W        W70415  17.139  31.670  14.355
97991W        W70416   5.851   2.676  11.979
97992W        W70417  18.682  34.007  11.183
97993W        W70418  19.223  25.730  12.637
97994W        W70419  16.760  30.430   2.401
97995W        W70420  26.763   1.257   3.154
97996W        W70421   9.078   0.812   9.788
97997W        W70422  37.123  30.061   0.173
97998W        W70423   0.603  33.402   3.781
97999W        W70424   3.688  27.986   3.160
98000W        W70425  11.689  43.054  13.486
98001W        W70426  21.001  16.639   4.545
98002W        W70427   9.161  37.280   5.011
98003W        W70428  39.660  30.157   3.126
98004W        W70429   6.846   3.559   3.139
98005W        W70430  19.868  17.288  14.915
98006W        W70431  23.226  37.410  12.505
98007W        W70432   2.616  21.357  11.969
98008W        W70433   3.292   5.395  12.140
98009W        W70434  18.208  16.896   1.321
98010W        W70435  31.715  24.413   3.281
98011W        W70436   4.168  27.751   3.141
98012W        W70437  24.183  28.235   5.114
98013W        W70438  40.317   0.839   1.824
98014W        W70439  18.670   2.755   4.343
98015W        W70440  38.304  42.420   5.530
98016W        W70441  16.583  17.621  11.093
98017W        W70442  34.838  14.370  11.590
98018W        W70443  34.168   3.722  14.941
98019W        W70444  38.950  22.953  14.940
98020W        W70445  16.271  43.110   0.080
98021W        W70446  38.485  15.861  14.530
98022W        W70447  13.688  18.157   3.711
98023W        W70448  13.717  30.569  13.855
98024W        W70449  12.087  41.120   4.074
98025W        W70450  26.187   1.322   2.365
98026W        W70451   3.372  28.462   2.907
98027W        W70452   2.270  24.582   4.693
98028W        W70453  19.555   7.676   1.758
98029W        W70454   9.958  30.004   4.173
98030W        W70455   0.495   2.483   0.910
98031W        W70456  14.464  18.730  11.130
98032W        W70457   2.219  27.671   4.600
98033W        W70458  44.882  24.978  13.426
98034W        W70459  25.382  38.971   5.037
98035W        W70460  29.144  25.220  12.584
98036W        W70461  41.097  20.560   0.879
98037W        W70462  36.789  28.652  12.215
98038W        W70463  43.263  43.532   4.122
98039W        W70464  19.292   8.827  10.808
98040W        W70465  42.005  20.051  14.729
98041W        W70466  30.384  15.822   2.312
98042W        W70467  13.159  25.708   4.297
98043W        W70468  41.828  41.438   0.270
98044W        W70469  15.901  31.552   3.401
98045W        W70470   7.480  43.894   3.659
98046W        W70471  26.727  17.717   2.303
98047W        W70472  18.352  12.261  14.827
98048W        W70473  29.117  37.943   0.688
98049W        W70474  22.571  27.652  12.119
98050W        W70475  40.259  17.538   1.250
98051W        W70476  14.628   6.270   0.953
98052W        W70477  10.248  16.219  13.905
98053W        W70478  17.365   8.677  11.769
98054W        W70479   5.252  24.632   3.189
98055W        W70480  20.765  21.650  13.086
98056W        W70481  40.024  21.668   2.893
98057W        W70482   2.878  42.545   0.667
98058W        W70483  43.156  30.343  13.399
98059W        W70484  40.793  22.731  11.151
98060W        W70485  16.205  41.568  13.988
98061W        W70486  44.229  11.222   1.209
98062W        W70487  41.548  16.394   1.925
98063W        W70488  37.039  25.713  11.619
98064W        W70489  17.986  35.876  11.069
98065W        W70490  39.513  35.765  10.732
98066W        W70491  10.348  19.518   1.328
98067W        W70492  37.606  31.603  12.892
98068W        W70493   1.171  42.832   1.880
98069W        W70494   0.004  32.742   0.744
98070W        W70495   8.774  22.980   0.292
98071W        W70496  37.995   1.268  13.280
98072W        W70497  30.427  14.891  12.017
98073W        W70498  42.420  11.410   1.822
98074W        W70499  42.906  41.651   0.680
98075W        W70500  37.533  36.530  11.937
98076W        W70501  29.366   5.429   2.304
98077W        W70502  12.713  13.410  12.108
98078W        W70503   2.892   7.645   3.579
98079W        W70504  43.769   2.736  13.951
98080W        W70505  40.530   9.838  11.216
98081W        W70506  14.832  24.648   3.722
98082W        W70507  23.322  26.079   0.814
98083W        W70508  39.816  17.188  10.599
98084W        W70509   5.184  13.291   1.881
98085W        W70510   2.434  37.402  13.784
98086W        W70511  42.090  11.848   3.148
98087W        W70512  24.104  38.375   2.909
98088W        W70513  22.058  26.472  14.784
98089W        W70514   0.952  42.466  13.407
98090W        W70515  31.790  20.150  11.950
98091W        W70516  39.517  38.902  13.034
98092W        W70517  42.432  23.742  11.040
98093W        W70518  34.057  42.306   4.525
98094W        W70519  17.521  32.433  14.369
98095W        W70520  14.115  21.746   4.679
98096W        W70521  21.250  32.149   3.830
98097W        W70522  22.430  24.220   4.532
98098W        W70523  32.556  14.713   3.864
98099W        W70524  19.530   6.061  11.072
98100W        W70525  37.853  28.568   4.249
98101W        W70526  11.213  39.981   2.812
98102W        W70527  43.226  12.280   3.743
98103W        W70528  18.878  26.650   4.961
98104W        W70529  27.669  20.993  11.223
98105W        W70530  20.443  30.415  11.095
98106W        W70531  23.676  38.593   2.654
98107W        W70532   0.649  35.056   1.681
98108W        W70533  34.706  28.500   1.826
98109W        W70534  11.893  37.660  12.912
98110W        W70535  35.270  33.618   0.027
98111W        W70536  18.112   9.200   4.569
98112W        W70537  37.813  34.878   2.161
98113W        W70538   4.887  44.341  13.311
98114W        W70539  21.177  41.255   1.818
98115W        W70540  36.508  35.408   2.119
98116W        W70541   5.406  13.663  13.025
98117W        W70542   4.280  14.873   0.316
98118W        W70543  29.562  38.275  13.309
98119W        W70544  24.363  11.765   4.339
98120W        W70545  33.633  14.699   3.638
98121W        W70546   0.377  44.470   4.646
98122W        W70547  27.322  34.225  14.953
98123W        W70548  27.688  43.937  11.056
98124W        W70549   0.968  15.935   5.053
98125W        W70550   6.834  34.918   3.271
98126W        W70551  10.665  25.181  13.315
98127W        W70552   2.921  27.495   0.449
98128W        W70553  25.861  29.564   4.484
98129W        W70554  25.812  39.921  11.683
98130W        W70555  43.119   4.851  11.878
98131W        W70556   3.152  12.165  11.196
98132W        W70557   4.847  26.989  14.388
98133W        W70558  14.729  40.552   3.828
98134W        W70559  19.534  20.285  13.138
98135W        W70560  31.240  37.391  10.635
98136W        W70561  28.358   7.893  11.998
98137W        W70562  39.285  42.472  14.010
98138W        W70563  23.492  36.393   2.235
98139W        W70564  19.666  27.892   1.987
98140W        W70565  22.672  28.124   1.871
98141W        W70566  18.357  34.641   4.264
98142W        W70567  20.257  16.680   1.110
98143W        W70568  28.656  12.169   2.188
98144W        W70569  44.795  28.494  13.463
98145W        W70570  25.953  26.179  12.884
98146W        W70571  40.704   9.938  13.850
98147W        W70572  21.176   5.203   4.589
98148W        W70573  34.040   0.910  14.019
98149W        W70574   7.143  31.516  11.497
98150W        W70575  27.504  30.023   3.684
98151W        W70576  30.414  10.836   3.286
98152W        W70577  25.470  13.214   4.323
98153W        W70578  19.910  17.584  10.872
98154W        W70579  12.840  39.824   2.880
98155W        W70580  29.851  36.966   4.507
98156W        W70581  12.166  43.473   3.659
98157W        W70582  17.787  20.815  13.324
98158W        W70583  29.383  11.068  12.505
98159W        W70584  33.308   3.204   3.669
98160W        W70585  36.076  14.756   2.874
98161W        W70586  13.809  31.156   2.770
98162W        W70587  26.538   9.795  11.142
98163W        W70588  13.213   3.838   2.492
98164W        W70589  36.328  35.140   0.947
98165W        W70590  20.111  41.943  10.652
98166W        W70591   3.403  33.899   1.217
98167W        W70592  37.725  29.488  11.501
98168W        W70593   8.205   1.090  11.480
98169W        W70594  10.985  20.217   2.401
98170W        W70595  28.388  27.669   0.986
98171W        W70596  13.119   6.207   0.013
98172W        W70597  15.287  17.904  14.451
98173W        W70598   6.523  22.951  12.589
98174W        W70599  20.704   8.369  12.520
98175W        W70600   2.990  42.504   1.171
98176W        W70601  24.756  32.234  14.449
98177W        W70602  16.777   9.797  13.569
98178W        W70603   2.943   9.589  14.468
98179W        W70604   6.054  13.488  12.024
98180W        W70605  10.784  19.185   0.460
98181W        W70606   2.862  43.891  13.378
98182W        W70607   9.183  22.611   1.951
98183W        W70608  18.993   4.077   2.141
98184W        W70609  26.877  21.426   1.413
98185W        W70610   0.376  14.112  12.500
98186W        W70611  39.931  17.634   2.150
98187W        W70612   8.087  20.600  10.664
98188W        W70613  32.935  43.902   0.326
98189W        W70614  26.404  19.945   1.954
98190W        W70615  24.492  44.417   3.712
98191W        W70616  30.297  33.844  11.123
98192W        W70617  26.543  40.854   1.198
98193W        W70618  24.555  19.012   2.223
98194W        W70619   1.980  16.220   0.643
98195W        W70620  36.555  34.499  12.073
98196W        W70621  15.603  24.036   1.857
98197W        W70622  16.427  34.673   3.343
98198W        W70623  33.226  17.586   4.265
98199W        W70624  44.717  32.344  11.011
98200W        W70625  21.704   6.852   0.137
98201W        W70626  20.140  42.316  13.389
98202W        W70627  40.260  20.505   4.121
98203W        W70628  44.300   7.191  11.906
98204W        W70629  37.409  33.966   1.301
98205W        W70630  36.936  10.336  13.511
98206W        W70631  32.451  30.520   3.691
98207W        W70632   0.077  24.042  11.540
98208W        W70633  34.595   0.379   1.765
98209W        W70634  40.463  31.436   3.164
98210W        W70635  22.189  38.826   0.975
98211W        W70636  37.979  29.093   0.185
98212W        W70637  24.892  25.842  12.923
98213W        W70638   4.796   7.852   1.684
98214W        W70639  28.176  13.591   3.376
98215W        W70640   4.807  35.080   0.400
98216W        W70641  44.267  20.693  11.579
98217W        W70642  42.002   2.229  10.532
98218W        W70643  18.858  34.617   4.127
98219W        W70644  27.676  36.902   1.863
98220W        W70645  38.521   3.223   1.729
98221W        W70646   3.511  24.401   3.677
98222W        W70647   0.811  43.640   1.863
98223W        W70648  36.584  30.738   4.236
98224W        W70649  37.875  33.221  14.901
98225W        W70650   6.283  38.477  12.471
98226W        W70651  22.450  18.988  11.033
98227W        W70652  37.356  43.015   2.434
98228W        W70653  23.716  17.747   1.431
98229W        W70654  33.843  38.374  11.867
98230W        W70655   0.523  36.545  13.933
98231W        W70656  44.093   0.260   1.876
98232W        W70657  39.736   2.984  11.626
98233W        W70658  15.329  34.675   4.811
98234W        W70659  38.297  14.545   1.198
98235W        W70660   0.360  15.603  14.485
98236W        W70661   4.088  13.360  13.410
98237W        W70662  43.440  39.274   2.953
98238W        W70663  26.650   8.761   2.762
98239W        W70664  42.439  32.619  11.509
98240W        W70665  36.349  32.831   0.493
98241W        W70666  41.217   0.264  13.482
98242W        W70667  44.663  21.281  13.668
98243W        W70668   5.806  32.013   2.421
98244W        W70669  28.641  11.609  13.893
98245W        W70670  15.328   7.889   2.239
98246W        W70671  27.456  41.276  14.366
98247W        W70672  26.270   9.617  12.992
98248W        W70673  26.128  37.794   2.373
98249W        W70674   7.463  37.410  13.080
98250W        W70675  33.840  14.752   3.172
98251W        W70676  42.505  44.845  12.113
98252W        W70677  40.528  40.922  12.942
98253W        W70678  44.860  25.977  11.854
98254W        W70679  16.072  21.904  14.052
98255W        W70680  38.087  26.205   5.000
98256W        W70681  43.417  30.853  11.642
98257W        W70682  28.797  21.960  13.363
98258W        W70683  18.457  29.558   9.914
98259W        W70684  18.225   6.765  13.074
98260W        W70685  24.917  33.892   3.228
98261W        W70686   0.540   6.797  11.565
98262W        W70687  17.638  23.483  10.410
98263W        W70688   6.790  26.733  11.960
98264W        W70689  41.325  40.877   3.059
98265W        W70690  39.081  12.650   3.672
98266W        W70691   8.949  21.320  13.930
98267W        W70692  23.179  43.928  12.810
98268W        W70693  23.342   8.818   3.707
98269W        W70694   9.341  28.328   4.449
98270W        W70695   5.810   6.186  13.075
98271W        W70696  24.479  26.652  14.612
98272W        W70697  27.071  10.039  14.817
98273W        W70698   3.029  39.544   0.545
98274W        W70699   1.169  10.060  14.955
98275W        W70700  12.650  26.541   5.251
98276W        W70701  36.493  15.859   3.229
98277W        W70702   5.163  18.173  12.816
98278W        W70703  44.247  20.263   1.168
98279W        W70704  34.164  23.720  13.897
98280W        W70705  37.581  36.497   3.105
98281W        W70706   8.652  40.718   4.141
98282W        W70707  17.613  15.557  11.454
98283W        W70708  41.797  22.587  11.111
98284W        W70709  35.633  37.127   0.348
98285W        W70710  16.239   4.627  10.119
98286W        W70711  14.936  23.737  14.110
98287W        W70712  40.406   9.539  13.732
98288W        W70713  20.281  18.241   3.991
98289W        W70714   5.763  40.503  14.873
98290W        W70715  32.768   3.420  10.194
98291W        W70716  33.364  42.905  14.745
98292W        W70717  29.620   3.251   1.294
98293W        W70718   6.688  31.297  14.324
98294W        W70719  19.294  25.454  13.584
98295W        W70720  14.700  18.769  10.623
98296W        W70721  32.450   4.731   4.381
98297W        W70722  22.251   1.469   1.761
98298W        W70723  44.566  27.616   3.233
98299W        W70724  11.890   8.183   0.505
98300W        W70725  32.435  34.726  11.178
98301W        W70726  37.111  36.910  10.625
98302W        W70727  41.790  10.310   0.214
98303W        W70728  35.528  15.561  13.041
98304W        W70729   3.729  22.819  12.384
98305W        W70730  27.543  41.288  14.876
98306W        W70731  35.381  23.999   3.993
98307W        W70732  17.602  13.813   2.265
98308W        W70733   0.232  20.174   1.624
98309W        W70734  10.410   0.701   4.209
98310W        W70735  14.587  35.866  12.054
98311W        W70736  17.726  35.294   1.821
98312W        W70737  24.040  38.547   0.813
98313W        W70738  24.427  22.593   3.517
98314W        W70739  17.082  23.664   3.301
98315W        W70740  19.612  26.296   0.810
98316W        W70741  43.355   1.978   3.608
98317W        W70742  32.491  34.368   4.356
98318W        W70743  26.595   0.058   0.272
98319W        W70744  10.923  19.162   3.631
98320W        W70745  10.203   6.543   1.861
98321W        W70746  26.251  24.099  14.473
98322W        W70747  13.794  36.125  13.007
98323W        W70748   3.526   2.019   9.868
98324W        W70749  39.507  30.628   2.197
98325W        W70750  17.172  13.466   4.478
98326W        W70751  26.134  26.562   0.963
98327W        W70752   3.238  15.400   3.020
98328W        W70753  20.207  27.668  11.238
98329W        W70754  15.676   1.729   3.272
98330W        W70755  39.881  24.682  14.766
98331W        W70756  43.447  29.498  10.691
98332W        W70757   0.518   8.360  10.715
98333W        W70758  11.893  22.666   4.666
98334W        W70759   3.639   4.237   0.505
98335W        W70760  15.353  23.598   5.006
98336W        W70761  14.268  12.930  14.991
98337W        W70762  19.275  42.123   2.708
98338W        W70763  29.616  14.436   3.394
98339W        W70764  36.921  29.165   3.775
98340W        W70765  13.251   8.194   0.905
98341W        W70766   9.263  25.539   4.374
98342W        W70767  39.923  44.937   9.842
98343W        W70768  44.351   1.883  11.005
98344W        W70769  11.800  36.114   1.908
98345W        W70770  28.690   1.514   4.617
98346W        W70771  33.986  43.868   2.620
98347W        W70772  30.597  35.523   1.944
98348W        W70773   2.399  40.847  11.213
98349W        W70774   8.875   4.464  11.105
98350W        W70775  32.049  39.772   0.293
98351W        W70776   4.418  17.699   3.314
98352W        W70777  24.617  29.259  12.157
98353W        W70778  42.756  41.879  14.215
98354W        W70779  32.877  40.911  11.548
98355W        W70780  22.905  22.802   4.218
98356W        W70781  38.859  40.089  12.539
98357W        W70782  30.908  37.356  13.977
98358W        W70783  41.552  10.028   3.340
98359W        W70784  15.221  22.858  12.648
98360W        W70785  21.221   4.429   3.719
98361W        W70786  14.342   5.379   2.275
98362W        W70787   3.954  39.810  13.882
98363W        W70788  24.077  15.545  14.259
98364W        W70789  24.223  27.991  14.834
98365W        W70790  22.867  10.992   3.703
98366W        W70791  28.716  20.045  11.225
98367W        W70792  18.668   9.136   4.542
98368W        W70793  16.066  26.044   4.742
98369W        W70794  36.077  21.621  11.527
98370W        W70795  12.076  42.332   2.070
98371W        W70796   6.348  14.183  14.709
98372W        W70797  32.989  25.499  11.151
98373W        W70798  26.922  25.157   3.639
98374W        W70799   1.334   6.806   1.898
98375W        W70800  31.057  37.958   0.721
98376W        W70801  10.333  10.228   4.550
98377W        W70802  20.232  33.004   2.430
98378W        W70803  42.560  43.047   3.860
98379W        W70804  18.014  36.040  12.507
98380W        W70805  24.555  39.897   2.159
98381W        W70806  13.671  18.702   3.623
98382W        W70807  32.640  37.398   0.651
98383W        W70808  36.079   0.433   0.428
98384W        W70809  13.331   9.372   4.972
98385W        W70810   7.512  17.265   0.894
98386W        W70811  31.423  30.429   1.046
98387W        W70812  34.846   6.961   4.050
98388W        W70813  13.103  23.026   1.413
98389W        W70814  10.675   0.790  12.038
98390W        W70815  31.952  34.096  11.637
98391W        W70816   4.172  36.688  14.518
98392W        W70817  31.084   8.557   1.436
98393W        W70818  31.416  10.610   1.710
98394W        W70819  43.339   2.018  12.085
98395W        W70820   9.149  25.422  11.503
98396W        W70821   3.679  40.327  12.110
98397W        W70822  29.110  36.402   2.296
98398W        W70823  34.370  14.818   0.706
98399W        W70824   0.555   9.176   2.444
98400W        W70825  41.007   2.537   3.671
98401W        W70826  41.870  18.404   2.393
98402W        W70827  33.619  12.225   4.168
98403W        W70828  32.193  36.546  14.583
98404W        W70829   5.431  43.318   4.213
98405W        W70830   2.950  25.494  13.995
98406W        W70831  27.032  41.945  10.269
98407W        W70832  15.294  13.432  13.003
98408W        W70833  39.094  40.861  14.826
98409W        W70834   0.573   4.126   3.902
98410W        W70835  24.975  35.297  11.609
98411W        W70836  14.111  38.446   1.633
98412W        W70837  17.618  18.881  11.655
98413W        W70838  42.834  30.177  10.469
98414W        W70839  22.247   0.463   0.722
98415W        W70840  40.459  30.622   2.156
98416W        W70841   6.202   3.246  11.218
98417W        W70842  25.118  24.217  12.152
98418W        W70843   4.468   3.799   1.814
98419W        W70844   2.208  29.131   0.325
98420W        W70845  40.387  27.596   4.701
98421W        W70846  38.342  10.174   1.200
98422W        W70847   9.619  36.872   0.760
98423W        W70848  11.421  41.938  12.471
98424W        W70849  22.595   8.024   4.651
98425W        W70850  18.869   3.053   0.635
98426W        W70851  29.145  13.167  11.929
98427W        W70852  31.075   6.768  11.438
98428W        W70853  12.097  13.754  13.467
98429W        W70854  38.091  22.672  12.159
98430W        W70855  17.173  12.907   2.216
98431W        W70856   6.336  11.199  11.656
98432W        W70857  39.358  24.764  11.017
98433W        W70858  28.034  13.524   0.555
98434W        W70859   2.422  27.177   3.220
98435W        W70860  40.803   8.568   1.917
98436W        W70861  15.692  21.625   2.827
98437W        W70862   1.986  30.485  13.962
98438W        W70863  22.438   2.557   4.972
98439W        W70864  39.888  10.269   5.185
98440W        W70865  40.867  15.277   1.470
98441W        W70866   6.346  36.938   9.990
98442W        W70867  44.283  36.746   4.170
98443W        W70868   1.813  27.471   0.105
98444W        W70869  23.144  42.933  12.486
98445W        W70870  21.614  34.866  13.018
98446W        W70871  33.510  38.565  11.107
98447W        W70872   5.325  33.047  12.597
98448W        W70873  15.593  13.140   1.302
98449W        W70874   6.234   8.867   2.191
98450W        W70875  40.483  20.829   3.774
98451W        W70876  40.053  42.336   2.402
98452W        W70877  22.532  35.438  11.107
98453W        W70878   6.495  35.932   4.984
98454W        W70879  37.540  20.176  10.645
98455W        W70880   3.892  13.608   0.241
98456W        W70881  30.530  44.302   4.671
98457W        W70882  36.194  14.122  12.877
98458W        W70883  15.615  11.155   1.411
98459W        W70884  18.698  43.906   3.317
98460W        W70885  11.823  27.487   4.691
98461W        W70886  20.780  33.641   3.630
98462W        W70887   4.826  24.808  11.431
98463W        W70888  18.081   8.837  13.799
98464W        W70889  39.577   7.713   2.154
98465W        W70890  39.268  30.644  14.885
98466W        W70891   2.220  40.753  13.926
98467W        W70892   4.471  23.939  14.598
98468W        W70893  28.910  33.145   0.061
98469W        W70894  23.962   8.109  14.009
98470W        W70895  43.209  32.902   0.499
98471W        W70896  24.806  43.339  12.785
98472W        W70897  38.437  33.953  13.010
98473W        W70898  41.328  34.266  13.805
98474W        W70899  16.366  25.648   0.816
98475W        W70900  33.155  43.319  12.034
98476W        W70901  35.874  29.188  11.106
98477W        W70902  30.884   8.832   5.002
98478W        W70903  18.277  36.811   1.776
98479W        W70904  43.969  12.599  14.797
98480W        W70905   7.754  38.627   4.429
98481W        W70906   7.546  37.287  13.866
98482W        W70907  26.338  40.958  11.841
98483W        W70908  41.401  27.552   1.281
98484W        W70909  26.624  32.523   0.354
98485W        W70910  25.036  35.031   4.525
98486W        W70911   9.826  37.890   4.176
98487W        W70912  15.192  25.575   2.764
98488W        W70913  40.785   8.031  11.415
98489W        W70914   9.073  32.852   1.334
98490W        W70915   6.853  20.129   2.666
98491W        W70916  24.820  37.398  12.829
98492W        W70917  41.467  41.538  14.023
98493W        W70918  11.649  28.466  13.437
98494W        W70919  10.664  40.455   0.715
98495W        W70920   9.327  43.417   1.198
98496W        W70921  43.820  25.977  14.320
98497W        W70922  25.743  25.651  10.691
98498W        W70923  10.203   9.660   2.480
98499W        W70924  23.966  41.021  10.763
98500W        W70925  29.166   4.883  13.491
98501W        W70926  20.258   8.293  11.239
98502W        W70927  35.485  27.348   0.382
98503W        W70928   1.363  33.963   3.927
98504W        W70929  38.055  41.078   2.752
98505W        W70930  34.946   7.268   2.124
98506W        W70931  22.990   0.789  13.319
98507W        W70932  25.169  41.319  12.609
98508W        W70933  44.552  34.551  11.160
98509W        W70934   7.948  30.076  12.400
98510W        W70935  41.328  43.562   3.307
98511W        W70936  14.544  27.968   4.881
98512W        W70937  12.811  31.951  12.633
98513W        W70938   6.217  40.037  11.604
98514W        W70939   4.080   5.354  13.745
98515W        W70940  21.890  38.685   4.623
98516W        W70941  43.902  38.044  14.401
98517W        W70942  12.303  38.336  13.559
98518W        W70943   2.142  24.231   2.946
98519W        W70944  12.079  43.928  10.648
98520W        W70945   6.878  27.076   4.596
98521W        W70946   4.428  14.912   3.171
98522W        W70947  42.036   2.550  14.608
98523W        W70948  26.577  12.937  13.873
98524W        W70949  24.204   4.674   3.744
98525W        W70950   0.249  44.454  12.401
98526W        W70951  23.527   8.780   1.640
98527W        W70952  44.577  13.640   1.214
98528W        W70953  18.481  23.515  14.022
98529W        W70954  11.428  24.694  11.183
98530W        W70955   8.735  15.524   4.877
98531W        W70956  22.086  36.773  13.967
98532W        W70957   3.807   4.519  11.962
98533W        W70958  21.459  14.081  13.373
98534W        W70959   9.113  43.761  13.581
98535W        W70960  35.603  37.072   2.715
98536W        W70961  18.577  17.676   0.834
98537W        W70962   1.951  27.826   3.666
98538W        W70963  12.240  28.963   3.224
98539W        W70964  21.157   0.680  13.509
98540W        W70965  23.389  17.547   3.827
98541W        W70966  30.369  17.888   9.958
98542W        W70967  39.254   9.944  14.893
98543W        W70968  28.238   6.689  11.139
98544W        W70969  34.279  19.162  11.560
98545W        W70970  24.616  39.518   2.782
98546W        W70971   0.716  43.750  12.836
98547W        W70972  27.716   9.756  10.623
98548W        W70973  21.995  36.444  11.691
98549W        W70974  11.352   6.318   9.828
98550W        W70975   9.219  22.171  12.570
98551W        W70976  14.798   3.468   3.110
98552W        W70977   1.673  28.941   4.045
98553W        W70978   2.923   6.210  10.687
98554W        W70979  27.262  15.202   4.493
98555W        W70980   1.756  22.133  12.182
98556W        W70981  25.460   1.368  13.826
98557W        W70982  29.552  42.711  11.579
98558W        W70983  26.205  13.274   0.713
98559W        W70984   4.274  19.810  14.603
98560W        W70985  43.479  10.855   2.464
98561W        W70986  39.074  25.266  12.524
98562W        W70987  26.303  19.006  13.034
98563W        W70988  41.404   6.425  13.019
98564W        W70989  27.741  27.481  11.173
98565W        W70990   3.777  16.629  11.050
98566W        W70991   0.797  24.279   2.519
98567W        W70992  11.128  28.082   4.800
98568W        W70993  13.211  22.138   3.095
98569W        W70994  16.655  15.386  13.829
98570W        W70995  38.962  26.101   0.835
98571W        W70996   1.022   2.843   3.214
98572W        W70997  31.735  28.223   3.743
98573W        W70998  25.846  24.432   2.180
98574W        W70999   0.537  31.131  10.729
98575W        W71000  39.420  38.662   2.811
98576W        W71001  19.034  44.835  14.442
98577W        W71002  24.050  26.002  12.349
98578W        W71003  30.368  37.986  12.009
98579W        W71004  32.399   1.482   1.348
98580W        W71005   4.675  36.291  12.473
98581W        W71006   8.827  13.837   1.411
98582W        W71007  41.564  35.469   4.035
98583W        W71008  40.604  44.024  12.800
98584W        W71009  22.478  38.000  10.488
98585W        W71010  14.096  17.890   1.853
98586W        W71011  36.713   6.741   1.475
98587W        W71012  26.446  40.393   4.678
98588W        W71013  24.218  16.054  11.868
98589W        W71014  11.094  33.049   4.596
98590W        W71015  33.445   8.818  13.210
98591W        W71016  15.542   4.311   2.714
98592W        W71017  35.446  16.511  12.097
98593W        W71018  17.256   4.054   1.896
98594W        W71019  14.266  30.069   1.797
98595W        W71020  38.784  40.719  10.601
98596W        W71021  17.623   9.300  13.336
98597W        W71022   4.553  22.145   0.905
98598W        W71023  24.494  43.205  12.384
98599W        W71024  44.036  40.813   0.019
98600W        W71025   4.334  18.265  11.512
98601W        W71026  44.143  22.658   4.989
98602W        W71027  11.137  27.143  11.146
98603W        W71028   7.848  29.039  14.933
98604W        W71029   4.857  19.763  12.869
98605W        W71030  43.046  34.102  10.726
98606W        W71031  42.806  40.897   2.303
98607W        W71032  17.500  28.589  14.443
98608W        W71033  39.466  37.331   2.323
98609W        W71034  31.983  20.763  12.510
98610W        W71035  34.944   2.756   4.238
98611W        W71036  18.175  10.665   4.433
98612W        W71037  36.323  23.183  14.061
98613W        W71038  22.747  29.167   2.199
98614W        W71039  31.940  16.135   3.248
98615W        W71040   2.298  28.762  10.967
98616W        W71041  25.164  43.965   0.006
98617W        W71042  39.951  27.755  13.931
98618W        W71043  40.280  16.860  12.139
98619W        W71044  44.852  36.180  11.957
98620W        W71045  17.241  14.885   4.153
98621W        W71046  42.721  17.201  13.286
98622W        W71047  21.680  41.452  13.212
98623W        W71048  34.037  37.100   2.248
98624W        W71049   0.215  29.415   4.118
98625W        W71050  32.391  44.045  12.975
98626W        W71051   1.843   3.892   3.574
98627W        W71052  17.820   1.231  13.833
98628W        W71053  30.700  18.311  13.521
98629W        W71054  39.039  27.586   1.959
98630W        W71055  28.372  29.527  12.429
98631W        W71056  20.171  19.152   1.724
98632W        W71057  36.298  20.361   4.128
98633W        W71058  33.097   3.366   2.251
98634W        W71059   5.395   8.452  10.740
98635W        W71060   0.799  26.720  11.906
98636W        W71061   2.200  11.080  11.550
98637W        W71062   3.481  14.257  10.587
98638W        W71063  30.190  17.057   3.661
98639W        W71064  27.658  31.362  12.100
98640W        W71065  41.091   4.043  11.504
98641W        W71066   3.732  40.088  13.516
98642W        W71067  17.092  26.521   0.195
98643W        W71068  25.211  42.988   2.654
98644W        W71069  38.204   1.034   3.217
98645W        W71070  13.095   1.554  12.932
98646W        W71071  28.526   5.729  14.506
98647W        W71072  23.308   1.306  10.658
98648W        W71073  15.536   7.985   4.707
98649W        W71074   6.239  28.605   4.853
98650W        W71075  32.798   3.852   4.147
98651W        W71076  40.827  13.089   0.845
98652W        W71077   3.712  26.603   2.122
98653W        W71078   8.526  35.256   9.780
98654W        W71079  23.233  37.831   3.240
98655W        W71080  32.057  24.896   4.567
98656W        W71081  34.065  19.589   0.014
98657W        W71082   0.514  24.362  14.780
98658W        W71083  21.454  19.128  14.280
98659W        W71084  18.746  43.694   1.695
98660W        W71085  27.246  27.121   2.600
98661W        W71086   3.644   3.265   3.863
98662W        W71087  34.580  11.357   3.148
98663W        W71088  12.883   0.354   4.054
98664W        W71089   4.826   6.825  13.343
98665W        W71090  13.605  15.698   9.813
98666W        W71091   3.286   2.027   0.829
98667W        W71092  14.134  37.741  14.876
98668W        W71093  39.984  33.406   2.868
98669W        W71094  33.953   0.370   3.152
98670W        W71095  23.463  30.246   4.567
98671W        W71096  33.988  28.506  12.271
98672W        W71097   0.799  18.632  10.650
98673W        W71098  40.366  21.337   2.669
98674W        W71099  13.490  12.834  10.802
98675W        W71100   8.603  33.116   2.937
98676W        W71101  16.111  37.056   4.552
98677W        W71102  38.960  43.489  13.468
98678W        W71103   8.395  32.438  14.018
98679W        W71104  17.308  11.675  14.811
98680W        W71105   3.789   0.279   1.481
98681W        W71106  40.253   2.739  12.974
98682W        W71107  34.940   6.949   3.119
98683W        W71108  11.751  10.538   0.534
98684W        W71109  39.008  15.670   2.159
98685W        W71110  30.806  37.071  12.053
98686W        W71111  44.284  26.476   0.990
98687W        W71112  22.283   4.973   0.267
98688W        W71113  16.508  28.565  14.778
98689W        W71114   6.006   4.822  13.383
98690W        W71115  24.016   5.753   4.848
98691W        W71116   0.763  13.088   2.461
98692W        W71117  21.628  37.577  13.931
98693W        W71118  24.102   0.319   0.742
98694W        W71119  37.825  18.119   4.320
98695W        W71120  26.773  12.320   2.419
98696W        W71121  25.596  31.903  13.550
98697W        W71122  23.726  22.618  14.368
98698W        W71123  28.924   1.721  12.454
98699W        W71124  23.377  12.592   2.761
98700W        W71125  15.688   6.345   1.872
98701W        W71126  20.114  26.098  12.443
98702W        W71127  15.764   0.340  14.842
98703W        W71128  21.539  40.544  14.425
98704W        W71129  40.823  26.795  11.179
98705W        W71130  25.571  44.426   0.974
98706W        W71131  44.299  35.032  11.129
98707W        W71132  23.156  32.895  14.221
98708W        W71133   1.022   1.500   2.612
98709W        W71134  17.856  22.103  12.761
98710W        W71135  20.942  35.615   1.464
98711W        W71136  41.896   1.700  14.828
98712W        W71137   0.795  40.344  11.552
98713W        W71138  10.647  15.054  11.619
98714W        W71139  24.508  42.549  14.488
98715W        W71140   1.442  27.516  14.696
98716W        W71141  29.095  30.107   2.313
98717W        W71142  43.292  40.287   2.781
98718W        W71143  32.088  25.055  13.371
98719W        W71144   2.388   8.487  11.594
98720W        W71145  10.268  33.499  10.955
98721W        W71146  13.861   0.683   1.560
98722W        W71147  14.996   1.840   0.757
98723W        W71148  36.786  29.638   3.916
98724W        W71149   0.850  29.412   1.859
98725W        W71150  36.090   8.161  13.571
98726W        W71151  20.617  22.996   1.894
98727W        W71152  44.347  28.887  13.785
98728W        W71153   8.468  16.728  10.658
98729W        W71154  20.085  22.178  13.352
98730W        W71155  26.996  41.157   2.584
98731W        W71156  35.015   0.628  11.515
98732W        W71157  23.777  31.566   2.355
98733W        W71158  10.534  18.248  13.444
98734W        W71159  23.674  32.400   3.838
98735W        W71160   6.598  41.829   4.813
98736W        W71161   7.698  17.874  12.607
98737W        W71162  16.112  27.690  12.030
98738W        W71163  14.135  18.298  13.102
98739W        W71164   8.426   0.047   3.660
98740W        W71165  31.517  38.071  12.563
98741W        W71166  35.803  26.662  12.934
98742W        W71167  11.557   4.099  13.906
98743W        W71168  28.607  21.895  12.498
98744W        W71169  24.657   4.202   2.613
98745W        W71170  20.167  38.955   2.790
98746W        W71171  43.586  44.795  12.049
98747W        W71172  19.052  41.591  14.920
98748W        W71173  31.924  10.443  12.092
98749W        W71174  35.603  19.159   0.423
98750W        W71175  29.333  26.730   0.522
98751W        W71176  11.695   9.328  13.287
98752W        W71177  43.068  25.277  13.902
98753W        W71178  15.421  38.298   0.301
98754W        W71179  33.988  36.579  11.056
98755W        W71180  31.897  42.977  13.211
98756W        W71181  21.188   9.690   2.366
98757W        W71182  25.092  18.617  14.256
98758W        W71183  36.670   0.980  14.785
98759W        W71184  23.951  15.559  13.752
98760W        W71185  37.332   3.327   4.427
98761W        W71186   8.160  34.180  14.809
98762W        W71187  16.704  37.133   0.964
98763W        W71188  10.840  19.402   1.466
98764W        W71189   2.355  30.138   2.368
98765W        W71190  10.134   2.696   4.442
98766W        W71191   5.780  36.726  10.612
98767W        W71192  22.276  39.912  13.023
98768W        W71193   0.429  39.389   2.105
98769W        W71194   7.591  30.028   0.203
98770W        W71195  15.268  21.238   1.908
98771W        W71196  16.097   5.711   1.424
98772W        W71197  21.463  41.892  12.342
98773W        W71198  28.667  31.385  13.817
98774W        W71199  39.632  18.332  13.398
98775W        W71200  21.719  13.234  12.408
98776W        W71201  31.987  37.777   0.773
98777W        W71202   2.564  35.590  10.571
98778W        W71203  16.569   1.998  11.730
98779W        W71204  25.471  31.471   3.832
98780W        W71205  44.360  16.671  14.106
98781W        W71206  34.823  32.359  14.049
98782W        W71207  25.990  44.797   2.745
98783W        W71208  25.939  22.861   0.962
98784W        W71209  12.192  24.155   4.665
98785W        W71210  28.724  24.991  11.107
98786W        W71211  12.931  33.837  10.377
98787W        W71212  30.127  28.506  12.091
98788W        W71213  12.286   0.758  11.801
98789W        W71214  28.164  36.323  12.907
98790W        W71215   3.052   5.212  10.655
98791W        W71216  40.788   8.051   1.996
98792W        W71217  25.035   4.926  10.765
98793W        W71218   0.356  19.491  12.843
98794W        W71219  33.569  37.557  13.465
98795W        W71220   6.640  41.266  11.447
98796W        W71221   6.739  21.517   4.668
98797W        W71222  11.783  29.707  12.135
98798W        W71223  19.985  14.083   4.154
98799W        W71224  11.392  10.256  14.068
98800W        W71225   2.234  40.416   2.847
98801W        W71226  26.225  14.031  12.505
98802W        W71227  36.765  36.805  13.003
98803W        W71228  20.574  10.943  13.374
98804W        W71229  41.514   8.355   2.189
98805W        W71230   1.217  18.400   2.338
98806W        W71231  32.045  40.562   0.721
98807W        W71232   3.830  43.515  11.990
98808W        W71233  14.859  22.324  14.342
98809W        W71234  36.315  20.709  13.388
98810W        W71235  42.525  28.005  11.914
98811W        W71236  13.832   3.934   3.147
98812W        W71237  35.917  23.678   0.341
98813W        W71238  34.592  23.073  12.519
98814W        W71239  22.713  15.797  10.684
98815W        W71240  24.327  20.071   4.905
98816W        W71241   4.520  13.123  14.379
98817W        W71242   4.782  42.001  13.743
98818W        W71243   6.980  41.284  14.806
98819W        W71244  17.432   0.125  10.921
98820W        W71245  38.268  22.562   1.279
98821W        W71246   2.020   8.314   0.343
98822W        W71247  23.988  38.116   1.781
98823W        W71248  36.353  12.631  11.161
98824W        W71249  12.560  30.547  11.557
98825W        W71250  35.591  35.081   1.292
98826W        W71251   4.469  27.541   1.344
98827W        W71252  29.908   6.896   0.819
98828W        W71253  14.844  41.518  10.599
98829W        W71254  39.955  39.080   0.433
98830W        W71255   6.918  21.617   3.147
98831W        W71256  15.782   0.553  13.407
98832W        W71257  34.989  21.602  14.698
98833W        W71258  43.224  36.147   4.041
98834W        W71259  44.767  26.854   2.189
98835W        W71260  35.991  28.283   2.033
98836W        W71261  17.512  25.585   3.436
98837W        W71262  40.436  43.557   1.308
98838W        W71263  29.837  36.209   0.112
98839W        W71264   6.889  11.235  12.523
98840W        W71265   8.398  23.941   0.522
98841W        W71266  42.552  15.798   0.058
98842W        W71267  33.483  29.571   4.787
98843W        W71268  20.348   4.465  12.161
98844W        W71269  36.920  21.752  14.016
98845W        W71270  30.099  27.108   0.026
98846W        W71271  25.137  29.185  12.458
98847W        W71272   3.398  29.009  12.586
98848W        W71273  15.086   1.562  14.120
98849W        W71274  12.935  43.189   3.312
98850W        W71275  22.419  30.397  14.804
98851W        W71276   9.569  12.629   3.105
98852W        W71277  22.019  11.637  10.891
98853W        W71278  41.369  41.032   1.457
98854W        W71279  42.101   6.029  14.246
98855W        W71280  11.254  41.350  12.982
98856W        W71281  21.594   9.463  13.857
98857W        W71282  34.877  26.068   4.144
98858W        W71283  40.891  44.271  11.720
98859W        W71284   7.926  42.443  11.950
98860W        W71285  36.037  24.147   2.841
98861W        W71286  39.025  24.977   2.186
98862W        W71287  43.905   6.249  14.911
98863W        W71288  27.036   8.774  11.001
98864W        W71289  11.280  22.670  12.645
98865W        W71290  37.074   1.986   1.759
98866W        W71291  13.224  30.451   0.741
98867W        W71292  35.381  41.071   2.196
98868W        W71293   2.716  15.473  14.628
98869W        W71294  24.117  15.292   2.406
98870W        W71295  33.204  25.720  11.581
98871W        W71296  30.918  38.515   0.735
98872W        W71297  26.642   6.297  11.599
98873W        W71298  19.227  10.511   0.499
98874W        W71299  22.117   6.862   1.331
98875W        W71300  35.068  28.880  13.866
98876W        W71301  37.617   3.777   4.538
98877W        W71302  15.552  33.089   2.745
98878W        W71303  22.077  38.408   1.243
98879W        W71304   0.781  44.009   0.088
98880W        W71305  36.876  26.666  10.778
98881W        W71306  31.627  29.605   2.736
98882W        W71307  25.427  29.740   1.781
98883W        W71308  20.130  30.004  10.995
98884W        W71309  30.047  41.418  14.390
98885W        W71310  36.426   5.396   2.797
98886W        W71311  25.396  36.837   0.591
98887W        W71312  20.805  30.982   2.490
98888W        W71313  40.906  25.612  13.027
98889W        W71314  44.891  19.257   0.719
98890W        W71315  22.529  36.294  11.102
98891W        W71316   3.892   9.764   4.151
98892W        W71317  41.920  10.669  11.150
98893W        W71318   3.553  29.533   0.411
98894W        W71319  39.866  42.433  10.322
98895W        W71320  40.849  31.969  12.929
98896W        W71321  27.111   4.385   3.823
98897W        W71322  22.171  25.037   3.355
98898W        W71323  20.625   6.868   4.128
98899W        W71324  41.363  30.109  13.948
98900W        W71325  31.018  37.482   3.437
98901W        W71326   4.717   1.581  14.799
98902W        W71327  30.592  37.387   2.379
98903W        W71328  15.766  29.954   0.234
98904W        W71329  18.547  39.925  13.894
98905W        W71330  11.726  30.849   2.701
98906W        W71331  34.098  13.345  11.378
98907W        W71332  11.409  11.790  12.117
98908W        W71333  33.981   7.048   3.994
98909W        W71334  25.007   3.282   4.747
98910W        W71335   5.285   6.848  12.977
98911W        W71336   5.586  36.452  12.043
98912W        W71337  19.585  41.778   3.875
98913W        W71338  27.004   1.245  10.980
98914W        W71339   0.976  25.145  12.064
98915W        W71340  17.817   7.378   1.773
98916W        W71341  38.370   5.271  10.602
98917W        W71342  22.854   8.937  12.339
98918W        W71343   0.391  41.969   4.955
98919W        W71344   1.997  20.341  11.702
98920W        W71345  11.299  14.800   0.991
98921W        W71346  21.113  19.144   0.206
98922W        W71347   6.885  16.593   4.087
98923W        W71348  33.574  36.594   0.540
98924W        W71349   6.362   1.358   4.304
98925W        W71350   2.003   6.905  13.041
98926W        W71351  36.519   1.224   1.878
98927W        W71352  22.678  35.664  13.443
98928W        W71353   3.708  30.995  14.300
98929W        W71354  15.135  28.996   4.797
98930W        W71355   7.269  27.374   3.345
98931W        W71356  11.583  18.582   4.206
98932W        W71357   5.807  30.723  13.377
98933W        W71358  33.080  19.286  14.417
98934W        W71359  27.902   0.945  11.591
98935W        W71360  44.507  12.785  14.579
98936W        W71361  39.775  28.576  14.468
98937W        W71362  44.061  38.499  11.150
98938W        W71363  38.555  35.982  13.528
98939W        W71364  41.195  25.707  11.998
98940W        W71365   5.901   6.248  11.814
98941W        W71366  24.772  12.324   0.585
98942W        W71367  21.664  19.127   1.842
98943W        W71368  33.960  29.173   3.200
98944W        W71369  30.243  18.861  11.734
98945W        W71370  42.696  33.607   0.817
98946W        W71371  22.539  23.781   1.306
98947W        W71372  39.942   9.353   2.864
98948W        W71373  34.466  30.551   4.603
98949W        W71374  43.126   8.850  10.850
98950W        W71375  11.157  19.150  13.476
98951W        W71376  40.692  35.987   4.468
98952W        W71377  10.313   0.200   4.198
98953W        W71378  39.050  12.370  12.850
98954W        W71379   7.832  34.956   1.826
98955W        W71380  29.655  27.519   4.861
98956W        W71381  40.910  44.782   4.522
98957W        W71382  10.970  12.297  13.022
98958W        W71383  19.008   3.785  12.040
98959W        W71384  22.142  43.479   0.668
98960W        W71385  14.531  15.713  10.674
98961W        W71386  41.524   2.548   3.666
98962W        W71387  36.803  11.739   3.576
98963W        W71388  20.680  17.029   0.442
98964W        W71389  36.638  21.296  12.604
98965W        W71390   9.920  14.329  14.528
98966W        W71391  21.988   1.358  11.935
98967W        W71392   5.056  20.033  10.478
98968W        W71393  35.866  12.407  11.093
98969W        W71394  30.903   9.385  12.380
98970W        W71395  41.779  34.319  14.063
98971W        W71396  30.111   0.399   0.012
98972W        W71397   4.913  42.256   2.325
98973W        W71398  13.794   4.346  12.645
98974W        W71399  30.858  25.760  11.961
98975W        W71400  34.508   0.914  12.199
98976W        W71401  11.228   9.146   3.318
98977W        W71402   1.766   9.026   0.912
98978W        W71403  11.678  30.637   3.248
98979W        W71404  40.320  10.812  11.113
98980W        W71405   0.466   5.372   3.745
98981W        W71406  37.966  17.489   0.074
98982W        W71407  28.947   2.531  12.064
98983W        W71408  33.985  28.022   3.811
98984W        W71409  33.580  18.226   4.133
98985W        W71410  22.712  23.078  12.013
98986W        W71411  12.679  22.538   2.828
98987W        W71412  17.629  33.152   1.078
98988W        W71413   0.878  16.343  10.953
98989W        W71414   8.226  42.576   3.087
98990W        W71415   0.976   7.482  13.793
98991W        W71416  36.979  17.690   4.716
98992W        W71417  11.447  25.181   4.546
98993W        W71418  36.859  26.599  14.430
98994W        W71419  12.383  23.308   4.114
98995W        W71420   8.100  33.838  12.003
98996W        W71421  21.329   0.671  14.017
98997W        W71422  18.482  16.629  11.492
98998W        W71423  15.634  22.149  11.647
98999W        W71424  26.007   8.439   3.302
99000W        W71425  21.908  40.062   1.632
99001W        W71426  23.667   6.249   3.845
99002W        W71427   4.296  35.236  11.626
99003W        W71428  19.602  27.107   0.704
99004W        W71429  16.097  18.652  13.357
99005W        W71430  18.478  44.529  11.557
99006W        W71431  14.358  39.594  14.491
99007W        W71432  44.391  18.563   3.046
99008W        W71433  23.056   6.635   4.381
99009W        W71434  35.569  16.357   2.187
99010W        W71435  27.707   6.792  10.583
99011W        W71436  32.845  42.058   1.410
99012W        W71437  40.938  16.921  11.787
99013W        W71438   7.170  41.094  10.739
99014W        W71439  39.925   9.156   4.600
99015W        W71440   9.358  19.288  12.990
99016W        W71441  13.795  33.228  10.685
99017W        W71442  38.394  32.599   3.888
99018W        W71443  16.773   2.760   0.281
99019W        W71444  26.963  15.766  13.722
99020W        W71445  28.478   3.737   2.033
99021W        W71446  36.781   0.900  12.624
99022W        W71447   2.325  20.604   0.323
99023W        W71448  24.982  37.066  12.464
99024W        W71449  20.973  42.390  14.768
99025W        W71450  28.422   1.866  12.420
99026W        W71451  37.995  32.318   3.676
99027W        W71452   0.523  14.275   2.703
99028W        W71453   6.415  42.617  11.547
99029W        W71454  35.694   5.805  13.518
99030W        W71455   0.254  40.938  14.524
99031W        W71456  34.844  31.556  13.368
99032W        W71457  28.783  38.385   1.796
99033W        W71458  19.776  32.195  12.018
99034W        W71459  11.712  24.153   2.526
99035W        W71460  36.370  20.510  12.898
99036W        W71461   6.674  15.664   4.548
99037W        W71462  27.089  19.541   3.661
99038W        W71463  35.854  18.586   3.608
99039W        W71464  36.312  14.032   4.117
99040W        W71465  32.652  20.669   0.360
99041W        W71466  19.326   0.987  10.337
99042W        W71467  10.906  26.629   2.812
99043W        W71468  23.530  42.337  11.060
99044W        W71469  28.997   6.314  10.859
99045W        W71470   6.824  13.264  14.733
99046W        W71471  21.721  19.558  13.353
99047W        W71472   2.692  27.698  13.868
99048W        W71473  26.987   6.906   3.081
99049W        W71474  27.231  25.652  14.380
99050W        W71475  30.477  37.591  14.112
99051W        W71476  21.020  38.439   0.300
99052W        W71477  33.339   1.121  12.136
99053W        W71478  32.650  41.365  13.674
99054W        W71479  32.378   8.281  12.480
99055W        W71480  26.183   8.213  10.702
99056W        W71481  27.095  25.912  11.082
99057W        W71482  12.213  40.282   2.356
99058W        W71483  33.280  36.560   3.315
99059W        W71484  32.071  18.367  10.131
99060W        W71485  39.703  10.141   3.909
99061W        W71486  11.150  27.144   4.697
99062W        W71487   4.375  25.513  14.333
99063W        W71488  42.788  38.684   4.206
99064W        W71489  26.482  20.695  14.351
99065W        W71490  44.808   7.239   3.549
99066W        W71491  13.201   9.869   1.049
99067W        W71492  37.826  10.426  12.005
99068W        W71493  34.508  17.275  10.702
99069W        W71494  35.028  27.952   1.877
99070W        W71495  11.080  25.454  12.132
99071W        W71496   0.861  41.106  11.047
99072W        W71497   8.884  23.640  13.566
99073W        W71498  22.344   3.824  12.423
99074W        W71499  19.536  13.745   1.387
99075W        W71500  36.297   6.391  13.070
99076W        W71501   6.437  41.248  10.982
99077W        W71502  29.039   4.633   3.099
99078W        W71503  40.621  39.795  12.653
99079W        W71504  35.607  44.800   0.846
99080W        W71505  15.761  24.521  10.723
99081W        W71506  19.601  33.922  10.844
99082W        W71507  34.200  33.544  13.649
99083W        W71508  33.367  43.492  12.470
99084W        W71509  12.330  44.398  11.986
99085W        W71510  13.066  44.927  13.039
99086W        W71511  27.568  17.205   4.873
99087W        W71512  42.541  17.475   1.710
99088W        W71513  24.107  23.426  11.050
99089W        W71514   3.401  20.557   2.878
99090W        W71515   5.380  32.986  13.614
99091W        W71516  29.491  43.331   4.790
99092W        W71517   6.901   3.286   1.149
99093W        W71518   5.238  28.972   0.883
99094W        W71519  14.394  28.566   2.745
99095W        W71520  10.932   4.342   0.045
99096W        W71521   7.282  13.307   2.076
99097W        W71522   4.449   1.276   2.793
99098W        W71523  33.141  17.454  11.191
99099W        W71524   1.835   8.720  14.074
99100W        W71525  13.892   5.176   1.919
99101W        W71526  22.472  13.459  12.011
99102W        W71527  23.103  22.230   4.878
99103W        W71528  36.871  36.431  10.705
99104W        W71529  27.607  34.678   2.473
99105W        W71530  12.082   7.939   1.804
99106W        W71531  19.361  17.177  14.883
99107W        W71532   2.044   3.420   1.045
99108W        W71533  30.013  22.803  13.955
99109W        W71534  10.938  11.831  11.921
99110W        W71535  19.224  27.648   0.709
99111W        W71536  14.275  40.812   3.737
99112W        W71537  24.606  31.933   0.461
99113W        W71538  41.838  28.615   3.715
99114W        W71539  35.345  20.003   0.761
99115W        W71540  18.573  14.762   0.430
99116W        W71541  11.772  44.956   2.714
99117W        W71542  30.949  16.830  11.456
99118W        W71543  40.980  25.196   2.476
99119W        W71544  17.714   8.263  14.303
99120W        W71545  14.686  37.409  11.512
99121W        W71546  31.317  17.558  11.880
99122W        W71547  25.718  11.714   3.600
99123W        W71548  28.189  37.136   4.231
99124W        W71549  21.000  30.520  11.127
99125W        W71550  35.491  35.553  10.499
99126W        W71551  24.478  30.591  10.711
99127W        W71552  30.997   3.837   3.966
99128W        W71553  31.136  30.609   4.650
99129W        W71554  12.664  41.282   2.908
99130W        W71555  15.613   7.025   0.835
99131W        W71556  24.948  33.976   2.278
99132W        W71557  26.238  35.174  10.685
99133W        W71558  32.934   3.635   0.447
99134W        W71559  44.050  13.200  13.513
99135W        W71560   8.359  25.251  12.117
99136W        W71561  21.653  35.593  14.554
99137W        W71562  14.633  24.968   4.978
99138W        W71563  18.499  12.263  10.844
99139W        W71564  20.680  10.106  11.043
99140W        W71565   9.142  38.539  13.953
99141W        W71566  38.432  34.466   0.530
99142W        W71567  12.870   1.049  12.987
99143W        W71568  32.198  23.958   1.807
99144W        W71569  28.294  11.192  11.517
99145W        W71570  10.582  35.592  11.960
99146W        W71571  38.543  30.096   4.056
99147W        W71572  19.440   7.437  13.429
99148W        W71573  30.488   6.371   2.188
99149W        W71574  20.083   7.447   0.016
99150W        W71575  36.423   9.724   0.412
99151W        W71576  15.779  34.597   2.814
99152W        W71577   5.258  20.058   4.557
99153W        W71578  13.807  37.965  13.422
99154W        W71579  10.556  31.122  12.543
99155W        W71580  16.829  42.509   2.727
99156W        W71581  26.006  17.139   3.297
99157W        W71582   8.346  19.044   0.856
99158W        W71583   6.199  31.664  11.070
99159W        W71584  34.909  33.388   3.698
99160W        W71585   0.996   6.320  10.936
99161W        W71586  10.721  10.523   4.177
99162W        W71587   2.358  33.243   2.376
99163W        W71588  22.900  28.117   5.077
99164W        W71589  20.039   4.459   2.215
99165W        W71590  39.115  18.863  12.295
99166W        W71591   4.271   0.784  14.256
99167W        W71592  23.747   9.451  14.945
99168W        W71593  11.350  18.688   3.376
99169W        W71594   1.009  32.027   2.845
99170W        W71595  17.409  11.686   2.777
99171W        W71596  12.079  11.581  10.538
99172W        W71597   5.270   3.918   2.623
99173W        W71598  40.118  27.702   1.744
99174W        W71599  31.861   6.255  11.090
99175W        W71600  14.751  28.630   2.368
99176W        W71601  32.014  12.365  11.422
99177W        W71602  19.179   4.625   3.174
99178W        W71603  40.991  37.756   3.643
99179W        W71604  12.262  16.380  10.528
99180W        W71605  32.945  17.793   4.709
99181W        W71606  20.058  41.450   0.838
99182W        W71607  36.522  29.434   1.274
99183W        W71608   5.781  31.042   4.131
99184W        W71609   9.806   1.311  13.037
99185W        W71610  37.151  14.845  14.927
99186W        W71611  17.571  41.284  11.308
99187W        W71612  14.510  21.083  10.804
99188W        W71613  16.551   6.126   2.423
99189W        W71614  14.122   6.931  10.732
99190W        W71615  42.746  16.784   0.768
99191W        W71616  33.016   3.400   4.046
99192W        W71617  35.796  37.784   1.347
99193W        W71618  25.941   8.646  13.493
99194W        W71619  16.591  34.604   4.920
99195W        W71620  41.396  41.382   2.298
99196W        W71621  39.001   6.322   4.610
99197W        W71622  32.815  13.540  12.558
99198W        W71623  11.427  26.623   1.295
99199W        W71624   2.823  17.559   4.569
99200W        W71625  15.207   0.905   3.878
99201W        W71626   3.855  22.408   0.352
99202W        W71627  40.621  26.684   2.431
99203W        W71628  43.191  27.307   3.760
99204W        W71629  27.339  27.348   0.871
99205W        W71630  30.625   6.797   0.367
99206W        W71631  29.375  19.852  10.564
99207W        W71632  22.207  20.100  12.088
99208W        W71633  12.484  37.538  13.513
99209W        W71634   6.944  20.109   1.727
99210W        W71635  12.556   6.334   4.661
99211W        W71636  27.460  11.599  13.013
99212W        W71637  29.514  29.623   1.662
99213W        W71638  34.155   0.204  13.424
99214W        W71639  11.473  19.148   4.216
99215W        W71640   7.243   0.299   4.557
99216W        W71641  40.824  42.577   0.643
99217W        W71642  19.468  18.745  12.632
99218W        W71643  15.281  24.325  12.954
99219W        W71644   1.324  42.308   3.512
99220W        W71645  11.533  36.235   9.829
99221W        W71646  30.139  28.024  10.908
99222W        W71647  31.903  40.620   2.885
99223W        W71648  34.090  44.564  11.165
99224W        W71649  22.701  24.331   4.094
99225W        W71650   6.403  19.700   4.143
99226W        W71651  18.056  18.579  11.664
99227W        W71652  33.924  33.724   0.462
99228W        W71653   2.259  30.866  10.709
99229W        W71654   4.191  24.667  12.025
99230W        W71655  18.141  10.317  10.944
99231W        W71656  42.914  34.885   1.320
99232W        W71657  30.171  39.938   3.157
99233W        W71658  28.170  32.872   2.157
99234W        W71659  39.037  42.550  13.549
99235W        W71660  19.901   7.369  11.563
99236W        W71661  23.055   6.184  12.073
99237W        W71662  19.622  26.775  13.373
99238W        W71663  36.499  23.815   2.882
99239W        W71664   2.618   9.684   0.766
99240W        W71665  22.022  34.232   0.687
99241W        W71666  34.461  44.059   3.684
99242W        W71667   7.312   7.631  10.716
99243W        W71668  40.689  27.142   4.144
99244W        W71669  33.216  34.489  10.946
99245W        W71670  23.561  16.342  12.586
99246W        W71671  43.194  15.025   0.338
99247W        W71672   5.673  16.642  10.580
99248W        W71673  13.579  38.612   1.143
99249W        W71674  18.120   1.479   4.239
99250W        W71675  19.125  35.497   4.212
99251W        W71676  16.244  30.117  14.961
99252W        W71677  19.675  31.491  11.191
99253W        W71678  28.196  19.053  13.645
99254W        W71679  34.500   9.339   3.110
99255W        W71680  32.582  14.097  10.667
99256W        W71681  35.843  15.782   0.472
99257W        W71682   3.717  15.296   2.937
99258W        W71683  22.829  27.369   1.128
99259W        W71684   2.919  16.063  14.766
99260W        W71685  13.643  29.090  13.378
99261W        W71686   3.912  28.138   0.712
99262W        W71687  40.427  19.965  12.010
99263W        W71688   9.459  25.994   1.910
99264W        W71689  11.253  11.045   1.363
99265W        W71690  40.391  30.582   0.256
99266W        W71691  14.722  13.672   1.341
99267W        W71692   2.620  41.716  14.011
99268W        W71693  39.586  18.722  12.081
99269W        W71694  10.723  36.531  11.889
99270W        W71695   9.656   0.734   4.051
99271W        W71696   9.451   3.903   4.410
99272W        W71697  23.647  25.685   0.899
99273W        W71698  33.334  18.144   2.708
99274W        W71699  27.121   7.409  11.927
99275W        W71700  32.405  25.619   1.703
99276W        W71701  43.931  32.912  10.581
99277W        W71702  14.626  10.364   1.880
99278W        W71703  27.961  42.117  14.855
99279W        W71704  44.994   2.854   3.549
99280W        W71705   5.983   7.013   2.670
99281W        W71706  12.214  41.782   3.544
99282W        W71707   1.699   6.136   3.061
99283W        W71708  13.633  40.161   1.984
99284W        W71709   0.315  16.983  12.946
99285W        W71710   1.251  37.913  11.584
99286W        W71711  25.657  40.931   0.945
99287W        W71712  38.127  29.529   0.434
99288W        W71713  29.604   6.193  14.412
99289W        W71714   5.927  44.369  14.970
99290W        W71715   0.621  42.883  14.633
99291W        W71716  29.111  24.409   2.585
99292W        W71717  27.918  41.065   3.368
99293W        W71718  41.925   3.886   4.812
99294W        W71719  10.188  43.745   3.310
99295W        W71720   9.351  33.315  11.697
99296W        W71721   0.936  33.996   4.307
99297W        W71722  26.051  17.496  13.169
99298W        W71723  22.542  26.930   4.899
99299W        W71724   3.868  32.343  12.382
99300W        W71725  43.292   9.954   1.440
99301W        W71726  26.510  16.391   2.317
99302W        W71727  35.002   0.979  12.317
99303W        W71728  29.905  14.569  12.963
99304W        W71729  37.874  23.658  10.147
99305W        W71730  27.736  17.607   4.568
99306W        W71731  16.801   2.308   4.197
99307W        W71732  16.324  11.348  13.144
99308W        W71733  16.433   3.218   9.935
99309W        W71734   7.629  28.731   1.454
99310W        W71735  15.060  11.148   0.587
99311W        W71736  28.462  40.654  10.692
99312W        W71737  17.049   8.106   4.835
99313W        W71738  25.594  23.757   4.352
99314W        W71739  34.974  23.575   0.277
99315W        W71740  13.226   1.244  14.578
99316W        W71741  24.478   5.965   2.701
99317W        W71742  27.322  34.521  11.874
99318W        W71743   9.927  40.175   3.215
99319W        W71744  37.248  16.194   4.273
99320W        W71745   9.451   1.693  12.075
99321W        W71746  26.405  20.120  13.730
99322W        W71747  33.123  30.682   3.961
99323W        W71748  22.817  40.021  11.295
99324W        W71749  20.705  10.221   3.284
99325W        W71750  21.112  29.534  13.976
99326W        W71751  12.965  36.893   4.132
99327W        W71752  35.399  27.547   1.369
99328W        W71753  39.360  23.255  11.967
99329W        W71754  18.787  15.665   1.375
99330W        W71755  32.363   1.817  10.723
99331W        W71756  44.737  35.779  10.667
99332W        W71757  31.343   1.779  10.764
99333W        W71758  30.621   6.223  10.620
99334W        W71759  31.482   8.118   1.865
99335W        W71760  28.595   7.635   4.781
99336W        W71761  27.688   2.604  13.538
99337W        W71762  25.062  28.248   3.575
99338W        W71763  34.381   4.672  11.014
99339W        W71764  19.262  43.652  14.002
99340W        W71765  30.390   1.231  11.112
99341W        W71766   2.399  41.049  11.684
99342W        W71767   1.295  43.806   1.878
99343W        W71768  19.186  39.662  14.427
99344W        W71769   6.725  25.887   3.916
99345W        W71770   7.844  37.996  13.659
99346W        W71771   3.895  41.876  11.669
99347W        W71772  17.229   4.837  12.847
99348W        W71773  27.863  17.633  12.597
99349W        W71774  23.604  38.113  11.243
99350W        W71775  27.753  26.238  10.391
99351W        W71776  19.579   2.000  11.997
99352W        W71777  24.185  42.317   2.265
99353W        W71778  25.576  25.509   1.247
99354W        W71779  36.269  10.713  11.303
99355W        W71780   5.911  29.140   2.321
99356W        W71781  37.001   8.629   1.871
99357W        W71782  42.614  10.152  14.835
99358W        W71783  29.402  26.937   3.693
99359W        W71784   9.182   6.441   3.677
99360W        W71785  32.690  20.190   2.699
99361W        W71786   1.231  27.163  13.056
99362W        W71787  44.931  24.474   3.240
99363W        W71788  26.188   1.742  13.734
99364W        W71789  22.783   6.178  13.764
99365W        W71790  28.231  15.636   3.737
99366W        W71791  33.719  24.047   0.919
99367W        W71792  37.603  17.920  14.534
99368W        W71793  38.804  30.444  14.363
99369W        W71794  16.880   2.766   2.030
99370W        W71795   2.922  38.577   4.284
99371W        W71796  30.982   8.915   2.966
99372W        W71797  43.364  15.767  12.171
99373W        W71798  34.053  41.849   3.309
99374W        W71799  13.651  41.974  12.613
99375W        W71800  26.636   5.525   2.586
99376W        W71801  20.298   1.050  11.694
99377W        W71802  35.435  29.077  14.772
99378W        W71803  19.197  36.295   1.842
99379W        W71804  12.117  39.737   4.390
99380W        W71805  21.035  21.236  14.342
99381W        W71806  17.918  13.705   3.323
99382W        W71807  14.564  19.053   0.359
99383W        W71808  12.274  23.731  12.033
99384W        W71809  34.077  42.569   4.094
99385W        W71810   2.528   4.966   4.723
99386W        W71811   5.939  12.070  14.311
99387W        W71812   6.163  12.218  12.774
99388W        W71813  27.028   9.716   4.660
99389W        W71814  29.651  11.705   4.090
99390W        W71815  10.384  39.876  12.576
99391W        W71816  24.779   6.509  14.255
99392W        W71817  40.298  32.968   3.847
99393W        W71818  30.981  10.066   0.659
99394W        W71819  38.128   7.541   5.112
99395W        W71820   8.949  39.856   3.214
99396W        W71821  18.148  10.738  13.037
99397W        W71822  22.827  24.140   2.745
99398W        W71823  14.691  42.352  11.637
99399W        W71824  15.318  29.616   1.770
99400W        W71825  28.486  24.881   1.150
99401W        W71826  38.946  25.604   3.994
99402W        W71827  35.474  16.417   4.687
99403W        W71828  24.210  20.136   1.433
99404W        W71829  40.181  36.114  11.578
99405W        W71830  40.163  43.112  12.200
99406W        W71831  32.894  35.489   4.039
99407W        W71832  10.472   3.228   2.296
99408W        W71833  42.417   9.714   1.943
99409W        W71834  25.688  42.605   4.097
99410W        W71835  27.447  38.403   2.082
99411W        W71836  30.224   0.853   3.093
99412W        W71837  42.893   8.834  11.834
99413W        W71838   2.209  43.901   1.893
99414W        W71839  18.609  21.438   3.883
99415W        W71840   0.652  12.796   2.878
99416W        W71841  39.874  37.846   0.808
99417W        W71842  33.011  10.864  12.042
99418W        W71843  39.554  11.634   3.240
99419W        W71844  31.070  11.120  10.878
99420W        W71845  16.518  10.899  12.465
99421W        W71846  13.175  24.622   3.368
99422W        W71847  13.198  27.630   3.457
99423W        W71848  30.012  19.921  10.359
99424W        W71849  30.089   1.497  14.333
99425W        W71850  14.260  40.273   1.371
99426W        W71851  36.639  17.662  11.667
99427W        W71852  25.690  36.563  11.138
99428W        W71853  36.010  42.802  12.029
99429W        W71854  20.423  40.580   1.902
99430W        W71855   4.102  20.269  12.471
99431W        W71856  27.466  10.525  12.788
99432W        W71857   0.914  30.572  14.362
99433W        W71858  41.327  35.980   0.531
99434W        W71859  43.432  14.392   1.830
99435W        W71860   1.884   8.912   1.844
99436W        W71861   7.300   6.920   4.125
99437W        W71862  13.790  31.859   4.100
99438W        W71863  27.661   5.947   2.312
99439W        W71864  34.505   2.306   1.186
99440W        W71865   8.635  43.396   0.381
99441W        W71866  37.484  16.757   0.475
99442W        W71867  23.448   4.125  11.988
99443W        W71868  10.440  42.413   1.321
99444W        W71869  18.790  20.729  13.363
99445W        W71870  10.308   8.409  14.253
99446W        W71871   2.230  41.763  11.174
99447W        W71872  44.745  36.558  11.041
99448W        W71873   8.309   6.826   5.285
99449W        W71874  29.665  36.405   0.637
99450W        W71875  22.290  16.890   3.846
99451W        W71876  16.052  11.600   0.366
99452W        W71877  15.862   2.853  11.188
99453W        W71878   4.247  30.949  13.936
99454W        W71879  25.314  33.615   3.544
99455W        W71880   0.091   0.453  13.537
99456W        W71881   7.068  18.482  11.114
99457W        W71882  15.383   8.092  10.970
99458W        W71883  32.782  31.640   2.270
99459W        W71884  35.356  37.407   1.762
99460W        W71885   9.679   4.024  10.718
99461W        W71886  32.400  23.208  13.571
99462W        W71887   5.823  11.834  11.309
99463W        W71888  13.781  42.838   1.747
99464W        W71889  16.211  27.945   0.354
99465W        W71890  30.488  26.516   2.768
99466W        W71891   6.236  36.679   3.367
99467W        W71892  44.579  36.040  11.311
99468W        W71893   4.920  28.502   4.662
99469W        W71894  23.248  17.679  13.627
99470W        W71895  30.433  35.076  14.713
99471W        W71896  17.564  13.670   0.898
99472W        W71897  15.249  20.190   2.735
99473W        W71898  33.494   6.714  10.284
99474W        W71899  22.173  10.109  10.556
99475W        W71900   8.321  40.084  10.299
99476W        W71901  31.048  31.489  12.805
99477W        W71902   6.623  44.811   0.439
99478W        W71903  31.122  39.378   1.034
99479W        W71904  38.948  32.130   0.439
99480W        W71905  40.921  19.396   2.186
99481W        W71906   0.391  43.286  14.391
99482W        W71907  42.539  24.306   1.252
99483W        W71908  43.980  20.634  13.125
99484W        W71909  41.924  32.106   4.597
99485W        W71910   0.865  20.852   4.568
99486W        W71911  23.528  20.647   3.930
99487W        W71912  44.226   2.917   4.638
99488W        W71913  25.589  32.527   1.517
99489W        W71914   2.354  15.379  13.665
99490W        W71915  43.592  21.722  12.485
99491W        W71916  26.625   4.417  10.650
99492W        W71917   6.264  44.913  14.918
99493W        W71918  38.519  37.950   3.707
99494W        W71919   4.485   9.390  11.799
99495W        W71920  32.699   6.897  14.488
99496W        W71921  40.507  33.496   4.037
99497W        W71922  27.640  23.250  11.646
99498W        W71923   3.159  39.112  13.764
99499W        W71924   2.721  30.040   1.905
99500W        W71925   0.511   8.230   0.819
99501W        W71926  15.338  18.310   3.261
99502W        W71927   4.917  37.307   3.171
99503W        W71928  14.711  17.242   0.086
99504W        W71929  29.855   2.351   4.174
99505W        W71930  27.643   2.168   2.074
99506W        W71931   0.024  33.641  11.124
99507W        W71932  24.725  29.917   3.395
99508W        W71933  30.505   7.308  10.943
99509W        W71934  27.044  38.513  14.235
99510W        W71935   6.742  11.247   4.045
99511W        W71936  44.724  27.142  14.968
99512W        W71937  19.733   5.449   0.821
99513W        W71938  10.215  36.554  11.956
99514W        W71939  11.421  25.490   1.913
99515W        W71940   5.029  33.621  10.651
99516W        W71941   9.630  31.178  14.418
99517W        W71942   5.323   7.098   3.194
99518W        W71943  35.123  26.971  14.765
99519W        W71944  27.518  36.279  13.629
99520W        W71945  35.907  25.014  12.465
99521W        W71946  17.341  36.366  14.416
99522W        W71947   8.191  35.317   3.359
99523W        W71948  13.294  42.520   0.888
99524W        W71949  10.390  35.426  10.431
99525W        W71950  25.651  24.648  10.530
99526W        W71951  27.470   8.302   1.076
99527W        W71952  28.857   2.710  11.579
99528W        W71953  29.980  13.457   2.617
99529W        W71954  31.940  40.465   4.616
99530W        W71955   5.714  30.130   2.732
99531W        W71956  28.410  41.720  11.630
99532W        W71957  20.604  17.836   1.524
99533W        W71958  21.118  22.732  11.456
99534W        W71959  23.811  27.211  13.459
99535W        W71960  44.069  23.216   1.369
99536W        W71961  19.387  17.722  10.864
99537W        W71962  30.073  37.467   1.416
99538W        W71963  44.904  34.142   3.736
99539W        W71964  17.857  42.280   0.239
99540W        W71965   2.020  29.259  12.099
99541W        W71966   1.672   2.276   2.431
99542W        W71967  15.797  33.230   2.284
99543W        W71968  29.516  16.774   2.181
99544W        W71969  38.985  23.169  11.098
99545W        W71970   7.400  25.095  10.489
99546W        W71971   6.446   1.887  12.124
99547W        W71972  25.703  43.300   4.642
99548W        W71973  38.732   7.629   3.782
99549W        W71974  28.229  43.282  10.980
99550W        W71975  31.675  34.347   3.912
99551W        W71976  41.549   3.918  10.727
99552W        W71977  34.660  34.120  11.046
99553W        W71978  22.211   4.186  13.748
99554W        W71979  14.600  25.402   2.246
99555W        W71980  16.137  32.847   0.332
99556W        W71981  16.845  15.878  13.799
99557W        W71982  35.133  23.708   5.442
99558W        W71983  32.871  10.740  13.764
99559W        W71984  30.485   9.573  10.518
99560W        W71985   4.478  10.360  11.263
99561W        W71986  14.646  43.989   4.424
99562W        W71987  39.549  43.871  12.855
99563W        W71988  38.572  30.652  12.927
99564W        W71989  22.066  41.749   1.261
99565W        W71990  34.839  24.176  12.925
99566W        W71991   4.620  18.755   3.984
99567W        W71992   2.192   6.318  11.269
99568W        W71993  10.203   5.195  13.753
99569W        W71994  25.504  31.150   0.768
99570W        W71995   9.213  31.913   4.169
99571W        W71996  27.526   4.110  11.682
99572W        W71997  41.772  32.892  12.013
99573W        W71998  34.819   4.317  10.410
99574W        W71999  41.272  22.225  13.073
99575W        W72000  40.118   3.277  13.843
99576W        W72001   6.453  37.382  10.242
99577W        W72002  42.793  14.627   4.374
99578W        W72003  42.021  40.970   1.744
99579W        W72004  39.604   9.233   2.173
99580W        W72005  25.263  32.797   0.206
99581W        W72006  24.510   4.712  10.157
99582W        W72007  22.746  28.836   4.066
99583W        W72008  33.453  13.803   0.493
99584W        W72009  12.849  14.164   0.954
99585W        W72010   1.261  41.442  11.094
99586W        W72011  43.394  40.726   0.779
99587W        W72012  16.550  27.993   4.177
99588W        W72013   8.445  17.314   2.848
99589W        W72014  11.616  41.211   1.957
99590W        W72015  44.721  13.297  12.429
99591W        W72016  38.482  39.836  12.851
99592W        W72017  25.335  12.106  11.061
99593W        W72018  44.051  29.491   0.013
99594W        W72019  12.236   6.953   1.762
99595W        W72020  11.174  35.433  13.299
99596W        W72021  41.617  40.935   4.919
99597W        W72022  12.394  31.418   0.414
99598W        W72023  31.471  32.062  13.397
99599W        W72024  17.728  35.642   0.056
99600W        W72025  36.464  16.300  11.119
99601W        W72026  31.472  20.412  11.305
99602W        W72027   3.439  21.682   4.091
99603W        W72028  14.954  21.909  12.407
99604W        W72029  10.802  36.493   0.713
99605W        W72030  20.949  10.842   1.625
99606W        W72031  43.353   8.909   1.299
99607W        W72032  22.484   1.517  11.875
99608W        W72033  42.998  34.948  10.952
99609W        W72034   4.714  38.310  10.891
99610W        W72035  21.349  27.417  13.560
99611W        W72036   9.687  44.024  11.365
99612W        W72037  22.915  37.800  13.512
99613W        W72038  27.915  13.070   4.674
99614W        W72039   1.306  41.461   1.915
99615W        W72040  10.209  22.267   0.390
99616W        W72041  17.074  42.056  14.273
99617W        W72042  40.701  41.724  13.392
99618W        W72043  29.233   4.492  11.136
99619W        W72044  14.801  27.577  12.578
99620W        W72045  19.413  15.810   0.754
99621W        W72046   3.268  20.267  11.260
99622W        W72047  13.143  31.165   1.840
99623W        W72048  35.368  26.068  10.688
99624W        W72049  37.767  31.068  13.077
99625W        W72050  14.090  31.494   3.928
99626W        W72051  40.259   9.368   1.141
99627W        W72052  12.897  11.211  11.888
99628W        W72053   6.575  44.096   1.293
99629W        W72054  14.068  32.826   0.052
99630W        W72055  27.613  21.744   4.262
99631W        W72056  20.164  34.967   4.786
99632W        W72057  31.974  43.985   4.313
99633W        W72058  32.055   6.128   3.423
99634W        W72059  25.642  33.107   1.773
99635W        W72060  37.094  40.852  12.923
99636W        W72061   3.454  39.330  11.469
99637W        W72062  24.680  16.620  13.537
99638W        W72063  17.570   4.842  10.896
99639W        W72064  27.237  25.406  12.878
99640W        W72065  39.298   3.084   4.213
99641W        W72066  22.691   3.497   2.245
99642W        W72067   1.448  16.063  14.741
99643W        W72068  39.165  10.200   2.265
99644W        W72069  16.585  21.297   4.957
99645W        W72070  32.379  30.137  12.097
99646W        W72071  26.938  42.841   0.388
99647W        W72072   4.376   5.765  13.814
99648W        W72073   5.652   0.866  12.892
99649W        W72074  16.098   0.999  10.154
99650W        W72075  23.071  36.356   0.435
99651W        W72076   4.827  26.208   3.640
99652W        W72077  36.379  13.566   3.415
99653W        W72078  39.315  35.055  14.108
99654W        W72079  22.158  42.223   0.351
99655W        W72080  18.380   7.493  12.937
99656W        W72081  43.012  15.998   2.674
99657W        W72082   8.316  41.887  13.495
99658W        W72083  18.607  29.087  13.434
99659W        W72084  32.599  23.697  11.069
99660W        W72085  18.721  31.428  12.165
99661W        W72086  31.527  40.526  13.646
99662W        W72087   7.526  43.490  11.490
99663W        W72088  23.569  24.940   2.323
99664W        W72089  11.040  29.451   1.924
99665W        W72090  29.999  27.974   1.023
99666W        W72091  40.550  44.140  13.330
99667W        W72092   3.465  39.592   3.980
99668W        W72093  38.548  11.570  14.726
99669W        W72094  17.389  22.179   2.748
99670W        W72095  29.742  26.649  11.451
99671W        W72096   6.194  12.050  11.698
99672W        W72097  20.597  21.536   1.801
99673W        W72098  24.802  10.694   0.957
99674W        W72099  24.075  33.871   1.335
99675W        W72100  21.849  27.511   2.793
99676W        W72101   5.275  25.657   3.309
99677W        W72102   0.833  31.717   2.285
99678W        W72103  44.074  35.647   2.414
99679W        W72104  17.308  40.979   0.769
99680W        W72105  32.319  21.068   0.745
99681W        W72106   7.348  24.597   4.150
99682W        W72107  21.154  11.043   3.747
99683W        W72108  39.809  19.678  11.406
99684W        W72109  35.107   2.347   0.526
99685W        W72110  25.890   9.645  14.249
99686W        W72111   9.089  38.055  12.836
99687W        W72112  28.801  38.137  12.164
99688W        W72113   5.364  43.344   4.736
99689W        W72114   5.764  15.817  11.033
99690W        W72115   3.351  27.291   0.251
99691W        W72116  28.670  19.976  14.565
99692W        W72117   6.725   4.771  11.609
99693W        W72118   5.486  23.138   4.584
99694W        W72119  44.774  19.024   1.175
99695W        W72120  10.662  10.312  11.380
99696W        W72121  25.556  19.990  11.245
99697W        W72122  37.864   0.048   1.668
99698W        W72123   6.422  34.651  12.865
99699W        W72124  20.455  16.575   4.504
99700W        W72125  16.328  23.410  14.008
99701W        W72126   3.949  43.515  13.754
99702W        W72127  35.079   3.678  11.607
99703W        W72128  41.042  15.984   3.650
99704W        W72129  26.731  26.316  13.784
99705W        W72130  11.234  35.081   2.327
99706W        W72131  32.145   3.966  12.401
99707W        W72132  31.161  43.866   4.611
99708W        W72133  18.586  24.791   0.762
99709W        W72134   9.454  28.513   3.981
99710W        W72135  40.996  32.178  13.422
99711W        W72136  32.066   9.118   3.225
99712W        W72137  36.818  31.327  11.521
99713W        W72138  41.734   1.876   4.644
99714W        W72139  27.557   8.856   0.222
99715W        W72140  10.728   7.858   2.804
99716W        W72141  36.110   9.056   3.880
99717W        W72142   1.564   2.997  13.058
99718W        W72143  25.192  30.493   3.239
99719W        W72144   3.872  20.588   0.265
99720W        W72145  29.498  23.672  10.732
99721W        W72146  22.374   9.250  12.086
99722W        W72147  34.334  18.674  14.222
99723W        W72148  24.068  10.207   5.364
99724W        W72149  31.136   7.346  14.864
99725W        W72150  17.514  12.175  14.283
99726W        W72151  44.481  12.099   3.265
99727W        W72152  16.679  35.949  12.470
99728W        W72153   2.851   8.117  14.262
99729W        W72154  19.843  25.272   2.421
99730W        W72155   6.212   3.719   1.445
99731W        W72156  30.674  16.730   0.800
99732W        W72157  15.269  24.512  10.543
99733W        W72158  26.974  26.192   1.268
99734W        W72159  16.012  14.629  14.963
99735W        W72160  23.010  41.076  13.049
99736W        W72161  23.611  24.231  13.430
99737W        W72162  43.451  35.342  13.298
99738W        W72163   9.771  11.928   0.752
99739W        W72164  23.193  44.294  13.587
99740W        W72165  16.242  32.350   3.228
99741W        W72166  20.086   2.011  12.058
99742W        W72167   9.679   4.470  14.347
99743W        W72168  16.354  42.313   2.503
99744W        W72169   4.446   1.537   3.265
99745W        W72170   6.606  19.658   2.615
99746W        W72171   5.809  31.236  13.493
99747W        W72172  21.962  16.287   2.213
99748W        W72173  30.176   3.889  13.611
99749W        W72174  28.095  20.177   0.177
99750W        W72175  29.610  19.782   2.392
99751W        W72176   7.731   6.642  10.338
99752W        W72177  26.545  44.071   0.345
99753W        W72178  44.980  29.317   3.605
99754W        W72179  21.007  41.930  14.473
99755W        W72180  24.710  37.850  10.447
99756W        W72181  21.170  14.119  14.335
99757W        W72182  35.977  40.505   2.701
99758W        W72183   6.297   1.899  11.588
99759W        W72184  20.072  22.201  12.395
99760W        W72185  12.727  18.567  14.055
99761W        W72186  37.358   7.897   0.800
99762W        W72187   3.618  11.790  14.836
99763W        W72188  22.275  37.116  11.431
99764W        W72189   7.914  13.928   4.977
99765W        W72190  19.477  23.591  14.056
99766W        W72191  12.797  44.830   1.645
99767W        W72192  37.007  15.082  10.405
99768W        W72193  17.277  36.493  13.332
99769W        W72194  35.923  22.183  12.842
99770W        W72195   3.724  17.215  10.106
99771W        W72196   2.838   0.941  11.410
99772W        W72197  18.226  20.560   2.971
99773W        W72198  30.618   5.858   0.778
99774W        W72199   7.246   4.959   2.640
99775W        W72200  33.504   7.498   2.744
99776W        W72201  12.899  34.960   3.977
99777W        W72202  15.769   8.792  12.186
99778W        W72203   6.460  41.125  13.973
99779W        W72204   3.742  23.419   3.641
99780W        W72205  30.806  41.448  13.790
99781W        W72206  33.694  15.187  12.903
99782W        W72207  40.536  36.784   0.341
99783W        W72208   4.962   6.336  13.484
99784W        W72209   0.942  23.658  11.678
99785W        W72210   3.910  13.305   4.635
99786W        W72211   9.873  28.440   3.667
99787W        W72212  26.534  15.235  14.294
99788W        W72213  44.202  13.763  12.090
99789W        W72214  31.459  28.714   4.249
99790W        W72215  44.581   9.304   3.229
99791W        W72216   8.468  10.603   3.767
99792W        W72217  21.241  17.900   0.752
99793W        W72218  13.203  37.667  11.992
99794W        W72219  21.726   6.340  14.353
99795W        W72220  26.125  29.490  10.698
99796W        W72221  16.223   6.590  14.323
99797W        W72222  42.289   1.430   4.183
99798W        W72223  11.642  16.579   0.272
99799W        W72224  37.847  37.929   1.547
99800W        W72225  11.873  39.219   5.101
99801W        W72226  13.189  44.386   3.337
99802W        W72227  35.578  44.355   2.826
99803W        W72228  24.885  14.799   1.459
99804W        W72229  30.418  22.490  13.876
99805W        W72230  22.614  34.997  11.494
99806W        W72231  30.136  25.672  14.689
99807W        W72232  12.114  22.633   0.561
99808W        W72233   0.292  35.857   1.857
99809W        W72234  30.734  15.682   2.832
99810W        W72235  23.061  41.314  11.996
99811W        W72236   6.388   7.385  13.484
99812W        W72237   8.277  26.645  12.605
99813W        W72238  17.215  20.124  13.367
99814W        W72239  20.113  29.673   9.964
99815W        W72240  33.997  27.288   2.642
99816W        W72241  35.502   7.419  14.503
99817W        W72242  41.740  18.238   4.044
99818W        W72243  20.014  13.797   4.652
99819W        W72244  34.850  32.041   0.816
99820W        W72245  27.633  21.130  13.093
99821W        W72246  42.792  13.708   4.493
99822W        W72247  32.805   4.560  13.376
99823W        W72248  18.380  31.078   1.445
99824W        W72249   5.782  34.024   1.798
99825W        W72250  40.083  40.184  14.113
99826W        W72251  36.752  14.270   3.992
99827W        W72252  36.116  12.316   3.377
99828W        W72253  13.416   6.160  12.527
99829W        W72254  23.560  40.599   4.879
99830W        W72255  19.818  23.139   0.253
99831W        W72256  27.899  33.435  13.945
99832W        W72257  30.611  26.391   1.245
99833W        W72258  35.025  16.159  14.568
99834W        W72259  37.351  22.983   1.785
99835W        W72260  26.460  31.050   3.943
99836W        W72261  11.153  28.989   1.679
99837W        W72262  20.547  13.719   4.163
99838W        W72263   4.955  21.501  14.332
99839W        W72264  31.506  43.355   4.634
99840W        W72265  24.736   4.659   2.828
99841W        W72266  12.835  38.438  12.582
99842W        W72267  13.557   1.408   0.483
99843W        W72268  28.223  21.176  14.407
99844W        W72269  24.501  16.302  11.444
99845W        W72270  21.085  42.056   4.637
99846W        W72271  30.688  20.207  10.556
99847W        W72272  15.319  37.539   3.260
99848W        W72273  36.803  33.407  14.851
99849W        W72274  10.704   2.233   1.693
99850W        W72275  34.419   8.094  10.927
99851W        W72276  19.817   2.793   2.810
99852W        W72277   6.492  14.856  14.104
99853W        W72278  44.921  14.534  11.939
99854W        W72279   3.273   2.913   3.120
99855W        W72280   0.871  28.895   1.911
99856W        W72281  14.319  20.752   3.029
99857W        W72282  16.764  11.414  14.522
99858W        W72283  24.029  24.712  11.535
99859W        W72284  22.059   9.179  11.231
99860W        W72285  30.579  11.213   1.797
99861W        W72286  39.392  10.773   1.279
99862W        W72287  12.300  23.312  13.826
99863W        W72288  22.878   5.067  11.657
99864W        W72289  13.339   9.577  14.620
99865W        W72290  11.290   4.394   2.348
99866W        W72291  27.711  16.367   4.570
99867W        W72292  18.137   4.622  14.276
99868W        W72293  31.155  20.649   0.464
99869W        W72294  16.059   0.481   0.242
99870W        W72295   1.301   0.751   2.730
99871W        W72296  43.912   3.907  11.021
99872W        W72297  16.273  14.644   2.876
99873W        W72298   7.263  12.817   4.683
99874W        W72299  13.835  31.121  13.316
99875W        W72300  23.685   3.860  11.197
99876W        W72301  33.117  34.443   1.619
99877W        W72302   2.216  39.075  14.465
99878W        W72303  33.851  13.318  12.557
99879W        W72304  14.082   7.750  10.995
99880W        W72305  18.552  17.696   4.384
99881W        W72306   9.724  43.232  14.002
99882W        W72307  12.406   0.229  11.540
99883W        W72308  39.333  12.872  10.659
99884W        W72309  39.407  36.033  14.500
99885W        W72310   7.735  33.695   1.958
99886W        W72311  12.620   9.673  13.885
99887W        W72312  33.141   7.626  11.168
99888W        W72313  28.616  37.600  14.578
99889W        W72314  27.910  30.443   2.825
99890W        W72315  21.256   2.913   0.254
99891W        W72316  29.110  41.256   1.836
99892W        W72317   0.368  33.349  12.925
99893W        W72318  14.035  21.809  12.595
99894W        W72319   3.032  37.025  12.535
99895W        W72320  18.178   8.736   2.023
99896W        W72321  23.206  20.997   2.644
99897W        W72322  17.097  41.440   4.542
99898W        W72323  11.412   6.778  13.048
99899W        W72324  35.869  28.429  11.602
99900W        W72325  42.868  15.403   0.250
99901W        W72326  27.707  12.232  12.477
99902W        W72327  29.492  11.033  11.104
99903W        W72328  18.042  15.359   0.848
99904W        W72329  32.894  28.241  11.649
99905W        W72330  30.850   3.539  12.963
99906W        W72331   9.428   7.856   2.235
99907W        W72332  21.838  27.100   1.702
99908W        W72333  41.446  22.603   3.881
99909W        W72334  39.959  34.490   1.849
99910W        W72335   0.546  33.877   0.408
99911W        W72336   4.833  30.167  13.878
99912W        W72337  12.361   7.468  13.768
99913W        W72338  44.504   5.106   0.896
99914W        W72339  19.984  29.862   1.788
99915W        W72340  25.009  27.982   0.741
99916W        W72341  15.048  42.995  13.783
99917W        W72342  27.200  34.084   4.598
99918W        W72343  35.193  24.906   5.456
99919W        W72344  28.319   9.781  12.897
99920W        W72345  20.383  18.735   0.524
99921W        W72346   7.262  31.465  13.122
99922W        W72347  30.926   5.878  10.845
99923W        W72348  38.348  25.905  14.947
99924W        W72349  11.370  28.428   3.025
99925W        W72350  26.028  20.761   2.334
99926W        W72351  42.353  30.865  12.528
99927W        W72352  17.265  18.072  14.827
99928W        W72353  19.252   0.245  11.954
99929W        W72354   9.700   6.759  14.406
99930W        W72355  28.489  31.168  12.550
99931W        W72356  38.758  13.422  14.867
99932W        W72357   9.753  33.489  10.799
99933W        W72358  18.022  23.252  11.376
99934W        W72359  12.313  14.600  14.449
99935W        W72360   8.943  26.141  14.720
99936W        W72361   1.738  24.135  12.705
99937W        W72362   0.703  15.846   4.222
99938W        W72363  16.049   0.759   3.126
99939W        W72364  15.267  43.354  10.633
99940W        W72365  29.597  40.094  10.922
99941W        W72366  25.444  13.326   2.063
99942W        W72367  44.794  12.709   4.748
99943W        W72368  21.682  22.691  11.991
99944W        W72369  37.348  15.878  11.860
99945W        W72370  14.359  35.531  11.717
99946W        W72371  34.561  18.637   0.317
99947W        W72372   7.097  24.719  11.947
99948W        W72373  11.735  25.207  14.137
99949W        W72374  10.751  13.103   2.201
99950W        W72375  18.269  25.502   1.169
99951W        W72376  16.132   6.382   2.606
99952W        W72377  30.453  37.365  13.109
99953W        W72378  36.506   0.876  13.969
99954W        W72379  31.485  17.967  12.590
99955W        W72380  35.406  15.211  12.022
99956W        W72381   6.788  11.290  14.406
99957W        W72382  18.172  12.534   0.300
99958W        W72383  20.492   7.891  14.543
99959W        W72384  24.045  20.597   4.104
99960W        W72385  17.806  17.006  14.450
99961W        W72386   0.967  22.942  11.216
99962W        W72387  14.689  30.611   1.280
99963W        W72388  28.974  21.614   2.880
99964W        W72389  13.361  34.512  11.480
99965W        W72390   0.290   6.870  13.784
99966W        W72391  17.224  21.194   4.771
99967W        W72392  15.523  42.209   1.432
99968W        W72393   4.829  18.723   2.660
99969W        W72394  39.851   9.683  12.916
99970W        W72395  21.589  37.139  14.346
99971W        W72396  19.458  10.461  11.656
99972W        W72397   4.167  43.905   4.153
99973W        W72398  44.439  37.899  12.480
99974W        W72399  29.495  21.202  11.995
99975W        W72400  20.259  23.899   1.735
99976W        W72401  31.083   4.890  12.209
99977W        W72402  24.054  17.840  14.297
99978W        W72403   8.727   7.398  12.516
99979W        W72404  34.074  34.019   4.203
99980W        W72405  12.166  25.685   3.246
99981W        W72406  19.811  18.658  10.749
99982W        W72407  43.984   7.309   4.143
99983W        W72408  34.579  11.121   0.056
99984W        W72409   4.376  17.279   1.739
99985W        W72410  17.587  21.238   0.402
99986W        W72411  38.914  38.886   4.618
99987W        W72412  32.511  29.126  11.354
99988W        W72413   5.115   7.787  14.394
99989W        W72414  13.771  42.225   0.972
99990W        W72415  18.228  32.548   5.055
99991W        W72416  31.024  22.830  14.411
99992W        W72417  21.741   0.185  11.170
99993W        W72418  39.105  25.463   0.804
99994W        W72419  21.548   0.507   4.892
99995W        W72420  23.676  39.427  10.660
99996W        W72421  38.174  33.302   0.925
99997W        W72422   7.036  14.032  11.725
99998W        W72423  35.198  13.986  11.586
99999W        W72424  31.673  33.408  13.222
    0W        W72425   3.856  18.778  13.628
    1W        W72426  43.982  34.118  12.434
    2W        W72427  21.207  19.595  10.724
    3W        W72428  12.315  18.569   3.202
    4W        W72429  14.165   5.242   3.361
    5W        W72430   3.964  10.179  13.811
    6W        W72431   3.498   2.490  14.924
    7W        W72432   3.635   2.973  14.654
    8W        W72433  18.605  35.880  14.847
    9W        W72434  30.229  26.866   2.010
   10W        W72435  17.279  33.627  12.159
   11W        W72436  32.531  13.068  10.719
   12W        W72437   6.130  11.140   1.726
   13W        W72438  22.703  13.287   3.642
   14W        W72439  40.362  38.944  13.587
   15W        W72440  31.594  18.121  11.578
   16W        W72441  39.036  16.583  10.705
   17W        W72442  15.379  22.088  13.434
   18W        W72443   8.338  25.523  14.351
   19W        W72444  20.810  17.354   0.059
   20W        W72445  13.872  37.957   4.102
   21W        W72446  19.198  10.815  10.721
   22W        W72447  44.174  36.150   2.284
   23W        W72448  27.862  27.084   4.587
   24W        W72449  25.768  37.446  11.647
   25W        W72450  17.013   6.959  11.817
   26W        W72451  11.714   2.290   0.031
   27W        W72452  23.660  14.550  12.878
   28W        W72453  30.136   3.783   0.836
   29W        W72454  11.257  35.186  11.889
   30W        W72455   7.683  39.381  14.697
   31W        W72456  33.670  44.951   3.310
   32W        W72457   4.882  14.737  14.990
   33W        W72458  27.950  27.793   1.220
   34W        W72459  15.835  23.571   0.329
   35W        W72460  10.938  40.437   3.326
   36W        W72461  41.339  35.599   1.704
   37W        W72462  32.635  16.852   1.754
   38W        W72463  20.199   4.173  14.313
   39W        W72464  18.065   1.564  12.554
   40W        W72465  20.676  38.426  13.547
   41W        W72466  29.626  37.541   2.561
   42W        W72467   9.893  19.146   4.126
   43W        W72468  43.012  36.195  13.772
   44W        W72469  17.692  13.884  10.692
   45W        W72470  10.678  25.188  11.961
   46W        W72471  31.019  42.130  14.946
   47W        W72472  19.829  42.850  10.648
   48W        W72473  29.316  34.986  14.741
   49W        W72474  27.409  36.803   2.678
   50W        W72475  41.059  30.174  12.570
   51W        W72476  32.153   3.951  14.810
   52W        W72477  43.413  39.484  11.921
   53W        W72478  33.084  22.126   3.712
   54W        W72479  37.347  29.050  13.121
   55W        W72480  30.829  33.435   0.215
   56W        W72481   3.414   1.760  14.369
   57W        W72482  40.194  25.446  14.392
   58W        W72483   1.413  38.102  13.869
   59W        W72484  31.173  13.292  11.465
   60W        W72485   1.720  14.950   4.917
   61W        W72486  36.918  29.082  11.902
   62W        W72487   9.659  37.834   3.633
   63W        W72488  27.636  18.602   1.380
   64W        W72489   4.793  41.275   3.248
   65W        W72490  41.823  43.308   3.315
   66W        W72491   6.261  11.820  13.088
   67W        W72492   2.433  19.822   4.146
   68W        W72493  27.121  38.777   3.840
   69W        W72494  17.596  21.199   4.140
   70W        W72495  19.648  20.336   3.301
   71W        W72496  40.537  22.511  14.729
   72W        W72497  27.710  30.695  11.135
   73W        W72498  12.271  11.857   3.216
   74W        W72499  36.913   2.956   0.487
   75W        W72500   6.756  36.599  13.872
   76W        W72501  21.562   4.702   1.408
   77W        W72502   4.989  43.473   0.279
   78W        W72503   3.691  39.299   2.644
   79W        W72504  30.363  36.332  11.677
   80W        W72505  19.284  43.019   1.274
   81W        W72506  37.189  34.581   2.120
   82W        W72507  20.192  24.701  10.617
   83W        W72508  26.878   4.249   3.163
   84W        W72509  17.738   5.790  10.548
   85W        W72510   2.003  34.539   3.690
   86W        W72511  27.724   1.989  11.960
   87W        W72512  36.122  20.816   3.750
   88W        W72513  31.530   3.218   3.633
   89W        W72514  43.359  35.646   3.127
   90W        W72515   2.716  44.323  12.097
   91W        W72516  14.176  10.920   0.276
   92W        W72517  20.288  42.483  12.481
   93W        W72518  35.373   2.357   2.284
   94W        W72519  41.613   4.385  14.390
   95W        W72520   2.865   3.302  10.333
   96W        W72521   6.000  18.130   1.478
   97W        W72522  20.624   1.455   0.349
   98W        W72523  17.011  10.730  12.094
   99W        W72524  41.584   9.847   0.303
  100W        W72525   8.426  30.924   4.052
  101W        W72526  10.674  18.345  14.210
  102W        W72527   3.167  31.952  11.993
  103W        W72528  28.943  42.806   1.699
  104W        W72529  32.434   1.918  12.598
  105W        W72530   5.864  37.958   3.775
  106W        W72531  31.185  26.013   1.968
  107W        W72532  28.209  17.797  12.939
  108W        W72533   2.940   4.766   1.331
  109W        W72534   8.635   3.613   0.684
  110W        W72535   1.786  29.353   4.829
  111W        W72536  10.793  26.121  14.419
  112W        W72537   4.943  44.312  13.813
  113W        W72538   8.803  10.569   0.838
  114W        W72539  44.710  21.925   3.355
  115W        W72540  43.852  27.516  13.064
  116W        W72541  28.313  13.530  11.850
  117W        W72542  23.687   7.734  13.255
  118W        W72543  27.838  43.704   3.153
  119W        W72544  11.138  41.150   3.591
  120W        W72545  33.461  23.601   3.229
  121W        W72546  30.241  37.361   0.910
  122W        W72547  31.444  26.238   2.358
  123W        W72548  20.240  30.712  14.833
  124W        W72549   6.447   4.397   2.657
  125W        W72550  35.763  29.827   3.243
  126W        W72551  24.104  44.177  11.184
  127W        W72552  24.781  42.297   3.194
  128W        W72553  43.834  34.088   1.912
  129W        W72554  28.904  39.005  11.942
  130W        W72555  20.298  22.204   4.668
  131W        W72556   6.391  28.497   3.334
  132W        W72557   0.699  39.167  14.443
  133W        W72558   0.706   9.847  14.861
  134W        W72559   3.476  30.459  12.175
  135W        W72560  27.555  35.863  13.316
  136W        W72561  29.453  23.609  14.087
  137W        W72562   3.802   7.424  14.248
  138W        W72563  26.481  32.709   4.203
  139W        W72564  39.301  13.800   4.732
  140W        W72565  27.110  43.629  14.659
  141W        W72566  36.044  44.464  11.920
  142W        W72567  28.759  43.974  11.930
  143W        W72568   2.735  37.338   3.718
  144W        W72569  38.323   0.858   1.289
  145W        W72570  26.036  22.469   0.626
  146W        W72571  29.772  23.402  11.958
  147W        W72572  33.325  11.180   2.354
  148W        W72573   8.733  38.998   4.491
  149W        W72574  37.876  36.276   1.393
  150W        W72575  25.240  39.316   0.200
  151W        W72576  41.669  43.799   2.112
  152W        W72577  24.415  20.137  12.970
  153W        W72578  19.307  16.071  13.966
  154W        W72579  43.389  17.103   3.721
  155W        W72580  41.840  38.535   2.649
  156W        W72581  18.650  11.602  11.688
  157W        W72582   1.659  20.168  14.336
  158W        W72583  16.566  40.099  14.843
  159W        W72584  36.509  26.672   0.698
  160W        W72585  19.298   2.013   5.600
  161W        W72586   5.353  17.709   0.862
  162W        W72587  26.852  43.316  13.196
  163W        W72588   2.255  44.251   5.013
  164W        W72589  11.229  39.075  14.376
  165W        W72590  15.804  42.998   1.807
  166W        W72591   7.183  35.489   3.352
  167W        W72592  24.081  34.883  13.979
  168W        W72593  13.155   6.358  11.264
  169W        W72594  32.804   5.319   2.168
  170W        W72595   5.586   8.712   3.123
  171W        W72596  33.495  11.860  13.435
  172W        W72597  20.498  35.057  10.601
  173W        W72598  18.566  19.477  11.959
  174W        W72599   2.462   5.811   2.295
  175W        W72600  41.061   7.856   1.391
  176W        W72601  39.221  24.005   0.014
  177W        W72602  15.776  35.105   2.117
  178W        W72603  33.915   2.474   0.340
  179W        W72604   2.285  43.543  10.726
  180W        W72605   7.930  37.287   4.179
  181W        W72606   8.649  33.360  13.349
  182W        W72607  19.625   9.393  10.761
  183W        W72608   1.208   4.683  10.533
  184W        W72609  26.978  28.933   3.208
  185W        W72610   5.728  33.347  14.398
  186W        W72611  36.077  13.299  13.680
  187W        W72612  17.165  24.495  12.019
  188W        W72613  16.529  15.061  14.192
  189W        W72614  14.213   9.192  10.522
  190W        W72615  25.226  35.628   2.852
  191W        W72616   2.731  22.232  11.676
  192W        W72617   1.874  33.364  13.403
  193W        W72618   2.622  31.386  11.561
  194W        W72619  28.054  28.959  14.850
  195W        W72620  31.059  30.025  10.760
  196W        W72621  31.297  37.921   2.263
  197W        W72622   3.971   7.256   3.711
  198W        W72623  10.741  27.122  13.359
  199W        W72624  19.020  30.516  10.097
  200W        W72625  11.271   3.899  14.309
  201W        W72626  19.096  13.285  12.100
  202W        W72627  44.056  33.649  13.511
  203W        W72628  31.377  11.342   5.121
  204W        W72629  14.755  40.844   0.943
  205W        W72630   2.911   2.523  12.001
  206W        W72631  44.571  25.329  11.862
  207W        W72632   8.672  37.116  13.549
  208W        W72633  40.048  19.595   4.901
  209W        W72634  37.489   7.845  10.661
  210W        W72635   4.178  35.038   4.570
  211W        W72636  41.083  36.385   3.835
  212W        W72637  10.838  11.392  13.285
  213W        W72638  42.898  22.796   3.658
  214W        W72639   8.183   4.852  11.420
  215W        W72640  31.031  34.526  14.487
  216W        W72641  22.427   2.344  11.462
  217W        W72642  21.871  15.546   0.718
  218W        W72643  33.689  26.628   1.843
  219W        W72644  31.632  13.740   1.126
  220W        W72645   5.851  34.650   0.150
  221W        W72646   0.640   4.235   1.293
  222W        W72647  29.942  42.445   4.518
  223W        W72648  42.677  35.522   0.476
  224W        W72649  42.463  31.253  13.659
  225W        W72650  40.508   0.961  13.775
  226W        W72651  41.215  30.057   2.288
  227W        W72652  24.612   0.500  13.478
  228W        W72653  30.118  21.918   3.624
  229W        W72654  37.055  42.820   0.373
  230W        W72655  31.219  27.004  11.436
  231W        W72656   2.031  33.487  11.568
  232W        W72657  22.132  44.033   1.411
  233W        W72658   4.712  11.879   1.851
  234W        W72659  21.289  25.419   0.062
  235W        W72660  33.937  29.970  11.225
  236W        W72661  33.207  27.119  12.330
  237W        W72662  35.608   7.433  11.748
  238W        W72663  24.026  41.470   3.303
  239W        W72664   1.878  42.003  12.155
  240W        W72665   8.770  14.673   4.579
  241W        W72666  33.535  21.554  11.552
  242W        W72667   6.649  22.753   2.750
  243W        W72668   0.555   5.401  12.887
  244W        W72669  14.446  11.577   5.067
  245W        W72670  38.589  41.817  11.624
  246W        W72671  19.596   4.177   2.346
  247W        W72672  12.313  25.052   4.901
  248W        W72673  30.573  25.479   2.700
  249W        W72674  32.594  21.533   2.705
  250W        W72675  44.022  39.869  13.353
  251W        W72676  20.595   9.332  12.199
  252W        W72677  19.546  20.314  14.546
  253W        W72678  34.550  31.981  11.992
  254W        W72679  42.635  28.440   0.909
  255W        W72680  31.617  11.851   3.133
  256W        W72681  18.254  42.473   0.519
  257W        W72682  24.108  13.234   1.442
  258W        W72683   0.506  13.104  10.648
  259W        W72684  37.900  10.625   1.844
  260W        W72685  38.914  16.616   0.822
  261W        W72686  29.942  20.796  14.891
  262W        W72687  25.755  41.823   0.760
  263W        W72688  29.540   9.116   2.836
  264W        W72689  29.420  19.139  11.356
  265W        W72690   4.500   4.693   1.322
  266W        W72691  12.639  22.115  11.949
  267W        W72692   6.825  12.397  11.170
  268W        W72693  19.299  27.931   2.387
  269W        W72694  15.241  11.005  12.937
  270W        W72695  39.551  41.367  13.084
  271W        W72696   6.342  17.538  12.610
  272W        W72697  14.365  17.007   2.588
  273W        W72698  24.960  33.651   3.935
  274W        W72699  23.464   1.383  12.646
  275W        W72700  10.212  29.592  10.756
  276W        W72701  11.128  26.493  12.043
  277W        W72702  40.271  42.727   0.910
  278W        W72703  31.060  11.895   0.015
  279W        W72704  28.636   5.364  11.138
  280W        W72705   3.840  30.525   0.468
  281W        W72706  34.809  44.223   2.280
  282W        W72707  24.567  20.508  13.346
  283W        W72708  20.093  24.387   1.847
  284W        W72709  20.208  10.840   2.896
  285W        W72710  17.191  22.986   4.382
  286W        W72711  18.146  30.672  13.491
  287W        W72712  38.782   3.278   2.188
  288W        W72713   8.263  25.791   0.663
  289W        W72714  18.812   9.196  12.462
  290W        W72715   0.421   2.417   4.181
  291W        W72716   4.283  34.039  12.135
  292W        W72717  30.750  18.526  12.966
  293W        W72718  21.156  19.482   4.251
  294W        W72719  23.430  44.237   2.647
  295W        W72720  42.452  15.793  12.669
  296W        W72721   9.445  19.616  12.021
  297W        W72722  36.350  40.881   0.440
  298W        W72723  28.549  30.311   1.453
  299W        W72724   9.525  22.477   9.488
  300W        W72725   8.933   0.943   3.363
  301W        W72726  35.989  15.063   3.263
  302W        W72727   7.653  27.305  12.922
  303W        W72728  23.044  18.025   3.140
  304W        W72729  19.096  13.649  11.709
  305W        W72730  10.235  18.566  12.538
  306W        W72731  39.622  22.507   0.852
  307W        W72732   0.691   4.352  14.332
  308W        W72733   3.184  19.903   0.467
  309W        W72734  39.965  29.545  14.415
  310W        W72735  28.106  15.154   2.859
  311W        W72736   4.837  38.758   0.795
  312W        W72737   4.283  33.103  11.169
  313W        W72738  41.467   3.056   3.628
  314W        W72739   3.172   2.733  14.573
  315W        W72740  20.735   4.541   4.487
  316W        W72741  34.410  27.540   0.934
  317W        W72742   0.355  39.447  12.376
  318W        W72743  26.125  27.216  10.769
  319W        W72744  33.967  28.607   4.072
  320W        W72745  22.197  26.497  11.561
  321W        W72746  26.374   4.398   3.230
  322W        W72747  11.016  24.088  14.127
  323W        W72748  35.205  12.463   1.943
  324W        W72749  11.361   9.983  11.047
  325W        W72750   2.477   4.957  14.270
  326W        W72751  39.844  35.649  14.534
  327W        W72752  16.838   3.759   2.818
  328W        W72753   4.951  31.440   1.851
  329W        W72754  42.671  32.407  11.917
  330W        W72755  18.551  32.519  10.834
  331W        W72756   9.923  15.540  10.735
  332W        W72757   2.304  29.841   0.889
  333W        W72758  12.085  36.990   1.341
  334W        W72759  41.366  24.025   0.160
  335W        W72760  23.302  22.921   0.234
  336W        W72761  14.074  35.445  13.395
  337W        W72762  28.154  10.271   4.611
  338W        W72763  38.303  12.310   2.436
  339W        W72764  38.600  33.495  12.207
  340W        W72765  14.313  28.077   2.829
  341W        W72766  33.893  10.639   2.590
  342W        W72767  40.270  16.342  11.982
  343W        W72768   3.297   6.766  11.885
  344W        W72769  13.643  28.772   1.282
  345W        W72770   3.215  21.194   1.015
  346W        W72771  10.932  15.045   0.282
  347W        W72772  22.643  37.877   0.129
  348W        W72773  26.155  42.051   3.197
  349W        W72774  43.423  23.065  10.846
  350W        W72775   3.964  11.117  14.796
  351W        W72776  30.485  36.512  13.340
  352W        W72777  21.563   6.516   2.798
  353W        W72778   1.934  27.168  10.729
  354W        W72779   3.578  30.139  13.399
  355W        W72780  19.674   1.957   1.684
  356W        W72781  23.415  18.363  11.629
  357W        W72782  37.469  31.841  14.034
  358W        W72783  25.552  37.590   4.104
  359W        W72784  42.332   1.314   0.968
  360W        W72785  27.558  40.744   3.141
  361W        W72786  35.128  15.465   4.802
  362W        W72787  11.963  13.136  10.995
  363W        W72788  10.342  11.354   3.250
  364W        W72789  29.140  15.257  10.737
  365W        W72790  12.258  13.776   2.153
  366W        W72791  22.072  31.832  10.357
  367W        W72792   2.748  44.131  13.834
  368W        W72793  32.523  20.501   4.382
  369W        W72794  36.304   8.626   0.701
  370W        W72795  21.109  36.938  10.990
  371W        W72796  33.983  10.098   4.576
  372W        W72797  14.205  43.134   1.844
  373W        W72798  37.064  35.906  13.943
  374W        W72799  21.539  11.046  11.569
  375W        W72800  39.056  33.283  12.995
  376W        W72801  25.480   2.320   4.838
  377W        W72802  16.081  14.080  10.562
  378W        W72803  40.337  24.742   1.456
  379W        W72804  34.722  41.963  13.844
  380W        W72805  23.219  36.170  10.982
  381W        W72806  10.930  26.866  14.928
  382W        W72807   1.488   4.494   1.414
  383W        W72808  18.265  40.195   4.170
  384W        W72809  28.461  18.150  11.715
  385W        W72810   5.755  27.456  11.769
  386W        W72811   9.099  43.129   0.228
  387W        W72812  41.766  22.111   4.766
  388W        W72813  40.646  35.880  10.270
  389W        W72814  37.710  34.080  14.023
  390W        W72815  38.737  13.738  12.383
  391W        W72816   9.312  20.860  13.469
  392W        W72817   3.864  37.112  13.412
  393W        W72818  17.983  39.569   0.840
  394W        W72819  40.313  27.433   1.316
  395W        W72820  11.212  35.994  10.551
  396W        W72821   1.412  11.845   3.198
  397W        W72822  38.955   3.752  10.690
  398W        W72823  19.737  35.137   3.596
  399W        W72824  35.095  21.256   5.121
  400W        W72825  32.675  12.837   2.084
  401W        W72826  17.628   3.513  10.716
  402W        W72827  23.158  30.497   4.229
  403W        W72828  29.995  23.975  14.538
  404W        W72829  21.591  16.663  13.257
  405W        W72830   6.742  18.632  10.344
  406W        W72831   7.179  19.850   3.813
  407W        W72832  11.191  19.261   4.631
  408W        W72833   1.894  39.521   1.969
  409W        W72834  31.189   3.220  11.057
  410W        W72835   8.977  39.708   2.332
  411W        W72836   9.216  37.115  11.413
  412W        W72837  43.270  39.240  14.394
  413W        W72838   5.237  37.360  13.108
  414W        W72839  22.566  21.214  12.479
  415W        W72840  10.278  10.572  11.606
  416W        W72841  21.294  33.083   2.454
  417W        W72842  25.224  22.219  12.779
  418W        W72843  20.318  29.226   5.062
  419W        W72844  13.918  34.963   4.062
  420W        W72845  21.500  24.047  12.838
  421W        W72846  42.989  38.388  11.846
  422W        W72847  33.368  24.118  11.129
  423W        W72848   2.242  44.754  13.500
  424W        W72849  10.347  43.293   0.891
  425W        W72850  15.754  39.394   2.985
  426W        W72851  31.139  32.658   4.846
  427W        W72852   1.676  16.695  14.899
  428W        W72853  28.524  42.717   1.419
  429W        W72854   4.892  27.104  11.538
  430W        W72855  31.958   9.000  12.122
  431W        W72856  24.529  39.963  14.297
  432W        W72857   3.819   4.676  12.461
  433W        W72858  29.768   9.679  12.478
  434W        W72859  43.036  30.000  11.920
  435W        W72860   3.969  31.495   3.113
  436W        W72861  36.657  29.681  12.409
  437W        W72862   0.277   9.501   3.771
  438W        W72863  16.517  21.952  10.691
  439W        W72864  36.442  28.325   2.315
  440W        W72865  15.590  22.067  10.593
  441W        W72866  11.083  23.647   0.878
  442W        W72867  38.775  44.257  14.724
  443W        W72868  39.467  36.075   0.051
  444W        W72869  44.535  13.158   4.659
  445W        W72870   1.745  33.869  14.497
  446W        W72871   9.426   2.824  11.472
  447W        W72872  43.251  38.607   2.191
  448W        W72873  15.841  13.752   3.698
  449W        W72874  39.912  33.504  13.378
  450W        W72875  11.051   8.179   3.101
  451W        W72876  23.180  38.373  10.603
  452W        W72877  29.587   1.587  14.489
  453W        W72878  38.332  42.552   1.340
  454W        W72879   5.900  25.895   2.205
  455W        W72880  42.925  28.447   3.176
  456W        W72881  31.830   1.550   2.841
  457W        W72882  43.857  32.552   1.704
  458W        W72883  23.784  42.325  13.528
  459W        W72884  19.253   7.683  14.567
  460W        W72885  15.269  39.527   0.699
  461W        W72886  25.435   3.674   1.291
  462W        W72887   3.839  35.472   1.131
  463W        W72888  19.504  29.357  11.895
  464W        W72889  23.216  10.140  12.395
  465W        W72890  22.788  43.310  12.352
  466W        W72891  10.970   0.850  11.638
  467W        W72892  39.277  35.122   1.806
  468W        W72893  24.136  29.161   1.742
  469W        W72894  23.104   3.898   1.060
  470W        W72895   2.918  21.898  13.030
  471W        W72896   0.667  22.135  14.477
  472W        W72897  33.137  30.383   4.921
  473W        W72898  41.501  35.819  11.537
  474W        W72899  23.564  14.252   1.821
  475W        W72900  16.545  31.755  10.292
  476W        W72901  14.087   8.157  14.772
  477W        W72902  15.895  44.534  13.475
  478W        W72903   5.709  17.828  13.416
  479W        W72904  41.781  17.810   3.216
  480W        W72905  32.879  19.699   2.718
  481W        W72906  36.814  16.520   0.996
  482W        W72907   8.778  14.702   0.148
  483W        W72908  26.082  24.468  14.793
  484W        W72909  38.868  11.985   4.691
  485W        W72910  25.714   5.815  14.795
  486W        W72911  11.055  30.317  11.693
  487W        W72912  12.162  44.297   3.559
  488W        W72913  24.997   9.436   2.441
  489W        W72914  31.156  40.933   2.971
  490W        W72915  11.280  24.482   4.073
  491W        W72916  30.173   7.695  12.588
  492W        W72917  28.937  19.817   0.377
  493W        W72918  10.199  12.309   2.252
  494W        W72919  20.178  27.246   0.831
  495W        W72920  32.022  29.693   1.450
  496W        W72921  42.818  32.467   3.106
  497W        W72922  10.161  26.077   3.105
  498W        W72923   6.262  20.170   2.311
  499W        W72924  31.396  19.578   2.374
  500W        W72925  19.588  31.492  12.460
  501W        W72926  15.096  28.640  12.372
  502W        W72927  36.112  29.922  13.504
  503W        W72928  10.439  10.995   1.674
  504W        W72929  20.307  37.519  10.660
  505W        W72930  20.025  26.899  14.533
  506W        W72931  32.561   2.355   4.825
  507W        W72932  37.485   2.844   4.574
  508W        W72933  17.624  40.792  11.088
  509W        W72934   6.700  21.907  13.633
  510W        W72935  26.131  43.028   4.823
  511W        W72936  32.159   5.972  14.382
  512W        W72937  24.266  12.228   1.449
  513W        W72938  33.565  36.330   1.666
  514W        W72939  11.307  40.383  12.683
  515W        W72940  26.004  10.816  11.758
  516W        W72941   2.677  44.302   2.716
  517W        W72942  34.095  40.298  10.723
  518W        W72943   6.793  28.105   2.291
  519W        W72944  36.227  35.072  11.565
  520W        W72945  41.743  25.593   4.593
  521W        W72946   9.855   3.340  13.557
  522W        W72947  21.056   1.147  14.910
  523W        W72948  16.591  11.741  13.512
  524W        W72949   5.729  21.961  13.302
  525W        W72950  44.598  17.192   3.666
  526W        W72951  41.913  12.282   0.339
  527W        W72952  31.991  35.384   1.892
  528W        W72953   4.956  14.698  13.567
  529W        W72954  16.362   5.310   4.324
  530W        W72955  16.593  28.118  13.377
  531W        W72956  36.081  39.412   0.690
  532W        W72957  21.635  19.846  12.925
  533W        W72958  35.109  16.109  13.556
  534W        W72959  14.781  18.774  14.238
  535W        W72960  38.921  21.493   2.213
  536W        W72961  27.514  42.192   3.301
  537W        W72962  23.302  21.456   1.885
  538W        W72963  22.109   9.337  13.745
  539W        W72964  19.636  12.208  13.996
  540W        W72965  40.873  14.407  12.956
  541W        W72966  15.257  11.854   0.003
  542W        W72967  35.441  17.306   1.950
  543W        W72968  34.284  24.413   0.371
  544W        W72969  24.292  41.311   2.401
  545W        W72970   1.433  22.688   1.289
  546W        W72971  16.384   4.003   1.766
  547W        W72972  39.611   9.343  11.573
  548W        W72973  10.697  23.380   2.628
  549W        W72974   5.678  34.413  14.256
  550W        W72975  28.639  25.093   0.309
  551W        W72976  23.271   4.919   1.883
  552W        W72977   0.883   7.313   2.732
  553W        W72978   1.269  12.180   0.704
  554W        W72979  15.615   1.359  12.384
  555W        W72980  30.483   0.862  12.450
  556W        W72981  37.967  30.382   0.412
  557W        W72982  34.643  11.740  12.876
  558W        W72983  26.292   9.357  11.993
  559W        W72984  31.023  44.447  11.046
  560W        W72985  32.817  18.204   2.819
  561W        W72986  21.159  11.937   0.077
  562W        W72987  26.829  19.717  11.904
  563W        W72988  32.656  25.522   1.217
  564W        W72989  21.218  22.449  13.751
  565W        W72990   3.642   7.436  12.484
  566W        W72991  21.371  16.626   4.104
  567W        W72992  21.035  10.261   3.702
  568W        W72993  36.024  15.392  12.909
  569W        W72994  30.518  16.861   1.293
  570W        W72995  10.868  15.288  14.795
  571W        W72996  20.140   6.735  11.868
  572W        W72997  38.185  34.387   0.952
  573W        W72998  24.592  20.698   3.369
  574W        W72999  29.105  36.819  11.097
  575W        W73000   2.184   5.929   3.696
  576W        W73001  18.033  35.538   1.483
  577W        W73002  20.953  16.904  10.190
  578W        W73003   9.134  26.749  13.088
  579W        W73004  14.590   1.485   0.054
  580W        W73005  39.425  32.524  10.675
  581W        W73006  17.345  13.419  12.954
  582W        W73007  40.847  42.483   3.730
  583W        W73008  44.878  18.158   2.294
  584W        W73009  40.552  13.421  14.402
  585W        W73010  21.610  26.671   4.353
  586W        W73011   8.139   2.733   4.093
  587W        W73012   2.414  36.236  12.080
  588W        W73013  38.392  23.751   2.457
  589W        W73014   6.748  27.581   4.526
  590W        W73015  29.952   2.559  13.886
  591W        W73016  19.787  34.103  12.355
  592W        W73017  21.321  19.599  10.217
  593W        W73018  14.711  17.042  13.110
  594W        W73019  32.812   0.025   1.249
  595W        W73020   3.685  30.858  12.423
  596W        W73021  37.585  39.515   0.858
  597W        W73022  20.371  40.226  13.905
  598W        W73023  35.654   3.688  12.421
  599W        W73024  31.937  21.900   2.402
  600W        W73025  34.434  21.587  13.900
  601W        W73026  31.221  31.929  12.564
  602W        W73027   7.643  36.644  14.283
  603W        W73028  19.480  12.552   4.881
  604W        W73029  37.967   8.773  14.543
  605W        W73030  23.591  10.839  12.068
  606W        W73031  23.651   0.094  13.345
  607W        W73032  14.864  41.941   3.339
  608W        W73033  12.525  27.537  11.230
  609W        W73034  10.917   1.874   2.957
  610W        W73035  34.903  19.472  11.166
  611W        W73036  30.611  38.889  13.945
  612W        W73037  41.564  37.793   3.760
  613W        W73038  43.668  10.079   1.788
  614W        W73039  39.841  21.050  11.484
  615W        W73040   8.175  32.396  11.335
  616W        W73041  18.022  36.401   2.711
  617W        W73042  31.142   1.372  14.340
  618W        W73043  25.951  12.121  13.133
  619W        W73044  15.600  12.731   3.247
  620W        W73045  11.598  17.170  14.372
  621W        W73046  33.579  33.299  11.631
  622W        W73047  25.054  11.058  13.154
  623W        W73048  23.052   6.298  11.569
  624W        W73049  32.347  23.252  14.440
  625W        W73050  13.064  26.271  11.661
  626W        W73051  22.755  27.885  11.590
  627W        W73052  42.742  15.675   3.854
  628W        W73053  35.064   7.031   1.064
  629W        W73054  40.310  35.996   4.107
  630W        W73055  27.644  14.891   0.280
  631W        W73056   2.360  17.566  11.703
  632W        W73057  27.251  20.949   1.431
  633W        W73058  30.346  30.537  13.808
  634W        W73059  26.157  43.571   3.408
  635W        W73060  42.720  18.996  11.063
  636W        W73061  37.313   0.032  14.416
  637W        W73062  19.975  22.617   4.434
  638W        W73063  14.901   5.408   2.467
  639W        W73064  24.019   8.249  14.706
  640W        W73065   3.989   4.205  12.353
  641W        W73066  38.983  22.570   4.597
  642W        W73067   9.158  36.378  14.065
  643W        W73068  43.033  23.485  11.662
  644W        W73069  22.019   2.973   4.177
  645W        W73070   4.519  31.796   2.619
  646W        W73071  44.125  38.310  10.238
  647W        W73072  27.458  24.192  11.995
  648W        W73073   5.217  36.498   0.240
  649W        W73074  21.457   5.000   3.241
  650W        W73075   5.963  44.356   1.759
  651W        W73076  18.225  21.136  14.530
  652W        W73077   0.334   9.928  14.509
  653W        W73078  41.247  43.646  10.898
  654W        W73079  11.669  38.040  11.976
  655W        W73080  21.660  28.502  13.375
  656W        W73081  28.324  41.043  14.495
  657W        W73082  28.510  39.571   2.139
  658W        W73083  44.296  35.010   1.729
  659W        W73084  16.135  26.306  14.520
  660W        W73085  17.523  39.747   4.548
  661W        W73086  29.227  18.687  12.977
  662W        W73087  16.163  38.926  10.591
  663W        W73088  22.217  23.082  12.696
  664W        W73089  25.304  28.125   2.349
  665W        W73090  11.365   1.864   2.247
  666W        W73091  42.506  21.555  14.828
  667W        W73092  12.253  42.791   3.700
  668W        W73093  19.826  35.422   4.872
  669W        W73094  23.331  43.576   4.081
  670W        W73095   8.207  36.934  13.352
  671W        W73096  33.386  22.260   0.304
  672W        W73097  27.107  29.423   1.774
  673W        W73098  24.426  43.917  13.476
  674W        W73099  26.094  28.573   4.168
  675W        W73100  34.107  20.691   1.909
  676W        W73101   4.718  42.734   2.255
  677W        W73102  27.579  40.948  10.358
  678W        W73103   4.257  27.694   0.464
  679W        W73104  24.726  27.470  11.456
  680W        W73105   0.389  32.602   1.720
  681W        W73106   5.927  25.043   3.394
  682W        W73107   7.335   9.899  14.745
  683W        W73108  39.797  34.927  12.204
  684W        W73109  42.383  31.348   2.145
  685W        W73110  17.708   4.428  13.556
  686W        W73111  43.347  36.354  10.712
  687W        W73112  29.494  12.772   1.427
  688W        W73113  25.923  31.489   5.054
  689W        W73114  17.618   3.323  14.416
  690W        W73115  24.788   5.358   1.326
  691W        W73116  34.065  33.167  14.444
  692W        W73117  29.098  15.116   3.184
  693W        W73118   8.438  44.010   1.240
  694W        W73119   3.838   3.670  11.843
  695W        W73120  24.644   6.231   4.307
  696W        W73121  13.770  15.713   1.308
  697W        W73122  10.911  39.996  12.556
  698W        W73123  38.044  24.638   2.108
  699W        W73124  25.483  44.345  14.308
  700W        W73125   8.776  43.955  10.977
  701W        W73126  12.645  34.457  14.723
  702W        W73127  36.537  36.964   4.186
  703W        W73128  17.213  26.628  11.425
  704W        W73129  23.714  16.347  13.913
  705W        W73130  43.967   1.492  13.373
  706W        W73131   2.198  11.128   1.812
  707W        W73132  19.668  29.459   0.194
  708W        W73133  41.586   7.889   0.477
  709W        W73134  39.122  29.709   0.260
  710W        W73135  38.399  29.453  11.968
  711W        W73136  23.238   8.679  12.566
  712W        W73137  12.093  32.403  13.938
  713W        W73138   6.878   1.990   2.366
  714W        W73139  43.869  12.855  11.190
  715W        W73140  31.359  15.513   4.137
  716W        W73141  39.870  22.065   4.534
  717W        W73142   6.374   4.691   3.548
  718W        W73143  12.193  29.263  14.323
  719W        W73144  19.141  28.986  12.563
  720W        W73145  42.605  33.657   1.794
  721W        W73146  26.633   9.521   1.534
  722W        W73147   3.210  40.592   0.490
  723W        W73148  44.088  17.234   4.608
  724W        W73149   9.125  32.987   2.748
  725W        W73150  31.682  12.996  14.423
  726W        W73151  34.156  33.001  12.911
  727W        W73152  38.805   0.757  12.587
  728W        W73153  22.749  22.068   2.764
  729W        W73154  22.330  24.672   4.289
  730W        W73155  20.734  33.063   3.348
  731W        W73156  13.319  14.342  14.767
  732W        W73157   1.478  11.255   1.355
  733W        W73158  15.339  28.629   1.856
  734W        W73159  43.895  11.582  11.330
  735W        W73160  21.780   1.828  11.970
  736W        W73161  29.130  32.882  14.101
  737W        W73162  17.171  31.749  12.430
  738W        W73163  23.107  18.533   3.141
  739W        W73164  26.645  10.921  13.746
  740W        W73165  32.140  17.222   0.510
  741W        W73166  29.468   0.239  11.142
  742W        W73167  44.758  36.653   3.403
  743W        W73168  41.945   1.839   4.132
  744W        W73169  16.722  37.491  11.914
  745W        W73170   2.109   8.284  11.213
  746W        W73171  12.816  15.343   2.917
  747W        W73172   0.752  39.263  10.077
  748W        W73173  26.067   2.812  14.457
  749W        W73174  30.619  42.981   0.811
  750W        W73175  24.058  44.504   2.491
  751W        W73176  38.948  15.180   2.354
  752W        W73177  37.991  32.645   3.286
  753W        W73178  13.719  30.976  14.414
  754W        W73179  16.158   7.985  14.787
  755W        W73180  20.166  22.664  11.045
  756W        W73181  30.988  43.132  13.817
  757W        W73182   1.843  20.596  10.956
  758W        W73183  36.148   4.923  12.929
  759W        W73184  20.611  32.792  11.394
  760W        W73185  39.260  28.445  11.793
  761W        W73186  16.217   3.877  14.796
  762W        W73187  30.125   4.672  14.959
  763W        W73188   9.625  42.884   4.244
  764W        W73189  44.396  35.342  12.881
  765W        W73190  21.681  38.111  13.045
  766W        W73191  16.740  15.506  11.952
  767W        W73192  17.794  17.836  10.431
  768W        W73193  12.249  20.661  14.344
  769W        W73194  13.349  25.559   5.603
  770W        W73195  40.556  21.946   1.138
  771W        W73196  21.412   2.533  14.922
  772W        W73197  15.697  25.438  13.604
  773W        W73198  18.068  39.552   2.206
  774W        W73199  40.313   4.459   4.970
  775W        W73200  13.679  29.934  13.081
  776W        W73201  41.977  29.601  13.391
  777W        W73202  34.804  31.672   2.186
  778W        W73203  17.007  27.016   4.171
  779W        W73204  18.709  20.146  14.110
  780W        W73205  16.310  30.528  13.121
  781W        W73206  34.350  27.932  14.835
  782W        W73207  31.074  33.935   4.386
  783W        W73208  43.844  41.445  10.808
  784W        W73209  16.028  23.780  13.001
  785W        W73210  12.802  11.618  12.236
  786W        W73211  24.558   0.849   2.155
  787W        W73212  39.371  15.575  11.231
  788W        W73213  43.207  29.952   3.895
  789W        W73214  31.992  28.406  11.335
  790W        W73215  26.446   3.988   1.232
  791W        W73216  26.497  21.461  13.945
  792W        W73217  23.238  15.413   2.717
  793W        W73218  24.678  11.615   3.546
  794W        W73219  32.869   7.548   1.768
  795W        W73220  37.819  12.330   4.240
  796W        W73221  18.065  25.298  14.417
  797W        W73222  31.939  44.203   2.356
  798W        W73223  37.523  12.689   2.774
  799W        W73224  10.872  16.352   4.158
  800W        W73225  15.015  22.211   4.720
  801W        W73226   3.220  27.394   2.116
  802W        W73227  21.905  27.574   1.233
  803W        W73228  13.376  29.664   0.292
  804W        W73229   0.531  30.190   2.798
  805W        W73230  27.175   4.360  12.935
  806W        W73231  22.630  20.987   4.390
  807W        W73232  16.682  41.859  13.995
  808W        W73233  17.366  39.433  11.511
  809W        W73234  21.697  28.055   0.773
  810W        W73235  34.675  19.003  14.462
  811W        W73236  23.373  12.813   4.600
  812W        W73237   6.410  24.889  12.136
  813W        W73238  22.245  25.760   0.220
  814W        W73239  42.029  44.217  12.524
  815W        W73240  33.456  43.231   1.618
  816W        W73241  21.169  31.156  14.901
  817W        W73242  43.449  40.623   3.633
  818W        W73243   2.464  16.160  13.886
  819W        W73244  17.940   4.693   0.939
  820W        W73245   4.694  37.483  11.877
  821W        W73246  11.818  22.500   1.019
  822W        W73247  41.503  35.020   0.007
  823W        W73248  21.527  10.767   3.109
  824W        W73249   6.738  24.681   3.670
  825W        W73250   0.961  43.469  11.188
  826W        W73251  36.103  16.399  10.764
  827W        W73252  44.979  27.064  12.154
  828W        W73253  40.501  15.825   1.756
  829W        W73254   4.785   3.367  14.321
  830W        W73255  44.581  33.472   0.364
  831W        W73256  32.650  13.940  14.723
  832W        W73257  19.526   6.205  13.980
  833W        W73258  19.355  24.034   0.292
  834W        W73259  23.228  11.759  12.509
  835W        W73260  23.518  21.483  14.328
  836W        W73261  42.948  18.593   3.379
  837W        W73262  29.508  25.168   3.018
  838W        W73263  25.132   5.013  11.752
  839W        W73264  25.739  20.716   1.776
  840W        W73265  26.314  25.015  13.473
  841W        W73266  14.979  37.947   1.883
  842W        W73267   2.305  44.280   3.665
  843W        W73268  34.881   6.482  12.419
  844W        W73269  24.214  41.130  12.494
  845W        W73270  22.546  33.580   0.480
  846W        W73271  26.430  11.408   2.809
  847W        W73272  21.164  43.346  14.203
  848W        W73273  39.132  37.953   3.133
  849W        W73274  29.101  16.593   1.843
  850W        W73275  40.207  38.611  11.362
  851W        W73276   4.900  42.916  14.106
  852W        W73277  28.961  14.744   3.942
  853W        W73278   1.776  26.126   2.915
  854W        W73279  30.405  27.139   4.743
  855W        W73280  27.084  26.429  11.118
  856W        W73281   1.708  14.348   0.914
  857W        W73282  42.322  44.162   0.302
  858W        W73283  43.308  18.152  13.459
  859W        W73284  11.405  43.738   3.191
  860W        W73285  30.517  13.913   1.320
  861W        W73286  20.440   4.272   4.108
  862W        W73287  11.509  37.821  11.549
  863W        W73288  36.851  13.620   0.775
  864W        W73289  35.058  30.462  12.103
  865W        W73290  43.882   9.757  12.863
  866W        W73291   3.514  17.376   4.667
  867W        W73292  37.576  25.184  14.814
  868W        W73293  11.752   5.126   4.998
  869W        W73294  32.666  28.337  12.161
  870W        W73295  40.535   9.194   4.557
  871W        W73296  15.096  24.057   4.943
  872W        W73297  36.833  41.794   0.431
  873W        W73298  15.722  30.861  12.427
  874W        W73299  31.532  23.130   0.045
  875W        W73300  13.309   6.711   3.684
  876W        W73301   7.094  20.606   4.339
  877W        W73302  34.033  21.858   2.227
  878W        W73303  30.126  11.864   0.886
  879W        W73304   0.414  16.194  11.072
  880W        W73305  20.377  12.619  10.558
  881W        W73306  18.628  21.456  13.128
  882W        W73307  25.684  33.423   3.205
  883W        W73308  26.623   4.888  11.921
  884W        W73309   9.487  24.617   1.168
  885W        W73310  13.154  33.832   3.295
  886W        W73311  27.524   4.778   4.108
  887W        W73312  10.393  22.649   1.294
  888W        W73313   7.871   0.436  14.219
  889W        W73314   8.333   1.867   0.246
  890W        W73315   4.382  20.747  13.051
  891W        W73316  40.818   2.151  13.340
  892W        W73317   9.272  16.232  11.896
  893W        W73318  33.862  18.200   4.578
  894W        W73319  32.116  30.880  14.458
  895W        W73320  15.992  19.595   1.278
  896W        W73321  12.925  39.755  14.213
  897W        W73322  41.747  17.603   1.318
  898W        W73323  38.142  22.764  13.612
  899W        W73324  38.130  18.455  14.877
  900W        W73325  18.078   4.093  13.346
  901W        W73326   0.314   0.519   4.611
  902W        W73327  42.119  34.704   4.494
  903W        W73328  10.652   6.495   3.622
  904W        W73329   9.126   3.321   3.607
  905W        W73330  39.148   7.780  13.566
  906W        W73331  10.816  36.398   2.614
  907W        W73332  35.293   2.277   1.791
  908W        W73333  37.476  25.038   0.814
  909W        W73334   5.130  43.855  14.000
  910W        W73335  31.113  13.590  12.043
  911W        W73336  16.106  18.002   1.453
  912W        W73337  27.280  14.117  11.639
  913W        W73338  34.203  19.607   4.269
  914W        W73339  21.477  38.955  14.024
  915W        W73340  24.468  16.831   2.050
  916W        W73341  29.938   1.294   3.065
  917W        W73342  39.755  20.323   4.078
  918W        W73343   4.862   5.731  11.138
  919W        W73344   7.231  37.007   3.245
  920W        W73345  36.041  26.341   5.160
  921W        W73346  37.332  10.687  13.493
  922W        W73347  25.604  33.936  14.658
  923W        W73348  20.064  30.502   5.086
  924W        W73349  10.596   0.792  13.430
  925W        W73350  12.211  37.272   4.243
  926W        W73351  33.342  44.471  12.801
  927W        W73352  16.527   5.722  13.057
  928W        W73353  32.534  31.460   1.836
  929W        W73354  25.870  37.861  13.914
  930W        W73355  19.834  36.643   3.242
  931W        W73356  12.193  26.789  10.725
  932W        W73357   6.164  11.763   4.663
  933W        W73358  43.526  16.325   1.830
  934W        W73359  28.061   7.635  13.499
  935W        W73360  25.906  24.471  13.522
  936W        W73361  11.407   1.805  13.786
  937W        W73362   7.418  25.597  12.045
  938W        W73363  25.009  29.970  11.131
  939W        W73364  10.736   4.428   3.245
  940W        W73365  11.310  23.304   5.432
  941W        W73366   0.431  33.023  10.624
  942W        W73367   8.683   5.263   3.150
  943W        W73368  16.504   4.809   1.469
  944W        W73369  30.525  17.604  11.453
  945W        W73370  14.605  42.823   4.307
  946W        W73371  10.205  29.961   3.660
  947W        W73372   1.030  14.191   3.559
  948W        W73373  27.134  27.401   1.760
  949W        W73374   0.934  34.248  13.549
  950W        W73375  14.024  34.496   2.346
  951W        W73376   5.200  38.837  12.119
  952W        W73377  35.052   0.751   3.609
  953W        W73378  35.115   6.045  11.770
  954W        W73379  30.311  34.084   0.324
  955W        W73380  30.655  26.684  10.241
  956W        W73381  24.160  31.831   4.539
  957W        W73382   5.008  12.678   4.205
  958W        W73383  33.035   3.996   1.435
  959W        W73384  33.861  24.968  11.414
  960W        W73385  17.145  33.717   0.523
  961W        W73386  34.558  19.195   3.169
  962W        W73387  34.018  25.678   0.314
  963W        W73388  37.606   1.088  11.451
  964W        W73389  41.767  20.584   2.637
  965W        W73390   7.242  10.285  10.725
  966W        W73391  38.514  19.320   2.677
  967W        W73392   6.205  33.149   4.428
  968W        W73393  39.001  37.122   1.353
  969W        W73394  41.791   0.813  11.592
  970W        W73395  18.484  10.332   2.858
  971W        W73396  27.512  22.089   3.371
  972W        W73397  41.034   7.669  13.056
  973W        W73398  31.454  23.104  12.446
  974W        W73399  38.447   0.341  10.779
  975W        W73400  24.249  20.562   1.917
  976W        W73401  22.201  40.579   1.761
  977W        W73402   0.375  27.355   3.411
  978W        W73403  24.233  13.067   0.960
  979W        W73404  38.366   1.992  10.643
  980W        W73405  40.005   2.529  11.577
  981W        W73406  11.390  44.847   3.140
  982W        W73407  22.070  38.806  11.886
  983W        W73408  38.205  15.879   2.840
  984W        W73409  43.383   1.954   0.306
  985W        W73410   8.818  33.061  12.965
  986W        W73411   4.355  18.424  10.643
  987W        W73412   3.399  35.546   2.926
  988W        W73413  21.607   0.081  12.959
  989W        W73414  33.823  17.579   1.415
  990W        W73415  17.520  24.236   2.428
  991W        W73416  25.074  11.560  13.073
  992W        W73417   8.881  19.987  12.614
  993W        W73418  24.688  39.802  12.414
  994W        W73419   4.159  23.648   3.824
  995W        W73420  10.807   8.741  11.592
  996W        W73421   6.451  28.419   2.634
  997W        W73422  35.054  16.118  12.397
  998W        W73423   2.418   2.536   2.165
  999W        W73424  27.438  36.090  12.067
 1000W        W73425  29.986  29.570  10.551
 1001W        W73426   7.795  15.762  14.397
 1002W        W73427   3.714  14.064  13.787
 1003W        W73428  22.805  11.335   1.225
 1004W        W73429  26.398  20.738   2.721
 1005W        W73430   3.501  11.093   3.120
 1006W        W73431  18.191  22.367  10.395
 1007W        W73432   3.787  25.022  12.822
 1008W        W73433  11.305   5.808   4.595
 1009W        W73434  37.238   5.754  10.940
 1010W        W73435  26.219  16.524  12.573
 1011W        W73436  12.159  21.674  12.934
 1012W        W73437  21.558   4.180  12.052
 1013W        W73438  22.681   7.635  10.620
 1014W        W73439  40.515  30.351  14.324
 1015W        W73440  22.310  24.584  13.040
 1016W        W73441  32.571  31.904   4.505
 1017W        W73442   3.502   7.166   0.460
 1018W        W73443   5.701  40.074   0.200
 1019W        W73444   4.982   2.488  12.427
 1020W        W73445  10.558   0.448  11.447
 1021W        W73446  37.772  26.652   2.204
 1022W        W73447  40.054  44.527  10.683
 1023W        W73448  25.989  23.503   4.127
 1024W        W73449   3.887   2.810   2.382
 1025W        W73450   0.948  18.357  11.946
 1026W        W73451  33.614  22.990   3.937
 1027W        W73452  28.684   5.371  13.783
 1028W        W73453  36.559   7.346  12.416
 1029W        W73454  26.878  35.317  14.356
 1030W        W73455  15.150  19.693   5.094
 1031W        W73456  18.556  30.279   3.316
 1032W        W73457  17.860   6.295  11.622
 1033W        W73458  24.028  44.911  14.812
 1034W        W73459  17.656  17.886   1.215
 1035W        W73460  30.063  30.547  10.097
 1036W        W73461   1.917   0.400  14.065
 1037W        W73462  17.387   5.545   2.807
 1038W        W73463   3.679  43.866   0.697
 1039W        W73464  11.393  13.249  11.953
 1040W        W73465  30.808   8.538   4.582
 1041W        W73466   0.761  17.578  11.531
 1042W        W73467  33.001   1.286  11.455
 1043W        W73468  23.885  35.882  11.562
 1044W        W73469   7.757  37.066   3.271
 1045W        W73470   5.648  19.648  14.024
 1046W        W73471   2.325  36.177   0.760
 1047W        W73472   9.343  13.873   2.856
 1048W        W73473  33.882  31.023   4.607
 1049W        W73474   6.387  21.675   3.858
 1050W        W73475  12.464  26.160   4.326
 1051W        W73476  33.274  44.447  14.715
 1052W        W73477   2.698  25.400  13.553
 1053W        W73478  10.845  30.459   4.242
 1054W        W73479   7.615   9.339  13.867
 1055W        W73480  26.148   0.464  11.540
 1056W        W73481  10.391  33.991  12.920
 1057W        W73482  43.983   2.862  14.414
 1058W        W73483  38.230  19.710  13.830
 1059W        W73484  38.399   5.463   3.758
 1060W        W73485  16.394  20.567  13.081
 1061W        W73486  37.823  38.483  10.984
 1062W        W73487   3.279  36.501  11.997
 1063W        W73488  15.010   1.920   4.473
 1064W        W73489  33.025  38.164   0.359
 1065W        W73490  26.930  38.395   3.124
 1066W        W73491   9.889   1.806  12.358
 1067W        W73492   4.244  19.465  10.565
 1068W        W73493  18.698  20.496   1.655
 1069W        W73494  33.939  24.963  14.008
 1070W        W73495  36.347   4.916   5.107
 1071W        W73496  40.073  20.485   2.843
 1072W        W73497   2.529  30.411  13.858
 1073W        W73498  19.717   7.594  11.116
 1074W        W73499  44.255  26.636  11.104
 1075W        W73500  39.559   4.249   2.144
 1076W        W73501  13.362  15.174   0.702
 1077W        W73502  23.041   8.777  10.154
 1078W        W73503  28.366  36.999   3.715
 1079W        W73504  19.572   0.246   1.843
 1080W        W73505  13.381  14.137   4.912
 1081W        W73506  25.157  13.565   3.848
 1082W        W73507  32.484  32.492  12.317
 1083W        W73508  42.952  29.555   3.662
 1084W        W73509  11.687  36.590  13.071
 1085W        W73510   3.245  21.329  13.548
 1086W        W73511  30.428  19.443   1.848
 1087W        W73512  40.797  12.180   3.559
 1088W        W73513  17.592  30.487   0.466
 1089W        W73514  14.596  37.460   0.725
 1090W        W73515  30.911  29.018   1.816
 1091W        W73516  10.478  25.966  14.828
 1092W        W73517   8.865   5.863   2.373
 1093W        W73518  36.343  25.465  12.985
 1094W        W73519  14.692  24.148  11.404
 1095W        W73520  22.838   7.816   1.373
 1096W        W73521   9.324  21.399  14.271
 1097W        W73522  15.562  37.496   3.729
 1098W        W73523  30.652  10.339   3.280
 1099W        W73524  20.822  43.714  14.974
 1100W        W73525  40.328  34.994   4.297
 1101W        W73526  12.663  27.515  14.527
 1102W        W73527  24.280  30.877   4.756
 1103W        W73528  36.469  23.191  10.177
 1104W        W73529  22.016  31.255   2.238
 1105W        W73530   9.679  26.626  13.783
 1106W        W73531  23.055  11.790   1.283
 1107W        W73532  14.146  40.971   1.662
 1108W        W73533   9.255  43.944   2.374
 1109W        W73534  11.391  40.420  13.175
 1110W        W73535   5.109  32.430   2.262
 1111W        W73536  16.613  24.792  12.924
 1112W        W73537  37.841  30.785   4.000
 1113W        W73538  34.679  15.214   0.866
 1114W        W73539  42.572  20.096  11.955
 1115W        W73540  42.785  42.354   2.423
 1116W        W73541   9.248  30.166  12.036
 1117W        W73542   4.650  37.100   2.085
 1118W        W73543  16.767  17.367   1.345
 1119W        W73544  22.063  24.303  13.985
 1120W        W73545  21.110  33.519   0.002
 1121W        W73546  39.626  44.745  13.398
 1122W        W73547  42.257  42.637  12.033
 1123W        W73548  22.927   8.595  11.035
 1124W        W73549   4.431   0.029  11.059
 1125W        W73550  25.128  12.616   0.283
 1126W        W73551  14.168  18.513  13.953
 1127W        W73552  18.595  30.438  10.369
 1128W        W73553  25.699  28.194   0.342
 1129W        W73554  28.385  36.045  12.530
 1130W        W73555  43.429   0.380  12.887
 1131W        W73556  21.148  23.465   9.867
 1132W        W73557  28.441   1.514   0.741
 1133W        W73558  11.331  25.288  14.435
 1134W        W73559  34.784  31.142   4.161
 1135W        W73560   2.914  21.180   3.196
 1136W        W73561  43.760  41.809  13.933
 1137W        W73562  41.769  11.826   0.036
 1138W        W73563  42.905  43.865  12.489
 1139W        W73564   7.809   3.718  12.883
 1140W        W73565  38.997   6.446  12.423
 1141W        W73566  20.725  16.608  10.658
 1142W        W73567  28.577  22.161   4.108
 1143W        W73568  40.362   3.871  13.051
 1144W        W73569  19.736  28.996  12.838
 1145W        W73570  23.764   5.969  14.955
 1146W        W73571  13.087  42.939  10.404
 1147W        W73572  18.743   0.468  12.946
 1148W        W73573  25.154  26.488   4.585
 1149W        W73574  16.576  10.813   3.829
 1150W        W73575  40.734  26.382   0.770
 1151W        W73576  17.628  40.390   2.692
 1152W        W73577   2.491  35.037  12.632
 1153W        W73578  12.364  28.476  13.105
 1154W        W73579  18.014   8.795  12.414
 1155W        W73580  10.795  38.714   1.419
 1156W        W73581  41.199   3.517  11.584
 1157W        W73582  36.646  20.609   4.467
 1158W        W73583  31.010  22.964  13.855
 1159W        W73584   5.401   9.146  11.684
 1160W        W73585  38.022  43.373   1.158
 1161W        W73586   2.673  35.419  11.840
 1162W        W73587  28.543   8.873   4.770
 1163W        W73588  26.158   0.334   1.667
 1164W        W73589  34.681  37.410   0.399
 1165W        W73590  33.809   8.745   4.251
 1166W        W73591  35.063  17.233  12.076
 1167W        W73592  43.235  24.203  14.490
 1168W        W73593  34.901   2.770   0.815
 1169W        W73594  36.286  39.225  11.481
 1170W        W73595  24.393   0.968   1.671
 1171W        W73596   3.703  18.542  14.402
 1172W        W73597  32.586   9.370   3.103
 1173W        W73598  26.085  14.443  14.469
 1174W        W73599  16.031   0.182   2.190
 1175W        W73600  36.986  13.254  13.734
 1176W        W73601  28.491   7.918  13.547
 1177W        W73602  34.873  23.525   1.803
 1178W        W73603  36.361  19.878  13.965
 1179W        W73604  17.331  21.085  11.211
 1180W        W73605  11.175  11.119  14.445
 1181W        W73606  35.323  14.438  11.338
 1182W        W73607  22.727   0.088  12.112
 1183W        W73608  44.126   2.251   2.307
 1184W        W73609  31.320  15.111  12.786
 1185W        W73610   8.107  37.436   5.028
 1186W        W73611  39.462  43.883   4.886
 1187W        W73612  24.256  30.334   5.087
 1188W        W73613  20.717  39.431  12.582
 1189W        W73614  42.712  31.382  11.185
 1190W        W73615  28.445  26.431   0.486
 1191W        W73616  23.290  23.147   4.447
 1192W        W73617  34.528  14.260  13.453
 1193W        W73618  21.134   5.422  12.457
 1194W        W73619  32.946  13.636   4.575
 1195W        W73620  32.916  10.864   0.294
 1196W        W73621   8.421  43.547   3.483
 1197W        W73622   9.756  19.114   0.815
 1198W        W73623  41.053  36.690   2.670
 1199W        W73624  20.237  21.221   2.128
 1200W        W73625  28.173  13.248   5.140
 1201W        W73626  10.817  43.488  14.518
 1202W        W73627  11.739  23.851  11.081
 1203W        W73628  29.224  18.735  11.624
 1204W        W73629   0.790  38.651  14.418
 1205W        W73630  11.651  24.617   0.382
 1206W        W73631   8.965  44.030  14.759
 1207W        W73632  36.934  13.868  12.953
 1208W        W73633   6.230   3.803   2.283
 1209W        W73634  39.422  17.969   4.059
 1210W        W73635  18.629  11.080  11.647
 1211W        W73636  17.162  19.613  13.323
 1212W        W73637   8.612   1.851  12.966
 1213W        W73638  23.351  10.222  10.613
 1214W        W73639  12.650  40.905  13.141
 1215W        W73640  23.284   2.215   0.919
 1216W        W73641   8.957  29.994  12.436
 1217W        W73642   5.843  18.574  11.650
 1218W        W73643  28.622   9.663   0.056
 1219W        W73644   5.866  27.240  11.319
 1220W        W73645  21.631   0.517  12.406
 1221W        W73646  17.313   2.308  10.535
 1222W        W73647  30.080  10.827  11.599
 1223W        W73648  12.903  44.645  13.496
 1224W        W73649  27.681  31.689   2.822
 1225W        W73650  21.089  44.537   2.724
 1226W        W73651   0.553  24.891  14.857
 1227W        W73652  35.615  42.853  14.324
 1228W        W73653  28.923  34.066  12.616
 1229W        W73654  29.215  10.610  11.203
 1230W        W73655  21.180   0.637   4.530
 1231W        W73656  36.349  19.319  12.566
 1232W        W73657  30.123  33.771  14.837
 1233W        W73658  22.631  30.504   4.246
 1234W        W73659  35.092  25.177  12.886
 1235W        W73660  12.158  22.467   5.477
 1236W        W73661  29.331   4.181   0.007
 1237W        W73662   9.192  43.927   4.190
 1238W        W73663  30.796   0.337  11.095
 1239W        W73664  44.835  22.785   3.759
 1240W        W73665  19.542  31.010   2.222
 1241W        W73666  14.877   4.819   3.478
 1242W        W73667   7.959  21.191  13.419
 1243W        W73668   7.151   8.729  14.248
 1244W        W73669  44.346  22.302   1.597
 1245W        W73670   0.828  41.905  13.734
 1246W        W73671  19.079  33.028  11.964
 1247W        W73672  35.046  42.879   3.692
 1248W        W73673  28.860  23.690   2.224
 1249W        W73674  27.403  28.717   3.379
 1250W        W73675   7.342  10.420  11.757
 1251W        W73676   8.529  20.765   2.202
 1252W        W73677  38.163   2.305   1.302
 1253W        W73678  32.546  16.807  12.045
 1254W        W73679  33.353  26.801  14.502
 1255W        W73680  33.969  10.718  13.048
 1256W        W73681  11.116   1.371   2.311
 1257W        W73682  34.079  21.100   0.552
 1258W        W73683  23.247  38.959   4.504
 1259W        W73684  28.848   0.249  12.545
 1260W        W73685  38.105   1.362   1.294
 1261W        W73686  25.740  28.388   2.397
 1262W        W73687   7.860  37.511  13.514
 1263W        W73688  25.953   8.659  12.973
 1264W        W73689  41.831  25.514  11.953
 1265W        W73690   5.839   5.588  10.951
 1266W        W73691  10.710  37.969  14.019
 1267W        W73692   2.297  34.161  13.439
 1268W        W73693  36.907   9.409  11.182
 1269W        W73694  18.058  25.976   1.011
 1270W        W73695   8.135  22.778   2.816
 1271W        W73696  17.535  26.081   1.752
 1272W        W73697  41.396  25.789   3.271
 1273W        W73698   1.526  36.337   2.243
 1274W        W73699   8.400   8.329   2.308
 1275W        W73700  18.546  20.031   1.453
 1276W        W73701  27.455  34.142  14.043
 1277W        W73702  27.916   5.170   1.285
 1278W        W73703  40.818  29.260  14.915
 1279W        W73704  15.538  22.558   4.130
 1280W        W73705   6.833  12.175  12.038
 1281W        W73706   5.468  14.870  13.646
 1282W        W73707  40.999  27.504   3.698
 1283W        W73708  19.300  43.213  12.976
 1284W        W73709  10.219  43.750  12.574
 1285W        W73710   4.451  17.178   0.896
 1286W        W73711  11.144  41.089  13.426
 1287W        W73712  38.034  35.059  10.565
 1288W        W73713  20.616  19.238  12.813
 1289W        W73714  12.460  28.483   1.906
 1290W        W73715  20.841   3.346  14.850
 1291W        W73716  36.975   6.684   4.548
 1292W        W73717  10.803  30.455  13.385
 1293W        W73718   1.488  15.663  12.011
 1294W        W73719  14.998  27.885  14.105
 1295W        W73720  20.008  32.060  14.249
 1296W        W73721  25.469  13.677   3.081
 1297W        W73722   0.070  22.963   4.228
 1298W        W73723   3.471  13.821  11.585
 1299W        W73724  40.822  19.987  10.719
 1300W        W73725  12.849   5.478  11.131
 1301W        W73726  11.377  32.525  12.380
 1302W        W73727  33.880  17.089  11.452
 1303W        W73728  28.574  26.032  13.325
 1304W        W73729  43.032  43.528  12.116
 1305W        W73730  32.463  19.780  13.345
 1306W        W73731  38.574   1.882   2.577
 1307W        W73732  14.919  26.819  13.893
 1308W        W73733   6.148  32.140  14.363
 1309W        W73734  19.631  37.130   3.206
 1310W        W73735   4.946   8.232  13.046
 1311W        W73736  34.341  39.840  10.644
 1312W        W73737  28.114  38.932  13.057
 1313W        W73738  14.028   9.921  13.600
 1314W        W73739  44.694  15.894  13.885
 1315W        W73740  28.174  13.955  14.019
 1316W        W73741  15.156  21.548  12.712
 1317W        W73742  26.711  18.591  14.849
 1318W        W73743  42.163  18.731   2.107
 1319W        W73744  22.051  44.815   4.477
 1320W        W73745  34.447  14.143   2.687
 1321W        W73746  38.070  42.051  11.741
 1322W        W73747  38.439  14.715  14.713
 1323W        W73748  34.089  38.982  11.535
 1324W        W73749   2.053  27.976   4.995
 1325W        W73750   3.130   7.364  12.490
 1326W        W73751  38.096  21.594   2.598
 1327W        W73752  23.006  39.059  11.978
 1328W        W73753  14.293  44.823  12.644
 1329W        W73754  33.492  32.054  14.452
 1330W        W73755  29.592  19.206   0.322
 1331W        W73756  44.402  18.818   0.391
 1332W        W73757  29.462  23.944   1.261
 1333W        W73758  13.147  33.870  11.227
 1334W        W73759  26.745  15.105   2.868
 1335W        W73760   2.283  43.363  12.100
 1336W        W73761  43.592  15.315  12.070
 1337W        W73762  30.341  28.870  14.418
 1338W        W73763  36.882  34.083   2.791
 1339W        W73764  14.519  27.123   4.609
 1340W        W73765  17.352  44.424  13.771
 1341W        W73766  19.705  21.706  13.136
 1342W        W73767   1.933  43.713   3.095
 1343W        W73768  38.958   5.986  13.453
 1344W        W73769  38.172  15.907   1.263
 1345W        W73770  17.714  11.988  14.745
 1346W        W73771  15.354   2.910  11.161
 1347W        W73772  26.106  34.015  11.561
 1348W        W73773   5.794  44.588  11.493
 1349W        W73774  14.720  29.010  13.787
 1350W        W73775  23.450  33.090  12.452
 1351W        W73776  26.737  34.912  14.636
 1352W        W73777  41.229  13.979   2.889
 1353W        W73778  20.554  11.385   4.791
 1354W        W73779   8.928  36.070   3.100
 1355W        W73780  34.139  18.097  12.929
 1356W        W73781  15.249  28.450   0.310
 1357W        W73782  13.678  12.245   2.127
 1358W        W73783   0.188  32.754   2.169
 1359W        W73784  37.376   8.464  13.284
 1360W        W73785   0.669   1.927  14.692
 1361W        W73786   1.873  26.101  10.964
 1362W        W73787  26.751  33.478   1.791
 1363W        W73788  25.049  32.577  11.529
 1364W        W73789  17.036  29.549   2.314
 1365W        W73790  30.156  20.600   2.151
 1366W        W73791  13.351  23.292   1.049
 1367W        W73792   6.099   9.820  13.347
 1368W        W73793  25.695   6.753  14.880
 1369W        W73794   6.712   6.414  14.563
 1370W        W73795  21.521  13.372  11.034
 1371W        W73796   3.219  32.372  11.184
 1372W        W73797   7.823   2.459   3.724
 1373W        W73798  36.325  23.764   3.724
 1374W        W73799  36.614  39.099  14.847
 1375W        W73800  38.231  34.041  14.130
 1376W        W73801  36.051  31.040  10.662
 1377W        W73802  15.697   0.974   3.720
 1378W        W73803  33.854  11.003   3.767
 1379W        W73804  27.988   7.357   0.496
 1380W        W73805  38.878  35.355   2.675
 1381W        W73806  37.596  26.797   4.486
 1382W        W73807  13.893  23.705  11.482
 1383W        W73808   4.209   8.676   2.338
 1384W        W73809  17.690  34.664  13.957
 1385W        W73810  37.572  35.923  14.831
 1386W        W73811  12.611   2.928  11.131
 1387W        W73812  14.035   8.410   2.792
 1388W        W73813  24.605   4.797   0.812
 1389W        W73814  12.930  16.189   3.312
 1390W        W73815   9.965  11.881  14.500
 1391W        W73816  37.778  23.614   0.878
 1392W        W73817   1.813  10.876   0.761
 1393W        W73818  34.848  40.198   1.641
 1394W        W73819  25.220  26.412   3.282
 1395W        W73820   9.448  11.680  11.212
 1396W        W73821  24.090  21.295  11.467
 1397W        W73822  19.756  12.314  13.394
 1398W        W73823  14.384   1.812   2.438
 1399W        W73824  25.927  26.569  12.490
 1400W        W73825  41.920  12.373   2.559
 1401W        W73826  42.900  21.205  12.509
 1402W        W73827  18.421  44.900  11.177
 1403W        W73828  16.726   3.958  14.666
 1404W        W73829  20.203   1.994  10.712
 1405W        W73830   1.041  23.863   5.020
 1406W        W73831  24.384  23.800  14.494
 1407W        W73832   2.981  32.381  12.582
 1408W        W73833  41.692  17.746  10.355
 1409W        W73834  11.634  32.608  10.653
 1410W        W73835  25.121  34.964  12.894
 1411W        W73836  17.054  32.649  13.488
 1412W        W73837  16.145  23.038  14.812
 1413W        W73838  17.472   3.616   4.644
 1414W        W73839  24.170  12.809   2.422
 1415W        W73840  28.991  31.926   4.803
 1416W        W73841  18.596  32.161   5.041
 1417W        W73842  14.243  11.119   2.157
 1418W        W73843   7.123  32.183   4.532
 1419W        W73844   3.689  24.050  12.797
 1420W        W73845   8.087  40.279  12.881
 1421W        W73846  34.080  37.536   4.660
 1422W        W73847  11.981  28.830   1.910
 1423W        W73848   9.091   4.325   1.342
 1424W        W73849   7.250  19.796   4.345
 1425W        W73850  27.690  17.362   2.711
 1426W        W73851  22.738  33.656   2.866
 1427W        W73852  30.803  30.444   2.857
 1428W        W73853  16.759  13.219  10.427
 1429W        W73854  16.650  28.606  11.015
 1430W        W73855   5.684  29.619  11.664
 1431W        W73856  27.963   5.623  12.467
 1432W        W73857  33.896  21.275  14.852
 1433W        W73858  37.404  36.517   2.327
 1434W        W73859   1.241  39.488   3.521
 1435W        W73860   3.358  26.157  11.522
 1436W        W73861   8.689  37.586  14.450
 1437W        W73862  13.215  32.507  14.220
 1438W        W73863   7.744  34.661  11.648
 1439W        W73864  14.682  38.908   2.188
 1440W        W73865  12.234  31.006  10.673
 1441W        W73866  30.384  38.900  12.912
 1442W        W73867  16.623  18.773   4.532
 1443W        W73868  12.847  37.810   0.344
 1444W        W73869  17.014  19.734  11.082
 1445W        W73870  25.899  36.973  13.901
 1446W        W73871  19.693  31.515   2.212
 1447W        W73872  33.886  16.582  11.740
 1448W        W73873  20.606  22.490   4.196
 1449W        W73874   6.112  18.525  11.225
 1450W        W73875  25.260  16.224   1.872
 1451W        W73876  20.102  41.879   2.766
 1452W        W73877  13.078  40.521  14.969
 1453W        W73878  36.607  28.180  13.423
 1454W        W73879  21.115   9.554   4.662
 1455W        W73880  17.391   2.348  11.415
 1456W        W73881  17.486  35.353   3.176
 1457W        W73882  11.390  37.353   3.127
 1458W        W73883  38.344   8.263  10.650
 1459W        W73884  29.261  30.437  13.380
 1460W        W73885  44.991   1.967  14.032
 1461W        W73886  13.380  44.569   0.816
 1462W        W73887  40.978  38.300   2.738
 1463W        W73888  39.112   0.916  10.230
 1464W        W73889   4.653  43.180   4.001
 1465W        W73890  36.128  41.899  12.171
 1466W        W73891  18.823  43.441  14.986
 1467W        W73892  21.252  44.328   4.067
 1468W        W73893  36.992  34.162   0.315
 1469W        W73894  27.232  11.974  14.776
 1470W        W73895   4.406  31.426  11.600
 1471W        W73896  30.677  38.984  14.496
 1472W        W73897  11.938  41.040   4.581
 1473W        W73898  18.642  42.751   4.079
 1474W        W73899  41.345  41.519   1.262
 1475W        W73900   1.272  27.903   2.173
 1476W        W73901   2.970  29.859   1.436
 1477W        W73902  28.955  23.045   3.913
 1478W        W73903  38.518  20.523  14.329
 1479W        W73904  40.833  27.516  10.515
 1480W        W73905  22.052  21.929  10.958
 1481W        W73906  11.834  44.991   2.065
 1482W        W73907   3.383  23.660   0.774
 1483W        W73908  22.530   4.866  10.647
 1484W        W73909  15.318  11.648  10.691
 1485W        W73910  31.072   2.801   0.408
 1486W        W73911  44.692  38.017   3.051
 1487W        W73912  12.682  21.763  12.908
 1488W        W73913  25.878  18.153   2.511
 1489W        W73914  30.496  44.849   4.611
 1490W        W73915  25.992  22.701   2.708
 1491W        W73916  17.340  16.766  12.878
 1492W        W73917  18.354  14.080   2.081
 1493W        W73918  40.764  22.173   1.942
 1494W        W73919  20.246  12.594  12.783
 1495W        W73920  12.078   1.322   2.744
 1496W        W73921   4.443  29.138   3.639
 1497W        W73922   9.946  24.022   4.565
 1498W        W73923  42.336   2.202  14.896
 1499W        W73924  36.414  17.143   2.712
 1500W        W73925  33.973   5.216   2.883
 1501W        W73926   7.682  38.125   4.470
 1502W        W73927  32.857  10.394  11.016
 1503W        W73928  11.419  19.829   0.695
 1504W        W73929   2.990   9.418  11.091
 1505W        W73930  36.522  30.050   2.953
 1506W        W73931  17.831  15.760   1.284
 1507W        W73932  18.632  18.605   3.877
 1508W        W73933   1.577  44.612  11.102
 1509W        W73934  14.080  10.507   3.190
 1510W        W73935  26.933  29.338  14.010
 1511W        W73936  26.104  33.547  14.861
 1512W        W73937  21.228  27.234  14.488
 1513W        W73938  28.851   9.722   1.451
 1514W        W73939  20.666  26.556   1.507
 1515W        W73940  10.114  31.113   3.692
 1516W        W73941  23.611   3.533  14.877
 1517W        W73942   1.657  43.283   1.276
 1518W        W73943   0.276  21.048  12.207
 1519W        W73944  38.386  19.886  11.624
 1520W        W73945  39.466  27.101  10.682
 1521W        W73946  36.594  11.257   1.023
 1522W        W73947  25.111  22.248   0.903
 1523W        W73948   7.887   3.804   0.216
 1524W        W73949   0.821   8.691  14.316
 1525W        W73950   9.079  25.481   0.522
 1526W        W73951  36.588   1.815   3.722
 1527W        W73952  38.378  13.349   4.774
 1528W        W73953  23.477  40.825  10.823
 1529W        W73954  17.019  25.551  13.279
 1530W        W73955  39.138   8.692  14.535
 1531W        W73956   9.822  16.188  14.692
 1532W        W73957   8.166   0.463   0.782
 1533W        W73958  38.592   5.694  13.273
 1534W        W73959  28.618  28.924   2.238
 1535W        W73960  44.987  19.729   1.694
 1536W        W73961  33.090  39.005  14.107
 1537W        W73962  35.256  39.156  12.485
 1538W        W73963  35.638  31.414  13.823
 1539W        W73964   7.286  34.973   2.971
 1540W        W73965  10.220   6.501   3.297
 1541W        W73966   0.033  16.262   2.553
 1542W        W73967   5.728  27.545   0.454
 1543W        W73968   7.311   9.060   2.409
 1544W        W73969  26.001  37.117  14.837
 1545W        W73970  32.982  10.274   1.365
 1546W        W73971  38.059  33.616   3.656
 1547W        W73972  44.489  24.720  14.763
 1548W        W73973  24.486  12.523   3.944
 1549W        W73974  27.465   8.629   0.691
 1550W        W73975  34.410  31.899  13.481
 1551W        W73976  15.219  33.073  12.826
 1552W        W73977  12.316  32.373   4.100
 1553W        W73978   4.356  29.586   0.061
 1554W        W73979  25.161  14.677   3.306
 1555W        W73980  28.502  43.010   0.409
 1556W        W73981   7.844   3.450   0.624
 1557W        W73982  39.872   1.320   4.058
 1558W        W73983   8.188  41.082  12.411
 1559W        W73984   6.932  12.555   2.989
 1560W        W73985  23.555  20.125   0.104
 1561W        W73986   6.585  36.269   4.577
 1562W        W73987  24.063  13.586   4.167
 1563W        W73988  13.542  27.052   1.380
 1564W        W73989   3.912  33.118  10.793
 1565W        W73990  20.218  10.374   3.156
 1566W        W73991   8.743   4.397   0.231
 1567W        W73992  38.473   0.691   0.109
 1568W        W73993  17.207  35.381   0.404
 1569W        W73994  39.335  36.010  11.157
 1570W        W73995  12.794   0.993   3.641
 1571W        W73996  21.250  44.124   4.558
 1572W        W73997  26.717  27.535   3.174
 1573W        W73998  33.201  43.815   0.812
 1574W        W73999  33.616  14.163  14.875
 1575W        W74000   8.353  25.733   3.504
 1576W        W74001  26.709   5.858  13.854
 1577W        W74002  26.695  30.601  11.152
 1578W        W74003   7.339  20.795   0.476
 1579W        W74004   5.679  19.259   3.632
 1580W        W74005   2.556  11.014  13.431
 1581W        W74006  29.111   1.147   1.284
 1582W        W74007  14.524  24.725   1.327
 1583W        W74008   5.342  38.266   2.344
 1584W        W74009  27.757  31.994   1.265
 1585W        W74010  41.009  20.323  14.211
 1586W        W74011  35.169  36.985  12.982
 1587W        W74012   1.180  38.384  14.660
 1588W        W74013   8.715  34.723  12.390
 1589W        W74014  39.887  41.770   4.536
 1590W        W74015   5.766  26.569   4.770
 1591W        W74016  39.325  37.594  12.015
 1592W        W74017  12.139  35.194  14.637
 1593W        W74018  16.555  34.524  11.927
 1594W        W74019  31.598  20.058  10.659
 1595W        W74020  20.792   6.738  13.083
 1596W        W74021  35.381  43.454   4.110
 1597W        W74022  17.627  16.874   2.722
 1598W        W74023   0.426  38.846  14.752
 1599W        W74024  38.343  35.116   4.525
 1600W        W74025   2.635  27.988   9.861
 1601W        W74026   6.205   1.973   2.581
 1602W        W74027  15.735  39.377   0.897
 1603W        W74028  35.496  27.509  11.504
 1604W        W74029  15.625  20.538  11.701
 1605W        W74030  26.440  40.744   4.239
 1606W        W74031   1.602  28.271  14.469
 1607W        W74032   1.832  22.707   0.279
 1608W        W74033  43.076  15.324   4.044
 1609W        W74034  14.698  28.136  12.658
 1610W        W74035  20.320  10.413   2.610
 1611W        W74036  31.988  41.595   0.926
 1612W        W74037   2.933  37.444   2.891
 1613W        W74038  29.931  39.475   3.293
 1614W        W74039  11.341  16.110  10.731
 1615W        W74040  25.444  11.972  10.367
 1616W        W74041  11.081   0.559   3.558
 1617W        W74042   7.212  11.637  12.568
 1618W        W74043  34.020  43.195   0.380
 1619W        W74044  32.084  29.164  13.935
 1620W        W74045  42.938  38.412  12.885
 1621W        W74046  11.240  15.568   3.693
 1622W        W74047  20.799   8.835  13.313
 1623W        W74048  44.748   6.930  13.763
 1624W        W74049  43.504  19.255  13.095
 1625W        W74050  16.531  28.413   3.380
 1626W        W74051  24.478  29.081   2.602
 1627W        W74052  44.071  35.535   3.715
 1628W        W74053  44.259  33.712  12.617
 1629W        W74054  28.523  27.108  12.936
 1630W        W74055  27.547   5.701  10.707
 1631W        W74056  14.088   1.270  13.238
 1632W        W74057  39.477  28.417   1.950
 1633W        W74058  38.525  16.725   0.481
 1634W        W74059  41.112  39.815  12.856
 1635W        W74060  41.930  27.145   4.519
 1636W        W74061  15.374  35.746  10.393
 1637W        W74062  25.923  44.317   1.826
 1638W        W74063  40.536  22.944   0.038
 1639W        W74064   3.391  25.364  12.911
 1640W        W74065  21.129  44.456   0.703
 1641W        W74066  16.295  40.505   4.091
 1642W        W74067  27.720  27.056  11.565
 1643W        W74068  30.632   7.642  14.403
 1644W        W74069  29.130   3.506   1.333
 1645W        W74070  32.904  28.023  13.903
 1646W        W74071  13.398  41.228  10.265
 1647W        W74072   4.467  36.109   1.858
 1648W        W74073  29.425  36.994  14.796
 1649W        W74074   8.330   3.270   2.320
 1650W        W74075  12.633  29.244   0.354
 1651W        W74076  12.776   3.927   4.689
 1652W        W74077  44.363  33.161  10.745
 1653W        W74078  43.065  37.760  14.406
 1654W        W74079  30.642  23.703   3.934
 1655W        W74080  28.558  22.034   1.641
 1656W        W74081   7.254  32.093  11.329
 1657W        W74082  23.112  37.564  12.010
 1658W        W74083  43.335   3.494  13.499
 1659W        W74084   0.523  40.241   2.379
 1660W        W74085   6.523  44.057   2.504
 1661W        W74086  29.112  27.430   2.863
 1662W        W74087   3.517  27.876  10.572
 1663W        W74088  41.585  28.877   1.927
 1664W        W74089  11.246  18.191   2.573
 1665W        W74090  22.564  41.292   0.823
 1666W        W74091  44.500  40.031   3.571
 1667W        W74092  11.829   1.225   0.899
 1668W        W74093  30.363   7.926  13.483
 1669W        W74094  24.082  35.382  14.330
 1670W        W74095  29.698  37.163   1.648
 1671W        W74096  30.384  39.143  11.096
 1672W        W74097   6.275   0.264   0.402
 1673W        W74098  10.283  28.847  10.055
 1674W        W74099  36.801   3.900  12.836
 1675W        W74100  37.877   4.194   4.688
 1676W        W74101  39.813  32.870   4.131
 1677W        W74102  39.372  32.239  13.068
 1678W        W74103  19.476  12.861   1.256
 1679W        W74104  33.915   3.960   1.465
 1680W        W74105  28.469  31.679   2.686
 1681W        W74106  15.610  23.010   3.896
 1682W        W74107  31.171  21.506  13.991
 1683W        W74108  22.664   9.299  13.590
 1684W        W74109  37.869  34.101  10.655
 1685W        W74110  40.198  25.812   3.652
 1686W        W74111   0.947  19.273  14.911
 1687W        W74112  11.783   1.834   2.603
 1688W        W74113  15.676  13.142  12.792
 1689W        W74114  10.151  23.937   4.060
 1690W        W74115  17.369   5.324   1.550
 1691W        W74116   4.942  43.844  10.726
 1692W        W74117  44.069  17.073  14.932
 1693W        W74118  33.951  30.504   2.368
 1694W        W74119  30.568  13.929   4.107
 1695W        W74120  16.440   7.218   5.063
 1696W        W74121  25.100  30.523  12.800
 1697W        W74122  32.577  43.245  13.835
 1698W        W74123  22.505  28.884   3.221
 1699W        W74124  16.525  31.909   0.924
 1700W        W74125   4.710  21.066  14.412
 1701W        W74126   4.942  39.579   2.256
 1702W        W74127  35.966  28.923  11.540
 1703W        W74128  17.663  30.140  13.966
 1704W        W74129  36.104   8.911   2.242
 1705W        W74130  30.017  27.892  14.010
 1706W        W74131  28.570  36.086  14.380
 1707W        W74132  28.434  34.427  11.965
 1708W        W74133  31.649  11.408  10.191
 1709W        W74134  16.372  14.388   2.181
 1710W        W74135  24.504  13.735   2.300
 1711W        W74136  42.895  22.040   0.770
 1712W        W74137   8.804  10.144   2.097
 1713W        W74138  28.164  18.684  11.415
 1714W        W74139  35.893   3.733   3.202
 1715W        W74140  25.524  12.222  12.822
 1716W        W74141  41.809   5.755  13.905
 1717W        W74142  20.648  26.679  10.728
 1718W        W74143   2.916  36.315  12.327
 1719W        W74144   8.909  14.354   1.420
 1720W        W74145  43.707   7.895   0.115
 1721W        W74146  38.293  19.261  13.391
 1722W        W74147  29.585  29.960   0.224
 1723W        W74148  34.001  20.484   4.103
 1724W        W74149  20.095   9.130  13.536
 1725W        W74150  16.022  34.998  11.435
 1726W        W74151   2.803   3.316  10.833
 1727W        W74152  28.353   8.083  14.489
 1728W        W74153  33.117  33.548  13.404
 1729W        W74154  29.081   6.287  13.764
 1730W        W74155  39.531   4.607   4.951
 1731W        W74156   4.162  13.282  12.585
 1732W        W74157  42.058  11.571   2.213
 1733W        W74158  34.034  10.973  12.588
 1734W        W74159   6.914  35.395   4.229
 1735W        W74160  32.322  11.027   1.203
 1736W        W74161  42.275  33.504  14.492
 1737W        W74162   3.257  43.908  13.977
 1738W        W74163   4.957  22.780   1.994
 1739W        W74164  26.061  11.928   1.978
 1740W        W74165  27.631   5.831  13.492
 1741W        W74166  16.705  23.242  11.083
 1742W        W74167  35.613  20.672  10.701
 1743W        W74168  31.282  41.285  11.064
 1744W        W74169  25.425  30.617  11.795
 1745W        W74170   5.888  11.883   2.026
 1746W        W74171  28.637  18.859  12.497
 1747W        W74172  32.604   7.255   0.295
 1748W        W74173   1.002  18.074   0.245
 1749W        W74174  31.040  23.673   4.275
 1750W        W74175  31.654  32.677   4.850
 1751W        W74176  13.883   6.785   2.202
 1752W        W74177  24.760  30.392  13.198
 1753W        W74178  27.852  13.145  12.900
 1754W        W74179   2.712   7.775   4.162
 1755W        W74180   0.207   2.828  11.286
 1756W        W74181  40.402  37.810   0.865
 1757W        W74182  22.976   1.318   4.194
 1758W        W74183   5.694  13.746  10.670
 1759W        W74184  16.600  30.507   0.410
 1760W        W74185  35.956   3.846   2.674
 1761W        W74186  26.449  23.654  14.292
 1762W        W74187  26.699  25.208  10.744
 1763W        W74188  36.680  43.046  10.222
 1764W        W74189  29.869  36.679   1.516
 1765W        W74190  41.884   6.284   1.388
 1766W        W74191  15.865  18.125   2.401
 1767W        W74192  19.837  36.788  14.403
 1768W        W74193  36.793   6.285  10.378
 1769W        W74194  20.727  34.270   2.622
 1770W        W74195  39.769  38.490  14.177
 1771W        W74196  39.907  43.710   2.676
 1772W        W74197  13.076  21.841   0.867
 1773W        W74198  18.153  23.595  10.569
 1774W        W74199  10.389  37.158  10.169
 1775W        W74200  39.020  24.776   1.698
 1776W        W74201  19.694  39.385   2.188
 1777W        W74202  40.503  23.724   9.936
 1778W        W74203  11.809  21.274  14.927
 1779W        W74204  32.378  36.101   0.089
 1780W        W74205  21.716   2.918   4.956
 1781W        W74206  18.813  41.305   4.385
 1782W        W74207  26.132  29.087  14.848
 1783W        W74208  11.051  26.574  14.266
 1784W        W74209  28.023   4.584   4.237
 1785W        W74210  18.521  27.767  11.924
 1786W        W74211  18.425  40.879  14.717
 1787W        W74212  30.330  17.295  14.064
 1788W        W74213   8.400  42.828  11.204
 1789W        W74214   9.203  29.544  12.414
 1790W        W74215   8.127   0.630  11.163
 1791W        W74216  22.147   5.325  12.332
 1792W        W74217  36.476  12.044   0.045
 1793W        W74218  32.607   0.962  11.514
 1794W        W74219  40.487  12.785  14.130
 1795W        W74220  17.257   1.241   0.912
 1796W        W74221  17.606  29.470   1.057
 1797W        W74222  25.479  16.481  13.414
 1798W        W74223   4.227  16.970   4.124
 1799W        W74224  22.990  10.999  11.494
 1800W        W74225  34.894  16.916   0.253
 1801W        W74226  40.776  37.817  14.924
 1802W        W74227   4.845  11.135  11.192
 1803W        W74228  15.128  32.579   0.372
 1804W        W74229  13.662   7.480   2.728
 1805W        W74230  17.807   2.017  12.030
 1806W        W74231  17.766  35.010   2.254
 1807W        W74232  27.740   5.306   1.952
 1808W        W74233  25.588  10.859   3.130
 1809W        W74234  42.730  12.780   1.669
 1810W        W74235  43.001   5.155  13.461
 1811W        W74236  11.836  28.383   4.387
 1812W        W74237  22.332  17.600   2.793
 1813W        W74238  41.508   7.418  13.032
 1814W        W74239  20.127   0.914  13.009
 1815W        W74240  44.177  38.978   4.674
 1816W        W74241  13.551  44.685   3.669
 1817W        W74242  37.028  25.160   2.258
 1818W        W74243  37.789   6.350  10.716
 1819W        W74244  40.396  25.682   1.253
 1820W        W74245  43.808  23.591   2.789
 1821W        W74246   4.859  43.638  11.618
 1822W        W74247  28.087   4.943   2.824
 1823W        W74248  21.326  11.263  10.216
 1824W        W74249  41.239   8.051  11.660
 1825W        W74250  15.683  37.534  14.478
 1826W        W74251  25.110  31.097   0.425
 1827W        W74252  29.562  38.665  11.028
 1828W        W74253   8.865  44.934   0.203
 1829W        W74254  22.362   5.724  12.104
 1830W        W74255   4.888  17.217  12.391
 1831W        W74256   2.033  31.163   1.363
 1832W        W74257  30.607  21.734   3.679
 1833W        W74258   2.440  23.527  12.684
 1834W        W74259  24.125  21.743   1.218
 1835W        W74260   2.144   8.785   2.747
 1836W        W74261  32.432  28.708   3.915
 1837W        W74262   5.027  20.180  14.117
 1838W        W74263  28.213  23.478   0.478
 1839W        W74264  35.060  40.310  13.418
 1840W        W74265  42.984  27.054   0.277
 1841W        W74266  35.414  25.484   3.363
 1842W        W74267  23.163  16.793   0.818
 1843W        W74268   2.919  14.121  11.015
 1844W        W74269  15.894  22.462   2.455
 1845W        W74270  33.387  16.093  12.270
 1846W        W74271  29.543  43.668  13.130
 1847W        W74272   3.255  27.667  11.419
 1848W        W74273  23.950  44.358  10.741
 1849W        W74274  44.716  18.281  12.148
 1850W        W74275  30.682  14.391   1.347
 1851W        W74276   8.136  28.754  12.905
 1852W        W74277   8.545   1.864   1.571
 1853W        W74278  28.112   5.040   5.084
 1854W        W74279  34.022  16.388   1.978
 1855W        W74280  41.536   0.890   1.885
 1856W        W74281   1.562  37.623   1.809
 1857W        W74282   1.250  28.720   0.239
 1858W        W74283  40.401  23.531   0.910
 1859W        W74284   5.227  17.843  14.387
 1860W        W74285  25.467  20.096  10.742
 1861W        W74286  20.540  14.112   3.457
 1862W        W74287  16.090  44.948   0.023
 1863W        W74288  26.587  15.652   0.100
 1864W        W74289  19.679  39.171   2.926
 1865W        W74290  19.538  36.062   3.704
 1866W        W74291  14.251   6.712   4.713
 1867W        W74292   7.641  41.740   4.514
 1868W        W74293   0.149   3.803  12.266
 1869W        W74294  27.356  38.297   0.401
 1870W        W74295  20.580  16.501  14.388
 1871W        W74296  23.096  32.883  11.140
 1872W        W74297  25.542  10.664  11.973
 1873W        W74298  16.406  32.251   4.069
 1874W        W74299   1.379   2.226  12.603
 1875W        W74300  36.480  25.978  10.401
 1876W        W74301  18.588  21.768  14.313
 1877W        W74302  22.474   3.486  11.539
 1878W        W74303  16.399  24.110  14.300
 1879W        W74304  15.216  35.908  11.407
 1880W        W74305  31.580  33.216   0.463
 1881W        W74306   0.354  30.210   4.548
 1882W        W74307  15.600  43.867   0.299
 1883W        W74308  26.680   6.255  10.668
 1884W        W74309  44.497  38.093  13.369
 1885W        W74310  18.112  43.870   1.146
 1886W        W74311  37.247  11.077   1.827
 1887W        W74312  37.718   1.810   2.479
 1888W        W74313   4.938   1.871  11.202
 1889W        W74314  29.355  18.224  11.033
 1890W        W74315  27.413  37.884  12.658
 1891W        W74316  41.991  29.869  10.780
 1892W        W74317  12.915  24.244  14.842
 1893W        W74318   7.766  22.258  10.748
 1894W        W74319  27.169   7.942  12.573
 1895W        W74320  14.287  22.597  11.365
 1896W        W74321  38.497  32.571  14.238
 1897W        W74322  19.131  22.786  11.641
 1898W        W74323   6.284  17.785  10.666
 1899W        W74324  38.476  23.095  14.720
 1900W        W74325  29.875  26.100   2.288
 1901W        W74326  11.997  38.860  14.878
 1902W        W74327  44.825  31.142   0.413
 1903W        W74328  31.413  27.904   0.000
 1904W        W74329   7.311  42.013   0.733
 1905W        W74330   6.195  35.879   2.824
 1906W        W74331  24.227   3.299  12.445
 1907W        W74332  30.555  19.046   4.744
 1908W        W74333   0.914  40.636   1.385
 1909W        W74334  33.126  44.301   1.904
 1910W        W74335   2.833  30.164  11.888
 1911W        W74336  36.993  25.549   1.344
 1912W        W74337  32.697  12.872   0.833
 1913W        W74338  41.481  43.489  12.313
 1914W        W74339  11.425   7.806   4.122
 1915W        W74340   5.601   2.138   2.396
 1916W        W74341  38.989   8.761  12.682
 1917W        W74342   0.383  39.333  14.936
 1918W        W74343  22.527   5.068   3.049
 1919W        W74344  36.009  19.109   2.894
 1920W        W74345  36.571  15.153   1.875
 1921W        W74346  24.593   8.153   1.386
 1922W        W74347  14.481  35.503  10.787
 1923W        W74348   0.923  16.901  13.336
 1924W        W74349  44.556  28.033   1.783
 1925W        W74350  34.030  18.587   0.358
 1926W        W74351  16.819  15.636   4.532
 1927W        W74352  31.489  16.525  14.018
 1928W        W74353  14.651  10.695  14.547
 1929W        W74354  19.222  20.768   1.403
 1930W        W74355  30.560  24.064  13.823
 1931W        W74356   8.027   0.910  10.741
 1932W        W74357   7.266  14.170   1.363
 1933W        W74358  25.236  14.102  13.848
 1934W        W74359  25.604   6.776   0.906
 1935W        W74360  39.050  39.967   0.078
 1936W        W74361  41.021  13.866   1.494
 1937W        W74362  33.146  30.827   2.977
 1938W        W74363   8.359  15.820  13.028
 1939W        W74364  38.392   4.376  13.029
 1940W        W74365  24.729   2.468  11.914
 1941W        W74366  42.302  19.236  13.822
 1942W        W74367   8.260  37.795   3.249
 1943W        W74368  25.523   5.193   2.475
 1944W        W74369  41.322  10.002  11.555
 1945W        W74370  39.031  18.832   0.018
 1946W        W74371  17.567  21.540  11.255
 1947W        W74372  25.430   4.262  12.061
 1948W        W74373  30.826  40.970   3.370
 1949W        W74374  26.205  11.452   5.071
 1950W        W74375   1.816  26.537  11.843
 1951W        W74376  38.892   3.333   4.539
 1952W        W74377  39.323   7.442  11.613
 1953W        W74378  34.581  15.599  14.147
 1954W        W74379  11.750  27.121   3.758
 1955W        W74380  44.937   8.395  12.899
 1956W        W74381   8.398  18.107   1.850
 1957W        W74382  20.726   8.277  11.465
 1958W        W74383  39.080  24.885  14.343
 1959W        W74384  10.335  17.078  11.896
 1960W        W74385  26.072   8.965   2.461
 1961W        W74386  12.371  30.718   3.881
 1962W        W74387  35.655   2.725  13.932
 1963W        W74388  36.894  28.099   0.399
 1964W        W74389   2.821  40.210  12.675
 1965W        W74390   0.706  35.011   2.621
 1966W        W74391  15.860  34.981  10.075
 1967W        W74392  38.353  23.623   3.396
 1968W        W74393   4.308  23.463   4.279
 1969W        W74394  11.257  17.236  10.701
 1970W        W74395  37.345   3.006   2.238
 1971W        W74396  11.653  40.453  11.398
 1972W        W74397  25.509  41.541  11.857
 1973W        W74398  40.590  18.116  11.552
 1974W        W74399   5.912  41.935  14.440
 1975W        W74400  16.747  38.345  14.305
 1976W        W74401  20.788  43.706  12.667
 1977W        W74402  28.518  21.111   2.162
 1978W        W74403  11.619   5.990  12.503
 1979W        W74404   3.932   6.441   2.453
 1980W        W74405  23.033   4.264   0.075
 1981W        W74406  34.874  38.428  11.664
 1982W        W74407  14.617   5.822   0.678
 1983W        W74408  23.028   5.238   4.070
 1984W        W74409  23.220  27.774   2.430
 1985W        W74410  22.806  31.553   4.520
 1986W        W74411  11.727   6.264  11.782
 1987W        W74412  29.979  32.999   1.664
 1988W        W74413  10.608  25.175   2.692
 1989W        W74414  43.711   4.234  12.490
 1990W        W74415  15.261  17.806   4.124
 1991W        W74416  11.245   3.899   2.492
 1992W        W74417  16.561   9.420   3.656
 1993W        W74418  17.528  22.039  13.709
 1994W        W74419   7.311  11.356   2.856
 1995W        W74420  29.607  20.597   0.268
 1996W        W74421  44.914   8.674   4.043
 1997W        W74422  40.359  28.097   2.398
 1998W        W74423   8.931  21.174   5.045
 1999W        W74424  18.585   6.759  11.614
 2000W        W74425  20.590  41.692  10.644
 2001W        W74426  24.963  20.173  12.973
 2002W        W74427  41.491   9.377  10.792
 2003W        W74428   5.062  36.203   2.522
 2004W        W74429  30.896  38.810  12.872
 2005W        W74430  39.569  40.594  12.248
 2006W        W74431   1.351   1.121   0.350
 2007W        W74432  30.198  10.308   4.592
 2008W        W74433   1.238  28.606  11.698
 2009W        W74434   2.860  20.294   0.358
 2010W        W74435   7.693  15.152  10.685
 2011W        W74436   2.001  36.647  12.435
 2012W        W74437   1.842  15.804   1.201
 2013W        W74438  34.311  11.271   2.149
 2014W        W74439  20.996  22.016   2.769
 2015W        W74440  12.866  37.573   2.322
 2016W        W74441  37.346   2.744  11.544
 2017W        W74442  33.961  22.645   0.195
 2018W        W74443  32.764   5.059  10.052
 2019W        W74444  20.628  42.875   0.418
 2020W        W74445  33.549  27.915   4.975
 2021W        W74446  23.788  21.345   1.995
 2022W        W74447  39.988  15.744  11.179
 2023W        W74448  42.977  36.553  11.062
 2024W        W74449  20.024  43.655   1.277
 2025W        W74450  36.424   5.492  13.120
 2026W        W74451   3.935  44.280   3.224
 2027W        W74452   6.182   8.393   4.917
 2028W        W74453  27.433  19.056   3.225
 2029W        W74454  43.775   7.815  12.493
 2030W        W74455   5.711  15.251  13.126
 2031W        W74456   3.939  18.087  10.742
 2032W        W74457   2.336  42.082   2.408
 2033W        W74458  38.923   2.703  11.841
 2034W        W74459  21.785  15.514  12.659
 2035W        W74460   7.037  38.418  13.535
 2036W        W74461   7.228  40.360  13.938
 2037W        W74462  34.935  28.793   0.662
 2038W        W74463   5.363   7.900  12.181
 2039W        W74464   7.897  42.839   3.782
 2040W        W74465  37.990  41.938  14.267
 2041W        W74466  23.571  34.918  13.802
 2042W        W74467  22.869  16.562  13.019
 2043W        W74468  27.156  16.361   0.567
 2044W        W74469  18.238  32.844   9.803
 2045W        W74470  42.802  34.828  14.860
 2046W        W74471  20.586  35.328   2.415
 2047W        W74472  35.028   3.128  13.912
 2048W        W74473   7.854  41.205  10.957
 2049W        W74474  14.588  14.749  11.609
 2050W        W74475  20.559  30.074  14.988
 2051W        W74476  17.827  40.072  12.904
 2052W        W74477   8.852  39.431  13.328
 2053W        W74478   4.696  30.505   2.387
 2054W        W74479  39.708  33.057   3.115
 2055W        W74480   4.252  40.021  10.529
 2056W        W74481  17.649  26.453  10.594
 2057W        W74482  25.492  32.442  14.455
 2058W        W74483  35.872  13.774  14.893
 2059W        W74484   8.394  33.348   4.471
 2060W        W74485  27.944  32.972   3.150
 2061W        W74486  32.258  28.234   3.681
 2062W        W74487  33.828  38.037  12.916
 2063W        W74488  13.366  27.964   2.267
 2064W        W74489  14.866  20.120   2.355
 2065W        W74490  23.976  10.613  14.430
 2066W        W74491  20.024  41.993  11.964
 2067W        W74492  24.185  13.499   1.902
 2068W        W74493   6.138  23.249  13.546
 2069W        W74494  10.145  15.737   2.221
 2070W        W74495   4.952   7.089  12.132
 2071W        W74496  41.875  37.249   0.428
 2072W        W74497  19.935  18.358   2.682
 2073W        W74498  10.891   1.013   4.597
 2074W        W74499  26.400   1.993  11.069
 2075W        W74500   7.064  12.664  13.028
 2076W        W74501  31.546   7.826  14.460
 2077W        W74502  23.933  15.056  14.403
 2078W        W74503  38.150  35.357   1.322
 2079W        W74504   6.913  17.117  13.389
 2080W        W74505  21.149   5.418   1.264
 2081W        W74506  43.993  24.366  10.616
 2082W        W74507  17.436  31.074   2.253
 2083W        W74508  27.023  44.525   4.850
 2084W        W74509  21.538  40.122  10.150
 2085W        W74510   0.281  14.125  14.832
 2086W        W74511  40.570   7.977   1.210
 2087W        W74512  25.450  13.512   2.582
 2088W        W74513  30.533  37.944   4.833
 2089W        W74514  23.036  19.997  13.395
 2090W        W74515   0.873  37.049   3.602
 2091W        W74516  14.431  36.272  14.287
 2092W        W74517  38.052  30.610   1.313
 2093W        W74518   4.803  15.751  10.739
 2094W        W74519   7.213  42.023  11.633
 2095W        W74520   9.473  35.483  10.669
 2096W        W74521   2.257  20.511  11.249
 2097W        W74522   1.704   2.411   3.851
 2098W        W74523  18.917  14.704   4.617
 2099W        W74524  26.081  36.295  11.467
 2100W        W74525  32.163  18.976  13.082
 2101W        W74526  11.680   6.121   4.894
 2102W        W74527   3.429  18.559   2.352
 2103W        W74528  40.282  13.931  12.550
 2104W        W74529  15.331  42.076   0.600
 2105W        W74530  44.406  40.156   0.720
 2106W        W74531  11.119  21.103   4.337
 2107W        W74532  43.784  22.583  12.377
 2108W        W74533   7.430  36.451  13.010
 2109W        W74534  17.645   5.849  11.793
 2110W        W74535  15.084   6.269  11.655
 2111W        W74536  12.821  43.134  11.280
 2112W        W74537  29.293   1.767   2.378
 2113W        W74538  34.155  41.398   1.971
 2114W        W74539  10.923  26.668   1.432
 2115W        W74540  12.577  41.916  14.807
 2116W        W74541  43.021   8.645  14.082
 2117W        W74542  37.335  13.570  14.877
 2118W        W74543   5.741  28.001   4.314
 2119W        W74544  33.968   6.427   3.149
 2120W        W74545   4.993  19.300  12.627
 2121W        W74546  13.990  25.078  12.626
 2122W        W74547  28.793  31.896   0.006
 2123W        W74548  36.516  24.963   3.347
 2124W        W74549   1.607  22.999   2.348
 2125W        W74550  41.939  42.258  12.986
 2126W        W74551  32.974  35.955   4.256
 2127W        W74552  31.219  34.377  14.981
 2128W        W74553  31.815  24.122  11.374
 2129W        W74554  11.100  23.754  11.522
 2130W        W74555  27.640  41.962  13.061
 2131W        W74556   3.367  20.733   1.238
 2132W        W74557   7.361  10.312   3.316
 2133W        W74558  42.359  26.114  12.512
 2134W        W74559  42.544   9.188  14.684
 2135W        W74560  10.448  30.885  13.132
 2136W        W74561  39.281  44.589  13.045
 2137W        W74562  44.505  44.043   3.747
 2138W        W74563   3.802  34.023   3.795
 2139W        W74564   7.828  41.852   0.783
 2140W        W74565  11.689  35.347   2.264
 2141W        W74566  12.708  10.171   4.994
 2142W        W74567  16.133  36.363  11.628
 2143W        W74568   7.260   4.832   4.085
 2144W        W74569  44.348   1.668  12.048
 2145W        W74570  29.696   2.780  10.981
 2146W        W74571  38.985   7.656   4.813
 2147W        W74572   2.914  30.150   1.027
 2148W        W74573  31.108  42.522   4.623
 2149W        W74574  10.682  44.289   0.303
 2150W        W74575   0.820  18.533   4.173
 2151W        W74576   2.772   3.840  12.604
 2152W        W74577  29.129  25.691   4.580
 2153W        W74578  44.244  14.302  11.406
 2154W        W74579  38.954  38.453  10.707
 2155W        W74580  19.704  37.995  11.155
 2156W        W74581   9.883  23.368  12.891
 2157W        W74582  28.525   8.113  11.208
 2158W        W74583  17.970  27.193  10.659
 2159W        W74584  13.799  20.428  12.531
 2160W        W74585  42.908  24.744   4.173
 2161W        W74586   9.189  41.821  10.976
 2162W        W74587  42.149  24.732  13.120
 2163W        W74588   3.651   9.331  12.492
 2164W        W74589  26.308  34.985   4.726
 2165W        W74590  43.972   8.090   0.516
 2166W        W74591  42.466  30.077   0.521
 2167W        W74592  23.388   9.318  11.041
 2168W        W74593  34.954   2.010  10.952
 2169W        W74594  43.018  34.969  10.446
 2170W        W74595  30.479  12.786  10.754
 2171W        W74596   3.217   9.132  11.434
 2172W        W74597  29.764  35.542   3.106
 2173W        W74598  18.218   1.721   0.973
 2174W        W74599   5.705  43.598  12.490
 2175W        W74600  15.122   5.325  14.790
 2176W        W74601  13.239   9.713  13.982
 2177W        W74602  22.021  22.486  13.331
 2178W        W74603  40.321   7.946   3.573
 2179W        W74604  28.141   2.660  13.781
 2180W        W74605   3.975  42.405  13.337
 2181W        W74606   3.382   8.351   4.097
 2182W        W74607  15.759   6.921   4.684
 2183W        W74608  35.545  34.471   4.545
 2184W        W74609  18.394  23.537  11.591
 2185W        W74610  32.119   2.910  13.437
 2186W        W74611  25.975  11.388   2.154
 2187W        W74612   3.504  39.578   0.388
 2188W        W74613  42.878  34.508  13.050
 2189W        W74614   5.294  12.836  10.476
 2190W        W74615  23.455  39.393   4.108
 2191W        W74616   7.293  31.744   0.907
 2192W        W74617  13.166   1.966   2.284
 2193W        W74618  43.884  11.866  12.841
 2194W        W74619   6.836  19.729  13.479
 2195W        W74620  26.965  23.413   0.427
 2196W        W74621  17.204   8.254  12.578
 2197W        W74622  12.256  11.418  11.143
 2198W        W74623   5.977  44.868  14.461
 2199W        W74624   4.505  39.410   0.361
 2200W        W74625  22.211  29.213  11.920
 2201W        W74626  44.998  35.201   3.686
 2202W        W74627   6.767  10.079  13.940
 2203W        W74628  15.852   5.808  11.659
 2204W        W74629  32.075  18.480  14.038
 2205W        W74630  43.352  17.992  10.524
 2206W        W74631   2.055  33.422   1.479
 2207W        W74632  33.014  43.408  10.582
 2208W        W74633  42.112  23.050   4.487
 2209W        W74634  38.079   3.662   3.676
 2210W        W74635  21.544  10.227   3.837
 2211W        W74636  43.825   3.690  13.502
 2212W        W74637  40.835  14.260  10.738
 2213W        W74638   1.558   8.152  11.584
 2214W        W74639   1.798  33.048  11.857
 2215W        W74640  30.944   0.095   0.341
 2216W        W74641   5.796  26.507  14.280
 2217W        W74642  24.193  20.083   2.764
 2218W        W74643  17.203   9.156  11.672
 2219W        W74644  38.021   6.664   4.575
 2220W        W74645  12.078  11.841   4.685
 2221W        W74646   5.425  13.701  11.567
 2222W        W74647  18.682   1.969  12.112
 2223W        W74648  36.882  36.582   0.924
 2224W        W74649   0.245  44.358  13.509
 2225W        W74650  15.302  31.172   3.874
 2226W        W74651  14.245  30.104  13.787
 2227W        W74652   0.197  21.615  11.426
 2228W        W74653  31.678  39.935   4.530
 2229W        W74654  27.481   7.782   3.224
 2230W        W74655  28.559  13.877   3.171
 2231W        W74656  16.304  40.753  11.689
 2232W        W74657  35.109  18.400  13.797
 2233W        W74658   4.957  41.462   2.727
 2234W        W74659  11.398   7.186   5.342
 2235W        W74660   8.157  17.794   3.631
 2236W        W74661   9.878  44.376   3.740
 2237W        W74662  30.274  28.487   1.643
 2238W        W74663  20.317  34.446   1.968
 2239W        W74664   0.411   8.172   4.575
 2240W        W74665  39.311  12.314  12.066
 2241W        W74666   8.172  10.136   1.734
 2242W        W74667  39.029   4.503   5.107
 2243W        W74668  38.842   7.230   0.709
 2244W        W74669  18.843  42.919   1.023
 2245W        W74670   9.037  31.433  11.727
 2246W        W74671  31.435  26.716   1.512
 2247W        W74672   4.694  10.077   1.445
 2248W        W74673   8.395   9.651   4.882
 2249W        W74674  20.817  24.502   4.357
 2250W        W74675  40.334  29.014  14.981
 2251W        W74676  22.210  19.521   0.747
 2252W        W74677   2.138  35.929   4.758
 2253W        W74678  26.561   9.136   2.429
 2254W        W74679  11.179  13.856   0.777
 2255W        W74680  15.118   9.485  11.662
 2256W        W74681  20.411  21.623   0.873
 2257W        W74682   2.844  24.786   1.321
 2258W        W74683  34.498  26.207  13.403
 2259W        W74684   2.060  43.506   4.562
 2260W        W74685  44.650  12.284  14.433
 2261W        W74686  22.622  13.623   2.467
 2262W        W74687  28.522  40.496  12.157
 2263W        W74688  31.577  14.587   3.822
 2264W        W74689  42.553  34.042  11.599
 2265W        W74690   4.644  21.705  13.073
 2266W        W74691  41.286  41.456  12.460
 2267W        W74692  15.697  36.000   5.058
 2268W        W74693  26.712  31.627   3.317
 2269W        W74694  22.807  12.739  14.060
 2270W        W74695  23.618  34.606  13.381
 2271W        W74696  10.979  22.930   2.658
 2272W        W74697  29.095  30.532   3.191
 2273W        W74698   5.952  13.343  14.996
 2274W        W74699  30.137  10.845   2.347
 2275W        W74700   0.523  16.259   2.395
 2276W        W74701  34.965  19.329   2.404
 2277W        W74702   4.993  35.901  14.616
 2278W        W74703  13.155   4.310   1.311
 2279W        W74704  29.168  33.619  12.445
 2280W        W74705  28.988   0.678   2.124
 2281W        W74706  22.286  21.463   3.265
 2282W        W74707   7.158  17.145  11.058
 2283W        W74708   5.612  26.039  14.388
 2284W        W74709  25.153   7.942   0.840
 2285W        W74710  12.531  22.796  14.767
 2286W        W74711  39.084  14.254  14.039
 2287W        W74712  27.015  19.182   1.019
 2288W        W74713  26.468   5.173  13.291
 2289W        W74714  19.626   9.913  10.787
 2290W        W74715  38.251  35.349  12.923
 2291W        W74716  44.838  32.901   1.226
 2292W        W74717   7.780  33.123  11.999
 2293W        W74718  20.186  30.922   1.761
 2294W        W74719  27.216  29.642  14.336
 2295W        W74720  34.862  11.151  11.990
 2296W        W74721   8.098  42.874  14.269
 2297W        W74722  39.813  39.076   1.367
 2298W        W74723  19.068  40.758   0.486
 2299W        W74724  38.864  42.967  12.631
 2300W        W74725  43.393   6.086  14.354
 2301W        W74726   4.808  22.950   2.852
 2302W        W74727   5.338  17.560   2.487
 2303W        W74728  30.917   6.114  14.573
 2304W        W74729  20.237   3.661  14.321
 2305W        W74730  33.494  31.547  14.451
 2306W        W74731   7.828  28.652  13.464
 2307W        W74732  32.247  29.995   1.076
 2308W        W74733  22.602  16.159   0.171
 2309W        W74734  26.830   8.692   4.132
 2310W        W74735  22.704  37.507  10.681
 2311W        W74736  33.372  19.325  10.573
 2312W        W74737   3.044   7.316   4.801
 2313W        W74738  37.155  25.257  10.149
 2314W        W74739  19.644  10.163  14.734
 2315W        W74740   9.158  18.117   4.557
 2316W        W74741  12.347  22.353   0.945
 2317W        W74742  40.315  15.739   3.994
 2318W        W74743   1.568  13.014  11.639
 2319W        W74744  30.918  29.197  11.062
 2320W        W74745  12.550  44.278  12.469
 2321W        W74746  12.767  36.411   2.377
 2322W        W74747  19.102  12.948   0.511
 2323W        W74748  25.749  29.327  10.361
 2324W        W74749  26.209   3.466  12.034
 2325W        W74750   9.039   4.931  11.206
 2326W        W74751  14.052  40.773  12.153
 2327W        W74752  31.301  17.595  10.954
 2328W        W74753  34.657   7.110  13.849
 2329W        W74754  25.116  44.769  12.383
 2330W        W74755  13.049   7.951   3.309
 2331W        W74756  36.311   0.549   3.273
 2332W        W74757  26.837   2.382   3.605
 2333W        W74758  31.608   0.329  11.515
 2334W        W74759  44.256  30.209  11.598
 2335W        W74760  32.659  27.877   4.549
 2336W        W74761   8.151  18.627  11.709
 2337W        W74762  39.834  38.044   1.684
 2338W        W74763   6.936  20.522   0.602
 2339W        W74764  37.045  20.468   3.628
 2340W        W74765  25.877  35.077   2.616
 2341W        W74766  31.368   7.911  13.216
 2342W        W74767  23.483  37.962   2.226
 2343W        W74768  31.863   7.920  13.028
 2344W        W74769  20.092  18.885   2.799
 2345W        W74770  23.265  34.539   1.896
 2346W        W74771   4.707  27.908  12.028
 2347W        W74772   8.265   5.888   1.955
 2348W        W74773  21.144  29.239  14.476
 2349W        W74774  35.292  42.408  12.032
 2350W        W74775  24.844   8.389  10.037
 2351W        W74776  38.495  12.338   4.695
 2352W        W74777   6.964  32.006   0.618
 2353W        W74778  39.297  44.326  10.132
 2354W        W74779   1.189   6.142  14.368
 2355W        W74780   9.040  23.532   2.921
 2356W        W74781  44.398  13.730  14.958
 2357W        W74782  16.646  21.656  11.164
 2358W        W74783  32.343  16.583  11.647
 2359W        W74784  28.936  12.248  11.250
 2360W        W74785  17.152  31.528   2.388
 2361W        W74786  37.032   3.316  10.843
 2362W        W74787  44.794  15.037  14.835
 2363W        W74788   3.700  28.884  10.931
 2364W        W74789  27.654  43.272   0.062
 2365W        W74790  37.362  22.117   4.143
 2366W        W74791  17.246  26.427   1.224
 2367W        W74792  18.503   3.967   3.683
 2368W        W74793   4.411  16.587  13.991
 2369W        W74794  11.800  16.102  14.354
 2370W        W74795  25.915  34.631   1.859
 2371W        W74796  25.510  35.304  12.919
 2372W        W74797   1.350  34.067  12.580
 2373W        W74798  27.402  23.726  13.502
 2374W        W74799  10.246   2.858   2.008
 2375W        W74800  12.727  24.713  10.583
 2376W        W74801  37.615  39.470   2.838
 2377W        W74802  23.485  20.469   4.449
 2378W        W74803  30.482   9.594   2.878
 2379W        W74804  10.868  18.568   3.251
 2380W        W74805   3.163  18.536  11.044
 2381W        W74806   6.761  41.849   0.967
 2382W        W74807  14.727  20.277   1.402
 2383W        W74808  29.565  15.705   3.141
 2384W        W74809  41.295  16.149   1.276
 2385W        W74810  44.397   3.598   3.627
 2386W        W74811  13.705  44.999  14.031
 2387W        W74812  24.384  43.673  12.576
 2388W        W74813  40.238   8.166   0.845
 2389W        W74814   6.364  40.888   3.233
 2390W        W74815  39.404  10.316  10.641
 2391W        W74816   6.689  20.218  13.396
 2392W        W74817  29.553  32.629   0.934
 2393W        W74818  33.551  41.866   1.452
 2394W        W74819  25.552  14.769  14.339
 2395W        W74820  21.436  43.802   2.818
 2396W        W74821  18.575  25.633   4.559
 2397W        W74822   6.000  37.948   4.639
 2398W        W74823  39.434  11.351  13.526
 2399W        W74824  29.162   6.736   2.229
 2400W        W74825  38.398  37.854  12.104
 2401W        W74826  19.219  43.983  12.594
 2402W        W74827   3.262  10.975  14.312
 2403W        W74828   9.763   0.159  14.768
 2404W        W74829  27.167   1.761   4.733
 2405W        W74830  42.961  26.591  14.307
 2406W        W74831  11.139   6.170  12.593
 2407W        W74832  32.411  28.142   1.851
 2408W        W74833  41.034  16.699   2.747
 2409W        W74834  42.268  42.620   9.500
 2410W        W74835  26.483  30.617   5.075
 2411W        W74836  43.953  36.343   0.245
 2412W        W74837  28.010   1.728  13.738
 2413W        W74838  17.765  33.951  11.507
 2414W        W74839  31.597  41.389   2.174
 2415W        W74840  12.848  29.434  14.836
 2416W        W74841   5.069  26.207   0.787
 2417W        W74842  27.413   9.702  12.645
 2418W        W74843  13.542  44.048  14.036
 2419W        W74844  23.050  38.384  12.685
 2420W        W74845  31.606   6.275   1.349
 2421W        W74846  42.858   2.542  12.449
 2422W        W74847   2.810  10.609   0.681
 2423W        W74848  21.599  25.189  13.286
 2424W        W74849  24.447  10.187   3.236
 2425W        W74850   3.524  24.923   3.676
 2426W        W74851  15.495  33.027   0.035
 2427W        W74852   7.688  30.689  11.681
 2428W        W74853  20.835  24.457   2.772
 2429W        W74854   9.492   6.721  11.733
 2430W        W74855  21.050  27.446  14.928
 2431W        W74856  15.151  22.605  11.165
 2432W        W74857  31.617  20.581  12.175
 2433W        W74858  37.992  19.320   0.433
 2434W        W74859  27.722  16.772  10.445
 2435W        W74860   6.968   6.220   2.268
 2436W        W74861  19.710   7.413   1.324
 2437W        W74862  23.719  28.000  14.955
 2438W        W74863   6.434   9.386   3.734
 2439W        W74864   5.825  40.321   2.789
 2440W        W74865  38.540  44.134   4.714
 2441W        W74866  38.332   5.373   0.492
 2442W        W74867   4.446  22.492  13.522
 2443W        W74868   9.178  26.722  14.540
 2444W        W74869  24.697  42.080  13.103
 2445W        W74870   4.690   2.906   3.187
 2446W        W74871   2.957  26.082  12.985
 2447W        W74872  42.822  27.077  12.547
 2448W        W74873  34.212   9.663  11.408
 2449W        W74874  41.471  12.353   4.689
 2450W        W74875   0.196  29.471  13.962
 2451W        W74876  40.702  34.417  10.681
 2452W        W74877   8.281  29.281   3.655
 2453W        W74878  10.851  33.401  10.598
 2454W        W74879  28.786  44.072   4.569
 2455W        W74880  39.452   7.130   3.199
 2456W        W74881  41.879   6.038   0.892
 2457W        W74882  19.665  33.118   1.557
 2458W        W74883   0.287  26.751  11.869
 2459W        W74884  25.816   3.907  11.200
 2460W        W74885   6.271   7.147  13.022
 2461W        W74886   8.863  41.363   2.250
 2462W        W74887  29.219  27.231  13.457
 2463W        W74888  18.225  43.902   3.069
 2464W        W74889  20.522  37.140   4.600
 2465W        W74890  21.776  25.103  11.436
 2466W        W74891  20.635  29.885   1.070
 2467W        W74892  34.285  24.204   3.103
 2468W        W74893   8.763  27.114   4.119
 2469W        W74894  11.930   5.014   4.144
 2470W        W74895   8.358  29.051   0.181
 2471W        W74896  41.844  34.157   1.376
 2472W        W74897   5.328  14.610  11.594
 2473W        W74898  44.104  35.910   1.334
 2474W        W74899   5.883  17.078  13.344
 2475W        W74900  35.390  39.233  13.790
 2476W        W74901  13.158  22.683  11.146
 2477W        W74902  18.862  32.145  11.055
 2478W        W74903  37.088   2.373  11.760
 2479W        W74904  30.158   2.946  11.179
 2480W        W74905  29.730  10.432  10.304
 2481W        W74906  17.267   4.437  10.975
 2482W        W74907  28.732   1.226  14.290
 2483W        W74908  32.334  31.343   2.305
 2484W        W74909   2.374  25.742   1.761
 2485W        W74910  38.101  26.851  14.723
 2486W        W74911  33.105   0.097   1.674
 2487W        W74912  28.453  41.646   2.425
 2488W        W74913  35.156  22.113  13.374
 2489W        W74914  20.862   3.023  11.411
 2490W        W74915   6.846  27.170  13.520
 2491W        W74916  29.142  37.344  11.059
 2492W        W74917  24.185  43.336  11.042
 2493W        W74918  15.852  10.392  10.344
 2494W        W74919  31.407   1.133   1.366
 2495W        W74920   6.520   4.911  11.153
 2496W        W74921  32.620   8.365  13.921
 2497W        W74922   8.305  24.448   0.483
 2498W        W74923  21.691  38.539  13.312
 2499W        W74924  21.257  28.742   0.179
 2500W        W74925  10.912  33.342  12.639
 2501W        W74926   4.300  15.521   2.370
 2502W        W74927  11.439   2.831  14.329
 2503W        W74928  35.640  10.180   0.728
 2504W        W74929   2.745   1.517  11.535
 2505W        W74930   2.735  32.870  13.601
 2506W        W74931  12.745  36.075  12.405
 2507W        W74932  40.695   0.764   1.369
 2508W        W74933  16.998  33.055  11.472
 2509W        W74934  34.097  21.977  13.753
 2510W        W74935  31.799  16.689   3.030
 2511W        W74936   3.949  15.060   1.695
 2512W        W74937  44.233  37.866  11.979
 2513W        W74938  20.468   7.561   0.862
 2514W        W74939  26.390  18.123   2.321
 2515W        W74940  19.118  43.292   2.016
 2516W        W74941  31.211  16.368   5.157
 2517W        W74942   5.347  23.656  13.310
 2518W        W74943  19.685   2.791  12.563
 2519W        W74944  33.297  33.402   4.947
 2520W        W74945   4.229  40.423   4.092
 2521W        W74946  20.934  17.255   2.868
 2522W        W74947  30.644   8.386   1.199
 2523W        W74948  31.952   7.336   1.032
 2524W        W74949  20.250  20.022   0.672
 2525W        W74950  14.314  20.385   1.722
 2526W        W74951  24.907  12.285  14.023
 2527W        W74952  15.562  16.759   1.265
 2528W        W74953  30.819  11.721  12.879
 2529W        W74954   3.322  37.776   4.144
 2530W        W74955  25.074  35.998  14.714
 2531W        W74956   0.687  37.065  14.367
 2532W        W74957  17.133  19.017  12.503
 2533W        W74958  32.119  15.800  11.054
 2534W        W74959  26.193  28.595   1.001
 2535W        W74960   0.364  13.612  14.822
 2536W        W74961   2.196   1.630   2.343
 2537W        W74962  35.452   7.676   2.725
 2538W        W74963  28.650  14.760  14.242
 2539W        W74964   8.244  17.066   2.399
 2540W        W74965  28.105   4.918  14.396
 2541W        W74966  17.166   0.715  12.320
 2542W        W74967  22.642  24.409   2.340
 2543W        W74968  37.273  23.187   4.056
 2544W        W74969  32.458  16.484  13.857
 2545W        W74970   4.818  39.219  10.832
 2546W        W74971  23.071  38.791  11.534
 2547W        W74972  41.585  32.214  14.075
 2548W        W74973  27.219  42.733  11.563
 2549W        W74974  31.376  32.450  10.465
 2550W        W74975  44.360  28.571   3.296
 2551W        W74976  22.171  40.342   2.767
 2552W        W74977  27.630   0.394   3.156
 2553W        W74978  21.983  41.840  12.524
 2554W        W74979  28.598  20.614   1.346
 2555W        W74980  20.704  16.020  14.525
 2556W        W74981  26.308  38.968   1.320
 2557W        W74982   3.672  31.688  12.946
 2558W        W74983  27.653  27.476  13.024
 2559W        W74984  35.464  28.980  11.307
 2560W        W74985  40.865   2.294   0.898
 2561W        W74986  20.787  30.522  14.216
 2562W        W74987  25.943   9.686  10.667
 2563W        W74988  41.913  23.418  13.142
 2564W        W74989  22.673  14.326  14.303
 2565W        W74990   0.333  20.823   2.841
 2566W        W74991  26.379  33.534   1.402
 2567W        W74992   8.173  29.462  14.927
 2568W        W74993  24.802  23.331   1.640
 2569W        W74994  38.357  44.100  12.046
 2570W        W74995   7.848   3.257  13.453
 2571W        W74996  10.201   1.581   2.398
 2572W        W74997  33.627   3.415   0.825
 2573W        W74998  22.600  42.935  13.857
 2574W        W74999  25.615  35.988  12.066
 2575W        W75000  42.527  30.361  11.241
 2576W        W75001  31.517   9.275   3.559
 2577W        W75002  12.617  29.461   1.694
 2578W        W75003  24.160   5.716   3.693
 2579W        W75004  31.298  33.728  14.371
 2580W        W75005  19.402   7.280  11.667
 2581W        W75006   4.272  28.293  11.176
 2582W        W75007  43.870   1.780  10.766
 2583W        W75008  10.552  23.659   3.823
 2584W        W75009  24.510   5.342   0.867
 2585W        W75010   8.767   4.366  14.354
 2586W        W75011   5.661  22.700  12.476
 2587W        W75012  24.640  15.951   4.685
 2588W        W75013   0.345  16.450   3.696
 2589W        W75014  26.751  37.367  13.903
 2590W        W75015  34.124  16.774  13.247
 2591W        W75016   4.449  26.640   2.760
 2592W        W75017  43.008  43.747  11.640
 2593W        W75018  36.289  26.079  13.864
 2594W        W75019  14.206   1.268  14.784
 2595W        W75020   1.542  42.762  12.550
 2596W        W75021  13.804  22.580  12.342
 2597W        W75022  18.653  33.375   2.323
 2598W        W75023   0.640  18.123   1.720
 2599W        W75024  12.075  14.313   3.720
 2600W        W75025  29.137  35.894  12.118
 2601W        W75026  20.520  42.056  11.477
 2602W        W75027   2.749  36.478  13.986
 2603W        W75028   4.005  43.352  12.868
 2604W        W75029  17.263  36.518  13.875
 2605W        W75030  41.815  15.673  12.048
 2606W        W75031  34.900  29.775   4.971
 2607W        W75032  16.084  34.432  12.147
 2608W        W75033   9.256  32.413  14.996
 2609W        W75034   3.251  30.476   4.256
 2610W        W75035  13.259  42.619   2.632
 2611W        W75036  39.607  25.979   0.280
 2612W        W75037  19.160  18.925  11.441
 2613W        W75038  36.092  25.552  11.445
 2614W        W75039  42.514  11.547  14.507
 2615W        W75040  32.521  34.033   1.484
 2616W        W75041  32.425  26.304   4.264
 2617W        W75042   5.186  24.117   3.155
 2618W        W75043  39.131   7.376   3.530
 2619W        W75044  35.827  13.779   0.911
 2620W        W75045  24.686  42.737  14.023
 2621W        W75046  40.799  37.556   3.095
 2622W        W75047   1.984  41.949  10.749
 2623W        W75048  10.646  23.701  14.711
 2624W        W75049   9.334  43.850   3.182
 2625W        W75050   0.053  27.068  12.698
 2626W        W75051  13.267  42.475  10.588
 2627W        W75052  29.622  14.680  13.377
 2628W        W75053  26.546  39.479   3.772
 2629W        W75054   5.880  37.221  10.682
 2630W        W75055  19.464  11.831   0.405
 2631W        W75056   7.489  18.580  13.531
 2632W        W75057  43.811  10.223   9.952
 2633W        W75058  41.330  36.756  13.978
 2634W        W75059  15.590  27.233   1.529
 2635W        W75060  41.499  21.279  10.660
 2636W        W75061  33.684  10.252   0.226
 2637W        W75062  17.071  23.745  12.968
 2638W        W75063  28.922  33.069  10.488
 2639W        W75064   4.692  25.676  14.938
 2640W        W75065  33.304   3.282   0.442
 2641W        W75066  38.891   0.942  13.953
 2642W        W75067  12.532  24.513  10.110
 2643W        W75068  20.095  11.609   4.562
 2644W        W75069  10.131   2.813  13.468
 2645W        W75070   8.235  29.876   4.526
 2646W        W75071  42.525  16.298   2.728
 2647W        W75072  39.346  35.501  11.137
 2648W        W75073   8.054  34.400   5.163
 2649W        W75074  14.296  23.124   4.277
 2650W        W75075  40.872  15.885  14.450
 2651W        W75076  37.591  27.064  11.077
 2652W        W75077   0.139  10.376  10.676
 2653W        W75078   9.054   0.840   1.126
 2654W        W75079  30.028  28.908   0.931
 2655W        W75080  22.475  24.173  13.317
 2656W        W75081   2.917  43.036   5.126
 2657W        W75082  28.024  19.952   5.084
 2658W        W75083  43.981  12.777   3.852
 2659W        W75084  24.176  25.948  11.040
 2660W        W75085   2.841  42.715   4.178
 2661W        W75086   4.923  23.189   4.533
 2662W        W75087  31.261  29.817  11.684
 2663W        W75088  39.046  28.422   0.667
 2664W        W75089  15.331  31.270  10.386
 2665W        W75090  14.610  23.284   3.885
 2666W        W75091  15.596  20.714  14.881
 2667W        W75092   2.300  18.483   3.666
 2668W        W75093  14.611  13.185   4.750
 2669W        W75094  15.221   3.405   0.382
 2670W        W75095   5.564  32.861   0.425
 2671W        W75096   0.810   0.142   3.231
 2672W        W75097  17.203  15.347  11.180
 2673W        W75098  20.461  38.623  11.026
 2674W        W75099  17.816  34.418   1.838
 2675W        W75100  22.560  19.094  13.391
 2676W        W75101  26.094  40.332  11.575
 2677W        W75102  44.962  39.452  11.532
 2678W        W75103   7.234  33.105  13.816
 2679W        W75104  39.365  26.723   0.310
 2680W        W75105   9.785  40.537   1.026
 2681W        W75106  39.422  39.484  14.359
 2682W        W75107  14.676  34.040   2.861
 2683W        W75108  27.044  27.109  12.817
 2684W        W75109  17.564  33.527   4.697
 2685W        W75110  40.359  33.076  14.434
 2686W        W75111  14.690  16.079   4.238
 2687W        W75112  22.976   7.801  13.957
 2688W        W75113  43.970   0.756  12.077
 2689W        W75114  31.430  29.503   3.803
 2690W        W75115  27.166  25.011  10.963
 2691W        W75116  11.434  24.557  12.569
 2692W        W75117  35.492  44.834  11.133
 2693W        W75118  28.259  26.659  14.100
 2694W        W75119  27.154   3.760  11.587
 2695W        W75120  15.698  17.573   4.003
 2696W        W75121  37.414  25.229  12.488
 2697W        W75122   4.348  41.322  10.671
 2698W        W75123  14.373   2.279   0.248
 2699W        W75124  10.632  26.371  13.986
 2700W        W75125  36.115  11.160   4.240
 2701W        W75126   6.391  43.658  10.467
 2702W        W75127  41.566  12.313  10.903
 2703W        W75128  13.304  32.378  11.112
 2704W        W75129   9.793   4.924  14.609
 2705W        W75130  39.460  42.053  11.675
 2706W        W75131  17.357  42.463  14.987
 2707W        W75132  19.496  13.432   2.851
 2708W        W75133  42.540  39.673  12.252
 2709W        W75134  35.041  31.358   1.278
 2710W        W75135  25.142   9.132   2.863
 2711W        W75136  17.966   9.743   1.860
 2712W        W75137  16.204   1.889  11.169
 2713W        W75138   7.413  27.856  14.511
 2714W        W75139   7.146  17.262   0.521
 2715W        W75140  11.396   4.223   0.268
 2716W        W75141  17.841  17.235   1.874
 2717W        W75142   4.425  13.645   2.417
 2718W        W75143  14.186  15.545   3.247
 2719W        W75144  40.604  29.494   3.840
 2720W        W75145   0.835  13.079   0.423
 2721W        W75146  41.981   2.465  12.381
 2722W        W75147  42.713  29.665   0.743
 2723W        W75148  12.136  12.588   0.277
 2724W        W75149  29.373  25.276  13.439
 2725W        W75150   7.097  12.266   2.539
 2726W        W75151   3.158  10.535  11.536
 2727W        W75152  39.367  11.787   3.718
 2728W        W75153   1.790  20.726  11.431
 2729W        W75154  38.043  25.927  13.954
 2730W        W75155  14.257  28.693   0.543
 2731W        W75156  13.662  24.673   3.607
 2732W        W75157  44.460   7.614   1.732
 2733W        W75158   2.743  37.078   1.023
 2734W        W75159  16.064  17.711  11.977
 2735W        W75160  29.700  16.125  12.467
 2736W        W75161  25.246  43.467  11.895
 2737W        W75162  35.971   6.653   1.494
 2738W        W75163  39.436  22.245  10.984
 2739W        W75164  16.404  28.019  12.907
 2740W        W75165  32.874  18.573   2.239
 2741W        W75166  20.065  43.183  13.151
 2742W        W75167  22.611  18.818   4.898
 2743W        W75168  42.270  32.922   1.468
 2744W        W75169   7.416  20.383   0.835
 2745W        W75170  42.459  26.811  12.934
 2746W        W75171  31.198  10.707  13.352
 2747W        W75172   4.710   8.759   4.672
 2748W        W75173  27.874  39.787   0.085
 2749W        W75174   8.959   6.755  10.666
 2750W        W75175  32.134  18.484   4.119
 2751W        W75176  12.159  24.478  13.087
 2752W        W75177  31.310  18.810  11.081
 2753W        W75178   3.202   6.408  13.788
 2754W        W75179  19.652  15.234  13.880
 2755W        W75180   6.855  31.808  11.182
 2756W        W75181  17.968  10.896   3.968
 2757W        W75182  17.322  39.003   0.842
 2758W        W75183  15.846  28.154   0.697
 2759W        W75184  11.703  35.682  10.713
 2760W        W75185  24.648  27.211  11.890
 2761W        W75186   7.722  34.652  14.572
 2762W        W75187  31.992  31.296  10.895
 2763W        W75188  26.025  43.779   2.906
 2764W        W75189  19.707   8.468   3.179
 2765W        W75190  12.701  40.411   2.261
 2766W        W75191  34.823  14.546   0.690
 2767W        W75192  43.521  36.516   1.004
 2768W        W75193  35.557   6.265  11.899
 2769W        W75194  24.459  39.374   4.048
 2770W        W75195   4.827   9.182  10.558
 2771W        W75196  24.925   6.745   2.918
 2772W        W75197  24.183  28.372  13.008
 2773W        W75198  12.137  37.442  14.464
 2774W        W75199  26.262  35.346  11.832
 2775W        W75200  30.651  11.591   0.903
 2776W        W75201   8.820  43.704   3.766
 2777W        W75202  11.721   0.059  14.023
 2778W        W75203  16.659  35.903   2.655
 2779W        W75204  20.030   9.279  13.042
 2780W        W75205  20.972   2.996  12.575
 2781W        W75206  41.876  42.194   4.202
 2782W        W75207  38.325  25.967   3.349
 2783W        W75208  30.903   1.344  14.964
 2784W        W75209  25.119   3.276  12.712
 2785W        W75210  10.269   4.957   0.397
 2786W        W75211  28.170  38.988   3.729
 2787W        W75212   5.795  36.865  13.010
 2788W        W75213  16.678  32.667   3.271
 2789W        W75214  27.666   3.295  14.711
 2790W        W75215  27.454  19.457   0.160
 2791W        W75216   0.768  31.662   4.129
 2792W        W75217   5.438  41.970  13.536
 2793W        W75218  36.977  39.278  12.144
 2794W        W75219  14.821  15.105  13.466
 2795W        W75220  10.718   8.868   3.322
 2796W        W75221  17.487   2.321   2.808
 2797W        W75222  22.122  23.418   0.303
 2798W        W75223  11.829  40.915   0.236
 2799W        W75224  44.242  15.400   1.760
 2800W        W75225   3.435  34.376   0.881
 2801W        W75226  39.296  20.612   4.159
 2802W        W75227  32.006  11.670  14.096
 2803W        W75228  24.764   1.478  11.693
 2804W        W75229  30.931  43.522   0.437
 2805W        W75230  16.059  17.332   1.736
 2806W        W75231  26.702  10.396  11.027
 2807W        W75232  11.716   4.327  12.537
 2808W        W75233  40.394   7.421  10.302
 2809W        W75234  10.771  18.186   2.876
 2810W        W75235  32.059  42.589   4.596
 2811W        W75236   1.745   9.468  12.982
 2812W        W75237  36.829  15.548  13.423
 2813W        W75238   0.742   0.809  14.142
 2814W        W75239  36.362  32.082   9.916
 2815W        W75240  10.207  21.269  10.679
 2816W        W75241  19.144  24.621  14.512
 2817W        W75242  21.580  23.097  14.038
 2818W        W75243  33.290  32.054   3.863
 2819W        W75244  30.061  41.489   3.164
 2820W        W75245   2.998   1.352  11.978
 2821W        W75246  33.550  20.320  10.522
 2822W        W75247  38.109   9.189  11.477
 2823W        W75248  33.474  25.269  14.971
 2824W        W75249  15.547  16.039  11.931
 2825W        W75250  41.474  12.665  12.768
 2826W        W75251  38.065  16.550  12.892
 2827W        W75252  25.200   9.628   4.495
 2828W        W75253   6.402  42.562   2.524
 2829W        W75254  43.010  15.178  11.102
 2830W        W75255  18.219  41.642  12.491
 2831W        W75256  12.264   5.887   0.284
 2832W        W75257   8.824  23.673  14.072
 2833W        W75258  14.636  18.143  13.157
 2834W        W75259  36.333  29.318  14.427
 2835W        W75260  16.981   0.506   4.163
 2836W        W75261   5.728  14.691  10.884
 2837W        W75262  39.815  16.678   4.535
 2838W        W75263  12.163  41.266   3.586
 2839W        W75264  16.648  35.519   3.485
 2840W        W75265  16.325   3.682  14.334
 2841W        W75266  17.064  34.919   3.730
 2842W        W75267  38.104   2.965   2.002
 2843W        W75268  43.947  18.491   1.224
 2844W        W75269  31.387  23.503   0.846
 2845W        W75270  29.268  35.049   4.210
 2846W        W75271  19.615  38.955  13.182
 2847W        W75272  21.496  22.572   1.826
 2848W        W75273   0.674   6.374  14.369
 2849W        W75274  27.308  24.119   2.268
 2850W        W75275  38.473  22.487   2.949
 2851W        W75276  30.419  15.187   0.727
 2852W        W75277  41.900  20.541  13.883
 2853W        W75278  26.158  23.404  13.935
 2854W        W75279  23.197   5.060  10.242
 2855W        W75280  23.675  20.100  14.608
 2856W        W75281  41.358  40.772  10.868
 2857W        W75282  28.555  18.516   3.758
 2858W        W75283  44.743  22.452   3.358
 2859W        W75284   6.956  39.766  12.294
 2860W        W75285  20.239  23.686  14.431
 2861W        W75286  14.184  14.533   3.108
 2862W        W75287  41.033  26.510   0.375
 2863W        W75288   1.842  37.091  12.071
 2864W        W75289   2.232  40.925   4.754
 2865W        W75290  44.195   1.785  12.980
 2866W        W75291  40.299  36.357  12.087
 2867W        W75292  17.035   2.423  13.111
 2868W        W75293  24.080  38.204  10.721
 2869W        W75294   1.335  24.451  12.843
 2870W        W75295   5.967   7.150  12.006
 2871W        W75296  42.151   0.658  12.467
 2872W        W75297  12.827  21.153   4.308
 2873W        W75298  21.707  18.984   3.390
 2874W        W75299   2.311   6.895   3.726
 2875W        W75300  36.539   4.822  13.894
 2876W        W75301   0.001  22.471  14.962
 2877W        W75302  27.719  26.072  12.291
 2878W        W75303   9.727  23.673  10.980
 2879W        W75304  36.391  27.684   3.776
 2880W        W75305  18.563  18.721  11.703
 2881W        W75306  17.397  12.107   0.150
 2882W        W75307  40.455  10.577   3.889
 2883W        W75308  34.450  42.241   3.285
 2884W        W75309  14.308  39.923  11.938
 2885W        W75310  26.094  44.001  11.842
 2886W        W75311  14.618   9.151   2.860
 2887W        W75312  21.218   9.973   1.928
 2888W        W75313  29.497  17.653  11.882
 2889W        W75314  14.671  19.533   3.322
 2890W        W75315  20.029   8.356   0.352
 2891W        W75316  44.720   3.891   1.302
 2892W        W75317  12.293   1.363   1.724
 2893W        W75318  31.376  16.036   4.207
 2894W        W75319   5.490  44.088  13.072
 2895W        W75320  41.550  14.726   0.034
 2896W        W75321  11.924  25.114   2.227
 2897W        W75322  40.124  17.062   4.687
 2898W        W75323  27.583  44.821  13.850
 2899W        W75324  13.782   6.493  14.180
 2900W        W75325  36.195   4.767   4.154
 2901W        W75326   4.840  39.432   1.305
 2902W        W75327  26.452  19.870   3.366
 2903W        W75328  37.017  37.262   1.744
 2904W        W75329  43.123  43.627   2.585
 2905W        W75330   7.819  17.155  13.792
 2906W        W75331  32.990  27.159   3.086
 2907W        W75332  44.432   7.142   4.543
 2908W        W75333  30.156   2.820  12.224
 2909W        W75334  18.924  36.460   2.768
 2910W        W75335  35.866  34.356  14.438
 2911W        W75336  41.310  12.039  11.272
 2912W        W75337  41.425  10.278  14.206
 2913W        W75338  42.796  11.405   1.378
 2914W        W75339  15.854   7.780   2.254
 2915W        W75340  19.776  20.653  14.959
 2916W        W75341   4.397  10.425  14.009
 2917W        W75342   6.745  37.611   2.427
 2918W        W75343  41.502  33.004  11.516
 2919W        W75344  12.851  21.059  10.665
 2920W        W75345   1.861  25.774  10.565
 2921W        W75346  40.163  16.752  13.937
 2922W        W75347  27.024  40.494  12.905
 2923W        W75348  16.697  11.821   1.655
 2924W        W75349  20.597  37.378  11.372
 2925W        W75350  30.577  32.982   0.266
 2926W        W75351   4.853  32.830   3.288
 2927W        W75352  19.591  26.895  12.096
 2928W        W75353  37.555  34.614  13.100
 2929W        W75354  35.909  21.103  10.732
 2930W        W75355   6.791  43.986  11.581
 2931W        W75356  37.492   8.126  11.969
 2932W        W75357  17.933   6.857   2.645
 2933W        W75358  40.575  43.224  13.379
 2934W        W75359  34.626  15.561  12.997
 2935W        W75360   3.485  13.882   0.425
 2936W        W75361  21.262  40.553  12.292
 2937W        W75362  32.002   6.818  10.428
 2938W        W75363  24.368  27.765   2.881
 2939W        W75364  32.918  29.552   0.909
 2940W        W75365  36.406  16.604   2.705
 2941W        W75366   6.489  44.467   0.073
 2942W        W75367   6.177   2.199  14.384
 2943W        W75368  19.080  33.373  10.623
 2944W        W75369   4.888   4.582  13.191
 2945W        W75370   8.748  36.144   1.887
 2946W        W75371  38.015   8.132  11.474
 2947W        W75372  43.805  29.144   1.393
 2948W        W75373   1.853  31.877   5.008
 2949W        W75374  11.917   5.477  13.408
 2950W        W75375  32.857  38.448  14.386
 2951W        W75376  15.689   3.324  10.979
 2952W        W75377  41.470  33.422  12.629
 2953W        W75378   8.530   1.005  11.944
 2954W        W75379  20.533  40.040   0.423
 2955W        W75380  24.449  18.653  13.413
 2956W        W75381  10.962   9.297   4.596
 2957W        W75382  23.246  39.604  13.980
 2958W        W75383  18.758  41.980   4.579
 2959W        W75384  25.004  44.726   1.762
 2960W        W75385   4.864  31.146  11.540
 2961W        W75386   1.130  33.489  14.724
 2962W        W75387   2.254  22.953   3.081
 2963W        W75388  40.580  44.243   0.963
 2964W        W75389  20.271  13.712  14.251
 2965W        W75390  17.679  17.834  11.441
 2966W        W75391  20.006  33.043   1.958
 2967W        W75392  27.376  29.854  12.349
 2968W        W75393  23.086  21.937   1.780
 2969W        W75394   6.259  32.617   1.553
 2970W        W75395  11.910  34.049  12.032
 2971W        W75396   7.481  29.612  13.764
 2972W        W75397  23.696   1.468  10.991
 2973W        W75398   5.261   7.254  11.420
 2974W        W75399  11.037  20.813  10.675
 2975W        W75400  29.616  18.674   3.995
 2976W        W75401  40.870  23.689   3.109
 2977W        W75402  26.362  28.331  13.377
 2978W        W75403  21.668  23.516  12.153
 2979W        W75404  41.871  39.563  10.833
 2980W        W75405  15.238  19.085  13.787
 2981W        W75406   1.870   0.776  12.942
 2982W        W75407  32.597  18.772  11.140
 2983W        W75408  20.569  37.992  12.806
 2984W        W75409  28.259  14.800   3.206
 2985W        W75410  24.362  38.355  11.153
 2986W        W75411  37.908   3.308  12.892
 2987W        W75412  21.847  38.138   0.060
 2988W        W75413  15.490   9.650  14.910
 2989W        W75414  19.421  14.148   0.119
 2990W        W75415  24.508  20.206   3.191
 2991W        W75416  30.348  35.158  13.947
 2992W        W75417   9.931  10.480   0.427
 2993W        W75418  28.130  15.728  11.188
 2994W        W75419  37.870   9.812   0.498
 2995W        W75420   5.726  17.187   1.773
 2996W        W75421  26.559  28.543   4.417
 2997W        W75422  38.584  20.115   1.380
 2998W        W75423  24.382   1.498   1.659
 2999W        W75424   2.922  18.168  12.930
 3000W        W75425  24.128   9.100  14.902
 3001W        W75426   6.427   8.589  12.896
 3002W        W75427  38.604  28.400   0.410
 3003W        W75428  31.626  22.474   1.499
 3004W        W75429  21.004   6.336  11.062
 3005W        W75430  22.778  41.581  10.802
 3006W        W75431  28.730   0.881  14.651
 3007W        W75432  14.588  18.243   1.272
 3008W        W75433   5.970  19.555   1.720
 3009W        W75434  25.638  37.769   0.986
 3010W        W75435   9.424   0.973  12.918
 3011W        W75436  43.426  11.809   3.037
 3012W        W75437  25.572  42.568  13.897
 3013W        W75438  11.537  38.829  11.580
 3014W        W75439  40.270  43.357   4.683
 3015W        W75440  15.016   0.990  11.607
 3016W        W75441  23.253  20.615   1.833
 3017W        W75442  26.496  38.614   2.358
 3018W        W75443  16.063   4.205   4.496
 3019W        W75444   7.881  43.985   1.256
 3020W        W75445   6.794  39.089  13.840
 3021W        W75446  21.558   5.986  10.423
 3022W        W75447  39.384  34.827  10.446
 3023W        W75448   6.136   2.900  13.102
 3024W        W75449  15.162  18.243   0.416
 3025W        W75450  37.993  24.174   1.700
 3026W        W75451   6.873  25.005   4.291
 3027W        W75452  23.013  42.857  10.872
 3028W        W75453  20.960  36.522  14.824
 3029W        W75454  28.481  12.887  14.396
 3030W        W75455   8.791   4.871  13.527
 3031W        W75456  18.978  26.204   2.800
 3032W        W75457  43.641  12.600  14.288
 3033W        W75458  33.719  38.277  14.308
 3034W        W75459  21.490   9.175  12.566
 3035W        W75460  17.033   3.900   4.596
 3036W        W75461  32.654  43.896  11.561
 3037W        W75462   1.073   8.251  11.396
 3038W        W75463   5.429  15.114   0.792
 3039W        W75464  30.897   9.232   0.791
 3040W        W75465  36.560  32.089  12.504
 3041W        W75466  20.541  35.305  13.895
 3042W        W75467  24.647  25.367  14.356
 3043W        W75468  38.453  17.807  14.086
 3044W        W75469   4.456   8.190   4.585
 3045W        W75470  14.492  33.734  11.227
 3046W        W75471   2.092  43.450   0.006
 3047W        W75472  27.224  18.262   1.762
 3048W        W75473  33.003  15.527  12.413
 3049W        W75474  37.515  18.139  12.007
 3050W        W75475  13.326  40.876   1.659
 3051W        W75476  22.272  19.044   1.556
 3052W        W75477  14.976  32.524  12.808
 3053W        W75478   6.890  26.684   4.211
 3054W        W75479  37.995   6.645   1.848
 3055W        W75480  38.394  17.731   2.337
 3056W        W75481   8.678  37.942  13.118
 3057W        W75482  19.372   8.477  11.188
 3058W        W75483  21.166  30.973   0.374
 3059W        W75484  11.335  16.563   1.395
 3060W        W75485  19.249   0.518  12.909
 3061W        W75486  21.901  35.947  10.698
 3062W        W75487  34.354  23.446   1.769
 3063W        W75488  44.845  27.583  10.518
 3064W        W75489   1.470  44.203  13.875
 3065W        W75490   8.454   8.783   5.093
 3066W        W75491  23.428  12.210  10.869
 3067W        W75492  22.954  33.995  13.026
 3068W        W75493  29.524  31.317   2.314
 3069W        W75494   3.385   6.709  12.833
 3070W        W75495   7.308  35.864   4.417
 3071W        W75496   2.018  14.976  12.957
 3072W        W75497  24.158   2.477   3.183
 3073W        W75498   9.720  30.745   2.365
 3074W        W75499  25.126  28.337   1.669
 3075W        W75500  44.726  34.064  11.139
 3076W        W75501  22.800  26.114   0.781
 3077W        W75502  13.122  24.482  14.331
 3078W        W75503  22.429   1.420  11.100
 3079W        W75504  12.945  10.864  11.501
 3080W        W75505  28.786  27.702   1.838
 3081W        W75506  43.853  18.244  10.554
 3082W        W75507   4.961  27.962  11.561
 3083W        W75508   2.799  12.457   4.595
 3084W        W75509  41.530  24.724   4.866
 3085W        W75510  12.577  38.349  14.462
 3086W        W75511   4.259  37.488  12.184
 3087W        W75512  28.472  30.489  12.548
 3088W        W75513  38.299   8.371   0.669
 3089W        W75514  36.109  20.231   0.326
 3090W        W75515  10.336  42.821  11.772
 3091W        W75516   7.851  23.918   1.224
 3092W        W75517  28.615   9.707   0.986
 3093W        W75518  36.558  25.702   0.290
 3094W        W75519   1.264  15.289   2.310
 3095W        W75520  18.716  22.260   0.031
 3096W        W75521  41.766  13.305   1.132
 3097W        W75522   1.475  41.950   1.718
 3098W        W75523  35.347   0.252   0.918
 3099W        W75524   9.253  30.112  14.851
 3100W        W75525  22.190  16.686   2.946
 3101W        W75526  23.651  34.150   1.427
 3102W        W75527  13.757  36.598   4.225
 3103W        W75528  29.472  41.071  13.749
 3104W        W75529  30.478  30.517   4.821
 3105W        W75530  39.402  37.372   3.712
 3106W        W75531  21.842  38.484   4.151
 3107W        W75532   1.597  32.229  11.604
 3108W        W75533  23.984  27.712   4.101
 3109W        W75534  31.126  44.710   2.383
 3110W        W75535  15.674  21.667   4.632
 3111W        W75536  30.113  32.905  14.347
 3112W        W75537  25.987  19.079  11.199
 3113W        W75538  30.354  14.549   3.374
 3114W        W75539  15.176  22.713  13.935
 3115W        W75540   6.119  28.535  14.887
 3116W        W75541  28.507  33.963   3.350
 3117W        W75542  34.532   4.754  13.374
 3118W        W75543   0.056   2.378  11.524
 3119W        W75544   5.537   6.297  13.541
 3120W        W75545  23.089   9.137   2.191
 3121W        W75546  28.820  33.038   3.287
 3122W        W75547  14.101   4.207  11.924
 3123W        W75548   3.828   6.937   2.383
 3124W        W75549  34.618  10.436  12.478
 3125W        W75550  12.517  11.814   4.042
 3126W        W75551  29.582   9.420  11.157
 3127W        W75552  40.978  39.076   1.368
 3128W        W75553  41.508  24.520   4.386
 3129W        W75554  22.669  10.825   9.824
 3130W        W75555   4.497  43.475   0.691
 3131W        W75556  21.581  33.095  10.360
 3132W        W75557  21.482  35.588  12.588
 3133W        W75558  34.991   3.232  10.396
 3134W        W75559  41.091  19.512   3.217
 3135W        W75560   2.394  23.712   1.321
 3136W        W75561  10.182  10.160   2.239
 3137W        W75562  38.061  37.091  11.633
 3138W        W75563  11.656  22.792   0.061
 3139W        W75564  34.668  36.799  12.951
 3140W        W75565  19.786  34.982   3.112
 3141W        W75566  33.100  29.558  14.934
 3142W        W75567  27.256  42.990  11.120
 3143W        W75568  14.553  22.149   2.195
 3144W        W75569  21.813  33.100   2.471
 3145W        W75570   1.715  38.490  12.554
 3146W        W75571  34.772  13.063   1.361
 3147W        W75572  32.168  38.721  13.291
 3148W        W75573  42.564   0.025   3.592
 3149W        W75574  18.548  44.973   1.199
 3150W        W75575  44.712  44.521  13.533
 3151W        W75576  30.630  32.383  10.640
 3152W        W75577  42.520  17.823  13.939
 3153W        W75578  18.631  27.478   4.503
 3154W        W75579  18.278  25.115  10.237
 3155W        W75580  15.539  42.082  13.630
 3156W        W75581  13.077  24.088  12.954
 3157W        W75582  22.518   9.001   4.252
 3158W        W75583  17.969   7.181  12.922
 3159W        W75584  24.039  15.386  14.772
 3160W        W75585  25.622  21.499   0.828
 3161W        W75586  11.228   3.227  13.907
 3162W        W75587  14.926  33.601   1.125
 3163W        W75588   2.217  30.224   1.868
 3164W        W75589  36.056  25.532  10.053
 3165W        W75590  41.019   8.172  12.967
 3166W        W75591  28.212  20.260   1.897
 3167W        W75592  23.300  32.673  10.714
 3168W        W75593   0.028  25.540  12.059
 3169W        W75594  21.143  30.622  14.986
 3170W        W75595  33.095  18.249  13.858
 3171W        W75596  10.486  28.176  11.559
 3172W        W75597  18.193  25.181   2.368
 3173W        W75598  28.998  41.331   0.930
 3174W        W75599   3.425  34.220   0.311
 3175W        W75600  10.816  15.475  10.711
 3176W        W75601  16.558  37.346  12.568
 3177W        W75602  43.453  29.642  13.914
 3178W        W75603   1.405  14.326  12.516
 3179W        W75604  26.533  11.813  10.596
 3180W        W75605  25.192  40.285   0.347
 3181W        W75606  11.233  24.526  10.724
 3182W        W75607  29.826   6.347  10.251
 3183W        W75608  34.855  24.007  10.133
 3184W        W75609  16.176   3.669   3.218
 3185W        W75610  36.950  43.543  11.081
 3186W        W75611  11.740  27.198   0.808
 3187W        W75612  40.032   9.794   0.293
 3188W        W75613  34.564  26.087   2.700
 3189W        W75614  32.912  29.036   1.773
 3190W        W75615  42.965  24.281  13.993
 3191W        W75616  15.240  14.863  14.491
 3192W        W75617  22.108   0.448   2.618
 3193W        W75618  39.861  42.837   3.233
 3194W        W75619  19.226  11.153  12.263
 3195W        W75620  44.893  33.136   1.701
 3196W        W75621  37.392  15.063   2.908
 3197W        W75622  15.793  10.226   4.603
 3198W        W75623   4.679   7.456  14.398
 3199W        W75624   6.587  11.696  10.622
 3200W        W75625  26.622   3.093  13.782
 3201W        W75626  17.747  25.540   1.217
 3202W        W75627  28.732  30.385  13.414
 3203W        W75628   4.866  31.681  11.567
 3204W        W75629  41.391   9.285   1.933
 3205W        W75630  19.366  10.629   2.827
 3206W        W75631  39.002  25.498   3.023
 3207W        W75632  29.663  13.645   3.806
 3208W        W75633  16.635   3.106   3.658
 3209W        W75634   9.716  27.478  13.361
 3210W        W75635  20.054  26.990   0.402
 3211W        W75636  33.131  15.446  14.969
 3212W        W75637   2.848  19.375  11.986
 3213W        W75638  19.838  21.554  14.750
 3214W        W75639  40.506  29.681  12.594
 3215W        W75640  37.049  18.296  10.728
 3216W        W75641  24.612  38.802  11.330
 3217W        W75642  11.416   5.481  11.028
 3218W        W75643  35.832   4.463  13.092
 3219W        W75644  16.996  39.525   1.873
 3220W        W75645  10.536  37.116  12.394
 3221W        W75646   6.902  18.513  12.459
 3222W        W75647  37.858  21.281  12.554
 3223W        W75648  41.536  22.662   2.880
 3224W        W75649  31.427  16.805  14.457
 3225W        W75650  44.868   3.430  11.991
 3226W        W75651  32.433  30.982   3.946
 3227W        W75652   6.103  10.795  10.702
 3228W        W75653  23.713   1.164   1.026
 3229W        W75654  28.195  15.298  13.243
 3230W        W75655  23.663  34.917  14.776
 3231W        W75656   7.821  39.125   4.425
 3232W        W75657   9.189  33.654  14.408
 3233W        W75658   7.499  18.423  14.028
 3234W        W75659  30.379  25.097  11.794
 3235W        W75660  14.168   6.333   5.050
 3236W        W75661   3.405  39.936   2.735
 3237W        W75662  16.506  43.476   1.479
 3238W        W75663  37.838  44.549   0.935
 3239W        W75664   7.849   9.262  14.367
 3240W        W75665  37.239  17.746  12.217
 3241W        W75666  24.963   1.151  13.426
 3242W        W75667  20.141  34.966   3.883
 3243W        W75668  30.795   1.467   0.505
 3244W        W75669  37.630  20.167  12.031
 3245W        W75670  18.845   8.914  12.886
 3246W        W75671  24.648  20.492   0.969
 3247W        W75672  40.530  44.509  12.505
 3248W        W75673  25.253   6.638   2.198
 3249W        W75674  40.631   7.561   0.324
 3250W        W75675  32.611  30.091   3.936
 3251W        W75676  19.263  40.467  10.616
 3252W        W75677  38.757  38.667  11.137
 3253W        W75678  26.643  21.243   2.728
 3254W        W75679  12.269  36.502  14.463
 3255W        W75680  33.655  37.802   4.821
 3256W        W75681   9.377   9.479   9.637
 3257W        W75682  19.698   2.264   0.297
 3258W        W75683  11.709  38.492   1.335
 3259W        W75684  27.094  33.297  12.000
 3260W        W75685  36.071  29.580   4.341
 3261W        W75686   8.887  21.493   4.643
 3262W        W75687  18.752  15.947   4.121
 3263W        W75688  21.053  13.578   5.227
 3264W        W75689  43.913  10.540   2.579
 3265W        W75690   4.609  12.733   2.325
 3266W        W75691  18.802  34.086   3.739
 3267W        W75692  44.900  29.246  14.980
 3268W        W75693  31.946  37.458  13.028
 3269W        W75694  16.304   3.949   2.785
 3270W        W75695  39.108  10.734   0.451
 3271W        W75696  27.457  16.142  14.364
 3272W        W75697  14.147  17.692   0.525
 3273W        W75698  22.650  26.162  13.849
 3274W        W75699  28.331   0.266  12.436
 3275W        W75700  20.191  31.947  12.851
 3276W        W75701  38.493  14.611  12.535
 3277W        W75702  26.712  32.996   0.713
 3278W        W75703  44.227  24.205   4.082
 3279W        W75704  39.574  21.541  13.439
 3280W        W75705   8.657  34.648   3.165
 3281W        W75706  21.572  25.072   3.663
 3282W        W75707  27.740  39.409  14.614
 3283W        W75708  35.864  42.724  12.955
 3284W        W75709  39.571  12.324   0.551
 3285W        W75710  13.515  14.496   4.236
 3286W        W75711  31.065  25.030   1.890
 3287W        W75712  23.066   3.202  10.417
 3288W        W75713  29.528  41.467   0.829
 3289W        W75714  32.545  40.288   0.645
 3290W        W75715  20.015  19.134   1.214
 3291W        W75716  29.063  43.486  14.256
 3292W        W75717  15.690  14.125   4.572
 3293W        W75718  38.992  21.455  14.887
 3294W        W75719  32.411  20.219   0.283
 3295W        W75720  21.083   8.415   1.755
 3296W        W75721   9.955  40.090   4.198
 3297W        W75722  41.278   3.491  13.347
 3298W        W75723  19.818  22.257  14.452
 3299W        W75724   3.150  19.991  12.154
 3300W        W75725  21.968   8.245  12.076
 3301W        W75726  16.040  23.657   3.563
 3302W        W75727  27.097  44.014  11.437
 3303W        W75728  21.964  16.753  12.868
 3304W        W75729  19.944  25.601  11.927
 3305W        W75730  18.077   3.392  11.537
 3306W        W75731  18.749  37.028  12.005
 3307W        W75732   0.741  34.181   4.784
 3308W        W75733  35.881  10.817  14.914
 3309W        W75734  22.799  21.694  11.212
 3310W        W75735  14.682  26.671  14.365
 3311W        W75736  42.331  27.114  12.475
 3312W        W75737  35.332  13.135   2.300
 3313W        W75738  24.742  19.650  14.374
 3314W        W75739  38.172  29.112  14.693
 3315W        W75740  32.675  13.088  13.424
 3316W        W75741  20.149  43.481   4.246
 3317W        W75742  41.285  43.801  13.551
 3318W        W75743  33.853  22.266   4.908
 3319W        W75744  18.190  31.504   1.217
 3320W        W75745  39.405   7.830   3.544
 3321W        W75746  40.604  17.638  14.095
 3322W        W75747  12.540  33.100  11.219
 3323W        W75748   9.622   1.342  14.933
 3324W        W75749  33.533  21.984   0.970
 3325W        W75750  16.626  11.624  11.029
 3326W        W75751  42.972  29.040  11.215
 3327W        W75752  28.228  36.124  11.286
 3328W        W75753  29.325  33.099   5.461
 3329W        W75754  39.314  36.377   3.892
 3330W        W75755  10.448  16.606  11.654
 3331W        W75756  21.266  19.710  12.597
 3332W        W75757  39.715  27.209  11.121
 3333W        W75758  11.724  14.778   4.573
 3334W        W75759  30.903  30.064  14.979
 3335W        W75760  18.775  21.844  12.006
 3336W        W75761   5.326  43.487  12.147
 3337W        W75762   3.019   1.248   3.768
 3338W        W75763  33.861  20.900  12.136
 3339W        W75764  33.324  30.130  14.922
 3340W        W75765   2.302  34.329   1.506
 3341W        W75766  27.550  41.430  12.634
 3342W        W75767  19.009  42.801  12.102
 3343W        W75768   2.727  36.828   3.694
 3344W        W75769   1.493  15.710  13.459
 3345W        W75770  40.811  35.847   0.635
 3346W        W75771   6.825  14.117   5.020
 3347W        W75772  17.954  12.709  11.620
 3348W        W75773   1.482  12.192  12.011
 3349W        W75774  10.190  42.372   1.774
 3350W        W75775  18.675  27.099  12.461
 3351W        W75776  35.539  18.998  12.001
 3352W        W75777  36.928  16.176  11.891
 3353W        W75778   1.240  44.133  12.048
 3354W        W75779   0.965  25.589   4.598
 3355W        W75780  22.016  20.718   2.192
 3356W        W75781  29.593  12.615   0.923
 3357W        W75782  11.742  40.381   2.168
 3358W        W75783   9.890  38.449  13.350
 3359W        W75784  18.817  39.800   2.110
 3360W        W75785  15.798  21.221   3.834
 3361W        W75786  34.345   2.521   3.828
 3362W        W75787  40.943  16.219  11.148
 3363W        W75788  30.512  25.171   0.344
 3364W        W75789  25.444  31.274  12.545
 3365W        W75790   4.793  19.496   1.455
 3366W        W75791  16.272   4.163  12.547
 3367W        W75792  32.178  33.411   3.384
 3368W        W75793   4.280  15.498  11.873
 3369W        W75794  32.927  12.753   3.797
 3370W        W75795   1.500  43.694  13.278
 3371W        W75796   6.158  37.326  14.467
 3372W        W75797  40.877  39.552  14.067
 3373W        W75798  23.645  43.736  12.657
 3374W        W75799  36.301  38.433   3.371
 3375W        W75800  17.169   3.504   0.486
 3376W        W75801  40.992  39.851   0.894
 3377W        W75802   6.501  14.936   2.223
 3378W        W75803  16.949   9.749   3.559
 3379W        W75804   9.655  23.155   4.094
 3380W        W75805  29.985   9.785   3.125
 3381W        W75806  38.401   0.395   4.936
 3382W        W75807  31.016   3.378  14.550
 3383W        W75808   4.888  37.885   1.459
 3384W        W75809   1.796  26.897  13.661
 3385W        W75810  29.656  11.072   3.720
 3386W        W75811  31.177   3.933  12.192
 3387W        W75812  44.233  11.194  12.067
 3388W        W75813  33.586  34.492  10.347
 3389W        W75814  21.104   5.455   2.393
 3390W        W75815  16.734  16.793   0.058
 3391W        W75816  31.685  22.774  11.190
 3392W        W75817  14.303  34.096   0.918
 3393W        W75818  37.434  12.896  11.237
 3394W        W75819  31.038  41.568   1.772
 3395W        W75820   1.823  11.886  14.961
 3396W        W75821  25.776  30.264  10.778
 3397W        W75822  44.564  19.857   0.279
 3398W        W75823  18.521  30.001   9.632
 3399W        W75824   3.364  26.707   3.440
 3400W        W75825  11.787  41.651  14.471
 3401W        W75826  21.277  41.495  14.410
 3402W        W75827  22.429  42.732   1.979
 3403W        W75828  33.108   7.630  14.933
 3404W        W75829  24.185  40.679  10.420
 3405W        W75830  21.750   0.535   1.745
 3406W        W75831  13.681  23.269   3.337
 3407W        W75832  36.388  31.107  14.908
 3408W        W75833  23.565  21.689   2.370
 3409W        W75834  36.166  20.649  10.657
 3410W        W75835  31.446  15.654  14.393
 3411W        W75836  12.125   3.454  14.635
 3412W        W75837  31.653  44.771  13.306
 3413W        W75838  17.035  11.097  12.458
 3414W        W75839  27.918  14.164   9.912
 3415W        W75840  39.366  36.553  11.990
 3416W        W75841  39.610  26.504   3.565
 3417W        W75842  39.962  30.370   1.044
 3418W        W75843   7.890  37.449  14.837
 3419W        W75844  13.158   5.703  13.811
 3420W        W75845  41.048  44.440   2.377
 3421W        W75846   8.579  10.876  11.602
 3422W        W75847  27.967  27.629  13.607
 3423W        W75848   1.328  19.607   4.607
 3424W        W75849   6.202   7.373   4.839
 3425W        W75850  21.772   6.365  10.680
 3426W        W75851  40.750  11.084   4.553
 3427W        W75852   3.811   0.946  10.418
 3428W        W75853   2.703  40.475   0.446
 3429W        W75854  22.094   7.675   0.889
 3430W        W75855  41.823  19.224  14.011
 3431W        W75856  33.907  33.524   2.263
 3432W        W75857  34.827  25.566   4.127
 3433W        W75858   5.229  31.077  10.621
 3434W        W75859  31.880  10.897  12.922
 3435W        W75860  36.845  27.980  13.879
 3436W        W75861  13.221   1.126  10.729
 3437W        W75862  30.201  42.790   3.708
 3438W        W75863  24.123  43.147   2.673
 3439W        W75864  36.839  37.947  13.960
 3440W        W75865  31.092  37.033  13.027
 3441W        W75866  30.707  41.861   4.423
 3442W        W75867   7.352  28.416   1.787
 3443W        W75868   4.043  36.563  11.374
 3444W        W75869  20.519   2.280   2.633
 3445W        W75870  13.163  10.922  12.426
 3446W        W75871  42.597   3.925  11.580
 3447W        W75872  20.158  28.772  14.570
 3448W        W75873  15.798  19.087  13.282
 3449W        W75874  42.120  18.599   0.342
 3450W        W75875  44.423   9.779   1.077
 3451W        W75876  40.612   1.216   1.652
 3452W        W75877  30.539  34.227   3.389
 3453W        W75878  36.471  27.908  10.347
 3454W        W75879   1.734   7.760   2.393
 3455W        W75880   7.292  18.314   0.896
 3456W        W75881  14.755  34.363   4.370
 3457W        W75882   1.718  10.103   4.692
 3458W        W75883  24.943  20.472   1.438
 3459W        W75884  28.253   1.883   2.357
 3460W        W75885   2.706   8.722   3.643
 3461W        W75886  26.184  33.502   2.352
 3462W        W75887   6.709   2.330  12.047
 3463W        W75888   2.463  38.749  14.792
 3464W        W75889  24.905   3.300  11.783
 3465W        W75890  43.708  17.235  13.623
 3466W        W75891  25.270  29.578   3.386
 3467W        W75892  33.108  40.262   3.141
 3468W        W75893  32.970   4.263   0.702
 3469W        W75894  18.029  23.817  11.954
 3470W        W75895  28.430  16.790   3.968
 3471W        W75896  11.667   7.587   4.537
 3472W        W75897  31.624  39.288   0.885
 3473W        W75898   5.726  18.954   2.343
 3474W        W75899  12.944  25.132   3.376
 3475W        W75900   6.164  27.720   2.154
 3476W        W75901  44.244  15.936   4.560
 3477W        W75902   6.706   3.264  14.682
 3478W        W75903   3.289   2.957   0.022
 3479W        W75904  41.752  30.408   2.603
 3480W        W75905  19.109  26.798   1.341
 3481W        W75906  14.324  17.749  14.520
 3482W        W75907   4.539  17.267   3.871
 3483W        W75908   4.128  32.695   0.051
 3484W        W75909  26.174  18.158  14.928
 3485W        W75910  43.555  16.300  11.034
 3486W        W75911   4.735  22.972   4.060
 3487W        W75912  31.772  37.008  11.234
 3488W        W75913  19.683  19.067   0.800
 3489W        W75914  37.301  24.975  11.456
 3490W        W75915  41.847   8.126  10.628
 3491W        W75916  22.646  37.819   1.668
 3492W        W75917  22.525  13.135  11.136
 3493W        W75918  26.384  31.567  13.917
 3494W        W75919   2.334  33.829   1.687
 3495W        W75920  41.369  39.471   3.217
 3496W        W75921  42.786  38.535  10.774
 3497W        W75922  19.770  30.193  10.664
 3498W        W75923   5.679   6.471   2.868
 3499W        W75924  19.638  35.537  10.375
 3500W        W75925  32.536  13.814   1.951
 3501W        W75926  22.012  34.260   2.139
 3502W        W75927  19.434  31.686  10.200
 3503W        W75928  28.258   3.189  10.314
 3504W        W75929  34.573  24.561  14.772
 3505W        W75930  18.516  40.784  12.126
 3506W        W75931  43.795  18.800  14.291
 3507W        W75932  32.994   5.857  13.306
 3508W        W75933  19.108   3.381   0.303
 3509W        W75934  27.418  44.224  13.435
 3510W        W75935  21.348  38.122  12.055
 3511W        W75936  19.563   4.835   1.916
 3512W        W75937   6.893  31.662   0.251
 3513W        W75938  30.029   3.503  14.345
 3514W        W75939   2.406  43.106  12.544
 3515W        W75940  19.979   7.267   3.256
 3516W        W75941  32.893  34.051   4.490
 3517W        W75942  20.936  23.704  12.799
 3518W        W75943  26.135  19.315  12.224
 3519W        W75944  13.600  19.461  12.645
 3520W        W75945  19.982  24.613   0.501
 3521W        W75946  12.845  12.059  13.201
 3522W        W75947  32.554  26.665   3.647
 3523W        W75948   0.314  28.193   0.440
 3524W        W75949   4.868  15.781   1.457
 3525W        W75950   8.437   0.412   2.832
 3526W        W75951   2.954   7.794   4.650
 3527W        W75952  43.417  27.207   4.527
 3528W        W75953  40.679  33.616  13.776
 3529W        W75954  27.928   6.626   0.685
 3530W        W75955  44.387   4.311  13.741
 3531W        W75956  44.827  21.544  14.081
 3532W        W75957  19.574  42.756  11.691
 3533W        W75958  20.537  32.612   2.237
 3534W        W75959  30.964  30.536   0.793
 3535W        W75960  16.688  26.683   1.886
 3536W        W75961  40.310  44.003  13.799
 3537W        W75962  20.418  13.872   0.227
 3538W        W75963  41.944  22.953   4.994
 3539W        W75964  18.696  37.126   0.238
 3540W        W75965   1.801  39.723   1.492
 3541W        W75966   8.102  14.851   0.518
 3542W        W75967  20.508  10.772   3.329
 3543W        W75968  21.428  12.345  13.479
 3544W        W75969  44.062  20.599   2.250
 3545W        W75970  37.965  23.043  14.480
 3546W        W75971   8.297  33.385  12.241
 3547W        W75972  37.197  31.374   2.413
 3548W        W75973  14.133   0.901  10.729
 3549W        W75974   7.877  12.153   4.349
 3550W        W75975  12.225  44.800  10.646
 3551W        W75976  13.299   2.832   3.089
 3552W        W75977   4.469   4.803   3.411
 3553W        W75978   2.754  30.605   1.204
 3554W        W75979  20.502   9.137   3.167
 3555W        W75980  40.370  11.356   3.112
 3556W        W75981  19.246  37.613   2.473
 3557W        W75982  23.983  36.327  13.117
 3558W        W75983   2.871  10.911  12.997
 3559W        W75984  38.849  44.198   2.646
 3560W        W75985  14.062  21.634   3.206
 3561W        W75986   5.691   4.911  11.490
 3562W        W75987  37.044  17.807   2.601
 3563W        W75988   3.470   8.957  14.296
 3564W        W75989  28.489   3.165  11.560
 3565W        W75990   0.762  19.255  11.111
 3566W        W75991   5.398  36.124   4.291
 3567W        W75992  39.569   5.900  14.481
 3568W        W75993   4.909  22.272  14.978
 3569W        W75994   5.641  29.443  10.785
 3570W        W75995  18.485  16.155  10.384
 3571W        W75996  23.713  37.431  12.352
 3572W        W75997  18.250   8.013  12.967
 3573W        W75998  27.996   9.854  11.533
 3574W        W75999   6.833  25.787   2.634
 3575W        W76000  25.666  29.904  14.863
 3576W        W76001  29.115  38.081   2.084
 3577W        W76002  15.328   5.858  10.960
 3578W        W76003  21.577  19.203   2.948
 3579W        W76004  32.540  44.322  12.103
 3580W        W76005   6.700  12.557   0.427
 3581W        W76006  39.394  15.214   1.372
 3582W        W76007  22.250   9.994   5.083
 3583W        W76008  10.334  21.182  13.067
 3584W        W76009  26.737  22.823  14.521
 3585W        W76010  15.373  16.719  13.113
 3586W        W76011  37.440  22.249  13.782
 3587W        W76012  38.827  14.582   0.039
 3588W        W76013  43.931   3.681   3.191
 3589W        W76014   3.457  12.416   0.100
 3590W        W76015  15.842   5.322   0.331
 3591W        W76016  29.662   6.277  12.073
 3592W        W76017  38.936   0.786   4.246
 3593W        W76018  31.886   8.549  13.402
 3594W        W76019   2.253  18.511   4.657
 3595W        W76020  27.285  36.045   3.631
 3596W        W76021  27.877   4.851  11.276
 3597W        W76022  12.981   8.400   3.584
 3598W        W76023  29.582  30.523  14.455
 3599W        W76024   4.524  24.409  12.323
 3600W        W76025  31.622   0.868  11.277
 3601W        W76026   2.454  20.825   4.262
 3602W        W76027  34.694  34.671   1.267
 3603W        W76028  15.498  10.321   5.057
 3604W        W76029  36.051  23.621  12.113
 3605W        W76030  29.187  23.913   0.819
 3606W        W76031  11.102  29.618   0.808
 3607W        W76032  36.214  10.356  13.994
 3608W        W76033   6.572   1.991  13.005
 3609W        W76034  11.854  19.182  12.574
 3610W        W76035  34.936  25.124  13.953
 3611W        W76036  27.331  42.778   5.428
 3612W        W76037  19.719  44.873   0.289
 3613W        W76038  34.010  40.999  11.818
 3614W        W76039  18.972   1.243   2.277
 3615W        W76040  20.042   4.991   2.199
 3616W        W76041  12.900   6.668  13.954
 3617W        W76042  11.106  31.651   2.284
 3618W        W76043  42.620  33.839   2.603
 3619W        W76044  34.524  13.564  10.969
 3620W        W76045  34.111  20.132   2.632
 3621W        W76046  33.591   7.215   0.041
 3622W        W76047  22.651  26.983   2.135
 3623W        W76048  10.827   6.920  13.987
 3624W        W76049  16.005  40.220   3.730
 3625W        W76050  21.582  12.278   3.645
 3626W        W76051   6.342  39.179   1.738
 3627W        W76052  13.913  35.029  11.189
 3628W        W76053  42.355   9.387   1.266
 3629W        W76054  20.486   9.673   2.247
 3630W        W76055  40.879   8.547   4.213
 3631W        W76056  35.830  16.683   0.269
 3632W        W76057   8.815  44.452   4.722
 3633W        W76058  35.099   8.258  13.044
 3634W        W76059  15.350  13.863   0.651
 3635W        W76060  29.971  40.515   1.933
 3636W        W76061  18.818   9.246   2.399
 3637W        W76062  36.591   2.304  11.779
 3638W        W76063   2.227  32.367  12.939
 3639W        W76064  14.603  31.454  12.036
 3640W        W76065  44.439  32.911  12.938
 3641W        W76066  27.088   7.409  14.343
 3642W        W76067  44.516  42.319  14.322
 3643W        W76068   3.504  14.824   1.543
 3644W        W76069  44.036  42.039   1.667
 3645W        W76070  35.141  17.127  13.418
 3646W        W76071  26.418  32.484   2.394
 3647W        W76072  15.516  20.254   0.242
 3648W        W76073   1.847  27.488  11.441
 3649W        W76074   3.241   4.796  14.939
 3650W        W76075  22.904  44.213  14.321
 3651W        W76076  24.677  41.528  11.866
 3652W        W76077   6.350   2.992  14.427
 3653W        W76078  28.274  17.350  11.124
 3654W        W76079  11.876  10.334   1.453
 3655W        W76080   0.312  12.009   0.843
 3656W        W76081  19.728  21.302   2.289
 3657W        W76082  23.084  43.947   2.958
 3658W        W76083   2.545   2.155  12.128
 3659W        W76084  16.277   5.896   3.377
 3660W        W76085  39.478   8.892   3.676
 3661W        W76086  42.432   2.316  14.318
 3662W        W76087  30.141   8.126   2.326
 3663W        W76088  19.051   6.881   3.773
 3664W        W76089  14.751  16.898   2.927
 3665W        W76090   9.428  39.316   1.704
 3666W        W76091  44.100  39.419   1.664
 3667W        W76092  27.220  31.992  14.979
 3668W        W76093  30.673   5.981   3.637
 3669W        W76094  28.586  13.800   2.622
 3670W        W76095  27.177  44.410  11.752
 3671W        W76096  14.565  43.403   2.789
 3672W        W76097   1.446  17.162   0.268
 3673W        W76098   0.766   0.400   0.315
 3674W        W76099  16.770  28.481   0.629
 3675W        W76100  21.587  20.840  10.514
 3676W        W76101  38.851  24.912   5.028
 3677W        W76102   6.908   8.740  12.151
 3678W        W76103   1.921   8.434  14.525
 3679W        W76104   8.918  38.507   1.853
 3680W        W76105  40.476  38.083  12.084
 3681W        W76106   2.424  20.340   4.109
 3682W        W76107   3.830   1.219  11.122
 3683W        W76108  29.666  10.125  13.792
 3684W        W76109   2.702  23.137   1.199
 3685W        W76110  34.907  21.771   1.275
 3686W        W76111  39.291  40.395  13.995
 3687W        W76112  14.316   6.653  12.487
 3688W        W76113   6.672  34.839  12.440
 3689W        W76114   9.719   8.754   2.120
 3690W        W76115   2.527  20.486   2.780
 3691W        W76116  23.808  38.371   2.206
 3692W        W76117  32.838   1.980  13.501
 3693W        W76118  33.474  43.202  13.397
 3694W        W76119  25.772  22.591  10.347
 3695W        W76120  15.594  36.408   0.947
 3696W        W76121  32.190  17.331   2.424
 3697W        W76122  37.927  31.562  14.300
 3698W        W76123   1.834   5.967   1.772
 3699W        W76124  26.619  33.616  14.909
 3700W        W76125  19.542  27.948  13.432
 3701W        W76126  24.627  35.148  12.945
 3702W        W76127  32.618   3.200  12.988
 3703W        W76128   0.284   2.800   1.552
 3704W        W76129   4.504  12.808  11.381
 3705W        W76130  35.859  38.036  13.524
 3706W        W76131  23.653  15.777   4.935
 3707W        W76132  36.362  43.308  13.778
 3708W        W76133   7.823  38.203   5.538
 3709W        W76134  30.416  27.629   0.875
 3710W        W76135  35.837  41.715   1.799
 3711W        W76136  14.135   1.108  12.249
 3712W        W76137  22.731  38.766  14.751
 3713W        W76138  16.145  20.643  13.565
 3714W        W76139   4.841  37.950   2.980
 3715W        W76140   3.278  41.795  14.792
 3716W        W76141  12.850   8.280   1.886
 3717W        W76142  30.006   7.929  11.289
 3718W        W76143  40.396  38.633  10.348
 3719W        W76144  10.215  20.019  11.421
 3720W        W76145  34.664  37.573   3.808
 3721W        W76146  28.417  25.935  11.067
 3722W        W76147   3.601  20.197  12.527
 3723W        W76148  43.376  13.179  11.159
 3724W        W76149   6.705  38.361   1.766
 3725W        W76150   1.480  18.049   0.589
 3726W        W76151  32.096  24.700   5.055
 3727W        W76152  14.241  15.237   4.629
 3728W        W76153   5.347  26.533  14.567
 3729W        W76154  37.094  32.114  13.268
 3730W        W76155  25.226  14.159   4.685
 3731W        W76156  29.554   5.724   3.713
 3732W        W76157   6.930  12.153   4.360
 3733W        W76158   2.493  23.930   3.193
 3734W        W76159  15.650   4.997   0.971
 3735W        W76160   8.138  27.668   4.826
 3736W        W76161  16.088  18.754   2.287
 3737W        W76162  33.301  28.529  11.548
 3738W        W76163  11.695  17.110   3.088
 3739W        W76164  42.412  43.970   1.303
 3740W        W76165  37.000  35.814   2.019
 3741W        W76166   8.425  40.861  14.327
 3742W        W76167  38.812  24.214  13.348
 3743W        W76168  18.056  13.603  12.074
 3744W        W76169  33.967  10.612   0.449
 3745W        W76170  44.415  34.826  14.746
 3746W        W76171  17.039   4.254   3.333
 3747W        W76172  38.510   0.667   2.920
 3748W        W76173  17.720  16.658  13.216
 3749W        W76174   2.694  17.951  12.522
 3750W        W76175  10.401  39.068   3.673
 3751W        W76176   2.203  17.803  12.484
 3752W        W76177   8.493  33.390  14.875
 3753W        W76178  37.521  16.575  14.980
 3754W        W76179  32.289  29.405  14.367
 3755W        W76180  13.822  16.223   2.450
 3756W        W76181  32.030  39.318  14.446
 3757W        W76182  25.454   7.256   0.699
 3758W        W76183   6.153  14.935  12.870
 3759W        W76184   7.964  28.127   4.100
 3760W        W76185  16.369  26.481  10.877
 3761W        W76186   4.761  10.164  10.249
 3762W        W76187   1.164  18.263   3.246
 3763W        W76188  25.052  42.841  12.985
 3764W        W76189  20.176  36.478   3.602
 3765W        W76190  17.881  20.253  12.091
 3766W        W76191  15.190  41.966  13.988
 3767W        W76192  18.097  37.842  11.863
 3768W        W76193  31.753  19.244   9.764
 3769W        W76194  34.429  28.831  12.990
 3770W        W76195  14.800  39.409   2.410
 3771W        W76196  29.066  32.105  11.540
 3772W        W76197  19.438  17.833   2.835
 3773W        W76198  14.747  10.873  12.806
 3774W        W76199   0.781  28.133   1.235
 3775W        W76200  43.465  12.373  13.422
 3776W        W76201  29.408  38.966  11.988
 3777W        W76202  39.731   4.803  13.388
 3778W        W76203  43.593  31.819  13.327
 3779W        W76204  35.844  42.114  12.541
 3780W        W76205   5.239   8.724   1.275
 3781W        W76206  37.904   4.316  12.291
 3782W        W76207  32.894  36.364   1.721
 3783W        W76208   1.912  24.498  11.974
 3784W        W76209  38.527   4.416  11.102
 3785W        W76210   2.950  17.159   1.826
 3786W        W76211  22.271  19.989   0.158
 3787W        W76212  13.099   5.411  12.822
 3788W        W76213  14.411  14.109   3.323
 3789W        W76214  11.075  12.192  11.560
 3790W        W76215  40.897   4.283  11.968
 3791W        W76216  22.892   6.999  13.156
 3792W        W76217   6.310  26.515  14.881
 3793W        W76218  38.012   2.595   3.757
 3794W        W76219  22.047  27.623   2.350
 3795W        W76220   3.843  13.880  10.716
 3796W        W76221  27.462  37.615  10.706
 3797W        W76222  23.525  36.050   4.541
 3798W        W76223  12.238  31.850   4.121
 3799W        W76224   4.315  37.080  13.117
 3800W        W76225  28.379   5.345   4.507
 3801W        W76226  32.111  32.643   0.075
 3802W        W76227  38.155  43.881  11.569
 3803W        W76228  41.678   4.758  10.264
 3804W        W76229  33.848  35.005  14.691
 3805W        W76230  40.324  41.985  14.395
 3806W        W76231   1.669  38.825   0.320
 3807W        W76232  41.314  36.060  12.510
 3808W        W76233  41.431  17.140   4.994
 3809W        W76234  41.301  25.576  13.372
 3810W        W76235  24.173  26.249  14.446
 3811W        W76236  20.753  20.690  11.091
 3812W        W76237  40.039  32.112  11.146
 3813W        W76238  44.385   8.754  14.402
 3814W        W76239  11.701  27.374  14.428
 3815W        W76240   4.919   9.314  12.520
 3816W        W76241  23.225  26.117  12.935
 3817W        W76242  39.821   0.736   1.304
 3818W        W76243  19.153  12.468  14.039
 3819W        W76244  42.335   8.339   0.024
 3820W        W76245   9.857  34.434   2.261
 3821W        W76246   4.331  37.866  13.439
 3822W        W76247  17.724  34.974   1.392
 3823W        W76248   9.201   7.154  11.630
 3824W        W76249   9.401  11.951   2.986
 3825W        W76250  13.997  36.538  11.896
 3826W        W76251  32.198   7.082  14.990
 3827W        W76252  21.375  16.499   0.101
 3828W        W76253  33.190  18.275   3.205
 3829W        W76254  36.927  25.967  11.169
 3830W        W76255  33.228  40.789   2.778
 3831W        W76256  17.505   8.781  13.411
 3832W        W76257  11.606  35.046  11.531
 3833W        W76258  25.889   9.287  13.880
 3834W        W76259  16.709  16.060  14.330
 3835W        W76260  25.754  12.586   2.732
 3836W        W76261  15.611  24.457  13.377
 3837W        W76262   5.262  21.041   4.950
 3838W        W76263   4.331   8.407  11.695
 3839W        W76264   5.774   1.847  11.531
 3840W        W76265  22.264   6.203   4.541
 3841W        W76266  14.273   3.827  11.612
 3842W        W76267  39.608  25.966   4.293
 3843W        W76268  18.519   9.370  12.937
 3844W        W76269   5.806  39.483   3.454
 3845W        W76270  19.767  41.857   1.450
 3846W        W76271  15.743  26.115  14.796
 3847W        W76272  44.541  31.454  13.095
 3848W        W76273  18.518   8.953  13.299
 3849W        W76274  23.665   3.919   0.330
 3850W        W76275  19.075   6.671  13.158
 3851W        W76276  19.036  38.384   2.894
 3852W        W76277  20.524   6.413   3.860
 3853W        W76278  18.469  10.812   4.049
 3854W        W76279  26.781  27.970   1.494
 3855W        W76280  24.101  17.194   3.416
 3856W        W76281  23.407  27.662  10.444
 3857W        W76282  17.559  12.038  11.129
 3858W        W76283  42.594  21.001  11.916
 3859W        W76284  35.251  17.297   4.208
 3860W        W76285  37.470  35.290  11.612
 3861W        W76286  17.955  32.941  11.600
 3862W        W76287  16.763   1.704  14.491
 3863W        W76288  39.238  32.131   4.924
 3864W        W76289  12.785   3.176   3.125
 3865W        W76290  34.061  25.600  12.485
 3866W        W76291  27.423   1.092   0.374
 3867W        W76292  40.566   7.657  11.129
 3868W        W76293  38.287   1.241   1.950
 3869W        W76294  34.059   7.892   4.312
 3870W        W76295  44.009  28.228  14.538
 3871W        W76296   7.919  44.401   2.794
 3872W        W76297   2.229  28.483  10.541
 3873W        W76298  29.420  11.561   2.689
 3874W        W76299  44.433  39.922   1.217
 3875W        W76300  25.550   9.273   0.870
 3876W        W76301  23.415  43.461  11.464
 3877W        W76302  27.050  20.143  12.581
 3878W        W76303  43.539   9.736   3.139
 3879W        W76304  40.879  18.098   2.271
 3880W        W76305  26.133  22.033   0.942
 3881W        W76306  27.025  30.584   1.889
 3882W        W76307   3.761  33.472   0.719
 3883W        W76308  18.674  39.071  13.524
 3884W        W76309  41.359  38.102  11.616
 3885W        W76310  42.977  14.503  11.084
 3886W        W76311  15.745  14.449  10.363
 3887W        W76312  37.545   9.026   5.161
 3888W        W76313  42.463  31.517  10.731
 3889W        W76314  19.020  19.278   5.013
 3890W        W76315  36.995  37.675  12.989
 3891W        W76316   4.381   3.882   2.745
 3892W        W76317   4.625  15.579  14.634
 3893W        W76318  25.661  26.064  12.452
 3894W        W76319  40.929   5.114   4.577
 3895W        W76320  31.649  12.310   2.886
 3896W        W76321  36.849  30.471   0.356
 3897W        W76322  16.888  30.729   3.695
 3898W        W76323  21.586  20.306  10.651
 3899W        W76324  36.781  19.169   2.185
 3900W        W76325  25.710  43.753  13.544
 3901W        W76326  23.956  12.114  14.942
 3902W        W76327  18.705  12.626   4.485
 3903W        W76328  31.467  41.896   3.082
 3904W        W76329  10.616  18.066   4.953
 3905W        W76330   5.268   8.109  11.702
 3906W        W76331  31.725  32.630  14.709
 3907W        W76332   0.263  16.663  10.684
 3908W        W76333  30.598  37.582   3.770
 3909W        W76334   1.424  26.073  10.619
 3910W        W76335  15.996   2.346  10.071
 3911W        W76336  10.598  33.468   1.822
 3912W        W76337  24.005  24.649   2.339
 3913W        W76338   2.360   3.693   3.592
 3914W        W76339  12.713  31.208   0.764
 3915W        W76340  32.085  37.861   1.858
 3916W        W76341  43.215   3.732   4.335
 3917W        W76342  29.531  35.257  11.637
 3918W        W76343  26.238  17.235   2.814
 3919W        W76344  24.265   1.611  12.486
 3920W        W76345  34.012  28.049   4.832
 3921W        W76346  38.567   7.855  12.304
 3922W        W76347  11.246  44.997  12.520
 3923W        W76348   4.853   2.803   4.097
 3924W        W76349  42.002  33.713   0.279
 3925W        W76350  19.348  10.403  10.432
 3926W        W76351   9.117  44.028   4.693
 3927W        W76352   0.754  28.452   0.265
 3928W        W76353   6.425  21.080   4.599
 3929W        W76354  27.441   1.736  11.600
 3930W        W76355  30.256  40.119  13.587
 3931W        W76356  38.900  30.161   4.656
 3932W        W76357  28.040  42.087  11.668
 3933W        W76358  17.581  25.807  12.576
 3934W        W76359  20.625  28.174  11.890
 3935W        W76360  19.047  18.167  10.673
 3936W        W76361  28.852  14.509  12.961
 3937W        W76362   4.888  43.149   0.864
 3938W        W76363  17.207  35.431  13.865
 3939W        W76364  17.803   0.175   1.973
 3940W        W76365   9.459  21.562   0.970
 3941W        W76366  27.160   7.683   1.563
 3942W        W76367  11.116  21.838   0.234
 3943W        W76368   8.908  29.721  14.403
 3944W        W76369  19.666  23.099   4.587
 3945W        W76370  26.456  13.736  13.442
 3946W        W76371   0.368  31.373   0.945
 3947W        W76372  24.091   6.629   4.816
 3948W        W76373  28.532  29.239   1.783
 3949W        W76374  28.521  25.414   2.449
 3950W        W76375  39.564  40.157  11.967
 3951W        W76376  31.993   7.727   1.378
 3952W        W76377   9.351  33.678   4.607
 3953W        W76378  37.388  20.969  10.602
 3954W        W76379  21.821   7.945   3.433
 3955W        W76380  24.694  41.352   4.092
 3956W        W76381  44.799  37.808   0.816
 3957W        W76382  19.244  38.353   0.760
 3958W        W76383  16.367  39.419  10.780
 3959W        W76384  13.819   3.813  14.684
 3960W        W76385   2.028  39.933   4.073
 3961W        W76386  31.304  29.551  11.095
 3962W        W76387  17.429   8.783   4.605
 3963W        W76388   6.989  25.165   0.822
 3964W        W76389   6.186  13.211   1.786
 3965W        W76390  23.425  15.323   3.555
 3966W        W76391  30.963  22.556  11.501
 3967W        W76392  29.416  30.705  12.495
 3968W        W76393  27.713  11.687   3.723
 3969W        W76394  36.699  13.957   3.160
 3970W        W76395  40.143  12.767  12.794
 3971W        W76396  13.366  12.112   0.450
 3972W        W76397  40.591  23.499  10.485
 3973W        W76398  44.931  27.242   3.100
 3974W        W76399  21.396  12.849  12.523
 3975W        W76400   5.741  19.820   4.609
 3976W        W76401   9.594   8.445   3.823
 3977W        W76402   3.044  31.952   4.253
 3978W        W76403  43.734   4.261   4.647
 3979W        W76404  42.967  44.752   0.165
 3980W        W76405  19.834   0.832  11.699
 3981W        W76406   4.339   2.534   3.154
 3982W        W76407  41.535  21.265   4.179
 3983W        W76408  14.808  17.764   3.752
 3984W        W76409  36.645  26.420  11.195
 3985W        W76410  20.006  13.031   2.275
 3986W        W76411   9.441  10.430   0.333
 3987W        W76412  27.195  13.676  12.890
 3988W        W76413  40.820   6.628   4.881
 3989W        W76414  19.157  21.657   0.374
 3990W        W76415  10.219  13.812  11.140
 3991W        W76416  42.902  31.464   2.108
 3992W        W76417  12.374  26.063  13.966
 3993W        W76418  33.135  32.490  13.809
 3994W        W76419  11.393  13.206  13.130
 3995W        W76420  39.336   3.346   3.738
 3996W        W76421   6.268  24.623  14.697
 3997W        W76422  23.520  29.902   2.927
 3998W        W76423   2.529  16.626   0.405
 3999W        W76424  14.832  16.713   1.746
 4000W        W76425  21.086  21.739   4.055
 4001W        W76426  24.155  33.614   4.634
 4002W        W76427   7.329  25.014   3.155
 4003W        W76428  42.051   4.782  13.124
 4004W        W76429  30.953   5.222  13.577
 4005W        W76430   0.483  20.152   3.613
 4006W        W76431   1.924  28.387  12.118
 4007W        W76432  20.780  20.193  12.950
 4008W        W76433  42.594  43.022  13.305
 4009W        W76434   3.604  15.535   3.388
 4010W        W76435  21.251  39.837  14.963
 4011W        W76436  39.836  20.067  10.644
 4012W        W76437  17.250  33.867  10.348
 4013W        W76438  23.220   6.188   4.620
 4014W        W76439  10.895   1.881  11.213
 4015W        W76440  26.949  31.894  13.047
 4016W        W76441  37.284   6.465   2.862
 4017W        W76442  31.617  31.686   3.137
 4018W        W76443  35.238  33.517   1.882
 4019W        W76444   3.288  34.811  13.880
 4020W        W76445  39.592  27.385  14.016
 4021W        W76446  10.969  44.299   4.478
 4022W        W76447  39.791  15.209  12.501
 4023W        W76448   7.520   7.388  10.253
 4024W        W76449  40.174  34.321   2.297
 4025W        W76450   5.773   0.037  12.796
 4026W        W76451  14.200   9.216  14.821
 4027W        W76452   5.408  22.638  10.201
 4028W        W76453  29.117  10.784   2.535
 4029W        W76454  44.311  29.625   0.852
 4030W        W76455  43.800  32.551   4.464
 4031W        W76456  10.670  39.273   0.410
 4032W        W76457  43.720  23.099   3.678
 4033W        W76458  22.216   8.857   2.775
 4034W        W76459  19.454   2.408   1.820
 4035W        W76460   3.512  22.060   0.145
 4036W        W76461  31.679  26.069   4.384
 4037W        W76462   1.267  29.679   3.575
 4038W        W76463  26.721  11.821  14.863
 4039W        W76464  13.682   7.573  12.053
 4040W        W76465  15.762   7.268   2.224
 4041W        W76466  20.532  39.900  11.060
 4042W        W76467  43.591   0.297  13.930
 4043W        W76468  11.511  33.984   4.320
 4044W        W76469  21.155  33.999   1.659
 4045W        W76470   4.206  28.096  12.919
 4046W        W76471  37.030  23.140  12.939
 4047W        W76472  27.179   3.390  11.933
 4048W        W76473  18.265  30.435  14.358
 4049W        W76474  33.798  39.004  12.030
 4050W        W76475   8.570  20.014  13.517
 4051W        W76476   0.306   9.647  11.036
 4052W        W76477  19.436  18.664   1.858
 4053W        W76478  10.061  19.787  13.181
 4054W        W76479  13.623   5.557   4.203
 4055W        W76480  35.497   0.940  13.108
 4056W        W76481  39.898  39.537  13.162
 4057W        W76482  33.766  17.078   1.479
 4058W        W76483  31.331  35.044  12.942
 4059W        W76484  12.779  16.745  14.770
 4060W        W76485   6.354  16.057   1.894
 4061W        W76486  24.552  43.581  10.642
 4062W        W76487  33.879  35.962   1.358
 4063W        W76488  38.438  12.214   3.440
 4064W        W76489  29.642  14.202   0.481
 4065W        W76490  21.910   4.438   1.896
 4066W        W76491  27.155  20.619   2.362
 4067W        W76492   6.652  12.113  13.995
 4068W        W76493  22.124  42.839   3.390
 4069W        W76494   9.324  13.300   1.836
 4070W        W76495  24.547   3.813   1.398
 4071W        W76496  34.078  37.492   2.831
 4072W        W76497  40.064  16.353   2.751
 4073W        W76498  15.566   0.593   1.320
 4074W        W76499   7.206  35.626   0.210
 4075W        W76500  20.999   1.270  11.598
 4076W        W76501  38.947  36.498   2.344
 4077W        W76502  25.480   3.825   3.126
 4078W        W76503  34.870   2.245  12.592
 4079W        W76504  28.567   4.757   2.932
 4080W        W76505  25.678  29.842   2.219
 4081W        W76506  30.609  27.601  12.933
 4082W        W76507  24.514  19.596   5.015
 4083W        W76508  30.034  23.808  10.972
 4084W        W76509  25.560  44.226  14.793
 4085W        W76510  23.090  37.611   2.301
 4086W        W76511   5.943   3.492   1.823
 4087W        W76512  31.064  35.859   2.786
 4088W        W76513   5.766  33.003  11.533
 4089W        W76514  17.511   8.382   3.186
 4090W        W76515  29.055   5.187   2.684
 4091W        W76516  38.297  17.364  14.388
 4092W        W76517  32.447  22.992   2.956
 4093W        W76518  39.316  21.133  11.506
 4094W        W76519  40.812  14.283   2.959
 4095W        W76520  23.753  28.790   1.472
 4096W        W76521   8.179  14.110  13.409
 4097W        W76522  38.064   6.759   1.340
 4098W        W76523  37.253  35.597  12.944
 4099W        W76524  32.862  34.971   2.851
 4100W        W76525  19.118  19.926  11.232
 4101W        W76526  43.044  14.544   0.469
 4102W        W76527  10.226  27.895  14.288
 4103W        W76528  43.196  10.191  13.882
 4104W        W76529   7.750   8.366  10.998
 4105W        W76530  16.083  19.824   4.170
 4106W        W76531   5.256   9.719  12.986
 4107W        W76532   1.035  19.977   4.092
 4108W        W76533   0.003  13.292   4.876
 4109W        W76534   6.254  31.461   0.763
 4110W        W76535  17.637   4.325  12.605
 4111W        W76536  21.043  33.946   0.763
 4112W        W76537  33.354  19.108  14.841
 4113W        W76538   8.937  27.403   3.718
 4114W        W76539  29.930  14.150   1.803
 4115W        W76540   9.334   2.877   0.331
 4116W        W76541  25.246  37.282   2.340
 4117W        W76542  24.246  34.578  11.932
 4118W        W76543  42.244  32.685  11.976
 4119W        W76544   3.633  39.139   1.316
 4120W        W76545  23.703  24.918   4.614
 4121W        W76546  10.118  18.595   2.568
 4122W        W76547  35.022   9.399  13.631
 4123W        W76548  16.102  23.666   5.294
 4124W        W76549  18.172  36.500  11.281
 4125W        W76550  12.798  27.257   0.408
 4126W        W76551  25.225   2.199  14.260
 4127W        W76552  20.940  20.845   0.326
 4128W        W76553  22.530   7.834  13.360
 4129W        W76554  22.583  15.611   4.587
 4130W        W76555   3.208  28.097  12.641
 4131W        W76556  25.228  40.152   2.844
 4132W        W76557  43.911  24.306   1.879
 4133W        W76558  26.936   0.929   3.807
 4134W        W76559  44.395  16.731  13.604
 4135W        W76560   7.588  36.810   1.893
 4136W        W76561  16.632  33.122  11.067
 4137W        W76562  23.712  16.303  11.790
 4138W        W76563  44.995   8.021  12.009
 4139W        W76564  12.275  18.046  12.912
 4140W        W76565  18.729  15.109   4.892
 4141W        W76566   3.487  14.363   1.773
 4142W        W76567  16.177   4.585  13.456
 4143W        W76568  32.575  20.511  14.852
 4144W        W76569  18.961  28.404   1.365
 4145W        W76570  31.094  17.641  14.371
 4146W        W76571  35.157  34.720   3.649
 4147W        W76572   0.228  17.014   3.129
 4148W        W76573  29.726  28.422  12.425
 4149W        W76574  41.420   3.965   3.683
 4150W        W76575  35.700   0.358  10.433
 4151W        W76576  32.098  22.185   4.443
 4152W        W76577   0.813  15.733   0.436
 4153W        W76578   5.777  17.479   4.079
 4154W        W76579   5.895  29.402  12.936
 4155W        W76580  30.430   5.215  10.683
 4156W        W76581  40.917  35.092   2.416
 4157W        W76582  12.229  25.870   4.684
 4158W        W76583  15.902  19.144  12.786
 4159W        W76584  33.419   8.550  14.857
 4160W        W76585  41.889  28.122   3.611
 4161W        W76586   1.730  17.125  11.314
 4162W        W76587  38.606  38.016  10.750
 4163W        W76588   1.267  42.362  10.444
 4164W        W76589  36.576  35.848  10.077
 4165W        W76590   5.375  38.458  13.992
 4166W        W76591  19.073  15.774   0.360
 4167W        W76592  34.988  28.891   2.096
 4168W        W76593  23.395   4.859  13.827
 4169W        W76594  36.100   9.776  14.714
 4170W        W76595  19.221  31.798   4.285
 4171W        W76596  25.230   6.456  11.733
 4172W        W76597  12.586  20.550   0.862
 4173W        W76598  19.347  28.174  13.881
 4174W        W76599  29.485  12.639  14.513
 4175W        W76600  18.141   5.721   0.278
 4176W        W76601   7.380  11.971  14.236
 4177W        W76602  18.674  22.215  12.477
 4178W        W76603  39.311   7.778   4.036
 4179W        W76604   7.692  38.285  12.918
 4180W        W76605  26.909  24.262   3.661
 4181W        W76606  36.899   9.898   0.292
 4182W        W76607  17.015  39.015   5.266
 4183W        W76608   3.317  41.813   2.223
 4184W        W76609   7.509  39.665   0.474
 4185W        W76610   6.872  30.617   0.699
 4186W        W76611  27.036   1.300  11.897
 4187W        W76612  25.142  22.968   4.521
 4188W        W76613   1.704  16.720   1.435
 4189W        W76614   6.657  11.385  11.075
 4190W        W76615  38.268  23.014  10.596
 4191W        W76616  16.162  13.218   0.139
 4192W        W76617   6.158   3.522  10.794
 4193W        W76618  31.951  12.718   2.812
 4194W        W76619   7.334  19.729   0.233
 4195W        W76620  24.542  16.118  12.753
 4196W        W76621   5.966  40.054   4.702
 4197W        W76622  27.374  15.566   3.322
 4198W        W76623  16.856  10.786  13.392
 4199W        W76624  26.091  18.552   2.260
 4200W        W76625   3.949  34.424   9.970
 4201W        W76626   0.241  21.902  14.098
 4202W        W76627  36.174   3.495  12.100
 4203W        W76628  19.278  17.504   2.058
 4204W        W76629  36.158  34.556   1.860
 4205W        W76630  32.564   4.901   2.864
 4206W        W76631  20.663  39.445   4.000
 4207W        W76632  28.728  36.548   0.815
 4208W        W76633  28.437  19.342  12.449
 4209W        W76634  29.625   1.720   4.574
 4210W        W76635  25.390  43.908   1.820
 4211W        W76636  33.199  22.250   3.218
 4212W        W76637   2.869   1.007   2.331
 4213W        W76638  23.827  29.205  11.566
 4214W        W76639  40.773  35.957  12.633
 4215W        W76640  13.236  41.342   1.428
 4216W        W76641  13.279  32.411  12.022
 4217W        W76642  10.153  38.042   3.714
 4218W        W76643   9.098   8.105   3.219
 4219W        W76644  38.828  32.480   1.921
 4220W        W76645  12.880  24.132  10.152
 4221W        W76646  29.315   4.834   4.649
 4222W        W76647  21.294  20.224  12.891
 4223W        W76648  38.831  12.841  12.836
 4224W        W76649  19.574   2.431   3.700
 4225W        W76650  31.108  18.148  11.804
 4226W        W76651  15.098   4.043   2.317
 4227W        W76652  41.370  21.518  14.294
 4228W        W76653   6.193   9.951   0.084
 4229W        W76654  28.581  11.730  12.421
 4230W        W76655  13.261  38.983  12.851
 4231W        W76656  32.810  11.210   2.322
 4232W        W76657   6.920  33.641   2.869
 4233W        W76658  34.013  11.881  13.419
 4234W        W76659  40.563   1.490  12.266
 4235W        W76660  18.030  13.636   4.698
 4236W        W76661  11.904  37.851   4.705
 4237W        W76662  23.656  24.189   3.649
 4238W        W76663  14.368  44.821   2.183
 4239W        W76664  17.182   6.790   4.509
 4240W        W76665  33.089  20.530  10.583
 4241W        W76666  25.376   9.675  14.249
 4242W        W76667  15.234  24.111  12.100
 4243W        W76668  31.406  34.991   3.656
 4244W        W76669  13.599   6.851  12.610
 4245W        W76670  33.934  25.617   1.880
 4246W        W76671  22.197  21.748   4.595
 4247W        W76672  36.530  28.452   2.832
 4248W        W76673  38.959   7.825   3.282
 4249W        W76674  16.971  13.089   3.114
 4250W        W76675  40.280  31.859   4.986
 4251W        W76676  16.258   5.720  11.352
 4252W        W76677   6.770  35.076   0.767
 4253W        W76678   7.453  33.952  12.949
 4254W        W76679  13.788   2.369  10.667
 4255W        W76680  33.967  42.877   2.240
 4256W        W76681  34.762   5.682  12.024
 4257W        W76682  30.472  11.333  13.504
 4258W        W76683  35.149  25.492  14.689
 4259W        W76684  28.708  23.081  13.966
 4260W        W76685  10.776  26.259   0.678
 4261W        W76686  19.985  41.296  14.797
 4262W        W76687  18.314  13.192   4.673
 4263W        W76688   6.751  33.850   4.118
 4264W        W76689  34.057  32.101  12.122
 4265W        W76690  28.367  31.488   3.643
 4266W        W76691   0.833  32.211   2.388
 4267W        W76692  14.801   2.289  13.516
 4268W        W76693  40.344  10.343   0.342
 4269W        W76694  11.124   7.749   3.728
 4270W        W76695  42.409   7.235  13.580
 4271W        W76696  23.822  41.353   3.765
 4272W        W76697   1.955  29.816   4.665
 4273W        W76698  19.219  31.512  12.102
 4274W        W76699  15.415  22.524   2.226
 4275W        W76700  42.169   0.017   3.933
 4276W        W76701  36.969  36.226   0.535
 4277W        W76702   6.295  12.624  13.481
 4278W        W76703  13.497  32.139   3.752
 4279W        W76704  23.573  19.671   0.933
 4280W        W76705  28.931  19.140   1.484
 4281W        W76706  33.582  30.024  14.271
 4282W        W76707  11.614  19.968  14.477
 4283W        W76708   2.283   2.693  11.468
 4284W        W76709  17.236  32.597  13.026
 4285W        W76710  35.791  12.792  14.807
 4286W        W76711  13.821  11.760   2.795
 4287W        W76712  16.567  41.867   2.310
 4288W        W76713   6.184  13.304   3.910
 4289W        W76714   1.648  17.239   1.513
 4290W        W76715  33.875  12.745  13.280
 4291W        W76716  30.649  14.749   0.962
 4292W        W76717  10.812  22.723  12.345
 4293W        W76718  30.387  22.063   1.888
 4294W        W76719   7.269  44.948   4.150
 4295W        W76720  11.123  31.715  13.510
 4296W        W76721  32.063   4.180   4.596
 4297W        W76722  14.600  21.190   2.151
 4298W        W76723   1.317  41.449  12.069
 4299W        W76724  43.486   5.962  14.845
 4300W        W76725  39.226   3.897   1.875
 4301W        W76726   4.393  22.311  11.245
 4302W        W76727  19.409  41.603   2.671
 4303W        W76728  25.181  11.002  14.960
 4304W        W76729  16.561   7.383  14.862
 4305W        W76730  12.236  40.316   4.408
 4306W        W76731  31.466   2.478  12.609
 4307W        W76732  30.390  15.091  14.756
 4308W        W76733  23.903   2.320  12.480
 4309W        W76734  23.672  31.626   1.435
 4310W        W76735   6.799  36.823   1.440
 4311W        W76736  27.755   2.884  14.112
 4312W        W76737  10.605   5.721  10.772
 4313W        W76738  36.601  24.080  14.078
 4314W        W76739  15.838  29.477  13.393
 4315W        W76740  27.923  10.622  12.565
 4316W        W76741  40.372   9.714   4.490
 4317W        W76742  43.559  17.061  11.657
 4318W        W76743   7.516  40.447   4.183
 4319W        W76744  29.008  17.647  13.797
 4320W        W76745  10.139  17.924  11.728
 4321W        W76746   2.203  15.775  11.143
 4322W        W76747   4.081  12.578   3.383
 4323W        W76748  15.061  21.997  13.861
 4324W        W76749   9.287  37.327   1.633
 4325W        W76750   9.029   3.761   4.765
 4326W        W76751  14.061  34.109  11.625
 4327W        W76752   9.539  17.641  13.909
 4328W        W76753  33.362   7.238  11.525
 4329W        W76754  39.639  21.023   1.886
 4330W        W76755   9.769  24.568   2.319
 4331W        W76756  23.539  20.638   2.471
 4332W        W76757  30.440   8.933   5.248
 4333W        W76758  39.303  14.586   4.234
 4334W        W76759  37.493  19.300   4.613
 4335W        W76760   7.783  19.949   0.079
 4336W        W76761  13.199   7.368  13.987
 4337W        W76762  41.154  10.772  14.052
 4338W        W76763  40.135  23.210  12.980
 4339W        W76764  44.390  33.386  14.444
 4340W        W76765   9.215  24.117   0.037
 4341W        W76766  14.243  37.595   4.589
 4342W        W76767  27.363   7.850  14.310
 4343W        W76768  30.224  14.413   4.608
 4344W        W76769  43.014  28.506  13.144
 4345W        W76770  15.121  42.877   3.622
 4346W        W76771  18.881  10.949  11.106
 4347W        W76772  18.974  29.606  10.014
 4348W        W76773  38.777  24.696   4.542
 4349W        W76774  29.212  23.529   2.581
 4350W        W76775  32.971  14.795   0.583
 4351W        W76776  23.031  37.430  14.986
 4352W        W76777   0.958  20.203  14.654
 4353W        W76778  33.893   3.488   1.266
 4354W        W76779  13.604  33.090  13.062
 4355W        W76780  11.144  27.686  11.205
 4356W        W76781  38.963  33.429  11.865
 4357W        W76782  25.222  38.608  11.976
 4358W        W76783  40.104  39.514   3.760
 4359W        W76784  22.027  28.989   0.046
 4360W        W76785   6.663  27.649   0.991
 4361W        W76786  20.193  32.561  11.951
 4362W        W76787  22.876  38.923  13.542
 4363W        W76788  37.642  40.361   5.085
 4364W        W76789  43.594  10.642   2.992
 4365W        W76790  29.940   6.655  11.640
 4366W        W76791  13.785  29.510  11.255
 4367W        W76792  17.581  42.398  11.609
 4368W        W76793   6.803   5.806  13.893
 4369W        W76794  14.455  19.088  14.846
 4370W        W76795  30.529  19.730   2.285
 4371W        W76796  32.800  33.525   2.809
 4372W        W76797  17.840  29.946   1.971
 4373W        W76798  44.247  17.759   0.419
 4374W        W76799  11.420   5.378  13.409
 4375W        W76800   4.478  43.973  11.742
 4376W        W76801  35.010  31.908   4.576
 4377W        W76802   2.255   1.351  12.790
 4378W        W76803  30.382  24.343   1.464
 4379W        W76804  35.196  10.329  13.883
 4380W        W76805  12.412  20.660   0.326
 4381W        W76806  38.453  36.077   0.572
 4382W        W76807   7.645  11.204  11.108
 4383W        W76808  25.923   8.388  13.951
 4384W        W76809  38.886  42.995   0.788
 4385W        W76810   9.135  18.759   2.770
 4386W        W76811  14.565  34.083  11.588
 4387W        W76812  43.484  41.241   0.846
 4388W        W76813   8.954  15.706   4.439
 4389W        W76814  25.672  24.949  12.302
 4390W        W76815  44.845  16.294   0.280
 4391W        W76816  36.513  35.814   1.807
 4392W        W76817  19.713  11.662  13.044
 4393W        W76818  11.726  44.093  14.472
 4394W        W76819  25.255  27.908  14.772
 4395W        W76820  16.847   5.425   4.174
 4396W        W76821  19.805  23.726   4.123
 4397W        W76822  21.676  12.280   4.184
 4398W        W76823  26.443  25.454  11.187
 4399W        W76824  27.042  26.083  10.617
 4400W        W76825  34.998  31.859   3.666
 4401W        W76826   9.991  10.692  12.912
 4402W        W76827  11.761   9.335  12.282
 4403W        W76828  12.583  26.590  13.004
 4404W        W76829  15.275  16.708  12.056
 4405W        W76830  16.222   7.428   1.337
 4406W        W76831  13.105  31.574   0.740
 4407W        W76832  32.286  30.124  13.043
 4408W        W76833  13.931  26.634  11.948
 4409W        W76834  10.844  10.030  10.133
 4410W        W76835  31.925  17.133   3.272
 4411W        W76836   9.621  14.647   0.756
 4412W        W76837  26.166  32.055   2.233
 4413W        W76838  38.395  31.702   1.813
 4414W        W76839   4.319  30.536   3.237
 4415W        W76840  15.118   8.653  12.568
 4416W        W76841  21.536  44.313   2.841
 4417W        W76842  11.678  35.242   2.778
 4418W        W76843   4.408   7.258   1.457
 4419W        W76844  33.605  37.858   2.142
 4420W        W76845  28.025  38.470   3.729
 4421W        W76846   9.106  31.166   2.079
 4422W        W76847  43.852  25.513  12.566
 4423W        W76848  39.513  27.011  13.531
 4424W        W76849  12.407  23.345   1.657
 4425W        W76850  18.283  35.990  12.057
 4426W        W76851  13.807  14.152   4.588
 4427W        W76852   9.663  40.908   0.219
 4428W        W76853  42.683  29.624  12.104
 4429W        W76854  20.266  28.420   1.880
 4430W        W76855  30.333  26.086  14.967
 4431W        W76856  36.493   3.467   3.220
 4432W        W76857  33.324  34.537  13.944
 4433W        W76858  40.004  16.251  11.022
 4434W        W76859  43.437  11.075  11.612
 4435W        W76860   6.495   3.993   4.784
 4436W        W76861  29.204  39.573  13.154
 4437W        W76862   9.644   7.225   3.107
 4438W        W76863  15.569  33.408  12.645
 4439W        W76864  12.876  30.314  12.861
 4440W        W76865  24.947  14.556  10.730
 4441W        W76866  22.713  23.892   3.452
 4442W        W76867  32.542  19.337  12.996
 4443W        W76868  39.360   0.839   3.471
 4444W        W76869  39.904  40.410   4.432
 4445W        W76870  17.189  41.340  11.672
 4446W        W76871  10.188  40.086   3.700
 4447W        W76872  16.701  23.790   0.927
 4448W        W76873  26.961   3.182   4.557
 4449W        W76874   3.994  24.508  10.929
 4450W        W76875  28.121   5.287  11.101
 4451W        W76876  23.936  31.914  12.419
 4452W        W76877   5.003   2.161   1.470
 4453W        W76878  15.215  42.851  14.259
 4454W        W76879  21.804  40.445  12.364
 4455W        W76880  31.389  43.253   0.519
 4456W        W76881  10.817  32.959  13.043
 4457W        W76882  13.998  31.903   0.903
 4458W        W76883  43.290  27.587  13.808
 4459W        W76884  15.583  14.218   1.752
 4460W        W76885  26.969  20.625  14.483
 4461W        W76886  42.448  10.620   3.952
 4462W        W76887  10.866   1.300  12.036
 4463W        W76888   0.969  43.741  14.169
 4464W        W76889  36.124  40.685  10.851
 4465W        W76890  16.764  29.176   1.845
 4466W        W76891  17.913  21.218  13.648
 4467W        W76892  34.833   6.685   2.313
 4468W        W76893  42.047   2.790   0.630
 4469W        W76894  38.450  26.749   4.667
 4470W        W76895  15.038   5.551   3.411
 4471W        W76896  15.063   1.654  14.933
 4472W        W76897  15.107  23.113   3.863
 4473W        W76898  16.288   9.684  13.524
 4474W        W76899  21.155  15.078   0.224
 4475W        W76900  13.242  44.243  13.441
 4476W        W76901  18.236  18.703  13.875
 4477W        W76902  10.398  12.262  13.313
 4478W        W76903  15.197   2.626   3.303
 4479W        W76904  23.076  37.745   0.413
 4480W        W76905  16.775  16.133   4.777
 4481W        W76906  15.702  40.779   1.211
 4482W        W76907   4.469   8.156  13.947
 4483W        W76908  34.416  29.691  10.712
 4484W        W76909  10.938  16.931  12.590
 4485W        W76910   0.881  27.243  12.520
 4486W        W76911   5.222   6.804  11.653
 4487W        W76912  27.770  33.463   3.261
 4488W        W76913   9.976   8.766   9.829
 4489W        W76914  32.519  35.768  11.282
 4490W        W76915  11.887  25.592   0.367
 4491W        W76916  26.752  32.097   0.848
 4492W        W76917   1.500   9.836   0.285
 4493W        W76918  43.237  17.317   3.263
 4494W        W76919   3.660  28.468   3.358
 4495W        W76920  21.353  33.068  14.864
 4496W        W76921  26.433  35.885   4.707
 4497W        W76922  31.552   4.699   2.748
 4498W        W76923  13.126  29.046  13.268
 4499W        W76924  37.639  12.203  14.416
 4500W        W76925  11.825   6.427  13.170
 4501W        W76926   4.248  15.315  14.236
 4502W        W76927  13.134  10.747   2.190
 4503W        W76928   5.313  31.200   3.991
 4504W        W76929  37.067  24.588  10.573
 4505W        W76930   8.847  10.827   2.224
 4506W        W76931  15.412   8.384   0.966
 4507W        W76932  38.231  13.606  12.482
 4508W        W76933  30.748  37.429  14.518
 4509W        W76934   5.287  21.859   1.263
 4510W        W76935  11.133  16.686  11.952
 4511W        W76936  29.369   5.694   0.171
 4512W        W76937  18.294  18.122   0.678
 4513W        W76938  41.990  24.722   4.575
 4514W        W76939  40.834  15.954   4.134
 4515W        W76940   8.960  31.393  13.143
 4516W        W76941  43.998   3.664   0.879
 4517W        W76942   8.828  21.068  11.968
 4518W        W76943  33.912  17.516  10.688
 4519W        W76944  18.415  40.442  13.127
 4520W        W76945   6.639  38.591  13.887
 4521W        W76946  11.883  11.412   1.773
 4522W        W76947  23.494   5.331   4.860
 4523W        W76948  23.314  33.636  11.616
 4524W        W76949  36.940  33.093   2.380
 4525W        W76950  18.686   7.912   4.099
 4526W        W76951  40.928  28.710  12.614
 4527W        W76952  24.499  34.879  10.329
 4528W        W76953  40.567  36.462   4.640
 4529W        W76954  32.780   6.775   4.656
 4530W        W76955   8.837  40.978  13.455
 4531W        W76956  43.905  22.025   2.911
 4532W        W76957   3.744   3.813  12.858
 4533W        W76958  14.462  35.661   2.706
 4534W        W76959  22.968  23.504   4.976
 4535W        W76960   1.470  34.639   1.991
 4536W        W76961  36.142  25.218   1.188
 4537W        W76962   0.487  30.563  12.892
 4538W        W76963  32.391  20.034   4.593
 4539W        W76964   4.914  33.125  10.888
 4540W        W76965  40.011   7.446   2.242
 4541W        W76966  24.897  12.878   1.315
 4542W        W76967  37.585  18.983  13.777
 4543W        W76968  40.461  25.882   2.195
 4544W        W76969  18.545  10.731   1.245
 4545W        W76970  29.330  15.671  11.653
 4546W        W76971   1.848  33.893  13.355
 4547W        W76972  13.638   5.450   0.377
 4548W        W76973  23.287  17.885  12.517
 4549W        W76974  31.442   2.204  11.605
 4550W        W76975  19.824   6.986  14.318
 4551W        W76976  32.699   0.254   0.026
 4552W        W76977  39.975  20.722  14.444
 4553W        W76978   7.601   1.253   3.787
 4554W        W76979  22.833  12.300  12.454
 4555W        W76980   9.798  26.309  10.878
 4556W        W76981  16.334  18.361  10.541
 4557W        W76982   0.364  16.098  12.780
 4558W        W76983   3.962  38.299  10.380
 4559W        W76984  26.673  34.096   2.781
 4560W        W76985  22.752  32.919   0.933
 4561W        W76986  39.759  25.597  14.091
 4562W        W76987  15.380  38.583   2.250
 4563W        W76988   2.753  10.261  10.611
 4564W        W76989  15.890   3.403   1.726
 4565W        W76990   5.587  19.542   3.210
 4566W        W76991  40.091  21.693   1.332
 4567W        W76992  43.794  39.197   1.261
 4568W        W76993  13.939   7.354  13.452
 4569W        W76994  33.956  20.204   4.985
 4570W        W76995  31.985  25.963  11.131
 4571W        W76996   4.383  34.092   3.748
 4572W        W76997  19.588  19.023   0.249
 4573W        W76998  10.818  15.616   4.424
 4574W        W76999  13.364  43.463  13.664
 4575W        W77000   3.823  44.536   4.653
 4576W        W77001  12.817   7.582  12.933
 4577W        W77002  18.860   3.581   3.351
 4578W        W77003  43.476  23.921  11.225
 4579W        W77004  36.432  12.163   1.128
 4580W        W77005  15.073  14.298   1.841
 4581W        W77006  16.486   1.723  14.032
 4582W        W77007  39.265  41.929   1.253
 4583W        W77008  41.972  18.178  10.480
 4584W        W77009  14.823  12.637   4.640
 4585W        W77010  40.540  44.411   2.335
 4586W        W77011  44.328  32.806   2.676
 4587W        W77012  36.412  23.318  11.580
 4588W        W77013  13.373   3.482   1.382
 4589W        W77014   3.994  37.956  11.213
 4590W        W77015  44.867  33.736  14.454
 4591W        W77016  28.760   2.906   3.642
 4592W        W77017  17.240  19.952  14.729
 4593W        W77018  34.663   0.876  13.980
 4594W        W77019  34.524   5.190  12.675
 4595W        W77020  38.372  43.982   0.234
 4596W        W77021  23.734  24.478   0.244
 4597W        W77022  31.974  13.173   1.835
 4598W        W77023  19.708   8.451  14.294
 4599W        W77024  33.385  27.116   3.807
 4600W        W77025  43.473   4.996  13.614
 4601W        W77026  28.960  22.536   3.711
 4602W        W77027  27.182  31.478  12.234
 4603W        W77028  44.210  30.665  14.838
 4604W        W77029   8.981  23.697   1.761
 4605W        W77030  25.594   6.181   3.236
 4606W        W77031  38.912  35.685   3.094
 4607W        W77032  11.582  21.936   0.479
 4608W        W77033  21.711  24.686  14.811
 4609W        W77034  28.532  23.547  13.848
 4610W        W77035  35.809   5.389  14.638
 4611W        W77036  14.768  34.471   1.191
 4612W        W77037  35.254  16.606  12.562
 4613W        W77038  24.102   9.843  13.175
 4614W        W77039   1.613  39.463  13.754
 4615W        W77040  27.478  25.956   1.273
 4616W        W77041  37.265  44.359  12.730
 4617W        W77042   2.756   1.715   4.680
 4618W        W77043   7.406  16.645   4.766
 4619W        W77044  36.954  14.530   4.728
 4620W        W77045  38.765   4.274   4.693
 4621W        W77046   8.604  39.060  13.580
 4622W        W77047   5.163  10.692   1.301
 4623W        W77048  20.164  36.980  10.550
 4624W        W77049  42.293  17.652   3.285
 4625W        W77050  43.843  28.896   4.442
 4626W        W77051  24.549  12.609  13.795
 4627W        W77052  24.882  42.607   2.786
 4628W        W77053  26.661   8.049  11.607
 4629W        W77054  27.712   0.519  11.851
 4630W        W77055  38.302  36.106  12.530
 4631W        W77056   7.462  26.585  12.001
 4632W        W77057  32.380  30.072   1.565
 4633W        W77058  33.470  13.822  10.726
 4634W        W77059   5.159  14.120   3.707
 4635W        W77060  41.484  44.342   2.679
 4636W        W77061   6.065  34.092   0.797
 4637W        W77062  42.586  16.290   3.936
 4638W        W77063  17.243  37.733   3.192
 4639W        W77064   6.449  25.080   1.711
 4640W        W77065   6.437  23.719  10.764
 4641W        W77066  18.975  10.660  14.328
 4642W        W77067   5.892   8.577  13.864
 4643W        W77068  31.415   4.089  11.072
 4644W        W77069   7.323  44.060  10.742
 4645W        W77070   3.201   6.353   3.313
 4646W        W77071  42.969  43.041   1.893
 4647W        W77072  31.943   4.235  13.255
 4648W        W77073  18.750  18.764  11.214
 4649W        W77074  12.575   2.404  12.874
 4650W        W77075  42.227  39.951  14.614
 4651W        W77076  36.416  13.531   2.919
 4652W        W77077  41.153   5.631   4.375
 4653W        W77078  43.355  19.113   4.700
 4654W        W77079  40.765  20.279   0.602
 4655W        W77080  36.954  23.725  10.547
 4656W        W77081  33.308  19.294  11.571
 4657W        W77082  12.651   9.520  13.383
 4658W        W77083  41.783  37.327  13.266
 4659W        W77084  27.649  24.115   4.336
 4660W        W77085  25.278  11.339  12.263
 4661W        W77086  39.619   8.367  13.052
 4662W        W77087  27.481   7.714  10.760
 4663W        W77088   5.190  24.529  14.530
 4664W        W77089  37.494  38.309  10.613
 4665W        W77090  21.326  19.588   2.268
 4666W        W77091  18.450   2.873   2.259
 4667W        W77092   7.165  19.646   2.169
 4668W        W77093  39.692  26.091  10.651
 4669W        W77094  35.660  24.121   1.284
 4670W        W77095   7.915  43.397   2.330
 4671W        W77096  15.297  15.800  13.562
 4672W        W77097  38.924  17.913   1.776
 4673W        W77098   3.671   5.370  14.035
 4674W        W77099  16.878   4.799   1.109
 4675W        W77100  15.981  10.371  14.892
 4676W        W77101  19.055  11.582   0.753
 4677W        W77102   6.874  19.351   3.596
 4678W        W77103  12.331  10.635  10.786
 4679W        W77104   8.746  26.300   2.884
 4680W        W77105   2.008   4.962   4.591
 4681W        W77106  18.018  31.369   1.693
 4682W        W77107  31.071  37.494   3.944
 4683W        W77108  16.548  36.851   2.992
 4684W        W77109   7.355   1.441   4.306
 4685W        W77110  10.346  35.538  11.490
 4686W        W77111  43.585  34.900   2.414
 4687W        W77112  31.727  37.939  13.036
 4688W        W77113   5.375   1.752  14.804
 4689W        W77114  39.515  17.830   0.713
 4690W        W77115  35.844  32.933   3.714
 4691W        W77116  20.746   1.394   3.626
 4692W        W77117  29.726  30.498  11.136
 4693W        W77118  44.316   9.590  13.077
 4694W        W77119   8.094  22.971   1.461
 4695W        W77120  21.174  25.479  12.455
 4696W        W77121  16.698   2.056  11.214
 4697W        W77122   1.002  26.154  11.773
 4698W        W77123  10.745   6.572   5.865
 4699W        W77124   8.994  30.839  13.000
 4700W        W77125  31.384  30.100  12.976
 4701W        W77126  35.652  17.425  11.007
 4702W        W77127  23.947   1.757   3.382
 4703W        W77128   7.950   7.225   4.991
 4704W        W77129  31.426  35.155  10.636
 4705W        W77130  38.051  14.781   4.606
 4706W        W77131  10.138  32.835  12.141
 4707W        W77132  10.142  41.644  10.157
 4708W        W77133   3.894  28.009  10.922
 4709W        W77134  20.289  12.999  13.135
 4710W        W77135   0.287  10.581   1.274
 4711W        W77136  32.645   2.695   4.219
 4712W        W77137  42.090  33.048  11.614
 4713W        W77138  12.136  21.899   1.716
 4714W        W77139  39.530  12.812   1.399
 4715W        W77140  41.337  42.789  12.211
 4716W        W77141  36.532  31.681   0.763
 4717W        W77142  36.545  24.496  14.782
 4718W        W77143  22.250  25.968  13.024
 4719W        W77144  36.279  19.788   4.964
 4720W        W77145  43.608  36.857  12.718
 4721W        W77146  37.928  28.427  12.488
 4722W        W77147  42.518  15.792   2.614
 4723W        W77148  20.628  13.311  10.540
 4724W        W77149  16.330   0.953  14.428
 4725W        W77150  11.363  24.442  13.994
 4726W        W77151  18.730   0.917   5.229
 4727W        W77152   1.476  25.584   1.904
 4728W        W77153  43.388  20.584  14.461
 4729W        W77154  23.487  16.797   1.998
 4730W        W77155  17.574  39.233   4.638
 4731W        W77156  29.487  33.945  10.482
 4732W        W77157  40.335  26.157   5.045
 4733W        W77158   5.851   4.403   0.859
 4734W        W77159  28.102  37.144  11.599
 4735W        W77160   2.069   9.151   2.351
 4736W        W77161  43.292  28.393  13.570
 4737W        W77162   0.149  15.574  14.010
 4738W        W77163  10.360  42.663  12.761
 4739W        W77164  23.534  17.132   4.665
 4740W        W77165   1.690  36.756  12.882
 4741W        W77166  30.697  17.770   3.304
 4742W        W77167  34.347  21.055  11.645
 4743W        W77168  35.868  25.467   4.173
 4744W        W77169  42.283  22.699  12.514
 4745W        W77170  21.467  11.078   4.501
 4746W        W77171  15.134  25.128   3.623
 4747W        W77172  40.899  15.119   0.962
 4748W        W77173   1.448   1.777  10.608
 4749W        W77174   0.589  33.620   1.965
 4750W        W77175   7.899  34.575  10.699
 4751W        W77176  16.204  37.880  10.676
 4752W        W77177  39.106  38.670   1.442
 4753W        W77178  17.660  21.636   1.687
 4754W        W77179  33.629  28.472  13.521
 4755W        W77180  28.499  33.018  12.949
 4756W        W77181  35.965  37.942  14.018
 4757W        W77182   1.718  21.064   1.814
 4758W        W77183  31.917  29.002   0.006
 4759W        W77184  23.090   1.117  11.605
 4760W        W77185   3.408  42.775   3.699
 4761W        W77186  38.428   5.175   0.021
 4762W        W77187  43.954  39.487  13.003
 4763W        W77188  24.917   4.533  14.888
 4764W        W77189  37.794  40.350  13.329
 4765W        W77190  36.318  16.853  14.371
 4766W        W77191   8.959   1.903  12.081
 4767W        W77192   7.305  30.375   0.489
 4768W        W77193   9.809  37.605  14.884
 4769W        W77194   7.921  34.887   0.494
 4770W        W77195  39.291   2.426   3.247
 4771W        W77196  24.998   4.941   0.485
 4772W        W77197  15.150   6.363  12.137
 4773W        W77198   8.439  43.006  12.110
 4774W        W77199  16.285  39.859  12.968
 4775W        W77200  27.040  12.109   0.242
 4776W        W77201   3.427  37.620  12.603
 4777W        W77202  41.954  26.825  14.498
 4778W        W77203  35.513  37.937   0.827
 4779W        W77204   1.058   4.789   4.018
 4780W        W77205  39.201   1.366  14.832
 4781W        W77206   4.739   6.687  11.862
 4782W        W77207  11.082  23.641   3.828
 4783W        W77208  42.344  21.048   0.243
 4784W        W77209  32.546  34.326   3.292
 4785W        W77210  39.040   5.420  13.421
 4786W        W77211  31.968   5.252  10.692
 4787W        W77212  42.445  35.523   2.871
 4788W        W77213  30.246  14.773  11.181
 4789W        W77214  19.296  43.786   4.884
 4790W        W77215  44.022   9.350  10.573
 4791W        W77216   9.822  10.254  11.849
 4792W        W77217  32.214  32.800  14.078
 4793W        W77218  19.316  20.790   4.366
 4794W        W77219  40.822  33.503   1.267
 4795W        W77220  42.472  37.053   2.795
 4796W        W77221  34.309  31.483   2.360
 4797W        W77222  25.450  36.489  12.067
 4798W        W77223  27.907  20.838   2.764
 4799W        W77224  15.442   5.106   3.293
 4800W        W77225   9.919  40.142   1.346
 4801W        W77226  38.263  15.819  11.928
 4802W        W77227  12.184  24.214  12.204
 4803W        W77228  38.555  44.272   3.576
 4804W        W77229  36.549  15.833   2.293
 4805W        W77230  37.754  37.360  13.490
 4806W        W77231  21.565  35.826  10.300
 4807W        W77232   8.357   2.852  10.763
 4808W        W77233   6.444  18.465   0.838
 4809W        W77234   3.838  39.323   4.856
 4810W        W77235  17.170  21.015   0.209
 4811W        W77236   5.541  20.308   4.156
 4812W        W77237  33.413  28.706   0.483
 4813W        W77238  12.305  16.621  12.091
 4814W        W77239  36.461  16.361   2.250
 4815W        W77240  32.586  20.672   2.454
 4816W        W77241  25.740  29.899  12.864
 4817W        W77242  27.428  31.941  13.993
 4818W        W77243   5.908  29.642  11.183
 4819W        W77244  33.549   7.650  12.470
 4820W        W77245  33.169   8.798  11.150
 4821W        W77246   3.222  34.871   0.836
 4822W        W77247  27.938  27.658   0.696
 4823W        W77248  16.553  43.813  13.966
 4824W        W77249  19.765  20.117   0.883
 4825W        W77250  23.799  40.448   3.836
 4826W        W77251  36.908  31.858   2.937
 4827W        W77252   0.942  40.500  14.045
 4828W        W77253   5.585  42.361   0.779
 4829W        W77254  27.130  26.898   0.749
 4830W        W77255  21.551  32.111   4.831
 4831W        W77256  40.260  20.010   2.724
 4832W        W77257  39.601  32.076  13.520
 4833W        W77258  20.186  27.052   4.125
 4834W        W77259   1.510   3.485   0.185
 4835W        W77260   1.771   1.887   0.789
 4836W        W77261  14.791  21.275   1.649
 4837W        W77262  37.111  25.979   0.358
 4838W        W77263  41.052  19.291  14.371
 4839W        W77264  30.897   7.360   3.711
 4840W        W77265  39.854  24.403   2.174
 4841W        W77266  10.823  14.975  10.745
 4842W        W77267  44.128  10.855  13.356
 4843W        W77268   9.294   3.990  12.440
 4844W        W77269  38.037  42.535  12.563
 4845W        W77270  23.999  41.028  13.748
 4846W        W77271  16.307  11.770  11.395
 4847W        W77272  27.926  38.765   3.312
 4848W        W77273   9.983   0.918   4.391
 4849W        W77274   6.132  23.797  13.880
 4850W        W77275   6.140  10.311   1.406
 4851W        W77276  27.898  20.124   3.674
 4852W        W77277   6.036  39.625   3.916
 4853W        W77278  11.372   3.419   3.316
 4854W        W77279  16.134  33.095  13.367
 4855W        W77280   8.685  27.591  10.777
 4856W        W77281   7.423  41.963   2.697
 4857W        W77282  34.451  28.910   1.982
 4858W        W77283  18.989  21.959  11.051
 4859W        W77284  22.747  30.571   0.647
 4860W        W77285  33.302   7.983   2.642
 4861W        W77286   6.896  24.696   1.021
 4862W        W77287  24.939   4.197  11.882
 4863W        W77288  40.459  30.151  13.850
 4864W        W77289  27.024  16.686  13.763
 4865W        W77290  24.669   4.916  11.983
 4866W        W77291  30.471  15.224  12.824
 4867W        W77292  43.228   0.753  11.561
 4868W        W77293  37.959  31.320  14.795
 4869W        W77294  25.763  40.453   9.991
 4870W        W77295  15.620  11.056  11.825
 4871W        W77296  28.670  42.600   2.754
 4872W        W77297  30.143  43.543  10.524
 4873W        W77298  29.429  41.983   4.079
 4874W        W77299  13.581   6.917  10.724
 4875W        W77300  25.844  35.964   1.889
 4876W        W77301  18.228  23.620  11.075
 4877W        W77302  31.044  41.912   1.343
 4878W        W77303  30.404   0.128  14.201
 4879W        W77304   7.587  27.427  14.792
 4880W        W77305  24.283  33.936  14.449
 4881W        W77306  19.676  34.759   0.350
 4882W        W77307  21.700  35.059   1.853
 4883W        W77308  42.739  31.609   2.655
 4884W        W77309  16.362  25.451  14.380
 4885W        W77310  22.117  26.688   3.168
 4886W        W77311  22.143   8.374  12.528
 4887W        W77312  29.608  15.598  14.569
 4888W        W77313  22.264  26.224  14.337
 4889W        W77314  14.368  24.574   5.158
 4890W        W77315  28.568  17.136  13.264
 4891W        W77316  23.727  19.090   2.782
 4892W        W77317  16.480  44.190   3.070
 4893W        W77318  32.481  35.829   4.334
 4894W        W77319   6.775  26.704  14.290
 4895W        W77320  22.095  23.246   0.863
 4896W        W77321  37.998  10.323   0.445
 4897W        W77322  33.251  32.552   3.227
 4898W        W77323   8.136  40.468  11.617
 4899W        W77324   6.321  26.446  12.000
 4900W        W77325  36.489  36.496  12.074
 4901W        W77326   4.912   4.260  12.783
 4902W        W77327  15.193   8.277   3.608
 4903W        W77328  33.976  17.508   0.908
 4904W        W77329  36.728  25.950   3.140
 4905W        W77330  13.290  30.217  13.931
 4906W        W77331  13.314  29.634   1.782
 4907W        W77332  41.910  16.665  13.530
 4908W        W77333  25.218  28.507   4.646
 4909W        W77334   3.084  37.357  12.947
 4910W        W77335  10.660  43.413   0.018
 4911W        W77336  43.372  36.810   1.400
 4912W        W77337  37.487  26.532   3.248
 4913W        W77338  12.711  22.678   1.403
 4914W        W77339  32.358   2.888   0.929
 4915W        W77340  11.784  12.047  10.548
 4916W        W77341  44.379  11.093  12.942
 4917W        W77342  34.003  29.548  12.072
 4918W        W77343  19.209  14.050   3.693
 4919W        W77344  36.294   2.494   1.769
 4920W        W77345  18.830  23.022  13.963
 4921W        W77346   6.861  35.134   2.717
 4922W        W77347   8.670  37.290  11.483
 4923W        W77348  16.317   1.312  10.515
 4924W        W77349  34.358  20.637   1.413
 4925W        W77350  30.379   5.449  14.921
 4926W        W77351  12.876  22.715  12.635
 4927W        W77352   4.693  14.567   4.371
 4928W        W77353  36.997  15.502   2.220
 4929W        W77354  23.712   9.636  14.181
 4930W        W77355  23.205  22.681   2.238
 4931W        W77356  15.169  44.444   1.441
 4932W        W77357  18.631  10.867   4.583
 4933W        W77358  12.390  19.265  12.926
 4934W        W77359  10.049  19.431   5.081
 4935W        W77360   8.420  18.041  11.027
 4936W        W77361  32.313  42.895  14.116
 4937W        W77362   4.753  11.603   4.601
 4938W        W77363   7.840  40.796   3.569
 4939W        W77364  35.565   9.866   1.344
 4940W        W77365  44.193  35.118  14.375
 4941W        W77366   9.922  29.191   3.588
 4942W        W77367   8.472   9.143   1.732
 4943W        W77368  12.081  31.951   1.053
 4944W        W77369  13.042  29.845  11.099
 4945W        W77370  25.864  40.275  13.429
 4946W        W77371  17.668   0.420   0.947
 4947W        W77372  18.271  30.955   1.931
 4948W        W77373   2.696   2.917  11.125
 4949W        W77374   3.919   4.501   4.819
 4950W        W77375  43.673   2.820   4.680
 4951W        W77376  20.276  32.048  11.048
 4952W        W77377  13.748  12.464  12.776
 4953W        W77378  10.714  38.430   0.894
 4954W        W77379  36.329  10.208  12.082
 4955W        W77380  35.896  19.719  11.038
 4956W        W77381   5.305  21.158   0.680
 4957W        W77382  26.482   5.178  12.485
 4958W        W77383  38.399  23.531  10.554
 4959W        W77384   8.985   0.348  12.929
 4960W        W77385  44.840   3.172  12.981
 4961W        W77386  22.410  20.855  10.804
 4962W        W77387  42.462   1.976   1.523
 4963W        W77388   1.169  15.696  13.866
 4964W        W77389  37.919  35.433   4.437
 4965W        W77390  41.348   1.640  11.449
 4966W        W77391  15.605   1.442  13.319
 4967W        W77392  26.700  10.005  13.101
 4968W        W77393  13.750  25.197  10.758
 4969W        W77394  29.131  36.321  11.191
 4970W        W77395  16.704  25.542   2.623
 4971W        W77396  41.982  30.125   4.844
 4972W        W77397  21.549  36.066  12.394
 4973W        W77398  19.184  14.371  10.954
 4974W        W77399   0.303   4.251  11.995
 4975W        W77400  12.247  15.803  14.325
 4976W        W77401  15.740  34.605   9.703
 4977W        W77402   2.648  20.761   2.313
 4978W        W77403  39.113  29.915  13.366
 4979W        W77404   9.264  32.715  13.605
 4980W        W77405  16.407   1.429  12.874
 4981W        W77406  37.389  35.248   5.353
 4982W        W77407  19.641  26.666   1.261
 4983W        W77408  32.232  29.971  10.755
 4984W        W77409  10.845  22.275  14.875
 4985W        W77410  42.132   7.936  13.809
 4986W        W77411  38.576  17.158   4.704
 4987W        W77412  30.997  36.858   1.875
 4988W        W77413  27.401  21.187  12.619
 4989W        W77414  17.626  15.782  10.673
 4990W        W77415   7.245  28.116  10.706
 4991W        W77416   7.189  39.317   2.260
 4992W        W77417  18.532  31.572  12.637
 4993W        W77418  11.779  10.778  11.078
 4994W        W77419  30.506  24.967  10.784
 4995W        W77420  21.176  24.455   1.421
 4996W        W77421  32.730   0.310   1.967
 4997W        W77422  33.570  39.124  13.444
 4998W        W77423  33.846  14.826  13.244
 4999W        W77424   6.641  37.373  14.261
 5000W        W77425   8.243  30.976   0.455
 5001W        W77426  21.203  13.195  10.642
 5002W        W77427  32.649  41.373  14.412
 5003W        W77428  23.445  14.634  13.786
 5004W        W77429   9.359  23.973   2.881
 5005W        W77430  12.274   5.169  12.468
 5006W        W77431  21.209  17.074   4.256
 5007W        W77432  36.452  25.050  12.614
 5008W        W77433  32.487  44.424  12.622
 5009W        W77434  24.229   5.188   3.668
 5010W        W77435  43.446  32.840   4.760
 5011W        W77436  19.876   7.179   3.758
 5012W        W77437   8.635  44.933   2.817
 5013W        W77438   0.270  32.882   2.678
 5014W        W77439  34.378   3.466  12.157
 5015W        W77440  43.401  31.979   0.038
 5016W        W77441   2.295   5.340   2.216
 5017W        W77442  38.002  18.168   1.364
 5018W        W77443  22.863  29.705  12.977
 5019W        W77444  21.081  26.531   0.345
 5020W        W77445  37.920  31.866   2.767
 5021W        W77446  38.540   1.443   2.343
 5022W        W77447   4.647   2.418   2.287
 5023W        W77448  12.877  21.111   2.670
 5024W        W77449  16.236   7.644  13.569
 5025W        W77450  12.185  11.387  12.413
 5026W        W77451  24.519   5.241   2.215
 5027W        W77452  38.417  36.306   3.139
 5028W        W77453  18.545  38.275   2.812
 5029W        W77454   3.468   2.721  11.445
 5030W        W77455  43.513  23.679  11.692
 5031W        W77456  22.573  20.631   1.044
 5032W        W77457  18.175   5.498   3.231
 5033W        W77458  10.805   6.017   3.762
 5034W        W77459   8.319  40.481  14.973
 5035W        W77460  41.290   5.254   1.181
 5036W        W77461  32.915  24.668  10.722
 5037W        W77462  18.809  20.983   3.603
 5038W        W77463   6.635  28.653   2.173
 5039W        W77464  15.747  20.075  14.329
 5040W        W77465  35.660  18.230  12.915
 5041W        W77466  30.878  32.012   3.142
 5042W        W77467   6.501  31.647   1.200
 5043W        W77468  25.792  23.892   0.372
 5044W        W77469  30.962   6.365   0.408
 5045W        W77470  25.470   1.926  11.164
 5046W        W77471   9.752  16.650   4.341
 5047W        W77472   4.010  37.656   3.250
 5048W        W77473   5.450  12.667   0.239
 5049W        W77474  13.132  20.714   4.404
 5050W        W77475  21.765  37.939   0.531
 5051W        W77476  22.433   3.341   5.011
 5052W        W77477   3.040  18.190  10.678
 5053W        W77478  11.332  13.738   1.943
 5054W        W77479   9.864  31.337   4.566
 5055W        W77480  20.663  15.878  12.573
 5056W        W77481  19.524  14.451   3.721
 5057W        W77482  31.437  26.967  13.902
 5058W        W77483  37.902  29.967  11.592
 5059W        W77484   8.122  21.476   4.049
 5060W        W77485  21.956  39.507  11.890
 5061W        W77486  18.732  28.822   5.028
 5062W        W77487  37.945   5.122   3.628
 5063W        W77488  22.562  37.081   3.378
 5064W        W77489  33.442   9.983   4.329
 5065W        W77490  43.026  22.712  12.887
 5066W        W77491  17.341  19.049   1.195
 5067W        W77492  44.533  24.069  14.263
 5068W        W77493  23.183  24.483   1.455
 5069W        W77494  37.974  22.627   0.852
 5070W        W77495  25.225  26.991  11.118
 5071W        W77496  40.097  35.009   4.838
 5072W        W77497  41.170  39.171   2.823
 5073W        W77498  40.309  27.524   4.175
 5074W        W77499  22.080  21.743  13.903
 5075W        W77500  14.815   1.759   2.732
 5076W        W77501  17.956  23.571   3.597
 5077W        W77502  37.741  41.103  12.125
 5078W        W77503  36.917  18.181   0.280
 5079W        W77504  42.600  28.950  14.910
 5080W        W77505  11.854   9.062   4.158
 5081W        W77506  26.117  44.948  11.578
 5082W        W77507  25.578  33.136   2.751
 5083W        W77508  35.607  30.066  13.489
 5084W        W77509  35.601  27.428  12.525
 5085W        W77510  38.204   0.711   0.542
 5086W        W77511  23.698   1.389   3.708
 5087W        W77512  12.643  43.829   4.228
 5088W        W77513   2.495  34.971  10.795
 5089W        W77514  21.280  14.314   1.892
 5090W        W77515  32.903   9.794  11.636
 5091W        W77516   5.699  37.407  13.320
 5092W        W77517  18.146   2.962  12.503
 5093W        W77518  43.456  33.150   3.257
 5094W        W77519  18.342   4.714   3.604
 5095W        W77520  27.828  14.320  13.864
 5096W        W77521  37.545  41.369   1.775
 5097W        W77522  25.388  26.561  14.762
 5098W        W77523  41.088   5.836  14.437
 5099W        W77524  20.128   8.353  10.749
 5100W        W77525  30.119   2.050  13.912
 5101W        W77526   2.182  28.955   4.080
 5102W        W77527  18.568  43.412   3.243
 5103W        W77528  42.754  34.303   4.098
 5104W        W77529  14.511  28.414  11.645
 5105W        W77530  39.901  14.869  14.009
 5106W        W77531  10.844  13.679   1.136
 5107W        W77532   0.405  22.593  13.380
 5108W        W77533  33.517  14.059   2.720
 5109W        W77534  34.082  39.426  10.837
 5110W        W77535   0.121  17.644  14.556
 5111W        W77536  15.710  25.599  13.128
 5112W        W77537   6.151  27.188   4.123
 5113W        W77538  42.495  36.044   3.602
 5114W        W77539  39.851  21.146   4.524
 5115W        W77540  25.488  17.252  11.992
 5116W        W77541   8.966  41.036  14.437
 5117W        W77542  40.226   6.845  11.474
 5118W        W77543  27.490   6.879   1.829
 5119W        W77544  26.116  33.599  13.369
 5120W        W77545  39.094  25.843   2.657
 5121W        W77546  14.927  13.301   1.028
 5122W        W77547  14.103  31.031  14.786
 5123W        W77548  21.592   9.071  12.054
 5124W        W77549  38.455   4.991  14.029
 5125W        W77550   9.353   7.152  14.413
 5126W        W77551   0.540  20.547   3.222
 5127W        W77552  32.876  20.165   4.624
 5128W        W77553   8.328  12.170   1.512
 5129W        W77554  21.336  11.376  13.834
 5130W        W77555  19.706  43.713   2.271
 5131W        W77556  43.915   5.419  11.113
 5132W        W77557  29.215  31.529   1.266
 5133W        W77558  25.231  15.572  13.556
 5134W        W77559  31.018  43.233   3.882
 5135W        W77560  17.794  33.138   2.626
 5136W        W77561   7.859  16.762   2.594
 5137W        W77562   4.143  17.815  13.636
 5138W        W77563  43.077   8.716  12.649
 5139W        W77564   6.149  34.549  14.407
 5140W        W77565  28.256   2.619  14.790
 5141W        W77566  23.048  16.041   2.038
 5142W        W77567  19.621  43.974   1.212
 5143W        W77568  41.059   7.821  11.022
 5144W        W77569  23.707   6.452  12.029
 5145W        W77570  20.759   6.717  10.644
 5146W        W77571  35.899   1.945   2.229
 5147W        W77572  41.510  22.108  11.783
 5148W        W77573  28.397  44.398   4.170
 5149W        W77574  30.243  33.004  11.001
 5150W        W77575  30.477  17.118  13.024
 5151W        W77576  30.432  19.258  11.462
 5152W        W77577  22.359  32.829   0.098
 5153W        W77578   2.990  28.785  11.466
 5154W        W77579   0.210  14.104   0.704
 5155W        W77580   2.014   1.783   4.077
 5156W        W77581  27.225  17.642   4.402
 5157W        W77582  38.378   1.512  14.403
 5158W        W77583  18.714  16.029  11.992
 5159W        W77584   1.307   2.239   2.837
 5160W        W77585  40.750  33.484  11.511
 5161W        W77586  35.723  40.430  14.815
 5162W        W77587   6.642  42.327  10.999
 5163W        W77588  13.655  37.968  12.312
 5164W        W77589  44.365   9.357  12.611
 5165W        W77590  38.494  25.098   9.958
 5166W        W77591  43.892  34.650   0.716
 5167W        W77592  19.731  37.028  13.974
 5168W        W77593  44.321  23.260  11.178
 5169W        W77594  36.317  27.411   1.303
 5170W        W77595   2.360  32.088   3.143
 5171W        W77596   6.529  12.970  11.700
 5172W        W77597  41.329  14.089   3.425
 5173W        W77598  23.206   1.768  13.341
 5174W        W77599   0.945  13.701   4.243
 5175W        W77600   0.700  24.248   0.441
 5176W        W77601  33.190  36.528   1.330
 5177W        W77602   3.155   1.006  13.991
 5178W        W77603  26.178  18.011  10.976
 5179W        W77604  21.439  19.763   3.128
 5180W        W77605  44.204   2.457   1.289
 5181W        W77606  37.427  20.690  14.446
 5182W        W77607   8.197  36.434  14.233
 5183W        W77608  38.463  11.164  14.102
 5184W        W77609  16.927  13.946   9.878
 5185W        W77610   9.273  33.165  12.185
 5186W        W77611  30.521  22.747  13.429
 5187W        W77612  29.627  22.001   4.279
 5188W        W77613  43.721  18.122   4.995
 5189W        W77614  18.833  37.384   4.156
 5190W        W77615  16.140  44.106  13.926
 5191W        W77616  12.840  10.343  11.506
 5192W        W77617  10.120   5.440   4.194
 5193W        W77618  18.228  43.488   3.880
 5194W        W77619   1.674  25.611  14.678
 5195W        W77620  25.578  33.075  14.911
 5196W        W77621  10.212   3.486  12.877
 5197W        W77622  13.796  29.109  10.950
 5198W        W77623   4.372  41.596   0.644
 5199W        W77624  17.821  16.287  11.865
 5200W        W77625  25.205  21.220   3.837
 5201W        W77626  44.527  43.280  14.822
 5202W        W77627  30.226  17.567   5.459
 5203W        W77628  27.952  44.422   1.358
 5204W        W77629  29.694  33.650   3.062
 5205W        W77630  27.439  18.762  13.752
 5206W        W77631  31.649   6.682   2.117
 5207W        W77632   0.408  24.458  13.055
 5208W        W77633   4.472  40.555   4.526
 5209W        W77634  44.350  28.352   0.250
 5210W        W77635   2.387   0.837  12.589
 5211W        W77636   7.783  28.734   3.316
 5212W        W77637  21.561  36.622  14.140
 5213W        W77638   9.223  13.853  10.724
 5214W        W77639   1.716  13.069  13.371
 5215W        W77640   0.806   3.218  13.965
 5216W        W77641  25.483  42.496   1.391
 5217W        W77642  29.562  31.609   3.566
 5218W        W77643  13.142   6.641  12.435
 5219W        W77644  32.842  28.606   4.211
 5220W        W77645  38.980   2.026   0.518
 5221W        W77646   8.280  31.529   4.664
 5222W        W77647  27.198  41.784  11.668
 5223W        W77648  18.040  20.771  10.352
 5224W        W77649   1.335   9.906  11.898
 5225W        W77650  24.740   3.904  14.527
 5226W        W77651  30.151  37.521  12.039
 5227W        W77652  33.967   7.721  11.596
 5228W        W77653  24.961  16.901   0.356
 5229W        W77654   4.183  35.209   2.385
 5230W        W77655  26.928  18.138   1.307
 5231W        W77656   6.389  28.476   1.725
 5232W        W77657   2.947  27.677   0.970
 5233W        W77658   1.447   5.617  10.680
 5234W        W77659  10.137  29.189  12.854
 5235W        W77660  38.224   4.136   3.809
 5236W        W77661  41.803  25.495   1.795
 5237W        W77662  30.392   6.688   3.133
 5238W        W77663  26.113  34.985   4.244
 5239W        W77664  11.355  39.562  11.047
 5240W        W77665   8.869   9.536   0.879
 5241W        W77666   6.266  35.290  13.207
 5242W        W77667  39.931  35.727  13.288
 5243W        W77668  36.595  19.810  10.402
 5244W        W77669   8.923  18.113   3.022
 5245W        W77670  31.026  32.708  10.766
 5246W        W77671  30.326  40.175  11.175
 5247W        W77672  44.498  29.682  14.811
 5248W        W77673   3.801  20.512   4.259
 5249W        W77674   5.682  22.666  11.525
 5250W        W77675  16.765  34.391   2.553
 5251W        W77676  34.001  37.627  11.035
 5252W        W77677  20.160  25.533   4.785
 5253W        W77678  31.428   3.389   0.032
 5254W        W77679  30.947  41.849   0.389
 5255W        W77680  41.946   3.635   0.288
 5256W        W77681  42.944  29.866  13.252
 5257W        W77682  38.324  24.385   4.091
 5258W        W77683  34.907  19.454   1.499
 5259W        W77684  43.619  38.239   1.366
 5260W        W77685  28.780   1.817   2.410
 5261W        W77686  11.285  27.729  13.809
 5262W        W77687   9.408  31.067   4.512
 5263W        W77688  38.100  33.874   4.128
 5264W        W77689  29.502  16.503   0.364
 5265W        W77690  32.597   0.864  14.485
 5266W        W77691  20.583   1.861   3.317
 5267W        W77692   0.277  34.806   0.419
 5268W        W77693  28.966  30.574   5.429
 5269W        W77694  35.569  17.742   1.704
 5270W        W77695  19.939  38.928   1.938
 5271W        W77696  33.261  28.399   3.652
 5272W        W77697  41.601   8.620   2.641
 5273W        W77698  15.642  10.316  12.916
 5274W        W77699  27.055   7.779   3.598
 5275W        W77700   2.269  36.394  13.872
 5276W        W77701  39.854   5.689   4.798
 5277W        W77702  28.419  22.522  11.596
 5278W        W77703   8.799   9.864  12.612
 5279W        W77704  36.838  39.106   3.640
 5280W        W77705  11.084  13.253   1.850
 5281W        W77706  32.904  30.013  14.047
 5282W        W77707  21.021   9.781  12.990
 5283W        W77708  37.773  42.727   2.362
 5284W        W77709  11.199  39.374  14.798
 5285W        W77710  34.155  17.453   4.217
 5286W        W77711  23.726  11.580   4.134
 5287W        W77712   7.120  21.867   4.784
 5288W        W77713  17.915   1.540   0.283
 5289W        W77714  42.368  38.883   0.936
 5290W        W77715  43.273  30.908   2.480
 5291W        W77716  20.221  12.753   1.512
 5292W        W77717  38.986  22.647  11.095
 5293W        W77718  38.278  20.524   1.133
 5294W        W77719  23.863  15.594  10.573
 5295W        W77720  37.181  11.992  11.376
 5296W        W77721  40.388   7.252  13.363
 5297W        W77722  18.293   1.735  10.104
 5298W        W77723  25.783  22.550   1.328
 5299W        W77724  13.064  29.165   2.769
 5300W        W77725  37.115  11.290   4.281
 5301W        W77726  41.496  34.879  12.974
 5302W        W77727   0.485  29.951  14.924
 5303W        W77728  34.678  29.449   3.920
 5304W        W77729  11.839   5.898  14.989
 5305W        W77730  18.183  40.424  11.738
 5306W        W77731  13.842   5.120  13.378
 5307W        W77732   9.807  39.433   4.841
 5308W        W77733  35.535  26.144   4.694
 5309W        W77734  16.290   5.249   1.270
 5310W        W77735   3.782  35.046   0.775
 5311W        W77736  24.530  29.218  14.543
 5312W        W77737   2.907  16.143   3.644
 5313W        W77738  31.260  40.503   0.720
 5314W        W77739  25.090  16.733   4.216
 5315W        W77740  41.431  10.264   1.749
 5316W        W77741  32.913  11.282  13.896
 5317W        W77742  40.776   9.392  11.135
 5318W        W77743  17.107  19.043  11.639
 5319W        W77744  31.253  27.069   2.872
 5320W        W77745  12.815   2.677   2.958
 5321W        W77746  16.695  16.082  11.115
 5322W        W77747  35.019   8.210   1.685
 5323W        W77748  18.253  29.598   5.007
 5324W        W77749  26.224   8.196   4.603
 5325W        W77750  10.220  26.026  12.100
 5326W        W77751   5.947  30.065   2.227
 5327W        W77752  26.908  29.011  12.794
 5328W        W77753  33.919  28.642  13.126
 5329W        W77754  41.562  41.249  11.006
 5330W        W77755  16.631  28.933  14.387
 5331W        W77756  32.507  21.814  11.137
 5332W        W77757  20.060  43.606  13.416
 5333W        W77758  37.401  35.541   4.287
 5334W        W77759  39.754   8.741   2.331
 5335W        W77760  34.951  27.913  12.949
 5336W        W77761  22.690  31.972  13.432
 5337W        W77762  33.745  44.345  11.555
 5338W        W77763  10.602  33.551  14.027
 5339W        W77764  43.436  34.906   0.554
 5340W        W77765  42.327  17.217  10.726
 5341W        W77766  21.233  31.333   3.724
 5342W        W77767   1.651  22.436   3.729
 5343W        W77768  21.588  24.505   1.725
 5344W        W77769  32.416   5.962  10.550
 5345W        W77770  28.965   4.425  13.390
 5346W        W77771  20.739  38.516  14.045
 5347W        W77772  16.202  30.690   1.701
 5348W        W77773   3.851  26.446  12.092
 5349W        W77774  40.448  26.368   2.063
 5350W        W77775  30.909  32.890   1.245
 5351W        W77776  23.737  18.427   0.357
 5352W        W77777  14.989  31.002   4.858
 5353W        W77778  13.290  22.656   3.159
 5354W        W77779  30.706  14.116   4.565
 5355W        W77780  33.243  32.996   4.015
 5356W        W77781  32.976  16.283  11.972
 5357W        W77782   4.801   1.381   4.074
 5358W        W77783   7.100  14.317   2.846
 5359W        W77784   7.429  30.701   2.716
 5360W        W77785  29.007  36.076   0.100
 5361W        W77786   2.696  37.293  14.221
 5362W        W77787  20.828  28.390   0.043
 5363W        W77788   1.773  33.617   1.886
 5364W        W77789  25.775  27.874  14.725
 5365W        W77790  19.714   7.547  12.022
 5366W        W77791   5.023  37.407   1.294
 5367W        W77792  41.821  19.789  11.477
 5368W        W77793  37.611  22.322  10.992
 5369W        W77794  32.158  44.854  13.333
 5370W        W77795  44.778  20.614  11.579
 5371W        W77796   7.644  21.557   0.526
 5372W        W77797  22.187  16.777   0.801
 5373W        W77798  38.293  23.571   1.971
 5374W        W77799  42.335  21.456  11.795
 5375W        W77800  33.894  38.951  13.087
 5376W        W77801   5.930  32.203  13.453
 5377W        W77802   5.346  26.390  13.545
 5378W        W77803   3.909   7.276  14.714
 5379W        W77804   1.954  23.138  14.354
 5380W        W77805  10.345  28.926   3.642
 5381W        W77806  12.845  23.110  14.463
 5382W        W77807  26.333  40.122  13.404
 5383W        W77808  37.743  36.530   1.830
 5384W        W77809  16.627  26.600   4.635
 5385W        W77810   1.427  27.106   0.028
 5386W        W77811   3.166  38.853  10.732
 5387W        W77812   5.979  18.419  12.367
 5388W        W77813   1.909  37.080  14.884
 5389W        W77814  20.589  11.855   4.582
 5390W        W77815  42.189  19.283  11.930
 5391W        W77816  24.788  32.361  11.137
 5392W        W77817  10.848   4.202  13.823
 5393W        W77818   7.980  36.372   4.125
 5394W        W77819   7.390  25.184   2.087
 5395W        W77820  43.918  10.696   4.585
 5396W        W77821   3.922  16.527   0.444
 5397W        W77822  15.825   8.676   2.204
 5398W        W77823   3.244   6.729   4.130
 5399W        W77824  38.581   8.445  12.696
 5400W        W77825  30.744  11.266   3.246
 5401W        W77826  17.904  41.093  13.828
 5402W        W77827  38.800  23.579   0.862
 5403W        W77828  12.607  41.622  11.179
 5404W        W77829  23.630  44.984   4.292
 5405W        W77830  22.651  16.754  12.166
 5406W        W77831  10.200  24.100   1.723
 5407W        W77832   0.190   2.439  13.855
 5408W        W77833  44.824  17.576  14.987
 5409W        W77834  33.410  25.147  11.172
 5410W        W77835  16.498  28.075   1.878
 5411W        W77836   7.793  29.043  11.264
 5412W        W77837  22.183  14.448  14.428
 5413W        W77838   5.538  15.759  12.448
 5414W        W77839   7.409  19.761   4.864
 5415W        W77840  25.068  34.962   1.450
 5416W        W77841  13.301   5.257  11.848
 5417W        W77842  28.499  23.235  12.328
 5418W        W77843  20.188  24.706  12.464
 5419W        W77844  10.223  39.597   4.593
 5420W        W77845  13.844   7.140   0.826
 5421W        W77846  24.793   2.836  11.023
 5422W        W77847  16.282  11.530   4.617
 5423W        W77848  23.320  42.360   3.888
 5424W        W77849   6.636   0.754   2.602
 5425W        W77850  28.200  36.952  14.428
 5426W        W77851  11.381  28.425   1.136
 5427W        W77852  24.294  40.836   0.978
 5428W        W77853   8.608  41.022   2.827
 5429W        W77854  12.546  13.300   4.596
 5430W        W77855  15.201  37.902  13.255
 5431W        W77856  40.109   2.246  11.995
 5432W        W77857  22.788  16.231   2.597
 5433W        W77858   5.996  21.425  11.251
 5434W        W77859  35.597  14.702   4.915
 5435W        W77860  21.104  17.307  12.022
 5436W        W77861  19.288  30.952  14.796
 5437W        W77862  25.214  18.986   3.262
 5438W        W77863  18.444  17.619  13.514
 5439W        W77864   0.967   5.113  12.750
 5440W        W77865  44.266  13.264  14.780
 5441W        W77866  42.530  10.269   0.731
 5442W        W77867  16.833  27.079   2.198
 5443W        W77868  13.942  40.040  12.695
 5444W        W77869  41.879  35.070   1.250
 5445W        W77870   0.784  25.130   0.742
 5446W        W77871  16.863  38.791   4.313
 5447W        W77872  42.078  20.633  12.517
 5448W        W77873   9.921  41.814   2.745
 5449W        W77874   3.925  29.167  11.955
 5450W        W77875  15.316   4.186  10.717
 5451W        W77876   6.834  14.388  13.384
 5452W        W77877  38.861  30.953   2.363
 5453W        W77878  17.648  25.446  14.869
 5454W        W77879   2.207  29.743   3.154
 5455W        W77880  12.103  15.299   0.644
 5456W        W77881   9.031  40.851  12.040
 5457W        W77882  44.980  44.731   3.742
 5458W        W77883  36.165  30.669  11.118
 5459W        W77884  16.304  40.756   4.634
 5460W        W77885   4.850  24.936   0.365
 5461W        W77886  34.530  42.318   4.806
 5462W        W77887  26.408   6.921   1.810
 5463W        W77888  15.769  15.067  13.364
 5464W        W77889  18.660  42.455   0.852
 5465W        W77890   4.902  22.275  11.491
 5466W        W77891  11.382  29.190  11.012
 5467W        W77892  17.735  12.821   0.903
 5468W        W77893  25.009   9.751   9.818
 5469W        W77894  18.891  17.799   2.824
 5470W        W77895  44.850   5.944   1.444
 5471W        W77896  24.638  31.038   3.640
 5472W        W77897  36.091  20.679   0.962
 5473W        W77898   5.999  16.433  13.845
 5474W        W77899  14.207   5.589  12.615
 5475W        W77900   7.710  33.855   2.445
 5476W        W77901   7.971  27.126   1.461
 5477W        W77902  31.030   1.022   2.687
 5478W        W77903   1.998  29.988  11.475
 5479W        W77904  43.862  15.186  14.886
 5480W        W77905   4.231  19.183   2.220
 5481W        W77906  43.742  14.913  11.297
 5482W        W77907  16.151  41.194   3.902
 5483W        W77908  32.535  19.095  11.998
 5484W        W77909  15.347  19.373   1.845
 5485W        W77910   6.798  17.009   0.201
 5486W        W77911  32.103  17.584  14.374
 5487W        W77912  39.360  12.843  12.079
 5488W        W77913   5.252  34.663  14.418
 5489W        W77914   4.994  18.074   0.743
 5490W        W77915  16.634  22.676  12.058
 5491W        W77916  24.206  29.014   4.534
 5492W        W77917  26.695   5.307   1.804
 5493W        W77918   9.836  22.641  11.968
 5494W        W77919  18.270  20.499  13.402
 5495W        W77920  14.016  13.546  12.099
 5496W        W77921  43.921   3.655   2.644
 5497W        W77922  22.798  44.481   4.149
 5498W        W77923  27.485  21.124   3.197
 5499W        W77924  27.163  34.055   1.610
 5500W        W77925  35.960  20.318   2.352
 5501W        W77926  34.951  31.342   3.702
 5502W        W77927  21.508   1.939   1.358
 5503W        W77928   4.913  31.079  14.911
 5504W        W77929  41.650  14.968  13.788
 5505W        W77930  41.697  30.642   0.662
 5506W        W77931   4.734  23.832   3.098
 5507W        W77932  37.272   6.196  10.687
 5508W        W77933  15.887  37.563  13.488
 5509W        W77934   7.661  37.322   1.802
 5510W        W77935  37.069  44.085   4.852
 5511W        W77936  40.853  39.237  10.719
 5512W        W77937  20.561  36.320  13.961
 5513W        W77938   8.327  18.735  14.598
 5514W        W77939  39.142  33.939  11.657
 5515W        W77940   8.932  28.482  12.531
 5516W        W77941  32.960  28.920   0.391
 5517W        W77942  28.003   1.210   2.889
 5518W        W77943  14.569  16.778  12.657
 5519W        W77944  15.631   6.808   1.643
 5520W        W77945  24.035   4.186   3.791
 5521W        W77946  26.163  42.542   3.360
 5522W        W77947  20.264   5.391  14.894
 5523W        W77948  37.888  20.231   0.974
 5524W        W77949   0.761  37.024   9.967
 5525W        W77950  12.623   9.843   4.167
 5526W        W77951  13.168  18.234  11.648
 5527W        W77952  39.784  24.506   3.589
 5528W        W77953  10.232  31.078   4.813
 5529W        W77954  39.863  39.623  11.417
 5530W        W77955  25.548  24.880   2.182
 5531W        W77956  25.087  16.910  12.939
 5532W        W77957  44.815   6.044   0.465
 5533W        W77958   4.178  27.237   3.082
 5534W        W77959   4.417  18.430   5.249
 5535W        W77960  39.793  27.691   4.161
 5536W        W77961   3.864  25.533  13.087
 5537W        W77962  35.838  44.931   2.176
 5538W        W77963   2.196   5.516  13.714
 5539W        W77964   7.245  12.546   4.243
 5540W        W77965  25.589  31.870   3.421
 5541W        W77966  34.486  10.688   5.085
 5542W        W77967  31.555  27.430   1.287
 5543W        W77968  42.072  10.915  11.609
 5544W        W77969  44.774  18.704  12.479
 5545W        W77970  33.917   2.717   3.621
 5546W        W77971  43.048  33.097   4.548
 5547W        W77972  21.498  21.594   3.696
 5548W        W77973  28.597  43.512   0.480
 5549W        W77974  15.323   3.508  12.597
 5550W        W77975  27.532  35.293  10.739
 5551W        W77976  39.631   2.411   1.145
 5552W        W77977  12.736   8.083  12.965
 5553W        W77978   8.689   5.313  12.871
 5554W        W77979   5.839  18.096  10.456
 5555W        W77980  27.024   0.007   2.309
 5556W        W77981  13.283  24.697  13.873
 5557W        W77982  21.751  37.481  12.967
 5558W        W77983   0.962  29.639   0.690
 5559W        W77984  31.408  44.302   0.333
 5560W        W77985  22.449  24.655   1.903
 5561W        W77986  10.596   6.705  13.313
 5562W        W77987   1.141   3.811   2.247
 5563W        W77988   2.871  18.507  11.552
 5564W        W77989   8.307  12.299   3.629
 5565W        W77990  18.037   2.703  10.189
 5566W        W77991  14.877  36.386   2.548
 5567W        W77992  20.008  17.800   0.302
 5568W        W77993  38.309  30.240   0.008
 5569W        W77994  29.189  42.771   0.875
 5570W        W77995  41.861   8.017   3.071
 5571W        W77996  19.042  44.523  11.684
 5572W        W77997   6.112   5.938   3.301
 5573W        W77998  42.626  16.501  14.808
 5574W        W77999  31.054  22.703   0.390
 5575W        W78000  30.630   4.077  13.799
 5576W        W78001  13.154  41.918  13.123
 5577W        W78002  40.456  12.399  14.490
 5578W        W78003  16.120  31.137   0.789
 5579W        W78004   0.254  18.297   3.223
 5580W        W78005  20.650  14.873  11.026
 5581W        W78006  30.963   9.916   3.316
 5582W        W78007  20.843  11.262  10.437
 5583W        W78008  31.548  21.675  10.720
 5584W        W78009   2.074  13.360   1.982
 5585W        W78010  28.611  24.040  10.783
 5586W        W78011  29.563   4.649   1.673
 5587W        W78012  10.873  16.212   3.169
 5588W        W78013   8.176   7.339   0.281
 5589W        W78014  13.659  40.351  13.908
 5590W        W78015  12.102  44.754   3.786
 5591W        W78016   1.989  10.662   3.160
 5592W        W78017  19.131  37.316   1.752
 5593W        W78018  23.640  37.091  13.430
 5594W        W78019   0.865  22.550   0.213
 5595W        W78020  38.398  22.078  10.583
 5596W        W78021  36.406  29.915   1.446
 5597W        W78022  19.285   1.494   1.934
 5598W        W78023   7.778  28.714   1.948
 5599W        W78024  39.616  40.866   4.937
 5600W        W78025   9.953  36.878   5.442
 5601W        W78026  28.490  35.878   4.217
 5602W        W78027  16.116  16.218  11.190
 5603W        W78028  27.203  24.576  11.719
 5604W        W78029  21.475  10.777   1.692
 5605W        W78030  39.184   1.865  12.235
 5606W        W78031  19.558  19.416   1.188
 5607W        W78032   5.162  29.048  11.254
 5608W        W78033  22.717   2.204   1.698
 5609W        W78034  36.938  22.479   3.806
 5610W        W78035  41.894  34.786  12.104
 5611W        W78036  33.643  34.443  13.549
 5612W        W78037   0.090  25.785  13.992
 5613W        W78038  32.977  27.616  14.781
 5614W        W78039  19.064  40.475  14.960
 5615W        W78040  13.342  42.948   3.063
 5616W        W78041  31.521  18.018  12.085
 5617W        W78042  25.077  31.132   1.345
 5618W        W78043  27.928  19.717   3.323
 5619W        W78044  32.373  34.965   2.712
 5620W        W78045  34.568  20.568  14.850
 5621W        W78046  24.300  33.612  10.638
 5622W        W78047  25.501  15.572  13.110
 5623W        W78048  37.088   1.357  11.553
 5624W        W78049   9.111   8.075  10.786
 5625W        W78050   1.896  41.808   2.358
 5626W        W78051  23.871  22.707  10.647
 5627W        W78052   3.265   2.917  11.942
 5628W        W78053  44.684  44.460   4.137
 5629W        W78054  21.959  42.912  14.393
 5630W        W78055  16.581  13.820   1.077
 5631W        W78056  29.873  17.725   5.109
 5632W        W78057  40.545  34.046   4.828
 5633W        W78058  10.214   8.779   2.399
 5634W        W78059  35.699  28.648   4.587
 5635W        W78060  13.754  34.337   0.998
 5636W        W78061  22.917  36.964   4.468
 5637W        W78062  34.299  29.666   0.845
 5638W        W78063  33.064  37.508   0.274
 5639W        W78064   4.922   1.235   2.075
 5640W        W78065  37.360  29.886  13.822
 5641W        W78066  11.109  25.730   3.297
 5642W        W78067  36.810   1.449   2.251
 5643W        W78068  23.094  35.166   2.769
 5644W        W78069  19.035  20.484   2.278
 5645W        W78070  15.267  17.458   2.237
 5646W        W78071  22.254  19.659  10.417
 5647W        W78072  35.447   6.744   1.479
 5648W        W78073  23.668  20.688  12.817
 5649W        W78074  43.091  27.513  12.456
 5650W        W78075  21.674   7.851  11.110
 5651W        W78076   6.375   6.830  14.418
 5652W        W78077   3.797  12.008   2.294
 5653W        W78078  35.442  33.610  11.980
 5654W        W78079  34.638  30.969  11.564
 5655W        W78080  32.601   7.036   2.613
 5656W        W78081  30.848  43.460   1.402
 5657W        W78082  18.133  17.563  14.942
 5658W        W78083   1.162  25.118   4.698
 5659W        W78084  16.748  40.027   0.768
 5660W        W78085  18.488  19.669   2.369
 5661W        W78086  36.089  40.250  14.471
 5662W        W78087  30.139  32.101   4.171
 5663W        W78088   2.438  27.986   3.723
 5664W        W78089  17.183  35.394  11.842
 5665W        W78090  36.569  20.703   2.923
 5666W        W78091  30.829   2.537   1.115
 5667W        W78092  22.767  32.773  10.730
 5668W        W78093  30.659  20.758  13.950
 5669W        W78094  16.008   6.851  10.794
 5670W        W78095  28.676  23.693   2.871
 5671W        W78096   6.440  14.432   2.350
 5672W        W78097   7.022  30.999  12.994
 5673W        W78098  43.252  30.136   3.401
 5674W        W78099  41.354  21.579   1.495
 5675W        W78100  12.316  21.474  14.788
 5676W        W78101  20.493  40.840  11.186
 5677W        W78102  38.821  31.270  10.808
 5678W        W78103  10.269  12.117  12.010
 5679W        W78104   3.520  31.573   3.369
 5680W        W78105  32.924   3.785   0.970
 5681W        W78106  38.916  32.579  11.361
 5682W        W78107  36.942  32.364  12.840
 5683W        W78108  25.067   9.427   0.970
 5684W        W78109  16.552  16.572  11.124
 5685W        W78110  28.558   6.181  10.541
 5686W        W78111  31.895  33.364   2.641
 5687W        W78112  26.485   0.785   2.472
 5688W        W78113  24.721  44.343   1.371
 5689W        W78114  15.140  27.926   1.849
 5690W        W78115   3.445  27.626   1.132
 5691W        W78116  43.484  38.462  12.029
 5692W        W78117  15.305   5.097  11.998
 5693W        W78118  12.303  44.417   2.588
 5694W        W78119  41.944  31.983   1.732
 5695W        W78120  35.103  14.791   3.589
 5696W        W78121  24.441  29.902   4.302
 5697W        W78122  34.905  25.076  14.461
 5698W        W78123  11.176  31.002   2.748
 5699W        W78124   5.190   4.417   3.258
 5700W        W78125  23.460  39.500  11.129
 5701W        W78126  26.700   5.941  14.978
 5702W        W78127  43.482   1.459   4.401
 5703W        W78128   6.831  18.426   1.176
 5704W        W78129  22.017   2.239   4.951
 5705W        W78130  28.113  35.350  14.818
 5706W        W78131  26.375  11.713   4.617
 5707W        W78132   4.784   3.709   3.682
 5708W        W78133   1.907   6.774  14.454
 5709W        W78134  33.004  16.816   4.670
 5710W        W78135  12.718   0.382   2.321
 5711W        W78136  28.184   4.453   4.699
 5712W        W78137  20.258   6.339  12.433
 5713W        W78138  22.379  16.425  12.951
 5714W        W78139  38.322  30.769  12.468
 5715W        W78140  11.975  31.086  11.952
 5716W        W78141  26.136  40.489   2.239
 5717W        W78142   3.759  27.616   4.718
 5718W        W78143  34.083  26.031   4.380
 5719W        W78144  17.287  41.554  14.299
 5720W        W78145   9.778   3.148   0.329
 5721W        W78146  42.265   5.411   3.403
 5722W        W78147  35.351  34.583   2.233
 5723W        W78148   9.288  32.381   3.951
 5724W        W78149  19.120  31.903   0.859
 5725W        W78150   2.908  14.116  11.951
 5726W        W78151   4.477  26.544  13.068
 5727W        W78152   7.220   6.484   0.808
 5728W        W78153  36.093  43.468  10.557
 5729W        W78154  39.994  35.977   1.731
 5730W        W78155  21.142  15.041  10.742
 5731W        W78156  22.752  12.295   2.221
 5732W        W78157  16.295  39.376  11.658
 5733W        W78158  15.816  40.222  14.300
 5734W        W78159  19.613  39.408  13.453
 5735W        W78160  44.974  17.197  10.375
 5736W        W78161  22.274  26.151   1.924
 5737W        W78162   5.332  19.686   2.387
 5738W        W78163  29.605  44.322  13.934
 5739W        W78164  43.617  25.921  11.953
 5740W        W78165  16.141  11.055   4.771
 5741W        W78166  17.283  43.382   0.212
 5742W        W78167   3.875  25.729   1.646
 5743W        W78168  15.853  15.177  11.042
 5744W        W78169  19.008  18.038   3.665
 5745W        W78170  36.053  29.681  12.990
 5746W        W78171  24.583  17.212   3.587
 5747W        W78172  38.084  20.821  14.289
 5748W        W78173  31.980  20.336   1.009
 5749W        W78174  39.469  34.672  14.424
 5750W        W78175  41.444  43.556   5.116
 5751W        W78176  22.142  39.382  14.252
 5752W        W78177  25.327  13.232   0.693
 5753W        W78178   8.448   8.148   0.721
 5754W        W78179  43.259  25.599  13.389
 5755W        W78180   1.499   3.818  14.138
 5756W        W78181   5.754  41.508  10.485
 5757W        W78182   5.667  16.600  13.430
 5758W        W78183  35.028   4.002   1.277
 5759W        W78184  37.998  30.883   1.786
 5760W        W78185  17.800   0.964   2.708
 5761W        W78186  30.614  33.287   2.326
 5762W        W78187  22.326   6.717   4.573
 5763W        W78188   8.898  40.374  12.220
 5764W        W78189  16.858  35.117  13.544
 5765W        W78190  39.317  33.900  14.937
 5766W        W78191  27.676  40.240   3.197
 5767W        W78192  20.040  40.290  11.597
 5768W        W78193   5.848  10.768  12.918
 5769W        W78194  28.585   2.395  13.935
 5770W        W78195  22.113  27.231  14.276
 5771W        W78196  23.546  19.184  14.599
 5772W        W78197  11.319  21.534  14.878
 5773W        W78198  11.772   3.935   2.410
 5774W        W78199  28.098  44.444   3.754
 5775W        W78200  18.273  31.575   0.732
 5776W        W78201  18.475   2.868   4.823
 5777W        W78202  20.115  33.436  13.953
 5778W        W78203  25.033  24.472  14.746
 5779W        W78204  36.439  14.400  12.475
 5780W        W78205  38.001  23.918   2.799
 5781W        W78206  28.841  18.785   3.250
 5782W        W78207  40.988  13.721   4.595
 5783W        W78208  42.521   0.954   1.284
 5784W        W78209  44.308  25.736  12.613
 5785W        W78210   3.877  21.278   2.949
 5786W        W78211  37.973  43.201   2.183
 5787W        W78212  22.779  40.585  14.172
 5788W        W78213  11.982   6.243   2.687
 5789W        W78214  24.524   1.548   0.924
 5790W        W78215  38.375  16.781  14.433
 5791W        W78216  42.792  13.740  14.117
 5792W        W78217  42.773  22.579  12.435
 5793W        W78218  18.319   2.130  11.374
 5794W        W78219  23.517  10.009  12.792
 5795W        W78220  19.169  44.563  12.598
 5796W        W78221  29.290  41.314  13.317
 5797W        W78222  25.114  19.500   3.208
 5798W        W78223   8.856  13.112  12.304
 5799W        W78224  25.194  26.908  12.081
 5800W        W78225  24.329  21.423  13.069
 5801W        W78226  26.499  19.573   4.955
 5802W        W78227   1.754  30.828   4.740
 5803W        W78228   3.910  32.808   4.233
 5804W        W78229  23.187  17.971  14.505
 5805W        W78230  38.069  37.139  10.702
 5806W        W78231  13.904  41.997   4.657
 5807W        W78232  13.354  25.943  10.754
 5808W        W78233  41.539  15.376  12.909
 5809W        W78234  40.966  35.688  11.459
 5810W        W78235  24.434  43.539  14.272
 5811W        W78236  35.567  31.851   3.289
 5812W        W78237   2.016  21.896  13.957
 5813W        W78238  37.898  18.038  11.614
 5814W        W78239  28.424   9.753   2.773
 5815W        W78240  18.308  23.811  14.424
 5816W        W78241  38.298   0.724  12.650
 5817W        W78242  21.757  39.550  12.372
 5818W        W78243  31.460   4.386  12.390
 5819W        W78244  32.096  44.733  11.064
 5820W        W78245  25.828  33.639   3.661
 5821W        W78246  37.175  30.888   0.340
 5822W        W78247  20.805   4.505  11.948
 5823W        W78248  33.374  31.997   3.316
 5824W        W78249  44.487   7.284   0.881
 5825W        W78250  14.368  38.135  11.175
 5826W        W78251  38.926  36.339  14.444
 5827W        W78252  29.484  12.389   0.444
 5828W        W78253  44.333  31.926   0.357
 5829W        W78254  20.572  28.437  14.570
 5830W        W78255  11.378   2.209   2.729
 5831W        W78256   1.707   4.013   0.145
 5832W        W78257  38.744   2.761  11.382
 5833W        W78258  29.577  16.829  14.039
 5834W        W78259  25.743   1.159  11.604
 5835W        W78260  43.939  29.501   3.444
 5836W        W78261  12.616  35.602   0.917
 5837W        W78262   7.281  37.864  14.872
 5838W        W78263  32.362  13.470  14.935
 5839W        W78264   3.419  16.146  12.514
 5840W        W78265  22.265  36.750  11.071
 5841W        W78266  10.352  12.525  12.886
 5842W        W78267  15.980  28.846  11.517
 5843W        W78268  36.228  17.153  12.965
 5844W        W78269   7.326  22.106  10.501
 5845W        W78270  34.393  27.377   2.977
 5846W        W78271  29.439  26.613   5.117
 5847W        W78272  17.463   6.755  13.505
 5848W        W78273  18.351   7.790  11.169
 5849W        W78274  18.737   9.390  13.448
 5850W        W78275   8.364  43.714  12.468
 5851W        W78276  36.372   3.567  11.613
 5852W        W78277  30.842  20.980   0.765
 5853W        W78278  17.257  29.079   2.381
 5854W        W78279   9.697  17.760   1.449
 5855W        W78280  40.988  35.767  12.221
 5856W        W78281  11.321  28.927  10.579
 5857W        W78282   7.428  25.308   1.591
 5858W        W78283  15.218  28.067  13.325
 5859W        W78284   3.607  20.179   0.406
 5860W        W78285  26.877  40.104   2.832
 5861W        W78286  22.310  32.905  11.967
 5862W        W78287  32.073  35.119   3.245
 5863W        W78288  44.335  44.618  14.401
 5864W        W78289  33.047   2.360  12.170
 5865W        W78290  23.195   6.534  13.584
 5866W        W78291  35.634  30.651   1.243
 5867W        W78292  43.834   3.041   4.257
 5868W        W78293  15.725  30.485   0.060
 5869W        W78294  34.303  41.963  14.808
 5870W        W78295   3.827   1.253  14.027
 5871W        W78296  28.108  23.152   1.298
 5872W        W78297   9.560  13.767   0.741
 5873W        W78298   4.934  22.480  13.412
 5874W        W78299  41.316  33.094  12.132
 5875W        W78300   1.899   5.034  13.405
 5876W        W78301   9.578  15.163  13.064
 5877W        W78302  17.683  14.305  13.947
 5878W        W78303   0.853  25.763   3.655
 5879W        W78304  43.421  24.988   1.852
 5880W        W78305   8.104  35.372   0.318
 5881W        W78306   0.339  38.598  10.731
 5882W        W78307  28.874  25.704  10.851
 5883W        W78308  29.889   6.883   2.650
 5884W        W78309  23.184   8.794   9.665
 5885W        W78310  44.379  31.450   3.902
 5886W        W78311  15.671  36.446   4.742
 5887W        W78312   9.291  22.160   1.725
 5888W        W78313  11.670  14.623   3.319
 5889W        W78314   3.465   4.137  13.132
 5890W        W78315   7.861  33.352   3.729
 5891W        W78316   9.621  43.419   4.247
 5892W        W78317  15.199  27.573   2.802
 5893W        W78318  44.218   6.617   1.696
 5894W        W78319  28.600  22.562   1.712
 5895W        W78320  25.551  27.368  12.906
 5896W        W78321  11.040  35.544   3.782
 5897W        W78322  16.838  30.161  11.556
 5898W        W78323  19.976   7.718   0.930
 5899W        W78324  27.182  34.469   0.824
 5900W        W78325  16.505  18.090  14.035
 5901W        W78326   8.564  17.599   4.135
 5902W        W78327   7.890  12.234   2.794
 5903W        W78328  23.835  15.813   0.016
 5904W        W78329  13.185  35.097   1.579
 5905W        W78330  21.169   7.935  13.646
 5906W        W78331  39.099   4.751  10.749
 5907W        W78332  32.254  23.465   3.647
 5908W        W78333  14.702  37.605  13.435
 5909W        W78334  31.610   9.698   3.846
 5910W        W78335  44.275  32.416   4.046
 5911W        W78336  31.393  30.251  13.809
 5912W        W78337  41.997  26.004  14.864
 5913W        W78338  31.115  10.654   1.308
 5914W        W78339  33.565  34.900   0.116
 5915W        W78340  42.154  37.635   0.997
 5916W        W78341  25.780   5.616   2.741
 5917W        W78342  40.341  18.326   3.138
 5918W        W78343  33.134   8.901   2.201
 5919W        W78344  35.943   2.202   0.801
 5920W        W78345  20.302  14.585   1.689
 5921W        W78346  37.126  11.210  11.115
 5922W        W78347  27.661   9.953   2.157
 5923W        W78348   2.859  32.421   2.412
 5924W        W78349  39.728  36.425  10.748
 5925W        W78350  44.597   0.572  14.754
 5926W        W78351   1.598  17.195   4.170
 5927W        W78352   8.670   9.930  11.625
 5928W        W78353  38.409  42.860   4.564
 5929W        W78354  26.358  40.926  12.374
 5930W        W78355   3.376   4.058   3.671
 5931W        W78356  26.042  32.653  12.296
 5932W        W78357  24.186  39.026  11.171
 5933W        W78358  37.103  36.585  11.612
 5934W        W78359  16.621  14.645  12.152
 5935W        W78360  34.190  42.908   0.833
 5936W        W78361  33.491  17.120   1.923
 5937W        W78362  41.082   3.968   0.225
 5938W        W78363  40.414  20.166  13.390
 5939W        W78364   1.548  38.701   3.219
 5940W        W78365   1.919  10.704  10.803
 5941W        W78366   9.751   7.404   3.573
 5942W        W78367  17.131  44.722  11.021
 5943W        W78368   9.203   9.384   5.085
 5944W        W78369   9.825  20.766   2.253
 5945W        W78370   3.282  21.578   0.304
 5946W        W78371  16.336  13.660  14.887
 5947W        W78372  42.862   4.743  12.851
 5948W        W78373  25.517   2.873   1.724
 5949W        W78374  11.302  30.088   0.835
 5950W        W78375   7.822  17.394  12.479
 5951W        W78376  28.770  21.843   1.213
 5952W        W78377  34.596  35.530   2.743
 5953W        W78378   5.763   5.788   3.699
 5954W        W78379  26.471  44.281  14.869
 5955W        W78380  40.257  24.438   1.041
 5956W        W78381  31.572  37.441   4.077
 5957W        W78382  25.031   5.376  14.315
 5958W        W78383  22.719  10.965   2.256
 5959W        W78384  12.340  15.147   3.138
 5960W        W78385  13.083   7.105  12.653
 5961W        W78386  26.797   5.601  13.390
 5962W        W78387  23.686  44.686   2.850
 5963W        W78388  22.513   8.411  13.446
 5964W        W78389  44.932  16.171  12.487
 5965W        W78390  16.769  24.395   1.962
 5966W        W78391  42.778  24.243   4.179
 5967W        W78392   5.703  29.679  12.535
 5968W        W78393   5.470  29.627  13.855
 5969W        W78394  34.006   2.670  13.503
 5970W        W78395  17.011  36.035  10.305
 5971W        W78396  13.807  31.772  10.597
 5972W        W78397   5.648  11.569   0.502
 5973W        W78398  43.867  10.764  12.381
 5974W        W78399  30.160   8.388   0.255
 5975W        W78400  39.840  36.090   0.449
 5976W        W78401  12.026  38.193  12.855
 5977W        W78402   8.761  24.051  13.286
 5978W        W78403  17.983  14.250  14.826
 5979W        W78404  11.886  27.761  12.874
 5980W        W78405  31.158  21.652   1.772
 5981W        W78406  42.787  22.718   0.350
 5982W        W78407  35.053   2.515  14.867
 5983W        W78408  43.134   5.541  11.137
 5984W        W78409  19.829  17.594  11.653
 5985W        W78410  43.519   1.082   4.041
 5986W        W78411   8.768  25.858   3.783
 5987W        W78412   2.866  13.630  10.782
 5988W        W78413  39.267  12.017   2.796
 5989W        W78414  13.065   5.207   3.279
 5990W        W78415  10.715  11.253  14.231
 5991W        W78416  27.532  43.502   2.754
 5992W        W78417  36.419  36.613   1.509
 5993W        W78418  15.292   1.846   2.949
 5994W        W78419  32.070  25.567  13.937
 5995W        W78420  40.526  21.854   3.764
 5996W        W78421  10.515  35.477   4.664
 5997W        W78422  12.087  42.949  10.765
 5998W        W78423   6.693  23.756   0.520
 5999W        W78424   3.510  43.368   1.833
 6000W        W78425  37.340  38.574   3.252
 6001W        W78426  20.287   4.402  12.971
 6002W        W78427  18.077  29.054   3.599
 6003W        W78428   7.239  13.998   3.725
 6004W        W78429  29.773  27.925   3.514
 6005W        W78430  43.559  21.149  11.882
 6006W        W78431  20.854  32.196   2.175
 6007W        W78432   2.752  25.989  11.441
 6008W        W78433  30.007  24.650   1.273
 6009W        W78434  22.579  30.024  13.310
 6010W        W78435  15.746  14.584  14.483
 6011W        W78436  40.935  27.726  12.324
 6012W        W78437   7.990  10.731   2.618
 6013W        W78438  21.517   6.925   3.142
 6014W        W78439  32.031  31.587   1.855
 6015W        W78440  37.511   2.886  12.627
 6016W        W78441  40.658  32.240  12.472
 6017W        W78442   8.807  40.202   2.183
 6018W        W78443   9.465   5.333   2.678
 6019W        W78444  10.407  39.829   4.124
 6020W        W78445  41.492   5.289  13.334
 6021W        W78446  28.152  29.527  12.967
 6022W        W78447  12.923  18.338   0.391
 6023W        W78448  15.233  34.559   4.278
 6024W        W78449   3.186   3.657   2.234
 6025W        W78450  22.153   1.219   1.308
 6026W        W78451  13.699   6.443   1.294
 6027W        W78452  21.106  40.041   2.266
 6028W        W78453   5.929  30.733   0.667
 6029W        W78454  32.020  12.841  12.859
 6030W        W78455  39.539  25.142  14.543
 6031W        W78456  23.661  12.172  12.821
 6032W        W78457  24.151  20.543  11.980
 6033W        W78458  36.570   2.838   4.306
 6034W        W78459  22.599   8.414  10.149
 6035W        W78460  27.297  26.103   2.679
 6036W        W78461   3.722   3.190   1.436
 6037W        W78462  36.386  25.250   3.757
 6038W        W78463  42.980  25.645   2.698
 6039W        W78464  29.954  22.996   1.740
 6040W        W78465  36.596   8.138  14.399
 6041W        W78466  32.079   0.513   3.252
 6042W        W78467   3.102  38.383  12.366
 6043W        W78468  19.662   8.118   0.818
 6044W        W78469  13.211  26.182  14.516
 6045W        W78470  19.688  40.524   5.091
 6046W        W78471   4.313  36.754   1.290
 6047W        W78472   2.125   4.495  11.009
 6048W        W78473   8.929  33.585  12.929
 6049W        W78474  23.085   2.375  12.106
 6050W        W78475  33.302   0.546  13.475
 6051W        W78476   5.499  37.548  10.544
 6052W        W78477   3.749   9.239  12.982
 6053W        W78478  32.823  40.637  11.073
 6054W        W78479  40.065  28.962  11.557
 6055W        W78480  28.263  15.498  12.663
 6056W        W78481   3.297  30.983  10.552
 6057W        W78482  23.986  11.347   0.465
 6058W        W78483  28.388  44.028  13.778
 6059W        W78484  32.569   7.768  14.483
 6060W        W78485  16.525  42.232   3.017
 6061W        W78486  25.152  18.744   3.720
 6062W        W78487  26.721  13.249   1.346
 6063W        W78488  35.656  12.908   2.665
 6064W        W78489   2.873  20.233   3.890
 6065W        W78490  37.627  38.076  13.121
 6066W        W78491  24.994  22.738  11.914
 6067W        W78492  34.866  28.990  14.326
 6068W        W78493  31.656   1.874   1.830
 6069W        W78494  31.087   9.166  11.945
 6070W        W78495   3.790  18.316   1.330
 6071W        W78496  33.500  42.895   1.241
 6072W        W78497  24.262  27.462   4.440
 6073W        W78498  44.274   4.375   2.977
 6074W        W78499  44.036  32.389   3.568
 6075W        W78500   8.945  40.309   4.087
 6076W        W78501  39.323  20.747   2.216
 6077W        W78502   3.953  42.588  14.862
 6078W        W78503  41.740  42.608  10.441
 6079W        W78504  39.557  22.049  13.456
 6080W        W78505  41.930  10.333  14.331
 6081W        W78506   0.991   6.882  10.841
 6082W        W78507  44.444   9.771  14.562
 6083W        W78508  22.310  18.582   4.557
 6084W        W78509  14.701  11.681  14.519
 6085W        W78510  43.802   9.635   2.701
 6086W        W78511  32.569   4.245   4.502
 6087W        W78512  14.432  26.931  13.077
 6088W        W78513   9.299   7.929  13.889
 6089W        W78514  19.747  20.819  14.446
 6090W        W78515  24.452  29.929   4.825
 6091W        W78516  38.616  19.736   3.336
 6092W        W78517  22.979   4.562  11.510
 6093W        W78518  22.059  12.450  13.946
 6094W        W78519  25.212  15.634  11.674
 6095W        W78520   6.287  17.580  14.933
 6096W        W78521  36.879  12.689   4.243
 6097W        W78522  40.299  21.565   1.953
 6098W        W78523  24.957   1.423  13.963
 6099W        W78524  14.040   5.487  13.773
 6100W        W78525   7.168  41.204   2.256
 6101W        W78526  15.881   1.458   1.864
 6102W        W78527  42.810  29.401  13.588
 6103W        W78528   9.119   3.686  14.206
 6104W        W78529  22.793  42.301  14.498
 6105W        W78530  41.634  35.314  14.093
 6106W        W78531   1.828  12.735   2.422
 6107W        W78532   1.970  34.606   1.819
 6108W        W78533  43.146  10.091  14.891
 6109W        W78534  41.457   9.398   0.514
 6110W        W78535  14.795   8.517   1.765
 6111W        W78536  32.668   5.400   0.447
 6112W        W78537   0.436  15.633  10.292
 6113W        W78538  20.653  21.327   1.225
 6114W        W78539  33.110  41.339  14.690
 6115W        W78540  19.109  34.991  12.864
 6116W        W78541   9.828  28.127  11.142
 6117W        W78542  43.779   1.874   2.383
 6118W        W78543   9.966  17.026  13.443
 6119W        W78544  22.584   9.690  11.939
 6120W        W78545  33.631  36.887  11.533
 6121W        W78546   3.855  31.539  10.728
 6122W        W78547   9.242  11.349   0.858
 6123W        W78548   0.686   9.331  14.966
 6124W        W78549  41.481  30.347  14.392
 6125W        W78550  15.635  11.306  11.384
 6126W        W78551  21.596  34.062  11.233
 6127W        W78552   8.794  11.632   0.940
 6128W        W78553  16.035   1.267  14.844
 6129W        W78554  31.871   8.244  10.579
 6130W        W78555   7.704  44.674   4.032
 6131W        W78556  13.783   4.160   4.124
 6132W        W78557   2.701  37.777  14.058
 6133W        W78558  32.492  17.089  11.623
 6134W        W78559  12.222  15.738  10.584
 6135W        W78560  22.783  38.337   4.023
 6136W        W78561  26.138  20.618  11.182
 6137W        W78562  35.059  37.981   1.558
 6138W        W78563  37.620  31.011  11.361
 6139W        W78564  37.460  27.457   1.204
 6140W        W78565  36.829  44.904   0.286
 6141W        W78566  25.255  36.034   3.233
 6142W        W78567  44.850   4.002  11.437
 6143W        W78568   1.972  28.753  12.486
 6144W        W78569   3.845  11.070  11.995
 6145W        W78570   6.359  34.760  10.308
 6146W        W78571   2.408  43.753   1.406
 6147W        W78572  40.752  26.522  14.877
 6148W        W78573  21.670  11.880  11.208
 6149W        W78574  14.649  40.913   2.451
 6150W        W78575  27.130  18.555  12.793
 6151W        W78576   6.817  23.528   3.187
 6152W        W78577  42.002  10.407  11.602
 6153W        W78578   1.986   0.445  10.627
 6154W        W78579  14.137  22.018   5.116
 6155W        W78580  41.550  15.264  14.785
 6156W        W78581   4.954  43.939  14.487
 6157W        W78582   9.444   1.914   0.733
 6158W        W78583  43.083  37.322  12.480
 6159W        W78584  30.249  34.046  11.959
 6160W        W78585  24.118  15.839   3.803
 6161W        W78586  24.065  32.051  13.924
 6162W        W78587   2.506   8.138  13.887
 6163W        W78588  28.721  25.580  13.091
 6164W        W78589  29.209   5.869   2.031
 6165W        W78590   4.754  32.171  11.181
 6166W        W78591  37.800  30.119   2.698
 6167W        W78592  34.700  42.859   2.685
 6168W        W78593  33.609  31.475   3.295
 6169W        W78594  13.703  36.918   0.739
 6170W        W78595  12.144  13.304  10.535
 6171W        W78596  44.910   4.468   0.520
 6172W        W78597  34.161   5.807  14.017
 6173W        W78598  41.245  13.315  13.347
 6174W        W78599  12.808  34.073   0.882
 6175W        W78600  22.183   3.332  12.317
 6176W        W78601  32.942  31.743  10.994
 6177W        W78602  16.700   6.388  12.414
 6178W        W78603  28.883  33.409  13.032
 6179W        W78604  17.758  21.624  12.937
 6180W        W78605  37.916  12.817  13.847
 6181W        W78606  27.810  18.278   3.436
 6182W        W78607  33.621  40.860  12.936
 6183W        W78608  31.917  20.742  11.204
 6184W        W78609  20.682  10.028   0.285
 6185W        W78610  43.251  36.294   1.416
 6186W        W78611  37.778  21.263  13.369
 6187W        W78612  24.131  44.462  12.961
 6188W        W78613   6.396  17.127  13.473
 6189W        W78614   6.668  27.770  14.985
 6190W        W78615  30.415  16.622   2.610
 6191W        W78616  28.176  36.219  12.019
 6192W        W78617  34.544  43.231  12.032
 6193W        W78618  40.533  44.193  12.099
 6194W        W78619  21.110   4.988  12.842
 6195W        W78620   1.174   2.747   2.711
 6196W        W78621  21.906  29.575   2.965
 6197W        W78622  36.371  35.989  12.011
 6198W        W78623  37.999  26.509   4.568
 6199W        W78624   7.585  24.026   4.579
 6200W        W78625  17.610  11.733   3.361
 6201W        W78626  17.286   9.967  11.155
 6202W        W78627  41.955  25.795   0.345
 6203W        W78628  13.816  25.700  10.683
 6204W        W78629   1.867  37.513  13.578
 6205W        W78630  12.711  29.019   3.642
 6206W        W78631  23.092  22.994  12.698
 6207W        W78632  38.329  43.475  11.006
 6208W        W78633  19.593  40.755   0.570
 6209W        W78634  34.107  22.305  11.742
 6210W        W78635   2.828  29.918  12.367
 6211W        W78636  42.787   6.243  12.198
 6212W        W78637  23.034  28.983   3.149
 6213W        W78638  43.531  22.937  11.436
 6214W        W78639  25.492  25.773   2.936
 6215W        W78640  15.596  44.856  14.821
 6216W        W78641  11.683  18.388   1.301
 6217W        W78642  18.450  22.539  11.201
 6218W        W78643  28.603   9.374   3.129
 6219W        W78644  34.532  38.170  13.902
 6220W        W78645  20.225  30.483   9.845
 6221W        W78646  36.491  22.471   1.961
 6222W        W78647  35.422  11.552   0.325
 6223W        W78648  36.115  44.013  12.240
 6224W        W78649   1.693   4.638  10.719
 6225W        W78650  34.575  34.188  12.377
 6226W        W78651  30.996   0.370  13.375
 6227W        W78652  14.158   5.118   4.938
 6228W        W78653  43.310   7.020  14.778
 6229W        W78654  35.034   5.446  12.457
 6230W        W78655  34.817  17.445  11.665
 6231W        W78656  41.789   3.948   2.720
 6232W        W78657   8.168  38.378   4.248
 6233W        W78658  31.481  32.895  11.602
 6234W        W78659   6.709  18.650  12.931
 6235W        W78660   7.672  32.168  13.094
 6236W        W78661  25.039  12.778  13.855
 6237W        W78662  12.104  17.531   0.399
 6238W        W78663  25.684  19.263   3.663
 6239W        W78664  22.780  29.023  10.402
 6240W        W78665  19.736  32.371   2.632
 6241W        W78666  40.968  11.748  12.310
 6242W        W78667   4.705  40.017  10.257
 6243W        W78668  34.469  10.398   3.322
 6244W        W78669   4.717   0.184  11.549
 6245W        W78670  41.885  44.849   2.275
 6246W        W78671  37.481  28.920   2.734
 6247W        W78672  27.189   7.161   1.457
 6248W        W78673  24.619  30.930   0.925
 6249W        W78674   3.840  30.227   2.039
 6250W        W78675  40.765  35.528  14.073
 6251W        W78676  14.820  43.990  13.387
 6252W        W78677   3.797  19.713  11.640
 6253W        W78678  11.174  44.171   0.432
 6254W        W78679  27.000  32.534   0.707
 6255W        W78680  27.106  43.381  13.652
 6256W        W78681   5.925  25.049   2.375
 6257W        W78682   5.902   9.896  12.375
 6258W        W78683  27.308  23.914   3.687
 6259W        W78684  25.334  41.415  10.604
 6260W        W78685  26.704  12.796  12.995
 6261W        W78686  38.936  11.867  13.028
 6262W        W78687  20.612   1.066  14.286
 6263W        W78688  23.162  31.669   3.750
 6264W        W78689  17.360  14.232   2.479
 6265W        W78690  24.428   2.955   3.248
 6266W        W78691  19.073   3.855  13.006
 6267W        W78692  20.007  18.102  10.850
 6268W        W78693  19.046  44.071   2.663
 6269W        W78694  36.427  24.884   9.768
 6270W        W78695  10.410  28.477   3.404
 6271W        W78696  19.319  19.146   3.984
 6272W        W78697  16.997   7.812  12.423
 6273W        W78698  16.116  26.650   3.519
 6274W        W78699   0.305   0.191   1.204
 6275W        W78700   7.852  43.936   3.254
 6276W        W78701  19.673   8.966   4.095
 6277W        W78702  16.641  20.514   0.731
 6278W        W78703  37.967  10.426  12.538
 6279W        W78704  11.078  12.034   0.509
 6280W        W78705  29.812   9.127   4.219
 6281W        W78706  43.001  42.920   3.325
 6282W        W78707  25.995  40.540   4.485
 6283W        W78708  16.983  13.167  13.292
 6284W        W78709  16.237  20.172  13.371
 6285W        W78710   8.331  44.832   3.217
 6286W        W78711  24.064  32.667   2.547
 6287W        W78712  11.614  29.477  13.553
 6288W        W78713  31.030  14.619   2.289
 6289W        W78714  27.221  22.523   3.306
 6290W        W78715   4.623   5.541   0.871
 6291W        W78716   6.715  25.609   3.107
 6292W        W78717  11.335  43.430   1.881
 6293W        W78718   7.292  19.769  11.426
 6294W        W78719  40.418  23.966   2.571
 6295W        W78720   9.297  30.982   4.020
 6296W        W78721   6.042   2.305  11.441
 6297W        W78722  10.231  26.506   4.376
 6298W        W78723   9.153   7.955  14.741
 6299W        W78724  31.119  21.992   0.904
 6300W        W78725  16.073  32.931  14.356
 6301W        W78726  32.524  14.132  11.596
 6302W        W78727  11.351   6.769   4.176
 6303W        W78728  42.260  15.018   1.534
 6304W        W78729  34.316  29.351   1.745
 6305W        W78730   3.263  44.036   0.396
 6306W        W78731  10.323  24.464  14.074
 6307W        W78732   3.260  27.148  12.594
 6308W        W78733  16.813  11.290  13.304
 6309W        W78734  35.288  17.622  11.741
 6310W        W78735   5.701   4.119   3.731
 6311W        W78736  13.186   2.927   4.443
 6312W        W78737  18.664  32.948  13.012
 6313W        W78738  20.170   2.870  14.961
 6314W        W78739  32.163  13.932   2.310
 6315W        W78740   1.871  44.033   3.752
 6316W        W78741  38.806   4.891   0.305
 6317W        W78742   4.194   5.700  14.305
 6318W        W78743  23.647  10.371  11.879
 6319W        W78744  16.352  31.851   3.393
 6320W        W78745  37.885  19.114  11.611
 6321W        W78746   1.401  15.684  14.344
 6322W        W78747  38.581  11.349   3.262
 6323W        W78748  14.331  40.377   4.074
 6324W        W78749  30.010   7.435   1.764
 6325W        W78750   3.403   0.245   1.136
 6326W        W78751  39.289  22.140   1.015
 6327W        W78752   9.315  44.896   4.137
 6328W        W78753  24.211  17.494  12.062
 6329W        W78754   0.720  38.171  13.184
 6330W        W78755  28.890  38.025  13.810
 6331W        W78756  14.249  32.394   1.939
 6332W        W78757  31.313  40.334  11.148
 6333W        W78758  42.293  37.562  12.930
 6334W        W78759   0.361  28.334   3.346
 6335W        W78760  26.996  12.264   4.551
 6336W        W78761  31.622   1.237   3.334
 6337W        W78762   2.160   3.868   3.127
 6338W        W78763  43.946   4.962  13.839
 6339W        W78764  34.841  33.605   4.151
 6340W        W78765  23.814  43.866   3.284
 6341W        W78766   9.794  23.981  11.606
 6342W        W78767   4.654  29.464  14.355
 6343W        W78768  43.949   4.462  13.982
 6344W        W78769  16.559   7.408  14.024
 6345W        W78770  22.798  30.200  12.870
 6346W        W78771   4.484  28.633   3.469
 6347W        W78772  25.604  18.615   2.486
 6348W        W78773  28.703  33.554  11.079
 6349W        W78774  23.894   0.762   4.537
 6350W        W78775  11.270   5.826   9.668
 6351W        W78776  28.140  19.400  14.037
 6352W        W78777  37.104  29.350   4.217
 6353W        W78778  17.524  10.985  11.096
 6354W        W78779  24.730  23.068  14.838
 6355W        W78780  29.031   9.560  13.639
 6356W        W78781  15.142  29.063  13.503
 6357W        W78782  43.894   2.450  14.717
 6358W        W78783  18.530   5.902   4.287
 6359W        W78784  43.708   8.283   1.473
 6360W        W78785  31.941   8.751  10.676
 6361W        W78786  14.523  37.880  10.619
 6362W        W78787   7.370   1.505   0.268
 6363W        W78788   2.892  21.567   2.200
 6364W        W78789   2.453  39.746  14.816
 6365W        W78790  15.225  33.570  11.641
 6366W        W78791  20.652  33.531  14.118
 6367W        W78792  20.306   7.261  13.584
 6368W        W78793  18.326   9.801  13.647
 6369W        W78794  38.361   3.546  14.352
 6370W        W78795  27.031  28.601   0.826
 6371W        W78796  25.749   3.342   3.133
 6372W        W78797  35.659  18.772   1.827
 6373W        W78798  24.292  15.774   2.277
 6374W        W78799  24.689  33.879   0.907
 6375W        W78800  42.331  34.664  11.898
 6376W        W78801  17.205  19.238   0.723
 6377W        W78802  22.107  16.590  13.353
 6378W        W78803  17.337  15.595   3.555
 6379W        W78804  17.866  32.072   2.363
 6380W        W78805  11.169  34.301  14.267
 6381W        W78806  17.994  33.830   3.397
 6382W        W78807  22.187  10.833   1.005
 6383W        W78808  41.275  36.533   3.354
 6384W        W78809  28.446   4.447  13.395
 6385W        W78810  29.605   6.763  14.308
 6386W        W78811  35.321  13.325   0.520
 6387W        W78812  33.524  42.076   0.621
 6388W        W78813  17.839  21.430   3.230
 6389W        W78814   4.911   7.800   3.314
 6390W        W78815  12.049  30.521  14.435
 6391W        W78816   1.212  43.776  13.713
 6392W        W78817  28.501  36.826  11.596
 6393W        W78818  13.301  10.810   0.697
 6394W        W78819  33.203  32.020  14.889
 6395W        W78820   0.577  38.827  11.840
 6396W        W78821   9.767  39.511   1.029
 6397W        W78822   3.610  17.722   0.832
 6398W        W78823  28.290  34.386   3.189
 6399W        W78824  40.315  13.805  12.005
 6400W        W78825  21.518   6.365   2.262
 6401W        W78826  32.861  19.352   0.471
 6402W        W78827   0.319   5.344   4.615
 6403W        W78828  38.350   4.392  10.626
 6404W        W78829  39.064  44.130   4.608
 6405W        W78830  42.520  30.540   0.243
 6406W        W78831  21.018   2.829  14.787
 6407W        W78832  41.334   9.335   1.423
 6408W        W78833  15.615  12.333  13.992
 6409W        W78834  35.444  23.576   0.493
 6410W        W78835  40.623   6.481   1.310
 6411W        W78836  42.464  12.175  12.154
 6412W        W78837  25.949  21.443  13.312
 6413W        W78838  40.624  37.317   0.914
 6414W        W78839   2.866  42.809  14.221
 6415W        W78840  30.589  44.492  13.854
 6416W        W78841  38.526  18.803  14.858
 6417W        W78842  41.960   3.259   4.078
 6418W        W78843   5.681  35.932   0.686
 6419W        W78844  18.048  27.069  14.398
 6420W        W78845  40.475  14.465   2.622
 6421W        W78846  17.275   4.714   3.407
 6422W        W78847  31.881  12.848   0.303
 6423W        W78848   6.636  12.403   1.819
 6424W        W78849  44.501  24.754   2.530
 6425W        W78850   1.681  41.971   3.672
 6426W        W78851   5.879   7.281   4.437
 6427W        W78852   7.628  34.656   2.265
 6428W        W78853  38.498  28.699   4.971
 6429W        W78854  44.367  15.854   0.460
 6430W        W78855   5.634  22.035   3.372
 6431W        W78856  12.421  18.108   4.555
 6432W        W78857  39.765  43.515   0.859
 6433W        W78858  34.893  10.734  14.950
 6434W        W78859  37.547  23.808   3.377
 6435W        W78860  31.550   8.778  14.626
 6436W        W78861  32.781  40.528   1.275
 6437W        W78862  27.424  18.742  10.758
 6438W        W78863  13.759   4.198   0.963
 6439W        W78864  33.893   8.337  14.866
 6440W        W78865  21.300  27.974   1.667
 6441W        W78866  17.202  15.553   2.281
 6442W        W78867  29.416  30.567  10.719
 6443W        W78868  30.056  26.903   4.144
 6444W        W78869  38.768  21.494  12.966
 6445W        W78870  42.349  16.514   3.204
 6446W        W78871  36.194  18.192   3.387
 6447W        W78872  22.610  44.371   2.402
 6448W        W78873  40.589  16.229   3.765
 6449W        W78874  31.163  27.893  13.841
 6450W        W78875  24.409  40.256   1.835
 6451W        W78876   1.758  40.509   1.801
 6452W        W78877   5.266  44.678  14.946
 6453W        W78878  30.973  30.286  11.652
 6454W        W78879  43.492   8.440   3.898
 6455W        W78880  10.666   0.352   2.766
 6456W        W78881  33.285  35.788  14.893
 6457W        W78882   8.474  28.018  10.566
 6458W        W78883   2.832  18.527   3.064
 6459W        W78884  29.955  16.344   0.186
 6460W        W78885  11.627   3.225   2.886
 6461W        W78886  35.050  39.081  10.080
 6462W        W78887  21.016   0.951   3.706
 6463W        W78888  14.147  15.828  11.698
 6464W        W78889   1.986   5.415  14.774
 6465W        W78890   3.359  41.014  10.938
 6466W        W78891   2.331  42.150  12.428
 6467W        W78892  29.256  24.965  13.009
 6468W        W78893  18.754  27.230  14.833
 6469W        W78894  16.565  17.564  11.941
 6470W        W78895  30.997  13.719   4.811
 6471W        W78896   7.715  28.971  13.096
 6472W        W78897  13.162  11.657   0.318
 6473W        W78898   0.979  38.841  11.516
 6474W        W78899  28.125  37.899  10.903
 6475W        W78900  33.480  22.709  14.325
 6476W        W78901  36.570   8.795   3.686
 6477W        W78902   8.874  44.816  12.565
 6478W        W78903  37.430   1.641   1.909
 6479W        W78904  22.725  13.652  14.944
 6480W        W78905  24.483  12.291  12.359
 6481W        W78906  44.992  34.023  10.704
 6482W        W78907  22.598  24.117   0.901
 6483W        W78908  34.498  10.314  11.604
 6484W        W78909  36.817   6.380  12.989
 6485W        W78910   0.361  15.712   2.591
 6486W        W78911  20.903   7.113   0.798
 6487W        W78912   9.196  31.446  14.391
 6488W        W78913   1.215  32.224   4.703
 6489W        W78914   6.247  40.977   4.161
 6490W        W78915  40.663  12.035  11.979
 6491W        W78916  17.597   7.371  11.155
 6492W        W78917  37.025  20.194   1.235
 6493W        W78918  18.766  18.462  12.092
 6494W        W78919  24.077  25.459  10.396
 6495W        W78920  44.410  42.887  13.061
 6496W        W78921  35.612  35.387   4.679
 6497W        W78922  24.732  13.414   2.658
 6498W        W78923  24.270  29.480   2.319
 6499W        W78924  39.894  32.959  12.127
 6500W        W78925   9.056  40.029  13.021
 6501W        W78926  44.549   7.940   2.602
 6502W        W78927  43.434  36.611  14.565
 6503W        W78928   4.712   0.370  10.174
 6504W        W78929  37.794   3.678  14.683
 6505W        W78930  10.884   5.001   4.106
 6506W        W78931  31.643  32.633   2.292
 6507W        W78932  18.635  27.272  11.956
 6508W        W78933  21.858  28.147  13.867
 6509W        W78934   1.047  36.586   4.861
 6510W        W78935   6.840  34.557   4.624
 6511W        W78936  36.909  34.523   1.130
 6512W        W78937   9.890  42.308   4.435
 6513W        W78938  10.644  36.791   2.928
 6514W        W78939  33.228   4.878  10.735
 6515W        W78940  30.631   1.925  13.936
 6516W        W78941  18.315  31.577  14.864
 6517W        W78942  14.151   8.422  13.823
 6518W        W78943  17.777  36.126  10.628
 6519W        W78944  33.461  32.867   1.275
 6520W        W78945  40.965  44.260  13.607
 6521W        W78946  37.020  33.123  10.763
 6522W        W78947  19.424  39.997   3.395
 6523W        W78948   9.398  38.337  12.033
 6524W        W78949  17.125  12.604   3.181
 6525W        W78950   3.080  24.010  14.646
 6526W        W78951  13.203  15.296  14.651
 6527W        W78952   9.487   5.462   9.870
 6528W        W78953  31.015  36.502   0.229
 6529W        W78954  10.853   7.673   0.455
 6530W        W78955  10.646   3.906  11.010
 6531W        W78956  40.061  15.498   5.008
 6532W        W78957   8.389  38.077  12.036
 6533W        W78958  34.223   6.829  13.044
 6534W        W78959   9.840  34.927  12.127
 6535W        W78960  19.765  30.099   0.955
 6536W        W78961  29.094  10.619  11.701
 6537W        W78962  12.658   5.963  11.870
 6538W        W78963  43.690  25.127   0.273
 6539W        W78964  14.439  38.022  14.434
 6540W        W78965  21.876   2.704   0.855
 6541W        W78966  19.796  14.415   2.350
 6542W        W78967  10.691  29.896   0.226
 6543W        W78968  35.458   3.622   2.925
 6544W        W78969  20.191   8.399  14.016
 6545W        W78970  12.783   3.769  13.136
 6546W        W78971  19.028  14.401  13.654
 6547W        W78972  40.896  32.090   3.801
 6548W        W78973  11.579  40.126   3.179
 6549W        W78974  36.074  18.976  11.472
 6550W        W78975  33.007  15.287   0.418
 6551W        W78976  41.422  36.481  12.823
 6552W        W78977  44.787  13.114  14.906
 6553W        W78978  27.681  31.159   0.306
 6554W        W78979  35.361   7.288   4.711
 6555W        W78980  26.435  33.895  11.931
 6556W        W78981  24.445  14.104   5.018
 6557W        W78982  33.141  43.432   0.244
 6558W        W78983  30.684  21.188   4.062
 6559W        W78984  35.657  11.248   4.007
 6560W        W78985  31.745  12.284  14.403
 6561W        W78986  36.822  17.508  14.832
 6562W        W78987  10.715  24.013  13.300
 6563W        W78988  14.714   5.803   1.763
 6564W        W78989  10.721   9.004   1.887
 6565W        W78990  40.989  17.389  12.007
 6566W        W78991   7.886  28.640   4.177
 6567W        W78992  30.941  15.821  10.538
 6568W        W78993  42.514  26.653  11.937
 6569W        W78994   3.174  25.058   2.808
 6570W        W78995  44.949  39.079  11.105
 6571W        W78996  29.919  16.192   4.342
 6572W        W78997  27.429  40.476  11.151
 6573W        W78998  37.438  14.683   0.617
 6574W        W78999  13.802  40.883  11.504
 6575W        W79000   5.504  19.553  11.639
 6576W        W79001  33.069  23.543   4.101
 6577W        W79002  10.923   7.671  14.308
 6578W        W79003   5.548   4.012   1.021
 6579W        W79004  13.256   9.263  14.215
 6580W        W79005   7.152   4.442   4.419
 6581W        W79006  18.345  37.877  14.875
 6582W        W79007  40.864  34.072  13.631
 6583W        W79008  32.648   9.928  12.072
 6584W        W79009  44.781  28.594   4.123
 6585W        W79010  39.844  39.394  14.998
 6586W        W79011   5.251  37.853  13.953
 6587W        W79012  33.370   9.830   1.954
 6588W        W79013  25.074  17.295   3.791
 6589W        W79014  28.657  41.370   4.197
 6590W        W79015  24.129  32.637   0.629
 6591W        W79016  33.996  37.124   1.266
 6592W        W79017  32.167  13.722  11.968
 6593W        W79018   9.430  23.327   0.468
 6594W        W79019  35.093   7.728   0.308
 6595W        W79020  42.269  38.363  10.671
 6596W        W79021   7.146  33.569   3.324
 6597W        W79022  27.164  26.471   4.840
 6598W        W79023   9.795   3.649   4.722
 6599W        W79024   6.173  24.507   2.835
 6600W        W79025  19.727  29.203  14.293
 6601W        W79026   9.036   3.578  10.208
 6602W        W79027  27.914  19.560   4.133
 6603W        W79028   5.303  39.097  11.662
 6604W        W79029  23.579  35.352  12.456
 6605W        W79030   3.309  25.690   3.402
 6606W        W79031   6.698   9.722  11.155
 6607W        W79032  42.919   9.160   0.015
 6608W        W79033  42.006  38.510   1.588
 6609W        W79034  15.018   9.201   3.194
 6610W        W79035  31.870  10.223  13.530
 6611W        W79036  22.568  30.505  10.346
 6612W        W79037  34.441  31.145   2.767
 6613W        W79038   1.338   1.221   1.224
 6614W        W79039   0.032  16.048  14.837
 6615W        W79040  15.213   4.435  11.154
 6616W        W79041  44.071  39.843   3.813
 6617W        W79042   5.503  17.484  11.603
 6618W        W79043   1.999   3.772  11.975
 6619W        W79044  37.404  13.739   4.724
 6620W        W79045  14.068   6.269   4.531
 6621W        W79046   2.392  19.533  14.025
 6622W        W79047  35.071  26.251   2.769
 6623W        W79048  38.052  33.538  13.377
 6624W        W79049  22.674  35.784   2.246
 6625W        W79050  21.989   2.532   2.714
 6626W        W79051  32.020   2.940   4.155
 6627W        W79052  32.963  27.074   4.110
 6628W        W79053  22.076  31.070  11.445
 6629W        W79054  40.000   1.475  11.540
 6630W        W79055  17.613  35.483  14.463
 6631W        W79056  29.006  11.757  11.061
 6632W        W79057  25.251  18.598   4.206
 6633W        W79058  37.487  29.873  11.249
 6634W        W79059   0.813   4.236   2.210
 6635W        W79060  42.742  11.818   1.727
 6636W        W79061  10.309   2.497  11.103
 6637W        W79062  14.504  23.213  14.714
 6638W        W79063  25.571  18.087   1.685
 6639W        W79064   0.894  17.855  11.957
 6640W        W79065  38.347   6.185  14.677
 6641W        W79066  13.141  38.848   1.330
 6642W        W79067   7.890   4.880   4.902
 6643W        W79068   1.118  16.759   2.964
 6644W        W79069  43.044  42.155   0.716
 6645W        W79070  24.280   5.773   2.256
 6646W        W79071  29.623  11.132   0.463
 6647W        W79072  44.725  24.016   0.633
 6648W        W79073  35.826  32.470  13.812
 6649W        W79074  24.016   3.958  13.877
 6650W        W79075   3.744  43.517   3.591
 6651W        W79076  10.768  34.217   1.440
 6652W        W79077   3.841  42.475   4.535
 6653W        W79078  10.177  29.726  14.072
 6654W        W79079  14.352   7.139   0.821
 6655W        W79080  33.924  34.015  13.533
 6656W        W79081  27.051  35.684   2.189
 6657W        W79082  44.310  27.678   4.194
 6658W        W79083   1.010  33.509  11.753
 6659W        W79084  26.035  27.680  13.971
 6660W        W79085  28.138  19.825  12.014
 6661W        W79086  34.455  11.283  11.686
 6662W        W79087  33.381  38.948   3.452
 6663W        W79088   0.868   3.942   4.755
 6664W        W79089  26.349  18.457   1.822
 6665W        W79090  16.247   6.792   4.853
 6666W        W79091  18.013  20.175   0.411
 6667W        W79092  38.837   1.675   1.459
 6668W        W79093  33.193  18.118   3.755
 6669W        W79094  10.629   5.841   1.708
 6670W        W79095   1.849  27.177   0.796
 6671W        W79096  21.337  12.915   9.911
 6672W        W79097  37.903  16.128   4.553
 6673W        W79098  25.098  28.253  12.487
 6674W        W79099  40.259  26.513   4.536
 6675W        W79100   8.078  19.126  14.309
 6676W        W79101  18.179  14.053  12.966
 6677W        W79102  23.484  15.143  14.758
 6678W        W79103  18.781  42.938   3.152
 6679W        W79104  24.985  42.935   2.181
 6680W        W79105  39.859  35.138   4.389
 6681W        W79106  37.342  19.710   0.589
 6682W        W79107  24.941   9.416  14.083
 6683W        W79108  29.927  44.213  10.215
 6684W        W79109   1.470   6.751  11.614
 6685W        W79110  23.060   1.649  11.006
 6686W        W79111  29.720  31.474   4.035
 6687W        W79112   9.247  14.395  10.595
 6688W        W79113  33.823  35.231   1.326
 6689W        W79114   9.870   4.619   1.508
 6690W        W79115  35.232  28.207  12.494
 6691W        W79116  42.607  23.704   3.246
 6692W        W79117   2.049  39.407   4.531
 6693W        W79118  36.518  29.433  12.860
 6694W        W79119   3.255  33.526  12.079
 6695W        W79120  19.612  34.487   1.436
 6696W        W79121  15.903  33.899  11.192
 6697W        W79122  28.397  19.513   4.943
 6698W        W79123   7.619   5.491  14.836
 6699W        W79124  41.327  25.490  13.885
 6700W        W79125   4.912  38.497   4.342
 6701W        W79126  10.681  38.997   4.117
 6702W        W79127  31.844  36.598  13.099
 6703W        W79128   2.170  18.626   1.847
 6704W        W79129  40.587  30.900   3.652
 6705W        W79130  11.340  32.564   1.853
 6706W        W79131  32.620  33.588  13.290
 6707W        W79132  33.973  10.795   4.210
 6708W        W79133  32.983   8.431  10.836
 6709W        W79134  42.728  36.964   3.299
 6710W        W79135  12.859  13.576  11.012
 6711W        W79136  27.421  23.476   4.482
 6712W        W79137  29.541  19.701   1.884
 6713W        W79138  16.006  31.981   3.750
 6714W        W79139  25.193  30.601   3.752
 6715W        W79140  40.588  31.829   1.668
 6716W        W79141  12.568   3.169  12.154
 6717W        W79142  22.287  34.432  13.804
 6718W        W79143  20.632  16.877  14.915
 6719W        W79144  24.280  35.837   3.195
 6720W        W79145  30.907  21.049  14.910
 6721W        W79146  37.187  33.454   3.782
 6722W        W79147   2.411  24.633  12.020
 6723W        W79148  33.360   4.481  12.065
 6724W        W79149  36.146  27.145   3.732
 6725W        W79150   5.982  26.572  10.753
 6726W        W79151  44.988  14.882   4.146
 6727W        W79152  15.932  40.818   4.215
 6728W        W79153  23.076  34.099   2.805
 6729W        W79154  13.392  31.351  12.028
 6730W        W79155  32.224  11.297   3.162
 6731W        W79156  11.013  34.566  11.074
 6732W        W79157  33.985   9.811  10.946
 6733W        W79158  43.204  11.332  11.230
 6734W        W79159   1.480  36.040  11.222
 6735W        W79160  15.737  36.058  12.126
 6736W        W79161  19.016  18.898  13.394
 6737W        W79162  18.841  32.658  11.219
 6738W        W79163   1.038  17.924  13.340
 6739W        W79164  25.725  41.209   2.338
 6740W        W79165   0.333  18.364   1.357
 6741W        W79166  18.060  16.660   2.873
 6742W        W79167  28.426   1.444  13.400
 6743W        W79168   6.966   2.804  13.470
 6744W        W79169   3.263  19.499  12.262
 6745W        W79170  40.939   2.468  11.554
 6746W        W79171   4.729  30.915   3.270
 6747W        W79172  28.842  20.249   0.667
 6748W        W79173  33.106  29.876  11.656
 6749W        W79174  19.601   7.930  13.345
 6750W        W79175  42.408   1.904   2.536
 6751W        W79176  16.118  30.859  13.574
 6752W        W79177  42.231  34.425   2.418
 6753W        W79178   7.883  35.876  13.809
 6754W        W79179  42.598  14.868  11.142
 6755W        W79180  12.746  32.809  12.594
 6756W        W79181  36.594  14.711  10.404
 6757W        W79182   8.200   4.912  14.605
 6758W        W79183  26.123  18.331   4.602
 6759W        W79184  27.619   5.558  14.085
 6760W        W79185  30.777  37.135   0.955
 6761W        W79186  38.451  14.154  12.939
 6762W        W79187   0.757   7.782   0.944
 6763W        W79188  23.328  30.411   2.890
 6764W        W79189  10.637  19.199  13.460
 6765W        W79190  10.742  10.612   2.846
 6766W        W79191  20.491  25.501   0.504
 6767W        W79192  39.828  37.947  13.423
 6768W        W79193  19.296  38.095  14.773
 6769W        W79194  18.191  41.082   0.217
 6770W        W79195  20.223  25.188   3.670
 6771W        W79196  42.991  34.085   0.882
 6772W        W79197  12.593  32.634   3.250
 6773W        W79198  34.394  21.590   4.644
 6774W        W79199  40.783  30.499  13.494
 6775W        W79200  13.109  29.591  14.422
 6776W        W79201  29.072  17.614  10.241
 6777W        W79202  39.676  11.203  14.396
 6778W        W79203  42.187  40.985  13.851
 6779W        W79204  13.743   0.160   3.786
 6780W        W79205  31.067  28.398   3.266
 6781W        W79206  31.358  39.318  11.902
 6782W        W79207  25.372  19.587  11.514
 6783W        W79208  42.541  10.785  12.337
 6784W        W79209   2.741   3.969   2.224
 6785W        W79210  29.189  21.566  14.430
 6786W        W79211  32.942  16.784   3.831
 6787W        W79212  20.909  28.517   4.060
 6788W        W79213  18.304  18.133   2.667
 6789W        W79214  21.802  33.536   3.752
 6790W        W79215  28.227  31.643  13.910
 6791W        W79216   9.283  21.043  14.731
 6792W        W79217  25.728  13.230   1.529
 6793W        W79218  18.393  20.123   3.297
 6794W        W79219  37.336  22.814   0.430
 6795W        W79220  36.973   8.218  13.486
 6796W        W79221  30.435  24.260   4.584
 6797W        W79222  25.067  15.858  13.108
 6798W        W79223   9.680  40.332  14.502
 6799W        W79224  37.939  10.030  10.230
 6800W        W79225  27.169  14.205   3.724
 6801W        W79226   3.813  14.137   0.119
 6802W        W79227  39.178   0.217   0.385
 6803W        W79228  41.488  26.661   3.235
 6804W        W79229  10.838  13.532  10.324
 6805W        W79230   7.182  16.859   3.135
 6806W        W79231  36.034  13.861  14.403
 6807W        W79232  26.524  35.130   2.940
 6808W        W79233  26.439  33.906  12.861
 6809W        W79234  29.735  14.148   3.794
 6810W        W79235   2.382  34.615   4.225
 6811W        W79236  32.201  27.146  11.710
 6812W        W79237  12.353  33.470  14.737
 6813W        W79238   0.862  31.191  11.602
 6814W        W79239   3.445  30.682   0.793
 6815W        W79240  22.293  33.566   4.662
 6816W        W79241  28.910  18.248   2.632
 6817W        W79242  11.653  17.678  11.540
 6818W        W79243  17.619  32.162  14.888
 6819W        W79244  20.223  15.253   1.371
 6820W        W79245  31.074  42.354   2.381
 6821W        W79246  20.575  16.152   0.378
 6822W        W79247  22.427  43.369  14.766
 6823W        W79248   6.726   3.032  12.491
 6824W        W79249   9.891  26.598   1.204
 6825W        W79250  14.328  12.875   2.702
 6826W        W79251  18.218  34.073  14.069
 6827W        W79252  21.999  41.852  13.592
 6828W        W79253   4.743   6.858   4.689
 6829W        W79254  26.104  30.315   3.721
 6830W        W79255  38.879   3.274   3.517
 6831W        W79256  19.261   5.691  12.907
 6832W        W79257  44.845  35.439  13.162
 6833W        W79258  17.225  12.112   0.656
 6834W        W79259  16.520  10.816  10.653
 6835W        W79260  30.771  38.491  14.265
 6836W        W79261  10.744   8.480   0.033
 6837W        W79262   1.783  12.316  14.443
 6838W        W79263  28.539  21.774  10.627
 6839W        W79264  14.485  41.511  12.841
 6840W        W79265  19.545  38.055   4.290
 6841W        W79266  30.425  22.283   2.804
 6842W        W79267  16.906  44.418   3.972
 6843W        W79268   4.883  38.036   2.473
 6844W        W79269  12.397   3.448   4.024
 6845W        W79270  19.737  15.756  13.962
 6846W        W79271  33.179  20.648  14.191
 6847W        W79272  31.223  14.264   3.609
 6848W        W79273  44.271   8.898   2.841
 6849W        W79274  16.765  18.903   4.046
 6850W        W79275  42.430  44.668   0.296
 6851W        W79276  15.683  31.132  12.881
 6852W        W79277   5.942  16.047  11.546
 6853W        W79278  19.264  32.120   2.747
 6854W        W79279  33.352  24.981   2.775
 6855W        W79280  17.557  26.336  12.926
 6856W        W79281  41.189  38.500  11.338
 6857W        W79282  27.717  10.159  10.204
 6858W        W79283  13.687  22.148   5.336
 6859W        W79284   8.838   2.450   4.422
 6860W        W79285  42.484  22.342  11.986
 6861W        W79286  32.344  43.147   2.258
 6862W        W79287  14.994  34.731   1.588
 6863W        W79288  10.188  29.512   1.831
 6864W        W79289  30.609   1.489   1.003
 6865W        W79290  42.275  42.312   3.340
 6866W        W79291  15.318  17.171  11.851
 6867W        W79292   7.875  26.129   0.633
 6868W        W79293   8.456  30.678  12.943
 6869W        W79294  10.644  37.936  14.980
 6870W        W79295  10.415   9.069  11.484
 6871W        W79296  12.565   4.726  10.718
 6872W        W79297  37.718  22.149  14.228
 6873W        W79298  25.903  44.481  13.411
 6874W        W79299  11.156   3.025  10.751
 6875W        W79300  21.003  23.178  11.674
 6876W        W79301  39.252  37.369  12.472
 6877W        W79302  43.784  11.000   0.774
 6878W        W79303  35.661  24.693  11.913
 6879W        W79304  24.727  31.655   1.387
 6880W        W79305   5.129  30.902   0.333
 6881W        W79306  18.283  39.300  13.760
 6882W        W79307   6.768  18.353  11.730
 6883W        W79308  27.629  26.520   5.060
 6884W        W79309  19.553  16.026  10.551
 6885W        W79310  28.731   3.460   2.405
 6886W        W79311  40.664  11.753  13.954
 6887W        W79312   2.495  29.535  14.513
 6888W        W79313   7.465  19.262  12.935
 6889W        W79314  12.357  27.474  12.035
 6890W        W79315  31.192  34.630   4.797
 6891W        W79316   0.683   8.589   4.104
 6892W        W79317   4.759  23.686  14.953
 6893W        W79318   2.494  20.047  13.933
 6894W        W79319  14.779  21.454   9.845
 6895W        W79320  36.827  40.067   4.593
 6896W        W79321   7.402  24.475   3.278
 6897W        W79322   0.492  32.405   0.019
 6898W        W79323  26.461  31.143   3.440
 6899W        W79324   4.857  41.450  14.954
 6900W        W79325   4.284  10.801   4.604
 6901W        W79326  18.259  35.811   1.874
 6902W        W79327  44.416  25.956   3.720
 6903W        W79328  37.789   0.371   2.270
 6904W        W79329  13.745  34.290  14.829
 6905W        W79330   0.461  13.133   3.222
 6906W        W79331  42.676  43.778   2.255
 6907W        W79332  22.385   6.320  13.443
 6908W        W79333  36.484  40.494   4.325
 6909W        W79334   4.299   1.931  12.516
 6910W        W79335  42.471  44.269   4.857
 6911W        W79336  28.766  15.238  14.100
 6912W        W79337   6.313  35.840  11.591
 6913W        W79338  14.239   8.412  11.585
 6914W        W79339  22.490  11.775   4.895
 6915W        W79340  13.172  19.248   0.271
 6916W        W79341  12.652  12.668  11.414
 6917W        W79342  30.139  20.112  14.299
 6918W        W79343  19.202  24.575   3.212
 6919W        W79344   8.844  31.481   3.854
 6920W        W79345  14.670  24.914  10.331
 6921W        W79346  32.506  39.098   1.293
 6922W        W79347   7.922   6.183   3.239
 6923W        W79348  21.846  15.315  14.482
 6924W        W79349  31.548  10.324   3.142
 6925W        W79350  40.270  11.234   0.441
 6926W        W79351  24.050  19.270   4.407
 6927W        W79352  44.886  38.393   0.262
 6928W        W79353   1.375  21.302   0.810
 6929W        W79354  35.909  44.250  14.579
 6930W        W79355  11.818   7.895   1.357
 6931W        W79356  36.929  41.302   4.237
 6932W        W79357   1.357  27.048  12.566
 6933W        W79358  34.050  21.697  12.411
 6934W        W79359   9.617  30.647   1.394
 6935W        W79360  36.533   1.766  14.286
 6936W        W79361   3.321  30.701  11.294
 6937W        W79362  29.483   2.451   1.921
 6938W        W79363   2.337  41.803   4.487
 6939W        W79364  34.457  31.168   1.900
 6940W        W79365  13.136  32.084  14.508
 6941W        W79366  34.651  37.792  11.979
 6942W        W79367  42.337  11.852   0.866
 6943W        W79368   8.015  43.873  12.053
 6944W        W79369  24.221   4.473   2.814
 6945W        W79370  22.910   2.282   0.190
 6946W        W79371   5.261  44.854   1.303
 6947W        W79372   9.832  25.911   4.938
 6948W        W79373  24.092  40.512  10.905
 6949W        W79374  32.828  14.958  11.906
 6950W        W79375   7.604  12.329   2.316
 6951W        W79376  11.406   0.667  13.012
 6952W        W79377   8.893  16.019   0.097
 6953W        W79378  31.928  36.133  13.631
 6954W        W79379  26.228  29.204  13.307
 6955W        W79380  40.125  26.019   0.326
 6956W        W79381  23.299  44.990  14.330
 6957W        W79382  44.828  35.046   0.510
 6958W        W79383  27.482  33.337  14.769
 6959W        W79384   3.311  23.555   3.395
 6960W        W79385  24.541  37.471  10.122
 6961W        W79386  13.868  13.156  14.755
 6962W        W79387  40.403  40.857  13.466
 6963W        W79388  17.018  40.076  10.924
 6964W        W79389  20.620  25.174  13.010
 6965W        W79390   1.155  17.572  10.790
 6966W        W79391  40.129  14.728  10.504
 6967W        W79392  33.198   9.872   0.217
 6968W        W79393  21.796  37.350  12.483
 6969W        W79394  17.289   5.733  14.676
 6970W        W79395   2.058  20.715   3.310
 6971W        W79396  34.987   4.452   1.589
 6972W        W79397  38.293  17.694  13.021
 6973W        W79398  40.229  17.966  11.226
 6974W        W79399  24.666   6.900   1.946
 6975W        W79400  24.181   6.170   4.021
 6976W        W79401  18.274   8.127  11.598
 6977W        W79402   0.351  19.677   4.652
 6978W        W79403  10.986  25.035  12.908
 6979W        W79404  42.750  42.741   4.229
 6980W        W79405  35.985   2.393   3.334
 6981W        W79406   8.664  14.164   1.902
 6982W        W79407  15.973  37.610  14.960
 6983W        W79408   3.160   5.164   0.305
 6984W        W79409  34.070  11.098  14.938
 6985W        W79410   3.993  11.832   0.711
 6986W        W79411  41.264  23.587  12.592
 6987W        W79412  36.385  27.990   0.429
 6988W        W79413   8.865   9.477  11.718
 6989W        W79414  41.599  39.081   3.722
 6990W        W79415  34.463   7.233  14.348
 6991W        W79416   9.364  17.536   0.864
 6992W        W79417   3.472  33.042   3.728
 6993W        W79418  12.105   2.968  14.823
 6994W        W79419  40.384   6.464  11.189
 6995W        W79420  20.018  25.717   3.326
 6996W        W79421  23.920  38.862  10.378
 6997W        W79422  26.508  35.510  11.414
 6998W        W79423   6.563  15.702   1.240
 6999W        W79424  31.072   7.138   1.084
 7000W        W79425  29.423  27.619   1.011
 7001W        W79426  28.966  18.224   0.271
 7002W        W79427  37.672  30.801   0.452
 7003W        W79428  24.238  35.894  11.193
 7004W        W79429  31.541  39.419   1.385
 7005W        W79430  39.366   2.797  14.820
 7006W        W79431   2.962  33.386  11.690
 7007W        W79432  21.245  27.534  12.115
 7008W        W79433  22.745  21.021   3.895
 7009W        W79434  43.335   4.608   4.706
 7010W        W79435  12.639  22.777   0.846
 7011W        W79436  44.671   7.003   2.588
 7012W        W79437   5.138  33.743   1.297
 7013W        W79438  13.223   2.212  11.481
 7014W        W79439   4.283   1.926  13.465
 7015W        W79440  30.484  20.207  12.624
 7016W        W79441  27.997  35.046  13.325
 7017W        W79442  13.214  20.314  13.780
 7018W        W79443   3.285   0.277  11.900
 7019W        W79444  11.072   6.707  11.485
 7020W        W79445  18.280  40.387   0.372
 7021W        W79446  39.792  10.613  13.037
 7022W        W79447  43.313  22.092  14.914
 7023W        W79448  14.681  11.949  10.785
 7024W        W79449   3.322   2.275  12.876
 7025W        W79450  17.776  32.534  11.893
 7026W        W79451  30.889  38.285   2.342
 7027W        W79452   3.638  29.601   2.268
 7028W        W79453  16.833  23.553   4.885
 7029W        W79454  37.476  10.422   0.807
 7030W        W79455  43.873  27.650   3.836
 7031W        W79456  15.225  16.150  14.727
 7032W        W79457   5.479  30.845  14.469
 7033W        W79458  14.597  18.765   2.264
 7034W        W79459  32.016  26.230  10.076
 7035W        W79460  22.262  31.541  14.743
 7036W        W79461  28.170   2.495  12.639
 7037W        W79462  29.745  44.456   0.899
 7038W        W79463  25.505  18.339  11.498
 7039W        W79464  44.859  23.783   3.766
 7040W        W79465   1.527  33.076  10.893
 7041W        W79466  23.438  20.642   1.345
 7042W        W79467   7.783  25.562  14.455
 7043W        W79468  38.426   3.842   3.097
 7044W        W79469  36.637  10.776   0.346
 7045W        W79470  42.382  44.762   2.388
 7046W        W79471  19.270  14.051  11.348
 7047W        W79472  37.807  36.295  12.536
 7048W        W79473  43.184  15.672  11.310
 7049W        W79474  10.115  40.888  14.997
 7050W        W79475   4.329  15.007   2.279
 7051W        W79476  37.816   9.986  12.318
 7052W        W79477  40.489  13.392   2.229
 7053W        W79478  16.835  18.341  14.838
 7054W        W79479  19.583  44.719   1.850
 7055W        W79480   9.233  40.616  14.591
 7056W        W79481   3.264   5.364   0.776
 7057W        W79482  11.995  15.648  12.415
 7058W        W79483   8.679  22.801  14.158
 7059W        W79484  17.079  16.302   0.943
 7060W        W79485  19.766  16.228   0.803
 7061W        W79486  31.642  27.722  14.332
 7062W        W79487  23.529  32.592  12.481
 7063W        W79488  22.610  14.254   5.178
 7064W        W79489   3.351  26.977  10.771
 7065W        W79490  39.775  44.751   2.815
 7066W        W79491  40.295  31.655   4.445
 7067W        W79492  12.147  12.665   2.088
 7068W        W79493  16.703  38.333  13.777
 7069W        W79494  26.897  13.766   3.632
 7070W        W79495  33.400  14.793  10.918
 7071W        W79496  34.825  18.001   1.342
 7072W        W79497  10.830  20.576   3.340
 7073W        W79498  27.307   8.526   1.993
 7074W        W79499  24.534  38.900   4.311
 7075W        W79500   3.257  23.530   4.405
 7076W        W79501  25.401  36.470   2.615
 7077W        W79502   4.342  27.520  13.012
 7078W        W79503  21.363  31.349  14.474
 7079W        W79504   1.490  35.012  13.651
 7080W        W79505  29.626  22.301  10.528
 7081W        W79506  15.241  23.777  11.119
 7082W        W79507  38.538   8.676  10.350
 7083W        W79508  32.127  42.389   1.931
 7084W        W79509  42.963  36.892  11.493
 7085W        W79510  34.492   3.740  11.020
 7086W        W79511  18.056   3.949   3.315
 7087W        W79512  14.199  12.543  13.003
 7088W        W79513  14.060   7.332   3.740
 7089W        W79514  17.133  37.338   1.436
 7090W        W79515  43.955  29.902  12.325
 7091W        W79516   5.469  23.471   1.809
 7092W        W79517  44.552  35.906   3.848
 7093W        W79518  32.061   5.669  13.447
 7094W        W79519  43.180  39.439  13.460
 7095W        W79520  31.891  18.150  12.870
 7096W        W79521   4.421   0.266   4.068
 7097W        W79522  39.495  36.517   4.352
 7098W        W79523  29.647   5.580   1.789
 7099W        W79524   5.267   5.336   3.282
 7100W        W79525  20.697  30.180  13.076
 7101W        W79526  12.894  23.789  13.943
 7102W        W79527  27.939  14.695   4.103
 7103W        W79528  17.879  16.610  14.143
 7104W        W79529  19.788  25.502   3.740
 7105W        W79530  14.251  29.041  10.129
 7106W        W79531  43.562  11.787   2.122
 7107W        W79532   3.876   9.809   1.388
 7108W        W79533  17.148  13.756   2.499
 7109W        W79534   8.926  11.912   3.214
 7110W        W79535  21.485  42.447  11.088
 7111W        W79536  41.408   5.414  14.407
 7112W        W79537  23.781  36.043   4.055
 7113W        W79538  41.161  25.316   5.141
 7114W        W79539  26.713  22.039   0.947
 7115W        W79540  10.411  15.645   2.649
 7116W        W79541  38.261  21.555   0.279
 7117W        W79542  29.642  22.546   0.853
 7118W        W79543  25.189  41.009   3.117
 7119W        W79544  14.338  36.464   1.794
 7120W        W79545  15.513  38.574   4.613
 7121W        W79546  26.124  27.581   0.007
 7122W        W79547   1.961  10.634  11.696
 7123W        W79548   5.355  40.280   3.638
 7124W        W79549  22.607   3.314  12.030
 7125W        W79550  34.482  21.087   4.570
 7126W        W79551  34.912  35.655  11.103
 7127W        W79552  17.314  32.152   4.299
 7128W        W79553   6.004  41.276  13.175
 7129W        W79554  10.060  38.509   2.891
 7130W        W79555  10.615  13.216   4.275
 7131W        W79556  12.896  14.154  11.581
 7132W        W79557  42.759  17.355  13.817
 7133W        W79558  21.655  33.503  12.067
 7134W        W79559  22.476  36.070   3.638
 7135W        W79560   5.756  44.751   2.259
 7136W        W79561  26.928  23.097  13.648
 7137W        W79562   9.359  12.151  11.013
 7138W        W79563  27.445  20.214  13.912
 7139W        W79564  18.028   1.206  11.748
 7140W        W79565  40.613  35.015   4.703
 7141W        W79566  11.166  15.292  12.122
 7142W        W79567   4.809  21.004   3.601
 7143W        W79568   3.398   7.343   1.876
 7144W        W79569  39.345  24.766   4.957
 7145W        W79570  16.242  22.008  13.435
 7146W        W79571  10.440  27.551   1.211
 7147W        W79572  27.495  24.666   0.275
 7148W        W79573  29.435  16.828  12.115
 7149W        W79574  44.486   3.414   1.251
 7150W        W79575  33.857  31.130  13.829
 7151W        W79576  17.944   6.201  10.262
 7152W        W79577   9.525   3.862   0.760
 7153W        W79578   7.444   8.272  12.028
 7154W        W79579  17.202  27.899  11.908
 7155W        W79580  16.046  17.294   3.217
 7156W        W79581  12.340  20.874   1.715
 7157W        W79582  10.374  42.852  12.278
 7158W        W79583  37.499  18.020  14.048
 7159W        W79584  21.255  18.253   2.073
 7160W        W79585  24.375  40.234  12.495
 7161W        W79586  14.866  11.368   4.183
 7162W        W79587  23.707   5.113  10.110
 7163W        W79588   7.926  23.036   3.644
 7164W        W79589   4.992   1.753   1.146
 7165W        W79590  15.929   3.137   9.894
 7166W        W79591  33.183  36.042   0.760
 7167W        W79592  41.807  29.059   2.359
 7168W        W79593   4.431   1.749   5.098
 7169W        W79594  39.012  13.015   4.534
 7170W        W79595  36.264  32.075   4.977
 7171W        W79596  38.437  33.818  11.245
 7172W        W79597   0.646  28.074   3.821
 7173W        W79598  32.497   6.628  11.675
 7174W        W79599  28.871  10.668  12.158
 7175W        W79600  16.122  37.270  14.343
 7176W        W79601   5.850   6.347   0.278
 7177W        W79602  15.251  32.822  12.364
 7178W        W79603  14.982  25.151  12.528
 7179W        W79604   7.905  24.525  11.229
 7180W        W79605  26.688  14.400  10.292
 7181W        W79606  22.580   6.263   2.464
 7182W        W79607  34.916  42.809   4.962
 7183W        W79608  37.539  28.475   4.634
 7184W        W79609  38.385  38.867   4.621
 7185W        W79610  34.581  36.763   3.257
 7186W        W79611   9.797   5.449   4.999
 7187W        W79612  20.246  42.593   1.736
 7188W        W79613   8.232  13.568   3.260
 7189W        W79614   9.125  34.651  14.389
 7190W        W79615  29.332  31.551   2.730
 7191W        W79616  28.421  27.616  10.533
 7192W        W79617  30.585  15.279   0.205
 7193W        W79618  33.617  15.386   4.800
 7194W        W79619  42.929  41.826   3.436
 7195W        W79620  20.885  29.323  13.548
 7196W        W79621  20.980   7.496   3.627
 7197W        W79622   8.726  34.184   4.154
 7198W        W79623  14.467  21.024  13.189
 7199W        W79624  36.896  18.207   2.902
 7200W        W79625  31.350   5.858  14.719
 7201W        W79626  38.416  42.290   0.904
 7202W        W79627  35.394   6.656  14.983
 7203W        W79628  22.180  38.545  10.565
 7204W        W79629  26.666  40.501  12.455
 7205W        W79630   6.239  32.264  13.858
 7206W        W79631  28.919  15.634   1.417
 7207W        W79632   0.281  11.100   5.007
 7208W        W79633  18.044  20.742  10.964
 7209W        W79634   7.679  26.604  13.303
 7210W        W79635  13.669  43.763   4.221
 7211W        W79636  18.015  23.130   1.698
 7212W        W79637  32.042  34.066  12.609
 7213W        W79638   4.451  33.650   2.320
 7214W        W79639  21.967  31.462  10.731
 7215W        W79640  16.039   7.148  12.915
 7216W        W79641  40.535  40.653  14.872
 7217W        W79642   5.372  22.522   2.818
 7218W        W79643  13.673   7.182  14.028
 7219W        W79644  18.865  10.706   2.739
 7220W        W79645  30.560  13.121   1.855
 7221W        W79646  38.536  34.230   0.101
 7222W        W79647  40.296   5.392   2.871
 7223W        W79648  11.700  28.434   2.614
 7224W        W79649  31.523  36.074   2.175
 7225W        W79650  12.191  27.752   2.433
 7226W        W79651  38.828   2.671   3.307
 7227W        W79652  44.218   7.292  10.442
 7228W        W79653  40.752  22.961  11.607
 7229W        W79654  38.384  30.470  13.407
 7230W        W79655  43.274  16.790   1.928
 7231W        W79656  27.929   9.808  13.217
 7232W        W79657  10.380  18.284   0.702
 7233W        W79658  42.761  43.859   0.313
 7234W        W79659  43.245  26.808  12.453
 7235W        W79660  17.285  12.307   4.744
 7236W        W79661  18.046  10.792  10.735
 7237W        W79662  28.846  16.663   0.960
 7238W        W79663  18.353  23.233   2.200
 7239W        W79664  42.233  34.063   4.558
 7240W        W79665  37.516   6.037   0.079
 7241W        W79666  23.212  33.171   3.636
 7242W        W79667   6.745   8.829   2.741
 7243W        W79668   7.245  17.400   3.133
 7244W        W79669  14.326  12.849   1.749
 7245W        W79670  14.778  31.446   4.089
 7246W        W79671   1.259  43.853  14.936
 7247W        W79672  23.507  34.870   2.690
 7248W        W79673  32.862  21.404  10.505
 7249W        W79674  29.683   0.430   4.722
 7250W        W79675  39.664   1.981  11.989
 7251W        W79676  25.916  40.051   0.276
 7252W        W79677   0.459  37.836  10.556
 7253W        W79678   1.937  10.457  12.837
 7254W        W79679  37.880   3.301  11.362
 7255W        W79680  25.561   4.601   3.138
 7256W        W79681  42.750  18.046  11.118
 7257W        W79682   7.273  25.618   0.172
 7258W        W79683  44.662  13.754   3.672
 7259W        W79684  20.763  23.472   3.191
 7260W        W79685  19.014  14.873  13.475
 7261W        W79686   3.515  17.570  12.152
 7262W        W79687  28.617  15.161  12.480
 7263W        W79688  40.998  16.863   1.339
 7264W        W79689   1.914  40.723   1.319
 7265W        W79690   6.679  28.133  13.860
 7266W        W79691   2.823  32.034  11.172
 7267W        W79692   2.326  10.768   0.815
 7268W        W79693  39.442   8.937  10.475
 7269W        W79694  12.722  27.407   4.193
 7270W        W79695  41.417   4.693   2.226
 7271W        W79696  38.818  26.688   1.149
 7272W        W79697  11.837  31.909  13.860
 7273W        W79698  37.483  35.349  14.955
 7274W        W79699  10.717  10.172   0.835
 7275W        W79700  22.803  10.597  13.098
 7276W        W79701  10.209   9.293  14.717
 7277W        W79702  43.019  13.212   2.857
 7278W        W79703  28.389  42.177   0.729
 7279W        W79704   0.969  42.922   2.824
 7280W        W79705  16.668  30.454   0.932
 7281W        W79706  44.538   1.408  11.653
 7282W        W79707  28.909   2.809  13.125
 7283W        W79708  11.646  34.149  14.018
 7284W        W79709  27.953  38.232  11.890
 7285W        W79710  36.573  41.368   5.334
 7286W        W79711   7.677  43.297   3.704
 7287W        W79712  30.466  22.824   2.859
 7288W        W79713  19.685  24.622  13.156
 7289W        W79714  34.961  25.663  12.697
 7290W        W79715  13.101  34.106  11.685
 7291W        W79716   6.613  37.520  12.009
 7292W        W79717  10.590   7.743  12.648
 7293W        W79718   1.274   3.397  14.324
 7294W        W79719  25.872  10.665   4.076
 7295W        W79720  13.314  42.574   1.819
 7296W        W79721   9.144  15.823   1.389
 7297W        W79722   2.526  28.672   4.829
 7298W        W79723  30.691  16.899   3.772
 7299W        W79724  32.943  36.390  13.884
 7300W        W79725  27.444  17.669  11.927
 7301W        W79726  42.301   3.276  14.804
 7302W        W79727  29.023  15.444  12.604
 7303W        W79728  33.338  44.461   1.075
 7304W        W79729  23.954   8.532   9.783
 7305W        W79730  32.798  41.834   1.916
 7306W        W79731  26.038   8.395   4.171
 7307W        W79732   4.248  30.789   2.660
 7308W        W79733  43.968  19.523   4.632
 7309W        W79734  13.659  43.433  10.908
 7310W        W79735  28.082  44.776   0.028
 7311W        W79736   7.107  41.685   4.506
 7312W        W79737  44.841   5.838  11.827
 7313W        W79738  28.635   2.593  14.420
 7314W        W79739   8.856  27.120  13.339
 7315W        W79740  36.893  18.505  13.533
 7316W        W79741  18.747  33.477  14.344
 7317W        W79742  31.659  33.924   1.971
 7318W        W79743   4.698  38.893   4.107
 7319W        W79744   6.490  29.213   0.988
 7320W        W79745  30.646   3.250  11.650
 7321W        W79746  39.091  16.079   0.802
 7322W        W79747   0.999  39.838  11.659
 7323W        W79748   0.811  29.442   3.648
 7324W        W79749  33.356  13.251  13.854
 7325W        W79750  40.780   1.463   2.469
 7326W        W79751   7.721   0.525   3.302
 7327W        W79752  13.184   0.681   3.510
 7328W        W79753  28.411  13.928  10.374
 7329W        W79754  39.881  39.850   1.882
 7330W        W79755   2.226   9.105  14.911
 7331W        W79756  21.611  40.855   4.575
 7332W        W79757  12.724  32.617   2.369
 7333W        W79758  25.316   2.410   2.730
 7334W        W79759  17.721  21.871   1.189
 7335W        W79760   1.384  41.125  14.470
 7336W        W79761  18.788  35.287   2.394
 7337W        W79762  38.298  23.175   9.699
 7338W        W79763   1.025  13.228  12.801
 7339W        W79764   7.254   8.148  10.708
 7340W        W79765  28.609  39.298   2.747
 7341W        W79766  16.895   0.407   1.411
 7342W        W79767  19.172  38.434  11.545
 7343W        W79768  23.670  23.134  11.985
 7344W        W79769  17.018   8.383  11.980
 7345W        W79770  25.636   3.382   1.665
 7346W        W79771  22.572  38.118   3.130
 7347W        W79772  35.184  38.538  13.500
 7348W        W79773  10.204  15.779   3.649
 7349W        W79774   3.810  20.720   3.785
 7350W        W79775  28.058  44.480  11.746
 7351W        W79776  39.883   2.907  13.544
 7352W        W79777  14.624  26.715   2.212
 7353W        W79778   8.421   0.021   0.948
 7354W        W79779  41.409  16.346   3.728
 7355W        W79780   9.111  41.357   0.791
 7356W        W79781  32.175   8.824   2.358
 7357W        W79782  33.848  41.013   1.816
 7358W        W79783   7.359  31.532  13.636
 7359W        W79784  11.833  44.372  13.363
 7360W        W79785  34.539  25.606   2.834
 7361W        W79786  13.615  12.764  13.526
 7362W        W79787  29.934   7.282  14.019
 7363W        W79788  17.641  28.168  12.104
 7364W        W79789  17.806  18.227   2.542
 7365W        W79790  28.642  30.662   9.818
 7366W        W79791  18.365  14.546  11.869
 7367W        W79792  33.377  13.675   1.326
 7368W        W79793  42.754  36.048   0.536
 7369W        W79794   9.118  37.978   2.129
 7370W        W79795   5.177  38.618  14.436
 7371W        W79796  38.344  39.800   4.836
 7372W        W79797  34.890   0.276  12.878
 7373W        W79798  42.852  15.075   3.613
 7374W        W79799  12.891  10.149   4.502
 7375W        W79800   2.762   1.006   4.394
 7376W        W79801   6.625  17.890  14.732
 7377W        W79802  37.437  13.283  13.474
 7378W        W79803   5.700  19.010   1.236
 7379W        W79804  42.748  12.789  13.148
 7380W        W79805  18.768  43.008  12.525
 7381W        W79806  29.306  29.077  13.550
 7382W        W79807   6.988  42.085   3.271
 7383W        W79808  10.086   1.819   1.159
 7384W        W79809  35.616  19.974   1.483
 7385W        W79810  25.983  35.915   0.893
 7386W        W79811  29.873  35.893   1.153
 7387W        W79812  25.449  33.809   4.006
 7388W        W79813  41.678  29.050  14.651
 7389W        W79814   1.928  14.467   1.395
 7390W        W79815  21.616  43.988   4.211
 7391W        W79816  21.757  28.751   0.435
 7392W        W79817  14.678  37.110   2.710
 7393W        W79818  34.814   0.046   4.114
 7394W        W79819   0.281   2.598   2.828
 7395W        W79820   1.658  19.526   5.007
 7396W        W79821  11.673   9.895  10.614
 7397W        W79822   9.204  10.456   9.994
 7398W        W79823  30.680  42.286   3.690
 7399W        W79824  41.960  30.515   3.618
 7400W        W79825  14.657  33.416   4.642
 7401W        W79826  38.577  35.207   4.062
 7402W        W79827  11.193  12.310   4.910
 7403W        W79828  19.278  12.560  11.059
 7404W        W79829  19.183  15.631  10.352
 7405W        W79830  19.198  43.015  14.277
 7406W        W79831   4.178   3.780   1.372
 7407W        W79832  15.241   5.525   4.602
 7408W        W79833  44.753  25.504   1.211
 7409W        W79834   9.431  10.647  12.840
 7410W        W79835  12.744   4.192   0.498
 7411W        W79836   2.039  44.988   1.852
 7412W        W79837   9.715   9.508  14.852
 7413W        W79838  31.977   9.717   2.616
 7414W        W79839  29.443  36.746  11.472
 7415W        W79840  28.303  40.239   0.041
 7416W        W79841  39.502   2.371   2.774
 7417W        W79842  39.455   4.832   1.316
 7418W        W79843   5.886  27.107  10.828
 7419W        W79844  25.005   1.430   1.042
 7420W        W79845  43.334   0.916  12.892
 7421W        W79846  16.314   6.366   1.236
 7422W        W79847  21.693  36.393   4.756
 7423W        W79848  35.428  34.091  13.268
 7424W        W79849  38.718  40.729   4.511
 7425W        W79850  33.582  18.334   4.988
 7426W        W79851  25.284  21.125  13.375
 7427W        W79852  14.403  20.164   3.568
 7428W        W79853  29.800  32.167  13.981
 7429W        W79854   4.464  11.376  13.619
 7430W        W79855  13.114  17.301  11.982
 7431W        W79856  39.013  30.107   1.239
 7432W        W79857  10.303   1.293  13.391
 7433W        W79858   1.901  25.584   1.609
 7434W        W79859   9.392  34.902   1.899
 7435W        W79860   8.803  21.722   2.130
 7436W        W79861  43.829  31.399  12.049
 7437W        W79862   0.757  36.078  12.126
 7438W        W79863  13.169  43.591   1.726
 7439W        W79864   0.230  17.657   4.163
 7440W        W79865  23.562  37.984  10.745
 7441W        W79866   7.096  21.300   2.277
 7442W        W79867  16.829  42.011   0.983
 7443W        W79868  10.705  24.127  12.791
 7444W        W79869  23.098  40.335   4.872
 7445W        W79870   0.058   7.978   2.784
 7446W        W79871  44.878  34.311  11.579
 7447W        W79872  26.687  43.552   2.681
 7448W        W79873  15.259  40.498   1.248
 7449W        W79874  31.733  15.698   9.821
 7450W        W79875   8.752  34.462  11.443
 7451W        W79876  35.022  15.522  13.890
 7452W        W79877  11.732  26.552   4.635
 7453W        W79878   0.504  44.504  13.939
 7454W        W79879  37.821  14.864  13.917
 7455W        W79880  34.977   1.398   1.373
 7456W        W79881  18.172   6.000   3.137
 7457W        W79882  18.422  43.789   0.744
 7458W        W79883  18.595  34.168   4.251
 7459W        W79884  11.285  30.862  11.592
 7460W        W79885  35.371  37.270  13.590
 7461W        W79886  30.720  43.785  13.547
 7462W        W79887  22.594  30.175   4.651
 7463W        W79888   4.896   4.990   1.459
 7464W        W79889   5.796  26.199   1.245
 7465W        W79890  21.286  10.795   1.213
 7466W        W79891  27.575  33.200  12.163
 7467W        W79892  39.084   0.038   4.609
 7468W        W79893  33.114  38.754  11.497
 7469W        W79894   8.171  15.945   5.001
 7470W        W79895  23.673  31.860  13.014
 7471W        W79896  37.983  14.059   0.334
 7472W        W79897  11.677   3.532  11.214
 7473W        W79898  38.861  33.540   0.417
 7474W        W79899   1.052  13.040  11.716
 7475W        W79900  41.247  13.141   3.888
 7476W        W79901  23.456  11.672  12.055
 7477W        W79902   8.507   6.191  10.192
 7478W        W79903   8.315  35.538   0.770
 7479W        W79904  31.816   9.161  12.599
 7480W        W79905   7.218  19.667  10.910
 7481W        W79906  16.350   1.973   4.186
 7482W        W79907  37.392  19.061   3.695
 7483W        W79908   1.226  32.539  11.797
 7484W        W79909   8.504  19.166  11.333
 7485W        W79910  44.531  19.185  11.659
 7486W        W79911  18.362  43.093  11.075
 7487W        W79912  33.669  13.847  12.958
 7488W        W79913  37.201  28.066   4.901
 7489W        W79914  15.803  31.542   2.903
 7490W        W79915  29.235  14.716   1.685
 7491W        W79916  28.473   3.985   1.042
 7492W        W79917  37.884  40.341  12.807
 7493W        W79918   2.519  35.922   3.875
 7494W        W79919  38.368   7.652  14.320
 7495W        W79920  23.923  21.256   3.133
 7496W        W79921  26.995  22.305   4.584
 7497W        W79922  35.431   0.572   3.250
 7498W        W79923  18.060  33.411  10.679
 7499W        W79924  30.061  19.129  14.099
 7500W        W79925  27.759  42.529  11.957
 7501W        W79926  14.577  40.800  12.106
 7502W        W79927  32.333  14.276   0.807
 7503W        W79928   9.837  23.821   5.276
 7504W        W79929   8.140   9.811   0.156
 7505W        W79930  16.571  18.723   3.605
 7506W        W79931  32.604  13.836   0.902
 7507W        W79932   8.347  19.576   3.370
 7508W        W79933  36.061  32.383  10.684
 7509W        W79934  32.823  37.043   0.291
 7510W        W79935  23.320  29.969   1.237
 7511W        W79936   7.287  14.922   0.940
 7512W        W79937   8.088  38.421  13.834
 7513W        W79938  12.642  14.729  10.436
 7514W        W79939  13.737   5.370  12.481
 7515W        W79940  17.571  20.492  14.005
 7516W        W79941  24.270   8.762  11.565
 7517W        W79942  35.633  36.941  10.726
 7518W        W79943  11.673  32.060   0.735
 7519W        W79944  13.283  12.514  13.829
 7520W        W79945  43.382  24.980  12.050
 7521W        W79946  35.882  34.695  13.994
 7522W        W79947  39.506  34.633   0.881
 7523W        W79948  37.390  25.576   2.589
 7524W        W79949  42.992   4.127  13.552
 7525W        W79950   7.752  24.962   1.359
 7526W        W79951   5.152  34.938  11.558
 7527W        W79952   9.782  34.822   0.931
 7528W        W79953   8.470  19.778   2.885
 7529W        W79954   5.968  39.974  14.747
 7530W        W79955  11.651  41.397   4.305
 7531W        W79956   4.833   6.773  10.844
 7532W        W79957  23.230  22.157   2.239
 7533W        W79958  18.346  41.560  11.093
 7534W        W79959   7.160   6.255   2.746
 7535W        W79960   9.975  36.648  12.960
 7536W        W79961   5.254   9.399  12.094
 7537W        W79962  40.834  20.628   3.446
 7538W        W79963   0.467   1.293  12.552
 7539W        W79964  30.680   1.517  13.482
 7540W        W79965  33.492   8.760   1.232
 7541W        W79966  29.480  15.268   2.861
 7542W        W79967   7.479  30.948  14.386
 7543W        W79968  31.884  28.910   1.805
 7544W        W79969   3.661  29.379  11.080
 7545W        W79970  14.743  12.208   3.948
 7546W        W79971  34.417  24.514  12.914
 7547W        W79972  40.580  21.770   2.919
 7548W        W79973   7.125   1.971  13.854
 7549W        W79974   1.286   3.788  13.664
 7550W        W79975  13.231  36.050  10.697
 7551W        W79976  43.477  43.378   1.694
 7552W        W79977  28.165   8.070  10.194
 7553W        W79978  44.827  41.808  11.360
 7554W        W79979   5.721  44.105  12.629
 7555W        W79980   1.297  20.116   4.513
 7556W        W79981   2.373   8.211   2.655
 7557W        W79982  19.272  40.516  12.918
 7558W        W79983  17.983  21.027   2.929
 7559W        W79984   0.462  25.094   2.243
 7560W        W79985  39.565   5.300  13.379
 7561W        W79986  43.912  31.865  10.592
 7562W        W79987  16.323  23.894   4.342
 7563W        W79988  33.503  29.790  12.197
 7564W        W79989  15.332  18.617   1.804
 7565W        W79990   6.628  28.983  12.423
 7566W        W79991  34.481  22.760  13.053
 7567W        W79992   0.067  17.714   1.689
 7568W        W79993   7.669   1.405   4.718
 7569W        W79994  36.215  23.814  13.852
 7570W        W79995  10.406   7.819  11.299
 7571W        W79996   9.354  32.469   1.849
 7572W        W79997  24.658  14.523  11.146
 7573W        W79998  36.232  16.271   4.267
 7574W        W79999   2.944  16.373  14.346
 7575W        W80000  44.815  33.452   4.401
 7576W        W80001   6.777  17.638   0.650
 7577W        W80002   6.239   9.658   1.842
 7578W        W80003  18.121  41.709   1.503
 7579W        W80004  15.573  27.912  11.024
 7580W        W80005  13.112   8.807  12.566
 7581W        W80006  27.863   0.977  10.620
 7582W        W80007   5.268  16.839   0.316
 7583W        W80008  27.956  10.665  13.910
 7584W        W80009  26.891  23.061   2.747
 7585W        W80010  40.952  31.922   2.358
 7586W        W80011  33.460  21.811   3.147
 7587W        W80012  13.281  32.534  14.718
 7588W        W80013  12.575  39.934  13.009
 7589W        W80014  40.148   8.556  11.958
 7590W        W80015  34.631  24.675  14.267
 7591W        W80016  20.462  35.808   1.438
 7592W        W80017  14.611   4.395  11.206
 7593W        W80018  38.993   8.227   0.350
 7594W        W80019  40.584  28.236   3.373
 7595W        W80020  17.501  23.150  12.094
 7596W        W80021  35.589   7.630  12.594
 7597W        W80022  15.739   7.192   1.314
 7598W        W80023  31.087  29.882  13.994
 7599W        W80024  21.578  24.526   3.744
 7600W        W80025  15.878  16.036   0.820
 7601W        W80026  28.446  27.564   3.164
 7602W        W80027  33.058  13.352  14.285
 7603W        W80028   1.761   5.854   0.043
 7604W        W80029   4.333  38.731  11.566
 7605W        W80030  15.612  12.719   2.264
 7606W        W80031  24.948  22.639   2.722
 7607W        W80032  23.694  37.267   1.898
 7608W        W80033   9.666   3.912  14.137
 7609W        W80034  34.625  20.681   0.975
 7610W        W80035  21.963   3.708  11.995
 7611W        W80036  25.082  21.388   1.384
 7612W        W80037  29.636  38.882   4.753
 7613W        W80038  32.366  26.089   1.933
 7614W        W80039  41.206  41.710   2.668
 7615W        W80040   6.420  14.257   4.115
 7616W        W80041   7.415   4.915   3.553
 7617W        W80042  23.169  43.308   3.664
 7618W        W80043  20.100  30.348   0.634
 7619W        W80044  30.326  16.122   1.763
 7620W        W80045  28.892  35.175  12.968
 7621W        W80046   7.840  36.948  12.082
 7622W        W80047   1.347  33.952   3.402
 7623W        W80048  12.056  20.836  10.529
 7624W        W80049  26.545   5.843   9.931
 7625W        W80050  40.112   8.850   0.369
 7626W        W80051  33.204  16.368  13.414
 7627W        W80052  19.556   3.213   4.247
 7628W        W80053   2.026   7.181  14.767
 7629W        W80054  22.545  28.443  14.536
 7630W        W80055  24.994  25.043  13.569
 7631W        W80056  41.151  35.633  12.732
 7632W        W80057  42.763  24.492   0.826
 7633W        W80058   7.014  31.544  14.025
 7634W        W80059  10.226  39.320   4.132
 7635W        W80060   7.582  26.007   3.265
 7636W        W80061  12.873   9.419  10.828
 7637W        W80062  35.019  14.223   5.032
 7638W        W80063  39.336  29.420  13.472
 7639W        W80064  34.612  20.575   1.888
 7640W        W80065  13.278   9.761   0.534
 7641W        W80066  19.758  15.632   4.757
 7642W        W80067   8.791  42.588  12.995
 7643W        W80068   5.133   3.512  13.373
 7644W        W80069   2.991  26.470   3.159
 7645W        W80070  25.952   5.776  12.432
 7646W        W80071  41.554  35.906  12.951
 7647W        W80072  37.865   1.457   4.716
 7648W        W80073   7.462   2.776  14.342
 7649W        W80074  34.679  29.743   1.699
 7650W        W80075  20.034  13.406   2.868
 7651W        W80076  42.332  32.089  13.072
 7652W        W80077  33.318  18.771   3.194
 7653W        W80078   3.463  35.862   4.254
 7654W        W80079  22.419   1.992   4.170
 7655W        W80080  18.934  35.863  13.858
 7656W        W80081  20.560  30.549   4.139
 7657W        W80082  40.419  24.107  11.631
 7658W        W80083   1.539  30.887  11.120
 7659W        W80084  39.500  33.483  13.707
 7660W        W80085  12.109  34.799   4.255
 7661W        W80086  44.526   7.367  14.006
 7662W        W80087  10.684  12.275   4.317
 7663W        W80088  27.666  14.096  11.300
 7664W        W80089  43.845   6.926  11.921
 7665W        W80090  20.039  41.606   4.181
 7666W        W80091  37.138  13.290  11.106
 7667W        W80092  36.275  30.091  11.673
 7668W        W80093  16.260   7.230   3.145
 7669W        W80094  14.197  36.272   4.289
 7670W        W80095  21.691  26.155   4.268
 7671W        W80096  16.783  44.507  12.226
 7672W        W80097  40.771   6.434  14.356
 7673W        W80098   3.496  14.712   5.065
 7674W        W80099  10.648  24.174   3.834
 7675W        W80100   2.032  29.184  10.742
 7676W        W80101  41.797  20.241   3.389
 7677W        W80102  31.183  20.329  11.881
 7678W        W80103  41.128  44.743  13.387
 7679W        W80104  13.073  25.441  12.841
 7680W        W80105   9.350   0.821  11.436
 7681W        W80106   6.200  14.534  10.535
 7682W        W80107  27.738  27.099  10.605
 7683W        W80108  11.967  42.540  12.066
 7684W        W80109   3.587   0.350  13.549
 7685W        W80110  16.161  21.453   0.925
 7686W        W80111  36.534  24.075   9.994
 7687W        W80112  15.261  31.381  13.340
 7688W        W80113  37.091  26.608  13.953
 7689W        W80114  27.117  19.667   2.331
 7690W        W80115  34.453  14.415  12.125
 7691W        W80116   5.512  33.064   3.852
 7692W        W80117   1.388   6.911   4.125
 7693W        W80118  17.168  22.759  13.773
 7694W        W80119   8.824  34.834  10.138
 7695W        W80120  25.024  15.313   2.611
 7696W        W80121  31.918  29.976   2.966
 7697W        W80122  41.579  36.925  13.007
 7698W        W80123  12.297  13.056  12.959
 7699W        W80124   6.077   0.341  14.673
 7700W        W80125  42.737  15.520   3.367
 7701W        W80126  20.857  31.400  13.306
 7702W        W80127  43.064   0.746  11.069
 7703W        W80128   2.133  13.585  12.135
 7704W        W80129  33.369  44.937   1.275
 7705W        W80130  43.281  40.466   0.295
 7706W        W80131  29.163  11.293   3.635
 7707W        W80132  29.555   7.778   4.952
 7708W        W80133  33.452  37.833  14.080
 7709W        W80134  24.310  30.634   3.754
 7710W        W80135  41.753  20.023   1.427
 7711W        W80136  22.439  27.088   3.903
 7712W        W80137  33.206  27.132  13.832
 7713W        W80138  24.569   9.890  12.951
 7714W        W80139  27.107   2.530  12.488
 7715W        W80140  32.463  18.984   4.223
 7716W        W80141  27.542   1.264  12.506
 7717W        W80142   5.671   2.342   0.428
 7718W        W80143  20.223  14.245   1.269
 7719W        W80144  29.880  17.377   3.331
 7720W        W80145  14.422   2.339   1.261
 7721W        W80146  41.412  28.285   3.717
 7722W        W80147   9.786  26.492  12.384
 7723W        W80148  25.485   2.897  13.140
 7724W        W80149  29.441   7.942   1.243
 7725W        W80150   0.731   9.945   4.628
 7726W        W80151  20.649   2.469  13.396
 7727W        W80152  22.454   7.362  10.213
 7728W        W80153  15.384   9.112  13.137
 7729W        W80154  15.220  31.818   1.383
 7730W        W80155   4.346  37.218  11.577
 7731W        W80156  36.346  39.126   4.963
 7732W        W80157  20.762  22.692  11.064
 7733W        W80158  20.276  38.928   0.974
 7734W        W80159  13.057  30.592  10.719
 7735W        W80160  24.026  12.428  14.345
 7736W        W80161  18.406   2.090  14.296
 7737W        W80162  41.448  30.359   0.269
 7738W        W80163  22.074  32.475  14.806
 7739W        W80164  16.164   5.570  10.881
 7740W        W80165  40.838  17.297  12.982
 7741W        W80166  13.896  40.146   4.209
 7742W        W80167  38.986  12.558  10.942
 7743W        W80168  10.347  41.855   2.197
 7744W        W80169  31.531  19.305   4.241
 7745W        W80170  39.055   3.132  11.565
 7746W        W80171  17.652   2.449  14.797
 7747W        W80172  15.063  16.302  11.089
 7748W        W80173  31.492  40.619   1.455
 7749W        W80174  29.426  29.808  12.064
 7750W        W80175  31.591  13.158  11.729
 7751W        W80176  13.594  21.137  13.464
 7752W        W80177   9.226  40.840   0.565
 7753W        W80178  34.385  29.167  13.474
 7754W        W80179  24.063   9.621   4.631
 7755W        W80180  12.076   9.938   1.172
 7756W        W80181  40.920  22.057  11.656
 7757W        W80182   9.502  38.896   2.382
 7758W        W80183   8.908   5.916  11.598
 7759W        W80184  27.726  34.828   5.212
 7760W        W80185   1.296  26.464  11.011
 7761W        W80186  22.341  22.177  11.801
 7762W        W80187   7.249  37.362   0.798
 7763W        W80188   9.443  10.463   4.615
 7764W        W80189  10.370  16.648   2.498
 7765W        W80190  42.956  40.096  10.775
 7766W        W80191   2.214  44.242  11.959
 7767W        W80192  44.854   5.533   1.792
 7768W        W80193  28.983  14.348   2.741
 7769W        W80194  34.112  20.050  13.822
 7770W        W80195  34.183  13.170   2.850
 7771W        W80196  14.013   0.646  12.470
 7772W        W80197  37.527   7.809   1.615
 7773W        W80198  37.123  26.193   4.030
 7774W        W80199  27.593  16.680   4.156
 7775W        W80200   1.191  20.319  14.207
 7776W        W80201   5.259  43.850  12.672
 7777W        W80202  25.448   5.962  12.457
 7778W        W80203   7.295   8.125   2.160
 7779W        W80204  31.713  11.320  14.380
 7780W        W80205  32.497   7.629  11.919
 7781W        W80206  24.965  23.502   3.337
 7782W        W80207  24.506  23.240   2.218
 7783W        W80208  42.014  10.120   0.681
 7784W        W80209  27.834  22.650  10.747
 7785W        W80210  21.319  31.903   3.360
 7786W        W80211  19.653   4.215   4.536
 7787W        W80212   9.965  37.644   1.305
 7788W        W80213   6.850   3.000   3.800
 7789W        W80214  12.747   5.653  13.084
 7790W        W80215   2.006   4.417   1.405
 7791W        W80216  32.953  31.876  10.211
 7792W        W80217  44.295   8.527   3.218
 7793W        W80218   7.146  10.770  12.433
 7794W        W80219  16.576  22.590   4.106
 7795W        W80220  27.628   2.313   1.351
 7796W        W80221   4.416  26.597   3.676
 7797W        W80222  27.953  32.338  13.449
 7798W        W80223  40.293  39.399  12.843
 7799W        W80224  34.556  32.386  13.355
 7800W        W80225   9.689   5.707  13.283
 7801W        W80226  30.521  16.139  11.298
 7802W        W80227  15.711   1.994  11.039
 7803W        W80228  26.316   6.633  12.468
 7804W        W80229  12.006  32.211  12.368
 7805W        W80230  11.528   9.391  11.799
 7806W        W80231   7.186   2.854  13.002
 7807W        W80232  43.961  25.769   2.981
 7808W        W80233  16.115  19.807  11.589
 7809W        W80234   1.784  44.431  10.653
 7810W        W80235   5.629  12.585  12.026
 7811W        W80236  26.715  22.002   0.071
 7812W        W80237  11.780  42.074  12.115
 7813W        W80238  25.632  41.006   2.805
 7814W        W80239  41.581   1.460  11.018
 7815W        W80240  38.614   0.561  13.051
 7816W        W80241  23.251  36.015  14.461
 7817W        W80242   4.461  22.138   2.925
 7818W        W80243   5.701   9.897  12.852
 7819W        W80244   4.881  24.131   2.258
 7820W        W80245  15.786  41.793  12.781
 7821W        W80246  43.167   3.322  14.224
 7822W        W80247  30.005   2.867   1.278
 7823W        W80248  21.123  26.150   4.898
 7824W        W80249   6.477   7.904  13.426
 7825W        W80250  36.919  40.266  13.483
 7826W        W80251  42.543  42.963  12.317
 7827W        W80252  25.459  20.684  13.541
 7828W        W80253  37.936  25.196   1.027
 7829W        W80254  40.427   6.457  12.974
 7830W        W80255  27.463  34.159   9.716
 7831W        W80256  35.319  38.369   2.700
 7832W        W80257  17.268  21.178  12.183
 7833W        W80258   3.017  10.783   3.152
 7834W        W80259  33.881  28.639   0.311
 7835W        W80260  33.599  30.075   2.392
 7836W        W80261   6.693   3.703   4.368
 7837W        W80262  16.742   2.342   3.279
 7838W        W80263   5.817  33.618  10.909
 7839W        W80264  35.937  20.544  12.265
 7840W        W80265  38.536   6.776   2.422
 7841W        W80266  19.091   3.261  13.834
 7842W        W80267  18.805  40.347   0.897
 7843W        W80268  10.805  44.952  10.544
 7844W        W80269  34.686   8.734  12.487
 7845W        W80270  24.764  13.837   1.309
 7846W        W80271  22.493  17.103   2.880
 7847W        W80272  30.657  18.128  12.162
 7848W        W80273  14.664  43.238   4.616
 7849W        W80274   5.804  17.609  12.357
 7850W        W80275  27.717  17.332  12.215
 7851W        W80276  12.542  13.000   2.116
 7852W        W80277  38.882  43.865   3.258
 7853W        W80278  39.881   8.835   3.310
 7854W        W80279  33.577  24.926  10.724
 7855W        W80280  40.274   3.949   2.922
 7856W        W80281  44.754   1.988  14.922
 7857W        W80282  24.447   3.459   4.150
 7858W        W80283   7.695  43.247  13.420
 7859W        W80284   0.550  32.096  14.301
 7860W        W80285   8.279  35.569  10.232
 7861W        W80286  44.813  22.696  12.189
 7862W        W80287  15.093  21.123   4.240
 7863W        W80288  40.590  44.887  12.871
 7864W        W80289  32.393  10.917  13.938
 7865W        W80290  30.311  33.468  14.349
 7866W        W80291  23.662  39.936  11.288
 7867W        W80292  37.603   6.430   4.189
 7868W        W80293  36.394   6.378   1.720
 7869W        W80294  16.074   7.363  10.744
 7870W        W80295   0.977  39.966   1.684
 7871W        W80296   2.425  25.931   3.772
 7872W        W80297   2.929  13.071  12.916
 7873W        W80298  15.595  19.812   1.987
 7874W        W80299  11.961  34.082   1.082
 7875W        W80300  36.169   7.164   0.924
 7876W        W80301  11.801  32.296  13.526
 7877W        W80302  43.791  36.065   0.945
 7878W        W80303  37.102  43.350   2.158
 7879W        W80304   2.877  44.530  12.561
 7880W        W80305  27.245  36.705   0.270
 7881W        W80306  10.819  24.145   0.400
 7882W        W80307  39.390  44.400   1.776
 7883W        W80308  44.262  21.358   0.432
 7884W        W80309  41.010  42.258   2.311
 7885W        W80310   9.842  44.930  12.534
 7886W        W80311  16.339   1.141  13.789
 7887W        W80312  23.677  19.336  10.729
 7888W        W80313  18.972  10.160  14.578
 7889W        W80314  33.413   3.284  13.520
 7890W        W80315   0.206  43.109   1.087
 7891W        W80316  37.363  24.574   1.531
 7892W        W80317  16.164  44.895  10.733
 7893W        W80318   7.975  17.727   1.918
 7894W        W80319  41.063   8.343  11.136
 7895W        W80320  35.547   0.252   1.857
 7896W        W80321  19.529  31.019  14.352
 7897W        W80322  42.861  25.975  12.476
 7898W        W80323  12.954  28.093   1.697
 7899W        W80324  17.245  14.544  13.773
 7900W        W80325  37.312  22.105   3.561
 7901W        W80326   4.863  12.853  12.353
 7902W        W80327  26.390   5.436  13.742
 7903W        W80328   2.981  40.835   4.206
 7904W        W80329  13.986  17.056   2.227
 7905W        W80330  26.624  21.956   4.859
 7906W        W80331  21.291  26.059   0.297
 7907W        W80332   9.111  43.611   0.407
 7908W        W80333  18.459  29.155  14.819
 7909W        W80334   5.429  16.592  11.428
 7910W        W80335   1.220   0.555  11.017
 7911W        W80336  26.699  14.190   2.738
 7912W        W80337  19.980  41.352  13.409
 7913W        W80338  39.034  20.300  10.503
 7914W        W80339  19.674  14.989  12.411
 7915W        W80340  12.821  40.876   3.214
 7916W        W80341  10.631  14.777   2.131
 7917W        W80342  42.198   6.314   4.366
 7918W        W80343  41.416  42.589   2.893
 7919W        W80344  31.958  38.934   2.748
 7920W        W80345  20.047  37.542   3.811
 7921W        W80346  11.211  21.477   1.746
 7922W        W80347  34.495   8.369  11.335
 7923W        W80348  20.514  14.798  14.221
 7924W        W80349  22.511  26.037   1.207
 7925W        W80350  42.894  39.228  14.031
 7926W        W80351  33.723  35.038  10.274
 7927W        W80352  27.674  16.738  10.960
 7928W        W80353   8.815  12.117   0.080
 7929W        W80354   5.416  42.194   2.321
 7930W        W80355  31.326  25.105   2.872
 7931W        W80356  10.281   0.911  14.701
 7932W        W80357  41.525  26.872  11.431
 7933W        W80358  34.552  11.557  14.788
 7934W        W80359  22.860  41.251   2.805
 7935W        W80360  37.487  28.695  10.564
 7936W        W80361  21.964  37.054   2.317
 7937W        W80362  34.832  15.531   4.141
 7938W        W80363  21.861  39.826   5.169
 7939W        W80364  17.221  29.154   4.263
 7940W        W80365  34.010  26.396   4.743
 7941W        W80366  22.123  29.667   3.420
 7942W        W80367   6.323  38.709  10.983
 7943W        W80368   5.153  12.707  11.931
 7944W        W80369   5.457   9.792   2.398
 7945W        W80370   0.714  43.368   1.425
 7946W        W80371  22.022  12.170  14.815
 7947W        W80372   1.392  24.291  11.898
 7948W        W80373   3.898   5.611   4.118
 7949W        W80374  25.790   1.914   0.957
 7950W        W80375   7.488  10.632   4.226
 7951W        W80376  22.913  44.817  12.978
 7952W        W80377  29.172  23.597   4.580
 7953W        W80378  13.314  15.232   3.110
 7954W        W80379   5.899  16.844   0.006
 7955W        W80380   4.426  39.865   2.890
 7956W        W80381  12.808  37.455   4.976
 7957W        W80382   8.129  42.990  13.383
 7958W        W80383  21.446  41.588  13.650
 7959W        W80384   5.739  28.224  14.777
 7960W        W80385   4.488  36.085   0.896
 7961W        W80386  43.915  44.975  12.563
 7962W        W80387  39.241  19.896  14.370
 7963W        W80388   4.252   7.903  12.874
 7964W        W80389  42.741   0.206  11.261
 7965W        W80390  25.386  16.244  14.286
 7966W        W80391  41.017   8.305  12.057
 7967W        W80392   3.827  43.091  14.858
 7968W        W80393  43.610   8.726   1.708
 7969W        W80394   2.365  27.704  13.465
 7970W        W80395  15.281  31.602   0.450
 7971W        W80396  29.224  12.737  11.227
 7972W        W80397  14.193  38.355   4.152
 7973W        W80398   5.850  23.042  12.103
 7974W        W80399   6.307  28.155   4.605
 7975W        W80400  34.383  30.682   3.584
 7976W        W80401  18.269  16.324  14.288
 7977W        W80402  19.836  31.681  12.024
 7978W        W80403  16.538   0.210   4.195
 7979W        W80404  30.879  25.198   3.695
 7980W        W80405  28.641  29.084  12.626
 7981W        W80406   3.424  11.624   4.425
 7982W        W80407  39.999   8.343   0.331
 7983W        W80408  17.167  29.348  12.919
 7984W        W80409  24.215   0.077   2.418
 7985W        W80410  11.267  19.089  11.054
 7986W        W80411  40.341  33.556  10.188
 7987W        W80412   5.819  25.091   2.883
 7988W        W80413  24.494  23.240  12.914
 7989W        W80414  24.208  34.919   0.460
 7990W        W80415  31.377  17.734  10.259
 7991W        W80416  13.655  11.092  12.406
 7992W        W80417  14.469  28.223  14.538
 7993W        W80418   1.447  39.947  10.761
 7994W        W80419  13.542  22.075  13.998
 7995W        W80420  13.202  13.826   2.243
 7996W        W80421  33.703  43.850   0.847
 7997W        W80422  31.060  12.785   0.917
 7998W        W80423   6.374  36.980   4.984
 7999W        W80424  33.227  13.821   3.616
 8000W        W80425  22.480  25.680   1.746
 8001W        W80426  18.095   4.300  12.854
 8002W        W80427  21.136  26.110   4.368
 8003W        W80428  16.670  37.030   0.442
 8004W        W80429  15.656  20.017   3.033
 8005W        W80430  34.373  18.160   0.402
 8006W        W80431  36.536  32.929   2.080
 8007W        W80432  15.708  43.636  10.546
 8008W        W80433  13.360  25.976  11.950
 8009W        W80434  25.791  11.289  11.040
 8010W        W80435   2.392  12.192  14.087
 8011W        W80436  16.205   0.234   4.610
 8012W        W80437   3.755  29.386  12.407
 8013W        W80438  29.937   7.320   3.367
 8014W        W80439  15.958  27.498   1.270
 8015W        W80440  43.311  10.431   1.716
 8016W        W80441  34.482   3.766  10.517
 8017W        W80442   4.880  13.794  13.402
 8018W        W80443  34.350  29.449   0.360
 8019W        W80444  15.212   8.551   0.536
 8020W        W80445   5.276   4.359   0.730
 8021W        W80446  37.419  40.886   1.643
 8022W        W80447  10.408  31.935   2.663
 8023W        W80448  39.736  40.028   1.407
 8024W        W80449  29.622  39.583   0.006
 8025W        W80450  11.734  15.904  12.000
 8026W        W80451  35.052  20.308   3.738
 8027W        W80452  16.025  32.341   2.286
 8028W        W80453  41.365  20.477   3.650
 8029W        W80454  41.849  24.639   3.791
 8030W        W80455  29.138  17.079  11.138
 8031W        W80456  34.070  14.830   2.699
 8032W        W80457  26.576  24.895  10.342
 8033W        W80458  32.627   2.203  13.963
 8034W        W80459   7.439  43.768   1.003
 8035W        W80460  12.981  12.296  11.602
 8036W        W80461  14.364  26.244  14.431
 8037W        W80462  29.209  40.571  14.285
 8038W        W80463   4.977  37.919  10.648
 8039W        W80464  15.275  10.102   2.902
 8040W        W80465  17.326  17.646   3.532
 8041W        W80466   1.729  43.577   0.370
 8042W        W80467  44.966  21.077   2.441
 8043W        W80468  33.126  29.040  10.730
 8044W        W80469  41.859  28.391   4.542
 8045W        W80470   5.293  13.124   2.825
 8046W        W80471   6.806  27.934  12.960
 8047W        W80472  12.164  23.940   0.369
 8048W        W80473  37.284  41.247  11.922
 8049W        W80474   0.347  12.929  11.916
 8050W        W80475  20.773   3.844  14.959
 8051W        W80476  26.677  41.334  14.484
 8052W        W80477  39.211  17.754   1.329
 8053W        W80478   0.797  14.736   2.818
 8054W        W80479   5.132  36.066  13.173
 8055W        W80480  28.572  39.054   2.277
 8056W        W80481  33.452  34.901   1.160
 8057W        W80482   1.938  30.963  12.280
 8058W        W80483  44.342   2.165  12.000
 8059W        W80484   2.404  31.937   2.644
 8060W        W80485  32.478   7.778  12.423
 8061W        W80486  23.064  20.232   4.204
 8062W        W80487  37.843  38.906   2.656
 8063W        W80488  25.840  19.697  12.058
 8064W        W80489   0.340  42.943  10.657
 8065W        W80490  18.853  37.733   1.472
 8066W        W80491  17.234  42.533   4.766
 8067W        W80492  18.496  14.570  14.475
 8068W        W80493  34.518  27.881   3.120
 8069W        W80494  27.330  31.501  10.908
 8070W        W80495  30.290  30.407   4.338
 8071W        W80496   4.975  21.478   1.151
 8072W        W80497  11.079  41.893  12.982
 8073W        W80498  13.671  22.111  14.895
 8074W        W80499  19.750  20.806   1.340
 8075W        W80500   9.611  36.259   4.567
 8076W        W80501  26.394  33.219  11.129
 8077W        W80502  40.852  23.483  11.601
 8078W        W80503  24.673  15.788  14.403
 8079W        W80504  23.578   9.217  14.483
 8080W        W80505   0.483  35.999   2.858
 8081W        W80506  17.709  44.519   3.750
 8082W        W80507  15.083  19.024  12.400
 8083W        W80508   7.407  31.481   1.335
 8084W        W80509  44.352  28.296   5.050
 8085W        W80510   6.790  21.787  12.988
 8086W        W80511   2.673  24.494   4.397
 8087W        W80512   9.861  33.990  12.030
 8088W        W80513  41.311  14.248  12.716
 8089W        W80514  13.183  32.046   1.937
 8090W        W80515  38.353  31.478  10.831
 8091W        W80516  39.784   6.986  11.696
 8092W        W80517  14.082  27.576  14.902
 8093W        W80518  40.899  26.626  13.321
 8094W        W80519   1.064  20.268   2.725
 8095W        W80520   8.209  32.691  13.605
 8096W        W80521  20.153   1.269   1.283
 8097W        W80522  41.180   4.627  10.164
 8098W        W80523  40.543  11.321  12.503
 8099W        W80524  15.578  30.208  11.652
 8100W        W80525  43.732  39.907   4.657
 8101W        W80526  22.017  28.490   0.803
 8102W        W80527  10.879  11.614   0.234
 8103W        W80528  19.487  44.877   3.648
 8104W        W80529  41.392  18.151   2.435
 8105W        W80530   5.423  42.913   1.922
 8106W        W80531  33.704  33.934  10.195
 8107W        W80532  34.635  22.828  11.672
 8108W        W80533  34.693   1.459   1.824
 8109W        W80534  21.731   1.672   3.696
 8110W        W80535  43.960  23.805  11.468
 8111W        W80536   2.232  29.235   3.221
 8112W        W80537   7.866  39.693   0.094
 8113W        W80538   0.012  42.620  11.605
 8114W        W80539   2.249  30.306   2.864
 8115W        W80540   4.855  38.863  11.548
 8116W        W80541  11.302  11.840  13.046
 8117W        W80542   2.281  16.637  13.064
 8118W        W80543  34.724  13.324  14.322
 8119W        W80544  27.281  26.221   0.436
 8120W        W80545  37.975  11.414   1.423
 8121W        W80546  31.593  31.964   2.686
 8122W        W80547   6.755  29.588   0.693
 8123W        W80548   1.015  31.411  14.849
 8124W        W80549  36.653  14.762  14.860
 8125W        W80550  24.474  22.623  14.994
 8126W        W80551  25.921  13.550   3.329
 8127W        W80552  39.457  14.231   2.729
 8128W        W80553  30.056   6.421   2.837
 8129W        W80554  24.229  25.143  12.967
 8130W        W80555  43.393  38.042  13.538
 8131W        W80556  42.824  23.501  14.918
 8132W        W80557  13.234  17.735  11.549
 8133W        W80558  24.759  25.041  13.079
 8134W        W80559  19.819   1.423   0.914
 8135W        W80560   2.311  16.715  13.612
 8136W        W80561   4.651  15.671   0.148
 8137W        W80562  19.341  30.865   0.816
 8138W        W80563  42.740  44.614   4.543
 8139W        W80564   2.318  14.017  12.349
 8140W        W80565  24.843   8.607   2.123
 8141W        W80566  13.884   2.344   1.359
 8142W        W80567  17.054  15.746   5.004
 8143W        W80568  39.309  24.732   3.617
 8144W        W80569  29.565  36.634  14.450
 8145W        W80570  37.034  21.245  12.917
 8146W        W80571  36.172  14.840   1.660
 8147W        W80572  16.704   3.430   1.157
 8148W        W80573  10.911  32.234  13.513
 8149W        W80574   7.324  31.014  11.106
 8150W        W80575   9.967   0.206  13.031
 8151W        W80576  31.419  34.836  14.862
 8152W        W80577   1.484   1.451  13.415
 8153W        W80578  40.025  36.929   0.330
 8154W        W80579  19.208  13.143   3.246
 8155W        W80580  26.241  16.211  13.941
 8156W        W80581  30.918   1.758  12.631
 8157W        W80582  42.063  15.629   0.037
 8158W        W80583  25.665  34.988   2.154
 8159W        W80584  33.674  25.001  11.952
 8160W        W80585  36.030  32.980  11.503
 8161W        W80586  27.406  20.769   2.814
 8162W        W80587   4.790   7.833   4.789
 8163W        W80588  20.495  16.239   2.138
 8164W        W80589  35.970  19.320  14.636
 8165W        W80590   4.900  36.834  14.310
 8166W        W80591  28.014  38.275  10.525
 8167W        W80592   5.053  32.390   1.419
 8168W        W80593   1.021  21.053  14.796
 8169W        W80594  12.445  35.842  12.042
 8170W        W80595  29.963  36.050   4.827
 8171W        W80596  16.055  42.160   1.442
 8172W        W80597  10.044  16.092   0.184
 8173W        W80598  35.774   7.953   2.405
 8174W        W80599  39.533  39.136  11.167
 8175W        W80600  33.142  24.462  14.927
 8176W        W80601  37.343   6.186   0.529
 8177W        W80602  13.082   8.325   4.802
 8178W        W80603   9.242  39.757   1.894
 8179W        W80604  42.769   5.669   2.750
 8180W        W80605  26.487  34.887   1.196
 8181W        W80606  42.249  31.015   4.244
 8182W        W80607  13.663  28.646  11.180
 8183W        W80608  41.203  22.365   1.732
 8184W        W80609  35.432  16.797   1.938
 8185W        W80610  25.998   3.203   1.131
 8186W        W80611  39.065  21.600  12.539
 8187W        W80612  16.301  33.482   2.855
 8188W        W80613  37.861  33.520  11.863
 8189W        W80614   2.617  36.358   0.329
 8190W        W80615  40.241   4.364  11.249
 8191W        W80616  15.813  20.252   4.525
 8192W        W80617   5.492  34.608   1.493
 8193W        W80618  32.473   8.655  14.544
 8194W        W80619  33.624  18.280  10.261
 8195W        W80620  38.611  39.347  11.960
 8196W        W80621  22.535   5.161  14.471
 8197W        W80622   9.750  41.008  13.438
 8198W        W80623   6.331  42.401   4.365
 8199W        W80624  36.487  21.170   3.853
 8200W        W80625  14.509   1.222   3.410
 8201W        W80626  25.776  40.017   0.928
 8202W        W80627  18.683  20.182  14.634
 8203W        W80628  20.225  35.733   4.624
 8204W        W80629  18.616  35.612   4.126
 8205W        W80630  24.718  22.460   3.127
 8206W        W80631   6.346   0.426  14.244
 8207W        W80632   3.184  13.881  14.008
 8208W        W80633   8.271  25.703   4.002
 8209W        W80634  12.329  39.282   0.373
 8210W        W80635  44.255   0.798   2.479
 8211W        W80636  19.537  35.123   0.720
 8212W        W80637   0.100  19.816  11.031
 8213W        W80638   3.595  13.359  14.473
 8214W        W80639  11.238   2.708  12.996
 8215W        W80640   7.067  12.848  11.067
 8216W        W80641  33.981  38.190  12.441
 8217W        W80642  32.176  31.078   2.723
 8218W        W80643  22.222   1.830  11.513
 8219W        W80644  41.686  37.717   2.676
 8220W        W80645   4.347   6.646   4.229
 8221W        W80646  28.031  18.660   2.515
 8222W        W80647  29.817   1.304  13.678
 8223W        W80648   3.445  36.461   1.793
 8224W        W80649  24.271  27.710  11.547
 8225W        W80650  33.734  15.816   1.261
 8226W        W80651   1.815  14.624   2.741
 8227W        W80652  37.816  15.684   3.119
 8228W        W80653   5.326  37.995   1.752
 8229W        W80654  24.115  41.753  13.141
 8230W        W80655  38.484  26.994   2.356
 8231W        W80656  23.022  44.733   3.613
 8232W        W80657  44.524   9.243   2.326
 8233W        W80658  33.102  12.545   3.329
 8234W        W80659   8.770  38.004  14.136
 8235W        W80660  12.159   3.411  11.912
 8236W        W80661  15.333  43.983   1.738
 8237W        W80662  27.219   6.675  13.874
 8238W        W80663   8.188   2.319  12.078
 8239W        W80664  33.844  11.342  10.670
 8240W        W80665  28.181  34.529  12.551
 8241W        W80666  30.183  20.222   4.131
 8242W        W80667  37.378  17.794   9.972
 8243W        W80668  25.295   6.477   1.244
 8244W        W80669  37.086   1.775   4.367
 8245W        W80670  21.739  19.560  14.993
 8246W        W80671  36.958  32.910  14.775
 8247W        W80672  30.385  14.340  12.081
 8248W        W80673  38.997   9.641   4.196
 8249W        W80674  33.718  19.779   4.780
 8250W        W80675  36.835  12.821   0.970
 8251W        W80676  24.672  36.991  14.300
 8252W        W80677  12.716  40.807  12.565
 8253W        W80678  16.251  36.556   2.167
 8254W        W80679  41.718  32.369  11.954
 8255W        W80680  20.583  11.307   2.761
 8256W        W80681  26.233  34.630  13.476
 8257W        W80682  22.448  34.137  13.062
 8258W        W80683   1.699  18.440   1.781
 8259W        W80684  10.219  13.077  14.428
 8260W        W80685  36.755   2.308  13.621
 8261W        W80686   0.861  26.529  13.270
 8262W        W80687  17.327  14.999  13.989
 8263W        W80688   5.718  13.858  12.424
 8264W        W80689   8.226  39.221   3.174
 8265W        W80690  28.554  23.047   3.093
 8266W        W80691  19.684  29.186   4.810
 8267W        W80692  38.871  40.562   0.873
 8268W        W80693   6.941  43.768   2.368
 8269W        W80694   9.676  15.796   1.312
 8270W        W80695   8.735   0.428  10.656
 8271W        W80696   0.775  38.516   1.030
 8272W        W80697  28.090  28.129   3.101
 8273W        W80698  40.392  38.782   3.057
 8274W        W80699  33.090  37.526   4.584
 8275W        W80700  30.865  35.955  10.796
 8276W        W80701  20.531  24.681  12.880
 8277W        W80702  27.932  37.615   4.332
 8278W        W80703   4.485  23.567  11.440
 8279W        W80704  23.188  23.451   1.827
 8280W        W80705  17.176   8.376   4.404
 8281W        W80706   2.976  44.246  14.774
 8282W        W80707  39.590  34.211  14.636
 8283W        W80708  23.672  11.892   3.219
 8284W        W80709  37.029   6.177  11.218
 8285W        W80710  21.649  38.078  14.100
 8286W        W80711  12.861  33.322  12.580
 8287W        W80712  43.888  15.586   4.399
 8288W        W80713   9.038  17.787   4.146
 8289W        W80714  16.332   2.663  12.648
 8290W        W80715  30.591  40.890   1.456
 8291W        W80716  19.995  39.004  14.096
 8292W        W80717  11.590  27.467  11.064
 8293W        W80718  17.367  27.118   4.533
 8294W        W80719   4.916  38.579   2.309
 8295W        W80720  30.525  29.342  11.808
 8296W        W80721  27.769  31.052   1.228
 8297W        W80722  42.452  20.766  11.077
 8298W        W80723  17.410   5.761  12.847
 8299W        W80724  32.676  20.496  11.606
 8300W        W80725  34.064   3.331  13.006
 8301W        W80726   8.396  23.689   1.010
 8302W        W80727  27.043  16.253   2.368
 8303W        W80728   7.636  41.259  13.788
 8304W        W80729  10.206  13.924  14.729
 8305W        W80730  24.931  43.029  12.079
 8306W        W80731  39.254  36.458  13.679
 8307W        W80732  17.763  42.458  12.602
 8308W        W80733  15.003   2.320  13.016
 8309W        W80734  24.452  21.069  10.068
 8310W        W80735  22.490  31.041   2.343
 8311W        W80736   5.721  44.231   3.382
 8312W        W80737  15.319  42.885   3.118
 8313W        W80738  27.628  30.145  10.505
 8314W        W80739  38.561   2.457  13.055
 8315W        W80740  39.491   4.261  11.340
 8316W        W80741  13.115  41.140  12.606
 8317W        W80742  31.158   2.773   1.723
 8318W        W80743  33.120  24.909  12.020
 8319W        W80744  41.025   2.759  12.528
 8320W        W80745   3.864  19.100   3.121
 8321W        W80746  31.614  29.999  12.515
 8322W        W80747  33.431  33.908   0.304
 8323W        W80748   7.708   1.698   4.044
 8324W        W80749  11.648  40.036  13.418
 8325W        W80750  29.446  11.756   1.160
 8326W        W80751   8.737  43.533  14.863
 8327W        W80752  23.682  37.326  14.993
 8328W        W80753  39.902  22.759   4.135
 8329W        W80754  34.875   6.233  13.472
 8330W        W80755  39.005  21.991   2.261
 8331W        W80756  32.535  27.420   0.337
 8332W        W80757  15.789  34.842   0.528
 8333W        W80758  16.648  37.142   3.410
 8334W        W80759  13.695  43.009  13.892
 8335W        W80760  36.611  17.927   3.235
 8336W        W80761  22.024  29.117   1.411
 8337W        W80762   7.334   9.745   3.606
 8338W        W80763  10.960  30.688   3.777
 8339W        W80764  29.374   0.336  12.378
 8340W        W80765  31.242  15.642  14.937
 8341W        W80766  15.419   0.290  11.183
 8342W        W80767  38.387  18.307  14.042
 8343W        W80768   4.712  10.868  12.901
 8344W        W80769  42.025   4.711   4.228
 8345W        W80770   2.253  22.031   0.936
 8346W        W80771  24.021   5.298   2.225
 8347W        W80772  19.297  38.615  14.831
 8348W        W80773  38.867  25.509  12.992
 8349W        W80774   7.322   4.266   2.874
 8350W        W80775   0.795  27.199   2.275
 8351W        W80776  40.472  24.639  14.580
 8352W        W80777  35.622   5.312   0.112
 8353W        W80778  43.571  41.550  11.230
 8354W        W80779  10.685  27.153   3.908
 8355W        W80780  12.673   5.665  14.003
 8356W        W80781   1.411  27.657  13.226
 8357W        W80782  13.644  24.704   4.146
 8358W        W80783  19.618  11.125  13.093
 8359W        W80784  11.986  34.390  11.161
 8360W        W80785  42.135  43.284  12.476
 8361W        W80786   9.126  20.707   2.857
 8362W        W80787  42.408  23.656   0.393
 8363W        W80788  19.118   5.030   2.178
 8364W        W80789  32.482  27.991   2.756
 8365W        W80790   4.905  25.455  13.022
 8366W        W80791   1.181   1.028  13.391
 8367W        W80792  30.865  20.246   0.279
 8368W        W80793  32.599  22.509  13.117
 8369W        W80794  11.669  17.448   5.001
 8370W        W80795   3.528   2.705   1.320
 8371W        W80796  12.117  38.320   0.347
 8372W        W80797  28.569  23.397   1.314
 8373W        W80798  12.842   5.887  10.829
 8374W        W80799  34.445  14.056  14.710
 8375W        W80800   0.040  21.759  12.547
 8376W        W80801  30.385   9.257   0.676
 8377W        W80802  36.407   9.325   3.036
 8378W        W80803  23.156  37.250   0.482
 8379W        W80804  27.729  30.498   3.632
 8380W        W80805   0.327  41.700   3.917
 8381W        W80806  22.514  28.748  14.939
 8382W        W80807   1.746  17.137   2.351
 8383W        W80808  10.581  12.888  11.157
 8384W        W80809  25.546  16.289   2.312
 8385W        W80810  43.912   4.389  11.922
 8386W        W80811  34.943  39.767   2.955
 8387W        W80812  38.742  32.924  12.837
 8388W        W80813  11.080  30.156  10.906
 8389W        W80814  38.374  10.199  14.747
 8390W        W80815   3.277  40.551  10.655
 8391W        W80816  14.126  35.929  13.605
 8392W        W80817  17.735  37.863   1.179
 8393W        W80818  30.636  16.145   2.647
 8394W        W80819  40.495  14.466   1.270
 8395W        W80820   1.436  33.058  13.405
 8396W        W80821  29.253  29.337  11.603
 8397W        W80822   5.013  25.193   0.817
 8398W        W80823  31.676   2.089   2.701
 8399W        W80824  17.215  39.506  14.242
 8400W        W80825   8.395   7.199   1.888
 8401W        W80826  40.841  29.172   4.191
 8402W        W80827  14.184  31.736  11.997
 8403W        W80828  42.002   2.741  10.684
 8404W        W80829  34.906   3.869   3.159
 8405W        W80830   9.279  36.300  12.523
 8406W        W80831  12.647  13.254  12.617
 8407W        W80832   5.219   0.978  13.789
 8408W        W80833  11.619  29.630   0.952
 8409W        W80834  28.520  10.604   0.814
 8410W        W80835  44.253  42.884   0.786
 8411W        W80836  14.533  38.989  13.522
 8412W        W80837  31.051   1.283   2.229
 8413W        W80838  10.660  10.192  12.883
 8414W        W80839  32.573  25.645  14.801
 8415W        W80840  22.977  16.225   4.426
 8416W        W80841  23.167  31.801  12.935
 8417W        W80842   4.912  23.261  14.129
 8418W        W80843  13.343   2.707  11.573
 8419W        W80844  36.990  34.427  11.249
 8420W        W80845  41.585  16.662  12.811
 8421W        W80846  15.219  40.571   4.068
 8422W        W80847  10.691  25.455  14.011
 8423W        W80848  17.654  26.496  11.123
 8424W        W80849  17.971  25.696   3.247
 8425W        W80850  43.319  11.638  10.641
 8426W        W80851  21.594  11.391  11.939
 8427W        W80852  30.938  39.256  14.998
 8428W        W80853  28.198  25.449   4.052
 8429W        W80854  20.564  35.594   3.688
 8430W        W80855  17.627  32.561   4.418
 8431W        W80856  15.753  34.040  14.907
 8432W        W80857  36.194  11.639  11.073
 8433W        W80858  38.925  25.896  10.224
 8434W        W80859  12.703  39.312   3.804
 8435W        W80860  25.213  39.288   3.685
 8436W        W80861   9.782  12.751  14.358
 8437W        W80862  37.366  20.774   0.536
 8438W        W80863  41.925   3.952  13.617
 8439W        W80864  31.130   0.482   1.716
 8440W        W80865  14.013  18.783   1.762
 8441W        W80866   0.352  17.080  12.101
 8442W        W80867   3.206  12.858  11.178
 8443W        W80868  32.020  15.791   5.215
 8444W        W80869   2.252   4.178  13.631
 8445W        W80870  35.326   0.763  11.139
 8446W        W80871  41.523  36.122   4.862
 8447W        W80872  38.761  14.116   2.160
 8448W        W80873   0.755  10.226  13.889
 8449W        W80874  37.591   3.324   2.905
 8450W        W80875  41.268   5.864   3.457
 8451W        W80876  43.674  40.173   3.714
 8452W        W80877  13.086  29.438   0.663
 8453W        W80878  34.209  39.975   0.292
 8454W        W80879  29.943  21.103  13.497
 8455W        W80880  30.191  16.240  14.396
 8456W        W80881  15.877   4.765   3.431
 8457W        W80882  21.236  18.272   3.577
 8458W        W80883  31.878  16.598  14.361
 8459W        W80884   5.954  37.073   1.221
 8460W        W80885  41.288  44.056  10.606
 8461W        W80886   5.529  25.323   0.828
 8462W        W80887  37.147  19.144   3.215
 8463W        W80888  18.049  21.671  11.218
 8464W        W80889  26.079   6.407   3.366
 8465W        W80890  34.802  22.780   1.426
 8466W        W80891  16.541   9.758   0.928
 8467W        W80892   7.075   2.543   3.301
 8468W        W80893  26.994  11.640   2.681
 8469W        W80894  42.581  37.947   2.248
 8470W        W80895   9.411  19.004   1.889
 8471W        W80896   4.237  18.535  11.938
 8472W        W80897  38.506  16.150  12.865
 8473W        W80898  39.112   6.632   2.749
 8474W        W80899  44.352   4.841   5.389
 8475W        W80900  11.669  13.034   0.483
 8476W        W80901   4.245   7.672   2.766
 8477W        W80902   6.838  25.992  11.642
 8478W        W80903  32.663  23.333  11.863
 8479W        W80904  29.867  40.792   0.767
 8480W        W80905  11.410  12.021  11.219
 8481W        W80906  44.895  36.508  14.635
 8482W        W80907  29.099  25.921  14.061
 8483W        W80908  13.885  11.507  10.368
 8484W        W80909  22.629  43.316   2.375
 8485W        W80910  12.113   4.914  12.979
 8486W        W80911  27.409  26.506   0.922
 8487W        W80912  10.181  34.623  14.354
 8488W        W80913  31.250  39.491   4.645
 8489W        W80914  16.199  29.964   2.150
 8490W        W80915  17.960  39.050   2.383
 8491W        W80916  40.375  27.658  11.617
 8492W        W80917  32.501  39.340  12.956
 8493W        W80918  21.979  13.186   4.972
 8494W        W80919  41.726  34.101   3.771
 8495W        W80920  22.465  11.325  13.451
 8496W        W80921   0.478   7.869   1.419
 8497W        W80922   9.272  32.136  12.855
 8498W        W80923  37.286  18.027  14.931
 8499W        W80924  29.487  31.611   0.813
 8500W        W80925  30.438   4.623   3.670
 8501W        W80926  13.149  21.605   2.797
 8502W        W80927  22.745  11.373   5.062
 8503W        W80928   9.818   1.535   0.807
 8504W        W80929  33.208   0.326   0.089
 8505W        W80930   7.377  35.438  13.788
 8506W        W80931  34.156   6.821  14.521
 8507W        W80932   2.223   6.911  12.552
 8508W        W80933  16.538  44.827  14.272
 8509W        W80934   3.534   0.844   0.332
 8510W        W80935  16.669  22.737   0.962
 8511W        W80936  20.623  34.627  13.330
 8512W        W80937  38.815  14.577   5.026
 8513W        W80938   3.191  18.336   4.522
 8514W        W80939  25.093   3.457   0.838
 8515W        W80940  20.169  19.809  11.184
 8516W        W80941  27.709  16.303  12.179
 8517W        W80942  19.753  43.276   0.245
 8518W        W80943  42.488  14.363  11.290
 8519W        W80944  25.739  39.114  10.226
 8520W        W80945  40.621   3.757  14.007
 8521W        W80946  14.123  14.695  10.624
 8522W        W80947   7.833  25.437   4.213
 8523W        W80948  44.719  14.540  14.987
 8524W        W80949  18.163   9.926   2.320
 8525W        W80950  42.328   7.949  10.679
 8526W        W80951   6.242  28.037  14.825
 8527W        W80952  42.182  21.216  11.025
 8528W        W80953  42.328   0.257   3.207
 8529W        W80954  17.302  17.088   1.347
 8530W        W80955  15.859  17.094   2.754
 8531W        W80956  29.016  42.857   0.400
 8532W        W80957  17.937   6.041  12.573
 8533W        W80958   4.209  39.123   2.315
 8534W        W80959  26.473   1.619   4.395
 8535W        W80960   2.205  40.407   0.353
 8536W        W80961  17.141  43.398  10.693
 8537W        W80962  16.533   2.359  10.077
 8538W        W80963  34.233  19.126  14.863
 8539W        W80964  14.326  28.565   0.013
 8540W        W80965  39.546  34.940   4.015
 8541W        W80966  13.093  10.193   2.055
 8542W        W80967  10.909   1.939   0.022
 8543W        W80968  11.312  20.519  14.817
 8544W        W80969  19.250  16.580  14.037
 8545W        W80970  17.724  16.760   1.397
 8546W        W80971  13.155  17.846  12.032
 8547W        W80972  25.661  38.861   1.849
 8548W        W80973  15.057  38.559   4.366
 8549W        W80974  43.026  18.585  11.071
 8550W        W80975   6.265   2.971   2.748
 8551W        W80976  31.016  16.216  13.090
 8552W        W80977  11.278  32.460   1.307
 8553W        W80978  23.042  26.636  13.613
 8554W        W80979   3.304  20.823   3.329
 8555W        W80980  26.898  30.365   0.451
 8556W        W80981  36.122  17.520   1.755
 8557W        W80982  21.781  43.242  12.113
 8558W        W80983   7.298  24.953  11.518
 8559W        W80984  10.199  30.244  11.382
 8560W        W80985  21.061  13.529  13.354
 8561W        W80986  43.011  43.011  12.085
 8562W        W80987  31.183  14.108   2.317
 8563W        W80988   6.327  14.141  12.518
 8564W        W80989   8.975  28.120   4.775
 8565W        W80990   6.923  35.476  14.753
 8566W        W80991   8.543  29.486   0.748
 8567W        W80992   2.865  30.611   3.818
 8568W        W80993   8.829  27.478  11.743
 8569W        W80994   7.689  18.271   3.204
 8570W        W80995  27.626   8.480   4.503
 8571W        W80996  40.092  43.765  11.434
 8572W        W80997  17.077  39.923   0.303
 8573W        W80998  28.595  43.806   4.182
 8574W        W80999   5.397  38.465   4.194
 8575W        W81000   5.642  40.287  13.970
 8576W        W81001  44.430  42.911   1.728
 8577W        W81002  10.743  17.521  13.934
 8578W        W81003  13.216  24.501   3.874
 8579W        W81004   1.141   3.561  10.397
 8580W        W81005   9.648   7.496  10.778
 8581W        W81006  28.483   8.764  13.105
 8582W        W81007  27.161  32.878   9.854
 8583W        W81008  27.661  21.699  11.134
 8584W        W81009  23.645   4.001   2.247
 8585W        W81010   1.314   3.300  11.930
 8586W        W81011  15.773  38.226   2.331
 8587W        W81012  41.621  11.768  11.605
 8588W        W81013  27.980  35.601   2.187
 8589W        W81014  16.774   7.678  12.870
 8590W        W81015  43.216  35.405  11.004
 8591W        W81016   7.950  40.439  13.355
 8592W        W81017   6.450  31.208   1.489
 8593W        W81018  40.413  16.998  12.903
 8594W        W81019   7.879   2.418   2.835
 8595W        W81020  20.280  22.013  13.822
 8596W        W81021   3.854  32.178   1.758
 8597W        W81022  17.058  26.292   1.832
 8598W        W81023  31.436   6.966  13.469
 8599W        W81024  34.962  23.592  10.762
 8600W        W81025  10.271  38.322   2.451
 8601W        W81026  41.614  29.478   0.399
 8602W        W81027  17.856  32.735   5.414
 8603W        W81028  34.456   9.947  12.485
 8604W        W81029  17.779  36.951   1.867
 8605W        W81030  35.279  13.459   3.591
 8606W        W81031  33.969  28.542  14.825
 8607W        W81032  34.433  12.633  14.874
 8608W        W81033  27.022  44.698   0.943
 8609W        W81034   2.894  33.421  14.446
 8610W        W81035  41.728   4.132  12.579
 8611W        W81036  23.424  18.234  12.124
 8612W        W81037  31.137  14.120  12.073
 8613W        W81038  25.729   3.691   0.193
 8614W        W81039  36.059  12.296   1.856
 8615W        W81040  27.243  34.537  14.422
 8616W        W81041  19.720   6.272   0.518
 8617W        W81042  29.697  23.652  12.398
 8618W        W81043   5.584   9.926  13.373
 8619W        W81044  20.583   7.894   4.287
 8620W        W81045  32.936  17.948  11.571
 8621W        W81046  18.166  26.460  11.240
 8622W        W81047  35.994  32.628   1.939
 8623W        W81048  33.634  13.783  14.517
 8624W        W81049  11.339  43.331  13.215
 8625W        W81050   2.987  33.976   3.295
 8626W        W81051   9.756   0.898  14.536
 8627W        W81052   6.060  40.487  12.588
 8628W        W81053  29.574  21.689   1.758
 8629W        W81054  12.223  35.364   1.768
 8630W        W81055  28.874  28.740  11.065
 8631W        W81056  18.544  31.664   0.307
 8632W        W81057  42.672  13.274   4.232
 8633W        W81058  40.430  31.899  13.356
 8634W        W81059  31.052   9.112  11.447
 8635W        W81060   4.748   4.356  14.838
 8636W        W81061  10.389   5.778  14.976
 8637W        W81062  29.094  18.849  14.448
 8638W        W81063   5.496  43.547  13.002
 8639W        W81064  32.604  23.026  14.008
 8640W        W81065  25.278  38.109   0.847
 8641W        W81066  17.278   4.706  14.746
 8642W        W81067  15.051  43.874   0.281
 8643W        W81068  36.016  32.121   3.319
 8644W        W81069  43.825  33.104   1.775
 8645W        W81070  36.388  12.285   4.632
 8646W        W81071  34.424  36.933  11.034
 8647W        W81072  36.614  13.706   4.382
 8648W        W81073  13.857  19.219   2.428
 8649W        W81074  14.996  17.309   3.245
 8650W        W81075  11.326  26.712   4.909
 8651W        W81076  14.820  19.503   0.290
 8652W        W81077  30.382  25.954   1.414
 8653W        W81078  20.009   6.521   2.227
 8654W        W81079  27.921   2.419   4.535
 8655W        W81080   6.788   2.041  11.624
 8656W        W81081  32.525  18.598  14.812
 8657W        W81082  21.156  27.945  11.169
 8658W        W81083  19.636  43.740   1.690
 8659W        W81084  23.331  15.577   1.365
 8660W        W81085  27.500   3.390  12.358
 8661W        W81086  14.367  38.517  12.503
 8662W        W81087  16.577   4.802  11.096
 8663W        W81088  33.810   1.747  12.476
 8664W        W81089  17.655  20.555  14.539
 8665W        W81090  27.707  12.641  12.804
 8666W        W81091  24.781   7.733  13.982
 8667W        W81092  34.936  23.977  13.391
 8668W        W81093  26.673   0.453   1.707
 8669W        W81094   5.597  17.303  11.115
 8670W        W81095  26.693  23.190   4.512
 8671W        W81096  31.116   2.703  14.902
 8672W        W81097  23.504  29.905   1.960
 8673W        W81098   3.029  14.222   2.570
 8674W        W81099  26.477   6.320  14.656
 8675W        W81100   3.024   0.589   4.522
 8676W        W81101  16.890   6.898  12.381
 8677W        W81102  22.983  29.211  12.929
 8678W        W81103  28.323  35.390   4.152
 8679W        W81104  32.620  29.144   4.151
 8680W        W81105  24.705   8.466  10.550
 8681W        W81106  11.650  31.046   4.206
 8682W        W81107  39.543  43.970   2.372
 8683W        W81108  22.500  30.520  14.299
 8684W        W81109  19.687   5.456  13.537
 8685W        W81110  26.542  43.646   1.753
 8686W        W81111  38.373  13.807   0.564
 8687W        W81112  35.058  15.135   1.194
 8688W        W81113  16.727  33.538   0.794
 8689W        W81114  27.469  44.817  12.478
 8690W        W81115  44.877  24.094   4.161
 8691W        W81116  32.654   8.736  11.193
 8692W        W81117   3.363  11.572  12.791
 8693W        W81118  39.049   2.927   0.222
 8694W        W81119  10.358  24.336   0.476
 8695W        W81120  17.496   0.607  11.093
 8696W        W81121   7.233  21.823   2.395
 8697W        W81122  28.083  24.422  13.516
 8698W        W81123   3.375  32.075   2.669
 8699W        W81124  39.397   8.123   3.109
 8700W        W81125  11.325   3.060   2.485
 8701W        W81126  42.691  28.266   2.770
 8702W        W81127  18.652  29.944  12.546
 8703W        W81128   5.713  29.513   0.453
 8704W        W81129   9.321   8.988   2.897
 8705W        W81130  39.288  29.717   2.959
 8706W        W81131  26.148  41.783   3.651
 8707W        W81132  23.933  22.200   3.365
 8708W        W81133  15.791  41.924   1.822
 8709W        W81134  36.077  11.886   3.701
 8710W        W81135   3.077  24.557  11.481
 8711W        W81136   0.405  10.446   2.576
 8712W        W81137  20.350  23.224   2.305
 8713W        W81138  17.791   3.837  14.434
 8714W        W81139   7.542   1.177  14.874
 8715W        W81140  40.271   7.912   0.408
 8716W        W81141  25.951  17.058  11.125
 8717W        W81142  19.569   2.500  11.190
 8718W        W81143  42.256  24.935  14.321
 8719W        W81144  43.518   7.826  12.951
 8720W        W81145   0.830  39.767   3.283
 8721W        W81146   2.258  41.401  12.051
 8722W        W81147  21.521  34.671  14.117
 8723W        W81148  31.041   4.441  10.982
 8724W        W81149  43.463   2.798  14.364
 8725W        W81150   3.961  15.146  13.811
 8726W        W81151  16.239  43.805   2.701
 8727W        W81152  13.350  20.646  12.451
 8728W        W81153  31.227  28.903  13.729
 8729W        W81154  26.003  25.225   1.825
 8730W        W81155   1.995   8.821   4.097
 8731W        W81156  37.020  29.586  12.017
 8732W        W81157  34.475  10.648   4.159
 8733W        W81158  23.617  22.684  11.646
 8734W        W81159  24.281  41.787   2.853
 8735W        W81160  35.395  37.070  14.868
 8736W        W81161  44.353  12.146  13.955
 8737W        W81162   5.875  42.650   1.982
 8738W        W81163   5.755   7.188   1.377
 8739W        W81164  36.285  11.399   3.815
 8740W        W81165  17.522  30.726   0.015
 8741W        W81166  11.259  14.578   4.272
 8742W        W81167  10.782  38.675  12.741
 8743W        W81168  23.331  41.388  14.333
 8744W        W81169   7.230  14.033  12.505
 8745W        W81170  37.213   4.884   4.015
 8746W        W81171  16.117  33.047   4.607
 8747W        W81172   0.324  42.710  13.820
 8748W        W81173  30.981   3.524   4.912
 8749W        W81174  17.613  18.565  14.355
 8750W        W81175  39.455   2.807   4.631
 8751W        W81176  32.177  30.262   3.321
 8752W        W81177  15.121  27.016  14.304
 8753W        W81178   1.030   3.618  12.377
 8754W        W81179  25.743  39.317   4.880
 8755W        W81180  30.408  36.577  11.233
 8756W        W81181   0.993  12.394  14.698
 8757W        W81182  19.416  41.610   0.895
 8758W        W81183  28.589  17.172  14.277
 8759W        W81184   6.255  37.974  10.501
 8760W        W81185  38.420  32.999   4.652
 8761W        W81186  14.566  21.492   3.267
 8762W        W81187  18.142  14.422   0.701
 8763W        W81188  20.667  28.330   4.875
 8764W        W81189  37.797  37.058   1.861
 8765W        W81190  28.576   9.360  13.897
 8766W        W81191   2.731  37.338  13.347
 8767W        W81192  21.638  43.283   2.815
 8768W        W81193  33.956   9.417  13.372
 8769W        W81194  30.873   0.258   1.267
 8770W        W81195  13.786  29.376  13.950
 8771W        W81196  31.032  38.783   2.368
 8772W        W81197  22.779   2.316   3.983
 8773W        W81198  24.725   0.014  12.623
 8774W        W81199  21.075  33.070   1.953
 8775W        W81200  11.283  34.173  11.958
 8776W        W81201  15.322  13.534  14.703
 8777W        W81202  17.361   3.120   2.721
 8778W        W81203  29.992  14.767  14.385
 8779W        W81204  41.249  42.850   4.065
 8780W        W81205  22.031  35.880  12.495
 8781W        W81206  22.766   3.902  11.441
 8782W        W81207  37.417  11.273   3.280
 8783W        W81208  25.592  41.529   3.700
 8784W        W81209  21.090  41.484   4.588
 8785W        W81210  38.453  20.771   2.546
 8786W        W81211  21.791  32.963  11.938
 8787W        W81212  35.524  19.201   3.150
 8788W        W81213  27.024   8.888   0.285
 8789W        W81214  20.198  14.132  12.447
 8790W        W81215  15.659  13.195  14.913
 8791W        W81216  20.663  31.902   0.019
 8792W        W81217  10.318   3.595  12.040
 8793W        W81218  12.072   6.404   1.778
 8794W        W81219   0.224   7.374  10.718
 8795W        W81220  35.639   7.883   1.424
 8796W        W81221  39.651  34.940  11.618
 8797W        W81222  44.767  32.674   0.287
 8798W        W81223  16.990  43.517   1.414
 8799W        W81224  36.570  25.470  11.633
 8800W        W81225   6.340  17.269   4.607
 8801W        W81226  28.677  32.505  13.008
 8802W        W81227  25.374  28.464  11.194
 8803W        W81228  35.316  21.272   4.266
 8804W        W81229  31.314   2.359   4.229
 8805W        W81230  42.892  38.702   0.938
 8806W        W81231  29.486  20.615  14.760
 8807W        W81232  37.485  37.938   4.269
 8808W        W81233   6.504  39.469  14.021
 8809W        W81234   6.972  15.180   0.631
 8810W        W81235  38.551  22.027  12.461
 8811W        W81236   5.696  24.592   4.587
 8812W        W81237   0.319   8.665   2.410
 8813W        W81238  37.535   5.001  14.940
 8814W        W81239  18.646  12.653   0.497
 8815W        W81240   6.133  22.466   0.425
 8816W        W81241  32.004   0.867  10.934
 8817W        W81242  17.017  20.508  13.928
 8818W        W81243  11.198  35.730  12.877
 8819W        W81244  40.422  37.756   3.748
 8820W        W81245  25.064  25.094  10.949
 8821W        W81246   6.665  11.126   0.857
 8822W        W81247   3.295  34.714   2.294
 8823W        W81248   3.375  38.951   3.425
 8824W        W81249  33.872   0.853  14.956
 8825W        W81250  42.909   2.046   2.687
 8826W        W81251   6.170   6.695  11.936
 8827W        W81252  40.365   2.701   0.301
 8828W        W81253  27.699   8.753   2.872
 8829W        W81254  30.206   0.593  10.961
 8830W        W81255   4.432  42.227  12.528
 8831W        W81256  12.181  17.169   3.253
 8832W        W81257  27.293  31.120  14.429
 8833W        W81258  26.215  25.761   1.847
 8834W        W81259  14.254   6.932  12.906
 8835W        W81260  33.552  24.487   2.716
 8836W        W81261   4.224  29.320  14.636
 8837W        W81262  25.773  26.799   2.706
 8838W        W81263  42.625  30.871  11.231
 8839W        W81264   1.377  40.965   1.222
 8840W        W81265  42.354   9.146   3.918
 8841W        W81266  32.617  42.367   3.718
 8842W        W81267  21.250  41.393  12.873
 8843W        W81268  23.492  33.669  13.358
 8844W        W81269  24.523  25.197  14.851
 8845W        W81270  43.280  17.987   1.375
 8846W        W81271  34.593   9.774   3.919
 8847W        W81272  18.964  33.829  13.058
 8848W        W81273  19.740  32.303   4.012
 8849W        W81274  22.643  24.860  11.510
 8850W        W81275  19.673  19.691  12.367
 8851W        W81276  33.584   2.550   3.271
 8852W        W81277  43.391  16.217   0.297
 8853W        W81278  18.180   9.910   1.406
 8854W        W81279  43.762  34.387  14.075
 8855W        W81280  30.075   1.725  14.803
 8856W        W81281  23.435   7.312   0.072
 8857W        W81282  28.667   8.429   3.235
 8858W        W81283  36.323  39.463  12.410
 8859W        W81284  11.246  13.786  10.535
 8860W        W81285  38.790  17.603   1.018
 8861W        W81286  14.284  16.102  12.378
 8862W        W81287  37.972   0.401  14.338
 8863W        W81288   8.884  22.499   0.540
 8864W        W81289  40.906  29.893  13.830
 8865W        W81290  13.612  30.197   3.756
 8866W        W81291  41.128  36.358  11.394
 8867W        W81292  40.512  22.809   9.936
 8868W        W81293  17.617   9.790  14.486
 8869W        W81294  29.255   6.110   4.863
 8870W        W81295   0.866  22.230  10.649
 8871W        W81296  23.707  16.190  13.068
 8872W        W81297  44.711  16.724   0.542
 8873W        W81298  29.571  31.065  10.679
 8874W        W81299  40.665  24.286   4.662
 8875W        W81300   5.892  43.424   1.541
 8876W        W81301  39.301  29.567  11.186
 8877W        W81302  36.434  12.614  10.276
 8878W        W81303  23.572   8.076   2.338
 8879W        W81304   0.731   8.848  10.732
 8880W        W81305   8.921  24.146  14.279
 8881W        W81306  41.038  19.285   4.269
 8882W        W81307  11.680   1.484  12.242
 8883W        W81308  38.432  10.653   2.107
 8884W        W81309  25.729   7.719  12.542
 8885W        W81310  39.841   4.247  10.963
 8886W        W81311  38.325  10.780  13.360
 8887W        W81312  31.835  14.569  12.213
 8888W        W81313  16.195  24.867   4.495
 8889W        W81314  42.266  40.006   3.559
 8890W        W81315  23.040   9.530   5.177
 8891W        W81316  17.322  42.324  13.478
 8892W        W81317  30.858  24.769  11.606
 8893W        W81318  17.403  26.511   3.313
 8894W        W81319   8.273   9.959  10.738
 8895W        W81320   4.301  41.097   0.646
 8896W        W81321   8.090  36.085   0.721
 8897W        W81322  13.784  30.943   4.174
 8898W        W81323   4.880  34.482  10.616
 8899W        W81324   1.910  16.982  14.496
 8900W        W81325  39.313   7.077  14.952
 8901W        W81326  43.520   4.756  10.673
 8902W        W81327  36.432  32.348   1.274
 8903W        W81328  18.182  33.402  10.160
 8904W        W81329  36.391  42.488  12.891
 8905W        W81330   6.156   0.486   0.879
 8906W        W81331  36.638  13.112   3.145
 8907W        W81332  42.466  15.819   4.269
 8908W        W81333  12.417  11.704   0.846
 8909W        W81334   1.824   3.775  13.002
 8910W        W81335  20.144  26.640  13.170
 8911W        W81336  32.146  41.253   3.210
 8912W        W81337  33.271  39.074  11.887
 8913W        W81338  23.882  32.151   1.985
 8914W        W81339   9.283  41.296  12.065
 8915W        W81340  17.471  39.980  11.378
 8916W        W81341   0.092  30.432   4.159
 8917W        W81342  24.677  26.065  14.345
 8918W        W81343  39.365   1.805   4.498
 8919W        W81344  35.198  27.192   4.606
 8920W        W81345   1.336  12.694  12.032
 8921W        W81346   2.786  41.102   3.813
 8922W        W81347  44.723  28.970   4.997
 8923W        W81348  19.262   7.957   4.535
 8924W        W81349  28.164  15.555   0.498
 8925W        W81350  14.545  20.749   4.307
 8926W        W81351  38.588  18.730   1.435
 8927W        W81352  16.243  36.538   2.703
 8928W        W81353  34.388  23.988   3.692
 8929W        W81354  15.218  25.523  13.478
 8930W        W81355  30.734  38.875  13.433
 8931W        W81356  40.759  28.082   2.742
 8932W        W81357  18.607  43.274   4.187
 8933W        W81358   9.980  29.592  12.042
 8934W        W81359  36.601  24.573  10.770
 8935W        W81360  16.239  44.714  13.103
 8936W        W81361  25.763  44.784   3.267
 8937W        W81362  34.483  12.149  12.120
 8938W        W81363   4.361  38.570   0.959
 8939W        W81364  42.968   5.215   0.671
 8940W        W81365  25.711   7.381  11.585
 8941W        W81366   9.666  19.696   0.595
 8942W        W81367  18.039   5.712   1.290
 8943W        W81368  43.490  18.595   5.074
 8944W        W81369  25.549  43.959   2.736
 8945W        W81370  25.857  41.316  12.181
 8946W        W81371   0.892  20.673  10.787
 8947W        W81372  19.030   9.619  14.287
 8948W        W81373   9.724   1.776  10.783
 8949W        W81374  21.721  11.704   1.763
 8950W        W81375  32.717   3.231  13.862
 8951W        W81376  32.068  29.903  13.488
 8952W        W81377  34.460  37.623  14.072
 8953W        W81378  24.546   0.048  14.989
 8954W        W81379  20.484  10.582   4.169
 8955W        W81380  30.217  33.915   0.814
 8956W        W81381  33.569  36.366  11.593
 8957W        W81382   9.458   0.974  10.475
 8958W        W81383   3.432  12.093  13.387
 8959W        W81384  20.846  44.494  14.411
 8960W        W81385   0.325  37.258   1.241
 8961W        W81386  27.436   4.326  12.503
 8962W        W81387   0.730  44.932  14.349
 8963W        W81388   9.617  24.546   3.210
 8964W        W81389  18.711  33.141   1.408
 8965W        W81390  14.323  15.604  12.167
 8966W        W81391  11.597  21.047   0.357
 8967W        W81392  11.310  35.790   1.019
 8968W        W81393   3.191   8.314  12.382
 8969W        W81394   9.726   8.849   0.532
 8970W        W81395  22.255  11.292   1.249
 8971W        W81396   0.450  42.405  11.406
 8972W        W81397   0.236   3.935   1.328
 8973W        W81398   5.674  19.511   1.294
 8974W        W81399  27.025  13.559  12.421
 8975W        W81400   9.164  43.810   1.852
 8976W        W81401  26.437  18.600  10.609
 8977W        W81402   5.272  16.690   3.573
 8978W        W81403  24.253   5.047  13.531
 8979W        W81404  17.693   5.735   0.022
 8980W        W81405  20.462  41.567   2.454
 8981W        W81406   1.383   8.497   2.854
 8982W        W81407  33.365   2.298   0.146
 8983W        W81408  35.983  26.001  12.627
 8984W        W81409  30.935   7.202  10.653
 8985W        W81410  35.071  31.915   0.316
 8986W        W81411   8.623  29.023   1.737
 8987W        W81412  15.355   5.394  11.203
 8988W        W81413  22.233  19.822   4.972
 8989W        W81414  36.436  34.106   4.552
 8990W        W81415  27.543   7.529  11.228
 8991W        W81416   1.515   7.140   2.287
 8992W        W81417  26.199  24.065  13.391
 8993W        W81418  30.983   3.186   4.460
 8994W        W81419   0.794  32.135   0.905
 8995W        W81420   1.445  37.431  14.279
 8996W        W81421  37.386  24.119  11.603
 8997W        W81422  17.652  19.791  12.109
 8998W        W81423  31.486  18.631   3.458
 8999W        W81424  41.984  10.478   5.267
 9000W        W81425  37.518  27.953  11.985
 9001W        W81426  11.154  40.161  13.546
 9002W        W81427  12.147   2.270   1.168
 9003W        W81428   4.338   2.817   2.716
 9004W        W81429  30.983  31.733  14.303
 9005W        W81430  18.438  25.643   2.461
 9006W        W81431  11.842  16.770  12.840
 9007W        W81432  35.928  41.651   4.263
 9008W        W81433  13.156  28.991   3.283
 9009W        W81434  31.060  10.344   2.949
 9010W        W81435   5.103  26.021  14.412
 9011W        W81436   9.372  23.580   0.935
 9012W        W81437  14.271  16.696   0.270
 9013W        W81438  15.815   9.227   2.229
 9014W        W81439  22.305  22.944   2.319
 9015W        W81440  25.653  16.294  13.861
 9016W        W81441   1.458  21.639   4.193
 9017W        W81442  39.694  42.774   4.143
 9018W        W81443  42.979  39.021   2.954
 9019W        W81444   1.941   3.696   2.618
 9020W        W81445  20.073  11.253   2.615
 9021W        W81446   7.179   6.275   0.336
 9022W        W81447  14.706   8.706   5.154
 9023W        W81448   2.947   5.346  13.394
 9024W        W81449  37.880  12.848   4.135
 9025W        W81450  20.281  21.032  10.637
 9026W        W81451  42.533  35.841   1.424
 9027W        W81452  11.774   3.863   1.006
 9028W        W81453  16.153   9.808  10.976
 9029W        W81454  34.058   0.170   0.676
 9030W        W81455  40.075  27.456  12.450
 9031W        W81456  32.601  22.748   0.793
 9032W        W81457  30.019  37.928   4.498
 9033W        W81458  36.844   0.884   1.659
 9034W        W81459  21.207  38.035   4.185
 9035W        W81460   2.413  25.144   3.215
 9036W        W81461  21.247  12.229   3.165
 9037W        W81462   7.364  27.381  11.272
 9038W        W81463  25.458  44.777  11.551
 9039W        W81464  35.573   0.984   1.419
 9040W        W81465  27.525  22.715   0.231
 9041W        W81466  28.022  43.291  14.720
 9042W        W81467   6.050  32.682  13.615
 9043W        W81468  32.418  12.116  12.507
 9044W        W81469  17.230   2.984   0.426
 9045W        W81470   1.523  15.271  13.954
 9046W        W81471   9.261  20.508  13.845
 9047W        W81472  24.103  22.382  10.996
 9048W        W81473   3.505  21.804   3.110
 9049W        W81474  37.168   7.648   0.015
 9050W        W81475  19.566   0.429   4.197
 9051W        W81476  11.070  22.307  10.529
 9052W        W81477  26.515   6.666   3.078
 9053W        W81478  21.535   6.742  12.510
 9054W        W81479  31.514  21.762   2.132
 9055W        W81480  14.317  36.773   4.230
 9056W        W81481  32.405  32.238  14.227
 9057W        W81482  41.955  33.375  14.877
 9058W        W81483  23.771  35.641   3.701
 9059W        W81484  33.547  30.639   4.710
 9060W        W81485  35.079   8.270  13.566
 9061W        W81486  16.329  17.846   2.376
 9062W        W81487  17.977  36.148   4.182
 9063W        W81488  25.989   6.366   4.276
 9064W        W81489  21.385  41.565   2.197
 9065W        W81490  26.748  24.188  11.116
 9066W        W81491  12.337  23.533   2.755
 9067W        W81492  42.789  12.421   0.387
 9068W        W81493  21.216  35.587   0.385
 9069W        W81494   4.985  25.251   3.111
 9070W        W81495  23.170  44.272   3.833
 9071W        W81496  39.290  30.528  11.134
 9072W        W81497  23.994   5.896  11.633
 9073W        W81498  18.165  27.933  14.400
 9074W        W81499  37.885  42.872   4.651
 9075W        W81500  23.441   9.841  11.034
 9076W        W81501  34.849  13.093   5.169
 9077W        W81502  34.234  24.472  13.950
 9078W        W81503  43.011   4.727   0.436
 9079W        W81504   5.205   9.681  11.006
 9080W        W81505  42.500  37.342   4.097
 9081W        W81506   9.642  16.492   1.813
 9082W        W81507  27.920  10.770  11.656
 9083W        W81508   0.437  43.261  13.873
 9084W        W81509   8.200  15.241  14.788
 9085W        W81510  18.874  24.750  10.935
 9086W        W81511  29.849  18.651   5.088
 9087W        W81512  21.009  35.022  10.558
 9088W        W81513  21.094  17.193  13.021
 9089W        W81514   7.825  15.843   1.780
 9090W        W81515  29.096  43.351   4.414
 9091W        W81516  20.561  24.073   4.162
 9092W        W81517  36.360  39.033   0.938
 9093W        W81518  13.056  26.305  12.231
 9094W        W81519  35.925  10.135   4.161
 9095W        W81520  17.971  37.465  10.928
 9096W        W81521  15.771  19.549  13.085
 9097W        W81522  24.011  32.877   3.038
 9098W        W81523  12.110  33.146   3.382
 9099W        W81524  26.501  42.523  13.388
 9100W        W81525  41.754   8.001  12.422
 9101W        W81526  14.634  22.042  11.568
 9102W        W81527  19.500  15.617   1.609
 9103W        W81528   2.189  24.202   3.486
 9104W        W81529   2.482  39.249  14.876
 9105W        W81530  32.809  29.533  11.424
 9106W        W81531   1.792   7.663   4.683
 9107W        W81532  24.983  27.151   2.251
 9108W        W81533  44.076  29.296  12.873
 9109W        W81534  35.557  42.687   0.214
 9110W        W81535   7.685  34.035   2.905
 9111W        W81536  22.560  33.712  11.873
 9112W        W81537  24.105  14.616  12.610
 9113W        W81538   7.857   0.690  11.581
 9114W        W81539   5.157  19.811  11.970
 9115W        W81540  19.726  17.789  13.014
 9116W        W81541  25.691  36.880   1.625
 9117W        W81542   0.146  30.302  14.739
 9118W        W81543   8.388  36.384  11.562
 9119W        W81544  31.144   2.897  13.531
 9120W        W81545  15.381   4.704  10.665
 9121W        W81546  31.173   5.732   2.212
 9122W        W81547  21.550   3.387   4.710
 9123W        W81548  44.268   4.396   2.318
 9124W        W81549  32.544   4.882   2.344
 9125W        W81550   4.593   2.359  12.722
 9126W        W81551  33.053  10.362   0.341
 9127W        W81552   1.947  40.537  14.933
 9128W        W81553  27.427   8.393  12.606
 9129W        W81554  42.902  17.961  14.966
 9130W        W81555  18.046  43.397   0.930
 9131W        W81556   7.337  34.991   3.485
 9132W        W81557  13.363  11.586  14.046
 9133W        W81558  26.597  39.383   0.539
 9134W        W81559  16.718  16.283   3.431
 9135W        W81560  43.266   7.684  12.479
 9136W        W81561   2.206  10.682  11.229
 9137W        W81562  11.747  22.666   5.163
 9138W        W81563  22.757   0.350  14.922
 9139W        W81564  36.366  37.103   1.711
 9140W        W81565  11.551  13.227   4.616
 9141W        W81566  30.002  26.158  12.497
 9142W        W81567  13.853  44.067   1.468
 9143W        W81568   5.966  32.801   4.117
 9144W        W81569   0.388   6.417   3.721
 9145W        W81570   4.221  35.788   0.115
 9146W        W81571  26.140  14.336   4.203
 9147W        W81572   4.190   8.186   2.081
 9148W        W81573   5.938  22.454   3.330
 9149W        W81574  16.084   4.493   0.272
 9150W        W81575  23.188  43.203  13.622
 9151W        W81576  31.001  40.564  12.070
 9152W        W81577  14.250   4.854   0.652
 9153W        W81578   5.524  29.237   4.552
 9154W        W81579  16.878  15.433   1.330
 9155W        W81580   1.888  33.107   1.904
 9156W        W81581  25.439   4.465  13.393
 9157W        W81582  18.016   1.771   3.217
 9158W        W81583  38.814  42.420  11.064
 9159W        W81584  43.410  32.638   2.353
 9160W        W81585  42.050   0.381  11.636
 9161W        W81586  12.243  35.013  12.129
 9162W        W81587   0.127  43.904   1.168
 9163W        W81588  17.639  31.294   4.845
 9164W        W81589  44.751  10.427  10.291
 9165W        W81590  25.235  25.609   4.051
 9166W        W81591  22.827   2.831  12.018
 9167W        W81592   1.876  39.124  14.927
 9168W        W81593  29.524  42.704   3.257
 9169W        W81594  37.479  31.296  10.656
 9170W        W81595  24.561  10.099   4.190
 9171W        W81596   9.403  21.879  13.469
 9172W        W81597   2.504   8.843   1.381
 9173W        W81598  38.567  20.565   0.711
 9174W        W81599  27.049  28.393   1.733
 9175W        W81600   1.912  17.356   2.783
 9176W        W81601  32.425   6.982   4.377
 9177W        W81602  26.173   2.907   2.856
 9178W        W81603  13.840   2.299   0.356
 9179W        W81604  28.036  13.163  10.552
 9180W        W81605  29.690  39.909   0.822
 9181W        W81606  14.073  21.118   2.359
 9182W        W81607  20.090  13.137  10.561
 9183W        W81608  15.407  31.185  10.890
 9184W        W81609  36.549  26.956   1.411
 9185W        W81610  14.178  32.235  12.023
 9186W        W81611  27.928  24.132  12.191
 9187W        W81612   5.252  42.020   2.803
 9188W        W81613  31.418   9.952  10.415
 9189W        W81614  31.319  41.364  13.890
 9190W        W81615  43.205  14.614   3.588
 9191W        W81616  19.340  38.954   4.657
 9192W        W81617  14.674  38.055   3.686
 9193W        W81618  37.966  12.769  12.591
 9194W        W81619  21.064   8.611  14.363
 9195W        W81620  18.334  27.459  14.602
 9196W        W81621  15.609  37.111  13.460
 9197W        W81622  18.218  17.143  10.752
 9198W        W81623   9.013  22.816  12.034
 9199W        W81624   3.765  18.618   0.294
 9200W        W81625  23.254  32.807  12.046
 9201W        W81626  30.066  28.051  12.325
 9202W        W81627  27.106  39.364  11.558
 9203W        W81628  32.191  26.057   0.425
 9204W        W81629  43.724  30.903  13.959
 9205W        W81630  11.229  16.848   3.249
 9206W        W81631  13.281   0.336  11.535
 9207W        W81632  28.940  25.460  12.179
 9208W        W81633   3.041  22.625  14.416
 9209W        W81634   4.809  37.121   0.101
 9210W        W81635   9.918  15.479  14.367
 9211W        W81636  38.173   9.272   2.344
 9212W        W81637   0.852  10.576  12.481
 9213W        W81638  27.763  26.238   2.831
 9214W        W81639  24.563   5.495   1.764
 9215W        W81640  43.474  19.664   2.371
 9216W        W81641  22.171  25.594   1.237
 9217W        W81642   7.398   0.296  14.393
 9218W        W81643  15.857  31.408   4.960
 9219W        W81644  37.426   5.167   3.633
 9220W        W81645  39.150  25.862  10.698
 9221W        W81646  18.697  11.255  14.111
 9222W        W81647  14.728  14.659  12.981
 9223W        W81648  38.845  22.255   3.220
 9224W        W81649  37.876  41.286   3.213
 9225W        W81650  40.775   4.776  12.154
 9226W        W81651  15.199  28.885  12.891
 9227W        W81652  20.020  14.612  14.337
 9228W        W81653   7.652  10.683   1.322
 9229W        W81654  21.511   2.348   1.706
 9230W        W81655  35.421  21.866   2.589
 9231W        W81656  22.018  10.531   2.287
 9232W        W81657  35.399  39.952  12.149
 9233W        W81658   1.491  15.732   0.261
 9234W        W81659   1.278  27.426  14.196
 9235W        W81660  32.099  14.829  13.534
 9236W        W81661  19.264  14.875  13.934
 9237W        W81662  22.632  37.474   0.451
 9238W        W81663   4.874  33.084  14.249
 9239W        W81664  12.751  23.677   1.189
 9240W        W81665   6.700  16.337   3.656
 9241W        W81666  23.197   0.849  12.038
 9242W        W81667   6.238  44.743  14.021
 9243W        W81668   6.797  23.301  12.314
 9244W        W81669  19.580  27.930  14.297
 9245W        W81670  25.000  36.069  10.763
 9246W        W81671  24.446  42.028   4.089
 9247W        W81672  35.337  25.023   9.722
 9248W        W81673  14.772   2.062  11.158
 9249W        W81674  38.508  14.882  13.356
 9250W        W81675  34.791   5.414   4.082
 9251W        W81676   0.797   0.665   2.256
 9252W        W81677  42.524  35.708  13.010
 9253W        W81678   9.375   6.239   3.245
 9254W        W81679   8.482  29.334  11.094
 9255W        W81680  23.121  21.340  14.609
 9256W        W81681  24.931   2.984   3.433
 9257W        W81682   5.748  25.390  11.578
 9258W        W81683  10.293  40.745   2.193
 9259W        W81684  41.727   2.296   4.065
 9260W        W81685  39.380  34.113   3.682
 9261W        W81686   4.284  29.153  13.615
 9262W        W81687   7.841  38.932  11.180
 9263W        W81688   1.327   4.126   3.766
 9264W        W81689  34.534  16.488  13.055
 9265W        W81690  27.123  25.051  11.492
 9266W        W81691  30.000  13.410  14.178
 9267W        W81692  28.667   6.709  14.470
 9268W        W81693  33.125   1.467  13.602
 9269W        W81694  40.488   4.169  11.641
 9270W        W81695  38.060  24.386   2.581
 9271W        W81696  39.387   0.303   1.676
 9272W        W81697   8.760   6.641  10.211
 9273W        W81698   0.431   9.959   1.997
 9274W        W81699   4.867   6.254   0.301
 9275W        W81700  18.098  31.612  11.464
 9276W        W81701  42.464  15.451   1.713
 9277W        W81702  41.086  28.810  11.653
 9278W        W81703  11.090  32.209   4.577
 9279W        W81704  26.215   2.738   4.916
 9280W        W81705  19.307  39.478  11.503
 9281W        W81706  20.575   9.827  14.359
 9282W        W81707   4.470  43.538  12.981
 9283W        W81708  31.960  25.360   1.678
 9284W        W81709  32.638  33.093  14.103
 9285W        W81710  28.328  30.107   2.767
 9286W        W81711  22.278  20.982  13.414
 9287W        W81712  15.058  15.397  11.189
 9288W        W81713   4.558  28.634  11.529
 9289W        W81714  16.799   8.210  11.524
 9290W        W81715  40.760   2.278   4.056
 9291W        W81716  15.019  16.089  12.782
 9292W        W81717  20.300  29.393  10.743
 9293W        W81718   6.422  27.286   2.292
 9294W        W81719   5.406  21.584  13.398
 9295W        W81720  17.684  27.647  12.866
 9296W        W81721  14.326  10.703  12.491
 9297W        W81722  21.392  43.626   1.154
 9298W        W81723  39.465  22.661  12.836
 9299W        W81724  20.871  10.638  12.088
 9300W        W81725   0.373   2.255   3.205
 9301W        W81726  32.612  44.931   4.534
 9302W        W81727  13.499  33.360  11.122
 9303W        W81728  36.015  13.684  12.112
 9304W        W81729  41.009  38.935  11.126
 9305W        W81730  11.232  25.928  12.803
 9306W        W81731  38.960  27.113  10.661
 9307W        W81732  34.930  15.690  11.164
 9308W        W81733  26.867  35.818  14.466
 9309W        W81734  13.164  35.483   2.860
 9310W        W81735   0.139  14.106   4.494
 9311W        W81736  15.342  18.430  13.182
 9312W        W81737  23.195   4.204  10.601
 9313W        W81738   1.373  34.900  14.157
 9314W        W81739  25.195  44.616   4.965
 9315W        W81740  40.896  13.428   1.220
 9316W        W81741   2.198  22.806  13.937
 9317W        W81742   6.785  13.146  12.120
 9318W        W81743  25.990  37.055   4.971
 9319W        W81744  44.954  38.397   1.845
 9320W        W81745  26.174  19.012   3.738
 9321W        W81746  44.104  33.564   1.778
 9322W        W81747  17.461  28.053   3.164
 9323W        W81748  27.241  26.436  13.923
 9324W        W81749  35.794  37.517   3.082
 9325W        W81750  34.561  43.754  13.820
 9326W        W81751  33.160   2.321  10.785
 9327W        W81752   4.411  37.967   3.272
 9328W        W81753   1.844   1.970  12.584
 9329W        W81754   6.893  20.012  10.584
 9330W        W81755  20.886  19.270  11.036
 9331W        W81756   8.984  18.642   4.981
 9332W        W81757   7.350  41.008   3.637
 9333W        W81758  36.852  21.223  11.727
 9334W        W81759   0.365  14.127   1.212
 9335W        W81760   1.230  16.165   0.481
 9336W        W81761  21.275  43.103  13.324
 9337W        W81762  15.429  32.380   3.656
 9338W        W81763  12.657  27.701   3.183
 9339W        W81764  29.270   9.419   2.517
 9340W        W81765  41.673  37.439   0.860
 9341W        W81766  44.835  28.035   4.852
 9342W        W81767  38.358  25.206   3.698
 9343W        W81768  35.377  35.905  14.973
 9344W        W81769  44.101  17.169   3.703
 9345W        W81770  11.195   8.324  14.400
 9346W        W81771  28.136  17.482  13.976
 9347W        W81772  27.462  34.012   4.164
 9348W        W81773   1.566  41.757   1.181
 9349W        W81774  39.423  15.696   4.558
 9350W        W81775  11.883  16.775   2.732
 9351W        W81776  39.016  17.055  14.821
 9352W        W81777  24.485   8.592   9.714
 9353W        W81778   2.885   3.863   3.567
 9354W        W81779  20.681  34.399   1.235
 9355W        W81780  31.400  25.198   3.811
 9356W        W81781  18.602  22.740   1.199
 9357W        W81782  10.377  12.299   2.989
 9358W        W81783   4.003  41.334   1.937
 9359W        W81784  27.846   5.349  13.502
 9360W        W81785  39.007  23.607   4.103
 9361W        W81786  39.318  40.857  10.652
 9362W        W81787   6.160   4.401   0.405
 9363W        W81788  24.317  23.274   4.825
 9364W        W81789  16.313   9.398  11.250
 9365W        W81790   8.164   0.295   1.922
 9366W        W81791  13.822  34.945   0.782
 9367W        W81792  42.612  37.998  12.941
 9368W        W81793  43.816  34.415   1.297
 9369W        W81794  11.131  27.237   2.179
 9370W        W81795  11.448  13.931  11.366
 9371W        W81796  36.800  17.916   1.117
 9372W        W81797  28.056  11.367  14.594
 9373W        W81798  30.005  44.387  12.115
 9374W        W81799  14.782  26.204  12.406
 9375W        W81800  19.238  20.201   0.844
 9376W        W81801   7.452  11.380   4.746
 9377W        W81802   7.796  37.472   0.832
 9378W        W81803  13.895   8.413  13.375
 9379W        W81804  19.530  12.668  13.709
 9380W        W81805  12.261  35.156   2.416
 9381W        W81806  21.102  31.667  14.112
 9382W        W81807  31.952  15.537   0.683
 9383W        W81808   7.131  25.969   1.229
 9384W        W81809  27.397  32.954   5.005
 9385W        W81810  17.650  29.086   3.286
 9386W        W81811  42.550   3.363   1.734
 9387W        W81812  15.717  38.574  10.669
 9388W        W81813  11.659  13.024  10.496
 9389W        W81814   2.725   7.478   1.028
 9390W        W81815   0.391  29.026  11.638
 9391W        W81816  33.245   0.531   4.693
 9392W        W81817   5.034  34.789   1.354
 9393W        W81818  10.382  14.884   1.193
 9394W        W81819  38.552  25.151   4.603
 9395W        W81820  41.310  44.438  10.960
 9396W        W81821  32.964  27.461   3.746
 9397W        W81822   7.549  25.697  13.750
 9398W        W81823  10.036  12.110  12.932
 9399W        W81824  14.087   1.070  11.642
 9400W        W81825  41.764  33.372   4.943
 9401W        W81826  31.594  35.981  14.861
 9402W        W81827  19.605  35.507   4.409
 9403W        W81828   5.213  41.520   3.954
 9404W        W81829   9.378  32.050   4.651
 9405W        W81830  25.555   3.288  10.675
 9406W        W81831  30.475  44.319  10.969
 9407W        W81832  39.321  33.812  11.184
 9408W        W81833  25.149  39.539   1.743
 9409W        W81834  26.193  12.848  13.056
 9410W        W81835  41.931  25.285   0.426
 9411W        W81836  36.832   2.358   3.021
 9412W        W81837   3.006  28.551  13.350
 9413W        W81838  23.229  44.234  12.018
 9414W        W81839  15.887   6.701   1.189
 9415W        W81840  43.286   2.553  13.924
 9416W        W81841  20.645  25.858   2.829
 9417W        W81842  18.526  24.281   4.046
 9418W        W81843   4.751  34.931  11.926
 9419W        W81844  29.275  30.108   1.754
 9420W        W81845   7.380   5.355  11.040
 9421W        W81846  37.504  24.710   2.004
 9422W        W81847  29.183   4.749  11.571
 9423W        W81848  18.990  33.837   2.424
 9424W        W81849  38.600  24.469   4.980
 9425W        W81850  31.897   0.748   2.200
 9426W        W81851  22.014   8.916   1.877
 9427W        W81852  33.391  41.728   2.724
 9428W        W81853   5.832  42.477   0.258
 9429W        W81854  11.124  17.676  11.556
 9430W        W81855   4.838  44.312   2.372
 9431W        W81856  13.715  15.388   2.775
 9432W        W81857  38.380  42.166  13.717
 9433W        W81858  17.512   6.935   3.074
 9434W        W81859  16.057   7.379   2.669
 9435W        W81860  33.976  27.947   4.334
 9436W        W81861  20.753  16.579   1.270
 9437W        W81862  32.886  31.518  14.838
 9438W        W81863  18.702  39.053  12.488
 9439W        W81864  41.922  39.303   4.596
 9440W        W81865  28.450  28.612   2.684
 9441W        W81866   4.861  33.970   4.920
 9442W        W81867  16.573  44.365   1.457
 9443W        W81868  36.033  13.757  10.893
 9444W        W81869  42.555  32.562  14.766
 9445W        W81870  44.682   7.848  13.833
 9446W        W81871  36.914  23.637  11.052
 9447W        W81872  19.280  40.540   0.899
 9448W        W81873  35.933  24.523  13.603
 9449W        W81874  24.723   0.319   3.643
 9450W        W81875  27.096  31.811  11.835
 9451W        W81876   9.563   9.803   3.518
 9452W        W81877  36.521  13.984   1.749
 9453W        W81878  27.490   2.183  13.310
 9454W        W81879  11.735  11.681  10.898
 9455W        W81880  40.416   3.935   4.906
 9456W        W81881  42.327   0.485  14.392
 9457W        W81882  29.532   1.820   3.657
 9458W        W81883  12.776  18.842   0.375
 9459W        W81884  23.515  33.919  14.828
 9460W        W81885  29.997   3.340  11.852
 9461W        W81886  35.588  18.634   0.286
 9462W        W81887  42.979   5.292   1.920
 9463W        W81888   2.438   6.380   3.725
 9464W        W81889   4.714  39.926   1.143
 9465W        W81890  10.710  12.647  10.733
 9466W        W81891   3.795  37.625  13.562
 9467W        W81892   9.583   8.371   1.299
 9468W        W81893   1.821  24.000  11.136
 9469W        W81894  18.118   1.925   1.448
 9470W        W81895  36.173  44.351  13.144
 9471W        W81896   2.952  43.180  13.877
 9472W        W81897  38.008  31.168   1.369
 9473W        W81898  18.340  34.809   3.230
 9474W        W81899  32.063  19.805  12.381
 9475W        W81900  21.015  36.164   2.683
 9476W        W81901   4.075  22.610  14.383
 9477W        W81902  12.261  21.421   4.290
 9478W        W81903   9.940   4.912   4.150
 9479W        W81904  43.906  33.869  14.875
 9480W        W81905  28.435  40.320   2.724
 9481W        W81906   2.487  19.030  12.115
 9482W        W81907  36.467  17.017  12.503
 9483W        W81908  11.404  34.926   0.084
 9484W        W81909  10.250  18.445  13.877
 9485W        W81910  31.083  21.668  12.343
 9486W        W81911  42.183  38.932   1.899
 9487W        W81912   6.867  35.005   2.186
 9488W        W81913   3.513  24.558  12.586
 9489W        W81914   9.275  39.276   0.275
 9490W        W81915  12.071  10.178  12.889
 9491W        W81916   4.149  17.056   1.300
 9492W        W81917  14.375  16.603  13.105
 9493W        W81918  38.401  13.846   4.657
 9494W        W81919  16.782  38.478  13.255
 9495W        W81920  26.596  25.404  14.798
 9496W        W81921  13.872  40.388   3.293
 9497W        W81922  18.213  17.751  10.785
 9498W        W81923   8.374  11.367  11.568
 9499W        W81924  21.179  43.777  13.016
 9500W        W81925  22.525  13.230   1.248
 9501W        W81926  23.254   4.273   4.490
 9502W        W81927  42.931  43.150   4.885
 9503W        W81928   3.638   3.308   2.405
 9504W        W81929  23.505  14.666   1.288
 9505W        W81930  10.211   6.224  11.514
 9506W        W81931  22.401  27.830  10.670
 9507W        W81932  10.897  23.277   3.521
 9508W        W81933  17.418  43.800   2.009
 9509W        W81934   3.981  37.269   4.520
 9510W        W81935  31.527  43.912   2.399
 9511W        W81936   7.310  35.512   1.200
 9512W        W81937  26.835  29.167   1.424
 9513W        W81938  44.873  21.687  13.451
 9514W        W81939  11.671  38.077   3.223
 9515W        W81940  11.478  22.711   2.600
 9516W        W81941   3.865  27.635   0.826
 9517W        W81942  26.470  42.309   2.344
 9518W        W81943   1.991  16.342   1.147
 9519W        W81944  44.289  21.141   5.038
 9520W        W81945  20.683   2.207  10.747
 9521W        W81946  20.637  27.497   0.992
 9522W        W81947  34.282  36.388   4.807
 9523W        W81948  24.617  18.404  10.488
 9524W        W81949  16.821  22.101   4.128
 9525W        W81950  14.873  12.384  11.991
 9526W        W81951  38.068  40.096   0.336
 9527W        W81952  14.138  38.135  10.362
 9528W        W81953  32.200  37.657  13.497
 9529W        W81954  24.999   8.266   3.351
 9530W        W81955  28.700  28.487   1.371
 9531W        W81956  36.520  16.387  12.130
 9532W        W81957  20.717  32.795  10.905
 9533W        W81958  35.370   6.642  11.435
 9534W        W81959  33.974  42.431   3.171
 9535W        W81960  11.368  18.661  13.422
 9536W        W81961   4.875  12.137  10.907
 9537W        W81962  40.039  14.917  13.495
 9538W        W81963  35.595  13.909  11.256
 9539W        W81964  33.396  19.049   4.531
 9540W        W81965  32.363  40.791   1.465
 9541W        W81966  21.016  43.979   1.316
 9542W        W81967   8.714  34.747   0.851
 9543W        W81968  25.110   2.392   0.956
 9544W        W81969  11.752  26.549  10.906
 9545W        W81970  29.458  32.109   2.742
 9546W        W81971  30.240  22.492  12.017
 9547W        W81972  36.812  34.488  14.078
 9548W        W81973  32.942  18.138   5.535
 9549W        W81974  31.023  36.355   2.651
 9550W        W81975  29.541  28.121   3.087
 9551W        W81976  13.724   5.219  11.115
 9552W        W81977  40.635  21.141   3.228
 9553W        W81978  13.540  38.943  10.740
 9554W        W81979  22.620  37.310  12.659
 9555W        W81980  20.311   5.610   1.970
 9556W        W81981  20.745  23.218   3.762
 9557W        W81982  33.122  30.869   2.446
 9558W        W81983  23.542  34.364  12.537
 9559W        W81984  36.862  14.696   4.241
 9560W        W81985  40.655  40.537   0.421
 9561W        W81986  36.829   0.454   3.305
 9562W        W81987  42.774  32.588  10.776
 9563W        W81988   2.237  17.284   2.390
 9564W        W81989  24.031   7.874  11.019
 9565W        W81990  27.875  36.955   2.868
 9566W        W81991  34.028  35.598  12.116
 9567W        W81992   9.816  33.077   2.482
 9568W        W81993  29.610   1.254   4.350
 9569W        W81994   1.930  22.676  13.499
 9570W        W81995   2.003  14.813   2.247
 9571W        W81996  34.010   4.413  13.010
 9572W        W81997   2.151  39.436  11.167
 9573W        W81998   1.961  39.974   2.764
 9574W        W81999  13.124  23.978  11.934
 9575W        W82000  24.198   8.526   1.400
 9576W        W82001  39.909  34.698  14.152
 9577W        W82002  30.172  21.115   4.096
 9578W        W82003   6.239  35.087  12.129
 9579W        W82004  42.013  19.927  13.321
 9580W        W82005  30.934  29.855   3.201
 9581W        W82006  14.309  23.921  11.721
 9582W        W82007  22.533   7.470   4.623
 9583W        W82008   9.853  39.072  13.028
 9584W        W82009  38.559  38.996   3.195
 9585W        W82010  13.037  31.597  13.348
 9586W        W82011  24.596  24.136   3.705
 9587W        W82012   2.421  35.515   2.009
 9588W        W82013  41.068  11.251  12.488
 9589W        W82014   9.853  31.414   3.195
 9590W        W82015  30.039  32.854  13.431
 9591W        W82016  29.305  27.832   3.716
 9592W        W82017  31.950  43.339  14.604
 9593W        W82018  12.839  13.625   3.683
 9594W        W82019  43.554  12.105   4.110
 9595W        W82020  34.020  32.653   1.801
 9596W        W82021  38.567  11.994  11.469
 9597W        W82022   5.457  12.273   2.206
 9598W        W82023   2.785  26.915  11.310
 9599W        W82024   6.742  25.039  11.722
 9600W        W82025  36.298  44.914   0.316
 9601W        W82026   7.930   8.752  11.703
 9602W        W82027  36.901   4.796  11.109
 9603W        W82028  37.400  18.062  13.514
 9604W        W82029  27.727  23.464  13.876
 9605W        W82030   1.969  41.225  12.707
 9606W        W82031   2.267   1.399  13.841
 9607W        W82032  33.904  30.875   1.298
 9608W        W82033   4.417  23.607  10.739
 9609W        W82034   2.980  35.931   4.099
 9610W        W82035   3.790  19.687  14.811
 9611W        W82036   5.454   3.688  12.104
 9612W        W82037  34.108  36.051  14.442
 9613W        W82038  29.471  42.472   4.232
 9614W        W82039  25.212  11.750  12.605
 9615W        W82040  31.159  34.578  12.697
 9616W        W82041  31.085  44.785   0.805
 9617W        W82042   6.115  22.451  13.594
 9618W        W82043  10.730  27.226   4.963
 9619W        W82044  36.417  17.093   9.964
 9620W        W82045  15.817  26.566  11.570
 9621W        W82046   8.708  34.173   1.553
 9622W        W82047  29.972  29.235  12.619
 9623W        W82048   3.414  25.238  13.797
 9624W        W82049  42.417  36.784  11.979
 9625W        W82050  44.109  10.255  13.916
 9626W        W82051  14.805   5.363  11.203
 9627W        W82052  28.292  11.855  14.706
 9628W        W82053  21.475  36.553   1.781
 9629W        W82054  40.919  36.850   4.645
 9630W        W82055  26.208  43.346  14.997
 9631W        W82056  32.612  16.261  14.776
 9632W        W82057   8.152   8.390   1.439
 9633W        W82058   7.101  35.495   4.730
 9634W        W82059  11.159   1.250  10.739
 9635W        W82060  39.438  16.631   0.024
 9636W        W82061   8.843  28.978  12.304
 9637W        W82062  33.098  43.935  12.504
 9638W        W82063  30.456   3.951   4.194
 9639W        W82064  25.469  41.425   0.930
 9640W        W82065   4.796   7.154  11.657
 9641W        W82066  32.664  21.635   0.521
 9642W        W82067  44.399  10.783   0.970
 9643W        W82068  20.778  43.205   3.661
 9644W        W82069   4.633  42.955  10.017
 9645W        W82070  31.630   6.689  13.067
 9646W        W82071  41.312  35.039   1.959
 9647W        W82072  40.420   9.777  14.325
 9648W        W82073  17.595  27.939  10.664
 9649W        W82074  35.647  41.462   4.747
 9650W        W82075  36.924  29.051  13.792
 9651W        W82076  22.173   4.205   3.532
 9652W        W82077   5.242  26.724   2.406
 9653W        W82078   4.743  37.594  12.359
 9654W        W82079  20.047  22.049   4.236
 9655W        W82080  22.571   1.918   2.307
 9656W        W82081  37.579   6.409  13.395
 9657W        W82082  10.261  33.392   2.326
 9658W        W82083  10.209  15.850  11.121
 9659W        W82084   4.199  41.467   2.423
 9660W        W82085  24.136  32.600   3.970
 9661W        W82086   4.911  30.802   1.964
 9662W        W82087  25.916   6.460   0.265
 9663W        W82088   0.811  42.222   3.432
 9664W        W82089   4.236   4.992   0.088
 9665W        W82090  38.966  26.574  12.775
 9666W        W82091  38.329  40.911   4.178
 9667W        W82092  40.565  34.439  13.485
 9668W        W82093  19.856  42.404   0.518
 9669W        W82094  32.285  15.453  12.943
 9670W        W82095   7.286   3.769  12.919
 9671W        W82096  11.836  41.483  12.432
 9672W        W82097  42.707   1.348  13.856
 9673W        W82098  44.179   9.870  12.461
 9674W        W82099  15.461  15.003   1.431
 9675W        W82100  22.632   9.723  12.814
 9676W        W82101  30.174  40.408  14.486
 9677W        W82102  31.167  20.065  10.386
 9678W        W82103  42.056  17.718  10.733
 9679W        W82104  34.003  29.711  13.019
 9680W        W82105   0.807  24.769  10.770
 9681W        W82106  20.761  37.981   0.235
 9682W        W82107   5.687  19.023  14.716
 9683W        W82108  26.489  28.687   2.837
 9684W        W82109  17.825  30.359   2.798
 9685W        W82110  39.461  12.445  14.623
 9686W        W82111  31.159  24.106   1.875
 9687W        W82112  44.343  11.831  10.651
 9688W        W82113  20.765  44.208   3.842
 9689W        W82114  19.274  34.222  13.252
 9690W        W82115  38.840  11.788   5.204
 9691W        W82116  34.342   2.913  10.715
 9692W        W82117  37.062  11.139  12.890
 9693W        W82118  41.584  40.070  12.918
 9694W        W82119  32.442  33.837  11.779
 9695W        W82120  38.288  31.980   1.034
 9696W        W82121  30.836  23.510   0.793
 9697W        W82122  37.049  42.524   3.760
 9698W        W82123  18.288  37.615  10.549
 9699W        W82124  25.882   4.199   3.199
 9700W        W82125  34.076   8.206   1.678
 9701W        W82126  30.071  16.852  11.657
 9702W        W82127  16.687  17.628  13.855
 9703W        W82128  40.477   1.952   0.976
 9704W        W82129  41.291  16.754   0.487
 9705W        W82130  32.935   6.484   3.305
 9706W        W82131  42.948  14.586  12.046
 9707W        W82132  22.206  40.048   3.314
 9708W        W82133  31.055  23.331  14.269
 9709W        W82134   4.503  19.174   2.660
 9710W        W82135   8.721  15.035  11.470
 9711W        W82136   4.560  37.459   0.826
 9712W        W82137  19.559  32.809   5.023
 9713W        W82138   3.244   7.603   2.297
 9714W        W82139  20.295   5.197   2.800
 9715W        W82140   8.833   6.158  13.406
 9716W        W82141  40.777  24.651   4.153
 9717W        W82142  12.401  35.764  13.179
 9718W        W82143  34.934  23.261  13.817
 9719W        W82144  28.922   0.830  11.532
 9720W        W82145  17.606  44.108  10.572
 9721W        W82146  12.583  24.322  13.839
 9722W        W82147   5.282   2.952   4.925
 9723W        W82148   4.546  26.272   0.758
 9724W        W82149  23.682  34.347   3.877
 9725W        W82150  10.259  11.211  12.092
 9726W        W82151  31.926  36.687  13.595
 9727W        W82152   1.013  41.042  14.823
 9728W        W82153  23.622  11.090  10.677
 9729W        W82154   9.292  11.403  14.252
 9730W        W82155   8.775  31.541   3.342
 9731W        W82156   9.842  28.596   4.844
 9732W        W82157  19.139  11.468  11.882
 9733W        W82158   9.226  38.223  10.080
 9734W        W82159  32.703  36.968   0.955
 9735W        W82160   6.495  23.019   3.657
 9736W        W82161  10.315   2.716   2.992
 9737W        W82162  13.183  13.830  14.799
 9738W        W82163   6.774  13.869  13.447
 9739W        W82164  11.089   1.631   0.924
 9740W        W82165   3.914  41.342  11.577
 9741W        W82166  42.383  31.265   0.476
 9742W        W82167  42.762   9.159   4.632
 9743W        W82168   2.414  32.120  13.495
 9744W        W82169  33.646  12.612  12.337
 9745W        W82170  33.951  12.857  13.776
 9746W        W82171  36.364  37.051  13.290
 9747W        W82172   5.671  26.914  12.561
 9748W        W82173  37.398  19.981   2.327
 9749W        W82174  10.156  44.266   3.296
 9750W        W82175  36.121  23.034   0.897
 9751W        W82176  20.914  11.897  14.625
 9752W        W82177   2.726  19.156  13.877
 9753W        W82178  12.697  22.910   4.083
 9754W        W82179   9.347  40.461  12.942
 9755W        W82180  12.401  25.048  10.856
 9756W        W82181  42.011  22.783   3.600
 9757W        W82182  12.073  41.276   1.702
 9758W        W82183  20.052  31.669   3.363
 9759W        W82184  16.881  29.815   5.021
 9760W        W82185  12.862  20.784  12.387
 9761W        W82186  37.410  32.400  10.813
 9762W        W82187  12.561  43.868  12.821
 9763W        W82188  33.571  10.958  13.279
 9764W        W82189  11.131  24.986  12.398
 9765W        W82190  44.487  42.068  11.064
 9766W        W82191  35.306  29.572   0.930
 9767W        W82192  32.969  36.843  11.223
 9768W        W82193  30.464   2.399  12.114
 9769W        W82194  31.018  28.422   0.895
 9770W        W82195  10.346  16.319   4.193
 9771W        W82196  14.093  35.703  12.125
 9772W        W82197  10.708  34.452   1.887
 9773W        W82198   1.302   5.021   1.499
 9774W        W82199  12.736   0.332   4.551
 9775W        W82200  12.448  33.167   0.805
 9776W        W82201  34.450  19.116  11.069
 9777W        W82202  39.869   1.787   4.317
 9778W        W82203  29.575  30.713   1.260
 9779W        W82204  41.525  43.954  11.186
 9780W        W82205  35.486   2.511   0.822
 9781W        W82206  24.470  29.601   3.863
 9782W        W82207  24.421  30.521  12.029
 9783W        W82208  43.888  13.948  11.234
 9784W        W82209   2.907  22.866  12.054
 9785W        W82210  14.685  33.773   0.377
 9786W        W82211  37.065  44.805  14.831
 9787W        W82212  26.539  42.809   2.194
 9788W        W82213  36.364   1.136  12.440
 9789W        W82214  30.640  24.047   2.757
 9790W        W82215  35.994   5.473  14.152
 9791W        W82216  40.771  40.076   4.228
 9792W        W82217  44.165  22.738   4.132
 9793W        W82218  31.880  28.099   0.910
 9794W        W82219  38.787  12.278   4.253
 9795W        W82220  24.253  20.161   0.390
 9796W        W82221   0.991   5.348  10.602
 9797W        W82222  18.264  18.072  14.911
 9798W        W82223  18.846  22.873  12.077
 9799W        W82224  25.475   5.199   0.592
 9800W        W82225  32.964  20.833   4.229
 9801W        W82226  43.559  26.892   3.662
 9802W        W82227  26.842   0.446  10.373
 9803W        W82228   6.238   5.337   2.320
 9804W        W82229  19.913   3.892   0.230
 9805W        W82230  44.685  30.620   3.885
 9806W        W82231  19.082  44.691   5.113
 9807W        W82232  23.480  11.697  12.990
 9808W        W82233  22.379  26.638  12.015
 9809W        W82234  27.429  12.450  14.734
 9810W        W82235  12.677  25.079  14.513
 9811W        W82236  27.843  15.675  13.485
 9812W        W82237  22.977  10.510   2.138
 9813W        W82238  12.363  21.102   2.655
 9814W        W82239   2.390   9.238   2.790
 9815W        W82240  44.430  23.586   0.518
 9816W        W82241  21.772   4.048  10.598
 9817W        W82242  12.650  20.665  14.810
 9818W        W82243  11.390  17.223   4.091
 9819W        W82244  42.085  14.622  11.130
 9820W        W82245   3.801  24.454   0.123
 9821W        W82246  12.170  22.806   3.991
 9822W        W82247  27.945  27.396   1.560
 9823W        W82248   2.290  19.641   2.778
 9824W        W82249  38.134   1.177  11.566
 9825W        W82250  15.734  43.138  10.691
 9826W        W82251  13.410  38.417  11.468
 9827W        W82252  10.911  22.700  10.869
 9828W        W82253  43.246  35.065   2.054
 9829W        W82254  35.079  16.263   1.306
 9830W        W82255  27.280  36.006  11.578
 9831W        W82256  22.640   2.227  10.657
 9832W        W82257  39.398   9.477   1.728
 9833W        W82258  34.971  25.401  11.736
 9834W        W82259   7.604  39.636  10.754
 9835W        W82260  12.347  25.035  11.366
 9836W        W82261   5.330  43.919   3.206
 9837W        W82262   3.170  13.716  11.179
 9838W        W82263  32.904  13.553  14.929
 9839W        W82264   1.516  25.418  13.034
 9840W        W82265   3.334  29.601  10.294
 9841W        W82266  13.387  33.884   2.239
 9842W        W82267  29.738  29.698   1.191
 9843W        W82268  43.563  18.151   2.338
 9844W        W82269   0.785   6.506  10.517
 9845W        W82270  42.721   5.736  12.884
 9846W        W82271  14.055  29.808   2.210
 9847W        W82272  41.545   2.552   2.887
 9848W        W82273  19.744   7.202   2.232
 9849W        W82274  27.399  36.468   1.739
 9850W        W82275  31.179  22.966  12.921
 9851W        W82276  21.071  18.704   1.891
 9852W        W82277  17.435   0.260  14.598
 9853W        W82278  16.161  20.834  11.437
 9854W        W82279  23.149  14.408   0.012
 9855W        W82280   5.851   2.213  10.583
 9856W        W82281   2.209  28.786  12.008
 9857W        W82282  38.363  23.210   2.373
 9858W        W82283  34.505  26.535  11.597
 9859W        W82284   8.868   7.683   3.408
 9860W        W82285  20.024  13.880  10.516
 9861W        W82286  24.547  33.368   3.835
 9862W        W82287  26.182  36.344   2.207
 9863W        W82288  35.106  44.215   2.888
 9864W        W82289   5.764  24.639   3.145
 9865W        W82290  22.025  28.513  10.601
 9866W        W82291  25.788  32.847   0.323
 9867W        W82292  22.213  17.663   0.389
 9868W        W82293  31.452  44.821  10.677
 9869W        W82294  31.495  35.603   0.318
 9870W        W82295  31.125  24.813  10.141
 9871W        W82296  43.907  39.864  13.872
 9872W        W82297  34.565  19.171  12.045
 9873W        W82298  28.998  42.465  10.682
 9874W        W82299  41.095   7.734   3.597
 9875W        W82300  41.427  21.641  11.014
 9876W        W82301  43.432   3.896  10.793
 9877W        W82302  29.136  22.283  10.784
 9878W        W82303  30.582   5.535  11.109
 9879W        W82304  11.670  29.654  12.628
 9880W        W82305  11.052  41.275  11.212
 9881W        W82306   0.707  44.893  11.200
 9882W        W82307  42.446  17.023  14.321
 9883W        W82308  40.096   0.882   0.862
 9884W        W82309  27.612  21.888  14.755
 9885W        W82310  34.491  13.876   1.348
 9886W        W82311  20.104  38.281   4.333
 9887W        W82312  20.681  39.470  11.606
 9888W        W82313  27.735  39.003   4.722
 9889W        W82314   4.730  35.643  11.152
 9890W        W82315  36.131  11.109   1.230
 9891W        W82316  21.048  11.541   3.695
 9892W        W82317   8.146  24.660   4.555
 9893W        W82318  39.429  32.591  13.462
 9894W        W82319   8.353  34.321  14.335
 9895W        W82320  43.362  13.421  12.453
 9896W        W82321   5.677  18.183  12.970
 9897W        W82322  33.085   6.626  12.888
 9898W        W82323  11.156  21.961   2.380
 9899W        W82324  25.749  29.410   3.509
 9900W        W82325  10.791  29.236  14.594
 9901W        W82326  20.874  38.947  10.945
 9902W        W82327  18.019  19.448   2.403
 9903W        W82328  21.214  18.687   2.383
 9904W        W82329  16.570  42.776   2.347
 9905W        W82330  43.983  34.449  13.153
 9906W        W82331   8.350  36.907   2.415
 9907W        W82332  30.738   8.841   2.495
 9908W        W82333  27.686  16.340   2.198
 9909W        W82334  21.724  29.230  12.069
 9910W        W82335   3.807  21.152  14.551
 9911W        W82336  43.898   3.914  12.140
 9912W        W82337  44.643  27.273   4.098
 9913W        W82338   6.382  39.301  11.109
 9914W        W82339  44.992  34.970   2.356
 9915W        W82340   8.659  42.122  10.669
 9916W        W82341  37.922   9.254   1.200
 9917W        W82342  43.882  44.414   4.771
 9918W        W82343  42.295  37.238  13.372
 9919W        W82344  17.219  33.476   0.994
 9920W        W82345  23.586   0.335  12.529
 9921W        W82346   7.691  16.062   0.622
 9922W        W82347  26.942  37.593   4.903
 9923W        W82348  16.816  38.020   3.395
 9924W        W82349  35.501  15.844   0.865
 9925W        W82350  41.239  35.617  14.281
 9926W        W82351  29.989   3.128   2.506
 9927W        W82352  33.640  24.604  11.141
 9928W        W82353  16.246   3.768   1.304
 9929W        W82354  44.552   0.539  11.531
 9930W        W82355  31.237  11.480  14.779
 9931W        W82356   5.919  11.303   4.672
 9932W        W82357  28.674  36.172  12.965
 9933W        W82358  38.379  12.166  13.653
 9934W        W82359  19.833  24.236   1.421
 9935W        W82360  27.882  15.611  10.499
 9936W        W82361  11.693  44.153   4.261
 9937W        W82362  23.152  11.206   2.401
 9938W        W82363  25.690  27.378   4.576
 9939W        W82364  19.584  29.826   5.156
 9940W        W82365  23.913  39.983   0.469
 9941W        W82366  42.926  14.673   1.866
 9942W        W82367  35.490   8.556  12.786
 9943W        W82368  29.298  31.221   0.527
 9944W        W82369  33.991  28.941   3.663
 9945W        W82370  34.039  25.454  11.266
 9946W        W82371  15.716  17.038  12.174
 9947W        W82372  10.132  13.811   3.196
 9948W        W82373  21.276  20.096   3.622
 9949W        W82374   1.653  24.493  13.274
 9950W        W82375  44.458  43.950  10.004
 9951W        W82376  20.758   0.743  13.859
 9952W        W82377   3.551  38.641   2.467
 9953W        W82378  18.073  43.463   3.352
 9954W        W82379  33.986  10.276  14.788
 9955W        W82380  30.375   4.220  14.942
 9956W        W82381  44.932  33.885   4.163
 9957W        W82382  14.344  16.622   1.480
 9958W        W82383  30.955  18.946  14.106
 9959W        W82384  18.566  38.089   0.536
 9960W        W82385  37.343  26.161  14.911
 9961W        W82386  29.146   6.360   3.321
 9962W        W82387  39.963  21.565   4.836
 9963W        W82388  18.403   8.841   4.880
 9964W        W82389   8.619  32.231  11.151
 9965W        W82390  34.043  21.554   0.269
 9966W        W82391  23.459  14.819   0.200
 9967W        W82392  31.767  27.626   0.278
 9968W        W82393  31.079  30.537  11.168
 9969W        W82394  15.623   8.283   1.954
 9970W        W82395  26.118  42.490   4.387
 9971W        W82396  15.768  25.267   2.495
 9972W        W82397  41.981  35.073  12.934
 9973W        W82398   4.883  24.012   1.247
 9974W        W82399  42.286   5.038   3.796
 9975W        W82400  39.815  13.811   2.726
 9976W        W82401  21.765  36.075   3.147
 9977W        W82402  34.298  32.133   2.951
 9978W        W82403  15.235  15.673  12.539
 9979W        W82404  41.532  31.437   3.757
 9980W        W82405   7.575  42.365   3.845
 9981W        W82406   1.802   0.894   3.924
 9982W        W82407  40.079  13.082   0.083
 9983W        W82408  14.842  25.501  13.828
 9984W        W82409  20.305  23.177  12.101
 9985W        W82410  41.712  27.727   2.106
 9986W        W82411   9.065  35.074  13.822
 9987W        W82412   4.431  17.049  14.777
 9988W        W82413  41.819  11.618   4.640
 9989W        W82414  29.049  26.932   4.146
 9990W        W82415  22.604  41.100  10.732
 9991W        W82416  33.571   9.731   2.948
 9992W        W82417   9.767  32.159   1.953
 9993W        W82418  29.006  42.266  11.162
 9994W        W82419  25.052  37.804   0.459
 9995W        W82420   5.319  30.706  12.871
 9996W        W82421  20.224   1.917  11.582
 9997W        W82422  33.631  31.805  10.750
 9998W        W82423   4.685  15.086   4.211
 9999W        W82424  22.966  15.590   2.301
10000W        W82425  35.272  19.809  13.048
10001W        W82426  32.154  20.044   2.347
10002W        W82427  32.857  21.513   1.898
10003W        W82428  12.513  26.611   3.637
10004W        W82429  41.523  39.827  10.488
10005W        W82430  25.136  44.901   1.297
10006W        W82431   0.931  29.561   9.964
10007W        W82432  16.738  19.921  13.275
10008W        W82433   5.648   5.699  13.076
10009W        W82434   6.235  33.906  11.504
10010W        W82435   4.760  37.183   4.665
10011W        W82436  13.834  37.400   2.586
10012W        W82437   8.113  39.984   1.079
10013W        W82438  26.601   5.368   4.408
10014W        W82439  36.721  16.296  13.020
10015W        W82440  28.082  20.058  13.366
10016W        W82441  14.795  27.893   2.983
10017W        W82442   6.289   2.949   1.069
10018W        W82443  28.723   8.423  12.676
10019W        W82444  34.417  35.249   0.704
10020W        W82445  18.794   0.907  11.586
10021W        W82446  24.126   9.732   5.150
10022W        W82447   9.633  21.572  13.121
10023W        W82448  16.037  22.197  10.844
10024W        W82449  22.204   1.707   0.392
10025W        W82450  11.042   6.252   2.904
10026W        W82451  35.081  35.941  13.528
10027W        W82452  38.470  18.250   1.655
10028W        W82453  38.617  29.203   2.245
10029W        W82454  21.696  37.302   2.836
10030W        W82455  43.470  23.187   3.083
10031W        W82456  30.826   3.023   0.800
10032W        W82457  43.489  11.684  12.083
10033W        W82458   3.378  23.047  13.337
10034W        W82459  14.633   9.359  12.956
10035W        W82460  32.930  25.039   0.876
10036W        W82461  32.405  37.331   0.181
10037W        W82462  16.649  11.048   2.214
10038W        W82463  42.408  19.529   2.427
10039W        W82464  10.609  42.491  11.484
10040W        W82465   5.140   0.166   0.868
10041W        W82466  36.455  25.158   2.861
10042W        W82467   6.410  39.620  13.001
10043W        W82468  44.190  42.374  11.805
10044W        W82469  44.238  37.832   1.605
10045W        W82470   0.653  11.808   4.576
10046W        W82471  31.186  39.053   1.939
10047W        W82472  40.907  10.321  14.125
10048W        W82473  35.854  11.076  12.998
10049W        W82474  28.130  26.566   2.120
10050W        W82475  26.734  15.169   4.641
10051W        W82476  40.114  13.721  13.053
10052W        W82477  29.922  41.413   4.510
10053W        W82478   9.854  31.990   0.921
10054W        W82479   6.241  19.239   4.331
10055W        W82480  20.630  15.204  13.846
10056W        W82481   6.135  27.647  11.483
10057W        W82482   9.325  28.232   2.895
10058W        W82483  16.805   1.474  10.589
10059W        W82484  10.412  44.373  10.370
10060W        W82485   6.806  14.864   2.760
10061W        W82486  41.616  22.195   3.106
10062W        W82487  40.968  16.029   0.764
10063W        W82488  12.013  24.380   4.125
10064W        W82489   7.892  15.538  11.589
10065W        W82490  10.622   6.451  13.849
10066W        W82491  31.057   9.865  12.482
10067W        W82492   0.822  24.178  12.968
10068W        W82493  28.951   4.109   3.192
10069W        W82494  19.570  32.936  14.388
10070W        W82495  10.069  30.720   0.095
10071W        W82496  36.314   5.536  10.421
10072W        W82497  44.440  21.392   4.615
10073W        W82498   6.135   9.849   1.063
10074W        W82499  28.016  18.175  11.450
10075W        W82500  23.678  36.592   0.261
10076W        W82501  21.184  40.514  13.284
10077W        W82502  33.112   5.862  11.148
10078W        W82503  12.181  23.651  13.441
10079W        W82504  33.634  19.276  14.399
10080W        W82505  33.069  38.297  13.485
10081W        W82506  22.695  27.873   2.332
10082W        W82507   4.903  19.936   2.273
10083W        W82508  22.762  32.578  14.383
10084W        W82509   9.035  23.964   0.873
10085W        W82510  39.057  34.188  13.918
10086W        W82511   4.372  12.424  11.697
10087W        W82512  25.212  37.722  13.007
10088W        W82513  36.477  36.290   2.338
10089W        W82514  19.795  29.031   0.485
10090W        W82515  44.835  32.468   4.445
10091W        W82516  13.478   3.623  12.506
10092W        W82517   0.459  15.380   4.118
10093W        W82518  38.305  32.465   0.657
10094W        W82519  33.468  22.169  14.418
10095W        W82520  29.593  39.369   1.572
10096W        W82521  36.118   7.341   2.029
10097W        W82522   7.833  37.134  14.276
10098W        W82523  16.749  18.108   0.790
10099W        W82524  38.229  25.426  13.350
10100W        W82525  33.152  20.558   3.703
10101W        W82526  34.451  14.364  11.254
10102W        W82527  16.284  22.620  10.655
10103W        W82528   1.928  29.938  12.001
10104W        W82529  24.682  21.050   2.766
10105W        W82530  20.745  17.703  11.142
10106W        W82531  11.777  23.999   4.375
10107W        W82532  10.253   6.819  12.921
10108W        W82533   2.304  22.713   1.638
10109W        W82534  10.517  30.817   4.103
10110W        W82535   4.777  29.784   1.835
10111W        W82536  23.773  29.912  12.966
10112W        W82537  29.893  43.331  14.515
10113W        W82538  15.542  22.582  10.354
10114W        W82539  18.686  13.140   0.262
10115W        W82540  13.749  35.929  14.438
10116W        W82541  24.487  31.236  14.698
10117W        W82542  31.005  16.566  11.883
10118W        W82543  13.760  35.611  12.913
10119W        W82544  36.426  27.113   4.174
10120W        W82545   8.631  34.237  12.580
10121W        W82546  18.580   6.911  10.675
10122W        W82547  34.976   9.504  14.133
10123W        W82548  18.636   8.723   2.776
10124W        W82549  20.960  22.097  12.824
10125W        W82550  10.914  25.576   1.743
10126W        W82551  13.262  27.664  12.374
10127W        W82552  15.211   6.092   1.783
10128W        W82553  41.755  42.679   4.090
10129W        W82554  34.065  31.515  10.841
10130W        W82555   6.879   4.280   0.733
10131W        W82556  39.556  41.940  10.641
10132W        W82557   4.429   5.196   4.632
10133W        W82558  40.523   7.216  14.440
10134W        W82559   6.048  21.443   1.147
10135W        W82560  38.156  10.831   0.395
10136W        W82561  39.591   6.709   0.177
10137W        W82562  21.477  22.113  13.018
10138W        W82563   7.665   7.071   3.270
10139W        W82564  25.303  21.482   4.270
10140W        W82565  36.543  18.147  11.876
10141W        W82566  43.764   3.688  12.578
10142W        W82567  32.698  22.220   3.301
10143W        W82568  18.030  16.174   0.104
10144W        W82569   7.945  14.345  14.251
10145W        W82570  34.673   4.284  12.275
10146W        W82571  40.569  18.355  14.914
10147W        W82572  16.102  32.592  12.731
10148W        W82573  36.809  12.583   3.367
10149W        W82574  17.193  21.778  14.056
10150W        W82575  33.886  42.796  11.122
10151W        W82576  28.650  19.133  13.945
10152W        W82577  32.265  18.364   3.489
10153W        W82578  26.023  43.951  10.423
10154W        W82579  32.900  42.773  14.888
10155W        W82580   9.935   5.457   2.927
10156W        W82581  39.070  31.950   3.942
10157W        W82582  38.059   4.810  12.194
10158W        W82583  34.632  20.616   2.809
10159W        W82584  20.014   5.864   0.670
10160W        W82585  36.092   8.347   4.283
10161W        W82586  29.247   5.942  12.101
10162W        W82587  28.458  25.760  10.567
10163W        W82588   6.156  32.665   4.595
10164W        W82589  36.789  25.684  10.783
10165W        W82590  17.825  14.937  13.857
10166W        W82591  16.269  18.805  12.886
10167W        W82592  12.350  37.848  11.941
10168W        W82593   7.460  43.602   4.091
10169W        W82594  10.343  43.797  14.851
10170W        W82595   7.449   4.682   1.767
10171W        W82596  24.087  11.175  14.987
10172W        W82597   9.324  15.460   1.069
10173W        W82598  42.436  25.140   1.232
10174W        W82599  20.362  15.067   3.232
10175W        W82600  40.096  31.917  14.970
10176W        W82601  38.107   2.238  14.770
10177W        W82602  44.845  38.040  14.804
10178W        W82603  30.164  19.518  12.058
10179W        W82604  39.430  25.482   4.181
10180W        W82605  33.402  22.595   3.706
10181W        W82606  31.648  12.534  13.677
10182W        W82607  23.957  43.975   4.542
10183W        W82608  10.284  23.171  13.524
10184W        W82609  17.085  12.363  12.942
10185W        W82610  12.857  41.052   4.529
10186W        W82611  19.926  16.712  12.848
10187W        W82612   4.347   9.977  10.516
10188W        W82613  26.888  26.402   1.728
10189W        W82614   4.883  15.750  13.742
10190W        W82615  28.965  29.565   1.725
10191W        W82616  43.946   3.261  14.829
10192W        W82617  28.937   7.322   0.123
10193W        W82618   7.750   6.164  10.853
10194W        W82619  20.734  24.331  13.603
10195W        W82620  32.233  34.999   0.335
10196W        W82621  26.372  32.433   3.774
10197W        W82622  32.682  36.389  14.723
10198W        W82623   9.274  31.626  13.530
10199W        W82624  20.042   6.344   3.670
10200W        W82625   7.404  13.817   3.204
10201W        W82626   1.227  40.530   2.848
10202W        W82627  10.626  26.571  14.611
10203W        W82628   0.385   9.271  11.399
10204W        W82629  27.115  35.562   0.743
10205W        W82630  32.013  31.451   0.274
10206W        W82631  11.607  15.335  11.186
10207W        W82632   7.908   9.207   3.174
10208W        W82633   3.835  17.553   0.400
10209W        W82634   4.191   4.411  11.029
10210W        W82635   1.524  19.633  13.619
10211W        W82636  28.617  27.613  12.045
10212W        W82637   8.345  39.689  11.116
10213W        W82638   1.428   4.855  11.619
10214W        W82639  33.655  14.767  14.433
10215W        W82640   0.909  44.028  11.208
10216W        W82641  15.780  32.055  13.018
10217W        W82642   8.171  22.452   0.243
10218W        W82643  18.879  19.889   0.131
10219W        W82644  14.411  17.358   2.239
10220W        W82645   7.391  15.091   2.241
10221W        W82646  12.013  30.211  14.005
10222W        W82647  27.427   6.051  11.137
10223W        W82648  42.526  34.770   4.133
10224W        W82649  20.025  22.424  10.407
10225W        W82650  40.329  21.770  12.983
10226W        W82651  41.869  14.122   4.942
10227W        W82652   7.867   3.007   4.482
10228W        W82653   1.293  34.652  11.408
10229W        W82654  41.556  28.154   0.191
10230W        W82655  10.674  11.192   2.113
10231W        W82656   6.789  43.386  12.566
10232W        W82657  32.083  39.048   0.989
10233W        W82658   6.952  27.761  11.170
10234W        W82659  18.043  27.843   4.139
10235W        W82660  23.573   6.794  11.597
10236W        W82661  23.079  30.039  13.792
10237W        W82662  15.088  11.894  11.096
10238W        W82663  42.881   1.725  12.029
10239W        W82664  10.134  44.867   4.585
10240W        W82665  21.237   2.903  10.464
10241W        W82666  34.465  36.448  11.215
10242W        W82667   8.340  40.461   0.492
10243W        W82668  35.837  20.593   1.427
10244W        W82669  16.334  41.234   3.404
10245W        W82670   4.752   0.479   0.725
10246W        W82671  33.009  25.955   3.680
10247W        W82672  10.577  22.197   3.222
10248W        W82673  12.545   9.058  11.000
10249W        W82674   8.246  13.291  14.766
10250W        W82675  12.353  24.250   2.258
10251W        W82676  21.272  23.714   1.729
10252W        W82677   2.258  38.968   2.756
10253W        W82678  15.528   0.479   3.751
10254W        W82679  42.465  15.904   4.817
10255W        W82680  24.974  15.514  12.129
10256W        W82681   8.840  32.602   4.209
10257W        W82682  16.521  37.987   1.569
10258W        W82683  41.731  19.726   4.966
10259W        W82684  21.542  26.664   0.995
10260W        W82685   5.648  38.914   1.163
10261W        W82686  23.539  26.540  13.397
10262W        W82687  32.144  16.393   2.806
10263W        W82688   0.550  25.504  13.024
10264W        W82689  39.531  38.837   2.318
10265W        W82690   6.322   1.941  10.659
10266W        W82691  30.834  19.865   2.984
10267W        W82692  11.112   4.756  10.550
10268W        W82693  35.606  38.360  12.947
10269W        W82694   0.242  10.900  14.325
10270W        W82695  33.952   8.868   1.473
10271W        W82696  42.563  14.663  13.900
10272W        W82697   2.884  44.850  11.578
10273W        W82698  25.105  40.239  14.836
10274W        W82699  18.514   3.977  11.979
10275W        W82700  15.890  25.082  14.890
10276W        W82701  31.085  35.412   2.143
10277W        W82702  33.171  38.107   2.348
10278W        W82703  34.557  31.577   0.902
10279W        W82704  33.639   8.867   2.310
10280W        W82705  29.549  10.695  14.862
10281W        W82706   5.773   3.858  10.708
10282W        W82707  21.122  23.368  14.059
10283W        W82708  13.596  32.613  11.461
10284W        W82709  14.306  23.438   1.744
10285W        W82710   9.806  43.510  12.124
10286W        W82711  13.145  22.563  13.514
10287W        W82712   6.370  16.736   4.615
10288W        W82713  31.590  39.009  14.521
10289W        W82714  34.668  27.162   1.248
10290W        W82715   3.537   7.802  10.524
10291W        W82716  26.425  43.043  13.333
10292W        W82717  17.378  41.600   3.562
10293W        W82718  41.347  36.475   1.205
10294W        W82719   2.276  28.817   1.643
10295W        W82720  24.976  29.888   0.893
10296W        W82721   3.461   9.288   2.717
10297W        W82722  12.280  27.163  12.433
10298W        W82723   3.633  36.854   0.875
10299W        W82724  42.325   2.788   2.486
10300W        W82725  22.286  37.033   1.856
10301W        W82726  31.501  31.614  14.021
10302W        W82727  19.983  41.090  12.986
10303W        W82728  11.109  20.238  13.979
10304W        W82729  25.158  15.975  12.104
10305W        W82730  36.108  37.332  12.885
10306W        W82731   7.754   9.625  11.558
10307W        W82732   1.934  41.352   4.725
10308W        W82733   6.693  34.758   5.071
10309W        W82734  17.130  33.154  11.956
10310W        W82735  41.247   2.473   4.118
10311W        W82736  34.386  20.119   4.129
10312W        W82737   9.719  29.729   1.918
10313W        W82738  27.160  39.475   0.782
10314W        W82739   9.148   1.887   1.203
10315W        W82740   6.129  12.363   5.031
10316W        W82741  33.854  10.297  10.762
10317W        W82742  19.675  24.772   3.294
10318W        W82743  41.573  28.550   4.135
10319W        W82744  12.321  18.974  12.460
10320W        W82745  43.355  34.404   4.919
10321W        W82746   2.315   2.433   3.664
10322W        W82747  33.164  30.666  11.857
10323W        W82748  41.499  20.092  14.227
10324W        W82749  21.988  38.158   4.563
10325W        W82750   6.769  26.021  12.591
10326W        W82751  39.546  19.701   4.517
10327W        W82752  32.922   3.183  11.896
10328W        W82753  11.583  28.351   4.907
10329W        W82754  36.435  31.887   0.281
10330W        W82755  36.675  36.892   4.673
10331W        W82756  16.315  33.509   3.788
10332W        W82757  20.748   0.497   3.613
10333W        W82758   5.942   3.654   3.670
10334W        W82759   8.184  22.656   4.621
10335W        W82760  39.379  28.883   3.931
10336W        W82761   8.825  30.493  13.726
10337W        W82762  36.117  23.385   4.580
10338W        W82763  33.614  28.401   0.995
10339W        W82764  19.710   6.381   4.086
10340W        W82765  23.123  37.020   0.939
10341W        W82766   7.141   3.335  12.138
10342W        W82767  17.645  41.575  11.714
10343W        W82768   9.392   0.243  11.059
10344W        W82769  14.544  31.594   3.650
10345W        W82770  36.869  19.145  11.234
10346W        W82771  31.165  41.011   4.904
10347W        W82772  39.449  16.689  11.706
10348W        W82773  34.098   4.496  12.494
10349W        W82774   7.276  32.357  12.486
10350W        W82775  11.850  26.092  14.269
10351W        W82776  34.924  39.746   1.393
10352W        W82777   7.295  22.956  11.265
10353W        W82778   3.895  16.510   1.774
10354W        W82779   4.902  16.437   0.858
10355W        W82780  13.198  42.642  13.265
10356W        W82781  29.100  41.336  14.925
10357W        W82782  37.451  14.376   0.218
10358W        W82783  17.734  21.008  14.117
10359W        W82784  17.187   8.163   2.826
10360W        W82785  20.518  20.980   4.241
10361W        W82786  43.558  37.515   0.828
10362W        W82787  13.683  36.942  14.278
10363W        W82788  44.270  27.352   0.420
10364W        W82789  37.314  42.444  12.121
10365W        W82790  14.301  33.301  10.433
10366W        W82791  13.429  16.777   2.730
10367W        W82792  41.565  27.555  14.851
10368W        W82793  18.565  14.908   2.414
10369W        W82794  23.057   4.474   2.798
10370W        W82795  41.610  13.623   2.283
10371W        W82796  22.803  42.753   9.972
10372W        W82797  26.223  28.844  12.432
10373W        W82798  42.413  44.813   4.941
10374W        W82799  20.974  15.191  11.965
10375W        W82800  21.454  27.847   1.191
10376W        W82801   5.680  26.473   4.266
10377W        W82802  13.119  22.044   1.777
10378W        W82803  16.391  33.991  13.314
10379W        W82804  29.041  34.052   2.631
10380W        W82805  34.359  23.057   1.404
10381W        W82806  25.908  27.077  11.599
10382W        W82807  18.807   9.771  11.881
10383W        W82808  12.101  28.005  14.048
10384W        W82809  27.591   6.121  13.059
10385W        W82810  16.584  43.797   0.246
10386W        W82811  36.610  24.996   4.210
10387W        W82812   4.893   4.624   3.777
10388W        W82813  33.592  20.576   0.875
10389W        W82814  41.026  42.839   4.637
10390W        W82815  35.447   9.231   0.273
10391W        W82816  16.154   0.710   3.677
10392W        W82817  29.259  30.527   4.280
10393W        W82818   2.440  13.105   4.254
10394W        W82819   1.827  15.289  13.457
10395W        W82820   0.805  18.609  14.517
10396W        W82821  24.587   0.195   0.501
10397W        W82822   1.285  39.541  13.354
10398W        W82823  24.190  31.622   0.498
10399W        W82824  10.575  39.190   1.322
10400W        W82825  16.838  18.534   3.211
10401W        W82826   2.953  38.370  10.593
10402W        W82827  17.741  14.340  13.060
10403W        W82828  10.246   9.190  13.919
10404W        W82829  42.430  21.736   4.301
10405W        W82830  10.260   6.964   2.898
10406W        W82831  11.687  12.167  13.831
10407W        W82832  21.130  36.097   1.420
10408W        W82833  24.403  21.153  14.436
10409W        W82834  16.277  22.900  13.948
10410W        W82835   1.517  36.815  12.369
10411W        W82836   0.237  19.118   4.641
10412W        W82837   3.718  19.578   4.616
10413W        W82838  38.351  34.576   4.593
10414W        W82839  39.328  43.576   3.128
10415W        W82840  13.579  32.476   3.357
10416W        W82841   5.975  34.979   2.629
10417W        W82842  20.008  42.927  11.475
10418W        W82843  33.482   1.206  11.245
10419W        W82844  29.947  32.739   4.655
10420W        W82845  11.928   5.010   3.185
10421W        W82846  36.673   0.530   4.127
10422W        W82847  18.330  21.811  13.436
10423W        W82848   0.048  22.378  14.111
10424W        W82849   0.014  41.395  14.561
10425W        W82850  23.953  10.098   4.840
10426W        W82851  11.857  20.781  11.013
10427W        W82852  34.991   1.042   0.190
10428W        W82853  33.421  28.030  13.726
10429W        W82854  15.613  21.157  10.092
10430W        W82855  39.044  36.116   5.009
10431W        W82856  25.937  19.590   0.190
10432W        W82857  34.775  25.360   0.668
10433W        W82858  23.089   9.066   0.246
10434W        W82859  12.065  32.197   3.657
10435W        W82860  18.325  24.065   0.313
10436W        W82861  22.294   8.843  11.524
10437W        W82862  21.587  23.465   4.466
10438W        W82863  39.075  40.834   1.288
10439W        W82864  40.618   4.212   0.314
10440W        W82865  13.382  11.896  14.932
10441W        W82866  35.314  29.946   4.038
10442W        W82867   0.302  41.828  14.473
10443W        W82868  22.967   8.452  12.137
10444W        W82869  25.958  33.056   0.785
10445W        W82870  38.363  37.541   5.058
10446W        W82871  31.359  14.046   0.742
10447W        W82872  42.291   4.116  11.163
10448W        W82873  30.629  32.140   1.620
10449W        W82874   2.929  25.827  14.381
10450W        W82875  17.369  29.114   0.770
10451W        W82876   1.160  30.539  14.829
10452W        W82877  15.127  13.306  13.479
10453W        W82878   3.480   5.468   1.251
10454W        W82879  23.441  24.043  13.889
10455W        W82880  23.965  30.555  10.673
10456W        W82881  44.430   5.476  14.882
10457W        W82882   9.912  23.210  11.107
10458W        W82883  17.468  22.575  11.057
10459W        W82884  42.343  38.879  12.425
10460W        W82885  22.064   4.427  11.434
10461W        W82886   2.739  28.999   3.230
10462W        W82887  40.073   5.234  13.396
10463W        W82888  17.538  43.055  10.578
10464W        W82889   5.820   6.685   0.651
10465W        W82890  25.476  24.752   2.674
10466W        W82891  43.547  35.862   1.363
10467W        W82892  18.032  34.877   1.796
10468W        W82893   7.353   7.187   2.862
10469W        W82894  44.814  14.576   2.797
10470W        W82895  42.710  44.388  11.124
10471W        W82896   7.790  15.054  13.344
10472W        W82897   1.916  44.880  13.956
10473W        W82898   2.069   8.052   0.906
10474W        W82899  22.542   9.265   3.633
10475W        W82900  12.718  44.968   3.697
10476W        W82901  31.120   0.914  11.156
10477W        W82902  26.198  37.892   0.364
10478W        W82903  17.804  43.866   0.739
10479W        W82904  28.631   0.768   1.390
10480W        W82905  25.390  10.150  13.424
10481W        W82906   4.192  39.871  13.403
10482W        W82907  38.902  26.854   2.632
10483W        W82908   8.176  42.906  11.655
10484W        W82909  17.027  14.257  11.488
10485W        W82910   6.794  24.175   1.867
10486W        W82911  39.340  28.588  12.283
10487W        W82912  20.791  17.788  13.403
10488W        W82913  32.547  42.398  12.360
10489W        W82914  18.818  30.959   0.746
10490W        W82915  18.911  41.521   0.813
10491W        W82916   9.098  19.607  11.049
10492W        W82917  42.382  39.554   1.407
10493W        W82918  12.097  40.577   3.990
10494W        W82919  28.676   8.247  13.171
10495W        W82920  38.298   3.012  11.399
10496W        W82921  17.772  29.200   1.628
10497W        W82922   7.678  27.856  12.977
10498W        W82923  22.034  18.706  11.199
10499W        W82924  30.004  12.890   0.750
10500W        W82925  38.309   6.347  10.660
10501W        W82926   1.716  27.758  12.659
10502W        W82927  19.823  35.467   2.916
10503W        W82928  19.593   4.896   1.399
10504W        W82929  23.322  12.550  13.018
10505W        W82930   5.410   5.905   0.378
10506W        W82931   3.758   6.168  12.413
10507W        W82932   7.955  44.043   2.375
10508W        W82933  25.628  15.539   3.039
10509W        W82934   0.858  23.900  12.531
10510W        W82935  27.619  39.404   1.914
10511W        W82936  18.348  31.681  10.649
10512W        W82937  35.870  30.027  13.944
10513W        W82938  37.321  36.347  14.060
10514W        W82939  28.959  37.354   5.023
10515W        W82940  23.998  29.643   1.877
10516W        W82941  33.357   3.394  12.086
10517W        W82942   1.550  28.192  11.573
10518W        W82943  10.703   8.487   1.937
10519W        W82944  35.460  30.089   4.871
10520W        W82945  14.702  16.016   0.903
10521W        W82946  29.166   2.201  14.783
10522W        W82947  35.641  19.580   4.345
10523W        W82948  13.738  15.396   0.378
10524W        W82949   6.816  35.934   0.515
10525W        W82950   3.787  16.716   4.186
10526W        W82951  35.698  29.165  10.444
10527W        W82952  26.101  17.553  11.193
10528W        W82953   3.790  36.829   2.880
10529W        W82954  23.433   1.746   3.365
10530W        W82955  41.580  12.206   2.916
10531W        W82956  11.473  19.590  13.396
10532W        W82957  24.437  14.230   1.516
10533W        W82958  33.109  16.244   4.686
10534W        W82959   5.317  23.758  12.345
10535W        W82960  18.380  11.131  12.777
10536W        W82961  11.231  27.692   2.392
10537W        W82962  17.989  36.954   1.334
10538W        W82963  33.334  16.833  14.432
10539W        W82964  41.877  37.215   2.612
10540W        W82965  12.626   9.916   2.357
10541W        W82966  27.303  19.785  11.669
10542W        W82967  40.996   4.520   1.993
10543W        W82968   0.437  41.269   0.943
10544W        W82969  42.688  10.600   3.009
10545W        W82970   0.294  40.545  11.487
10546W        W82971  21.173   8.791   1.392
10547W        W82972  22.775  19.755  10.356
10548W        W82973  30.946  20.224   4.726
10549W        W82974  37.571  43.698  13.863
10550W        W82975  28.951  25.081   3.723
10551W        W82976  37.826  34.226  13.364
10552W        W82977  27.351   4.734   0.410
10553W        W82978  30.870  14.571   3.350
10554W        W82979  26.212  17.051  12.446
10555W        W82980  21.613  14.658  12.184
10556W        W82981  11.313  18.032  11.246
10557W        W82982   7.881  41.406  14.712
10558W        W82983   0.385  13.689   2.142
10559W        W82984   4.494   6.969   0.412
10560W        W82985   9.623  11.334  10.763
10561W        W82986  16.392  43.905  13.490
10562W        W82987  16.344  32.677  13.178
10563W        W82988  10.301  21.646   3.727
10564W        W82989  14.574  22.253  13.901
10565W        W82990  22.552  34.086   3.152
10566W        W82991  23.599  22.288  13.239
10567W        W82992   6.875  27.174  10.547
10568W        W82993  37.402  34.509   1.314
10569W        W82994  43.583  13.330   1.809
10570W        W82995  22.549  28.078   1.161
10571W        W82996  18.294   2.177  10.870
10572W        W82997  37.280  44.018  13.564
10573W        W82998   7.203  40.427  13.349
10574W        W82999  40.585   5.209  13.405
10575W        W83000  18.970  30.002   5.728
10576W        W83001  38.612  20.227   1.886
10577W        W83002  30.971  14.318  12.599
10578W        W83003  33.053  25.464  14.694
10579W        W83004  24.123  22.920   3.864
10580W        W83005  39.671  37.373   2.814
10581W        W83006   9.363  40.381  12.027
10582W        W83007  19.779   3.886  14.299
10583W        W83008  24.121  25.615   2.475
10584W        W83009  37.683  40.836   0.687
10585W        W83010  31.082  13.043  13.018
10586W        W83011  20.168  14.320  11.954
10587W        W83012  30.218  25.444  11.449
10588W        W83013  37.527  40.795  14.874
10589W        W83014  30.716  16.626  13.564
10590W        W83015   9.815  38.499   1.975
10591W        W83016  32.637  11.853   0.868
10592W        W83017  16.682  11.817   4.384
10593W        W83018  22.648   0.777  14.673
10594W        W83019   8.774  24.216   4.058
10595W        W83020  19.625  12.161   2.336
10596W        W83021  37.502  25.466  11.567
10597W        W83022  44.369  34.194  10.791
10598W        W83023  19.756  43.016  12.777
10599W        W83024  38.095   3.767  12.673
10600W        W83025  13.215   7.793  11.995
10601W        W83026   7.952  39.245  12.884
10602W        W83027  42.904  11.028  14.011
10603W        W83028  22.137   8.257   4.709
10604W        W83029  18.010  27.068   0.292
10605W        W83030  12.777   2.478  11.488
10606W        W83031  12.855   7.132  13.150
10607W        W83032  22.793  40.558   3.976
10608W        W83033   8.635   5.882  14.515
10609W        W83034  31.563  10.384  10.669
10610W        W83035  31.798   4.015   4.184
10611W        W83036  13.236  10.813   1.255
10612W        W83037  21.524  44.460  11.637
10613W        W83038   6.948   9.332  12.463
10614W        W83039  43.813  38.532  14.557
10615W        W83040  22.485   0.390  10.012
10616W        W83041  21.278   6.701   1.517
10617W        W83042  27.829  40.899  14.407
10618W        W83043   2.483   6.851  13.420
10619W        W83044  15.623  15.339  13.809
10620W        W83045  28.910  17.524   0.825
10621W        W83046   9.781  32.885   0.431
10622W        W83047  26.644  43.676   3.596
10623W        W83048  30.190  42.823   1.084
10624W        W83049  19.192   0.787  14.439
10625W        W83050   9.897   9.374  14.301
10626W        W83051  34.548  22.984   3.763
10627W        W83052  24.503  33.066   2.874
10628W        W83053  27.606  30.644  12.427
10629W        W83054  12.852  18.794  14.495
10630W        W83055  35.068   1.774  13.773
10631W        W83056   0.674   0.579  13.588
10632W        W83057   9.148  14.751  11.459
10633W        W83058  33.295  23.631   4.572
10634W        W83059  28.124   0.829   0.245
10635W        W83060  11.551  12.816  12.221
10636W        W83061  14.822  33.452  14.380
10637W        W83062  25.186  40.266   4.720
10638W        W83063   6.403  21.706   1.893
10639W        W83064  32.423  12.608  11.622
10640W        W83065  31.453   5.960   4.673
10641W        W83066  16.355   0.447   1.797
10642W        W83067  12.190  29.440  12.567
10643W        W83068  12.578  22.045  10.596
10644W        W83069  27.891  23.176   1.813
10645W        W83070  17.399   4.230   0.358
10646W        W83071  42.066  29.084   0.455
10647W        W83072  16.961  44.446   4.471
10648W        W83073  11.079  22.161   3.269
10649W        W83074  34.438   6.993  14.920
10650W        W83075  22.645  32.671   2.794
10651W        W83076  22.540  17.519   1.965
10652W        W83077  32.173  43.975  10.770
10653W        W83078  17.054  27.641   1.143
10654W        W83079  18.699  35.882  10.268
10655W        W83080   7.086   2.457   2.429
10656W        W83081  16.047   3.982   0.272
10657W        W83082   8.866  33.599  11.056
10658W        W83083  32.192   0.288  14.988
10659W        W83084  22.097  25.948  14.769
10660W        W83085  30.065  13.354   3.643
10661W        W83086   1.924  15.207  12.511
10662W        W83087  31.389  12.728   0.049
10663W        W83088   4.030   1.727  13.931
10664W        W83089  34.750   2.247  10.554
10665W        W83090  25.247   5.587   1.234
10666W        W83091  21.534  41.340   4.365
10667W        W83092  19.018  18.612   0.804
10668W        W83093  25.520  24.789   3.785
10669W        W83094  36.607  28.688   3.676
10670W        W83095   3.335  18.243  14.667
10671W        W83096  38.656  30.066   0.873
10672W        W83097   8.891   6.800   0.297
10673W        W83098  10.894   9.066   4.131
10674W        W83099  21.587  27.939   2.835
10675W        W83100   1.869  31.535  11.053
10676W        W83101  38.059  41.585  13.888
10677W        W83102  18.295  34.675  12.271
10678W        W83103  17.545  10.767  10.605
10679W        W83104  16.844   3.281   4.114
10680W        W83105  17.454  38.843   2.368
10681W        W83106   0.988  25.914  14.450
10682W        W83107  17.110  42.877   0.225
10683W        W83108  35.091  44.750   0.888
10684W        W83109  34.161   8.389   4.197
10685W        W83110   6.686  40.877   1.022
10686W        W83111   0.498  24.955  13.920
10687W        W83112  17.981  32.227  14.488
10688W        W83113  27.993   5.434  10.644
10689W        W83114  10.112   8.687  13.866
10690W        W83115  20.277   7.341  11.061
10691W        W83116   4.221  23.758   2.904
10692W        W83117  22.062   5.890  13.372
10693W        W83118  24.628  25.378  12.683
10694W        W83119  41.333  42.341  14.530
10695W        W83120  26.479  44.721   4.389
10696W        W83121  12.610  15.544   1.662
10697W        W83122  10.802  10.684   0.451
10698W        W83123   5.157  29.435  14.484
10699W        W83124  12.325  26.910  11.954
10700W        W83125  42.850  33.410   1.356
10701W        W83126  41.452  43.826  14.408
10702W        W83127  39.467  35.142  14.657
10703W        W83128  20.225  33.885  12.929
10704W        W83129  12.460  31.156  13.954
10705W        W83130  24.115   2.745  14.744
10706W        W83131   0.784  37.992  11.910
10707W        W83132   9.991  42.921   0.707
10708W        W83133  42.285  33.511  11.556
10709W        W83134  27.507  20.321  12.423
10710W        W83135  41.742  28.074  12.588
10711W        W83136  13.601  33.800  10.925
10712W        W83137  36.028   1.356  10.666
10713W        W83138  25.678  31.850   2.333
10714W        W83139   1.020  43.307   4.561
10715W        W83140  43.510   0.379  10.778
10716W        W83141  22.062  38.437   2.356
10717W        W83142  43.383  13.620   4.604
10718W        W83143   4.399  22.621   2.706
10719W        W83144  38.531  22.509   4.895
10720W        W83145   6.768   5.897  10.952
10721W        W83146  26.447  34.372  12.128
10722W        W83147  15.671  16.729  11.202
10723W        W83148   6.424  25.609  12.444
10724W        W83149  40.317   1.301  14.129
10725W        W83150   2.154  35.001   0.274
10726W        W83151  28.925  22.578  12.930
10727W        W83152  19.632   1.288  11.853
10728W        W83153  42.628  11.849  14.083
10729W        W83154  27.146  13.570   1.956
10730W        W83155   9.652  19.348  12.485
10731W        W83156  20.085  43.940  13.888
10732W        W83157  38.157  14.661   2.552
10733W        W83158  44.960  23.163   1.381
10734W        W83159  40.367  41.506   4.551
10735W        W83160  41.905  15.674  14.548
10736W        W83161  25.165  11.165   5.456
10737W        W83162  35.860  44.876   1.304
10738W        W83163  32.135  35.963  13.185
10739W        W83164  14.376   8.768  10.791
10740W        W83165  23.424  38.957  10.484
10741W        W83166   4.311  25.524   2.208
10742W        W83167  40.393  17.506  12.748
10743W        W83168  29.057  16.229   2.249
10744W        W83169  28.153  22.512   4.222
10745W        W83170  17.822  26.244  13.392
10746W        W83171  40.152  31.610  12.998
10747W        W83172  39.803  19.241  12.615
10748W        W83173  22.048  11.407  13.806
10749W        W83174  44.751  25.827   4.868
10750W        W83175  22.788   4.431   4.707
10751W        W83176  40.586  36.123  10.726
10752W        W83177  34.036  15.081   1.443
10753W        W83178  26.761  13.882  14.774
10754W        W83179   3.797  15.738   3.882
10755W        W83180  43.147  17.006  10.898
10756W        W83181  29.125  19.669  11.199
10757W        W83182  17.871   7.394  10.729
10758W        W83183  26.144   3.637   0.882
10759W        W83184  13.335  41.889  12.208
10760W        W83185  43.479  44.074   1.160
10761W        W83186   9.174  28.127  13.379
10762W        W83187   6.468  34.101  12.798
10763W        W83188  10.120  29.735   2.317
10764W        W83189  10.754   7.001  11.212
10765W        W83190  36.100  38.743  11.520
10766W        W83191  18.278  21.495   4.359
10767W        W83192  27.425  31.737   3.270
10768W        W83193  11.163  16.078  11.198
10769W        W83194  25.197  27.898   0.276
10770W        W83195  35.091  20.487   4.580
10771W        W83196  24.236  33.924  13.480
10772W        W83197   5.237  28.870  12.623
10773W        W83198  26.103  20.648  12.321
10774W        W83199   4.672  42.924  14.591
10775W        W83200   4.838  11.297   2.457
10776W        W83201  21.466  29.445   4.608
10777W        W83202  21.468  39.670   2.345
10778W        W83203  27.464   6.882   3.318
10779W        W83204   3.177  42.497  14.492
10780W        W83205  16.748   2.871   3.201
10781W        W83206  20.726  13.859  14.407
10782W        W83207  12.299  20.297  12.836
10783W        W83208   1.951  40.690  13.146
10784W        W83209   3.027   1.359  13.397
10785W        W83210  40.937   1.958  12.873
10786W        W83211  35.779  13.837  13.934
10787W        W83212   3.441  41.392   3.765
10788W        W83213  44.433  15.410   2.709
10789W        W83214  24.204  31.253   0.136
10790W        W83215  11.375  17.715  12.215
10791W        W83216  11.595  34.440   0.986
10792W        W83217  37.377  32.433   0.339
10793W        W83218  20.392  44.856  13.090
10794W        W83219  36.335  22.329  11.892
10795W        W83220  29.632  25.640  14.903
10796W        W83221   2.812  41.796  14.504
10797W        W83222  30.980  18.259   4.604
10798W        W83223  25.162  17.667  11.456
10799W        W83224  40.510  43.028  14.263
10800W        W83225  42.239  14.850   0.650
10801W        W83226  24.185  28.863  14.347
10802W        W83227  15.808  19.490   2.778
10803W        W83228   8.854   0.919   0.042
10804W        W83229   7.219  42.966   1.738
10805W        W83230  32.131  14.278   3.162
10806W        W83231   4.748  35.499   4.604
10807W        W83232  12.475  27.968   1.851
10808W        W83233  39.674   9.986   2.613
10809W        W83234  36.635  17.279  14.380
10810W        W83235   0.855  22.926   4.713
10811W        W83236  42.537  22.778   4.648
10812W        W83237   4.745  37.133  11.089
10813W        W83238   8.578  39.150  12.668
10814W        W83239  21.047  27.276  11.683
10815W        W83240  18.023  12.035   0.159
10816W        W83241  15.801  23.742  11.106
10817W        W83242  10.228  10.464   3.031
10818W        W83243   9.723   0.499   1.628
10819W        W83244   2.686  21.854  11.995
10820W        W83245  18.749  42.649  11.122
10821W        W83246   4.918  25.732  14.022
10822W        W83247  37.510  39.474  14.422
10823W        W83248  13.085   3.155  11.061
10824W        W83249  18.533   7.756  12.504
10825W        W83250  20.510   6.130   0.694
10826W        W83251  33.350  28.004  11.544
10827W        W83252  14.076  39.903   1.868
10828W        W83253   7.325  17.516   4.536
10829W        W83254  16.282  12.100   1.798
10830W        W83255  18.684  24.277  10.800
10831W        W83256   8.519  25.445   3.092
10832W        W83257  44.861  42.775  13.381
10833W        W83258  43.336   7.948   3.161
10834W        W83259  36.936  38.374  12.331
10835W        W83260  14.405  40.380  10.633
10836W        W83261  17.272   7.444   3.102
10837W        W83262  39.385  27.053   2.662
10838W        W83263  22.790   5.246  13.473
10839W        W83264  11.939  37.312  11.161
10840W        W83265  10.093  36.198  10.209
10841W        W83266  34.899  32.831   1.281
10842W        W83267  23.249  11.545  13.449
10843W        W83268  32.023  17.776   0.687
10844W        W83269  13.679  16.026  14.385
10845W        W83270  37.404  39.475   2.365
10846W        W83271  44.274   2.369   1.813
10847W        W83272   7.155  38.273  11.446
10848W        W83273   7.104  19.720   1.265
10849W        W83274  39.539   5.179   0.832
10850W        W83275  17.812  12.187   1.487
10851W        W83276  14.309  13.242   2.326
10852W        W83277  28.091  18.826   4.663
10853W        W83278  11.329  37.263   0.709
10854W        W83279   8.241  16.306  12.933
10855W        W83280   6.272  41.090   1.271
10856W        W83281  13.177  25.200  12.398
10857W        W83282  44.905  10.415   2.760
10858W        W83283  21.282  43.126   1.286
10859W        W83284  32.980  29.356   4.952
10860W        W83285   4.999  17.066   3.822
10861W        W83286   0.209  42.449   1.694
10862W        W83287  39.102  30.125  14.918
10863W        W83288  19.037  13.887  13.758
10864W        W83289  44.642  13.800  14.232
10865W        W83290  31.514   6.899   0.719
10866W        W83291  41.783  30.210  12.085
10867W        W83292  44.442   2.333  13.310
10868W        W83293  37.866   5.188  10.765
10869W        W83294  19.745  29.743   3.744
10870W        W83295  14.264  43.240   3.190
10871W        W83296   8.222  20.196   4.671
10872W        W83297   5.713   4.290  14.884
10873W        W83298  27.761  25.195   4.854
10874W        W83299  33.451  36.107  13.042
10875W        W83300   7.413  32.035   1.943
10876W        W83301   8.784  26.100   0.709
10877W        W83302   8.314  23.655   4.590
10878W        W83303  21.709   1.447  10.758
10879W        W83304  21.394   5.386   3.606
10880W        W83305  35.677  13.774  11.742
10881W        W83306  44.922  33.717   2.173
10882W        W83307  13.548  43.862   2.390
10883W        W83308  25.224   9.260   4.854
10884W        W83309  17.957  17.826  13.448
10885W        W83310  43.649  15.362  12.965
10886W        W83311  37.327  23.645  11.841
10887W        W83312  28.508   4.846   4.747
10888W        W83313   2.788  32.899  11.676
10889W        W83314  30.000  39.349  12.070
10890W        W83315   0.167  40.808   0.860
10891W        W83316  33.992   0.784   0.786
10892W        W83317  24.072   3.133   0.181
10893W        W83318  17.697   1.516  11.972
10894W        W83319  24.634  33.930  14.887
10895W        W83320  19.736  18.707   3.332
10896W        W83321   6.744  42.698  12.020
10897W        W83322  38.967  35.839  14.314
10898W        W83323   6.836  16.112   0.996
10899W        W83324  28.082   8.133  13.346
10900W        W83325   7.020  29.149   1.647
10901W        W83326  43.957   1.021  11.226
10902W        W83327   7.348  19.602   3.120
10903W        W83328  24.947  13.301   4.232
10904W        W83329   1.262  41.061  13.486
10905W        W83330   7.362  40.711   2.237
10906W        W83331  26.924  36.167  11.948
10907W        W83332  18.804   6.858  11.151
10908W        W83333  26.716  23.024   1.411
10909W        W83334   0.029  42.234  11.170
10910W        W83335  24.281  22.302  13.023
10911W        W83336  13.964  21.427   1.364
10912W        W83337  38.047  35.114  14.932
10913W        W83338  33.474  31.569  13.009
10914W        W83339  37.599  17.031  14.282
10915W        W83340  30.710   5.433  13.055
10916W        W83341   9.175  30.947  14.515
10917W        W83342  17.207  14.026  13.811
10918W        W83343  21.666  18.538  14.024
10919W        W83344   8.293  38.114  13.424
10920W        W83345  20.857   1.873   3.784
10921W        W83346  14.803   9.044  12.426
10922W        W83347  41.836  31.744   2.664
10923W        W83348  18.102   7.305  11.200
10924W        W83349  32.424  36.344   4.198
10925W        W83350  11.514  14.219   5.095
10926W        W83351   0.782  34.596   3.563
10927W        W83352  42.543   8.358   0.511
10928W        W83353  41.041  12.368   2.718
10929W        W83354  43.334  16.610  11.670
10930W        W83355  17.294   4.097   4.190
10931W        W83356  12.794  39.625  11.931
10932W        W83357  32.097  14.714   1.771
10933W        W83358  16.268  34.992  14.398
10934W        W83359   2.563  34.058  11.268
10935W        W83360  29.912  14.861   3.408
10936W        W83361  25.544  11.632  13.619
10937W        W83362  27.928  40.073   1.812
10938W        W83363  39.598  42.765   0.270
10939W        W83364  24.694  22.215   4.291
10940W        W83365  42.917   9.972   2.686
10941W        W83366  15.298  36.917  13.096
10942W        W83367  43.175  18.621   1.800
10943W        W83368  16.045  16.631   1.459
10944W        W83369  30.098   1.406   4.513
10945W        W83370  33.669  22.969  10.660
10946W        W83371   6.132   0.696  12.846
10947W        W83372  23.237  33.329  12.043
10948W        W83373  16.704  44.413   0.948
10949W        W83374   3.513  24.405   1.903
10950W        W83375  14.837  20.036  14.911
10951W        W83376  14.220   2.776   1.084
10952W        W83377  18.980  24.601  12.040
10953W        W83378  34.404  18.837  13.403
10954W        W83379  15.943   3.047  13.443
10955W        W83380   3.410  42.917  13.020
10956W        W83381  29.378  42.067  13.882
10957W        W83382  25.916  26.725  10.799
10958W        W83383  28.609  26.487   1.897
10959W        W83384  40.856  11.283   1.480
10960W        W83385  11.832  37.583   3.291
10961W        W83386  23.983   7.917   2.680
10962W        W83387  32.107   3.981   1.806
10963W        W83388  14.815  11.594   0.891
10964W        W83389   4.945  12.352   2.139
10965W        W83390   6.463  37.548  12.979
10966W        W83391  40.875  16.599  14.862
10967W        W83392  22.066  30.480   4.091
10968W        W83393   7.963  14.130   3.903
10969W        W83394  29.668  18.630  10.681
10970W        W83395  28.654  33.566   1.696
10971W        W83396   6.960   1.958   1.859
10972W        W83397   9.445   3.328   2.350
10973W        W83398  22.808  33.536   4.549
10974W        W83399  28.913  28.095  12.182
10975W        W83400  26.456  37.071   4.287
10976W        W83401  43.401  21.255  12.903
10977W        W83402  33.484  35.386   0.950
10978W        W83403  17.552  44.747  14.496
10979W        W83404   7.068  42.418  10.740
10980W        W83405  22.809  10.103  14.443
10981W        W83406  35.984   1.441  12.101
10982W        W83407  41.425  24.591  13.743
10983W        W83408  32.599  43.462   3.687
10984W        W83409  14.590  29.457   0.971
10985W        W83410  33.454   4.125  10.229
10986W        W83411  32.759  22.600   1.714
10987W        W83412  25.489  41.041  13.885
10988W        W83413   4.996  25.540   4.720
10989W        W83414  38.790  39.570  12.475
10990W        W83415  33.741  16.321  13.467
10991W        W83416  36.162   8.881   0.262
10992W        W83417  22.804  39.398  13.343
10993W        W83418  17.538  21.316  13.280
10994W        W83419  33.167  43.328  13.932
10995W        W83420  44.329   2.430  14.418
10996W        W83421  18.551  14.968  12.770
10997W        W83422  21.069   9.848  13.882
10998W        W83423  19.196  15.471   3.757
10999W        W83424  20.157  39.799  14.077
11000W        W83425  25.553  22.875  11.187
11001W        W83426   2.374   5.817  10.411
11002W        W83427  20.591  19.324   3.203
11003W        W83428   1.660  15.084   3.590
11004W        W83429  24.293  13.700   2.776
11005W        W83430  25.731  40.775  13.511
11006W        W83431  37.858  32.449   1.844
11007W        W83432  19.508  37.905   0.908
11008W        W83433  20.578  23.080  10.735
11009W        W83434  19.011  25.551  11.576
11010W        W83435  15.329   5.667   2.606
11011W        W83436  12.291   6.151   2.297
11012W        W83437  11.385  32.183   5.222
11013W        W83438  36.544  17.941  12.765
11014W        W83439  15.138  31.203   4.383
11015W        W83440  37.801  26.488  10.402
11016W        W83441  21.137  40.537   4.676
11017W        W83442  12.273   5.681  14.782
11018W        W83443  36.138   9.739   3.192
11019W        W83444  26.690   7.738  11.077
11020W        W83445  21.433   5.253   4.114
11021W        W83446   4.346  40.063  11.080
11022W        W83447   1.835  30.801  11.751
11023W        W83448   7.342   3.143   1.908
11024W        W83449  20.724   1.481   2.085
11025W        W83450   3.718  21.104   0.985
11026W        W83451   2.982   5.733   2.360
11027W        W83452  30.171   8.906  12.144
11028W        W83453   8.177  35.536   4.297
11029W        W83454  17.743   0.525  14.266
11030W        W83455  43.716  19.688  10.761
11031W        W83456  21.338  33.875   1.191
11032W        W83457  18.616  29.505  11.383
11033W        W83458  16.331  36.398   0.696
11034W        W83459  15.257  24.457   0.795
11035W        W83460  27.953  25.197   3.645
11036W        W83461  33.903  28.370  10.792
11037W        W83462   7.165  17.910   3.128
11038W        W83463  22.041  43.465  14.279
11039W        W83464  23.657   3.476   3.994
11040W        W83465  21.274  14.500  13.129
11041W        W83466  29.139  24.945   4.267
11042W        W83467  41.204  28.885  14.776
11043W        W83468  34.068  21.584   3.123
11044W        W83469  41.971  21.084  10.579
11045W        W83470  41.221  24.593  10.724
11046W        W83471  30.387  44.010  13.960
11047W        W83472  14.705  22.336  10.164
11048W        W83473   4.422  36.640   1.891
11049W        W83474  11.231  37.459   2.645
11050W        W83475  40.688  13.030   3.653
11051W        W83476  10.682  17.539   3.687
11052W        W83477  22.277   1.192  11.524
11053W        W83478  15.931  12.112   3.805
11054W        W83479  19.777  12.068   0.001
11055W        W83480  11.416  33.556   3.455
11056W        W83481  34.160  22.840  10.553
11057W        W83482  19.653  33.342   5.021
11058W        W83483  39.922  23.639  13.821
11059W        W83484  11.635  15.803   3.086
11060W        W83485   8.643  30.353   0.016
11061W        W83486  41.787   8.557  12.420
11062W        W83487  25.586  26.970  13.911
11063W        W83488  11.811   8.146  10.969
11064W        W83489  41.819  43.949   0.179
11065W        W83490  38.092  35.063   3.184
11066W        W83491  37.545  37.351  10.722
11067W        W83492  41.043  29.322  11.489
11068W        W83493  10.839  21.263  14.869
11069W        W83494  34.383   2.405   4.327
11070W        W83495   6.413  14.733  13.345
11071W        W83496  44.936   3.663  13.896
11072W        W83497  24.620  15.288  10.683
11073W        W83498  23.617   9.866  13.349
11074W        W83499   1.264  15.544  14.818
11075W        W83500  37.930  14.844  11.132
11076W        W83501  16.613  34.198   4.187
11077W        W83502  44.796   7.863  13.323
11078W        W83503  35.149   4.826   0.907
11079W        W83504   2.855  43.251   4.188
11080W        W83505  33.325  31.465   4.208
11081W        W83506  24.986  44.626  10.032
11082W        W83507  34.582  39.749   1.772
11083W        W83508   0.249  42.389   2.624
11084W        W83509   6.819  39.297   4.899
11085W        W83510  41.296  37.541  12.032
11086W        W83511   0.954  40.419  13.024
11087W        W83512  41.012   5.304   1.618
11088W        W83513   2.129  33.004   3.350
11089W        W83514  34.425  29.673  11.231
11090W        W83515   3.345   8.343   1.724
11091W        W83516  37.335  18.837   4.163
11092W        W83517   3.893  12.380  11.853
11093W        W83518  43.006  12.797   1.233
11094W        W83519  40.336  18.930  11.194
11095W        W83520  17.683  24.257   0.788
11096W        W83521  39.308  34.316  11.194
11097W        W83522  43.311  27.443   1.325
11098W        W83523  15.291  33.511   2.918
11099W        W83524  17.649  24.969  14.660
11100W        W83525  43.956  13.306   0.384
11101W        W83526  26.091   7.936   1.358
11102W        W83527   0.184   5.484  11.612
11103W        W83528   2.874   5.360   4.633
11104W        W83529  44.782  34.044   2.907
11105W        W83530  15.051  44.006   2.196
11106W        W83531  19.057  42.570   1.376
11107W        W83532  41.695  28.619  11.020
11108W        W83533   5.145  19.654  14.114
11109W        W83534  27.229  25.778   2.268
11110W        W83535  24.086  21.204  14.849
11111W        W83536  43.305  31.990   3.837
11112W        W83537  17.774  11.290  13.430
11113W        W83538   0.053   6.443   4.130
11114W        W83539  22.138   1.217  12.595
11115W        W83540  10.818  13.696  10.819
11116W        W83541  16.304  37.517   1.701
11117W        W83542  25.067  18.328  12.517
11118W        W83543  15.171  31.042  14.269
11119W        W83544  34.300  44.384   4.082
11120W        W83545  20.274  20.543  14.811
11121W        W83546  10.354  17.320   4.168
11122W        W83547  12.180  43.465  12.084
11123W        W83548  35.394  32.641  14.242
11124W        W83549  26.657  21.193   1.834
11125W        W83550  13.389  32.866   2.918
11126W        W83551  16.219   0.436  11.520
11127W        W83552   8.728  20.960   1.397
11128W        W83553  28.134   8.346   2.260
11129W        W83554   1.482  25.986  13.871
11130W        W83555  43.832  36.490  10.508
11131W        W83556   3.757  15.223   3.800
11132W        W83557  12.699  43.780   0.825
11133W        W83558  28.956  26.199   2.223
11134W        W83559  19.184  33.588   0.472
11135W        W83560  42.944  17.327   2.298
11136W        W83561  33.644   5.935  10.970
11137W        W83562  12.344  38.473  11.585
11138W        W83563   7.400  10.313  12.380
11139W        W83564  39.120  42.650   4.546
11140W        W83565  27.948  20.070  12.436
11141W        W83566  33.366   6.210   0.030
11142W        W83567  10.653   4.571   2.760
11143W        W83568  33.027  43.100   1.281
11144W        W83569   4.788   6.988   4.201
11145W        W83570  26.193  20.938   1.872
11146W        W83571  24.813  37.179  11.112
11147W        W83572   0.366  12.235   2.293
11148W        W83573   6.611  24.099  11.572
11149W        W83574   0.059  44.176   2.031
11150W        W83575  18.729  33.790   0.713
11151W        W83576  41.794  43.954   5.114
11152W        W83577  14.340   8.907  12.933
11153W        W83578  10.072  14.735   4.078
11154W        W83579  21.789  32.847  14.176
11155W        W83580  21.602   6.469  13.792
11156W        W83581  36.397  35.035  11.089
11157W        W83582  18.515  36.401   0.729
11158W        W83583   0.813   8.158   1.699
11159W        W83584  16.655  44.868   3.799
11160W        W83585  35.621  41.535   2.246
11161W        W83586  20.276   9.746  14.949
11162W        W83587  44.932  32.398  13.404
11163W        W83588  20.719  30.353   9.946
11164W        W83589  17.233  43.068   2.643
11165W        W83590  41.811   9.362   1.187
11166W        W83591  31.428  26.919  12.987
11167W        W83592  27.435  32.983  11.211
11168W        W83593  24.102  25.244   4.653
11169W        W83594  25.930   3.259  13.337
11170W        W83595  26.720  34.434   4.541
11171W        W83596  40.405   9.117   2.831
11172W        W83597  14.253  32.633   5.106
11173W        W83598  34.956  36.510  11.422
11174W        W83599   4.908  41.082   3.763
11175W        W83600  10.244  23.525   0.972
11176W        W83601  15.354  12.861   1.834
11177W        W83602  32.828  34.045  14.446
11178W        W83603  30.095  31.671  11.711
11179W        W83604  17.134  40.527   2.643
11180W        W83605   5.672   7.590  14.055
11181W        W83606   8.368  22.610   2.380
11182W        W83607   4.968  15.401  11.992
11183W        W83608  41.921   5.428   3.799
11184W        W83609  36.987  30.358  13.918
11185W        W83610  35.557  15.358   1.088
11186W        W83611  19.275   3.271   4.714
11187W        W83612  23.943  43.992  10.357
11188W        W83613  13.337  23.656  12.795
11189W        W83614  32.124   8.806  11.162
11190W        W83615   7.599  28.834  13.878
11191W        W83616  21.562   2.705   2.392
11192W        W83617  13.471  23.803  10.744
11193W        W83618   8.930  44.449   2.858
11194W        W83619   6.765  14.091  10.939
11195W        W83620  40.975  33.024   1.442
11196W        W83621  38.995  28.658   2.200
11197W        W83622  26.345  31.868  12.455
11198W        W83623  30.093  11.765   3.800
11199W        W83624  28.851   9.866   0.491
11200W        W83625  33.177   4.236  13.218
11201W        W83626  21.598   9.396  11.146
11202W        W83627  31.130  23.461  13.778
11203W        W83628  14.935  13.877   0.324
11204W        W83629  19.413  28.070   1.482
11205W        W83630  15.228  30.993   3.359
11206W        W83631  15.669  25.078  11.947
11207W        W83632   6.349   9.332   4.642
11208W        W83633   4.433  11.858  10.944
11209W        W83634  16.083  31.462  14.258
11210W        W83635  40.826  38.542  12.089
11211W        W83636  17.609   2.289  14.264
11212W        W83637   7.920  21.747   1.826
11213W        W83638   5.346  11.318   2.618
11214W        W83639   9.582  39.923  10.739
11215W        W83640  16.051   0.662   1.151
11216W        W83641  32.601  12.006   2.673
11217W        W83642  22.963  32.288  10.632
11218W        W83643  42.236   4.423   1.706
11219W        W83644  16.841  44.220   0.049
11220W        W83645  22.723   6.187   3.750
11221W        W83646  38.614   8.983   2.869
11222W        W83647  13.826  19.485  13.522
11223W        W83648  22.547  18.167  11.592
11224W        W83649  28.436   0.480   4.308
11225W        W83650  15.496  12.085   1.342
11226W        W83651  29.121   3.381   2.751
11227W        W83652   4.094  43.190  10.237
11228W        W83653   0.905   6.535   1.996
11229W        W83654  44.942  42.344   3.387
11230W        W83655  30.507  30.313   1.489
11231W        W83656  21.238  10.149   9.923
11232W        W83657  30.094   5.329   4.191
11233W        W83658  25.321  14.177   3.160
11234W        W83659  17.641  32.408  11.409
11235W        W83660   4.023  11.606  13.454
11236W        W83661  29.999  38.836  11.215
11237W        W83662  41.328  38.129  13.616
11238W        W83663  24.414  14.071  11.286
11239W        W83664  10.273  23.093  12.021
11240W        W83665  31.190   1.818  12.161
11241W        W83666   5.174  14.205  13.520
11242W        W83667   9.817   8.452   0.837
11243W        W83668  19.387  40.335   0.367
11244W        W83669  17.594  11.740   4.417
11245W        W83670  37.722  33.499  14.478
11246W        W83671  30.284  27.934   3.440
11247W        W83672  31.452  23.979   3.364
11248W        W83673  12.945   3.547  14.829
11249W        W83674   6.385  27.056  10.642
11250W        W83675  16.776   3.274   0.254
11251W        W83676  19.211  32.289  12.967
11252W        W83677  19.984  22.047   1.186
11253W        W83678  31.892  40.859   1.670
11254W        W83679  25.488  12.855  11.644
11255W        W83680  38.296  28.869   1.840
11256W        W83681  18.997  12.246   1.239
11257W        W83682   4.729  23.333  13.046
11258W        W83683  38.263   1.717  13.219
11259W        W83684  30.541   5.711   1.676
11260W        W83685  34.337  19.250  10.590
11261W        W83686  19.078  12.545  13.517
11262W        W83687  41.374  19.836   4.592
11263W        W83688   7.466  29.425  11.169
11264W        W83689   7.237  28.163   3.632
11265W        W83690  29.444   8.608   0.039
11266W        W83691   3.258  31.216   3.095
11267W        W83692  34.018   6.018  14.470
11268W        W83693   0.370   1.733  12.306
11269W        W83694  13.598  41.337   2.721
11270W        W83695  42.426   2.451   1.824
11271W        W83696  40.080  15.923  10.095
11272W        W83697  34.906   2.553   2.475
11273W        W83698  21.075  33.055   0.306
11274W        W83699  23.170  18.752  13.938
11275W        W83700  24.696   2.707   2.882
11276W        W83701  37.071   4.181   1.283
11277W        W83702  27.533  37.225   3.469
11278W        W83703  32.317  16.669   5.115
11279W        W83704  17.774  33.548   1.750
11280W        W83705   6.065  40.015   2.422
11281W        W83706   4.087  20.112  11.479
11282W        W83707  11.542  30.328  10.753
11283W        W83708  41.374  24.207  14.682
11284W        W83709  11.536   0.959   1.816
11285W        W83710  22.970  22.159  14.171
11286W        W83711   6.476   6.610  10.711
11287W        W83712  33.049  24.994   4.155
11288W        W83713  36.406  17.840  10.694
11289W        W83714  14.836  33.612   3.138
11290W        W83715  21.248  11.000  12.034
11291W        W83716  13.326   9.298   2.305
11292W        W83717   5.406  41.364   5.002
11293W        W83718  36.776   7.214   3.729
11294W        W83719  37.104  44.523   0.512
11295W        W83720  13.366  36.632   4.608
11296W        W83721  35.509  19.103   4.157
11297W        W83722  32.957  31.076   4.309
11298W        W83723  39.999  39.122  11.424
11299W        W83724   4.251  25.598  12.261
11300W        W83725  38.690   6.340   0.201
11301W        W83726  40.273  27.499   3.255
11302W        W83727   1.477   6.598   3.722
11303W        W83728  21.309  34.526  11.563
11304W        W83729  35.930  40.479  14.014
11305W        W83730  11.371  41.599  13.437
11306W        W83731  23.871   8.347   5.107
11307W        W83732  14.832  29.139   2.235
11308W        W83733  30.899  35.308  14.731
11309W        W83734  18.795  16.874  13.875
11310W        W83735  40.040  34.402  13.495
11311W        W83736  13.679  18.641  11.488
11312W        W83737   6.189   0.344   1.787
11313W        W83738  19.468  22.611   4.641
11314W        W83739  36.357   9.330   1.532
11315W        W83740  42.072  16.020   2.784
11316W        W83741  17.569  27.188  13.477
11317W        W83742  37.454  32.388  14.018
11318W        W83743   0.863   1.793   2.224
11319W        W83744  21.701  25.257   1.937
11320W        W83745  28.634  26.708   1.357
11321W        W83746   9.775  41.303  10.724
11322W        W83747   4.735   6.624  12.367
11323W        W83748   9.472  22.728  12.348
11324W        W83749  20.745  28.936  11.543
11325W        W83750  37.857   0.180  11.505
11326W        W83751  12.299  10.736   4.314
11327W        W83752   0.919  23.541   3.211
11328W        W83753  36.135  17.109   4.630
11329W        W83754  39.380  12.573  11.613
11330W        W83755   5.437  44.475  12.381
11331W        W83756  24.986  44.350   3.859
11332W        W83757  25.265  15.620   1.268
11333W        W83758  39.277  21.778   3.604
11334W        W83759  40.727  19.334   0.256
11335W        W83760   2.430  17.140  10.763
11336W        W83761  30.489  14.123  12.544
11337W        W83762  20.279   5.427  13.830
11338W        W83763  29.508  39.518  14.519
11339W        W83764  28.592  10.204  10.147
11340W        W83765  23.659  18.033   3.825
11341W        W83766  40.849   7.210   3.141
11342W        W83767  17.903  31.970  13.149
11343W        W83768  16.361  31.708  13.878
11344W        W83769  14.392   0.736   3.244
11345W        W83770  11.431  10.309   2.907
11346W        W83771  29.959  34.471   4.127
11347W        W83772   2.193   5.848  14.525
11348W        W83773   6.776  32.435   2.880
11349W        W83774  29.512   0.830   0.348
11350W        W83775  10.703   5.759  12.592
11351W        W83776   9.173  10.138   1.708
11352W        W83777  17.786  37.853   3.559
11353W        W83778   3.374  22.502   0.491
11354W        W83779  33.426  16.038  13.786
11355W        W83780  29.083  25.747  12.578
11356W        W83781  23.075  19.794   0.734
11357W        W83782  24.412   1.530   3.339
11358W        W83783   9.184  12.860  11.956
11359W        W83784  37.254  11.218   3.783
11360W        W83785   8.600   7.929   4.254
11361W        W83786  35.321  44.998   4.050
11362W        W83787  11.037   6.669  14.399
11363W        W83788  39.297   0.197  11.524
11364W        W83789  13.103   5.693   3.446
11365W        W83790   9.669  14.096   3.221
11366W        W83791  18.352  41.049   3.594
11367W        W83792  26.069   0.403  10.648
11368W        W83793  15.176  20.103  12.916
11369W        W83794  32.587  26.457  12.365
11370W        W83795  34.832  10.321  12.002
11371W        W83796  21.819  31.024   4.193
11372W        W83797   3.332   7.749  13.061
11373W        W83798  35.448  29.542  14.484
11374W        W83799  37.815  14.303   1.861
11375W        W83800  30.622  34.408  14.132
11376W        W83801  32.134  23.223  11.753
11377W        W83802  18.817  32.364   0.958
11378W        W83803  44.788   3.010  10.687
11379W        W83804  37.430   1.302   3.653
11380W        W83805  30.376  38.465   2.294
11381W        W83806  18.349  39.489  12.725
11382W        W83807  40.495  19.941  11.151
11383W        W83808   6.573   1.740  13.917
11384W        W83809  16.935  15.329   3.292
11385W        W83810  37.387  32.601   2.618
11386W        W83811  40.979  26.089   4.778
11387W        W83812   0.611  16.542  12.931
11388W        W83813  31.419  11.230  11.679
11389W        W83814  36.897  39.516   3.272
11390W        W83815   8.863  35.638   1.810
11391W        W83816   9.724  35.050   1.420
11392W        W83817  16.018  34.324  12.650
11393W        W83818   2.646  15.934  11.588
11394W        W83819  18.447  23.512   3.840
11395W        W83820   8.709   2.718   5.315
11396W        W83821   5.465  37.136   3.314
11397W        W83822  26.949  22.560  12.412
11398W        W83823  17.279  26.766   9.755
11399W        W83824  41.427  34.951   3.353
11400W        W83825  19.597   7.788  11.583
11401W        W83826  32.527  22.526   2.178
11402W        W83827   8.710  21.746  10.734
11403W        W83828  38.865   3.794   0.026
11404W        W83829   3.364  31.698   2.259
11405W        W83830  44.459  26.990   3.673
11406W        W83831  36.984  28.055   1.845
11407W        W83832  29.085  30.066   4.155
11408W        W83833  23.184   4.779   4.696
11409W        W83834  23.373   8.355   1.917
11410W        W83835  29.144  26.240  12.683
11411W        W83836  40.260  43.312  14.674
11412W        W83837  17.082  25.617   2.985
11413W        W83838  40.028  15.694   4.470
11414W        W83839  15.768  21.102   2.919
11415W        W83840  36.972  33.459  11.673
11416W        W83841  29.359   2.457  13.518
11417W        W83842  24.981  36.171   0.194
11418W        W83843   3.807  16.170  11.758
11419W        W83844   0.059  42.444   0.846
11420W        W83845  26.596  19.699   2.346
11421W        W83846  14.745  28.719   4.568
11422W        W83847  27.319   1.922  14.968
11423W        W83848  36.413   1.707  10.557
11424W        W83849  38.350  18.376  13.521
11425W        W83850  12.281   5.890   2.992
11426W        W83851  42.165  35.507  12.686
11427W        W83852   8.862  21.009   2.481
11428W        W83853  26.976  41.402   0.726
11429W        W83854  27.844  17.017   3.196
11430W        W83855   0.886  36.552  14.329
11431W        W83856  35.090   8.216   2.846
11432W        W83857  18.251  11.407  13.774
11433W        W83858  43.731  17.487   3.774
11434W        W83859  19.481  16.501   1.753
11435W        W83860  16.596  18.819  10.697
11436W        W83861  20.840  35.062  14.852
11437W        W83862  39.834  31.533  10.472
11438W        W83863  26.495  30.628   3.565
11439W        W83864  35.586  34.930   3.927
11440W        W83865  11.739  13.279   3.163
11441W        W83866  17.216  41.145   3.714
11442W        W83867  19.570  18.248  12.825
11443W        W83868  13.722  18.636   0.745
11444W        W83869  18.395  41.769   2.812
11445W        W83870  21.047  26.724   0.817
11446W        W83871  17.595   4.268   3.301
11447W        W83872  18.015  18.876  14.377
11448W        W83873  16.077  44.956   4.210
11449W        W83874  43.918  10.783  13.822
11450W        W83875  44.851  33.808  11.572
11451W        W83876  21.610   1.947  13.581
11452W        W83877  24.023  41.613   0.920
11453W        W83878  37.669   1.895  10.301
11454W        W83879  13.825  15.744  14.824
11455W        W83880  25.424   4.463  14.832
11456W        W83881  11.934  18.429   4.551
11457W        W83882  31.916   5.390   1.813
11458W        W83883   5.259  26.868   4.755
11459W        W83884  19.545  40.634  11.776
11460W        W83885  42.188  43.361   0.747
11461W        W83886  44.610   6.564  10.716
11462W        W83887  24.744   9.603  14.872
11463W        W83888  15.465  31.874   4.582
11464W        W83889  38.162  11.629   3.137
11465W        W83890  28.696  19.648  12.836
11466W        W83891  34.342  31.065  12.991
11467W        W83892  38.520  30.545  12.049
11468W        W83893  29.391  36.037   1.429
11469W        W83894   1.815  40.130   3.650
11470W        W83895  13.652  17.807  11.898
11471W        W83896  44.352  37.499  10.379
11472W        W83897  19.957  12.808   1.068
11473W        W83898  15.768  22.331   1.298
11474W        W83899  10.449  34.691   5.087
11475W        W83900  38.608  34.673   4.127
11476W        W83901  32.722  20.780  14.419
11477W        W83902  10.593  34.102  13.762
11478W        W83903  38.522  10.831   3.084
11479W        W83904  42.372  21.179  12.374
11480W        W83905  11.773  32.044   0.219
11481W        W83906  19.775  27.810  12.090
11482W        W83907  21.047   7.121  13.913
11483W        W83908  20.187  22.226   3.737
11484W        W83909  25.707  15.842  14.435
11485W        W83910  43.326  33.103  13.837
11486W        W83911  10.212  19.163   0.501
11487W        W83912  19.698   4.334  14.998
11488W        W83913   6.646  19.082  14.487
11489W        W83914  25.496  37.026  12.457
11490W        W83915  30.613  44.833   2.230
11491W        W83916  44.019  30.961   2.665
11492W        W83917  17.096  38.375  10.632
11493W        W83918  26.237  34.969   3.746
11494W        W83919  24.009   3.878   3.364
11495W        W83920  37.103   7.188  13.448
11496W        W83921  44.336  41.952   2.437
11497W        W83922  25.710   3.233   3.653
11498W        W83923  33.704  42.984  10.612
11499W        W83924  32.205  18.982   9.826
11500W        W83925  25.142  13.012   1.763
11501W        W83926  36.029  26.626  14.863
11502W        W83927   6.462  20.308   1.831
11503W        W83928  30.007   1.814   1.746
11504W        W83929  37.976  24.418   3.693
11505W        W83930  18.514  12.982  13.429
11506W        W83931  25.577  15.848   0.328
11507W        W83932  26.958  17.200   3.587
11508W        W83933  34.810  24.877  11.625
11509W        W83934   4.095   8.685   1.031
11510W        W83935   0.021  17.199   4.298
11511W        W83936  13.639   2.503   3.561
11512W        W83937  24.170  36.441  12.417
11513W        W83938  41.305   1.729   0.430
11514W        W83939  42.507   4.431  11.518
11515W        W83940  25.657  27.705   0.202
11516W        W83941   9.274  27.271   0.856
11517W        W83942  38.788  43.485  10.097
11518W        W83943  41.240   3.865  11.971
11519W        W83944  39.689  40.840   4.162
11520W        W83945   1.140  43.637   3.258
11521W        W83946   9.645  15.147  10.955
11522W        W83947  43.785  39.924   2.331
11523W        W83948  29.178   3.869  13.460
11524W        W83949   5.838  43.563   4.628
11525W        W83950  40.944  44.844  10.918
11526W        W83951   3.851  31.784   4.196
11527W        W83952  33.067  33.930  13.027
11528W        W83953  13.182  35.137   2.085
11529W        W83954  37.867  29.925   0.196
11530W        W83955  33.296  32.197   0.925
11531W        W83956  24.681   6.181   2.282
11532W        W83957   2.793  37.071  12.087
11533W        W83958  39.441  10.955   0.777
11534W        W83959  30.676  27.654   4.099
11535W        W83960  11.886  28.349   3.086
11536W        W83961  15.693  44.910  13.837
11537W        W83962  43.901  35.492   3.234
11538W        W83963   7.775   6.730  13.933
11539W        W83964  43.201   2.485  11.812
11540W        W83965  21.978  12.149   0.702
11541W        W83966  38.763  12.849   1.898
11542W        W83967  36.692  24.301   2.806
11543W        W83968  25.933  24.752  11.337
11544W        W83969  28.626  15.241   1.254
11545W        W83970  10.099  29.009  11.819
11546W        W83971   8.357  41.772  10.972
11547W        W83972   9.359  25.949   1.396
11548W        W83973  44.459  34.850  10.258
11549W        W83974   4.221  11.397   1.965
11550W        W83975  33.917  25.752  13.479
11551W        W83976   4.938   0.776   2.323
11552W        W83977  16.471   9.782   1.808
11553W        W83978   7.256  38.015   1.930
11554W        W83979  29.133   5.474  11.143
11555W        W83980  22.160  17.334  11.523
11556W        W83981  10.086   0.387  11.667
11557W        W83982  35.412  37.137  12.020
11558W        W83983  42.632  38.995   4.633
11559W        W83984  17.342  32.496  10.995
11560W        W83985  43.264  16.018   2.209
11561W        W83986  16.651  25.272   2.203
11562W        W83987  20.237   1.318   4.407
11563W        W83988  44.190  13.665  14.457
11564W        W83989  38.566   1.980  12.890
11565W        W83990  34.087  20.632  11.731
11566W        W83991  20.935  33.390   1.562
11567W        W83992   7.779  21.348   2.826
11568W        W83993  15.832  40.335  10.775
11569W        W83994  34.370  36.518   4.324
11570W        W83995  24.608  10.419   4.615
11571W        W83996   2.608  20.851  11.320
11572W        W83997  14.642   1.366  12.372
11573W        W83998  37.686  34.499  14.956
11574W        W83999  27.003  14.973   1.900
11575W        W84000  34.073  23.340  14.706
11576W        W84001  41.722  24.953   4.208
11577W        W84002  44.889  44.935  10.804
11578W        W84003  15.227  22.594  13.430
11579W        W84004   1.920  36.125  11.626
11580W        W84005  19.601  33.607   2.340
11581W        W84006  22.156  43.047  11.229
11582W        W84007  31.518   1.351   2.456
11583W        W84008  40.860  43.842   3.206
11584W        W84009  27.411   3.209   4.808
11585W        W84010  36.192  32.679   4.942
11586W        W84011   8.719   8.471   5.438
11587W        W84012   7.911  39.346  10.422
11588W        W84013  14.760  33.949  14.517
11589W        W84014  42.792   4.925   3.716
11590W        W84015  17.248  42.003   4.781
11591W        W84016  23.979  37.828   2.212
11592W        W84017   9.681  35.810   0.019
11593W        W84018  17.285  12.098  11.579
11594W        W84019  18.579  34.027   1.633
11595W        W84020  19.477  12.679   3.219
11596W        W84021  23.623  41.812   0.287
11597W        W84022  34.029  37.581  10.485
11598W        W84023  36.598   0.062   4.361
11599W        W84024  28.731   6.916   4.056
11600W        W84025  30.024   3.820   3.616
11601W        W84026  43.287  24.697   2.262
11602W        W84027  35.091   1.227   3.803
11603W        W84028  43.843  24.340   3.292
11604W        W84029  38.022   9.004   5.477
11605W        W84030  32.448  21.553   4.312
11606W        W84031  12.816  16.790   1.379
11607W        W84032   2.956  43.899   3.183
11608W        W84033  21.101  41.324  13.946
11609W        W84034   3.648  16.701   2.815
11610W        W84035  12.183  42.588   5.112
11611W        W84036  15.748  15.801   3.328
11612W        W84037  11.172  18.431  12.966
11613W        W84038   7.486  13.716   1.817
11614W        W84039   9.779  36.307   4.055
11615W        W84040   3.759  33.912   2.434
11616W        W84041  15.074  11.672   0.461
11617W        W84042  39.378  33.480  11.565
11618W        W84043  12.238   1.180  11.103
11619W        W84044  34.725  28.069  12.502
11620W        W84045  40.564   9.236  11.564
11621W        W84046  11.795  25.166   4.982
11622W        W84047  16.819  32.163  11.213
11623W        W84048  44.626  23.531  13.190
11624W        W84049  20.570  43.246  14.899
11625W        W84050  35.085   3.354   3.191
11626W        W84051  39.087   9.138  13.520
11627W        W84052  13.567  41.949  13.932
11628W        W84053  37.326  28.726   1.814
11629W        W84054  18.687  21.880   0.414
11630W        W84055   5.213   8.413   2.928
11631W        W84056  31.645  17.317   2.322
11632W        W84057  41.985  27.473   2.833
11633W        W84058  33.610  36.399   1.048
11634W        W84059  41.794  26.677   1.399
11635W        W84060  15.420  24.908   1.710
11636W        W84061   3.321  33.022   1.516
11637W        W84062  27.670  23.212  14.335
11638W        W84063  34.763  22.634   4.940
11639W        W84064  14.580   7.751  11.990
11640W        W84065  37.073  16.078  12.494
11641W        W84066  24.236   2.867  13.427
11642W        W84067  29.427  21.282   3.634
11643W        W84068  14.285  40.796  12.587
11644W        W84069  15.548   1.854   0.741
11645W        W84070   9.181  13.102  10.700
11646W        W84071  10.890  37.985  14.514
11647W        W84072   4.351  28.825  14.584
11648W        W84073   3.960  44.429  11.584
11649W        W84074  37.520  32.566   4.411
11650W        W84075  33.695  34.455  10.857
11651W        W84076  38.028   2.919  13.566
11652W        W84077  37.471  11.308  11.956
11653W        W84078  25.982  20.524  14.417
11654W        W84079  16.628   6.818  13.316
11655W        W84080  20.598  41.287  10.954
11656W        W84081   7.414  43.795   0.485
11657W        W84082  10.442  36.663   1.570
11658W        W84083  38.307  16.902   2.742
11659W        W84084  26.971  30.463  11.624
11660W        W84085  32.483   2.936   1.985
11661W        W84086  27.098  13.853   0.981
11662W        W84087   5.704  40.846  14.430
11663W        W84088  38.280  12.769  10.753
11664W        W84089  16.747  20.189  11.071
11665W        W84090  12.826  24.820   3.761
11666W        W84091   6.240  32.397  11.499
11667W        W84092  17.257   2.744  14.099
11668W        W84093   6.957  19.291  13.023
11669W        W84094  40.541  30.376  10.622
11670W        W84095  18.658  36.390   1.456
11671W        W84096  39.964  38.537   4.186
11672W        W84097  18.378  33.150  13.425
11673W        W84098   4.055  32.485   1.240
11674W        W84099  21.058   2.210  13.612
11675W        W84100  43.717  38.378   2.235
11676W        W84101  25.603  18.139  13.349
11677W        W84102  22.122  31.953  12.011
11678W        W84103  20.699   1.458  13.328
11679W        W84104  38.869   8.654  14.101
11680W        W84105  10.285  32.064   1.207
11681W        W84106  16.229  31.484   3.779
11682W        W84107  30.872   0.831  12.911
11683W        W84108  43.792  39.101   4.249
11684W        W84109   5.378  16.680   0.821
11685W        W84110  23.619  32.278   0.208
11686W        W84111  22.160  10.160   3.120
11687W        W84112  43.810   2.790   1.458
11688W        W84113  18.744  30.913   4.417
11689W        W84114   0.344  25.985   3.729
11690W        W84115  31.179  12.690   3.293
11691W        W84116  19.075   1.864  13.044
11692W        W84117  32.597  26.658  11.235
11693W        W84118  16.332  32.995  12.394
11694W        W84119  34.824  16.211  11.924
11695W        W84120  26.616  16.375   3.305
11696W        W84121  14.807  42.911   3.214
11697W        W84122  32.815   1.589   3.687
11698W        W84123  31.595  10.917  10.398
11699W        W84124  42.790   5.984   3.691
11700W        W84125  10.642  18.250  12.441
11701W        W84126  24.692   2.221  12.976
11702W        W84127  33.520  16.851  10.551
11703W        W84128  12.325   3.158   2.235
11704W        W84129  11.262  22.555   3.028
11705W        W84130  41.700  37.506  10.685
11706W        W84131   3.010   6.755   0.461
11707W        W84132   3.810  26.950   0.227
11708W        W84133  29.591   6.214  11.551
11709W        W84134   0.128  28.495  11.665
11710W        W84135   3.970  43.964  12.268
11711W        W84136  16.834  32.526   5.563
11712W        W84137  11.846  36.867  13.475
11713W        W84138  10.910  10.250  14.484
11714W        W84139  44.888  40.834   1.362
11715W        W84140  42.406  23.755  10.527
11716W        W84141  11.608  24.520  10.352
11717W        W84142  12.169  30.497   4.715
11718W        W84143   9.991  37.851  10.803
11719W        W84144  22.935  31.609   0.955
11720W        W84145  27.198  19.196  10.574
11721W        W84146   1.716  35.657  11.536
11722W        W84147  18.114  31.100  11.384
11723W        W84148  32.571  25.134   5.327
11724W        W84149   8.151  31.395  12.144
11725W        W84150   0.751   3.792   4.265
11726W        W84151  39.112  37.291   2.746
11727W        W84152  39.049  12.353   0.695
11728W        W84153  21.176  21.721  13.412
11729W        W84154   8.157   8.006   3.664
11730W        W84155  35.360  11.324  10.567
11731W        W84156   0.289  25.022   0.314
11732W        W84157  26.497  43.826   3.092
11733W        W84158  27.069  18.139   0.288
11734W        W84159  39.268  21.719  13.023
11735W        W84160  14.548  30.116  12.462
11736W        W84161   0.278  16.811  11.644
11737W        W84162  36.926  12.813  10.342
11738W        W84163  42.692  43.922  12.013
11739W        W84164   3.102  40.971  12.470
11740W        W84165  18.637  19.261  11.033
11741W        W84166  23.536  27.647   3.392
11742W        W84167  38.762  23.476  12.854
11743W        W84168   2.895  28.245   3.715
11744W        W84169  21.181   2.819   1.619
11745W        W84170  44.519  43.280   2.890
11746W        W84171  42.939  44.176  14.552
11747W        W84172  10.039   6.379  14.345
11748W        W84173   8.341   1.534   2.861
11749W        W84174  44.465  32.589  11.584
11750W        W84175  18.883  10.688   0.849
11751W        W84176  44.888  41.329  13.550
11752W        W84177  38.894  37.587  14.558
11753W        W84178  30.192  11.656  14.941
11754W        W84179  30.581  43.525  13.968
11755W        W84180  20.652  27.600  12.949
11756W        W84181  23.653  33.399   3.855
11757W        W84182  40.726  15.965  12.911
11758W        W84183  17.349  30.469   3.673
11759W        W84184  20.309  27.480  13.499
11760W        W84185   6.802  26.881   3.703
11761W        W84186  13.739   8.618   4.186
11762W        W84187  41.945  26.096   4.685
11763W        W84188  44.259  22.647   3.307
11764W        W84189  39.387  24.653  13.861
11765W        W84190  29.186  43.739  13.478
11766W        W84191   3.244  43.288  10.596
11767W        W84192  35.657  31.148  13.351
11768W        W84193  37.766  20.605  11.819
11769W        W84194  21.761  42.769   4.636
11770W        W84195  20.784  11.206   1.317
11771W        W84196  18.462  34.507  11.166
11772W        W84197  34.671   6.192  11.982
11773W        W84198  29.063  16.718   4.750
11774W        W84199  27.754  18.511  11.142
11775W        W84200  31.999  36.404   2.715
11776W        W84201  35.937  22.121  13.804
11777W        W84202   6.391  23.361   0.421
11778W        W84203  12.218  11.589   3.694
11779W        W84204  33.511  20.989  12.494
11780W        W84205  28.350  11.291  13.607
11781W        W84206  23.142  41.546  11.172
11782W        W84207  24.392  39.436   2.264
11783W        W84208  31.098   4.963   1.735
11784W        W84209  44.668   4.403  11.184
11785W        W84210  38.747  14.598  12.985
11786W        W84211  16.737  40.683  12.574
11787W        W84212  44.453  41.557   1.789
11788W        W84213  19.174   7.927   0.026
11789W        W84214  19.311  30.126  11.518
11790W        W84215  27.907  10.375   2.341
11791W        W84216  44.992  25.486   3.108
11792W        W84217  12.909  11.169   1.933
11793W        W84218   9.251  23.739  14.374
11794W        W84219  37.324  19.772  12.519
11795W        W84220   8.880  39.368  14.913
11796W        W84221   5.495  43.651   0.285
11797W        W84222  36.831   8.181   3.188
11798W        W84223  39.835  39.817   0.938
11799W        W84224   1.343  26.536  14.306
11800W        W84225  20.212  36.566   1.347
11801W        W84226  40.819   3.361   1.314
11802W        W84227  28.955  44.131  14.863
11803W        W84228   2.765   5.487   0.350
11804W        W84229   6.762   7.972   2.313
11805W        W84230  44.542  42.459   0.902
11806W        W84231   3.907  39.355  14.079
11807W        W84232  27.064  14.175  12.123
11808W        W84233  37.395   7.370   2.890
11809W        W84234  38.133  28.672   3.845
11810W        W84235   7.323  34.720  14.912
11811W        W84236  42.329  40.011  12.584
11812W        W84237   1.784  19.191  13.568
11813W        W84238   5.189  13.643  14.413
11814W        W84239   7.856  44.656  10.973
11815W        W84240  22.009  20.256   4.807
11816W        W84241  41.275  37.507  14.861
11817W        W84242  23.095  18.328   0.891
11818W        W84243  10.427   7.701   2.311
11819W        W84244  21.160  20.436  13.863
11820W        W84245   1.684  15.799  13.927
11821W        W84246  12.180  23.545   3.694
11822W        W84247  13.772  23.934   4.170
11823W        W84248  15.035  16.814   1.262
11824W        W84249   4.963  36.651   5.039
11825W        W84250  40.284  41.237   3.291
11826W        W84251  11.229  37.973  13.298
11827W        W84252  15.248  43.347   3.417
11828W        W84253  33.464   3.843   1.695
11829W        W84254  30.135  34.876  14.324
11830W        W84255  32.875   6.169  12.903
11831W        W84256  44.655  15.626   1.957
11832W        W84257  33.504  20.106  12.021
11833W        W84258  40.506  14.788   0.836
11834W        W84259  41.620  34.841   4.608
11835W        W84260  26.043  26.247   0.067
11836W        W84261  23.263  12.903   0.726
11837W        W84262   7.374  15.279  11.150
11838W        W84263  40.471  17.048   9.962
11839W        W84264  19.693  41.677  14.556
11840W        W84265  13.690  31.399  12.782
11841W        W84266   8.766  36.047  12.679
11842W        W84267  33.650  23.044  14.830
11843W        W84268  22.561   0.949  12.430
11844W        W84269  43.457  44.556   0.268
11845W        W84270   9.389  20.053  11.058
11846W        W84271  17.595   8.061   3.610
11847W        W84272   1.010  41.540  14.961
11848W        W84273  42.016  42.992   3.761
11849W        W84274   8.326  24.073   1.377
11850W        W84275  29.836  23.475   1.868
11851W        W84276   1.521  26.672   1.793
11852W        W84277   7.891   9.194  10.932
11853W        W84278  31.804  33.166  11.891
11854W        W84279  34.981  24.924   1.874
11855W        W84280  39.340  40.369  13.050
11856W        W84281  28.650  22.294  12.014
11857W        W84282  40.062  18.567  12.000
11858W        W84283   1.227  41.423   1.380
11859W        W84284  29.984  18.261  12.882
11860W        W84285  36.453  22.495   1.318
11861W        W84286  38.372  19.797  10.748
11862W        W84287  14.294  40.311   3.569
11863W        W84288  33.909  43.469   4.154
11864W        W84289  33.874  34.704   1.369
11865W        W84290  44.099  14.092  13.394
11866W        W84291  20.316  19.727  14.433
11867W        W84292   4.458  21.632   2.259
11868W        W84293  21.254  22.049   3.646
11869W        W84294  29.012  44.407  12.182
11870W        W84295  42.490  32.842   2.820
11871W        W84296  14.274  13.186  10.574
11872W        W84297  15.307  42.354   2.221
11873W        W84298  36.888  42.508  11.109
11874W        W84299  29.530   8.857   3.357
11875W        W84300   3.418  18.206   0.714
11876W        W84301   8.224  26.530  10.672
11877W        W84302  27.184  17.680   1.423
11878W        W84303  37.177  43.747  11.517
11879W        W84304  40.427  19.356   2.385
11880W        W84305  24.713  37.501   0.167
11881W        W84306   6.026  19.286   0.920
11882W        W84307  18.588  20.455  12.957
11883W        W84308  22.450   2.397  14.859
11884W        W84309  17.241  34.061  11.437
11885W        W84310  23.679  41.804   1.291
11886W        W84311  27.634  16.545   3.159
11887W        W84312  26.214  28.571  14.524
11888W        W84313  27.051  30.177   2.403
11889W        W84314  21.917  44.465  12.455
11890W        W84315  28.625  25.934  13.845
11891W        W84316  26.612   3.720  12.451
11892W        W84317   9.158   6.856   1.213
11893W        W84318  23.136   9.682   3.717
11894W        W84319  37.004  38.368  10.384
11895W        W84320   3.358  44.809   2.738
11896W        W84321  32.572  17.131  10.302
11897W        W84322   4.505  11.155  10.226
11898W        W84323  24.613  12.084  13.639
11899W        W84324  28.158  37.896   1.496
11900W        W84325  11.346   3.822  11.596
11901W        W84326  32.491  36.953  10.691
11902W        W84327  17.827  39.309   1.828
11903W        W84328  30.478   5.908   4.265
11904W        W84329  20.537  32.865   4.259
11905W        W84330  40.011   8.928  10.653
11906W        W84331  16.664  41.976  12.607
11907W        W84332   6.813  33.981  12.407
11908W        W84333   4.820  10.414   2.251
11909W        W84334  13.259  41.637  12.689
11910W        W84335  40.495  20.737  12.450
11911W        W84336  35.932   0.960  11.893
11912W        W84337  14.126  26.868   2.300
11913W        W84338  44.866  42.569  14.031
11914W        W84339   9.327  29.600   4.107
11915W        W84340   8.320   4.922  10.570
11916W        W84341  23.162  39.346  10.719
11917W        W84342  38.059  19.093   3.318
11918W        W84343  32.402  20.761   3.482
11919W        W84344  39.221   0.357  10.167
11920W        W84345  41.684  12.768  11.201
11921W        W84346   4.427  15.122   0.870
11922W        W84347  18.772  33.957  12.190
11923W        W84348  35.842  20.569   4.185
11924W        W84349  15.311  41.936  12.636
11925W        W84350  19.962  32.284   9.551
11926W        W84351  14.071  43.733  14.386
11927W        W84352  24.709  31.504  12.096
11928W        W84353  21.872  23.174   1.358
11929W        W84354  10.919  36.205  12.839
11930W        W84355  21.919   4.906  12.496
11931W        W84356  14.810   6.487  14.981
11932W        W84357  39.795  10.225   3.419
11933W        W84358  42.379  27.741   4.103
11934W        W84359  11.868  30.604  13.160
11935W        W84360  25.235  34.823   3.168
11936W        W84361  20.238  43.852  11.390
11937W        W84362  34.182  44.209   1.306
11938W        W84363   5.644   7.884  14.825
11939W        W84364  34.999  39.289   1.173
11940W        W84365  14.539  36.251  11.171
11941W        W84366  18.988   0.775   3.671
11942W        W84367  41.309   1.291  13.835
11943W        W84368  39.055  10.841  14.093
11944W        W84369  19.187  14.922   5.065
11945W        W84370  13.815   2.812   0.222
11946W        W84371  34.879   3.945   1.783
11947W        W84372  25.304  32.636   2.726
11948W        W84373  27.466  37.517  12.092
11949W        W84374   7.140  22.850   2.597
11950W        W84375  35.330  25.018  14.817
11951W        W84376  40.472  38.468  12.430
11952W        W84377   4.952  29.994   1.397
11953W        W84378  33.488   3.974   3.040
11954W        W84379   9.603  12.929   0.469
11955W        W84380  21.095  14.490   4.617
11956W        W84381  26.554   9.349  12.498
11957W        W84382  25.938  38.765  13.463
11958W        W84383  19.526   4.919  11.632
11959W        W84384  16.705  12.086  13.911
11960W        W84385  17.124  23.134   0.065
11961W        W84386   0.157  26.279  13.899
11962W        W84387   4.884  12.838   2.797
11963W        W84388  34.838  12.230   2.227
11964W        W84389  38.501  20.127  13.950
11965W        W84390  16.923   0.179  11.053
11966W        W84391  20.278   6.768  13.389
11967W        W84392  43.302  26.611  14.697
11968W        W84393  28.488  23.659  14.387
11969W        W84394   0.021  19.043  13.928
11970W        W84395  28.056  17.744   0.342
11971W        W84396  22.937  13.110   2.202
11972W        W84397  21.779  36.232   0.285
11973W        W84398   2.918   8.024   0.410
11974W        W84399   6.353  22.191  14.857
11975W        W84400   8.947   3.522  13.737
11976W        W84401   4.070   6.192   4.948
11977W        W84402  19.759  31.223   1.776
11978W        W84403   0.098  41.017   2.782
11979W        W84404   9.351  38.405  10.568
11980W        W84405  24.589   9.222   0.862
11981W        W84406  21.284   8.633  11.541
11982W        W84407  22.265  22.192  10.530
11983W        W84408  20.163   4.905  12.020
11984W        W84409  31.423   4.372  10.632
11985W        W84410  40.405  24.945   0.977
11986W        W84411  28.703  38.606  12.427
11987W        W84412  39.408  18.495   0.237
11988W        W84413   6.930   7.381  14.856
11989W        W84414  31.562  34.550   1.218
11990W        W84415  32.082   3.954   1.260
11991W        W84416  34.369  10.240  12.925
11992W        W84417   7.196  21.257   1.709
11993W        W84418   1.888  38.809  13.965
11994W        W84419  42.620  42.360  14.024
11995W        W84420  30.554  14.452   4.179
11996W        W84421  31.583  34.369  11.116
11997W        W84422  32.446  19.574   0.712
11998W        W84423  44.704  11.624   3.882
11999W        W84424  18.822  10.617  11.491
12000W        W84425  43.541  28.543  13.144
12001W        W84426  27.710   8.257   4.045
12002W        W84427  28.037  24.970   1.372
12003W        W84428  39.005  29.965  12.530
12004W        W84429   6.928   3.910   1.674
12005W        W84430  35.934  24.007   0.809
12006W        W84431  43.374   5.706  12.022
12007W        W84432  24.075  35.895   1.425
12008W        W84433  33.868   7.381   1.610
12009W        W84434   7.119  39.811  10.675
12010W        W84435  25.831  25.676  14.416
12011W        W84436  19.046  41.973  12.422
12012W        W84437  36.460   4.214  12.635
12013W        W84438  29.297  28.953  11.980
12014W        W84439   0.472  38.479   1.897
12015W        W84440  22.051  20.226  11.585
12016W        W84441  40.430  12.398   2.119
12017W        W84442  24.264  35.561  14.770
12018W        W84443  17.353  35.491   0.888
12019W        W84444  20.169   3.831   1.738
12020W        W84445  30.561  43.261  13.497
12021W        W84446  18.628  36.293  11.538
12022W        W84447   5.845  36.088  13.718
12023W        W84448  33.177   5.653   0.235
12024W        W84449   2.306  36.826  12.050
12025W        W84450   1.050   1.964  14.312
12026W        W84451   7.634  17.173   4.807
12027W        W84452  10.627  38.892  11.928
12028W        W84453   2.437  28.116  14.876
12029W        W84454  29.474  25.791  13.464
12030W        W84455  40.989   8.501  14.319
12031W        W84456  22.194   4.928   1.699
12032W        W84457   7.178  21.079   4.112
12033W        W84458   8.783  19.629  11.646
12034W        W84459  33.990  44.845   2.901
12035W        W84460  44.440  39.600  14.846
12036W        W84461   6.753  36.181   3.857
12037W        W84462  43.047  14.015   0.521
12038W        W84463  34.678   3.878  13.554
12039W        W84464  20.750  19.703   1.376
12040W        W84465   3.480  10.737  10.689
12041W        W84466  24.694   3.845   3.909
12042W        W84467  17.267  39.470   3.333
12043W        W84468  17.160  18.491   0.216
12044W        W84469  36.590  44.242   4.962
12045W        W84470   0.432   0.868  12.813
12046W        W84471  31.088  10.582   2.281
12047W        W84472   2.242   6.300   0.229
12048W        W84473  29.537  25.585   3.858
12049W        W84474  24.726  41.041  13.308
12050W        W84475  23.010   6.895  10.402
12051W        W84476  33.683  32.510   4.686
12052W        W84477  21.067  22.244  13.302
12053W        W84478  21.551  25.189   2.809
12054W        W84479   9.394  42.412   1.213
12055W        W84480  20.539  27.667   4.239
12056W        W84481  35.081  33.357   1.212
12057W        W84482  12.198  10.693   1.686
12058W        W84483  11.554   7.101   2.707
12059W        W84484  23.557   6.895  12.612
12060W        W84485  15.979   1.922   9.758
12061W        W84486  17.601   0.216   0.462
12062W        W84487  36.318  21.567  12.908
12063W        W84488   2.187  33.387  12.982
12064W        W84489   3.177  27.252  11.163
12065W        W84490  38.491  24.428  10.264
12066W        W84491  41.303   2.822   4.485
12067W        W84492   5.366   5.977  12.362
12068W        W84493   4.738   6.048   0.759
12069W        W84494  10.159  43.931   2.375
12070W        W84495   3.683  20.573  13.788
12071W        W84496   0.960  23.948  11.193
12072W        W84497  27.010  16.751  10.557
12073W        W84498   7.005   1.508  14.080
12074W        W84499  29.150   2.891   1.885
12075W        W84500  26.246  39.326  11.443
12076W        W84501  23.296  25.208  12.551
12077W        W84502  26.287  37.636  11.093
12078W        W84503  34.971  20.345   2.346
12079W        W84504  21.069  32.651   2.261
12080W        W84505  39.821  31.383   4.560
12081W        W84506  29.961   5.849  12.973
12082W        W84507  22.835  22.126   0.774
12083W        W84508  30.621  11.309  10.496
12084W        W84509  23.238   7.101   3.844
12085W        W84510   7.666  40.098  14.376
12086W        W84511   4.284  26.600   1.296
12087W        W84512  19.378  10.659  13.352
12088W        W84513   3.322  28.763  10.555
12089W        W84514  11.055  38.357   2.764
12090W        W84515  14.154  28.395  11.101
12091W        W84516  27.838   4.639   0.466
12092W        W84517  31.642  14.516  11.501
12093W        W84518  24.967  26.558  14.446
12094W        W84519  32.664  26.551   1.799
12095W        W84520  25.064  11.198   4.635
12096W        W84521  22.320  31.901  13.078
12097W        W84522  43.447  18.254   3.690
12098W        W84523  42.388  12.765  13.549
12099W        W84524  26.189  20.080  13.111
12100W        W84525  10.606  11.165   0.133
12101W        W84526   8.202  17.990   4.139
12102W        W84527  38.935  19.583   2.395
12103W        W84528  17.306   8.614  14.323
12104W        W84529  13.123   9.447   0.076
12105W        W84530  32.521  35.242  11.146
12106W        W84531  16.193  22.515  12.654
12107W        W84532   3.924  39.447  12.351
12108W        W84533  23.830  32.439  10.771
12109W        W84534  31.390  32.566   1.838
12110W        W84535   8.837  36.880   5.126
12111W        W84536  26.422  12.328   2.838
12112W        W84537  19.166  36.809   1.848
12113W        W84538  17.141  32.891   1.001
12114W        W84539   8.453  12.784  13.040
12115W        W84540   6.718  28.220  11.365
12116W        W84541  31.514  21.455  12.081
12117W        W84542  44.769  27.509   0.421
12118W        W84543  21.829  30.498  10.796
12119W        W84544  40.465  43.386  11.462
12120W        W84545   2.131  37.342   4.127
12121W        W84546  14.245  11.097   1.252
12122W        W84547  35.669   5.697   0.777
12123W        W84548  39.456  26.624  14.467
12124W        W84549  20.629   0.441   2.637
12125W        W84550  12.320  32.455   1.691
12126W        W84551  16.406  25.269   4.193
12127W        W84552   5.818  12.411  13.424
12128W        W84553  15.014  36.796  11.955
12129W        W84554   1.566   4.006  14.625
12130W        W84555   6.979  41.974  14.259
12131W        W84556  29.162  15.517  11.189
12132W        W84557  12.099   6.338   3.177
12133W        W84558  32.581  19.287   3.100
12134W        W84559   0.987  24.355   4.919
12135W        W84560  26.809   6.325   1.720
12136W        W84561  27.913  31.426   3.920
12137W        W84562   2.488   0.523   0.964
12138W        W84563   1.650   2.918   4.742
12139W        W84564  37.942  44.760  13.272
12140W        W84565   5.801  41.065   0.535
12141W        W84566   9.686  20.792   4.600
12142W        W84567  18.181  11.333  14.292
12143W        W84568  33.554  26.584  11.648
12144W        W84569  37.453  31.898  10.889
12145W        W84570  39.484  27.651  11.366
12146W        W84571  42.084   2.292   2.395
12147W        W84572  14.813  37.324   3.263
12148W        W84573  15.624   8.933  11.048
12149W        W84574  23.757  35.862   3.227
12150W        W84575  18.443   1.019  11.991
12151W        W84576  34.837  27.323   0.719
12152W        W84577   1.738  41.619  11.130
12153W        W84578   4.119  36.951   2.193
12154W        W84579  10.622   5.383   2.992
12155W        W84580   4.391  36.430   3.335
12156W        W84581   1.017  10.678  13.968
12157W        W84582  14.212  10.355   4.637
12158W        W84583  29.126   4.406   1.497
12159W        W84584  32.085  26.460  14.434
12160W        W84585  42.402  10.229   1.826
12161W        W84586  24.159  44.005  14.370
12162W        W84587   8.371  44.526   0.689
12163W        W84588  28.745  40.811  14.302
12164W        W84589   9.246   9.381   1.222
12165W        W84590  37.556  25.278  13.518
12166W        W84591  13.452  41.897   4.907
12167W        W84592   6.223   6.131   3.759
12168W        W84593  30.204  38.363   4.242
12169W        W84594  27.995  20.318  12.910
12170W        W84595   0.813   5.442  13.396
12171W        W84596   3.473  40.395   0.088
12172W        W84597  39.510  29.213  12.479
12173W        W84598  30.351   1.902   0.795
12174W        W84599   8.940   2.876  14.450
12175W        W84600   0.584  23.305   2.502
12176W        W84601  29.565  16.195  10.794
12177W        W84602  28.754  18.142  12.189
12178W        W84603  41.368   4.979  11.451
12179W        W84604  27.963  17.756  12.049
12180W        W84605  26.924   4.872  14.066
12181W        W84606  32.574  26.520  14.243
12182W        W84607   7.219   2.614   0.704
12183W        W84608  44.605  28.392  11.604
12184W        W84609   2.006  38.098  12.370
12185W        W84610  28.436  44.347   3.308
12186W        W84611  21.822  27.118   3.097
12187W        W84612  42.453  27.460  14.839
12188W        W84613   5.375   2.883   2.781
12189W        W84614   7.270  44.774   3.191
12190W        W84615  36.314   3.542   1.812
12191W        W84616  40.717  30.081   4.006
12192W        W84617  22.684   4.496  13.484
12193W        W84618   9.358  13.414   3.613
12194W        W84619   0.910   0.916  10.243
12195W        W84620  27.508  39.547  10.656
12196W        W84621   7.968  11.378   4.763
12197W        W84622   8.130  42.354   0.005
12198W        W84623   0.743  19.296   4.570
12199W        W84624  20.205  11.656  11.601
12200W        W84625  20.320  26.074   1.365
12201W        W84626  31.586  17.287  14.414
12202W        W84627  42.967  18.075   3.623
12203W        W84628  22.545  10.563  10.270
12204W        W84629  37.560  29.982  12.364
12205W        W84630  22.066  40.349  11.874
12206W        W84631   9.836   1.788   4.965
12207W        W84632   9.173  26.971  11.770
12208W        W84633  23.689  33.116  11.993
12209W        W84634  36.533  35.347   2.617
12210W        W84635  31.898  11.631   0.447
12211W        W84636   6.732  24.151  10.582
12212W        W84637   5.490  10.145   2.027
12213W        W84638   9.263  33.526   3.237
12214W        W84639  17.621  34.457  11.485
12215W        W84640  15.670  34.601  11.381
12216W        W84641  17.722  26.126   4.593
12217W        W84642  18.295  23.905   4.452
12218W        W84643  22.056  22.574  14.871
12219W        W84644  35.970  41.268   1.199
12220W        W84645   5.429   0.874   3.733
12221W        W84646  43.399  12.777  14.693
12222W        W84647  28.069  36.011  14.357
12223W        W84648  32.492  18.122  12.552
12224W        W84649  26.024   6.523  12.023
12225W        W84650  33.903  20.650  12.597
12226W        W84651  41.436   4.292  11.779
12227W        W84652  23.477  11.806  11.169
12228W        W84653  18.725   4.349   0.402
12229W        W84654  41.281  30.422   0.882
12230W        W84655  15.530  39.755  13.409
12231W        W84656  10.893  19.935   4.142
12232W        W84657   4.261  35.649  12.865
12233W        W84658   5.160   3.334   3.686
12234W        W84659  18.767   7.981  12.919
12235W        W84660  26.954  31.177   0.768
12236W        W84661  35.871   6.692   0.897
12237W        W84662  18.669   4.000  11.150
12238W        W84663  19.833  20.078   2.465
12239W        W84664   5.843   1.865   3.756
12240W        W84665  23.037  30.094   0.806
12241W        W84666  13.569  36.986   3.886
12242W        W84667   9.119  30.639   1.243
12243W        W84668  29.031   9.400   0.646
12244W        W84669  43.941  13.695  13.043
12245W        W84670  24.531  16.282  14.294
12246W        W84671  44.973  23.478   3.365
12247W        W84672  37.717  29.107   3.188
12248W        W84673   2.305  37.378  12.879
12249W        W84674  15.289  23.762   3.285
12250W        W84675   8.086  38.386  10.184
12251W        W84676  25.916  38.344  13.772
12252W        W84677   4.664  18.320   0.405
12253W        W84678  38.069   3.009   2.896
12254W        W84679  27.951   1.258  14.930
12255W        W84680  33.452  32.360   1.398
12256W        W84681  27.616   9.822   3.840
12257W        W84682  33.392  35.139   4.606
12258W        W84683  18.579  21.071   4.496
12259W        W84684  11.914  11.144   0.878
12260W        W84685  39.274  23.128  10.674
12261W        W84686   5.332  40.794   3.653
12262W        W84687  18.787   8.992  10.732
12263W        W84688  25.657  40.693   2.325
12264W        W84689   7.201  39.392  12.581
12265W        W84690   9.803  19.648  11.374
12266W        W84691   3.339  32.163   1.657
12267W        W84692  32.035  23.217  13.941
12268W        W84693   2.967   3.468   4.294
12269W        W84694   7.446  15.282  14.296
12270W        W84695  39.087  26.622  14.854
12271W        W84696  28.651  30.764   2.381
12272W        W84697  23.998  38.815  12.499
12273W        W84698  24.914  29.047   1.122
12274W        W84699  44.482   3.340  12.584
12275W        W84700  13.337  40.590   3.733
12276W        W84701  38.065   6.603  12.594
12277W        W84702  18.303  38.482  13.746
12278W        W84703  19.195  22.161   0.232
12279W        W84704  18.743  18.565   3.344
12280W        W84705   3.211  31.357   4.903
12281W        W84706  16.681  21.089   0.319
12282W        W84707  25.079   2.169   4.048
12283W        W84708  24.527  16.079   2.678
12284W        W84709  37.508  41.244  11.045
12285W        W84710  10.311  14.079   2.787
12286W        W84711   2.410  35.540  14.570
12287W        W84712  40.876  36.457  13.865
12288W        W84713   4.564   1.927  13.020
12289W        W84714   3.922  40.428  11.243
12290W        W84715   3.482  24.799   0.357
12291W        W84716  44.431  39.721  11.470
12292W        W84717   1.450  43.796   2.883
12293W        W84718  32.510   0.278   4.087
12294W        W84719  27.574  39.471   2.431
12295W        W84720  28.519  29.164  11.114
12296W        W84721  16.092  19.313  11.552
12297W        W84722  25.948   9.104  14.757
12298W        W84723   1.801  15.212   1.652
12299W        W84724  20.651   5.434   1.459
12300W        W84725   5.114  42.460   0.972
12301W        W84726  29.976   6.180   1.329
12302W        W84727  23.079   9.723  12.092
12303W        W84728  22.081  10.886  11.598
12304W        W84729  21.062  38.408   4.838
12305W        W84730  21.787   0.252  12.009
12306W        W84731  30.905  36.007   3.290
12307W        W84732  41.410  23.657   0.513
12308W        W84733  22.290   4.792  14.774
12309W        W84734   9.213  14.286  14.901
12310W        W84735  13.290  41.141  10.765
12311W        W84736  33.570  35.373  14.884
12312W        W84737  26.590  17.889   3.222
12313W        W84738   4.766   6.926   2.845
12314W        W84739  30.665  21.759  13.414
12315W        W84740  28.269   2.859  12.298
12316W        W84741  26.639  36.720  14.377
12317W        W84742  11.366  39.479  10.539
12318W        W84743  25.484   1.672   2.605
12319W        W84744  36.851  36.656   2.289
12320W        W84745  24.481  27.700  12.001
12321W        W84746  12.097  27.248   2.369
12322W        W84747  20.656  20.717  14.033
12323W        W84748  23.993  14.666  13.578
12324W        W84749   7.593  18.531  11.640
12325W        W84750  24.983   5.657   4.705
12326W        W84751  37.855  23.931   3.823
12327W        W84752  27.959   5.096   4.092
12328W        W84753  14.899  10.883  13.369
12329W        W84754  36.127  30.198  14.355
12330W        W84755   9.243  12.640   1.350
12331W        W84756  22.121  41.478  12.914
12332W        W84757   2.088  11.277  13.422
12333W        W84758   5.142  28.701   2.754
12334W        W84759   5.484  22.551   4.206
12335W        W84760   0.959  40.941   4.169
12336W        W84761  43.382   8.923   0.443
12337W        W84762  22.041  13.354  11.039
12338W        W84763  22.322   5.251   3.873
12339W        W84764  44.000   1.021   3.349
12340W        W84765  38.833   8.697   4.266
12341W        W84766   8.361  13.047   0.927
12342W        W84767  23.777   7.717   3.346
12343W        W84768  18.649  28.698  14.056
12344W        W84769  30.580   4.526  11.182
12345W        W84770  31.342   9.273  14.532
12346W        W84771  33.139  12.232  11.083
12347W        W84772   7.616  22.065   4.692
12348W        W84773  19.326   8.735  13.040
12349W        W84774  19.056  22.991   4.143
12350W        W84775  23.127  16.777  12.023
12351W        W84776  27.630  40.481  13.639
12352W        W84777  42.082  44.515   0.667
12353W        W84778  12.863  12.099  12.061
12354W        W84779  14.391   9.710  11.220
12355W        W84780   4.306  29.393   0.941
12356W        W84781  16.061  22.995  13.453
12357W        W84782  10.183  32.997  11.122
12358W        W84783  43.938   4.356  14.511
12359W        W84784  26.089  35.867   2.363
12360W        W84785  21.982   0.226  10.727
12361W        W84786  13.431  28.612  10.698
12362W        W84787  35.813  33.877  12.999
12363W        W84788   0.379  24.629   4.372
12364W        W84789  40.052  21.603   3.818
12365W        W84790  26.588  38.844   4.680
12366W        W84791  13.605  38.157  13.853
12367W        W84792   0.213   3.809  11.748
12368W        W84793   6.825  27.265  11.056
12369W        W84794  27.881  17.099  10.073
12370W        W84795  44.725  12.219  12.329
12371W        W84796  38.842  17.785  12.214
12372W        W84797  32.491  35.318   4.374
12373W        W84798  18.525  42.262   4.211
12374W        W84799  27.639   2.507   2.458
12375W        W84800  12.323  22.848  10.473
12376W        W84801  10.071   7.841  12.585
12377W        W84802  27.106  24.697   1.507
12378W        W84803  13.269  40.634  12.579
12379W        W84804  38.222  32.273   0.047
12380W        W84805  35.392  19.162   2.660
12381W        W84806  35.888  39.289   1.154
12382W        W84807  17.695   6.537  12.440
12383W        W84808  38.928  13.365  11.430
12384W        W84809  18.693  30.462   4.761
12385W        W84810  34.843  10.212  14.316
12386W        W84811  13.947  32.601  12.930
12387W        W84812  18.677   1.909   9.780
12388W        W84813  25.111  34.085   3.702
12389W        W84814  32.419  31.252  14.724
12390W        W84815  40.119  34.932  11.811
12391W        W84816  44.796  15.836   9.882
12392W        W84817  41.533  22.143   3.667
12393W        W84818  11.181  37.947   2.460
12394W        W84819  36.854   8.172  12.551
12395W        W84820  19.481  21.105   3.999
12396W        W84821   8.367  39.959  11.584
12397W        W84822  18.004  11.684  11.159
12398W        W84823  31.929  28.952   2.786
12399W        W84824   6.708  36.355   0.261
12400W        W84825  39.347  42.369   0.510
12401W        W84826  18.698   8.041   1.215
12402W        W84827  43.445  23.410  11.265
12403W        W84828  15.235   6.374  14.694
12404W        W84829   7.642   0.225  11.633
12405W        W84830  13.170  16.765   1.856
12406W        W84831  41.679  27.183  10.436
12407W        W84832  39.087   7.319  13.331
12408W        W84833  21.549  31.913   0.790
12409W        W84834  13.051  39.049  11.530
12410W        W84835  22.946  44.340  11.591
12411W        W84836  34.092  27.307  10.694
12412W        W84837  22.963  28.159   2.715
12413W        W84838   7.094  41.173  13.790
12414W        W84839  10.750  43.980  13.241
12415W        W84840  16.712  19.375  13.351
12416W        W84841  40.479  42.845   3.780
12417W        W84842  27.292  13.205  12.131
12418W        W84843  14.634  24.422   5.567
12419W        W84844  13.695  37.568  13.123
12420W        W84845  20.403  30.497  13.355
12421W        W84846  38.263   7.448   3.758
12422W        W84847   7.223   9.019  10.995
12423W        W84848  37.643   3.733  12.954
12424W        W84849  32.193  30.576   1.577
12425W        W84850  41.929  44.781  12.934
12426W        W84851  11.077  28.880   4.133
12427W        W84852  22.621  20.538   4.080
12428W        W84853  25.351  10.305  10.661
12429W        W84854  13.739  23.938   1.221
12430W        W84855  24.535   3.403  14.472
12431W        W84856   8.511   7.689   0.505
12432W        W84857  31.115  23.788   5.297
12433W        W84858  15.165  14.569   3.174
12434W        W84859   7.191   4.546  14.950
12435W        W84860  29.893  17.870   9.763
12436W        W84861  11.113  30.261  13.786
12437W        W84862   9.393   7.783   0.191
12438W        W84863  22.491  25.150   1.272
12439W        W84864  23.961  41.101  12.042
12440W        W84865  22.128  39.175  12.266
12441W        W84866  18.297  43.506   1.460
12442W        W84867   4.281  27.562   4.679
12443W        W84868  35.129  15.335  11.495
12444W        W84869  20.105  21.251   0.265
12445W        W84870   2.300   8.113   4.116
12446W        W84871  26.518   9.704   3.342
12447W        W84872  28.448   2.314   1.796
12448W        W84873  10.252  36.940   4.109
12449W        W84874   9.897  26.474  11.868
12450W        W84875  35.593  43.904  14.825
12451W        W84876  42.301   8.801   0.300
12452W        W84877  12.532   9.140   0.815
12453W        W84878  11.095  10.763  12.036
12454W        W84879  33.973  42.592   2.686
12455W        W84880   7.998   6.432   4.520
12456W        W84881  16.176  24.191  13.845
12457W        W84882   6.224  35.431   1.175
12458W        W84883  31.107  24.087   0.099
12459W        W84884  20.228  12.479  13.275
12460W        W84885  40.034  10.270  14.481
12461W        W84886  23.885  29.960   1.161
12462W        W84887  33.662  30.957   3.179
12463W        W84888  17.570  20.826   4.756
12464W        W84889  30.371  43.549  12.415
12465W        W84890  32.176  42.541   2.823
12466W        W84891  31.522  37.386   1.429
12467W        W84892  40.482  35.373  13.286
12468W        W84893  17.690  33.001   2.127
12469W        W84894  36.625  11.367   2.955
12470W        W84895  12.198   3.025   4.239
12471W        W84896  41.743   3.419   5.029
12472W        W84897  31.891  28.720  12.022
12473W        W84898  44.201   1.989   4.631
12474W        W84899  21.204   9.933  10.686
12475W        W84900   1.129  38.901  10.205
12476W        W84901  35.130   1.831  14.278
12477W        W84902  36.918  22.766   1.990
12478W        W84903  16.091  27.707   0.813
12479W        W84904   8.588   7.895  12.484
12480W        W84905  27.529  26.961  12.588
12481W        W84906  42.081  11.590   4.148
12482W        W84907  42.676  40.499   4.225
12483W        W84908  14.852  35.632   5.110
12484W        W84909   1.660   7.399  12.132
12485W        W84910  11.362   4.749   0.346
12486W        W84911   4.915  35.934  11.554
12487W        W84912  28.595  36.431  10.687
12488W        W84913  33.426  23.954   3.622
12489W        W84914  28.089  11.417   1.944
12490W        W84915   3.791  33.369   2.719
12491W        W84916  35.809  24.515   0.490
12492W        W84917   1.431  41.869   3.243
12493W        W84918  28.684  34.425  10.617
12494W        W84919  39.442  27.902  13.918
12495W        W84920  22.253   2.301   2.354
12496W        W84921   2.319   9.661  13.411
12497W        W84922  42.291   3.930  13.272
12498W        W84923   4.441  11.929  11.472
12499W        W84924  12.657  39.460   2.275
12500W        W84925  25.505  40.695   4.607
12501W        W84926  24.907   7.784   3.665
12502W        W84927  22.207  11.691  14.888
12503W        W84928   7.301  42.778   3.250
12504W        W84929  28.058  25.259  11.718
12505W        W84930  40.989  28.813   0.720
12506W        W84931  20.217  44.539   3.696
12507W        W84932  44.994  39.297  10.650
12508W        W84933   9.191  23.038   2.280
12509W        W84934   9.128  32.757   3.650
12510W        W84935   2.936  38.259   3.312
12511W        W84936   5.871  16.000  10.116
12512W        W84937  42.109  44.516  12.084
12513W        W84938   0.591   1.904   4.067
12514W        W84939   9.306  21.824   3.756
12515W        W84940  24.070  19.114  10.433
12516W        W84941  40.239   0.984  10.976
12517W        W84942  26.919  29.073  10.570
12518W        W84943  30.589   4.289  14.252
12519W        W84944   3.171   0.461  12.886
12520W        W84945  29.721  36.355  14.020
12521W        W84946  29.027  42.080  12.977
12522W        W84947  16.590  40.338  11.928
12523W        W84948   0.999  13.269  10.698
12524W        W84949   8.313  29.374   1.934
12525W        W84950   7.669   4.351   0.092
12526W        W84951  40.783  41.605  12.538
12527W        W84952  20.381  31.496   0.156
12528W        W84953  20.941   2.471   0.860
12529W        W84954  35.921  21.994  11.844
12530W        W84955  40.832  42.463  14.421
12531W        W84956  44.722   1.298  13.897
12532W        W84957  38.396  44.728   1.834
12533W        W84958  17.345  37.384   2.325
12534W        W84959  42.090  42.366  13.993
12535W        W84960  11.312  33.979   0.280
12536W        W84961  15.967  43.865  12.834
12537W        W84962  44.370   5.454  11.326
12538W        W84963  44.402   7.671  14.432
12539W        W84964   3.535  29.228  10.600
12540W        W84965   9.826  13.336   0.885
12541W        W84966   6.820   7.979   4.543
12542W        W84967   2.795  30.616  11.163
12543W        W84968  25.980  44.461   0.061
12544W        W84969  25.988  32.225   9.785
12545W        W84970  14.585  44.006  13.887
12546W        W84971  20.929  42.343   4.221
12547W        W84972  23.651   0.485  10.979
12548W        W84973  27.640  41.327   1.386
12549W        W84974  24.455  22.057   1.531
12550W        W84975  14.107   0.493   2.535
12551W        W84976   0.028  18.256  11.526
12552W        W84977  26.996  27.553   0.175
12553W        W84978  19.184  42.557   0.835
12554W        W84979   6.201  43.995  13.384
12555W        W84980   1.498  18.956  11.359
12556W        W84981  34.949   7.728   2.636
12557W        W84982  37.443  27.948   2.104
12558W        W84983  25.591  15.300  11.480
12559W        W84984   7.814  41.927   3.516
12560W        W84985  35.582   7.764   4.743
12561W        W84986  41.867  24.649  14.015
12562W        W84987  37.296   4.842  13.552
12563W        W84988  11.664  23.329  14.917
12564W        W84989  38.121  23.123   1.713
12565W        W84990   0.231   4.894  13.754
12566W        W84991  21.707  16.234   2.666
12567W        W84992  28.845  28.011  11.323
12568W        W84993  34.811  21.916  11.907
12569W        W84994  10.555  14.642  14.813
12570W        W84995  22.999  35.548  14.394
12571W        W84996  23.552  17.572   0.933
12572W        W84997   8.349  32.815   4.192
12573W        W84998  36.409  29.002  13.641
12574W        W84999  35.932   8.332  11.569
12575W        W85000  44.895  19.729  14.424
12576W        W85001  40.394   1.524   3.336
12577W        W85002  35.648  26.699   2.906
12578W        W85003  12.645  34.365   1.374
12579W        W85004   1.763   6.620  11.214
12580W        W85005  41.301  29.081   3.317
12581W        W85006  27.541   6.399  12.604
12582W        W85007  37.361  38.536  12.695
12583W        W85008   1.793  16.861  12.594
12584W        W85009   7.872   4.156   2.516
12585W        W85010  10.574  30.030  13.936
12586W        W85011  14.685  18.492  13.812
12587W        W85012  28.133  10.673   4.067
12588W        W85013  16.809  21.032  10.618
12589W        W85014  43.189  10.220   4.766
12590W        W85015  16.586   5.752   1.671
12591W        W85016   5.020  12.917  11.444
12592W        W85017  36.502  29.810  14.489
12593W        W85018   4.417  31.793  14.511
12594W        W85019  35.478   1.128   0.494
12595W        W85020  34.296  17.057   2.878
12596W        W85021  42.711  25.475   2.282
12597W        W85022  33.089   2.641   2.892
12598W        W85023  33.610  44.747   4.551
12599W        W85024  14.570  41.263   0.690
12600W        W85025  15.962  14.650  13.162
12601W        W85026  21.169  20.157  11.915
12602W        W85027  14.627   8.159   0.626
12603W        W85028  26.860  10.208  13.560
12604W        W85029  22.703  22.138  10.862
12605W        W85030  20.446  44.845  13.613
12606W        W85031  39.792  29.201  11.171
12607W        W85032  21.729  10.181   4.308
12608W        W85033  26.190  34.079  12.468
12609W        W85034   9.387  18.560  12.480
12610W        W85035   9.327   9.375  11.503
12611W        W85036  41.485  24.452   2.917
12612W        W85037  12.858  10.313  14.508
12613W        W85038   9.279  18.853  10.716
12614W        W85039  22.493  24.432   0.491
12615W        W85040   4.974  37.267   0.583
12616W        W85041  10.784  44.679  14.053
12617W        W85042   8.060  41.262   3.702
12618W        W85043  28.985  42.859  13.609
12619W        W85044   8.371   9.128  11.115
12620W        W85045  42.487  26.715   2.001
12621W        W85046  28.026  27.030  13.848
12622W        W85047  28.403  36.495   1.772
12623W        W85048   2.399  21.713  14.723
12624W        W85049  44.891  19.665  11.486
12625W        W85050  20.466   4.416   2.929
12626W        W85051  11.766  33.075   3.768
12627W        W85052  19.959  36.581   0.707
12628W        W85053  41.595  36.439  13.297
12629W        W85054  12.155   8.416   2.841
12630W        W85055  25.917  32.453  12.867
12631W        W85056   6.470  24.582   1.902
12632W        W85057  17.230  35.976   2.357
12633W        W85058   2.495  39.404   1.373
12634W        W85059   3.821  27.460   0.340
12635W        W85060  10.654  34.425   0.418
12636W        W85061  33.080  32.373   1.845
12637W        W85062  25.738  40.140   2.267
12638W        W85063  19.580  26.489  10.259
12639W        W85064  30.323  24.505   2.813
12640W        W85065  41.978  29.394  10.555
12641W        W85066  34.609   9.583  13.400
12642W        W85067   0.426  44.458  13.021
12643W        W85068  32.473  38.897   0.281
12644W        W85069  20.220   8.569  12.632
12645W        W85070  13.830  37.054   1.861
12646W        W85071  20.065  26.740  11.423
12647W        W85072  25.701  17.165   1.919
12648W        W85073  42.963   4.985   1.506
12649W        W85074  31.977  15.212   1.835
12650W        W85075   1.027  26.940  11.105
12651W        W85076   0.892   5.637   3.487
12652W        W85077  37.838  27.563   2.724
12653W        W85078  19.126  35.384  11.543
12654W        W85079   5.166  29.578   2.315
12655W        W85080  26.217  35.608   1.775
12656W        W85081  14.454  44.357  13.402
12657W        W85082  16.724  27.685  13.125
12658W        W85083  12.608  11.840  13.588
12659W        W85084   4.263   0.045   2.236
12660W        W85085  32.816   9.541   4.243
12661W        W85086  25.723  13.644  11.947
12662W        W85087  32.562   3.732  13.796
12663W        W85088  10.238  39.408  14.773
12664W        W85089   8.748   4.237   4.355
12665W        W85090  10.695  27.277  11.983
12666W        W85091  38.843  30.918   0.835
12667W        W85092   3.595  42.711   3.211
12668W        W85093  18.582  20.186  11.445
12669W        W85094   9.467  35.808   2.844
12670W        W85095  17.533  35.859   0.515
12671W        W85096  32.716   2.181   1.794
12672W        W85097  29.137  22.645  11.142
12673W        W85098  10.113  44.987   3.767
12674W        W85099  43.036   7.653   1.797
12675W        W85100   7.831  18.067   1.342
12676W        W85101  18.531  30.022  13.039
12677W        W85102  37.527  15.628   3.793
12678W        W85103  18.748  44.290   1.396
12679W        W85104   7.339  31.922  11.780
12680W        W85105  30.913   0.707   2.171
12681W        W85106  32.439  28.262  12.631
12682W        W85107  36.932   9.703   4.592
12683W        W85108   3.937  25.077   0.431
12684W        W85109  17.706  38.861   0.514
12685W        W85110  23.680  40.944   4.080
12686W        W85111  32.005  29.492   2.413
12687W        W85112  43.175  28.949   4.778
12688W        W85113  44.710  12.713  11.598
12689W        W85114   9.463  17.235  11.927
12690W        W85115  36.336  15.999  13.504
12691W        W85116   7.188  43.437   0.187
12692W        W85117  32.453  12.553   2.901
12693W        W85118   5.633  40.466   3.253
12694W        W85119  44.023  27.292   1.908
12695W        W85120   6.254  26.307   3.259
12696W        W85121  14.186  27.676   2.002
12697W        W85122  40.285   2.333  12.467
12698W        W85123  33.705  38.198   1.698
12699W        W85124  27.703   1.666   2.158
12700W        W85125   5.808  38.764   4.277
12701W        W85126  24.324  29.646  12.861
12702W        W85127  25.190  43.001  14.617
12703W        W85128  25.106  43.274   0.510
12704W        W85129   5.715   9.412  14.318
12705W        W85130  33.629  28.204   0.507
12706W        W85131  36.888  42.885   2.264
12707W        W85132  14.625  11.106   0.893
12708W        W85133   3.863   9.743  11.158
12709W        W85134   1.434  18.249   2.805
12710W        W85135  30.005  44.044   0.258
12711W        W85136   5.181  21.574  11.550
12712W        W85137  40.284   5.931  13.923
12713W        W85138  10.325  31.143   0.782
12714W        W85139  17.042   0.897   3.657
12715W        W85140   2.773  18.661   4.585
12716W        W85141  14.017   2.885   4.363
12717W        W85142   5.966  14.812  12.386
12718W        W85143  27.493  35.356   1.035
12719W        W85144  10.626  41.314   3.541
12720W        W85145  31.931  11.862   4.938
12721W        W85146  39.931   0.734   5.581
12722W        W85147  16.548  10.746   0.485
12723W        W85148  18.587  25.023  12.031
12724W        W85149  16.214  20.765  10.593
12725W        W85150  14.089  15.676  14.344
12726W        W85151  29.067  25.961  13.119
12727W        W85152  30.407  30.697   1.846
12728W        W85153  38.978  20.692   1.690
12729W        W85154  21.227  15.841   4.175
12730W        W85155  14.486  34.758   0.327
12731W        W85156  30.722  26.470  11.678
12732W        W85157  36.537  43.373   2.882
12733W        W85158  10.400  18.615   4.530
12734W        W85159  36.091   6.459   0.420
12735W        W85160  25.213  35.401   1.686
12736W        W85161  12.409  36.116   3.605
12737W        W85162  11.034  37.352   3.679
12738W        W85163  31.154   0.444   2.564
12739W        W85164  44.544  43.108   0.435
12740W        W85165   0.519  41.456  14.805
12741W        W85166  40.141   5.758   3.596
12742W        W85167  24.855  35.983  14.242
12743W        W85168  23.193  28.079   3.333
12744W        W85169  34.343  16.657  14.178
12745W        W85170  25.003  34.069   4.221
12746W        W85171   7.368  39.994   1.854
12747W        W85172  26.088  14.051  13.248
12748W        W85173  25.233   1.163  11.655
12749W        W85174   6.656  23.167  13.693
12750W        W85175  25.440  15.057  13.048
12751W        W85176  21.767  40.344  12.919
12752W        W85177  16.128  44.397   3.377
12753W        W85178   2.323  42.899  11.882
12754W        W85179  43.827   5.923  12.115
12755W        W85180  10.307   8.458  13.400
12756W        W85181  15.253  36.573   2.954
12757W        W85182  24.451  16.359  12.274
12758W        W85183   8.270  41.966   2.245
12759W        W85184  43.023   0.548  14.498
12760W        W85185  28.208  44.705   1.731
12761W        W85186  42.215  16.784  14.980
12762W        W85187   5.412  31.273   2.618
12763W        W85188  34.269   2.066  11.218
12764W        W85189  12.267  11.174   4.053
12765W        W85190  24.933   8.423  13.624
12766W        W85191  15.078   3.805   0.685
12767W        W85192  27.161  40.604  12.393
12768W        W85193  34.970  19.625   0.505
12769W        W85194  43.004  11.845  11.397
12770W        W85195  33.158  28.464  13.830
12771W        W85196  21.427  16.766  14.650
12772W        W85197  11.826   4.605   0.143
12773W        W85198  44.431  42.818   2.688
12774W        W85199  37.860  38.824   4.647
12775W        W85200  40.369  33.633   1.530
12776W        W85201  10.435   9.972  13.563
12777W        W85202  37.648   9.796   0.008
12778W        W85203  25.269   1.960   2.985
12779W        W85204  21.392  35.762   3.868
12780W        W85205  20.123  21.000   0.711
12781W        W85206   8.867  15.743  13.081
12782W        W85207  38.966   0.293  12.334
12783W        W85208  15.189  14.231   0.966
12784W        W85209   2.984  23.991   3.255
12785W        W85210  13.168  34.767   0.309
12786W        W85211  43.915  41.617  12.400
12787W        W85212  25.734  40.475   3.739
12788W        W85213   3.769   1.760  11.692
12789W        W85214  27.057   1.268  13.802
12790W        W85215  18.731  17.600  12.217
12791W        W85216  26.427  17.144  13.276
12792W        W85217  12.554  26.386  14.331
12793W        W85218   3.403  34.018  11.587
12794W        W85219   7.207  32.671   1.330
12795W        W85220  43.805  35.201   2.785
12796W        W85221   5.321  43.840  11.742
12797W        W85222  42.279   0.478   2.742
12798W        W85223  29.632  44.670  11.119
12799W        W85224  19.543  38.392  12.493
12800W        W85225  29.564   3.218  10.739
12801W        W85226  24.017  22.596   1.719
12802W        W85227   2.990   8.692   3.210
12803W        W85228  20.811   8.420   1.283
12804W        W85229   3.724  29.957   3.627
12805W        W85230  44.764  16.104   1.204
12806W        W85231  39.007  44.816  11.955
12807W        W85232   6.187  19.033  13.397
12808W        W85233  14.711  14.734   0.400
12809W        W85234  22.546  34.581  12.124
12810W        W85235  23.644  41.471   1.658
12811W        W85236  13.715  10.603  12.115
12812W        W85237  32.575  13.268   4.112
12813W        W85238  41.947   9.305   0.298
12814W        W85239  11.857   4.245  14.788
12815W        W85240  14.665  32.422   4.201
12816W        W85241  41.017  18.064   0.006
12817W        W85242  25.690  14.648   4.112
12818W        W85243   7.251   4.254   0.386
12819W        W85244  37.158  39.629   1.182
12820W        W85245  29.836  25.486  13.697
12821W        W85246  17.210  39.744   2.313
12822W        W85247   8.185  15.063  12.621
12823W        W85248   5.869  13.774   3.758
12824W        W85249  26.566  26.695   0.714
12825W        W85250   0.319  37.862  14.595
12826W        W85251  13.339  25.456  10.603
12827W        W85252  43.856   8.888  10.336
12828W        W85253  22.003  28.625   1.292
12829W        W85254  22.723  29.225  13.428
12830W        W85255  35.574  32.904   3.264
12831W        W85256  32.834  10.803   4.585
12832W        W85257   4.120   9.731   0.893
12833W        W85258  38.840  28.999   1.817
12834W        W85259   2.917  35.388  13.514
12835W        W85260  36.560  11.259  12.928
12836W        W85261  38.546  41.083  13.373
12837W        W85262  16.842  32.015   2.266
12838W        W85263  34.658  18.833  13.839
12839W        W85264  28.344  13.633   2.196
12840W        W85265  20.695  38.906   2.312
12841W        W85266   3.370   8.553   2.183
12842W        W85267  41.012   9.873  11.989
12843W        W85268   3.275  10.001   1.378
12844W        W85269  43.301   0.445  12.094
12845W        W85270  15.317  43.737   4.552
12846W        W85271   5.439   0.917  10.215
12847W        W85272  13.544  32.135   1.114
12848W        W85273  28.164  19.603   0.803
12849W        W85274  14.209  35.536   2.291
12850W        W85275  33.529   9.265   3.184
12851W        W85276  31.911  29.956  11.207
12852W        W85277   4.547  14.130  11.206
12853W        W85278  39.512   7.463  13.091
12854W        W85279  25.664   8.021   4.812
12855W        W85280  10.850  23.903   2.447
12856W        W85281  21.283  21.197   0.136
12857W        W85282   7.839  16.503  11.697
12858W        W85283  43.551  34.875  12.368
12859W        W85284  32.203  19.130   2.314
12860W        W85285   1.063  36.485   3.190
12861W        W85286  25.767  43.336   3.120
12862W        W85287  27.506  21.441  11.560
12863W        W85288  20.132  15.941  13.286
12864W        W85289  31.874  19.970  14.033
12865W        W85290  25.782  11.388   0.712
12866W        W85291  21.649  20.303   0.439
12867W        W85292  21.721  40.614  13.359
12868W        W85293  31.368  37.527  14.795
12869W        W85294  12.851  17.482  11.262
12870W        W85295  41.791   1.847   0.304
12871W        W85296   5.719   1.219   1.147
12872W        W85297   5.636   5.734  11.907
12873W        W85298  31.095  25.176  11.447
12874W        W85299   8.387  44.263  11.895
12875W        W85300  27.623  20.131  10.427
12876W        W85301  24.798  18.116  14.922
12877W        W85302  18.680  12.641   1.034
12878W        W85303  32.537  39.608  11.142
12879W        W85304  21.491  21.978   2.746
12880W        W85305  25.628  36.100   2.329
12881W        W85306  41.864  33.177   0.351
12882W        W85307  15.076  12.558   4.153
12883W        W85308   2.510  14.892  13.837
12884W        W85309  29.064  13.586   3.213
12885W        W85310  23.752   3.486   2.188
12886W        W85311  44.534  40.330   2.180
12887W        W85312  43.502  39.917   0.187
12888W        W85313  28.163  19.917  13.884
12889W        W85314   7.314  29.971  11.938
12890W        W85315   8.872  24.429   3.578
12891W        W85316  40.372  10.443   5.047
12892W        W85317  27.906  27.382  14.199
12893W        W85318  38.150  27.081  11.056
12894W        W85319  12.413  26.301  10.737
12895W        W85320  31.473  33.489  13.671
12896W        W85321  33.344  25.375   0.841
12897W        W85322  20.617   6.722  11.585
12898W        W85323  25.015  31.848  12.345
12899W        W85324   6.644   9.857  13.462
12900W        W85325  17.708  40.259   1.790
12901W        W85326  11.675  41.379  14.018
12902W        W85327  29.524   9.687  11.596
12903W        W85328   0.252  21.026   2.018
12904W        W85329  25.085  16.542   1.327
12905W        W85330  17.729  16.774   0.052
12906W        W85331  16.275  44.336  12.168
12907W        W85332   4.436  24.043  11.596
12908W        W85333   2.386  33.412  14.581
12909W        W85334  27.336  29.166   1.335
12910W        W85335  44.451  27.128  11.972
12911W        W85336  34.133  30.750   1.849
12912W        W85337  35.651  28.224  10.784
12913W        W85338  12.775   1.263   3.181
12914W        W85339  14.055  12.733   0.479
12915W        W85340  19.277   3.907  14.429
12916W        W85341  34.674  38.522  13.514
12917W        W85342  18.362  38.965  10.611
12918W        W85343  26.075  43.017  10.259
12919W        W85344  19.866  21.742  13.627
12920W        W85345  17.225  26.084  14.945
12921W        W85346  18.720  13.274   3.133
12922W        W85347  24.119  28.039   1.689
12923W        W85348   6.639   9.801   0.338
12924W        W85349  19.332  36.434   4.044
12925W        W85350  36.877   0.916  14.330
12926W        W85351   2.300  18.001   4.744
12927W        W85352   0.523  19.000  12.920
12928W        W85353  38.429   8.465   1.630
12929W        W85354  25.217  15.357   3.654
12930W        W85355  17.383  27.229  12.978
12931W        W85356   5.041   8.721  12.966
12932W        W85357   9.624  36.741   2.114
12933W        W85358  23.936  24.128  14.337
12934W        W85359  15.662  27.738   1.681
12935W        W85360  31.637  29.031   3.873
12936W        W85361  13.711  33.451   1.310
12937W        W85362  39.743  26.927   2.237
12938W        W85363   1.229  13.435  11.961
12939W        W85364  18.052  19.540  13.616
12940W        W85365  35.572  13.712   0.301
12941W        W85366  38.328   2.944  14.913
12942W        W85367   6.421  39.089   3.190
12943W        W85368   8.596  27.963   2.399
12944W        W85369  41.297  14.649  14.000
12945W        W85370   2.043  32.032  12.596
12946W        W85371  11.189  13.299  12.680
12947W        W85372  33.182  25.880  12.055
12948W        W85373   7.800  19.226   2.805
12949W        W85374  24.529  42.755   3.160
12950W        W85375  39.749   0.076   5.031
12951W        W85376  29.485   1.454  12.470
12952W        W85377   7.613  44.820   4.559
12953W        W85378  41.314  42.379  11.852
12954W        W85379  21.737  43.788   2.391
12955W        W85380  11.145  33.070   0.023
12956W        W85381  20.803   5.270   2.779
12957W        W85382   1.719  29.125  13.495
12958W        W85383  27.368  22.422   2.150
12959W        W85384  10.313  20.194  11.892
12960W        W85385  25.418  34.077  12.057
12961W        W85386  19.251  44.437   3.432
12962W        W85387  37.381  10.436   4.069
12963W        W85388  32.990  12.132  14.142
12964W        W85389  22.222  14.980  11.576
12965W        W85390   5.503   0.317  11.991
12966W        W85391  39.861  29.703  12.903
12967W        W85392  40.957  25.129   1.965
12968W        W85393  39.353  42.706   1.942
12969W        W85394  26.714  16.258  12.883
12970W        W85395  32.019  38.304   3.150
12971W        W85396  26.105  28.740   2.495
12972W        W85397  12.147  15.271   1.175
12973W        W85398  26.605   1.346   1.013
12974W        W85399   4.226  29.522   4.834
12975W        W85400  24.439  24.671  12.815
12976W        W85401  20.945  32.747  11.930
12977W        W85402  19.685  38.458   5.091
12978W        W85403  25.698   4.404  11.269
12979W        W85404   6.500  25.947  11.265
12980W        W85405  29.426   4.273  11.569
12981W        W85406   9.201  10.070  10.374
12982W        W85407  43.857  31.861  13.756
12983W        W85408  44.554  22.754   9.744
12984W        W85409  12.767  22.640   4.735
12985W        W85410  39.753   2.304  12.386
12986W        W85411  38.334  27.082  12.370
12987W        W85412   3.464  27.188   3.756
12988W        W85413  44.355  32.215   1.376
12989W        W85414  10.076  12.839  11.073
12990W        W85415  35.000  33.549  14.220
12991W        W85416  42.113   8.935   1.139
12992W        W85417   2.979  39.052   0.672
12993W        W85418   3.901  44.917  10.884
12994W        W85419  40.931  43.619  12.659
12995W        W85420   0.859  27.149   2.846
12996W        W85421  40.957  11.323  13.882
12997W        W85422   9.346  41.850   4.564
12998W        W85423  13.771   5.848   3.801
12999W        W85424  35.098   5.469   3.262
13000W        W85425  24.355  25.917   3.272
13001W        W85426   1.810  38.425   4.680
13002W        W85427  43.885  40.502  12.571
13003W        W85428   8.109   1.378  10.554
13004W        W85429  16.536   6.193  13.421
13005W        W85430  10.630  20.064  14.490
13006W        W85431  16.017   1.563   4.159
13007W        W85432   3.390  29.140   2.330
13008W        W85433  16.704  17.217  13.157
13009W        W85434  23.681   6.715  13.459
13010W        W85435  41.969   8.287  13.383
13011W        W85436  31.307  38.063   1.419
13012W        W85437   5.702  36.843   0.801
13013W        W85438   8.998  20.474  12.499
13014W        W85439  31.435  29.124   2.859
13015W        W85440  29.413  38.069  13.823
13016W        W85441  40.725   2.324  13.815
13017W        W85442  15.297   1.878   1.199
13018W        W85443  11.795   7.679  11.212
13019W        W85444  20.676  31.534   1.660
13020W        W85445  13.607   5.680   0.842
13021W        W85446  20.515  21.701   0.358
13022W        W85447   9.818   9.510  10.747
13023W        W85448  10.379  11.506   1.711
13024W        W85449  17.753   1.798   4.064
13025W        W85450  43.861  24.709  14.999
13026W        W85451  19.997  40.528   0.320
13027W        W85452   6.808  25.340  13.989
13028W        W85453  17.139  21.249   2.384
13029W        W85454  36.265  41.299  10.577
13030W        W85455  37.482  35.889   3.839
13031W        W85456   1.337  25.559  12.591
13032W        W85457  20.691   3.948   2.802
13033W        W85458  34.005  32.940   2.774
13034W        W85459  23.829   8.264  13.141
13035W        W85460  22.404  40.594  14.563
13036W        W85461   0.598  13.233   4.193
13037W        W85462  35.089  29.897  14.351
13038W        W85463  31.475  35.823  11.518
13039W        W85464   3.974  34.892  13.110
13040W        W85465   8.856  27.087  14.337
13041W        W85466  15.757  19.006   2.601
13042W        W85467  14.410  34.207   0.323
13043W        W85468  30.464  32.407   2.586
13044W        W85469   6.185  20.371  13.801
13045W        W85470  23.600  21.879   1.881
13046W        W85471  44.344  40.892   3.069
13047W        W85472  43.034  19.178  11.620
13048W        W85473  14.588  40.857   1.440
13049W        W85474   1.478  26.053  14.414
13050W        W85475  38.771  23.761  12.442
13051W        W85476   2.159  14.565   4.912
13052W        W85477  32.127  38.564   3.591
13053W        W85478  17.337  12.560  13.971
13054W        W85479  40.566  24.965   3.353
13055W        W85480   3.918  23.630   4.614
13056W        W85481   3.728  43.567  12.504
13057W        W85482  22.624  39.437   0.278
13058W        W85483   9.822  38.113   4.783
13059W        W85484  39.561  30.847   0.287
13060W        W85485   3.302  23.526   1.819
13061W        W85486  38.409  35.645   4.299
13062W        W85487  44.780  22.705  11.640
13063W        W85488  24.718  14.574  12.078
13064W        W85489  11.761  11.411   0.111
13065W        W85490  32.714  17.097   4.181
13066W        W85491  10.648   1.493  10.660
13067W        W85492  32.454  23.538  13.998
13068W        W85493  13.840  26.181  14.360
13069W        W85494  30.475   6.622  12.443
13070W        W85495  15.558  33.214  12.163
13071W        W85496   5.810  30.676   4.896
13072W        W85497  21.822  39.902  10.700
13073W        W85498   7.078   0.170  13.908
13074W        W85499  42.215  35.440   1.353
13075W        W85500  27.184  31.644  10.440
13076W        W85501  30.637  26.698   2.301
13077W        W85502   6.415  32.944   3.911
13078W        W85503  31.702  32.185   5.096
13079W        W85504   9.608  27.373  10.640
13080W        W85505   7.887  33.863   3.662
13081W        W85506  15.793  24.535   1.939
13082W        W85507   5.798  26.059   4.576
13083W        W85508   9.889  31.155  11.214
13084W        W85509  21.426   2.014  14.987
13085W        W85510  40.315  33.721  11.690
13086W        W85511  34.933   6.962  12.221
13087W        W85512  32.978  44.108   1.190
13088W        W85513  25.971   3.464  10.972
13089W        W85514  25.615  10.718  10.954
13090W        W85515  24.135   7.462  13.405
13091W        W85516   8.616   6.350  10.666
13092W        W85517  22.230   0.223   3.687
13093W        W85518   1.544  39.389  14.258
13094W        W85519  19.373  15.054   1.272
13095W        W85520   2.208  32.875  12.945
13096W        W85521  27.093  43.260   2.794
13097W        W85522  39.500  26.901   1.770
13098W        W85523  35.717   8.892   0.547
13099W        W85524  21.041  20.794   3.138
13100W        W85525  16.796  43.903   4.378
13101W        W85526  20.269  13.211  11.388
13102W        W85527   6.044   4.009   1.833
13103W        W85528  44.399  30.644  12.418
13104W        W85529  40.000  35.964  10.748
13105W        W85530  29.089  19.191   2.978
13106W        W85531  42.003   0.056  13.419
13107W        W85532  40.657  22.110   3.326
13108W        W85533  21.908  12.634   0.916
13109W        W85534  30.212  23.029   0.401
13110W        W85535  19.303   1.964   2.660
13111W        W85536  39.464   8.154   1.284
13112W        W85537  31.508  33.758   0.490
13113W        W85538  42.512  19.109   2.166
13114W        W85539   0.381  21.088   4.504
13115W        W85540  11.574  42.225   2.906
13116W        W85541  12.280   3.671   2.256
13117W        W85542   8.841   7.066  14.429
13118W        W85543  37.874   4.713   3.259
13119W        W85544   9.775  11.289   4.502
13120W        W85545   3.411  44.835   4.724
13121W        W85546  39.326   9.732  14.358
13122W        W85547  44.286  11.006   4.390
13123W        W85548  31.174  10.128   4.385
13124W        W85549  34.033   2.655  11.971
13125W        W85550  25.295  39.398  11.726
13126W        W85551  35.680  42.831   0.723
13127W        W85552   5.328   8.847  14.736
13128W        W85553  32.984  37.382  11.140
13129W        W85554   1.332   4.151   4.539
13130W        W85555   3.837  12.314  14.751
13131W        W85556  19.646  13.803  11.084
13132W        W85557  29.016  30.277   9.866
13133W        W85558  34.052  17.178  12.367
13134W        W85559   3.936  26.979   1.825
13135W        W85560  17.715   5.952   4.716
13136W        W85561  12.610  19.535   2.606
13137W        W85562   9.226  37.581   3.893
13138W        W85563   0.781  23.951   2.931
13139W        W85564  14.428  37.489  10.282
13140W        W85565   9.591  17.232  13.143
13141W        W85566  26.618  43.200  11.903
13142W        W85567  29.184   2.944   4.490
13143W        W85568  42.434  37.852  10.777
13144W        W85569  44.190  36.098  14.493
13145W        W85570   4.320   9.097   4.617
13146W        W85571   0.203   4.762  12.896
13147W        W85572  29.475  39.178  11.145
13148W        W85573  17.188  44.768  10.133
13149W        W85574  23.641   0.035  11.312
13150W        W85575  30.481  10.839   4.214
13151W        W85576  17.251  40.423  11.234
13152W        W85577  34.182  35.564   1.150
13153W        W85578  33.518  22.691   2.362
13154W        W85579   4.117   9.431  11.464
13155W        W85580  30.335  18.303   1.218
13156W        W85581  23.277  43.572  14.844
13157W        W85582  25.421  28.711  13.406
13158W        W85583   8.706  22.204   1.850
13159W        W85584  11.284  17.400   3.140
13160W        W85585  34.044  34.970   0.947
13161W        W85586  10.665   3.648  11.639
13162W        W85587   8.908  15.993  11.565
13163W        W85588   9.517  13.905  12.289
13164W        W85589  16.063  37.318  12.453
13165W        W85590  31.400   4.492   0.871
13166W        W85591  26.096  44.305  12.917
13167W        W85592  27.082  32.496  12.434
13168W        W85593  38.558   2.899   0.365
13169W        W85594  27.305   6.897  12.607
13170W        W85595   8.407  22.669   3.295
13171W        W85596   9.334  13.293   0.723
13172W        W85597   2.279  24.569  10.594
13173W        W85598  36.285   3.801  12.887
13174W        W85599  13.546   5.383  13.931
13175W        W85600  31.457  30.955   4.904
13176W        W85601   1.253   7.184  14.319
13177W        W85602  16.179  16.060   4.748
13178W        W85603  18.816  37.957  12.214
13179W        W85604  18.676  13.186  14.740
13180W        W85605  24.728   1.752   4.647
13181W        W85606  30.120  23.758   2.207
13182W        W85607  20.803   2.585   4.765
13183W        W85608  39.373   3.055  14.369
13184W        W85609  20.071  10.400   2.119
13185W        W85610  37.818  35.853   2.589
13186W        W85611  35.819  21.749   2.263
13187W        W85612  36.520  43.358  11.320
13188W        W85613  25.496  33.999   1.398
13189W        W85614  16.473  19.290   4.215
13190W        W85615  21.186  18.567  10.681
13191W        W85616  41.991  36.004   4.662
13192W        W85617  35.435   7.677   3.803
13193W        W85618  31.460  33.641   1.453
13194W        W85619   5.254  31.636  10.574
13195W        W85620  18.140  33.591  13.349
13196W        W85621  44.847  33.457   4.926
13197W        W85622  15.236  31.765  12.469
13198W        W85623  16.370  19.229  12.084
13199W        W85624  39.907  42.349   0.950
13200W        W85625  22.884  30.353  14.600
13201W        W85626  14.065  42.931  12.816
13202W        W85627  11.769  33.587  14.019
13203W        W85628  32.504   6.715   3.536
13204W        W85629   3.681  33.575  10.679
13205W        W85630  38.880  25.490   3.519
13206W        W85631   1.855  40.314   3.178
13207W        W85632  10.792  13.251   0.835
13208W        W85633  10.192  42.588  10.512
13209W        W85634  35.511  11.824   4.782
13210W        W85635  22.051  18.269  11.455
13211W        W85636  19.168  17.589   3.210
13212W        W85637  14.854   6.907   3.702
13213W        W85638  29.920  18.116  14.757
13214W        W85639   5.039  43.519   1.767
13215W        W85640  22.128  33.711   0.792
13216W        W85641  43.397  32.950   3.739
13217W        W85642  10.071  13.799   0.795
13218W        W85643  16.324  34.200   2.400
13219W        W85644  28.479  15.768   4.201
13220W        W85645  34.923  38.861  13.196
13221W        W85646   7.204   7.180   4.611
13222W        W85647  38.917   6.508  11.615
13223W        W85648  38.786   0.252  11.496
13224W        W85649  23.188  39.019  14.807
13225W        W85650  34.908  26.462  14.337
13226W        W85651   1.905  19.689  11.446
13227W        W85652   1.158  42.756   3.704
13228W        W85653  28.117  43.014   3.303
13229W        W85654   5.562  26.457  12.936
13230W        W85655   0.602  15.150   0.220
13231W        W85656  16.572  23.987  14.777
13232W        W85657   9.233  12.780  14.184
13233W        W85658  10.009  10.765  12.006
13234W        W85659  31.641  15.500  13.923
13235W        W85660  27.910  29.572  13.445
13236W        W85661  28.176  37.675  11.681
13237W        W85662  11.342   1.010   4.335
13238W        W85663  32.945  24.204   1.329
13239W        W85664   4.977   4.970  10.748
13240W        W85665   8.943  12.106   2.685
13241W        W85666  31.718  14.271   4.704
13242W        W85667   8.454  27.760   2.891
13243W        W85668  14.575  13.687   2.264
13244W        W85669  36.242  32.736  14.003
13245W        W85670  29.439  41.085   2.428
13246W        W85671  16.844  16.726   3.165
13247W        W85672  13.376  21.109   3.584
13248W        W85673   8.631  42.266   0.881
13249W        W85674  11.707  19.612   4.049
13250W        W85675   9.675  24.954  11.645
13251W        W85676  26.688  23.956   2.995
13252W        W85677  44.366   4.613  14.589
13253W        W85678  42.577  39.379   0.831
13254W        W85679  27.446  44.515  14.398
13255W        W85680  26.762  13.135  12.499
13256W        W85681   6.813  10.195   2.118
13257W        W85682   8.650  19.132  11.800
13258W        W85683  44.693   8.902  14.807
13259W        W85684   6.347  37.742  11.136
13260W        W85685  17.738  31.100   0.341
13261W        W85686   8.314   2.720   2.441
13262W        W85687  39.142  17.310   0.758
13263W        W85688  40.598  13.672  12.864
13264W        W85689   2.260  34.676  14.855
13265W        W85690  34.365  12.583  13.928
13266W        W85691  17.414  36.984  11.490
13267W        W85692  42.836  35.173   2.819
13268W        W85693   7.166   9.892  11.075
13269W        W85694  34.703  33.470   1.921
13270W        W85695  23.752  12.875  11.572
13271W        W85696  17.899  37.294  14.487
13272W        W85697   9.161  15.724  11.052
13273W        W85698  36.168  35.808  14.551
13274W        W85699  28.917  32.623  12.548
13275W        W85700   3.114  23.567  14.370
13276W        W85701   7.193   7.733   3.747
13277W        W85702   4.987  20.187   1.804
13278W        W85703  26.904   3.288  10.834
13279W        W85704  30.077  20.468   3.694
13280W        W85705  43.340  19.771  13.104
13281W        W85706  23.782  19.818   1.450
13282W        W85707  26.202  23.691   2.826
13283W        W85708  32.153  26.690   0.889
13284W        W85709  35.311   4.267  10.527
13285W        W85710  17.753  25.258   4.682
13286W        W85711  12.633   0.988  12.507
13287W        W85712   7.371  18.102   3.567
13288W        W85713  32.226  34.905  13.161
13289W        W85714   3.401   2.846   3.630
13290W        W85715  21.226   1.494   0.907
13291W        W85716  29.141  35.672   3.597
13292W        W85717   6.864  10.341   0.305
13293W        W85718  12.589   0.475  10.902
13294W        W85719   5.290  13.649   2.752
13295W        W85720  27.580  27.248   3.005
13296W        W85721  42.365  16.304   0.244
13297W        W85722   5.765  10.925  13.432
13298W        W85723   4.881  17.703  12.956
13299W        W85724  22.230   7.166   3.698
13300W        W85725   4.204   5.444   1.725
13301W        W85726   6.932  26.694  10.367
13302W        W85727   4.756  38.872   4.658
13303W        W85728  44.196  11.211  11.174
13304W        W85729  32.442  28.465   1.065
13305W        W85730  27.723  30.342   0.731
13306W        W85731  15.982  16.786  14.321
13307W        W85732  11.996  31.406  11.447
13308W        W85733  44.273  14.755   2.319
13309W        W85734  29.619  10.599   2.946
13310W        W85735  26.877  42.898  13.579
13311W        W85736   7.260   7.418  12.881
13312W        W85737  32.115  34.295   3.606
13313W        W85738   9.226  44.823  12.174
13314W        W85739  30.022  33.839  11.552
13315W        W85740  37.249  22.364   4.593
13316W        W85741  29.018  32.327  10.350
13317W        W85742  26.393  32.328  13.007
13318W        W85743  14.718  39.470   9.849
13319W        W85744  37.071   0.228   4.186
13320W        W85745  19.020  31.027  11.970
13321W        W85746  36.456  25.500  11.107
13322W        W85747  35.414  23.785   0.961
13323W        W85748  28.036   1.738   0.457
13324W        W85749  32.061  21.662  10.898
13325W        W85750  40.009  35.273  13.480
13326W        W85751  44.402  35.397  11.866
13327W        W85752  43.225  37.717   1.861
13328W        W85753  11.757  11.139  13.148
13329W        W85754   4.782  15.594   4.090
13330W        W85755  28.628  39.503   4.055
13331W        W85756  34.389   6.793   1.442
13332W        W85757  32.388   3.012  14.368
13333W        W85758  40.223  28.165  12.027
13334W        W85759  44.769  19.780  10.628
13335W        W85760  14.729   4.799  14.411
13336W        W85761   5.888  32.636  11.199
13337W        W85762  14.350   8.674  13.397
13338W        W85763  19.662   5.051  11.136
13339W        W85764   9.650   5.964   9.866
13340W        W85765  13.210  19.073  12.552
13341W        W85766   5.266  13.880   0.192
13342W        W85767  26.185  34.897   2.224
13343W        W85768  29.639  31.780   3.086
13344W        W85769   2.988   6.654   2.260
13345W        W85770  30.407   8.269  14.806
13346W        W85771  38.367   7.098   0.020
13347W        W85772  27.197  36.417  14.823
13348W        W85773  16.672  25.314  12.852
13349W        W85774  14.214  25.683   1.325
13350W        W85775  24.719   2.856  13.561
13351W        W85776  35.642  40.587  11.489
13352W        W85777  10.757  16.193  13.388
13353W        W85778  16.269   9.168   3.289
13354W        W85779  39.065  31.458   0.818
13355W        W85780  30.936  30.849   3.163
13356W        W85781  26.946  37.794  12.512
13357W        W85782  41.061  28.770   1.830
13358W        W85783  37.345  17.695   0.755
13359W        W85784  26.435  23.261   1.837
13360W        W85785  43.708  18.253  12.033
13361W        W85786   3.144   4.531   3.654
13362W        W85787  27.199  10.833   1.326
13363W        W85788  14.309   3.482  11.241
13364W        W85789  18.640  19.999  13.212
13365W        W85790  35.443  30.493   0.796
13366W        W85791  36.518  24.204  12.103
13367W        W85792  30.147   8.797   1.182
13368W        W85793  27.102  35.560   4.719
13369W        W85794  12.386   2.933   0.397
13370W        W85795  29.204   0.443   3.770
13371W        W85796  17.236  31.924  11.039
13372W        W85797  36.147  24.661  12.143
13373W        W85798  29.652   6.095  14.949
13374W        W85799  34.290  37.446   4.185
13375W        W85800  24.412  13.633  14.368
13376W        W85801  23.289  42.117   0.892
13377W        W85802  15.686  12.533  12.125
13378W        W85803   2.359   5.260   0.133
13379W        W85804  41.798  22.790   4.181
13380W        W85805  31.209  11.168  13.087
13381W        W85806  42.603  44.397   0.695
13382W        W85807  37.884  41.822   1.297
13383W        W85808  34.110  42.733   3.596
13384W        W85809   0.681  16.167  13.831
13385W        W85810  13.450   7.675   4.201
13386W        W85811  11.323  30.401  12.492
13387W        W85812  12.686  11.548  13.120
13388W        W85813  15.035   7.799  14.810
13389W        W85814   9.839  29.662  11.090
13390W        W85815  26.219  27.627  14.496
13391W        W85816  42.490   9.378  12.419
13392W        W85817   7.760  39.884  12.993
13393W        W85818  27.475   0.228   2.135
13394W        W85819  10.769  38.518  12.252
13395W        W85820   7.391  12.629   1.227
13396W        W85821  40.228  32.614  12.906
13397W        W85822  44.390  29.370   0.409
13398W        W85823  11.928  22.557   1.524
13399W        W85824  19.139  20.266  14.883
13400W        W85825   7.830  40.320   2.744
13401W        W85826  33.950  33.402  11.208
13402W        W85827  28.107  34.888   4.191
13403W        W85828  29.891  17.672  12.255
13404W        W85829  41.572   4.469  13.478
13405W        W85830  27.264  19.247   2.764
13406W        W85831  28.214  44.308   0.803
13407W        W85832  41.505  41.327  14.506
13408W        W85833  19.835  33.345   3.197
13409W        W85834  33.211   4.840  10.210
13410W        W85835  39.893  25.691  12.185
13411W        W85836  27.406   9.923   4.364
13412W        W85837  34.539  32.006   4.309
13413W        W85838  31.239  31.750  10.665
13414W        W85839  35.103  33.591  11.597
13415W        W85840   0.861  22.401   4.641
13416W        W85841  37.461   7.002  11.234
13417W        W85842  32.220  40.954  12.671
13418W        W85843  28.828  36.553  13.838
13419W        W85844   4.467  11.693   3.661
13420W        W85845  24.675  36.924  12.063
13421W        W85846  38.017   6.432   3.605
13422W        W85847  19.002  30.032  13.279
13423W        W85848  15.802  14.718  13.759
13424W        W85849  25.403  34.610   3.613
13425W        W85850  21.214  30.278  14.386
13426W        W85851  12.107  21.039   2.162
13427W        W85852  14.807  35.300  14.128
13428W        W85853  24.233  34.375  11.465
13429W        W85854  12.077  26.412  13.054
13430W        W85855  35.912  36.952   1.443
13431W        W85856  34.644  13.930   3.113
13432W        W85857  37.402   3.258   3.916
13433W        W85858   2.287   4.479  14.431
13434W        W85859  32.755  44.447  14.909
13435W        W85860  21.554   4.457  12.475
13436W        W85861   6.481  35.507   0.705
13437W        W85862  24.056  27.993  12.095
13438W        W85863  43.467  30.482   0.455
13439W        W85864  38.944   4.452   4.232
13440W        W85865  24.092  23.223  10.579
13441W        W85866  22.948   9.597  14.501
13442W        W85867  39.311  39.097   1.223
13443W        W85868  43.493  36.459  12.062
13444W        W85869  27.491   9.503   2.320
13445W        W85870  16.279  43.139  13.566
13446W        W85871   7.107  17.759  14.808
13447W        W85872  25.121  35.391  12.507
13448W        W85873  36.804  38.557   3.372
13449W        W85874   0.416  40.898  12.841
13450W        W85875   9.486  35.582   4.569
13451W        W85876   2.583  30.567   1.724
13452W        W85877  11.193  24.529  12.103
13453W        W85878  16.197   7.132  13.405
13454W        W85879  12.285   5.678   3.694
13455W        W85880  20.043   2.742  11.152
13456W        W85881  31.247  41.556   4.242
13457W        W85882   5.049  17.360   0.159
13458W        W85883  36.472   2.388   1.298
13459W        W85884  26.055   3.922  10.724
13460W        W85885   3.092  13.864   1.200
13461W        W85886  12.342  34.629   3.366
13462W        W85887   8.982  17.631  10.707
13463W        W85888   1.845  10.170   3.196
13464W        W85889  25.515  29.978  11.114
13465W        W85890  36.305  42.965  13.117
13466W        W85891  19.745   3.675   4.129
13467W        W85892  44.982  38.682  12.020
13468W        W85893  27.089  27.894   3.310
13469W        W85894  23.431   0.782   4.762
13470W        W85895  38.122  26.067  11.978
13471W        W85896  19.659  40.331   3.726
13472W        W85897  31.155  21.816  14.448
13473W        W85898  37.198  36.820   3.169
13474W        W85899  30.689  35.832   4.157
13475W        W85900  34.674   7.354   0.873
13476W        W85901   3.979  35.878  13.996
13477W        W85902  17.484  16.068   2.274
13478W        W85903  34.262  16.335  11.136
13479W        W85904  24.878  35.099  14.287
13480W        W85905   0.315   3.193   0.580
13481W        W85906  30.802  28.489   1.744
13482W        W85907   8.959  37.773   2.918
13483W        W85908  22.433  10.388   1.179
13484W        W85909  28.901  28.231  12.665
13485W        W85910   0.069  44.761  13.813
13486W        W85911  42.269  32.686  10.699
13487W        W85912  35.603  25.243  10.123
13488W        W85913   5.470  18.010  14.893
13489W        W85914  17.327  16.643   2.293
13490W        W85915  42.402  39.029   1.434
13491W        W85916  29.360  18.808   3.243
13492W        W85917  37.787   6.406   0.362
13493W        W85918  13.287  24.151  12.470
13494W        W85919  11.683  31.811   3.515
13495W        W85920  25.623   3.754   3.615
13496W        W85921  42.427  39.144  14.231
13497W        W85922  35.042   6.559  11.902
13498W        W85923  28.535  31.103  11.149
13499W        W85924   3.676  24.512  14.611
13500W        W85925  30.376  29.408  13.467
13501W        W85926  21.333  37.985   3.690
13502W        W85927  30.428  38.655   0.842
13503W        W85928  10.843  19.828   2.754
13504W        W85929   5.163   2.278   3.661
13505W        W85930  30.063  18.529   2.743
13506W        W85931  32.790  18.640  10.579
13507W        W85932  40.270  12.848   1.898
13508W        W85933   4.774  27.647  13.272
13509W        W85934  15.852  29.928   0.750
13510W        W85935  13.930  38.539  13.982
13511W        W85936   9.402  10.503  11.273
13512W        W85937  20.771   0.141  12.859
13513W        W85938  44.915  17.559   2.683
13514W        W85939   3.188  35.084   0.327
13515W        W85940  32.616  44.684  11.166
13516W        W85941  39.508  42.512   2.405
13517W        W85942  35.990  40.284  13.525
13518W        W85943  20.311  33.842   4.558
13519W        W85944  16.584  27.421   3.205
13520W        W85945  38.689  39.376  13.780
13521W        W85946  18.194  33.976  12.996
13522W        W85947  42.340  20.558  12.023
13523W        W85948  22.736   8.852   2.868
13524W        W85949   4.442   0.531   3.141
13525W        W85950  23.043  23.917   1.200
13526W        W85951  18.872   8.406  11.221
13527W        W85952  28.382  20.141   4.661
13528W        W85953  13.902   4.302   1.852
13529W        W85954   1.028  12.573   4.188
13530W        W85955  41.476   9.793  14.405
13531W        W85956  16.546  11.671   0.320
13532W        W85957  37.777  22.127   3.800
13533W        W85958  27.961  42.054   3.078
13534W        W85959  31.804  15.951  12.849
13535W        W85960  38.710   6.444   3.021
13536W        W85961  21.660  18.469   3.295
13537W        W85962  28.218  21.081  12.245
13538W        W85963  16.051   3.669   2.418
13539W        W85964  10.173   1.495  13.894
13540W        W85965   5.237  23.226  13.014
13541W        W85966  20.634  20.091   4.350
13542W        W85967  25.252  38.347  12.423
13543W        W85968  32.281  14.222  12.856
13544W        W85969   3.685  40.880  14.415
13545W        W85970  30.268   0.674  11.472
13546W        W85971   8.525  37.004   2.922
13547W        W85972  20.191  15.569   3.166
13548W        W85973  36.987  14.779   1.901
13549W        W85974  27.659  43.231   3.177
13550W        W85975  17.063   1.966   0.559
13551W        W85976  24.968  35.504   1.231
13552W        W85977   9.140  33.892  14.878
13553W        W85978  32.858  28.229   0.857
13554W        W85979  13.568  35.753  14.930
13555W        W85980  30.450   6.837   0.860
13556W        W85981  37.169  35.051   0.364
13557W        W85982   5.561   7.773  12.639
13558W        W85983  22.600  33.175   4.848
13559W        W85984  29.659  38.794   2.822
13560W        W85985  26.721  13.765   3.114
13561W        W85986   5.726   5.633   3.129
13562W        W85987  17.590  30.709   1.425
13563W        W85988  31.025   8.667  11.777
13564W        W85989   7.439  25.809   4.960
13565W        W85990  18.256  21.187  11.192
13566W        W85991  38.321  29.678   0.887
13567W        W85992  36.679   1.026  13.478
13568W        W85993  42.902  38.607   3.278
13569W        W85994   3.834   1.413  13.097
13570W        W85995   0.247  35.879   3.887
13571W        W85996  15.127   9.331  12.717
13572W        W85997   3.906  29.828   0.175
13573W        W85998  32.531  25.206   4.275
13574W        W85999  37.336  18.766  10.767
13575W        W86000  24.232  31.863   2.251
13576W        W86001   7.457  11.841  11.143
13577W        W86002  19.761  40.648   1.099
13578W        W86003  41.330  33.981   4.846
13579W        W86004  34.065  26.575  13.947
13580W        W86005  44.915  14.691  13.198
13581W        W86006  18.225  42.542   0.008
13582W        W86007  15.143   6.236  14.190
13583W        W86008  13.899  44.192   4.033
13584W        W86009   8.379  12.069  14.304
13585W        W86010  37.644   2.315   2.684
13586W        W86011  22.754  30.904  12.827
13587W        W86012  27.589   0.347   3.748
13588W        W86013  21.750  11.392   4.169
13589W        W86014   8.141  23.599  12.847
13590W        W86015  43.825   2.567  11.205
13591W        W86016  38.617  13.302  12.662
13592W        W86017  24.247  34.657   0.943
13593W        W86018  27.257  14.144  13.085
13594W        W86019  25.222  29.684  12.493
13595W        W86020  13.778  16.602  11.477
13596W        W86021  33.881  27.438   0.902
13597W        W86022  22.737   3.873  14.874
13598W        W86023   8.259  20.655   1.395
13599W        W86024  35.024  10.848  11.078
13600W        W86025   3.255   7.631   4.235
13601W        W86026   8.234  34.566  11.522
13602W        W86027  43.724  18.028  12.957
13603W        W86028  21.742  32.170   3.647
13604W        W86029  43.602  37.324  12.524
13605W        W86030  13.937  22.188   0.823
13606W        W86031   7.711  22.280   0.926
13607W        W86032   4.664  43.216  11.401
13608W        W86033  33.011   1.172  14.634
13609W        W86034  16.862   7.599   3.457
13610W        W86035  41.339  18.347  12.393
13611W        W86036  37.631  24.012  13.973
13612W        W86037  20.482  11.777   2.321
13613W        W86038  31.632  19.267  10.254
13614W        W86039   4.695  34.854   3.235
13615W        W86040  13.214   3.374   0.732
13616W        W86041  32.177  19.597   1.536
13617W        W86042  39.577   7.346   0.365
13618W        W86043  30.077  36.592   0.946
13619W        W86044  36.984  29.897  11.602
13620W        W86045   1.288  35.399  12.469
13621W        W86046  36.017  19.117  12.897
13622W        W86047   5.875  43.236   3.288
13623W        W86048  23.428   7.889   3.681
13624W        W86049  15.391  41.858  12.136
13625W        W86050  33.448   4.431  14.428
13626W        W86051  39.345  37.460  10.759
13627W        W86052  22.239  18.042   1.337
13628W        W86053  34.766  33.247  13.874
13629W        W86054  41.913  10.398  10.698
13630W        W86055  44.988  24.972   3.208
13631W        W86056  15.682  32.937  10.103
13632W        W86057  36.123   3.394  11.193
13633W        W86058  44.959  22.647  13.660
13634W        W86059  34.215   8.009   3.829
13635W        W86060  18.117   9.815  14.576
13636W        W86061   5.227  32.470   0.526
13637W        W86062   4.820   1.562   4.709
13638W        W86063  34.606  39.751   4.154
13639W        W86064  42.558   0.530   2.054
13640W        W86065   3.242  17.202  13.587
13641W        W86066  30.204  28.468   2.921
13642W        W86067  36.172   5.751   4.116
13643W        W86068  11.059  21.512  11.536
13644W        W86069  36.057  19.614  13.061
13645W        W86070  37.367  15.873   3.298
13646W        W86071  34.998  17.030  14.321
13647W        W86072  24.922   9.914  14.242
13648W        W86073   0.958  44.787  11.695
13649W        W86074  40.261  39.110  14.854
13650W        W86075  25.991  27.639  12.208
13651W        W86076  26.047  24.614   3.783
13652W        W86077  40.314  20.720   3.296
13653W        W86078  20.155  32.969  13.008
13654W        W86079  13.199   4.308   2.310
13655W        W86080  29.942  40.996  10.923
13656W        W86081   9.653  34.235  11.393
13657W        W86082  41.680  40.225   4.251
13658W        W86083  29.938  19.228  12.598
13659W        W86084  34.156  24.524   2.121
13660W        W86085  19.711  42.044   0.956
13661W        W86086  15.977  38.584   2.682
13662W        W86087  44.013   0.370  14.253
13663W        W86088   2.174  42.973  11.392
13664W        W86089  10.336  14.852   1.711
13665W        W86090  21.781  13.173  11.482
13666W        W86091   1.156   8.682  11.038
13667W        W86092  13.642  19.279   4.962
13668W        W86093   8.562   5.809  13.108
13669W        W86094  26.867  14.549   4.988
13670W        W86095   5.743   4.993  14.861
13671W        W86096  33.474  13.184   3.983
13672W        W86097   3.739  18.312   3.086
13673W        W86098  20.603  43.549  11.704
13674W        W86099   2.625  30.454   5.128
13675W        W86100  24.860  27.644   2.928
13676W        W86101  17.081  15.628  14.732
13677W        W86102  20.385   1.197   4.899
13678W        W86103  28.012  34.200   1.774
13679W        W86104   8.208   4.446   3.705
13680W        W86105  19.636   9.934  13.392
13681W        W86106  25.252  30.238   1.701
13682W        W86107   8.453   8.875   2.352
13683W        W86108  42.890  19.496  13.016
13684W        W86109  37.243   6.221   4.511
13685W        W86110  16.565  39.624   3.963
13686W        W86111  23.118  10.992  10.719
13687W        W86112  33.387  18.787  10.640
13688W        W86113  31.069  29.295  14.040
13689W        W86114  44.117   7.906  14.800
13690W        W86115  13.232  20.643   1.404
13691W        W86116  40.107  30.076  11.286
13692W        W86117   3.392   0.581  11.503
13693W        W86118  23.278   1.265   0.745
13694W        W86119  43.835  39.095   0.314
13695W        W86120  30.278  12.151   4.459
13696W        W86121  11.826  43.141  11.210
13697W        W86122   3.186  22.065   1.639
13698W        W86123  15.989  18.522   2.770
13699W        W86124  25.569  34.326  11.633
13700W        W86125  34.796  23.038   0.654
13701W        W86126  26.506  14.314  14.890
13702W        W86127  37.953  23.412   1.317
13703W        W86128  37.815  31.564  12.398
13704W        W86129  12.869  29.437  13.024
13705W        W86130   1.484  42.778   2.799
13706W        W86131  28.487  10.231  10.723
13707W        W86132  43.555  17.210  13.110
13708W        W86133   2.013  17.514  12.066
13709W        W86134   2.342   3.686  12.341
13710W        W86135  22.620   1.229   4.588
13711W        W86136  27.668  28.446   2.361
13712W        W86137  23.715   4.794  11.020
13713W        W86138   8.739  34.982  10.638
13714W        W86139  27.524  19.966  14.403
13715W        W86140  38.039  26.195   1.314
13716W        W86141  32.123   2.275  13.904
13717W        W86142  34.872  22.306   3.551
13718W        W86143  26.682  40.823   2.272
13719W        W86144  27.229   7.591  13.873
13720W        W86145  11.319  22.780  11.614
13721W        W86146  26.611  39.956   1.190
13722W        W86147  15.234   1.129   4.880
13723W        W86148  19.273  19.205   1.774
13724W        W86149   2.305  38.877   1.300
13725W        W86150  39.503  23.742   0.352
13726W        W86151   6.556  11.625   2.781
13727W        W86152  16.048  16.111  12.108
13728W        W86153   9.133  37.479   9.719
13729W        W86154   2.058  21.767   0.556
13730W        W86155   5.500  10.307   0.800
13731W        W86156  15.322  20.711   1.896
13732W        W86157  22.799   4.895   2.664
13733W        W86158  25.535   7.669  13.364
13734W        W86159  41.505   5.207  11.886
13735W        W86160   5.725  33.899  14.461
13736W        W86161  43.361   4.251   4.289
13737W        W86162  42.366  18.565  13.144
13738W        W86163  25.569  30.880  11.367
13739W        W86164   5.824  11.203  12.499
13740W        W86165  38.904  11.541   1.322
13741W        W86166  25.079   4.910  14.569
13742W        W86167  31.147  34.162  11.362
13743W        W86168  12.656  33.610   0.667
13744W        W86169  18.094  21.323   1.964
13745W        W86170   5.923   1.828   4.398
13746W        W86171  11.705  40.322  13.882
13747W        W86172  44.983  10.314  13.431
13748W        W86173   4.757   0.566   4.558
13749W        W86174  15.734   7.077  14.011
13750W        W86175  27.631  37.998  12.227
13751W        W86176  24.696  36.354  12.506
13752W        W86177   4.967   7.928   4.304
13753W        W86178  44.246  42.680   5.072
13754W        W86179   3.274   3.947  12.676
13755W        W86180  16.643  29.304  13.996
13756W        W86181   2.526  17.560   3.370
13757W        W86182  24.595  24.719  12.150
13758W        W86183  24.589  40.492  14.387
13759W        W86184  26.921  33.125  11.128
13760W        W86185  44.741  32.662   3.972
13761W        W86186   3.182  34.106   3.779
13762W        W86187  22.504  34.661  13.112
13763W        W86188  39.218  44.350  14.475
13764W        W86189   1.945  30.611   3.151
13765W        W86190   1.288  16.134  13.236
13766W        W86191   9.209  14.626   1.077
13767W        W86192  38.147   1.694  12.375
13768W        W86193  39.321  13.551   0.398
13769W        W86194  42.977  37.208   2.928
13770W        W86195  26.267  17.826   4.514
13771W        W86196  27.522  31.961  10.648
13772W        W86197  26.592  20.115  10.590
13773W        W86198   8.387  33.119   2.453
13774W        W86199  11.667  22.280   0.044
13775W        W86200  40.260   3.116  14.378
13776W        W86201  34.483  14.703  12.554
13777W        W86202   8.170   8.122   1.894
13778W        W86203  18.772   5.513  12.899
13779W        W86204  16.554  42.065   0.046
13780W        W86205  33.666  13.252   1.283
13781W        W86206  37.083   7.360  11.266
13782W        W86207  32.038  26.252   1.348
13783W        W86208  21.636  13.224   3.585
13784W        W86209   3.683  19.181  14.950
13785W        W86210   7.514  44.762  14.371
13786W        W86211   7.952  18.643   4.625
13787W        W86212   6.983   6.217  13.594
13788W        W86213  42.335  39.567  12.881
13789W        W86214  13.248  32.645  13.235
13790W        W86215  20.313  12.760  12.299
13791W        W86216  19.458  19.710   0.748
13792W        W86217   8.711  27.038  11.998
13793W        W86218  13.602  21.799   3.055
13794W        W86219   2.349  28.667   2.122
13795W        W86220  27.178  39.190   2.682
13796W        W86221  38.144  38.002  13.009
13797W        W86222  40.786  24.639   2.708
13798W        W86223  42.533  21.123  13.357
13799W        W86224  35.994  28.037   3.413
13800W        W86225  14.282  22.748  13.835
13801W        W86226   1.941  29.042  14.858
13802W        W86227  40.041  33.323   0.045
13803W        W86228   3.291  10.536   4.448
13804W        W86229  15.004  29.162  12.462
13805W        W86230  36.342   8.458   2.356
13806W        W86231  12.650  23.817   3.752
13807W        W86232  37.066  37.443  11.866
13808W        W86233  18.079  34.565   1.357
13809W        W86234  21.797  19.135  11.581
13810W        W86235   7.683   5.599  13.438
13811W        W86236  11.323   9.648   0.329
13812W        W86237  27.905  15.747   1.400
13813W        W86238  28.558   7.018  14.879
13814W        W86239  35.683  31.964  12.114
13815W        W86240  43.388  15.507   4.536
13816W        W86241  21.969  14.959   4.865
13817W        W86242  35.985  18.373  14.992
13818W        W86243   0.194  43.858   0.655
13819W        W86244  32.485   2.027   3.811
13820W        W86245  39.927  25.405  13.118
13821W        W86246  17.190  19.010  13.800
13822W        W86247  35.487  32.379   4.158
13823W        W86248  43.920   1.851  13.929
13824W        W86249  42.449  10.128   3.816
13825W        W86250  31.674  15.092  10.672
13826W        W86251  26.970  31.178  11.250
13827W        W86252   5.644   6.552   2.015
13828W        W86253  43.381   4.839   3.778
13829W        W86254  27.472   9.467   4.723
13830W        W86255  26.605  31.624   1.545
13831W        W86256  33.908  42.726   0.235
13832W        W86257  23.928  19.589   2.718
13833W        W86258  32.520  19.528   1.926
13834W        W86259  17.653  25.894  10.396
13835W        W86260   6.220  19.675  10.618
13836W        W86261  20.322  22.476   0.863
13837W        W86262  35.808  19.750   1.045
13838W        W86263  17.579  22.875   0.899
13839W        W86264   9.786  23.690   0.647
13840W        W86265   9.772  41.385   4.486
13841W        W86266  22.573  30.073   3.122
13842W        W86267  12.257   7.888  10.942
13843W        W86268  14.184  13.322  12.516
13844W        W86269  28.418  30.426  10.628
13845W        W86270  21.668  31.738  11.042
13846W        W86271   7.340   1.838  14.308
13847W        W86272  29.894  40.953   1.259
13848W        W86273  24.544  19.908  11.631
13849W        W86274  25.736  27.852   2.423
13850W        W86275  11.180  26.379  10.633
13851W        W86276  24.353  41.390   3.683
13852W        W86277  18.724   1.677  10.739
13853W        W86278  20.529  13.985   1.575
13854W        W86279  24.593   2.747  13.052
13855W        W86280  14.623   0.349   1.021
13856W        W86281  23.205  26.864   2.613
13857W        W86282  38.372  31.024   2.579
13858W        W86283  21.178  21.066  12.382
13859W        W86284  39.310   4.703   0.326
13860W        W86285  13.173   0.906  10.204
13861W        W86286  26.035   9.087  12.332
13862W        W86287  29.917  41.675   4.064
13863W        W86288  19.234  18.623   3.163
13864W        W86289   7.157  20.814   0.993
13865W        W86290   3.428  18.345  12.839
13866W        W86291  44.420  31.190   2.445
13867W        W86292  26.989   2.895   3.432
13868W        W86293  39.094  40.560  11.019
13869W        W86294  41.549   0.032  13.189
13870W        W86295  43.784  36.339   1.426
13871W        W86296  42.306   3.397  12.386
13872W        W86297  29.887  21.839  14.872
13873W        W86298   5.628  21.537  12.934
13874W        W86299  27.068  17.980  10.977
13875W        W86300  23.304  18.758  11.196
13876W        W86301  28.962  21.997   3.784
13877W        W86302  15.737  28.999   3.467
13878W        W86303  24.708  23.459  14.270
13879W        W86304  12.119  18.048   1.274
13880W        W86305  23.741  13.391   3.794
13881W        W86306  15.823  36.506   3.852
13882W        W86307  18.262  33.673  14.380
13883W        W86308   5.022   2.623  14.964
13884W        W86309  40.053  12.701   4.688
13885W        W86310   7.835  41.639  13.504
13886W        W86311  18.580  32.663   3.314
13887W        W86312   9.700  29.963  13.951
13888W        W86313  29.245   7.970   0.252
13889W        W86314  14.771  42.829  11.759
13890W        W86315   2.898  40.008   0.300
13891W        W86316  30.202  21.617   0.235
13892W        W86317  14.519   0.320   2.264
13893W        W86318  22.187  31.598  11.209
13894W        W86319  44.763   3.256   5.145
13895W        W86320  19.301  31.045  11.536
13896W        W86321  21.692  14.745   1.329
13897W        W86322  29.724  35.592   4.798
13898W        W86323  11.686   5.276  13.848
13899W        W86324  38.080  44.374   1.345
13900W        W86325  29.783  20.680   4.697
13901W        W86326   2.408  32.100   1.344
13902W        W86327   1.707  27.600   2.478
13903W        W86328  29.535  43.948  10.450
13904W        W86329   6.255  12.085  11.185
13905W        W86330  40.916   6.606  14.860
13906W        W86331  40.702  14.838   4.616
13907W        W86332  43.090  28.202   0.969
13908W        W86333  22.800  29.613  13.894
13909W        W86334  23.475  40.880  13.084
13910W        W86335   4.426   2.021  14.969
13911W        W86336   8.246  40.531  13.969
13912W        W86337  11.315   2.552   2.316
13913W        W86338  18.753  19.125   1.651
13914W        W86339   3.848   9.650   2.686
13915W        W86340  12.848  39.333   1.283
13916W        W86341  14.285  24.884   3.764
13917W        W86342  19.750  13.504  12.606
13918W        W86343   2.378  21.369  11.512
13919W        W86344   4.399   0.012  13.332
13920W        W86345  30.001  25.088   4.887
13921W        W86346  11.529  21.260   3.061
13922W        W86347  31.592   4.974   4.075
13923W        W86348   2.463  29.709  11.317
13924W        W86349  31.382  29.233   4.282
13925W        W86350   6.890  15.623   0.859
13926W        W86351  38.080  42.823  13.393
13927W        W86352  13.824  14.790   1.876
13928W        W86353  13.615  25.471  12.528
13929W        W86354  37.131  16.183   0.777
13930W        W86355  30.169  16.533   5.358
13931W        W86356  24.274  37.989   2.600
13932W        W86357  10.504   8.938  11.976
13933W        W86358  42.862  18.164  13.222
13934W        W86359  27.269  16.207  11.636
13935W        W86360  34.500   7.517  14.840
13936W        W86361  42.237   7.884   0.761
13937W        W86362   7.878  42.129   2.531
13938W        W86363  12.802   0.835   4.711
13939W        W86364  22.058   9.692  11.094
13940W        W86365  17.827  40.386  10.566
13941W        W86366  19.477  19.464  11.003
13942W        W86367  38.838  31.962   1.916
13943W        W86368  34.165  35.877   3.670
13944W        W86369  40.992  42.909   9.832
13945W        W86370   5.404  20.011   0.016
13946W        W86371  17.393   5.239  14.831
13947W        W86372  26.389   9.288  11.232
13948W        W86373  27.140  29.920   0.368
13949W        W86374  44.453   9.589   1.970
13950W        W86375  37.336  42.393   4.210
13951W        W86376  13.529  18.724   4.156
13952W        W86377  23.901  17.612   3.659
13953W        W86378   3.327  43.293   3.742
13954W        W86379  12.848   4.106   3.306
13955W        W86380  23.929  36.768  11.455
13956W        W86381   3.728  26.915  12.519
13957W        W86382   3.851  30.568  13.520
13958W        W86383   6.797  36.743   4.670
13959W        W86384  44.957  17.141   0.286
13960W        W86385  20.748  44.912   4.857
13961W        W86386  33.788  42.002  14.740
13962W        W86387  12.837  39.932   2.378
13963W        W86388  15.249   3.448   5.048
13964W        W86389  26.219  11.501  14.788
13965W        W86390  36.891  43.755  13.330
13966W        W86391  31.036   8.735  14.489
13967W        W86392  23.862  17.549   4.641
13968W        W86393  32.499  24.151  12.144
13969W        W86394   3.819  23.453   0.504
13970W        W86395  24.442  29.988   1.057
13971W        W86396  23.120  37.224   4.874
13972W        W86397  19.216  27.381  14.955
13973W        W86398  22.924   1.829   4.140
13974W        W86399  19.365  29.930   4.250
13975W        W86400  40.426  18.318   0.833
13976W        W86401  22.788  27.134   2.767
13977W        W86402   9.833  44.421   4.590
13978W        W86403  38.928  34.975  10.665
13979W        W86404   6.600  36.334   1.345
13980W        W86405  11.723  13.067  11.455
13981W        W86406  20.962  18.682  15.000
13982W        W86407  44.852  39.376   0.725
13983W        W86408  24.878  38.210   1.817
13984W        W86409  20.935  14.702   1.001
13985W        W86410  18.274  26.198   4.321
13986W        W86411  31.524  26.492  10.567
13987W        W86412  38.828  34.344   4.484
13988W        W86413   4.675   1.305  11.248
13989W        W86414  13.720   8.923  13.371
13990W        W86415  29.210  14.326   3.678
13991W        W86416  43.289  33.652   2.357
13992W        W86417  30.850  19.251   1.223
13993W        W86418   4.762  21.960  11.118
13994W        W86419  30.860   6.381  11.107
13995W        W86420  34.797   4.618  11.905
13996W        W86421  14.526  29.310  11.888
13997W        W86422  38.966  24.997  12.975
13998W        W86423  36.149  28.439   3.776
13999W        W86424  23.965  28.047  13.477
14000W        W86425  38.583  28.924  12.848
14001W        W86426  40.741  35.670   3.286
14002W        W86427  17.145  40.001  14.419
14003W        W86428  31.461  16.132   2.298
14004W        W86429   8.089  31.011   3.661
14005W        W86430   0.443  36.243   2.356
14006W        W86431  25.546   2.970   0.724
14007W        W86432  13.228  30.956   4.048
14008W        W86433  43.444  10.472  14.677
14009W        W86434  41.772  34.805  14.251
14010W        W86435  39.341  11.301   1.137
14011W        W86436  34.127  30.157   0.826
14012W        W86437  26.301  43.440  14.070
14013W        W86438   1.474   6.496  12.978
14014W        W86439  31.219   8.114  13.772
14015W        W86440   0.370   1.421   0.930
14016W        W86441  31.620   6.360   3.305
14017W        W86442  18.275  44.406  12.340
14018W        W86443  39.895   4.721   1.572
14019W        W86444   6.944   4.688   0.376
14020W        W86445  11.212  31.822   0.752
14021W        W86446  41.302  32.890   2.415
14022W        W86447  25.518  31.929  12.180
14023W        W86448  27.990  13.374   2.965
14024W        W86449  25.089  23.271   0.641
14025W        W86450  38.457  11.198   1.369
14026W        W86451   5.763  33.887  11.744
14027W        W86452  30.269  37.010  12.034
14028W        W86453  41.455  38.884   1.468
14029W        W86454  35.535  22.981   5.104
14030W        W86455  11.760   6.766   1.973
14031W        W86456  38.572   2.314  13.961
14032W        W86457  21.484  40.144   2.587
14033W        W86458  19.697  33.301   0.266
14034W        W86459  15.469   9.781   4.434
14035W        W86460  15.810  42.024   0.837
14036W        W86461  37.411  19.585   1.984
14037W        W86462  41.078  13.128  11.577
14038W        W86463  14.773  34.397  11.930
14039W        W86464   7.878  23.396  13.702
14040W        W86465  22.094  22.727   3.824
14041W        W86466  22.621  40.384   5.062
14042W        W86467  29.913  27.548   0.771
14043W        W86468  12.915  14.130  12.897
14044W        W86469  19.123  18.969   2.204
14045W        W86470  34.018  27.752   2.855
14046W        W86471  11.677   9.163   3.679
14047W        W86472  26.094  14.163   4.743
14048W        W86473  35.056  12.143  14.292
14049W        W86474  36.840  24.687  13.392
14050W        W86475  31.956   2.002   3.133
14051W        W86476  43.790  15.644   1.858
14052W        W86477  26.691  10.926   3.994
14053W        W86478  40.437   8.873   1.721
14054W        W86479  41.960  24.512   2.715
14055W        W86480  35.488  14.276  13.660
14056W        W86481  26.272  29.436  14.181
14057W        W86482  24.271  24.446  13.969
14058W        W86483  15.848  24.448  11.598
14059W        W86484  24.111   6.495   0.531
14060W        W86485   1.876  10.240   2.274
14061W        W86486  19.702  26.036  11.100
14062W        W86487  44.328   8.755   2.300
14063W        W86488  44.829  28.301   0.865
14064W        W86489   9.603  39.826  14.346
14065W        W86490  31.974  35.846  12.179
14066W        W86491  21.238  36.875   3.491
14067W        W86492  28.680  42.096   2.632
14068W        W86493   9.753  21.116  13.354
14069W        W86494  39.357   0.014   2.999
14070W        W86495   4.189  36.555   0.417
14071W        W86496  16.635  19.715   0.153
14072W        W86497   2.017  35.819  12.827
14073W        W86498  33.988  36.470  14.167
14074W        W86499  21.086  31.201  12.505
14075W        W86500  40.597   4.789  13.050
14076W        W86501  12.538  19.743  14.462
14077W        W86502   8.386  35.403   1.263
14078W        W86503  13.884  24.610  14.813
14079W        W86504  13.344  42.262  11.814
14080W        W86505  29.563  17.992   3.230
14081W        W86506  31.631  20.025   2.344
14082W        W86507  40.420  41.291  12.213
14083W        W86508  35.093  40.992  14.791
14084W        W86509   9.736   2.933   2.143
14085W        W86510   1.251  19.193  13.697
14086W        W86511  23.065   0.312  11.681
14087W        W86512  44.501  36.213   3.329
14088W        W86513  38.369  23.578  10.032
14089W        W86514   0.121   3.173  13.877
14090W        W86515  36.828  10.867  13.315
14091W        W86516  23.043  23.160   3.117
14092W        W86517  14.187  31.540   2.908
14093W        W86518  21.040  27.551   1.818
14094W        W86519  30.055  15.401   0.400
14095W        W86520  37.866  13.696   0.700
14096W        W86521  33.207  41.252  13.726
14097W        W86522  10.691  25.281   0.468
14098W        W86523  13.777  11.808   4.705
14099W        W86524   1.228  11.136  14.189
14100W        W86525  28.433   2.498   4.553
14101W        W86526   3.394  31.176   1.281
14102W        W86527  40.911  16.581  10.761
14103W        W86528  27.465   7.695  12.928
14104W        W86529   9.815  42.049   3.215
14105W        W86530  36.431  24.179  11.050
14106W        W86531   8.646   6.189   0.902
14107W        W86532  27.549  37.467  14.987
14108W        W86533  40.457  37.361   4.506
14109W        W86534   5.717  44.631   1.285
14110W        W86535  30.398  32.427  12.558
14111W        W86536   3.930   6.861   3.384
14112W        W86537  15.620   3.057  14.739
14113W        W86538  16.724   6.509  10.410
14114W        W86539   7.865  18.639  10.064
14115W        W86540  38.108   1.934   4.623
14116W        W86541  10.613   6.201   3.208
14117W        W86542   1.350  27.451   4.196
14118W        W86543  38.348  38.915   2.688
14119W        W86544  16.623   4.830  13.566
14120W        W86545  34.897  31.820  12.354
14121W        W86546   0.722  13.880   0.873
14122W        W86547  39.062  33.163   1.673
14123W        W86548   5.990  18.991   3.967
14124W        W86549  15.156  24.910   9.593
14125W        W86550   4.692  26.725  11.230
14126W        W86551  14.849   6.063   3.364
14127W        W86552  38.606   6.768  10.741
14128W        W86553   0.222  26.986  14.950
14129W        W86554  37.842  15.063   2.640
14130W        W86555  40.378  39.810   2.062
14131W        W86556  23.902  24.928   3.716
14132W        W86557  41.378  38.279  14.129
14133W        W86558  26.512   3.690  14.942
14134W        W86559  41.606  33.828  12.973
14135W        W86560  14.157  35.891  14.103
14136W        W86561  21.239  13.272   0.710
14137W        W86562   8.664   3.472   4.508
14138W        W86563  33.648  20.679   3.798
14139W        W86564  11.752   8.851  12.494
14140W        W86565  39.736  26.439   4.456
14141W        W86566  23.132  39.746   1.975
14142W        W86567  11.297  18.338   1.664
14143W        W86568  19.682  43.270  14.703
14144W        W86569  40.040  41.863  12.061
14145W        W86570  13.573   5.190  14.931
14146W        W86571  43.512  41.423  13.229
14147W        W86572   8.921  42.218   3.410
14148W        W86573  32.711  33.082  14.616
14149W        W86574  19.587   6.675   4.650
14150W        W86575  12.440  14.638  13.602
14151W        W86576  22.945   8.587  14.485
14152W        W86577   1.788  40.182  13.298
14153W        W86578  11.263   9.298  14.042
14154W        W86579  34.870  32.000  13.688
14155W        W86580  23.686  42.487   2.271
14156W        W86581   2.052  26.521   4.538
14157W        W86582   6.017  43.964   3.812
14158W        W86583  37.391   2.422   0.020
14159W        W86584  36.526   0.297   1.688
14160W        W86585  12.855  31.481   1.204
14161W        W86586  43.061  35.094  12.390
14162W        W86587   2.731  14.969   5.003
14163W        W86588  40.046   1.821  13.925
14164W        W86589  44.467   0.938  11.195
14165W        W86590   5.761  19.995  14.653
14166W        W86591  40.514  25.389  12.424
14167W        W86592   5.676   0.530   1.719
14168W        W86593  23.555  26.220   3.734
14169W        W86594   4.298   2.381  13.126
14170W        W86595  43.286   4.789  14.932
14171W        W86596  34.846   7.167   2.635
14172W        W86597  21.606  32.041  12.140
14173W        W86598  22.009  31.165   0.890
14174W        W86599  12.335  30.085  10.601
14175W        W86600  23.822  40.992   3.176
14176W        W86601   0.751  26.941  12.896
14177W        W86602  34.625  30.055   4.607
14178W        W86603  18.293   9.250  12.469
14179W        W86604  23.710   5.701   2.244
14180W        W86605  36.596  41.788   0.881
14181W        W86606  30.101  32.278   3.683
14182W        W86607  41.736  12.985   1.632
14183W        W86608  20.077  32.509   3.228
14184W        W86609  18.458  20.674  10.662
14185W        W86610   3.846  43.010   4.479
14186W        W86611  42.257   6.926  14.918
14187W        W86612  39.408  40.437   1.335
14188W        W86613  17.061  40.250  14.870
14189W        W86614  34.008  24.091  14.278
14190W        W86615  19.014   2.440   2.720
14191W        W86616  19.532  26.911  14.214
14192W        W86617  11.321   0.020   4.219
14193W        W86618   1.443  41.776   0.623
14194W        W86619  22.830   9.310  13.076
14195W        W86620   0.824  22.402   0.698
14196W        W86621  29.629  35.120  14.329
14197W        W86622  19.531  43.351   4.767
14198W        W86623   4.324   6.583   4.731
14199W        W86624  34.223  23.322  10.363
14200W        W86625  35.475  43.554  13.381
14201W        W86626  17.790  29.944  11.692
14202W        W86627  15.689   6.333  14.409
14203W        W86628  16.244   4.474   3.639
14204W        W86629  25.527  29.654   3.949
14205W        W86630  42.322  25.942   4.342
14206W        W86631  21.501  10.550   5.032
14207W        W86632  31.161  36.449   2.164
14208W        W86633  42.974  14.111  14.487
14209W        W86634  35.145  26.768   2.831
14210W        W86635  21.596  10.871  14.361
14211W        W86636  34.069  12.912  12.318
14212W        W86637  29.081  18.986  12.172
14213W        W86638   2.900  18.326   1.276
14214W        W86639  20.701   0.363   4.557
14215W        W86640  37.010  38.122   0.757
14216W        W86641  41.299  19.806  11.643
14217W        W86642  11.587  28.872   2.887
14218W        W86643  24.292  40.069   3.374
14219W        W86644   1.440  21.371  11.560
14220W        W86645  25.636  19.518  13.486
14221W        W86646  25.106  38.852   0.401
14222W        W86647  33.112  25.201   0.406
14223W        W86648  32.743  16.235   0.629
14224W        W86649  27.116  41.664  14.347
14225W        W86650  13.778  19.810  11.701
14226W        W86651  38.285  22.279   3.721
14227W        W86652   2.526   7.227   2.907
14228W        W86653   6.303  41.093   2.761
14229W        W86654  17.243  33.145   4.336
14230W        W86655  26.248  15.762   1.160
14231W        W86656  12.716   9.229  14.147
14232W        W86657  42.776   7.828   0.661
14233W        W86658  37.259  16.726  13.972
14234W        W86659   2.873  39.922   1.851
14235W        W86660  24.494  20.744  10.681
14236W        W86661  15.026  25.784   4.639
14237W        W86662  18.027  31.963   0.994
14238W        W86663   8.312  37.047   0.492
14239W        W86664  34.572  14.180   3.562
14240W        W86665  23.038  20.016  10.769
14241W        W86666  24.253  26.931  12.502
14242W        W86667  19.034  21.777  11.565
14243W        W86668   1.416  44.139  11.278
14244W        W86669   4.839  38.832   1.811
14245W        W86670  14.916  25.037   1.533
14246W        W86671   2.251   1.828  13.517
14247W        W86672   9.805  26.284  14.615
14248W        W86673  41.117  23.218   4.517
14249W        W86674  15.440  35.193  13.441
14250W        W86675  42.907  26.518   2.244
14251W        W86676  19.376   1.749  14.659
14252W        W86677  15.707  29.078   2.318
14253W        W86678  19.255  37.111  12.093
14254W        W86679  35.080  19.159  11.548
14255W        W86680   3.708  34.769  12.346
14256W        W86681  23.919  19.816   5.096
14257W        W86682  24.730  15.537   3.568
14258W        W86683  38.551  24.666  12.949
14259W        W86684  38.983  24.058  11.613
14260W        W86685  17.231  35.932   1.823
14261W        W86686  19.053  30.946   3.562
14262W        W86687   3.317  31.857  11.206
14263W        W86688   3.359  19.668   4.195
14264W        W86689  16.235  25.386   3.720
14265W        W86690  40.245  28.089   5.340
14266W        W86691   8.110  13.350  14.263
14267W        W86692   9.306  14.575   4.516
14268W        W86693  23.880  38.917  13.350
14269W        W86694  24.827  44.342  12.332
14270W        W86695   5.398  11.531  14.301
14271W        W86696  18.745  14.107   4.983
14272W        W86697  16.778   5.436   0.354
14273W        W86698   8.798   7.251  10.706
14274W        W86699  18.694  14.248   1.318
14275W        W86700  44.191  28.432   3.820
14276W        W86701  36.059  32.650   3.319
14277W        W86702  20.004   6.848  14.783
14278W        W86703  39.658  25.770  12.871
14279W        W86704  21.675  10.177  10.730
14280W        W86705   2.653  37.853   2.172
14281W        W86706  35.655  30.817   0.150
14282W        W86707  43.536  38.506   4.582
14283W        W86708   8.347   7.582   2.776
14284W        W86709  30.574  40.053   3.463
14285W        W86710  21.815  34.902   2.952
14286W        W86711   5.731   6.516  14.794
14287W        W86712  24.140  36.799   0.241
14288W        W86713  20.557  37.785  11.046
14289W        W86714  30.763  39.356  14.085
14290W        W86715  13.165  22.743   0.751
14291W        W86716  39.067  15.303   4.460
14292W        W86717  11.853  13.620  14.348
14293W        W86718  43.894   9.914  13.381
14294W        W86719  23.680   4.859   4.820
14295W        W86720  42.894  34.064  13.299
14296W        W86721  24.798  18.665   3.330
14297W        W86722  23.655  18.178  14.467
14298W        W86723  28.685   6.871   0.363
14299W        W86724  39.353  28.288   0.253
14300W        W86725  22.820   4.297  13.029
14301W        W86726  28.624  25.250   0.824
14302W        W86727  43.880  43.987   2.898
14303W        W86728  37.886  11.773   2.711
14304W        W86729  23.742   1.370  11.523
14305W        W86730  10.283  18.114   2.639
14306W        W86731  24.872   6.372   1.832
14307W        W86732   7.985   4.703  10.954
14308W        W86733  33.439   0.374  14.300
14309W        W86734  36.201  29.848  12.130
14310W        W86735  35.180  15.824   5.209
14311W        W86736  19.661  20.436   4.587
14312W        W86737  20.875  40.128   2.722
14313W        W86738  39.425  23.640  12.922
14314W        W86739   8.939  19.455   4.313
14315W        W86740  21.724  12.748  14.917
14316W        W86741  21.796  41.479  14.494
14317W        W86742  14.879   6.707  13.744
14318W        W86743  18.607  24.743  14.574
14319W        W86744  22.119  26.682   2.143
14320W        W86745   5.370  14.535  14.946
14321W        W86746  20.183  28.146  12.790
14322W        W86747   4.649  39.335  14.415
14323W        W86748  18.633   2.465  11.137
14324W        W86749  44.338  26.030   5.192
14325W        W86750  14.577  34.593  13.330
14326W        W86751  41.819  15.256  14.218
14327W        W86752   0.081   2.688  13.019
14328W        W86753  30.056  32.513   3.201
14329W        W86754  11.330  36.553  11.137
14330W        W86755  44.090   2.434   0.747
14331W        W86756  16.050  41.985  13.656
14332W        W86757  17.214  34.374  13.140
14333W        W86758  16.887   5.846  14.376
14334W        W86759  43.923  16.615  11.406
14335W        W86760   8.824   0.828   2.434
14336W        W86761  14.613  42.050   3.779
14337W        W86762   6.644  22.135  12.148
14338W        W86763  19.587  13.707   4.266
14339W        W86764  29.561  16.565  10.431
14340W        W86765   7.487  44.330  14.680
14341W        W86766   6.264  38.993  13.912
14342W        W86767  37.982  18.063  13.818
14343W        W86768   3.718  13.520  12.476
14344W        W86769  37.488  21.991  14.686
14345W        W86770   7.336   6.280  11.141
14346W        W86771  16.808  29.560  12.615
14347W        W86772  22.758  10.242   1.616
14348W        W86773  38.780  12.895  14.239
14349W        W86774  11.746  33.887  12.994
14350W        W86775  43.880  26.929   2.269
14351W        W86776  42.800  14.559   3.282
14352W        W86777   6.708  22.456   2.156
14353W        W86778  16.249   8.544  12.937
14354W        W86779   5.367  10.183  12.496
14355W        W86780  30.378   1.923  14.382
14356W        W86781   5.427  40.040   3.029
14357W        W86782  19.481  36.948  13.537
14358W        W86783  43.897   2.367   4.805
14359W        W86784  32.501  27.539   1.413
14360W        W86785  24.397  42.174   1.746
14361W        W86786   3.674  38.076  11.617
14362W        W86787  31.625  28.992  13.391
14363W        W86788  30.707  39.877   1.226
14364W        W86789  41.337  23.651   2.876
14365W        W86790  32.631  12.650   4.806
14366W        W86791  40.576  28.627   1.640
14367W        W86792   4.686  21.207   3.146
14368W        W86793  15.991  26.951   2.348
14369W        W86794   4.408  16.032  14.835
14370W        W86795   4.262  39.507   4.464
14371W        W86796  32.562  14.100   0.368
14372W        W86797  40.377  36.196   2.007
14373W        W86798  33.714  18.970   1.242
14374W        W86799  29.651   5.469  11.139
14375W        W86800  14.654   6.754   1.671
14376W        W86801  33.614  32.676  13.289
14377W        W86802  16.128  33.387   3.327
14378W        W86803  12.567  44.476   3.837
14379W        W86804   7.734  38.363   3.979
14380W        W86805  12.848  41.957   0.271
14381W        W86806   8.480  26.382   1.557
14382W        W86807  14.196  28.151   1.769
14383W        W86808  39.474  27.127   4.431
14384W        W86809   3.297  31.338  11.353
14385W        W86810  41.850  33.053  14.465
14386W        W86811   3.666  35.180   3.187
14387W        W86812  20.489  26.970  11.908
14388W        W86813   8.242  28.818  14.221
14389W        W86814   3.829  21.044  11.516
14390W        W86815  31.418  11.638   2.201
14391W        W86816  36.015  14.171  11.905
14392W        W86817  13.939  25.912  12.469
14393W        W86818  19.192  12.531  12.759
14394W        W86819  32.790  12.216   4.563
14395W        W86820  37.653  10.712   0.397
14396W        W86821   1.160  32.935   3.206
14397W        W86822  15.853  10.692  11.450
14398W        W86823  28.552  39.006   4.102
14399W        W86824  38.081  28.743  12.863
14400W        W86825  16.891  29.061  12.544
14401W        W86826  33.898  42.578  13.914
14402W        W86827  39.001   6.297  12.966
14403W        W86828  37.458  37.570   5.065
14404W        W86829  24.999  38.636   2.818
14405W        W86830  15.360  19.885   3.633
14406W        W86831  39.027   2.701   2.160
14407W        W86832  12.296  27.487   4.470
14408W        W86833   5.969  21.934  12.857
14409W        W86834  12.830  19.086  14.921
14410W        W86835  44.452  13.780  10.713
14411W        W86836  16.698  42.993   1.371
14412W        W86837   9.332   1.297   3.388
14413W        W86838   2.198  10.618   1.901
14414W        W86839  21.282  12.801  13.784
14415W        W86840   1.950   7.369   2.099
14416W        W86841  30.058  28.478  11.414
14417W        W86842  43.491   1.220  12.494
14418W        W86843  44.429  19.598  12.426
14419W        W86844  20.156   9.751   4.344
14420W        W86845  39.276   6.197  10.707
14421W        W86846  25.592  21.228   1.766
14422W        W86847   4.456   6.258   1.144
14423W        W86848  30.964  27.549  10.651
14424W        W86849  35.967  37.991  10.758
14425W        W86850  41.501   3.215  11.185
14426W        W86851  44.918  42.302  13.594
14427W        W86852  41.310   2.083   3.779
14428W        W86853  26.263  23.680   3.739
14429W        W86854  20.035  24.914   1.853
14430W        W86855  33.603  20.663  13.354
14431W        W86856  39.330  27.486  13.607
14432W        W86857  14.256   9.209   2.433
14433W        W86858   5.393  35.802   2.496
14434W        W86859  42.745  40.375   1.906
14435W        W86860  10.314  14.568  14.317
14436W        W86861  11.450  34.740   4.127
14437W        W86862  38.900  44.378   0.958
14438W        W86863  44.163  25.133  11.044
14439W        W86864  32.222   3.854  13.436
14440W        W86865  22.282  40.973   3.354
14441W        W86866  43.492  31.527  12.904
14442W        W86867  28.620   9.842  11.514
14443W        W86868  43.504  22.260   3.623
14444W        W86869  18.269   2.159  11.876
14445W        W86870  43.335  21.016   1.549
14446W        W86871  19.719  14.914  11.865
14447W        W86872  25.790  27.333   2.697
14448W        W86873  13.868   3.307   1.450
14449W        W86874  11.439  15.480   2.729
14450W        W86875   8.822  20.816  13.898
14451W        W86876   3.875  37.451   5.015
14452W        W86877  10.645   2.163  14.303
14453W        W86878  21.941   5.411   1.751
14454W        W86879  23.558  44.869  13.794
14455W        W86880   9.690  12.211  14.172
14456W        W86881  17.148  36.077  13.605
14457W        W86882   8.317  40.179   4.814
14458W        W86883   3.982  23.132  14.614
14459W        W86884  39.412  11.505   2.722
14460W        W86885   4.848  15.028   1.847
14461W        W86886  19.745   7.365   4.244
14462W        W86887  20.039  12.143   2.765
14463W        W86888  41.004  23.444  12.110
14464W        W86889  28.482  22.210   0.396
14465W        W86890  33.344  10.808   1.741
14466W        W86891  26.730   2.811  13.373
14467W        W86892  29.023  26.188  13.589
14468W        W86893  29.098  16.688  13.879
14469W        W86894  38.734  34.856   2.649
14470W        W86895  31.382   2.635  13.089
14471W        W86896   7.188  25.520   2.919
14472W        W86897  19.775  17.593  14.515
14473W        W86898  31.647  30.520   4.664
14474W        W86899   9.337  26.155   4.859
14475W        W86900  37.489  26.283   4.440
14476W        W86901   7.726  29.446   3.958
14477W        W86902  24.998  33.835   1.371
14478W        W86903   4.634   2.043   4.724
14479W        W86904   2.211   3.922   0.937
14480W        W86905  20.647  32.691   3.780
14481W        W86906  32.413  22.181  14.499
14482W        W86907  25.987  21.270  11.602
14483W        W86908  25.940   2.283   4.587
14484W        W86909  37.126  42.056  11.064
14485W        W86910  20.809   4.758   0.693
14486W        W86911  17.493  18.584  12.534
14487W        W86912   9.239   3.668  12.843
14488W        W86913  38.152  28.630   0.349
14489W        W86914  43.028  12.116   3.277
14490W        W86915  17.126  25.102   0.937
14491W        W86916  27.581  14.379   0.237
14492W        W86917  28.631  12.755   0.857
14493W        W86918  14.369  11.733  14.105
14494W        W86919  44.241  39.521  10.241
14495W        W86920  11.083   8.235  10.535
14496W        W86921  25.702  39.372   4.352
14497W        W86922  40.007  44.428   3.289
14498W        W86923  10.622  13.104   0.343
14499W        W86924  27.472  30.362  11.492
14500W        W86925   8.052   8.786  14.439
14501W        W86926  44.929  14.095   0.217
14502W        W86927   8.656  43.588  12.895
14503W        W86928   8.055   5.775   3.539
14504W        W86929  15.074  38.321  12.989
14505W        W86930  29.383  15.261  14.909
14506W        W86931  44.153  17.596  14.898
14507W        W86932   8.833  11.586   3.658
14508W        W86933  16.384  39.620   0.737
14509W        W86934  29.758  39.522  13.155
14510W        W86935  25.519   0.154   4.317
14511W        W86936  29.902  25.231   2.599
14512W        W86937  15.388  40.318  10.515
14513W        W86938   4.807   5.086  13.065
14514W        W86939  42.036  12.221  14.847
14515W        W86940  18.748  44.918   2.243
14516W        W86941   0.418   1.684   1.366
14517W        W86942   1.391   1.373  14.886
14518W        W86943   4.678  28.185  14.640
14519W        W86944  18.969  34.534  11.961
14520W        W86945  41.281  31.697  11.912
14521W        W86946  29.112  24.008   2.903
14522W        W86947  27.003   5.929  12.513
14523W        W86948   3.362  38.444  14.506
14524W        W86949  12.150  18.359   3.658
14525W        W86950  44.531  33.173  13.441
14526W        W86951  18.641  16.240  10.897
14527W        W86952  39.777  44.472  10.248
14528W        W86953   8.652   5.086   4.250
14529W        W86954  11.605  13.812  13.898
14530W        W86955  28.051  18.039  13.380
14531W        W86956  30.171  44.738  13.506
14532W        W86957   5.809   8.739  14.969
14533W        W86958  11.080  30.858   0.189
14534W        W86959  14.035  43.607   0.236
14535W        W86960  38.003  29.488  14.385
14536W        W86961   0.370  42.645   2.163
14537W        W86962  42.883  20.479  11.102
14538W        W86963  17.362   4.602   4.244
14539W        W86964  18.303  18.944  11.315
14540W        W86965  39.640  44.674  14.854
14541W        W86966  25.502  20.924   2.184
14542W        W86967  32.171   0.240   3.700
14543W        W86968   0.357  36.381  10.775
14544W        W86969  31.960  37.251  12.527
14545W        W86970  26.035  44.005  14.796
14546W        W86971  23.658   4.960   3.800
14547W        W86972  22.093   3.206  13.341
14548W        W86973  23.181  44.385  13.058
14549W        W86974  24.690  39.770   1.682
14550W        W86975  38.439  30.967   1.200
14551W        W86976   6.243  27.025  14.878
14552W        W86977   4.122  30.986   0.349
14553W        W86978  20.248   5.900   2.855
14554W        W86979  35.908   5.993   4.513
14555W        W86980   0.239  12.866   4.510
14556W        W86981   4.866  36.768  13.421
14557W        W86982  29.536  28.059   1.294
14558W        W86983   5.230  28.174   1.327
14559W        W86984   1.519  25.788   3.975
14560W        W86985   1.221   0.966   2.253
14561W        W86986   0.123  39.959  14.339
14562W        W86987  43.916  34.825  14.857
14563W        W86988  16.266  41.665   1.340
14564W        W86989  44.945   3.919   0.369
14565W        W86990  25.385  24.166  10.678
14566W        W86991  33.038  22.717   2.166
14567W        W86992  43.178  41.495   0.253
14568W        W86993  10.635  20.991  12.695
14569W        W86994  16.512   4.216   0.361
14570W        W86995   6.183  16.467   1.247
14571W        W86996   1.682  27.597  10.970
14572W        W86997  14.341  32.418  10.687
14573W        W86998  39.329   8.961  10.973
14574W        W86999   3.495  11.751  11.434
14575W        W87000  29.405  37.018   0.709
14576W        W87001  22.183  21.695  13.008
14577W        W87002   4.351  38.377  13.526
14578W        W87003  29.840  30.151  10.719
14579W        W87004   8.141  10.285  11.134
14580W        W87005   6.506  42.466  12.918
14581W        W87006  44.110  21.560   3.812
14582W        W87007   2.242  18.657   4.148
14583W        W87008  33.148  35.143   2.261
14584W        W87009  43.708  33.349  14.822
14585W        W87010  33.767  28.456   3.626
14586W        W87011  15.308  27.938   0.345
14587W        W87012  38.094  24.657   5.122
14588W        W87013  11.709  40.514  14.390
14589W        W87014  18.233  36.370   3.212
14590W        W87015  10.313  41.022   3.850
14591W        W87016  25.714  25.904  11.133
14592W        W87017  23.641   1.030   2.313
14593W        W87018  24.990  34.536   3.963
14594W        W87019  15.609  33.582   4.796
14595W        W87020  23.475   9.277   2.519
14596W        W87021  42.628  43.378   0.477
14597W        W87022  35.185  18.275   2.220
14598W        W87023  34.962  29.138  11.183
14599W        W87024   9.852   4.045  11.198
14600W        W87025  43.767  20.454   3.295
14601W        W87026   9.274  10.435  13.884
14602W        W87027   9.445  41.316   1.399
14603W        W87028  29.663  16.711   1.673
14604W        W87029  30.509  43.016  13.965
14605W        W87030  20.981  21.739  14.405
14606W        W87031  12.949  21.723  13.427
14607W        W87032  37.122  12.210  12.096
14608W        W87033  35.104  29.510   1.417
14609W        W87034   8.856  16.058   1.742
14610W        W87035  15.006  42.385   3.810
14611W        W87036  27.941   3.757   2.723
14612W        W87037   7.562  20.488  10.709
14613W        W87038  40.530  36.841  12.032
14614W        W87039  19.628  30.018  11.123
14615W        W87040   4.529  43.472   1.745
14616W        W87041  37.837  13.673  12.841
14617W        W87042   3.264  23.060  12.381
14618W        W87043  32.602  32.609  14.888
14619W        W87044  38.956  11.762   0.851
14620W        W87045  29.271  19.657   3.211
14621W        W87046  30.643  28.070  13.156
14622W        W87047   5.394  38.314  11.215
14623W        W87048   7.614  36.131   0.899
14624W        W87049  15.108  24.153  13.852
14625W        W87050   0.948  29.185   0.961
14626W        W87051   8.644  23.040   2.284
14627W        W87052   8.174  22.671   1.898
14628W        W87053  21.036  14.639   0.510
14629W        W87054  21.122   9.142  11.075
14630W        W87055  11.582  13.252   1.876
14631W        W87056  17.173   8.712  10.298
14632W        W87057  22.330  33.037   3.838
14633W        W87058  19.626  33.430  10.607
14634W        W87059  30.720   4.242   3.842
14635W        W87060  25.656  28.462   3.801
14636W        W87061  19.061  16.528   3.707
14637W        W87062  23.020  13.594  11.564
14638W        W87063  30.651  35.307  12.225
14639W        W87064  32.021  13.082  10.907
14640W        W87065  34.622   6.092  11.075
14641W        W87066  12.266   2.523   4.346
14642W        W87067  30.134  43.562   2.705
14643W        W87068   2.798  35.485   0.342
14644W        W87069  44.838  15.143   1.910
14645W        W87070  36.389  39.172   4.155
14646W        W87071  16.266   1.477  14.433
14647W        W87072  26.320  31.494  10.686
14648W        W87073  12.300  34.147  12.381
14649W        W87074  38.603  43.319   1.607
14650W        W87075  27.731  22.148  14.316
14651W        W87076  35.950   8.372  13.068
14652W        W87077  13.717  25.393   0.186
14653W        W87078  11.828  11.688   0.952
14654W        W87079   4.515   4.058  13.583
14655W        W87080  23.137  28.720   0.443
14656W        W87081  23.978  40.056   1.027
14657W        W87082  26.394   9.712  14.309
14658W        W87083  39.424  22.933   4.423
14659W        W87084  10.908  23.209   1.784
14660W        W87085   1.225   6.122   2.334
14661W        W87086  15.218   9.976  12.794
14662W        W87087   8.441  22.298  13.396
14663W        W87088  19.070  23.537   3.264
14664W        W87089  24.266  10.644  11.140
14665W        W87090  24.723  36.069  11.192
14666W        W87091  41.864   0.253  10.718
14667W        W87092  43.846  15.396  13.815
14668W        W87093  25.130  24.844   1.499
14669W        W87094  24.477  38.466  11.684
14670W        W87095   3.998   5.929   1.799
14671W        W87096  33.038  31.398   0.891
14672W        W87097  17.072  31.839   1.839
14673W        W87098  27.493   0.683   2.374
14674W        W87099  40.463  18.887  12.122
14675W        W87100  40.941  38.275  10.788
14676W        W87101  33.895  12.840   4.098
14677W        W87102  42.548  26.788   2.550
14678W        W87103  17.053  37.842  12.642
14679W        W87104   1.329  25.407  11.201
14680W        W87105  39.531  39.970  10.552
14681W        W87106  15.131  25.351   1.204
14682W        W87107  30.628   8.899  13.841
14683W        W87108  28.905  15.743  10.777
14684W        W87109  15.056  21.278   3.309
14685W        W87110  42.601   0.010   1.969
14686W        W87111  27.438  12.851   3.497
14687W        W87112  35.163  16.573  11.654
14688W        W87113  44.705  41.358   0.419
14689W        W87114   7.378  40.547  14.420
14690W        W87115  40.390  42.710  10.712
14691W        W87116   8.794  26.474  14.276
14692W        W87117  43.457  17.286  11.206
14693W        W87118  34.542  38.763   2.297
14694W        W87119  32.947  32.561   4.103
14695W        W87120  23.588   0.824  14.768
14696W        W87121   3.700  32.522   2.112
14697W        W87122  37.980  22.582   3.060
14698W        W87123   2.444  17.795   4.274
14699W        W87124   8.694  25.018   3.363
14700W        W87125  12.074  32.855   0.204
14701W        W87126  43.499   5.265   4.030
14702W        W87127  35.559  42.415  14.777
14703W        W87128  32.356  40.164  12.718
14704W        W87129   7.825  16.271  13.677
14705W        W87130  44.418  18.102  14.229
14706W        W87131  19.716  31.999   1.292
14707W        W87132   3.840  39.918  11.342
14708W        W87133  24.268  30.300  10.331
14709W        W87134   6.226   8.412   1.356
14710W        W87135  12.289  39.224   4.509
14711W        W87136  39.217  40.770   4.379
14712W        W87137  33.625   4.147   4.226
14713W        W87138   3.745  28.954   0.261
14714W        W87139  22.449  20.752   1.524
14715W        W87140  40.437  16.257   4.972
14716W        W87141   7.586  33.065   4.714
14717W        W87142  40.794   2.721   4.296
14718W        W87143  34.956  17.447   1.923
14719W        W87144  14.543  13.341   0.695
14720W        W87145  43.982  38.347  11.961
14721W        W87146   7.810   3.910   3.335
14722W        W87147  19.291  34.396  10.661
14723W        W87148  30.148  14.828   2.942
14724W        W87149   0.777  14.530  12.547
14725W        W87150  22.279   4.351  14.273
14726W        W87151  40.554  42.979  11.152
14727W        W87152  17.017  10.813  11.153
14728W        W87153   1.905  22.494   1.188
14729W        W87154  29.173  43.694   0.732
14730W        W87155  17.096  30.003  10.519
14731W        W87156  43.523   5.082  14.128
14732W        W87157   2.476  13.462   3.254
14733W        W87158  16.828  24.277  11.110
14734W        W87159  30.506  23.723  11.167
14735W        W87160   7.923  43.420   3.246
14736W        W87161  34.618  32.092   0.007
14737W        W87162  23.896  39.296   3.197
14738W        W87163  29.557  10.269  13.319
14739W        W87164  35.033  31.343  10.969
14740W        W87165   6.256  18.228  14.552
14741W        W87166   4.192  43.738   2.715
14742W        W87167  13.349  35.123  14.836
14743W        W87168  41.296  27.049   1.435
14744W        W87169  21.803  33.346  11.589
14745W        W87170   2.340   0.237   1.403
14746W        W87171  25.950  34.373  14.835
14747W        W87172  18.482   1.510   1.374
14748W        W87173  29.210   4.164  12.963
14749W        W87174  44.496  36.987   3.740
14750W        W87175  34.589  25.991  11.492
14751W        W87176   8.853  11.308   4.203
14752W        W87177  32.327  20.569   1.900
14753W        W87178  15.047   1.931   3.930
14754W        W87179  22.263  25.981  10.672
14755W        W87180  18.938  42.292  11.965
14756W        W87181  32.331  30.404  14.550
14757W        W87182  41.356  15.111  11.604
14758W        W87183  34.942   4.650   4.524
14759W        W87184  34.766  11.650   2.681
14760W        W87185  44.766  30.934  14.028
14761W        W87186  38.802  29.461  13.398
14762W        W87187   1.975  34.838  12.102
14763W        W87188  25.205  37.787   2.293
14764W        W87189  39.377  19.240   4.346
14765W        W87190   3.897  38.693   3.390
14766W        W87191   5.797  12.882   1.558
14767W        W87192  43.513  17.067   2.890
14768W        W87193  15.120  43.547   1.946
14769W        W87194  10.790  34.169  14.947
14770W        W87195  26.085   3.935  13.779
14771W        W87196   5.449   0.034   1.919
14772W        W87197  28.649   2.283   1.320
14773W        W87198  41.085  10.220  14.609
14774W        W87199  11.160  25.526   4.237
14775W        W87200  10.650  23.509  13.376
14776W        W87201  26.437  33.127  14.876
14777W        W87202  13.235  15.406  11.030
14778W        W87203  33.761  25.085   2.485
14779W        W87204  34.170  10.750   2.184
14780W        W87205   4.820  12.813   3.720
14781W        W87206  30.174   7.461   1.270
14782W        W87207  43.871   0.244   1.394
14783W        W87208  37.423   3.255  11.653
14784W        W87209   8.294  30.355   1.691
14785W        W87210  42.152  41.220  13.328
14786W        W87211  38.010   8.339   2.669
14787W        W87212  11.926   9.772  12.544
14788W        W87213  22.917  21.033  14.192
14789W        W87214   2.195   3.961   2.261
14790W        W87215  40.975  36.896  10.606
14791W        W87216  25.596  40.212   1.424
14792W        W87217  28.728  44.760  11.261
14793W        W87218  12.012  29.485   0.616
14794W        W87219  13.859  28.956   0.841
14795W        W87220   2.527  31.521   3.621
14796W        W87221  21.640  42.957   0.484
14797W        W87222   0.171  28.132  13.384
14798W        W87223   3.270   4.491  11.934
14799W        W87224  11.664  38.851  12.408
14800W        W87225   3.792  29.348  10.164
14801W        W87226   1.867  41.230   1.206
14802W        W87227   7.224  17.734   0.306
14803W        W87228  13.244  19.423  14.754
14804W        W87229  14.795  41.428   3.186
14805W        W87230  26.734  24.294  13.861
14806W        W87231   1.414  32.481  14.996
14807W        W87232  37.825  35.918   5.124
14808W        W87233  35.405  31.019   3.692
14809W        W87234   9.785   6.652  11.139
14810W        W87235  27.090  43.308   3.671
14811W        W87236  20.753  42.686  12.676
14812W        W87237  16.894  37.034  11.649
14813W        W87238  24.144   4.812   4.595
14814W        W87239  37.361  20.248   1.874
14815W        W87240  38.609  16.835   1.466
14816W        W87241  39.757  33.960  13.526
14817W        W87242  29.332   1.006   2.839
14818W        W87243  39.557  30.979  11.104
14819W        W87244   1.201  22.918  12.560
14820W        W87245   5.972  44.170  13.917
14821W        W87246  30.888  18.582  14.801
14822W        W87247   1.631  15.330   1.135
14823W        W87248  16.832  26.041  13.388
14824W        W87249  24.260  21.240   1.129
14825W        W87250  20.736  20.488   0.026
14826W        W87251   8.391  11.763  12.101
14827W        W87252  32.492  17.229  14.451
14828W        W87253   2.763  12.244  14.500
14829W        W87254  31.190  12.525  12.887
14830W        W87255  41.757  20.792  11.561
14831W        W87256  22.258  34.630   1.743
14832W        W87257  37.298  36.078  11.861
14833W        W87258   0.318  24.958  10.718
14834W        W87259   4.218  44.355  12.013
14835W        W87260  24.601  36.876  10.753
14836W        W87261  31.674  38.314  13.462
14837W        W87262   8.719  32.096   4.267
14838W        W87263  21.261  41.610  11.949
14839W        W87264  17.727  29.709   1.497
14840W        W87265  24.504  15.163   4.158
14841W        W87266  28.643  37.722  12.944
14842W        W87267  36.128  20.748   1.939
14843W        W87268   2.189  39.901  12.090
14844W        W87269  16.048  38.447  11.909
14845W        W87270  44.482   2.363   4.189
14846W        W87271   7.857   1.816  14.390
14847W        W87272  24.079  26.466  12.701
14848W        W87273  36.233  41.398   0.351
14849W        W87274  13.220  21.150   4.643
14850W        W87275  32.684  16.575  10.253
14851W        W87276  31.853  12.757   1.503
14852W        W87277  36.450  31.613   4.827
14853W        W87278  34.113  19.020   4.152
14854W        W87279  35.406  26.917   3.323
14855W        W87280  23.729   8.949   2.857
14856W        W87281  16.477   0.164   0.305
14857W        W87282  12.886  40.127  11.911
14858W        W87283  22.708   2.659  12.931
14859W        W87284  26.553  34.232  13.698
14860W        W87285  21.065  34.115   4.809
14861W        W87286  36.398  15.546   0.959
14862W        W87287  36.489  22.219   3.716
14863W        W87288   5.205  37.589   4.080
14864W        W87289  20.048  10.464  11.102
14865W        W87290  20.791   7.188  10.441
14866W        W87291   8.870  27.963   3.706
14867W        W87292   2.321  18.978  12.993
14868W        W87293   4.966  17.205   2.427
14869W        W87294  32.113  20.090  10.577
14870W        W87295  11.658   2.480  11.942
14871W        W87296  11.864  17.633  14.527
14872W        W87297  39.942  20.535   4.515
14873W        W87298  34.962  17.519   4.580
14874W        W87299  44.846  23.136  11.938
14875W        W87300  27.901  38.361  14.512
14876W        W87301  35.275  12.798  14.790
14877W        W87302  42.543  27.925  10.526
14878W        W87303  29.465  15.381   4.392
14879W        W87304  27.514  26.220  10.870
14880W        W87305  36.379  17.194  10.510
14881W        W87306  10.657  20.989  13.566
14882W        W87307  18.742  21.187  14.722
14883W        W87308  36.588  22.598  14.713
14884W        W87309  44.534  43.361  13.917
14885W        W87310  22.303  35.732   4.892
14886W        W87311  10.905  29.408  12.950
14887W        W87312  14.554   7.876  10.673
14888W        W87313  39.320  35.579   0.762
14889W        W87314  40.119  10.320   4.188
14890W        W87315  26.036   5.996  11.884
14891W        W87316  33.027  21.662  11.420
14892W        W87317   4.464  30.110  10.497
14893W        W87318   4.441  27.867   1.842
14894W        W87319  32.373   5.263   3.736
14895W        W87320  31.313   8.616   0.516
14896W        W87321  11.587  23.290  10.224
14897W        W87322  33.148  22.083  13.561
14898W        W87323  14.695  29.181  11.189
14899W        W87324  19.146  36.530  10.990
14900W        W87325  19.224  26.175  11.313
14901W        W87326  15.111   9.781   4.831
14902W        W87327  32.333  38.092   2.300
14903W        W87328  44.905   1.210  11.172
14904W        W87329  28.984   6.845  11.664
14905W        W87330   1.822  39.086   3.729
14906W        W87331  12.689  29.029   1.407
14907W        W87332  40.835  18.472  12.407
14908W        W87333   3.326  25.196   4.091
14909W        W87334  34.459  36.279   1.927
14910W        W87335   4.680  25.141   4.861
14911W        W87336  10.370  13.273  14.915
14912W        W87337  24.133   3.827  11.434
14913W        W87338  10.466  23.942   4.470
14914W        W87339  39.922  12.078  12.595
14915W        W87340  40.509  13.724  11.530
14916W        W87341  20.141  39.997   3.995
14917W        W87342  14.698   4.712   0.872
14918W        W87343  41.817   6.103  12.993
14919W        W87344  27.710  37.463  11.638
14920W        W87345  18.453   1.235  12.464
14921W        W87346  20.097  29.435  13.971
14922W        W87347   2.821  41.566   1.498
14923W        W87348  10.551  43.303  10.181
14924W        W87349  16.517  37.152   3.908
14925W        W87350  32.366  28.734   4.425
14926W        W87351   8.288  18.321   1.363
14927W        W87352  16.548  28.611   1.071
14928W        W87353  34.519  40.044  13.810
14929W        W87354  14.155   1.885   3.909
14930W        W87355   5.733  39.903   2.030
14931W        W87356  32.093  22.111  11.203
14932W        W87357  37.635   7.226   3.315
14933W        W87358  20.914   0.934   2.016
14934W        W87359  42.241  38.904  10.640
14935W        W87360  27.700  41.987  13.588
14936W        W87361  14.140  19.533  10.849
14937W        W87362  27.567  20.992   5.047
14938W        W87363  44.923  30.185   3.732
14939W        W87364  39.814  26.451   0.327
14940W        W87365  11.361  20.645  13.778
14941W        W87366   4.557  31.317  13.219
14942W        W87367  37.554  18.330   3.290
14943W        W87368  32.918   2.782   2.409
14944W        W87369   9.344  34.223   1.429
14945W        W87370  32.598  41.516   3.181
14946W        W87371  17.219  44.228   0.923
14947W        W87372  22.871  25.359  13.415
14948W        W87373  20.672  33.468  12.606
14949W        W87374  15.739  42.611  12.467
14950W        W87375  29.599  44.765   3.251
14951W        W87376  16.629  40.941  11.319
14952W        W87377  13.401  43.831   1.319
14953W        W87378  33.596  28.586  14.054
14954W        W87379  12.072  23.962  12.988
14955W        W87380  22.306  34.623   0.861
14956W        W87381   5.875  20.311   2.842
14957W        W87382  40.022  11.437  11.865
14958W        W87383  23.059  12.720  12.143
14959W        W87384  36.357   8.430   3.353
14960W        W87385   9.371   7.374  13.077
14961W        W87386   3.278  30.059  11.062
14962W        W87387  34.499  17.219   1.994
14963W        W87388  19.268  16.143  11.336
14964W        W87389   0.851  13.662   4.746
14965W        W87390  29.915  42.383  13.073
14966W        W87391   6.713  16.139  11.974
14967W        W87392  38.674  33.567   4.884
14968W        W87393  27.613   2.912   0.418
14969W        W87394  35.301  19.317  13.381
14970W        W87395  32.651  38.524  12.509
14971W        W87396  44.634   1.958  14.432
14972W        W87397  29.032  21.625  12.655
14973W        W87398  24.254  11.264   3.402
14974W        W87399   2.038  14.088   2.808
14975W        W87400  28.627  19.547  11.163
14976W        W87401  19.412  42.924   1.780
14977W        W87402  34.564   9.167  13.725
14978W        W87403  16.916   6.983   4.966
14979W        W87404  16.733  34.493  10.465
14980W        W87405  22.635  43.552   1.894
14981W        W87406  22.464  19.711   3.774
14982W        W87407  22.642  20.844   4.871
14983W        W87408  21.684  31.613   1.433
14984W        W87409  37.165  22.731  13.845
14985W        W87410  42.184  28.645   0.779
14986W        W87411  41.829   6.242   0.394
14987W        W87412  19.655  16.515  14.464
14988W        W87413  10.229  22.985  13.049
14989W        W87414  15.760  28.269   2.849
14990W        W87415  32.904  30.119   4.427
14991W        W87416  23.161  25.514  11.672
14992W        W87417  12.782  18.805  12.614
14993W        W87418   7.791  31.081   1.996
14994W        W87419  31.829  16.356  10.216
14995W        W87420  44.441  41.633  13.966
14996W        W87421   1.017  23.588   2.667
14997W        W87422   7.609   1.857  10.068
14998W        W87423  35.223   9.402   4.253
14999W        W87424  37.011  36.398  13.178
15000W        W87425   7.973  11.923  11.023
15001W        W87426  28.373  41.843   3.411
15002W        W87427  36.128   9.652  10.446
15003W        W87428  41.956  28.365  13.382
15004W        W87429  35.636  26.641  11.092
15005W        W87430  11.391  27.445   3.913
15006W        W87431  40.050   9.824   1.378
15007W        W87432  35.431  10.144  12.954
15008W        W87433  20.566  19.051   3.652
15009W        W87434  13.163   6.351   2.475
15010W        W87435  27.551  27.083   1.714
15011W        W87436  41.520   0.322   4.915
15012W        W87437  40.539  34.983  12.110
15013W        W87438  11.706  30.917   1.637
15014W        W87439  25.652  44.963   3.827
15015W        W87440  25.387  33.095  12.037
15016W        W87441  21.875  39.107   3.341
15017W        W87442  16.185  37.363  10.652
15018W        W87443  11.367  34.097  11.129
15019W        W87444  21.284   0.684  14.936
15020W        W87445   2.514  18.233  10.589
15021W        W87446  34.828   6.452   4.100
15022W        W87447  41.818  23.598   2.554
15023W        W87448  22.176  35.463  10.713
15024W        W87449  21.956  42.436   0.792
15025W        W87450   8.155  33.611   2.286
15026W        W87451   4.755  36.419   1.527
15027W        W87452  14.219  23.782  14.918
15028W        W87453  43.568  28.902   0.805
15029W        W87454  29.002  37.839  12.524
15030W        W87455  16.058  10.620  14.447
15031W        W87456  20.437  10.156   4.526
15032W        W87457   4.190  36.038   2.656
15033W        W87458  13.887  28.513   2.728
15034W        W87459  39.420  37.258  12.979
15035W        W87460  20.528   8.411   4.186
15036W        W87461  27.722  13.381  11.890
15037W        W87462  22.529   3.179  12.982
15038W        W87463  25.657  14.618   3.162
15039W        W87464  14.093  34.622  13.061
15040W        W87465   5.766  32.074   2.945
15041W        W87466  26.441  44.416  14.370
15042W        W87467   2.059  36.342  12.843
15043W        W87468  24.944  36.735   0.399
15044W        W87469  22.024  11.921  13.934
15045W        W87470   6.710   1.625   4.040
15046W        W87471  43.248  36.829  12.355
15047W        W87472  11.406  43.140   0.197
15048W        W87473   4.275  15.344   1.339
15049W        W87474  18.548  29.243   3.185
15050W        W87475   3.790  17.041   3.215
15051W        W87476   3.077  43.082   2.141
15052W        W87477  34.433  42.777   0.380
15053W        W87478  17.111  27.688   1.946
15054W        W87479  15.386  15.251  11.601
15055W        W87480   2.200  10.307  10.594
15056W        W87481  39.469  41.257   0.886
15057W        W87482   5.220   3.215  10.363
15058W        W87483   6.674  37.658   1.239
15059W        W87484  40.298  21.249  12.404
15060W        W87485  23.715  43.333  11.899
15061W        W87486   1.569   7.613   3.723
15062W        W87487  31.578  13.759   2.648
15063W        W87488  44.457   1.570   1.204
15064W        W87489  28.571   3.989  11.095
15065W        W87490  42.384  34.661  12.907
15066W        W87491  26.774  12.632   4.086
15067W        W87492  18.704  16.905   1.557
15068W        W87493  16.256  23.310   3.186
15069W        W87494  13.199  30.320   4.624
15070W        W87495  43.785  44.885  13.394
15071W        W87496   7.437   2.969   3.260
15072W        W87497  24.466   8.607  13.506
15073W        W87498   9.136  37.099  12.974
15074W        W87499  13.101   8.435  12.127
15075W        W87500   6.515  23.942   3.228
15076W        W87501  30.956  24.804  12.916
15077W        W87502  25.538  21.031  10.871
15078W        W87503  29.533  10.884   4.171
15079W        W87504  40.192  23.157  11.590
15080W        W87505  13.706  25.703  14.771
15081W        W87506  40.913  39.243   1.871
15082W        W87507   7.565  11.290  13.904
15083W        W87508  21.510  19.388   0.405
15084W        W87509  37.266   2.818   3.632
15085W        W87510  16.584  42.681  12.918
15086W        W87511  34.651  18.150  13.008
15087W        W87512  22.850  39.811   2.945
15088W        W87513  35.359  31.986   5.056
15089W        W87514   9.307  20.622  14.361
15090W        W87515   8.148  18.731   0.089
15091W        W87516  31.416  10.183  12.086
15092W        W87517   1.442  37.939   2.550
15093W        W87518  39.848  25.059  12.747
15094W        W87519  21.693  21.066  10.014
15095W        W87520  19.710  43.299   1.962
15096W        W87521  12.874  11.320   1.433
15097W        W87522  33.948   5.304   1.742
15098W        W87523  15.925  34.570   3.295
15099W        W87524   9.917   1.574  11.214
15100W        W87525  23.255   1.702  14.223
15101W        W87526  16.063  22.051   4.585
15102W        W87527  27.665   9.166  12.849
15103W        W87528   0.175  18.358  14.932
15104W        W87529   0.848  12.064   2.440
15105W        W87530  43.441  25.499  12.925
15106W        W87531  31.090  18.532  13.816
15107W        W87532  37.101  39.034   2.122
15108W        W87533  24.606  12.059   3.192
15109W        W87534  43.049  38.298  13.863
15110W        W87535  32.196  14.188  12.187
15111W        W87536  12.808  34.777  10.858
15112W        W87537  23.401  18.968  13.233
15113W        W87538  40.310   8.203  12.296
15114W        W87539  41.409  21.670   0.966
15115W        W87540  41.894  40.266   0.933
15116W        W87541  37.918  23.988  14.406
15117W        W87542  30.440   2.415  14.072
15118W        W87543   2.200  28.125   4.149
15119W        W87544  42.832  42.409  10.719
15120W        W87545  43.905  36.168   4.465
15121W        W87546  16.235  28.912  12.803
15122W        W87547  11.233  35.832   1.863
15123W        W87548  35.246  21.437  11.188
15124W        W87549   5.275  37.746   2.254
15125W        W87550  30.985  20.309  14.294
15126W        W87551  41.419  39.822  10.992
15127W        W87552   0.802  34.495   4.366
15128W        W87553  11.257  43.357  14.244
15129W        W87554  29.732   3.328   4.059
15130W        W87555   8.760   6.178   4.763
15131W        W87556   6.662  38.300  10.700
15132W        W87557  28.377  29.547   3.537
15133W        W87558  25.084  44.523   2.267
15134W        W87559   3.433  25.578  10.352
15135W        W87560  12.909   8.802  13.916
15136W        W87561  37.589  22.639  14.110
15137W        W87562   9.094  21.650   4.213
15138W        W87563  10.709   5.754   1.220
15139W        W87564  40.847  39.747  11.462
15140W        W87565  21.144  28.097   2.649
15141W        W87566  12.039   2.328  12.855
15142W        W87567  34.601   2.556   5.028
15143W        W87568  22.091  29.596   4.663
15144W        W87569  14.748  15.597   3.269
15145W        W87570   2.266  37.569   2.346
15146W        W87571   4.907  28.230   0.108
15147W        W87572   9.339   6.286   2.751
15148W        W87573  19.159  29.429   1.034
15149W        W87574   1.790  10.194  13.840
15150W        W87575  14.546  29.046   2.637
15151W        W87576  10.702  44.846   2.876
15152W        W87577  36.854  43.376   1.267
15153W        W87578  29.206   8.235  10.555
15154W        W87579  12.346  41.335  13.264
15155W        W87580  24.156  11.334  14.488
15156W        W87581  16.821  13.746   4.764
15157W        W87582  19.580  17.061  12.664
15158W        W87583  40.850  26.096  12.108
15159W        W87584  15.810   5.271  12.102
15160W        W87585  42.544  39.585  11.689
15161W        W87586  38.962  27.953  14.422
15162W        W87587   7.421  34.493   2.764
15163W        W87588  22.640  17.802  10.608
15164W        W87589  33.027  42.496   2.342
15165W        W87590  27.563  23.030   4.696
15166W        W87591   8.353   8.264  13.361
15167W        W87592  34.565  11.436   1.734
15168W        W87593   7.271  29.279   3.809
15169W        W87594  41.535   1.284   0.507
15170W        W87595  22.711  36.480   4.637
15171W        W87596  35.798  22.206   0.213
15172W        W87597  25.081  20.539   3.325
15173W        W87598  27.139   4.368  10.784
15174W        W87599  31.461   0.209  14.461
15175W        W87600  38.411  43.083  11.934
15176W        W87601  36.914  34.013  13.107
15177W        W87602  43.399   2.452   4.917
15178W        W87603  18.210  22.191   3.584
15179W        W87604  28.739   2.458  14.903
15180W        W87605  15.385  20.216   2.225
15181W        W87606  17.541  38.462   2.778
15182W        W87607  32.680  12.301   2.242
15183W        W87608  31.505  22.625  14.304
15184W        W87609  13.639  10.912  14.303
15185W        W87610  42.949  32.091  10.823
15186W        W87611  14.386  16.951   1.895
15187W        W87612  25.499  24.929  10.100
15188W        W87613  38.887   0.663   3.746
15189W        W87614  27.313  24.544   2.550
15190W        W87615   1.519  34.396   3.717
15191W        W87616  32.949  26.475   0.461
15192W        W87617  36.309   4.728   0.299
15193W        W87618  12.793  17.582   2.888
15194W        W87619   1.875  25.577   3.655
15195W        W87620  10.219  28.067   1.356
15196W        W87621   1.409  38.711   4.069
15197W        W87622   2.402  40.816   4.206
15198W        W87623  34.526   4.312   2.886
15199W        W87624  27.382  39.032   0.936
15200W        W87625  23.477  34.640   1.381
15201W        W87626  28.150  20.987   4.198
15202W        W87627  35.785  39.777  14.299
15203W        W87628  34.950  16.822  12.986
15204W        W87629  40.638  27.068  12.850
15205W        W87630  39.463  17.167   2.706
15206W        W87631  33.811  29.457   1.896
15207W        W87632  21.254  32.111  13.908
15208W        W87633  11.714  17.648   3.974
15209W        W87634  38.335  35.215   0.820
15210W        W87635  16.676   4.162   3.694
15211W        W87636  12.240   6.196   3.674
15212W        W87637  35.357  12.216   2.379
15213W        W87638   7.254  13.173   0.306
15214W        W87639  41.980  33.143   3.009
15215W        W87640  28.651   5.241  12.863
15216W        W87641  28.948   0.855  10.703
15217W        W87642  33.455  20.502  12.337
15218W        W87643  37.480   0.397  10.655
15219W        W87644  16.307   9.283  12.607
15220W        W87645  24.010  30.619  13.072
15221W        W87646  20.396   1.372   0.831
15222W        W87647  39.377  15.175  14.921
15223W        W87648   6.489  38.438   1.295
15224W        W87649  32.781  26.087   2.426
15225W        W87650   2.962  34.534   2.781
15226W        W87651  14.964  24.532  12.067
15227W        W87652   2.832  25.423  12.104
15228W        W87653   9.179  33.953   4.201
15229W        W87654  21.676   7.957  13.857
15230W        W87655   4.058  33.548  11.073
15231W        W87656   2.726  43.318  10.581
15232W        W87657  28.661  19.220   2.679
15233W        W87658   2.957  21.825  12.434
15234W        W87659  39.294   3.891   3.345
15235W        W87660  17.215  14.927  13.441
15236W        W87661  40.693   9.489   4.144
15237W        W87662  38.431  34.331  11.084
15238W        W87663  24.655  40.258   0.397
15239W        W87664   9.112   1.266  11.563
15240W        W87665  15.795   0.988  12.097
15241W        W87666  11.743   1.771  11.205
15242W        W87667   6.415  25.455  11.148
15243W        W87668  37.236  35.360   1.911
15244W        W87669  20.699  31.338   2.134
15245W        W87670  14.349  28.099  13.416
15246W        W87671  25.613  21.924  12.987
15247W        W87672  19.678  25.820   2.478
15248W        W87673  41.327  15.942  13.985
15249W        W87674  11.645   8.000   4.883
15250W        W87675  37.256  16.203  14.740
15251W        W87676  18.623  21.468   9.951
15252W        W87677  10.707  44.970   1.054
15253W        W87678  41.606  35.566   3.533
15254W        W87679  29.181   3.723   2.272
15255W        W87680  39.737  11.209  11.402
15256W        W87681  32.993   3.671   1.859
15257W        W87682  30.949  15.721   4.471
15258W        W87683  10.783  26.669  10.021
15259W        W87684  39.881  28.781  13.993
15260W        W87685  14.231  40.261   2.214
15261W        W87686   3.887  38.158   3.313
15262W        W87687   1.601  11.375   0.360
15263W        W87688  10.629  25.566  12.949
15264W        W87689  36.056  39.307  13.229
15265W        W87690  20.096  34.797  10.775
15266W        W87691  36.311  23.550   2.160
15267W        W87692  32.438   0.439   0.436
15268W        W87693  29.909  36.994   0.643
15269W        W87694  42.829  38.098   3.196
15270W        W87695  29.058  32.875   1.019
15271W        W87696  15.317  11.568  13.006
15272W        W87697  29.735   4.518   4.698
15273W        W87698  21.928  15.304   3.963
15274W        W87699  26.019  20.730  12.836
15275W        W87700  21.678   4.973   0.865
15276W        W87701  36.516  40.842   1.805
15277W        W87702  38.855  36.556  14.905
15278W        W87703  37.386  34.172   2.876
15279W        W87704  34.081  40.607   4.321
15280W        W87705  24.685  18.862   0.377
15281W        W87706  37.847  27.024  13.932
15282W        W87707  27.769  29.567  14.278
15283W        W87708  26.374  44.454   2.732
15284W        W87709  16.363  44.391  10.655
15285W        W87710   6.172   7.312   3.060
15286W        W87711  43.004  32.623   4.365
15287W        W87712  19.153  15.748  12.104
15288W        W87713   1.969  35.656   0.346
15289W        W87714  29.867  33.765   0.455
15290W        W87715  11.798  16.422  11.947
15291W        W87716   0.220  44.539  10.724
15292W        W87717   1.021  19.197  12.800
15293W        W87718  26.665  10.776   1.690
15294W        W87719  27.085   3.046  13.083
15295W        W87720  13.661  31.990  11.045
15296W        W87721  42.748  21.748  13.902
15297W        W87722  13.333  41.479  11.486
15298W        W87723  43.017   0.435  12.565
15299W        W87724  24.198  18.658   0.267
15300W        W87725  12.838  14.410   2.531
15301W        W87726  18.104  22.698   2.367
15302W        W87727  32.908  33.178   2.264
15303W        W87728  21.505  17.725   2.442
15304W        W87729  15.281  37.155   4.172
15305W        W87730  44.378  21.160  10.467
15306W        W87731  44.190  24.076  12.425
15307W        W87732  39.302  36.574   1.804
15308W        W87733  19.194  23.004   4.822
15309W        W87734  18.972  21.227   1.547
15310W        W87735  27.172  17.039  13.411
15311W        W87736  19.204  10.917  11.666
15312W        W87737  12.318   7.227  14.896
15313W        W87738  31.301   5.605  13.891
15314W        W87739  19.567   0.536   2.792
15315W        W87740  10.050  41.244   3.468
15316W        W87741   0.215  24.665   3.621
15317W        W87742  13.873  41.883   0.243
15318W        W87743  28.390  42.687   9.877
15319W        W87744  23.087  42.704  13.888
15320W        W87745   0.582  26.072   2.138
15321W        W87746  11.650  23.941   0.981
15322W        W87747  16.680   0.620  11.020
15323W        W87748   2.949  37.190  14.668
15324W        W87749  27.081  28.740  14.878
15325W        W87750  16.506  21.898  14.855
15326W        W87751  34.191  15.252  13.068
15327W        W87752  32.133  36.455   0.437
15328W        W87753  27.582  12.249   3.761
15329W        W87754   9.548  44.975  10.621
15330W        W87755   2.487  42.713  11.071
15331W        W87756  25.942   6.678   3.793
15332W        W87757   3.346  25.555   2.880
15333W        W87758   8.220  19.635  14.299
15334W        W87759  28.806  41.439  12.492
15335W        W87760  21.611   8.263  12.456
15336W        W87761  18.019   6.755   0.856
15337W        W87762   5.693   6.705  13.259
15338W        W87763  27.391  40.825   2.663
15339W        W87764  27.473  22.202  10.872
15340W        W87765   7.876  23.093   4.542
15341W        W87766   2.646   5.929  11.995
15342W        W87767  11.185  24.322   3.195
15343W        W87768   9.971  24.042  12.075
15344W        W87769  42.662  40.460  13.564
15345W        W87770   7.344  23.119  10.778
15346W        W87771  24.225  19.650   1.263
15347W        W87772  18.203  30.136  10.440
15348W        W87773  15.864  12.826  13.964
15349W        W87774  43.308  40.079  12.672
15350W        W87775  14.425  13.528  12.916
15351W        W87776  29.433   7.651  14.823
15352W        W87777  39.847  14.803   1.906
15353W        W87778  28.206  33.993  14.236
15354W        W87779  29.532  21.299   1.405
15355W        W87780  42.998  33.062  13.362
15356W        W87781  10.796   1.866  12.159
15357W        W87782  21.720  14.059   1.782
15358W        W87783  28.052  15.262   3.371
15359W        W87784  29.521  19.085  13.358
15360W        W87785  32.071  15.830  13.260
15361W        W87786  34.496  15.925  10.859
15362W        W87787  37.452  44.908   4.315
15363W        W87788  15.533  31.953   2.742
15364W        W87789  31.885   5.314  12.477
15365W        W87790  33.536  34.129  12.189
15366W        W87791  32.141   8.396  11.580
15367W        W87792  21.798  16.547   1.616
15368W        W87793  14.563  31.104  10.400
15369W        W87794  43.525   6.408  13.977
15370W        W87795  17.745  43.291   4.084
15371W        W87796   2.948   7.758  13.481
15372W        W87797  30.668   7.324   0.206
15373W        W87798  37.569  37.306  10.190
15374W        W87799  16.273  16.354  14.403
15375W        W87800   8.558  35.074  14.010
15376W        W87801  27.576  19.967  13.445
15377W        W87802  36.102  12.230   2.869
15378W        W87803  24.483  28.062  11.223
15379W        W87804   7.438   7.992   5.079
15380W        W87805  37.463  36.589   0.460
15381W        W87806  38.422   6.491  11.903
15382W        W87807  25.488  28.053  14.320
15383W        W87808   9.076   5.379  14.897
15384W        W87809  35.957  24.765   1.447
15385W        W87810  37.870  12.678   2.364
15386W        W87811  21.128  12.041   3.636
15387W        W87812  13.693  22.769  10.433
15388W        W87813  39.343   8.471  10.699
15389W        W87814   8.871   6.946   4.120
15390W        W87815  35.888  11.623   2.743
15391W        W87816  20.562  35.820  13.830
15392W        W87817  42.076  37.828   2.336
15393W        W87818  25.601  44.695   1.441
15394W        W87819   7.210  28.117  11.509
15395W        W87820  41.362   0.769   2.388
15396W        W87821  10.334  19.044   1.549
15397W        W87822  33.468  18.613   5.410
15398W        W87823   9.590  14.176  10.909
15399W        W87824  23.207  22.006  11.145
15400W        W87825   8.393  28.545  12.510
15401W        W87826   4.812   2.501   1.803
15402W        W87827  13.061  30.584  11.604
15403W        W87828  42.071   0.440  13.816
15404W        W87829  31.175   3.596   3.554
15405W        W87830   6.867  13.137   4.485
15406W        W87831  43.176  24.801  11.156
15407W        W87832  43.359  28.901   1.314
15408W        W87833  44.945  16.687   1.739
15409W        W87834   8.697  30.664   1.780
15410W        W87835  41.146  44.674  14.531
15411W        W87836  43.904  34.423  10.637
15412W        W87837  17.203  38.810  11.577
15413W        W87838   0.950  12.613   3.308
15414W        W87839  17.682  19.789   1.311
15415W        W87840  10.981   1.339   4.174
15416W        W87841  15.071   9.031   2.675
15417W        W87842  25.411  32.160   1.867
15418W        W87843  26.720   7.736   4.579
15419W        W87844  40.362  19.137  14.391
15420W        W87845  33.950  31.964  11.114
15421W        W87846  22.958  10.430   1.181
15422W        W87847   4.661  17.681  12.444
15423W        W87848   9.389  21.372  13.640
15424W        W87849  43.411  25.244  12.486
15425W        W87850  37.378  15.183  13.960
15426W        W87851  16.129  16.187  13.053
15427W        W87852  41.296  19.939   0.018
15428W        W87853  41.091  13.951   5.054
15429W        W87854  14.378  38.793  13.970
15430W        W87855  37.456  36.063   0.399
15431W        W87856  41.543  21.766  13.433
15432W        W87857   9.869  27.145  14.577
15433W        W87858   6.308  41.742  14.729
15434W        W87859  17.582  31.868  12.751
15435W        W87860  31.542   5.225   2.770
15436W        W87861   7.715   9.097  14.843
15437W        W87862  15.825   1.793  14.456
15438W        W87863   8.434  14.175   1.238
15439W        W87864  13.126  10.636   4.089
15440W        W87865  27.947  24.255  12.685
15441W        W87866   4.031   3.840   3.216
15442W        W87867  26.526   2.935  14.250
15443W        W87868   0.968  22.214   1.412
15444W        W87869  25.984   0.213   0.786
15445W        W87870  41.253  19.046  13.975
15446W        W87871  26.694  35.661   4.356
15447W        W87872  37.976  40.230   1.188
15448W        W87873  39.555  10.949  14.875
15449W        W87874   2.530   1.845   0.328
15450W        W87875  42.917  22.216   0.269
15451W        W87876  18.546   5.986  14.529
15452W        W87877  10.178   8.903  14.358
15453W        W87878  30.572  20.237  13.977
15454W        W87879  27.991   0.359  14.974
15455W        W87880  28.030  13.568  12.268
15456W        W87881  38.403  30.302   4.794
15457W        W87882   4.939  41.795  12.349
15458W        W87883  14.367  39.076   0.872
15459W        W87884  36.251  28.872   3.292
15460W        W87885  20.390  28.753   0.027
15461W        W87886  14.193  41.045  11.230
15462W        W87887   1.887  25.593   0.608
15463W        W87888  18.342  36.889  14.941
15464W        W87889  21.141  33.023   3.717
15465W        W87890  21.453  22.608  14.189
15466W        W87891  31.417  30.017   1.374
15467W        W87892  21.630  17.877  12.990
15468W        W87893  10.601  28.896   3.186
15469W        W87894  12.076  30.686   1.334
15470W        W87895  35.713   4.895  14.811
15471W        W87896  29.114   0.234   1.928
15472W        W87897  16.133  35.882  14.924
15473W        W87898  29.126  43.588   2.872
15474W        W87899   0.209  44.779  11.188
15475W        W87900   1.555  42.596  14.262
15476W        W87901  33.168   7.756   4.034
15477W        W87902  31.706  10.329   0.292
15478W        W87903   2.964  24.056  12.794
15479W        W87904   8.182  11.118   0.508
15480W        W87905  41.834  38.101  13.846
15481W        W87906   6.929  15.226   2.391
15482W        W87907  17.593  30.753  12.072
15483W        W87908  42.247  16.741   0.490
15484W        W87909  25.061  12.784   0.785
15485W        W87910  13.293  10.364  14.797
15486W        W87911  39.315  25.440  14.929
15487W        W87912  15.086  39.493  13.376
15488W        W87913  10.815  17.309   0.025
15489W        W87914  25.668  39.499  13.853
15490W        W87915  43.155   8.705   0.023
15491W        W87916   5.791   5.363   1.953
15492W        W87917  27.593  43.390  13.808
15493W        W87918   1.305  22.479  12.847
15494W        W87919  21.240   2.724   4.997
15495W        W87920  24.975  36.052   2.693
15496W        W87921  25.823  34.494   2.348
15497W        W87922  14.380  26.647   1.332
15498W        W87923   9.785   7.751  14.015
15499W        W87924  34.759  38.571   0.812
15500W        W87925  41.467  19.286   1.950
15501W        W87926   1.824  15.697   2.841
15502W        W87927  32.053  22.009  14.164
15503W        W87928   8.267  20.451   1.916
15504W        W87929  17.123  17.528   0.402
15505W        W87930  19.484   4.003  12.087
15506W        W87931  17.776   7.432  12.459
15507W        W87932  41.019   9.132   4.328
15508W        W87933  17.066  43.924  13.087
15509W        W87934  24.261  24.183  12.854
15510W        W87935  23.196  33.539   0.014
15511W        W87936  36.475  33.310  11.907
15512W        W87937  13.297  31.782  10.259
15513W        W87938   4.006  10.260   0.771
15514W        W87939  21.132  28.140   4.626
15515W        W87940  12.690   0.930  14.028
15516W        W87941  32.915   3.366  13.393
15517W        W87942  12.329  37.848   0.248
15518W        W87943   5.913  11.463   3.298
15519W        W87944  39.948  43.804   4.610
15520W        W87945  22.985  13.661   3.400
15521W        W87946  17.857  15.716  10.226
15522W        W87947  38.513  29.597  14.507
15523W        W87948   1.323  16.372   1.301
15524W        W87949  31.533  27.180   0.603
15525W        W87950  30.019   0.943  13.302
15526W        W87951  27.123  27.897   1.872
15527W        W87952   9.190  31.232   0.814
15528W        W87953  37.437  21.876  12.031
15529W        W87954  39.273  36.868   2.245
15530W        W87955  17.746   0.273   3.358
15531W        W87956  15.819  23.777   4.889
15532W        W87957  28.295   0.848   3.477
15533W        W87958   5.197  41.281   2.202
15534W        W87959  11.271   0.065  11.145
15535W        W87960  25.569  12.697   3.193
15536W        W87961  31.473  23.574  12.668
15537W        W87962  26.177  37.553   1.339
15538W        W87963  31.511   7.303  11.850
15539W        W87964  23.579  16.124   0.318
15540W        W87965  16.129   1.028   5.030
15541W        W87966  21.885   7.758  14.858
15542W        W87967  22.432  39.865   1.431
15543W        W87968  29.496  43.795   3.198
15544W        W87969   2.692   0.468  13.672
15545W        W87970   6.268   6.395   0.897
15546W        W87971   7.308  17.321   4.043
15547W        W87972  30.957  41.440   4.646
15548W        W87973   7.805   5.344  12.629
15549W        W87974  13.665   1.733   4.177
15550W        W87975  10.347  14.964   4.599
15551W        W87976  18.541  44.863   0.312
15552W        W87977   1.414   9.342  11.217
15553W        W87978  10.189  32.505   0.411
15554W        W87979  42.928  23.740   0.391
15555W        W87980  17.307   0.991  11.443
15556W        W87981  13.797  37.172   1.323
15557W        W87982  31.942   0.461   4.966
15558W        W87983  43.134  43.474   0.332
15559W        W87984  30.456   3.391  12.642
15560W        W87985  36.831  33.082   3.637
15561W        W87986  13.687  16.131  13.342
15562W        W87987  10.175  15.791   5.036
15563W        W87988   2.844  15.400  10.594
15564W        W87989  16.830  24.607  12.412
15565W        W87990  13.130  14.974  14.077
15566W        W87991  39.115  27.537  11.725
15567W        W87992   3.704  26.164   1.861
15568W        W87993  41.396  39.815  12.439
15569W        W87994  41.579   4.473   3.921
15570W        W87995   2.826  13.633  12.926
15571W        W87996  41.835   4.842   4.696
15572W        W87997  11.819  37.947   0.144
15573W        W87998  10.483  27.655   4.328
15574W        W87999   7.820  19.594   1.862
15575W        W88000  14.048   8.778   1.131
15576W        W88001   7.275  23.343  11.614
15577W        W88002  33.007  28.671   3.269
15578W        W88003  37.306  39.352  10.656
15579W        W88004  30.976  13.427   1.877
15580W        W88005  28.675  31.600  12.812
15581W        W88006  43.980  21.062  11.347
15582W        W88007  28.979  17.523  14.965
15583W        W88008  32.385  40.970  10.754
15584W        W88009   0.554  44.387  11.080
15585W        W88010  37.577   1.380   2.714
15586W        W88011  38.921  42.247   3.263
15587W        W88012  10.654  44.062   0.789
15588W        W88013  22.746  44.562  12.123
15589W        W88014  44.662  15.207   3.213
15590W        W88015  30.435   2.881  14.294
15591W        W88016  11.196  11.229   3.988
15592W        W88017   7.727  19.646  10.790
15593W        W88018  17.216  14.362  14.239
15594W        W88019  42.964  36.778  14.716
15595W        W88020  40.007  28.318   0.912
15596W        W88021   4.136  39.021  13.030
15597W        W88022  39.887  15.135   0.002
15598W        W88023  43.433  29.942   4.977
15599W        W88024  27.830  13.121   2.209
15600W        W88025   1.152  23.614   1.995
15601W        W88026  25.147  15.044  10.774
15602W        W88027  33.865  13.885   4.238
15603W        W88028  33.059  25.214  13.316
15604W        W88029  20.045  38.071   0.999
15605W        W88030   6.935   9.024   0.356
15606W        W88031  17.426  12.202   3.258
15607W        W88032  43.039  17.748   4.102
15608W        W88033   1.893  26.485  13.975
15609W        W88034  24.237   7.395   0.279
15610W        W88035  14.850  32.550  10.912
15611W        W88036  26.782  31.690   4.086
15612W        W88037   4.387  20.878   1.777
15613W        W88038  25.621  42.680  14.852
15614W        W88039  22.917  43.287  14.608
15615W        W88040  37.415  23.326   3.406
15616W        W88041  19.108  15.095  11.671
15617W        W88042   6.253  22.779  14.997
15618W        W88043  25.129  38.592   4.131
15619W        W88044  25.310  34.901   4.098
15620W        W88045  29.220  35.421  14.452
15621W        W88046  39.327  32.995   4.390
15622W        W88047  25.256  30.102  10.682
15623W        W88048  28.622  22.782  12.542
15624W        W88049  36.769   4.713   2.143
15625W        W88050  12.460  21.309  11.614
15626W        W88051  41.094  34.113   2.648
15627W        W88052  33.903  36.313  10.609
15628W        W88053  43.014  30.519  11.275
15629W        W88054  38.991  16.753   0.259
15630W        W88055  37.239  11.063  11.585
15631W        W88056  36.042  33.657   2.383
15632W        W88057  20.523  22.969   0.870
15633W        W88058  42.563   0.488  11.657
15634W        W88059  23.744  27.469   1.198
15635W        W88060   1.156  44.684   0.899
15636W        W88061  41.756  23.334  12.605
15637W        W88062   7.116  44.378  11.604
15638W        W88063  39.439  40.400   4.675
15639W        W88064  28.113  21.315   1.881
15640W        W88065  13.076  16.363  10.711
15641W        W88066   7.862  37.661   9.775
15642W        W88067   4.815   9.645   1.714
15643W        W88068   7.705   8.681  13.440
15644W        W88069  34.509  12.719  12.559
15645W        W88070   2.434  13.604  14.596
15646W        W88071   1.209  24.725  13.419
15647W        W88072  41.429  43.911   5.512
15648W        W88073  26.323   7.413   1.792
15649W        W88074  33.490   2.283   3.761
15650W        W88075  12.924  19.364   3.348
15651W        W88076  19.157   9.931  10.529
15652W        W88077  10.332  12.284   3.516
15653W        W88078  34.683   1.303  14.890
15654W        W88079  41.725  44.024  12.165
15655W        W88080  39.919  22.284  13.796
15656W        W88081  24.636  15.443   4.555
15657W        W88082  13.952  24.096   0.780
15658W        W88083  16.131  41.675   3.689
15659W        W88084   5.895   7.498   0.521
15660W        W88085   7.979  38.429   4.840
15661W        W88086  41.476   8.120  13.609
15662W        W88087  25.976  14.639  10.797
15663W        W88088  41.716  20.996  11.056
15664W        W88089  13.976  35.488   1.854
15665W        W88090   4.282  16.567  10.205
15666W        W88091  43.778   1.277  12.078
15667W        W88092   9.704  36.659   1.241
15668W        W88093  21.895  26.422  11.986
15669W        W88094  43.270  27.321  14.255
15670W        W88095  42.753  18.060  11.886
15671W        W88096  25.086  32.094   1.296
15672W        W88097  10.784   9.805  10.601
15673W        W88098  10.200  39.081   0.226
15674W        W88099  35.032  40.803  13.534
15675W        W88100  22.171  11.031   9.828
15676W        W88101  41.794  42.414   1.909
15677W        W88102  43.561   0.381  11.656
15678W        W88103   5.245   6.836  11.138
15679W        W88104  35.975  19.257  11.893
15680W        W88105   6.732  23.500  11.840
15681W        W88106  43.285  44.702   0.816
15682W        W88107  26.913   0.322  14.937
15683W        W88108  25.547   8.845   0.556
15684W        W88109  20.763  27.077  14.679
15685W        W88110  20.110  29.815  10.513
15686W        W88111  12.103  38.570  12.483
15687W        W88112  30.843  15.761  13.261
15688W        W88113   7.252  24.690  14.338
15689W        W88114   3.491  30.513  14.400
15690W        W88115  15.773  10.937   3.235
15691W        W88116  41.616   8.901   1.332
15692W        W88117  18.028  44.365   1.353
15693W        W88118  23.604  24.692  14.783
15694W        W88119  34.006  35.011   3.382
15695W        W88120  26.204   7.675  14.919
15696W        W88121  42.053  17.105   4.534
15697W        W88122  43.792  38.697  13.128
15698W        W88123  32.563  13.394  12.075
15699W        W88124  22.031  39.309   4.250
15700W        W88125  20.233  38.540  14.813
15701W        W88126  30.345  32.898  14.822
15702W        W88127   4.127  25.577  11.393
15703W        W88128  38.537  21.310   2.512
15704W        W88129  42.955  32.451   1.173
15705W        W88130   0.983  35.346   4.262
15706W        W88131  30.643  34.809  12.114
15707W        W88132   6.207   8.091  12.943
15708W        W88133  11.771  28.084  10.477
15709W        W88134  40.992  13.964   3.783
15710W        W88135  41.833   1.431   4.398
15711W        W88136  29.055  31.057  11.000
15712W        W88137  43.750  18.676   1.727
15713W        W88138  14.279  44.839  14.934
15714W        W88139   8.761  16.234   4.145
15715W        W88140  24.228  41.128   0.034
15716W        W88141   2.801  33.168  11.228
15717W        W88142   1.101   3.954  11.402
15718W        W88143   2.128  20.138  13.503
15719W        W88144   9.454  15.466   1.642
15720W        W88145  29.168  44.354   1.694
15721W        W88146  27.325  14.725  13.948
15722W        W88147  10.121  41.508  13.979
15723W        W88148   8.807   5.624   1.328
15724W        W88149  21.697  24.198  14.985
15725W        W88150  20.541  16.767   3.665
15726W        W88151  42.162   9.206  13.415
15727W        W88152  10.932   7.710   2.362
15728W        W88153  25.967  15.368  12.955
15729W        W88154  10.823  40.575   2.220
15730W        W88155  23.043   0.328   4.326
15731W        W88156  44.925   2.379  10.674
15732W        W88157  22.970  24.191   0.480
15733W        W88158  37.825  15.336  12.401
15734W        W88159  28.932   9.731   5.071
15735W        W88160  40.913  40.366   4.657
15736W        W88161   1.481  31.656   4.759
15737W        W88162  18.183   2.541   1.916
15738W        W88163   7.689  34.675   3.180
15739W        W88164   3.786  39.791   0.809
15740W        W88165  10.121  26.119   3.716
15741W        W88166  31.093  15.153   5.388
15742W        W88167  43.534  38.655   0.019
15743W        W88168  20.495   5.908   1.563
15744W        W88169  41.016  15.818   4.630
15745W        W88170  38.007  36.993   2.747
15746W        W88171  18.629  15.746  10.678
15747W        W88172  24.009  34.032  10.600
15748W        W88173  10.352  13.908   1.226
15749W        W88174  34.827   0.184   2.733
15750W        W88175  29.962  35.835  11.383
15751W        W88176  41.920  17.227   0.038
15752W        W88177  37.927  42.884   1.320
15753W        W88178  10.066  32.218   2.964
15754W        W88179  18.029  12.255  14.410
15755W        W88180   6.385  13.584   0.923
15756W        W88181   0.565   0.539  11.549
15757W        W88182  26.325  23.155   2.729
15758W        W88183  10.167  38.808   4.178
15759W        W88184  38.604  38.574   1.592
15760W        W88185  33.558   2.489  14.450
15761W        W88186  35.312  21.274  14.463
15762W        W88187  40.779   2.949  12.075
15763W        W88188  31.935   1.701   1.189
15764W        W88189  33.153  42.971   2.584
15765W        W88190  39.829   3.139   4.937
15766W        W88191  40.939  27.505  12.797
15767W        W88192   8.621  40.920  14.805
15768W        W88193  17.079   3.469   2.409
15769W        W88194  42.798  42.537   1.932
15770W        W88195  28.437   4.241   2.197
15771W        W88196  22.943  13.911  14.141
15772W        W88197  35.039  41.310  13.474
15773W        W88198   9.668  14.032  14.874
15774W        W88199  44.673  33.447  14.859
15775W        W88200  34.500  26.484   3.466
15776W        W88201   1.048  35.670  12.097
15777W        W88202  43.114   2.462   2.176
15778W        W88203   7.400  23.134  13.587
15779W        W88204  35.402   3.412   3.708
15780W        W88205  28.631  25.875  12.282
15781W        W88206   7.146  42.592  14.995
15782W        W88207  24.581  38.338  10.623
15783W        W88208  22.779  29.614   2.484
15784W        W88209  24.136  13.342   3.251
15785W        W88210  44.281   3.964  13.374
15786W        W88211  15.806  16.530  13.523
15787W        W88212  18.257  43.027   1.254
15788W        W88213  16.146  42.609   0.064
15789W        W88214  15.761   4.840   2.464
15790W        W88215  17.616  31.418  14.403
15791W        W88216  32.599  24.711  12.055
15792W        W88217   5.125  34.553   3.408
15793W        W88218  10.608  44.468  12.108
15794W        W88219   3.383  20.061  14.934
15795W        W88220  18.046  35.859   2.736
15796W        W88221  43.236   9.300   3.372
15797W        W88222  31.469  26.898   4.575
15798W        W88223  20.678  11.758  12.258
15799W        W88224  14.351  17.863   2.313
15800W        W88225  24.748   8.632  14.977
15801W        W88226  28.152   0.798  12.059
15802W        W88227  23.402  23.988  12.569
15803W        W88228  17.252   9.286  14.555
15804W        W88229   2.189   8.117  14.837
15805W        W88230  33.783  22.261   2.490
15806W        W88231  37.918  22.124  13.040
15807W        W88232   2.377  28.173   4.648
15808W        W88233   6.657   0.592   1.613
15809W        W88234  43.472  33.998   1.147
15810W        W88235  15.043  40.376   4.843
15811W        W88236  15.302  28.007   4.405
15812W        W88237  35.399  28.923   3.336
15813W        W88238  39.825  20.123   0.954
15814W        W88239  21.061  20.059   5.050
15815W        W88240   1.827  20.530  12.374
15816W        W88241  41.000  40.133   1.379
15817W        W88242  32.156  24.108  11.771
15818W        W88243   4.245  20.500   2.670
15819W        W88244  15.617  34.151  12.189
15820W        W88245   7.042  14.518  10.802
15821W        W88246  41.269  34.522   4.359
15822W        W88247  26.128  38.426   4.112
15823W        W88248  20.692  21.326  10.441
15824W        W88249  22.120   5.459   0.216
15825W        W88250  15.087  36.813   3.794
15826W        W88251  14.172  40.576   5.106
15827W        W88252  18.136  33.359   1.102
15828W        W88253  30.009  39.377  14.623
15829W        W88254  13.556   5.711  14.385
15830W        W88255  15.878  19.385  10.289
15831W        W88256  20.248  14.129   0.731
15832W        W88257   3.591  14.218   4.875
15833W        W88258   4.553  11.680   5.077
15834W        W88259  20.051  17.028  12.325
15835W        W88260  25.754  37.636   0.493
15836W        W88261   9.166  44.369   3.309
15837W        W88262  43.338  20.748   3.291
15838W        W88263  11.572  40.841   2.729
15839W        W88264  18.861  31.955   4.644
15840W        W88265  15.793  22.697  13.869
15841W        W88266   8.909  39.670   0.367
15842W        W88267  18.597  17.817   2.362
15843W        W88268   4.455  10.503   0.927
15844W        W88269  43.409  18.515   0.309
15845W        W88270  44.968  15.329  12.944
15846W        W88271  35.890   3.704   0.904
15847W        W88272  35.348  39.477   2.210
15848W        W88273  29.177  12.303   0.864
15849W        W88274  31.072  36.505   1.155
15850W        W88275  34.513  41.522  14.623
15851W        W88276  43.944  32.895  12.052
15852W        W88277  43.874  11.231  12.596
15853W        W88278  17.089  41.062   0.303
15854W        W88279  21.614  42.380   2.418
15855W        W88280  30.219  35.295   3.034
15856W        W88281  27.530  32.769  12.442
15857W        W88282  13.298  28.401   4.831
15858W        W88283   2.242  22.122  14.388
15859W        W88284  14.834   1.836  13.268
15860W        W88285  24.162   4.723  14.443
15861W        W88286  29.106  40.277  13.883
15862W        W88287  33.100  37.778  13.547
15863W        W88288  16.815  33.519   2.767
15864W        W88289  22.136  36.519   2.402
15865W        W88290  34.443  33.613  14.874
15866W        W88291  30.153  37.947  12.493
15867W        W88292  15.222   9.319   4.537
15868W        W88293  34.835  22.777  12.146
15869W        W88294   9.412   2.976  14.662
15870W        W88295  12.301   5.169  10.635
15871W        W88296  12.573  16.525  10.913
15872W        W88297   1.986  13.223   2.532
15873W        W88298  24.637  43.040   2.685
15874W        W88299  35.879  41.484  11.520
15875W        W88300  11.275   7.132   1.915
15876W        W88301   6.695  27.096  12.377
15877W        W88302  37.535  21.123  12.932
15878W        W88303  28.101  13.886   0.951
15879W        W88304   9.613   1.281  10.871
15880W        W88305  38.842  16.500   4.527
15881W        W88306  40.954  36.115   0.204
15882W        W88307  12.810  38.881  11.955
15883W        W88308  16.782   9.687  11.157
15884W        W88309   9.733  11.681  14.078
15885W        W88310  19.309  16.691   0.393
15886W        W88311  21.982  22.690  14.187
15887W        W88312  22.779  38.576  13.978
15888W        W88313  34.671  10.840   3.158
15889W        W88314  16.206  35.461   3.749
15890W        W88315  10.238  39.508  14.261
15891W        W88316  24.725  20.028  11.168
15892W        W88317   0.827   7.373  10.724
15893W        W88318  40.961   6.154  13.082
15894W        W88319  37.599  24.710  12.960
15895W        W88320  42.968  37.627   2.388
15896W        W88321  32.020  31.568   2.817
15897W        W88322  35.158  22.299   2.664
15898W        W88323  42.702  19.691   4.911
15899W        W88324  30.928  33.094   4.675
15900W        W88325   6.784  30.319  12.184
15901W        W88326  42.629  21.672  12.577
15902W        W88327  16.258   5.648   0.468
15903W        W88328  23.936  18.838   0.672
15904W        W88329  12.039  38.973  11.522
15905W        W88330  24.082  44.340   3.265
15906W        W88331   5.330  42.493  13.488
15907W        W88332   4.218  43.026  12.503
15908W        W88333  28.238  25.762   2.721
15909W        W88334  11.197   7.424  12.884
15910W        W88335  16.563  44.386   1.974
15911W        W88336  10.793  40.926   0.977
15912W        W88337  15.885  26.054   4.250
15913W        W88338  10.767  32.521   1.848
15914W        W88339  27.574  40.782   4.832
15915W        W88340  32.945  17.305   4.590
15916W        W88341  33.951   3.497   0.402
15917W        W88342  43.333  15.867   1.718
15918W        W88343  44.322  27.859   0.412
15919W        W88344  38.156  11.084  11.208
15920W        W88345  15.549   2.409   4.927
15921W        W88346  32.438  28.571  13.116
15922W        W88347   6.445  37.952   4.937
15923W        W88348  12.076  22.024  10.470
15924W        W88349  37.486   4.244   4.286
15925W        W88350   9.261  10.139   4.257
15926W        W88351  27.402   3.685  14.469
15927W        W88352  30.632  43.827  10.567
15928W        W88353  13.766  10.638  12.614
15929W        W88354  12.160  19.059  13.350
15930W        W88355  13.075  27.122  10.613
15931W        W88356  44.588  23.459   2.291
15932W        W88357  11.345  27.903  10.757
15933W        W88358  34.068  23.148  12.443
15934W        W88359  25.195  15.784  14.456
15935W        W88360  18.046  30.086   2.424
15936W        W88361  40.902  17.647  13.623
15937W        W88362  16.348  24.347   0.257
15938W        W88363  14.378  12.880   0.890
15939W        W88364  26.479  30.777   3.055
15940W        W88365  44.982  23.266  14.449
15941W        W88366   1.796  26.426  13.456
15942W        W88367  14.441   4.369   1.779
15943W        W88368  13.591   9.460  11.595
15944W        W88369  19.141  40.607   1.845
15945W        W88370  41.275  40.515  13.525
15946W        W88371  25.674  25.192  11.489
15947W        W88372  14.274  42.601   1.701
15948W        W88373  32.504  17.796   3.588
15949W        W88374  12.715  18.043   2.585
15950W        W88375  30.590  11.212   0.538
15951W        W88376  20.099   9.954  11.050
15952W        W88377  40.709  28.861   1.164
15953W        W88378  12.192  30.923   0.314
15954W        W88379  16.639  27.972  14.541
15955W        W88380   6.702  28.750  11.955
15956W        W88381   0.904  15.531  12.807
15957W        W88382  30.660  19.658  12.067
15958W        W88383   8.809  32.250  14.320
15959W        W88384  43.345   7.684  10.941
15960W        W88385   5.648   9.522   4.124
15961W        W88386  20.711  44.204   0.922
15962W        W88387   4.840  26.461  14.395
15963W        W88388  10.070   7.589  10.514
15964W        W88389  44.664  29.968   3.351
15965W        W88390  39.570  16.517   3.217
15966W        W88391  11.875   5.717  11.103
15967W        W88392   3.425  39.311   1.782
15968W        W88393   2.048   4.653  12.105
15969W        W88394  31.502  32.914   3.711
15970W        W88395  27.469  25.088   3.876
15971W        W88396  20.600  28.510  10.591
15972W        W88397  12.615  43.034   2.466
15973W        W88398  43.684  10.220   4.594
15974W        W88399  12.071  40.040   4.795
15975W        W88400  33.023  34.810   3.371
15976W        W88401   4.784  11.064  12.422
15977W        W88402   3.354  44.442  11.421
15978W        W88403  10.173  19.604   3.794
15979W        W88404  40.445  19.570   2.893
15980W        W88405  20.645  16.177  13.976
15981W        W88406  35.348   8.640  13.294
15982W        W88407  24.604  30.018   0.541
15983W        W88408  10.067  44.056  10.603
15984W        W88409  40.400   3.954  12.120
15985W        W88410  30.145   7.193   4.420
15986W        W88411  42.239  29.948   0.973
15987W        W88412  14.764  42.556  14.752
15988W        W88413   2.272  24.706   3.444
15989W        W88414  43.851  44.310   1.478
15990W        W88415   7.752   1.650  14.865
15991W        W88416  12.843  12.794   0.782
15992W        W88417  41.610   7.943   5.052
15993W        W88418  24.908  12.777  10.718
15994W        W88419  21.685  36.273   2.638
15995W        W88420  17.328   7.662  12.826
15996W        W88421  28.554  14.088   4.220
15997W        W88422  44.354  23.282  12.071
15998W        W88423   1.691   4.555   4.575
15999W        W88424  12.794  16.363  13.696
16000W        W88425  29.179  29.692   0.419
16001W        W88426  43.318  40.042  11.678
16002W        W88427  28.171  11.192  10.623
16003W        W88428  30.439  21.867  14.848
16004W        W88429  42.813   2.305  12.901
16005W        W88430  38.589  27.236   2.814
16006W        W88431  13.042  39.005  14.880
16007W        W88432   2.879  19.894  11.125
16008W        W88433  25.850  36.385   4.253
16009W        W88434   4.446  22.989   4.488
16010W        W88435   8.606  38.251  10.212
16011W        W88436  21.181  38.917   0.375
16012W        W88437  33.181  15.160  12.855
16013W        W88438   2.508  33.624  12.603
16014W        W88439  28.007  25.239   1.824
16015W        W88440   2.938  10.134  11.883
16016W        W88441  41.048  30.555   2.035
16017W        W88442  19.205   3.594   2.936
16018W        W88443  26.811   6.207   2.342
16019W        W88444   1.830  40.863   2.162
16020W        W88445   0.916   9.568   4.154
16021W        W88446  38.783  12.056   1.264
16022W        W88447  19.510  33.197   2.041
16023W        W88448  14.583  32.785   0.183
16024W        W88449   2.857  19.394  13.434
16025W        W88450  28.195  38.569  11.543
16026W        W88451   7.924  11.858   0.399
16027W        W88452  23.122  35.147  12.424
16028W        W88453  38.926  10.543   4.152
16029W        W88454  23.672  19.638  13.852
16030W        W88455  23.016  23.498  12.980
16031W        W88456   5.427  23.472   2.559
16032W        W88457  43.015   0.174  14.856
16033W        W88458  22.198  26.641   3.688
16034W        W88459  43.354   9.229   0.891
16035W        W88460  17.033  31.902  10.224
16036W        W88461  41.295  33.972  13.360
16037W        W88462  16.217  18.216   5.124
16038W        W88463  33.958  35.373   3.741
16039W        W88464  42.199  28.909  10.759
16040W        W88465  41.537  32.219   4.244
16041W        W88466  32.871  26.971  11.957
16042W        W88467  34.923  33.907   2.791
16043W        W88468  23.794  44.840  10.328
16044W        W88469  44.514  18.730  12.028
16045W        W88470  28.544  36.013   4.723
16046W        W88471  15.049  33.554   0.647
16047W        W88472  44.425   0.045   4.574
16048W        W88473  10.618  24.335  12.301
16049W        W88474  31.481  36.657  13.858
16050W        W88475   0.579   3.377   3.699
16051W        W88476  29.858   3.887   0.411
16052W        W88477  40.885  25.076   2.967
16053W        W88478  36.641  32.835  14.338
16054W        W88479  38.002   5.634   2.148
16055W        W88480  21.049  29.209   1.289
16056W        W88481  34.318  21.057   2.800
16057W        W88482  12.074   7.895   2.816
16058W        W88483  23.473  30.948   2.266
16059W        W88484  26.941  42.026   2.275
16060W        W88485  41.400  35.919   2.533
16061W        W88486  40.669  19.831   3.323
16062W        W88487  37.892  34.494   0.434
16063W        W88488  27.987  29.486  14.868
16064W        W88489  26.558  19.302  13.402
16065W        W88490  25.145  13.103   2.723
16066W        W88491   0.035   6.583  11.106
16067W        W88492  20.644   7.399  12.033
16068W        W88493  12.071  38.832   0.413
16069W        W88494  30.379  41.154  13.663
16070W        W88495  33.510  36.904   4.812
16071W        W88496  36.064   9.267  14.891
16072W        W88497   0.516  25.664   2.944
16073W        W88498  38.820   2.320   4.193
16074W        W88499   1.554  24.604   0.544
16075W        W88500  40.081  13.236  14.524
16076W        W88501  17.132  29.970   2.619
16077W        W88502  18.713  19.062   1.131
16078W        W88503  11.837   8.801   1.299
16079W        W88504  17.249  32.845   1.887
16080W        W88505  36.975   3.789  11.125
16081W        W88506  20.747  36.119  14.479
16082W        W88507  22.104  21.250  11.573
16083W        W88508   9.617  33.670   4.060
16084W        W88509  23.514  29.128   3.571
16085W        W88510  19.676   7.253  14.741
16086W        W88511   2.949  42.969   4.611
16087W        W88512  38.830  42.713   1.223
16088W        W88513   8.030  18.388  13.885
16089W        W88514  24.102  22.410   3.844
16090W        W88515   0.944  26.725  12.423
16091W        W88516  10.133  39.799   0.758
16092W        W88517   4.731   5.383   1.785
16093W        W88518  41.837  39.345  14.499
16094W        W88519  13.654  36.950   2.352
16095W        W88520  37.476  36.104   9.869
16096W        W88521  36.635  34.265  14.910
16097W        W88522  17.220  19.988   4.511
16098W        W88523  10.812  15.586   1.828
16099W        W88524  17.246  38.617   1.921
16100W        W88525   8.234  12.871  14.438
16101W        W88526  27.023  22.092  12.677
16102W        W88527  40.431   0.553   4.445
16103W        W88528  40.407   6.267   0.863
16104W        W88529   2.932  41.392  14.844
16105W        W88530   7.368   2.216   1.486
16106W        W88531   6.623  19.253   4.681
16107W        W88532  14.419  10.170   1.445
16108W        W88533  18.315   7.268   1.908
16109W        W88534  33.545   2.399  11.922
16110W        W88535  42.992  23.010   4.451
16111W        W88536  24.203   0.357   4.738
16112W        W88537  33.769  38.213   0.991
16113W        W88538  17.114  29.125  13.404
16114W        W88539  28.178  33.224   0.884
16115W        W88540  26.969  30.153   4.459
16116W        W88541  15.367  23.571   1.900
16117W        W88542   9.781  44.711   0.781
16118W        W88543   8.435  18.304  10.589
16119W        W88544   8.295  38.582  11.961
16120W        W88545  41.126   5.113   2.099
16121W        W88546  43.238  27.996   1.876
16122W        W88547  25.505  39.903  13.568
16123W        W88548   8.239  28.785  11.089
16124W        W88549  34.676   1.864  12.252
16125W        W88550  18.999  42.987   3.628
16126W        W88551  42.105  28.937  12.503
16127W        W88552  41.569   3.356  13.749
16128W        W88553  32.087  15.770   1.165
16129W        W88554  30.870  13.725  10.750
16130W        W88555   0.935  42.568   0.751
16131W        W88556   9.303  25.204  11.946
16132W        W88557   0.820   6.476   3.042
16133W        W88558  26.572  42.735  12.915
16134W        W88559   8.698  32.432  11.612
16135W        W88560  22.087  39.984   0.008
16136W        W88561  18.630  32.172   3.231
16137W        W88562   0.823   2.326  11.939
16138W        W88563  22.429   8.304   1.518
16139W        W88564  29.861  32.768  14.795
16140W        W88565  24.963  17.435   0.293
16141W        W88566  44.890  16.725   4.484
16142W        W88567  11.488   1.440   4.009
16143W        W88568  37.463  12.911  12.535
16144W        W88569  30.878  15.284  14.763
16145W        W88570  30.697  30.014   2.175
16146W        W88571  11.662   7.588   2.777
16147W        W88572   9.809  40.514   4.703
16148W        W88573  42.331  28.058   1.618
16149W        W88574   2.353  39.008   3.673
16150W        W88575  42.019  28.605   2.181
16151W        W88576  14.159  37.277   0.095
16152W        W88577  20.760   5.094  10.673
16153W        W88578  22.091  42.197  13.988
16154W        W88579  38.638  27.196  11.928
16155W        W88580   3.969   0.787   3.257
16156W        W88581  39.784  38.406   3.147
16157W        W88582  21.730   4.496  10.882
16158W        W88583  41.962  19.648   1.156
16159W        W88584   4.259   2.207  14.003
16160W        W88585   0.468  26.397   2.516
16161W        W88586  40.536  39.017  13.106
16162W        W88587  21.146  26.870   2.245
16163W        W88588  38.238   9.266   4.606
16164W        W88589  41.900  15.050   3.753
16165W        W88590  37.884  40.419  10.990
16166W        W88591  22.624  38.811   3.906
16167W        W88592  16.624  15.557  14.337
16168W        W88593   1.970  23.511  10.959
16169W        W88594  19.331   5.168  13.849
16170W        W88595   9.787   2.539  11.222
16171W        W88596  31.499  42.788   2.277
16172W        W88597   8.288  33.716  13.519
16173W        W88598  32.385  26.839  12.085
16174W        W88599   7.344  21.243   0.232
16175W        W88600  26.617   4.270   4.523
16176W        W88601  26.123  34.860  11.074
16177W        W88602  32.405  19.774  12.783
16178W        W88603  26.709  36.455  13.317
16179W        W88604  40.088   5.268   1.693
16180W        W88605  42.819  19.156  13.808
16181W        W88606  22.992  33.884  13.892
16182W        W88607   3.388   4.431   4.105
16183W        W88608  24.834  17.136  14.386
16184W        W88609  43.561   9.566  14.459
16185W        W88610   5.712   5.822  13.609
16186W        W88611  36.894  19.702   4.088
16187W        W88612  23.930  35.936   5.008
16188W        W88613  20.193   4.673   3.722
16189W        W88614  22.212  24.726   1.450
16190W        W88615  37.435  36.956   3.877
16191W        W88616  37.401   9.280  11.177
16192W        W88617   1.801  25.610   1.109
16193W        W88618  27.177  37.130  13.583
16194W        W88619   6.902  21.074   3.663
16195W        W88620  23.155  30.771  14.418
16196W        W88621   1.907  18.278  13.311
16197W        W88622  11.125  29.029  14.931
16198W        W88623  13.284  26.629  10.628
16199W        W88624  10.199  13.562  14.304
16200W        W88625  11.650   2.839   1.641
16201W        W88626  31.130  12.852  10.153
16202W        W88627  39.889  42.289   4.161
16203W        W88628  32.206  12.177   2.099
16204W        W88629   0.154  30.869  12.107
16205W        W88630  28.013  10.192  14.827
16206W        W88631  16.553  14.231  10.750
16207W        W88632  40.886  11.451   0.023
16208W        W88633  18.130  44.956  13.591
16209W        W88634   1.411  39.866  12.047
16210W        W88635  24.918  29.783  13.845
16211W        W88636  33.639  33.060  12.935
16212W        W88637  21.242   7.717  10.885
16213W        W88638  39.242  16.132   0.083
16214W        W88639  36.816  41.784   2.149
16215W        W88640  40.247  12.111   1.278
16216W        W88641  29.169  22.643   4.176
16217W        W88642  27.568  14.163   3.055
16218W        W88643  11.130  27.074   4.173
16219W        W88644  22.172   0.988   2.605
16220W        W88645  21.836  22.156   0.073
16221W        W88646   2.543   0.555   4.282
16222W        W88647  14.218  10.927   3.799
16223W        W88648  37.323  32.360   2.147
16224W        W88649  28.495  22.608   4.820
16225W        W88650  15.640   9.702   3.619
16226W        W88651  19.133   4.597  11.579
16227W        W88652  37.134  35.073   4.228
16228W        W88653  16.388   2.441   1.804
16229W        W88654  43.470   5.192  10.967
16230W        W88655   3.354  13.747  10.682
16231W        W88656  25.908  19.828  10.767
16232W        W88657  31.972  34.156   4.302
16233W        W88658  14.913  33.488   2.111
16234W        W88659  25.938  17.219   0.070
16235W        W88660  43.371  36.987  14.944
16236W        W88661  43.928  36.538  12.385
16237W        W88662   7.718  11.489   2.450
16238W        W88663   2.275  38.943  12.164
16239W        W88664   0.316  29.390   2.383
16240W        W88665  28.737  28.268   4.162
16241W        W88666  29.985  38.396   3.745
16242W        W88667  24.255   5.448  10.856
16243W        W88668   0.971  10.693  10.453
16244W        W88669  25.670   6.173   5.096
16245W        W88670  16.627  38.590  10.612
16246W        W88671  15.496   7.290   1.779
16247W        W88672  18.822  43.586  11.854
16248W        W88673  42.934   7.764   1.156
16249W        W88674  26.536  34.682   4.114
16250W        W88675  40.861   1.807  10.601
16251W        W88676  18.513  38.508  10.812
16252W        W88677   5.415  33.349  13.982
16253W        W88678  10.738  28.947   2.697
16254W        W88679  41.484  32.032   2.394
16255W        W88680  15.596  39.889   0.915
16256W        W88681  42.765   8.402   2.804
16257W        W88682  22.815   2.987   0.766
16258W        W88683   2.776  27.710  14.787
16259W        W88684  42.208  12.766   1.658
16260W        W88685  32.365  44.391   4.497
16261W        W88686  11.738  20.216  14.925
16262W        W88687  41.374   3.487   3.917
16263W        W88688  41.510  19.245  13.587
16264W        W88689  10.841  11.766  14.286
16265W        W88690  27.740  36.815   4.285
16266W        W88691  38.991   2.501  10.113
16267W        W88692   2.951   0.549  14.105
16268W        W88693  20.229  31.189  10.400
16269W        W88694  26.167  10.985   1.374
16270W        W88695  10.257  26.433   1.782
16271W        W88696  21.490  23.282   3.296
16272W        W88697  12.447   5.660  11.512
16273W        W88698  40.488   5.200  11.678
16274W        W88699   6.994  43.103   2.990
16275W        W88700  11.167  30.198   3.950
16276W        W88701   1.728  23.055  11.617
16277W        W88702  28.379  33.437  10.212
16278W        W88703  18.868   5.419   2.722
16279W        W88704  36.240  37.357   2.156
16280W        W88705  31.615  12.288  13.193
16281W        W88706  39.323  33.037  14.991
16282W        W88707  14.314  11.880   4.675
16283W        W88708  18.271  18.779   0.413
16284W        W88709  23.112   8.104   0.312
16285W        W88710   1.995  12.199  12.122
16286W        W88711  31.525  27.510  12.853
16287W        W88712  34.460   5.358   2.484
16288W        W88713   6.868  18.099  12.146
16289W        W88714  40.365   9.669   0.725
16290W        W88715  41.935  34.438   2.826
16291W        W88716  11.767  39.000  14.406
16292W        W88717  27.378   2.938  14.949
16293W        W88718  40.702  44.104   5.059
16294W        W88719  19.015  13.718  12.993
16295W        W88720  38.339  39.424  11.509
16296W        W88721  12.798  39.776  12.434
16297W        W88722  23.228   2.856   1.047
16298W        W88723  13.142  18.563  10.800
16299W        W88724  28.145  27.625  13.116
16300W        W88725  20.623  35.105   3.921
16301W        W88726  44.363  39.731  12.356
16302W        W88727  35.870  19.792   0.539
16303W        W88728  20.434  10.327   3.697
16304W        W88729  10.566   8.317  10.623
16305W        W88730  24.471  19.449  11.838
16306W        W88731  13.100  29.603  10.651
16307W        W88732  43.105  30.908   2.962
16308W        W88733  42.204  39.321  13.323
16309W        W88734   6.094  17.828   3.876
16310W        W88735  18.782  36.134   4.765
16311W        W88736  37.504   4.775   0.828
16312W        W88737   7.166   0.179  10.724
16313W        W88738  14.784  34.644   3.935
16314W        W88739  40.094  23.525  11.927
16315W        W88740  38.863   3.858   4.261
16316W        W88741   3.014  20.938  14.922
16317W        W88742   5.313  14.407  12.067
16318W        W88743  35.949  19.566   3.136
16319W        W88744   5.039  25.261   1.620
16320W        W88745  15.629  37.930   1.339
16321W        W88746  14.289   5.761  10.803
16322W        W88747  40.349  34.814  10.763
16323W        W88748   3.242  13.295   1.249
16324W        W88749  38.290  17.919   2.817
16325W        W88750  10.824  42.827  12.532
16326W        W88751  16.469  20.286  12.393
16327W        W88752   6.104  14.654  13.751
16328W        W88753   1.772  39.988  13.768
16329W        W88754  36.379   3.154   3.648
16330W        W88755  42.852  21.516  11.108
16331W        W88756  24.245  29.984   3.618
16332W        W88757  15.851  14.577   2.008
16333W        W88758  26.152  17.538   3.624
16334W        W88759  12.082  43.359   4.528
16335W        W88760  11.892  18.612  13.322
16336W        W88761  20.458   2.016  14.897
16337W        W88762  31.374  15.266   4.961
16338W        W88763  30.179  32.656   5.090
16339W        W88764  18.676  13.369   2.275
16340W        W88765  11.925   0.456  11.561
16341W        W88766  39.976  27.200   1.811
16342W        W88767  28.687  18.795  11.523
16343W        W88768   8.713  18.238   4.792
16344W        W88769  10.330   1.963   3.578
16345W        W88770  20.746  23.148   4.652
16346W        W88771  32.839  26.887  14.498
16347W        W88772  38.145  23.991  13.913
16348W        W88773  18.645  27.115  13.483
16349W        W88774  38.304  39.983   0.773
16350W        W88775  29.090  26.978  14.958
16351W        W88776  10.264  25.620   0.392
16352W        W88777  41.999  16.801  10.666
16353W        W88778  30.161   9.454  12.199
16354W        W88779  40.841  38.464  14.063
16355W        W88780  17.023  27.491   4.419
16356W        W88781  28.469  32.580  11.194
16357W        W88782  41.377  30.661  14.808
16358W        W88783  29.909  30.659  10.599
16359W        W88784  41.611   7.286  10.653
16360W        W88785   1.038  26.594  11.482
16361W        W88786  33.210   2.210   3.144
16362W        W88787   9.550  19.102  14.826
16363W        W88788  19.100  12.819  10.650
16364W        W88789  21.175  23.596  11.372
16365W        W88790   2.789   2.460  14.354
16366W        W88791  38.347  30.988   4.499
16367W        W88792  38.294  29.187   5.028
16368W        W88793   1.959  41.882   1.844
16369W        W88794  22.223  27.925  14.713
16370W        W88795   4.926  26.997   1.917
16371W        W88796  39.962  16.267  10.496
16372W        W88797  12.741   6.348  10.990
16373W        W88798   1.434  41.425  14.050
16374W        W88799  36.629  39.295  14.353
16375W        W88800  37.908   5.942  14.785
16376W        W88801  23.186  40.629  13.865
16377W        W88802  26.595  32.515   5.147
16378W        W88803  43.531  27.241  12.388
16379W        W88804  15.674  41.361   3.144
16380W        W88805   1.199  26.653  12.885
16381W        W88806  34.666  16.998   2.492
16382W        W88807  16.259  18.729  11.944
16383W        W88808  44.221  28.173   0.826
16384W        W88809   7.182   9.617   2.724
16385W        W88810  43.913  29.129   2.802
16386W        W88811  32.061  35.069   4.249
16387W        W88812  24.612  35.292   4.672
16388W        W88813  33.534  21.735   2.256
16389W        W88814  10.626  15.283  12.099
16390W        W88815   2.396   2.526  12.975
16391W        W88816   1.415  35.573   4.101
16392W        W88817  26.956  36.441  11.512
16393W        W88818  38.522  13.123   1.231
16394W        W88819  31.450   1.644   1.407
16395W        W88820  35.966  39.607   2.647
16396W        W88821  18.779  13.211   4.043
16397W        W88822  17.674  25.447   1.718
16398W        W88823  42.875   3.836   3.670
16399W        W88824   4.680  18.246   4.855
16400W        W88825  35.625  28.746  10.745
16401W        W88826  12.186  35.416  11.800
16402W        W88827  22.450   9.379   1.412
16403W        W88828  11.171  19.400  10.653
16404W        W88829  22.212   4.463   0.228
16405W        W88830  32.901  19.551  10.575
16406W        W88831  17.644  16.316   3.746
16407W        W88832  20.706  31.376  11.101
16408W        W88833  19.130  17.535   3.718
16409W        W88834  33.690  20.149  13.549
16410W        W88835  40.192  14.151   0.366
16411W        W88836  13.759  34.265   3.345
16412W        W88837  15.010  12.778  12.457
16413W        W88838   0.184  19.572  11.920
16414W        W88839  25.029   2.136   3.483
16415W        W88840  33.121  17.707  13.710
16416W        W88841  19.144  38.050   3.398
16417W        W88842  26.812  25.151  13.585
16418W        W88843  43.397  34.928  13.598
16419W        W88844  13.600  23.687   2.544
16420W        W88845  42.592  34.980   4.596
16421W        W88846   7.583  20.724   4.191
16422W        W88847  25.163  41.810   0.234
16423W        W88848  43.153   3.993   1.472
16424W        W88849  35.398   4.427  11.938
16425W        W88850  10.091  43.082  10.327
16426W        W88851   9.119  44.849  13.021
16427W        W88852  31.871  10.074  11.014
16428W        W88853  20.780  39.844   3.153
16429W        W88854  12.144  32.469  10.701
16430W        W88855  16.027  30.100  13.021
16431W        W88856  31.726  34.427  14.859
16432W        W88857  22.095  23.540   3.243
16433W        W88858  41.460  25.212   0.710
16434W        W88859  44.768  16.938  13.891
16435W        W88860  20.570   0.520  11.626
16436W        W88861  29.739  42.261   1.839
16437W        W88862  21.511  25.780   3.301
16438W        W88863  18.136  16.716   1.829
16439W        W88864  38.524   4.174  14.888
16440W        W88865  39.342  11.291   1.660
16441W        W88866  14.770  13.361  10.735
16442W        W88867  21.176  19.621  11.250
16443W        W88868  11.694  32.018  11.098
16444W        W88869  32.331  42.593   4.145
16445W        W88870   2.277  31.314  11.970
16446W        W88871  35.413  21.716   4.575
16447W        W88872  40.491  34.519  14.419
16448W        W88873  18.954  21.123   4.130
16449W        W88874  22.731  31.332  14.777
16450W        W88875  36.398   2.400   4.751
16451W        W88876   2.864  35.449   2.259
16452W        W88877  25.720  44.160   1.385
16453W        W88878  19.241   1.329  14.419
16454W        W88879  24.936  20.806  13.596
16455W        W88880   4.197  10.820  12.920
16456W        W88881   1.329  11.677   1.742
16457W        W88882  32.124  12.171   2.731
16458W        W88883  26.467  37.450   1.799
16459W        W88884  40.210   1.192  10.499
16460W        W88885  24.539  13.677   3.257
16461W        W88886  22.217  42.513  12.496
16462W        W88887   6.206  40.280   0.069
16463W        W88888   4.497   7.699   4.291
16464W        W88889  25.942  19.806   2.646
16465W        W88890  43.380  27.981   1.348
16466W        W88891  15.523   7.180  12.071
16467W        W88892  44.340  14.670  13.516
16468W        W88893  20.251  44.946   4.028
16469W        W88894  11.825  26.602  14.967
16470W        W88895  44.239  22.997   3.691
16471W        W88896  41.339  20.321  13.800
16472W        W88897   6.190  26.167  11.606
16473W        W88898  10.338  33.128  14.216
16474W        W88899  15.100  31.474  11.166
16475W        W88900  16.632   1.818   3.346
16476W        W88901  16.547  20.005   1.515
16477W        W88902  23.131  23.676   4.519
16478W        W88903  24.780  33.706   1.843
16479W        W88904   3.285  19.968   3.761
16480W        W88905   9.882   3.429  14.070
16481W        W88906   7.640  15.945   2.255
16482W        W88907  13.646  18.108  11.473
16483W        W88908  26.298  25.673   4.568
16484W        W88909  31.672  18.154   3.331
16485W        W88910  44.858  22.686   0.419
16486W        W88911  33.503  39.042  10.222
16487W        W88912  11.597  12.100   0.583
16488W        W88913  15.663  21.705  12.874
16489W        W88914   3.941   0.877   4.173
16490W        W88915   0.278  40.489  14.858
16491W        W88916  10.339  32.087   0.693
16492W        W88917  27.548  12.072  11.640
16493W        W88918  39.433  42.551   3.296
16494W        W88919  39.045   1.263  13.450
16495W        W88920  28.983  31.423   4.638
16496W        W88921  44.467  24.962  10.265
16497W        W88922  41.659  14.349  11.116
16498W        W88923  38.106  17.224  10.997
16499W        W88924  33.846  43.170  11.524
16500W        W88925  37.041   3.047  14.568
16501W        W88926   3.053  44.686  13.061
16502W        W88927  44.912   1.872   3.265
16503W        W88928  11.323  23.158  10.654
16504W        W88929  34.483  34.939   2.088
16505W        W88930  16.831  27.904  11.519
16506W        W88931  20.284  14.427   2.174
16507W        W88932  13.031   7.128   3.613
16508W        W88933  11.320  22.423  14.245
16509W        W88934  17.179  31.503   2.901
16510W        W88935  31.223   1.306  13.371
16511W        W88936   9.558  33.897  13.878
16512W        W88937  14.034  37.062  13.281
16513W        W88938  44.263  22.538  14.408
16514W        W88939   4.278   1.439  11.908
16515W        W88940  11.610   4.849  10.788
16516W        W88941  35.420  31.019   4.556
16517W        W88942  34.865  44.840   0.428
16518W        W88943  22.303  18.553   1.398
16519W        W88944  37.542  21.204   0.933
16520W        W88945   0.960  13.379   3.834
16521W        W88946  37.491   1.554  14.460
16522W        W88947  33.682  20.983   1.794
16523W        W88948  23.332  13.604   2.996
16524W        W88949  44.288  22.244   4.211
16525W        W88950  10.727  30.189   1.789
16526W        W88951  36.130  35.830   3.942
16527W        W88952  42.943  17.171   1.785
16528W        W88953  21.587  31.214   2.612
16529W        W88954  32.924  24.203  12.885
16530W        W88955  34.305   7.218  10.519
16531W        W88956   4.088  41.455  11.095
16532W        W88957   5.801  21.047   1.401
16533W        W88958   3.204  44.363  11.927
16534W        W88959  38.824  26.002   3.605
16535W        W88960  22.045  35.631  12.939
16536W        W88961  11.354  22.397   2.211
16537W        W88962   8.686  18.057  14.035
16538W        W88963  31.913   6.481   4.226
16539W        W88964   3.215  10.503   1.407
16540W        W88965  37.701  24.154   5.074
16541W        W88966  28.574  14.371   4.688
16542W        W88967  12.706  31.598  13.968
16543W        W88968  42.331  20.195  12.395
16544W        W88969  42.151  11.726  13.943
16545W        W88970   3.358  13.362  13.991
16546W        W88971  40.377   3.058   2.452
16547W        W88972  10.610  13.677   3.576
16548W        W88973  37.052  32.528   3.618
16549W        W88974  25.341  25.887   0.404
16550W        W88975  22.453   0.145   0.300
16551W        W88976   0.753  32.660  11.975
16552W        W88977  14.751  18.264  10.524
16553W        W88978  12.825   3.733  10.808
16554W        W88979  14.842   3.888   3.402
16555W        W88980  36.001  42.966  13.968
16556W        W88981  35.362   6.624   0.971
16557W        W88982  33.047  12.307   4.128
16558W        W88983  39.332  23.601   2.321
16559W        W88984  29.871   7.241   2.252
16560W        W88985  22.229   6.493  14.405
16561W        W88986  19.748   2.745   2.123
16562W        W88987   9.713   6.736   1.720
16563W        W88988  11.838  29.076   1.474
16564W        W88989  25.425  34.545   2.028
16565W        W88990  40.973  30.090   0.270
16566W        W88991  41.072  28.698   4.219
16567W        W88992  20.498  36.060   2.704
16568W        W88993  41.629   7.899  14.860
16569W        W88994  36.415  39.957   2.254
16570W        W88995  34.192   3.124  13.952
16571W        W88996  24.742  10.669  14.853
16572W        W88997   8.379   4.178  13.870
16573W        W88998  14.189  33.976   3.194
16574W        W88999  42.052   3.393  12.864
16575W        W89000  18.619  44.993  13.899
16576W        W89001  37.304   9.849  12.145
16577W        W89002  10.692  22.242   1.852
16578W        W89003  43.298  24.483   3.930
16579W        W89004  27.572   2.228   3.453
16580W        W89005   4.728  44.342  11.992
16581W        W89006  34.140  34.591  13.478
16582W        W89007  43.890  38.276  14.998
16583W        W89008  35.277  28.682   3.780
16584W        W89009  13.855  11.307  11.447
16585W        W89010  11.850  43.675  11.138
16586W        W89011  39.109  39.565  10.991
16587W        W89012  28.187  23.290  14.166
16588W        W89013  32.191  24.044   0.962
16589W        W89014   2.013  42.407  13.520
16590W        W89015  25.754  11.812   0.413
16591W        W89016  12.154   3.471  11.421
16592W        W89017  35.590  12.098   1.929
16593W        W89018  26.655   4.501   4.054
16594W        W89019  20.579  12.336  14.508
16595W        W89020  42.339   8.628   3.796
16596W        W89021  18.645  14.322  10.691
16597W        W89022  15.262   5.736  14.065
16598W        W89023  35.441  28.905   4.231
16599W        W89024  41.350   4.284   1.144
16600W        W89025  35.109  12.807  10.832
16601W        W89026  34.713   1.456   0.928
16602W        W89027  23.804  15.899  10.989
16603W        W89028  33.558  17.297  12.478
16604W        W89029  35.492   7.574  11.208
16605W        W89030  18.128  24.744  12.132
16606W        W89031  22.208  10.737   1.514
16607W        W89032  28.088  36.646  13.303
16608W        W89033  25.441  15.814  13.973
16609W        W89034   7.869  27.943  14.799
16610W        W89035  24.615  24.641   3.721
16611W        W89036  23.293  23.102  11.624
16612W        W89037  24.414   6.870  12.999
16613W        W89038  44.660   6.949  11.057
16614W        W89039  29.219  41.849  12.061
16615W        W89040  19.552  22.171  12.385
16616W        W89041   5.708  35.101  12.032
16617W        W89042  37.321  30.121   1.939
16618W        W89043  20.498  43.874   1.276
16619W        W89044  26.928   6.236   0.325
16620W        W89045  29.594  28.070   4.492
16621W        W89046  29.077  38.805   3.559
16622W        W89047  26.317  23.016   3.251
16623W        W89048  28.138  22.584  11.148
16624W        W89049   3.649  35.369   4.211
16625W        W89050   1.663  24.830   4.017
16626W        W89051  27.280  12.653   3.947
16627W        W89052  38.576  22.980  12.787
16628W        W89053   1.811  26.138   0.708
16629W        W89054  44.478  24.347  12.084
16630W        W89055  14.295  28.151  12.046
16631W        W89056  22.608   0.233  12.969
16632W        W89057  17.900  11.929  12.022
16633W        W89058  19.846  40.908  13.665
16634W        W89059   5.124  12.204   4.084
16635W        W89060  34.137   0.679   3.707
16636W        W89061  29.136  22.757  12.490
16637W        W89062  40.283  24.058  13.561
16638W        W89063  40.252  10.991   3.597
16639W        W89064  11.712  14.250   4.610
16640W        W89065   2.454  18.607   2.689
16641W        W89066  25.568   8.328   1.326
16642W        W89067   8.244   4.490   1.366
16643W        W89068  42.459  20.195  14.940
16644W        W89069  14.120  33.401   4.726
16645W        W89070  35.323  42.412   1.636
16646W        W89071  31.710  16.572  14.850
16647W        W89072  42.009   3.902   2.256
16648W        W89073   6.789  19.736  13.993
16649W        W89074   1.037  32.077   1.913
16650W        W89075  35.860  32.935  14.810
16651W        W89076  26.514  30.939   2.565
16652W        W89077  40.382  30.744   4.102
16653W        W89078  26.020  13.640  14.050
16654W        W89079   6.496  40.354   2.373
16655W        W89080   2.368  12.979   3.332
16656W        W89081  34.973   8.442   3.817
16657W        W89082  44.936  29.523  11.295
16658W        W89083  24.715  37.002   3.667
16659W        W89084  20.823  19.214  11.580
16660W        W89085  43.670  41.028  12.957
16661W        W89086  33.185  37.561  10.706
16662W        W89087  10.713  30.170  14.767
16663W        W89088  36.603  31.757  13.865
16664W        W89089   1.567  36.327  12.602
16665W        W89090  36.892  26.161  10.653
16666W        W89091  32.465   4.905   1.387
16667W        W89092  10.643  37.506   4.481
16668W        W89093   0.473  21.189  11.521
16669W        W89094  18.554  44.341  14.539
16670W        W89095   6.193  21.204   2.214
16671W        W89096   0.192  28.994   1.422
16672W        W89097   4.273   1.767  14.549
16673W        W89098  36.421  16.493  13.390
16674W        W89099  44.860  43.225   4.680
16675W        W89100  32.945   5.769   0.694
16676W        W89101  34.478  18.875   1.311
16677W        W89102  34.646  29.869   0.456
16678W        W89103  40.708  33.866  14.449
16679W        W89104  12.646  23.267   3.136
16680W        W89105  13.135  22.857  14.804
16681W        W89106   7.896  41.277   1.722
16682W        W89107  43.129   7.194   4.471
16683W        W89108  38.016  29.460   1.874
16684W        W89109   2.745  27.975   3.293
16685W        W89110  42.359   3.895  10.701
16686W        W89111  20.135  22.674   3.438
16687W        W89112  26.610  15.369  13.805
16688W        W89113  40.425  29.605   0.671
16689W        W89114  22.218   8.774   1.424
16690W        W89115  34.752  24.422   1.885
16691W        W89116   5.823  22.219  12.443
16692W        W89117  20.129  10.215  10.223
16693W        W89118  41.122   4.448  14.405
16694W        W89119  35.943  16.350  13.498
16695W        W89120   1.693   6.009   3.570
16696W        W89121   3.296  34.929  11.956
16697W        W89122  24.914   5.838  10.245
16698W        W89123  19.565  16.574  11.218
16699W        W89124  29.222   1.415   4.745
16700W        W89125  24.777   5.774  13.164
16701W        W89126  28.146  31.891   2.293
16702W        W89127  38.331  24.094   0.341
16703W        W89128  30.392  29.109   4.078
16704W        W89129  19.590   0.537   2.277
16705W        W89130  14.313  31.846  13.777
16706W        W89131  32.949  44.416  12.429
16707W        W89132   5.254  30.075  12.002
16708W        W89133  20.329  38.031   0.533
16709W        W89134  38.403  21.463   3.402
16710W        W89135  19.245  29.024  14.333
16711W        W89136  37.894  39.099  14.550
16712W        W89137  15.052  39.146  14.915
16713W        W89138  43.427  28.117  10.886
16714W        W89139  26.961  28.118  14.283
16715W        W89140  34.395  32.682   4.054
16716W        W89141  42.886   8.421  13.062
16717W        W89142  25.614  22.765  13.462
16718W        W89143  15.233  20.873  10.333
16719W        W89144  19.088  38.913  13.269
16720W        W89145   5.827  27.725  14.936
16721W        W89146   4.895  37.749   3.452
16722W        W89147  18.812  19.919   1.011
16723W        W89148  26.926  24.673   2.884
16724W        W89149  12.399  19.115   4.166
16725W        W89150  33.688  42.519  14.789
16726W        W89151   7.185  28.966  11.934
16727W        W89152  43.814  13.880  14.026
16728W        W89153  31.372   1.953   3.799
16729W        W89154  37.198  31.333  13.070
16730W        W89155  13.705  26.977   1.888
16731W        W89156  17.218   1.127   3.151
16732W        W89157   3.506  32.952  13.963
16733W        W89158   7.503  11.179   1.168
16734W        W89159  28.627  27.624  12.905
16735W        W89160  36.888  33.784   4.573
16736W        W89161   7.373   9.609  11.938
16737W        W89162  31.969   1.499   1.681
16738W        W89163  18.045  26.600   0.570
16739W        W89164  28.132   3.721   0.221
16740W        W89165   8.943  15.174   4.517
16741W        W89166  21.814  35.009  10.891
16742W        W89167  28.182  44.299  12.762
16743W        W89168  33.064  22.600  12.916
16744W        W89169  23.994  13.797   2.310
16745W        W89170  38.615  39.362   2.818
16746W        W89171  22.533  26.082   3.789
16747W        W89172  25.995   5.603   4.576
16748W        W89173  19.710   8.228   4.618
16749W        W89174  24.003  30.929  11.016
16750W        W89175  27.090   8.705   3.664
16751W        W89176  34.622  10.107  13.357
16752W        W89177  37.060  38.067   2.237
16753W        W89178   3.484  17.193   2.792
16754W        W89179  16.110   1.709   2.272
16755W        W89180  33.641  26.179  13.047
16756W        W89181   9.145  25.073  11.026
16757W        W89182  30.264  38.873   0.385
16758W        W89183  11.769  20.486  14.497
16759W        W89184   8.454  15.203   3.584
16760W        W89185  25.710  44.176  12.566
16761W        W89186  23.505  44.912  14.849
16762W        W89187  37.968   7.495  10.363
16763W        W89188   1.084  30.503   0.794
16764W        W89189  29.154  44.867  12.003
16765W        W89190  24.117  35.111  14.989
16766W        W89191  44.250   6.945   0.009
16767W        W89192   6.874  28.515   4.128
16768W        W89193  14.300  31.541  10.925
16769W        W89194  28.742  20.287   1.996
16770W        W89195  12.050   6.515  11.449
16771W        W89196  21.228   6.996   0.379
16772W        W89197  24.216  41.240   2.893
16773W        W89198   7.876  10.888   0.914
16774W        W89199  44.248   7.693  11.604
16775W        W89200  24.116   2.743   3.637
16776W        W89201  14.844  44.131   1.723
16777W        W89202  33.608  14.861  12.448
16778W        W89203  25.779  31.620   2.813
16779W        W89204  33.366  14.214   0.806
16780W        W89205   3.743  14.139   1.348
16781W        W89206  27.543  43.602  14.341
16782W        W89207   5.262  10.271   2.475
16783W        W89208   8.718   7.779   1.000
16784W        W89209  22.548  22.620  10.665
16785W        W89210  26.262   5.976  12.804
16786W        W89211  22.469  11.633  11.737
16787W        W89212   2.699   7.923   1.779
16788W        W89213  26.595  23.220  13.183
16789W        W89214  13.103  10.559   1.682
16790W        W89215  38.639  33.969   1.454
16791W        W89216   6.040   1.688   0.392
16792W        W89217  23.981  23.482  12.379
16793W        W89218  14.592   1.128  13.019
16794W        W89219  19.061  23.400   4.453
16795W        W89220  11.196  10.871  13.970
16796W        W89221  43.002  35.146   0.771
16797W        W89222   4.290  20.349   3.204
16798W        W89223  20.269  13.322   4.751
16799W        W89224  24.677  16.017  11.027
16800W        W89225  21.226  40.775  10.612
16801W        W89226  21.261   9.805   3.643
16802W        W89227  41.907  22.907  13.363
16803W        W89228  29.599  28.964   4.642
16804W        W89229  32.911  43.599   1.235
16805W        W89230  18.801  28.493   2.729
16806W        W89231  24.077  21.564  13.486
16807W        W89232  17.126  33.040  13.801
16808W        W89233  11.206  34.306   1.775
16809W        W89234  25.577  19.128  11.611
16810W        W89235   4.198   8.625   4.798
16811W        W89236  16.938   5.367   1.855
16812W        W89237   0.479  29.665   2.832
16813W        W89238  20.698   3.389  11.089
16814W        W89239  20.644  24.652   4.871
16815W        W89240  18.090  36.851  13.505
16816W        W89241  38.843  18.913  10.569
16817W        W89242  38.224  14.650  12.972
16818W        W89243  38.255  44.556  11.049
16819W        W89244  24.559  21.255  10.554
16820W        W89245  24.039  32.591   3.478
16821W        W89246   2.341  19.518   3.710
16822W        W89247  17.289  40.584   0.359
16823W        W89248  26.451  43.532   1.246
16824W        W89249  16.871  33.151  14.236
16825W        W89250   0.672  38.794   5.138
16826W        W89251  10.765  39.180  12.823
16827W        W89252   6.398  33.015   0.728
16828W        W89253  31.428  12.710   0.565
16829W        W89254  35.311  26.219   1.490
16830W        W89255  29.207  44.849  12.526
16831W        W89256  34.861  32.374  11.080
16832W        W89257  15.727  32.737   2.398
16833W        W89258   8.772  33.858  13.469
16834W        W89259  32.113   3.748   5.017
16835W        W89260  26.638  20.735  12.563
16836W        W89261  16.041  14.351   0.395
16837W        W89262  40.520  34.475  11.154
16838W        W89263  31.063  44.994  11.952
16839W        W89264  32.630  26.787   3.151
16840W        W89265  14.287  32.017  11.559
16841W        W89266  15.262  34.953  12.444
16842W        W89267  10.724  35.768  14.955
16843W        W89268   5.702  35.100   0.913
16844W        W89269   2.395  34.540   0.362
16845W        W89270   1.230  43.773   0.443
16846W        W89271  14.792  32.935  13.064
16847W        W89272  43.793  13.179  12.562
16848W        W89273  42.914  24.732   0.391
16849W        W89274  26.011   8.866   1.966
16850W        W89275  11.823   1.396  13.770
16851W        W89276   5.139  18.062   4.645
16852W        W89277   5.938  43.153   1.995
16853W        W89278   0.865   0.755  13.091
16854W        W89279   8.015  34.439   5.684
16855W        W89280  20.051  24.041   2.228
16856W        W89281   3.360  16.212  12.014
16857W        W89282  30.318  42.345  13.959
16858W        W89283  16.917  40.056   2.625
16859W        W89284  17.177   0.140   2.322
16860W        W89285  10.413  40.344  12.054
16861W        W89286  35.905   8.180   1.079
16862W        W89287   7.398  23.198  13.058
16863W        W89288   0.756  44.475  12.102
16864W        W89289  27.476  36.908  12.427
16865W        W89290  40.478   2.191  10.689
16866W        W89291  41.461  36.804   2.956
16867W        W89292  38.435  34.724  10.667
16868W        W89293  26.093   9.182   3.935
16869W        W89294  24.252  35.008   1.688
16870W        W89295  43.471  21.181   0.700
16871W        W89296  44.528  18.026   3.803
16872W        W89297  37.398   0.419   0.833
16873W        W89298  17.407   7.152   2.204
16874W        W89299   1.969  34.565  12.951
16875W        W89300  20.292  10.803  14.915
16876W        W89301  20.598  42.252   4.631
16877W        W89302  34.183  17.517   5.126
16878W        W89303  43.524   8.245   4.714
16879W        W89304  24.361  17.710   4.637
16880W        W89305  33.929  20.385  12.152
16881W        W89306  40.881  19.704  12.030
16882W        W89307  29.563  18.434   2.930
16883W        W89308   1.251   5.202   2.470
16884W        W89309  18.815  11.858  14.794
16885W        W89310   8.773  34.389   3.607
16886W        W89311  42.613  44.501   2.794
16887W        W89312  32.152  30.010   2.487
16888W        W89313  13.243  21.250  14.052
16889W        W89314   7.622  11.622   4.306
16890W        W89315  39.831   4.927  14.288
16891W        W89316  16.873  31.176  13.902
16892W        W89317  16.102  35.062   3.411
16893W        W89318  39.958   9.404  11.965
16894W        W89319  25.670  21.462  12.730
16895W        W89320  41.948  22.383   3.910
16896W        W89321  22.709   5.929   4.625
16897W        W89322   5.859  30.132   4.232
16898W        W89323  19.869  29.875   4.287
16899W        W89324   6.715  14.752   3.741
16900W        W89325  10.687  12.692  13.249
16901W        W89326  37.607  36.822  11.511
16902W        W89327  41.638  33.993   2.807
16903W        W89328  34.419  29.657  13.320
16904W        W89329  12.899  35.044  11.287
16905W        W89330   0.051   0.945  12.482
16906W        W89331  26.619  21.710   1.752
16907W        W89332  16.727  32.643   1.812
16908W        W89333  20.149   9.058  14.850
16909W        W89334  17.962  34.230   3.720
16910W        W89335  36.643   2.203  10.585
16911W        W89336  24.466   2.889   0.912
16912W        W89337   8.403  17.997  14.763
16913W        W89338  37.288  29.906   1.466
16914W        W89339   4.672  42.627   3.804
16915W        W89340  25.645  22.938   4.620
16916W        W89341   9.276   8.884   2.370
16917W        W89342  29.308  41.836  11.119
16918W        W89343  41.974  30.537  14.292
16919W        W89344  33.080   7.183   4.723
16920W        W89345  32.438  30.825   0.881
16921W        W89346  15.531  23.469   3.670
16922W        W89347  28.415  21.720   4.360
16923W        W89348  41.761  21.045   2.894
16924W        W89349   8.174   1.536  12.359
16925W        W89350  12.916  14.361  13.958
16926W        W89351   7.670  12.296   3.337
16927W        W89352   3.320  26.783   0.360
16928W        W89353  40.446  11.842   2.237
16929W        W89354  37.556   9.264  13.350
16930W        W89355   7.542  16.212  14.316
16931W        W89356  41.149   5.575  11.892
16932W        W89357  42.828   0.287  13.043
16933W        W89358  21.075   7.752   2.669
16934W        W89359  38.950  39.299   0.884
16935W        W89360  39.921   9.126  14.961
16936W        W89361  33.969  26.079  12.644
16937W        W89362  18.040  10.218  14.876
16938W        W89363   2.711  39.096  14.291
16939W        W89364   0.260   7.127   3.274
16940W        W89365  22.421  39.781  11.090
16941W        W89366   4.411  15.290   1.848
16942W        W89367  37.362   1.646  12.131
16943W        W89368  21.682  16.773   2.669
16944W        W89369  38.075   9.128   4.131
16945W        W89370  37.893  14.522   3.457
16946W        W89371  21.674  27.140   2.209
16947W        W89372  35.019  22.701  12.963
16948W        W89373   6.663  36.788   0.569
16949W        W89374   8.556  28.125   3.262
16950W        W89375  33.123  37.795  12.775
16951W        W89376  37.290  42.471  13.083
16952W        W89377   4.651  16.675  13.535
16953W        W89378  31.723   6.433   0.827
16954W        W89379   6.266  42.953  11.962
16955W        W89380  42.912  16.706   3.996
16956W        W89381  24.275  42.075   0.245
16957W        W89382   2.311  44.894   3.745
16958W        W89383  44.392  19.823   2.596
16959W        W89384  21.651  43.004   4.184
16960W        W89385  37.887  13.903   4.708
16961W        W89386  40.839  26.299  11.098
16962W        W89387  42.081  27.543   1.091
16963W        W89388  31.365  25.755   0.311
16964W        W89389  11.609  36.021   3.296
16965W        W89390  24.949  43.065   3.101
16966W        W89391   2.862  38.521   2.614
16967W        W89392  33.929   5.734   3.747
16968W        W89393  20.576  27.210   2.125
16969W        W89394  15.721   1.873   2.648
16970W        W89395  43.769  26.490  14.520
16971W        W89396  13.846  43.462  13.423
16972W        W89397  34.508   2.452  10.957
16973W        W89398  22.668   6.500  12.254
16974W        W89399  35.800  43.984  10.697
16975W        W89400   8.250  18.293   0.412
16976W        W89401  11.267   6.912   1.390
16977W        W89402   9.662  39.818  13.457
16978W        W89403  36.594  39.331   2.880
16979W        W89404  31.431   8.743  10.589
16980W        W89405  22.165  19.853   1.136
16981W        W89406  14.605   8.601  12.616
16982W        W89407  23.692  44.271  14.325
16983W        W89408  38.605  33.969   0.541
16984W        W89409   5.390  42.227  13.988
16985W        W89410  36.757  19.643   2.779
16986W        W89411  34.108  39.808   4.056
16987W        W89412  42.936   7.934  11.271
16988W        W89413   1.409  21.564  11.092
16989W        W89414  42.280  30.018   2.473
16990W        W89415  33.644  41.874  12.206
16991W        W89416  28.837  20.590  13.364
16992W        W89417  31.372  30.012   2.966
16993W        W89418  27.831  20.514   0.965
16994W        W89419  17.063  39.233   2.331
16995W        W89420   8.274   7.496  14.789
16996W        W89421  19.658  32.603  13.997
16997W        W89422   1.645  34.923  13.155
16998W        W89423   3.769  41.648  10.707
16999W        W89424  37.414  29.907   2.986
17000W        W89425  35.978   3.864   0.416
17001W        W89426  33.008  18.076   2.324
17002W        W89427  37.964  33.086  11.141
17003W        W89428  16.750  31.407   5.202
17004W        W89429  44.350  44.400  11.081
17005W        W89430  15.785  32.892   1.882
17006W        W89431  32.955   8.758   1.217
17007W        W89432   2.500  16.325  14.958
17008W        W89433  15.193  16.504   3.580
17009W        W89434  12.728  24.505   5.416
17010W        W89435   1.942  24.712   3.052
17011W        W89436  11.206   2.612  12.123
17012W        W89437  40.871  41.245   3.939
17013W        W89438  27.006   0.751  14.183
17014W        W89439   4.667  14.192   3.800
17015W        W89440  30.406  27.400   1.338
17016W        W89441  41.336  38.674   2.788
17017W        W89442  29.021  17.073  13.501
17018W        W89443  11.662  24.629  13.465
17019W        W89444  18.636  43.799   1.205
17020W        W89445   9.014   6.611   3.137
17021W        W89446  43.299  40.980  14.399
17022W        W89447  27.227   1.856   1.995
17023W        W89448  33.356  18.289  14.304
17024W        W89449  30.524  13.649   1.839
17025W        W89450   3.526  22.985  10.417
17026W        W89451  11.975  39.976  10.126
17027W        W89452  22.159  10.439   4.189
17028W        W89453  43.354  14.624  11.401
17029W        W89454   3.397  22.737  11.231
17030W        W89455  38.924  34.408   2.835
17031W        W89456  31.549   9.238   4.554
17032W        W89457  31.019  12.058  12.021
17033W        W89458  32.105  20.014   4.127
17034W        W89459  13.274  15.187  10.555
17035W        W89460  43.079  25.790  11.187
17036W        W89461   1.258  12.300  12.906
17037W        W89462  44.729  30.880   3.274
17038W        W89463  35.366  27.021  13.960
17039W        W89464  17.033   7.739  11.558
17040W        W89465   2.687  36.471  10.897
17041W        W89466  12.233  17.284   0.860
17042W        W89467  15.585  30.355   0.539
17043W        W89468  34.645  39.231  14.822
17044W        W89469   3.493  22.677   3.200
17045W        W89470  21.581   2.926   4.443
17046W        W89471  35.261  41.737   3.118
17047W        W89472  43.317  21.242   4.194
17048W        W89473  24.020  18.092   1.756
17049W        W89474  42.832  16.110  12.479
17050W        W89475   3.708  43.121  11.676
17051W        W89476  31.982  13.437  11.478
17052W        W89477  23.099  44.293   2.195
17053W        W89478  33.424   4.238  11.613
17054W        W89479  14.716   6.569   3.307
17055W        W89480  25.041   3.716  11.506
17056W        W89481  11.635  18.606  10.697
17057W        W89482  18.613  32.190  11.916
17058W        W89483  33.123  11.787   4.795
17059W        W89484  22.042  14.824   2.990
17060W        W89485  15.627  34.201   3.504
17061W        W89486  29.337  23.580   2.036
17062W        W89487  10.395  12.901   0.769
17063W        W89488  16.999  27.951  14.944
17064W        W89489  37.374  19.626  14.089
17065W        W89490  32.308  20.337  12.547
17066W        W89491  10.131  33.913   4.183
17067W        W89492  21.953  27.023   4.539
17068W        W89493   0.639  43.451  13.395
17069W        W89494  41.032  27.938   1.261
17070W        W89495  24.875   0.483  13.952
17071W        W89496  38.770  22.709   1.258
17072W        W89497   8.007  40.604   4.087
17073W        W89498   1.736   5.836   4.623
17074W        W89499   0.587  20.765   9.931
17075W        W89500  24.444  23.008  14.405
17076W        W89501  33.554  40.912   3.255
17077W        W89502  31.079  15.040   0.958
17078W        W89503  38.644  34.209   1.009
17079W        W89504  21.975   3.216   0.986
17080W        W89505   4.016   8.910   3.331
17081W        W89506  16.237   1.325  11.911
17082W        W89507  30.220  31.284  13.627
17083W        W89508  21.612  26.392   0.573
17084W        W89509  26.578   3.955   4.075
17085W        W89510  31.071  31.584   2.870
17086W        W89511  29.985  13.173   0.302
17087W        W89512  19.320  18.602  13.101
17088W        W89513  25.644  23.936  11.063
17089W        W89514  42.918  43.780  13.567
17090W        W89515   4.178   9.785  14.978
17091W        W89516   2.754  41.893  12.532
17092W        W89517  21.748   4.372   0.462
17093W        W89518  44.801  41.841  12.817
17094W        W89519  19.535  27.475   3.285
17095W        W89520  23.543  27.472   3.943
17096W        W89521  15.110  10.755  14.314
17097W        W89522  39.024  15.710   4.174
17098W        W89523   5.936  41.100  11.054
17099W        W89524  11.868  16.731  13.373
17100W        W89525   4.389  19.767  13.079
17101W        W89526  31.577   4.290  14.436
17102W        W89527  21.621   0.277  14.808
17103W        W89528  37.067  41.521   0.822
17104W        W89529  43.095   3.671  11.112
17105W        W89530  26.586  17.852   4.105
17106W        W89531  23.941  11.151  11.473
17107W        W89532  28.406  13.022  13.897
17108W        W89533  31.802   0.143   0.368
17109W        W89534   1.266  21.585  13.041
17110W        W89535  35.335  29.506  11.251
17111W        W89536  34.899  22.181   4.046
17112W        W89537  14.420  41.860  11.048
17113W        W89538  19.736   0.793   0.162
17114W        W89539  29.598  39.964  13.343
17115W        W89540  36.462   2.791  13.048
17116W        W89541   9.161  35.971   4.664
17117W        W89542  26.312  13.393  11.992
17118W        W89543  30.128  42.733  11.434
17119W        W89544   3.255  39.062   2.409
17120W        W89545  29.120   1.451   3.738
17121W        W89546  10.504  42.292  13.752
17122W        W89547   1.060  33.020   4.162
17123W        W89548  28.625  26.484  13.763
17124W        W89549  25.060  18.267  10.733
17125W        W89550   5.653  37.768   4.277
17126W        W89551  40.866  25.249   0.958
17127W        W89552  15.563  19.604  10.728
17128W        W89553  16.064   1.453   2.726
17129W        W89554   7.951   0.011  14.482
17130W        W89555  35.991  32.079   0.065
17131W        W89556   0.813  24.721   2.198
17132W        W89557  10.431  19.551   0.796
17133W        W89558  20.478   4.271   2.442
17134W        W89559   9.369  14.332  12.070
17135W        W89560  31.358   6.367   1.812
17136W        W89561  40.455  36.407   3.416
17137W        W89562  34.394  23.240   4.203
17138W        W89563   6.262  28.131  11.589
17139W        W89564  12.834  25.683   0.093
17140W        W89565  29.192   0.469   4.599
17141W        W89566   8.207   6.704  11.108
17142W        W89567   0.109  42.992  14.794
17143W        W89568  14.590  34.864  11.966
17144W        W89569  15.277  40.609  12.653
17145W        W89570  24.951  19.752   1.783
17146W        W89571  19.568  42.222  14.586
17147W        W89572  19.465  15.269   0.796
17148W        W89573  31.362   0.832  14.905
17149W        W89574   4.249  16.155  11.035
17150W        W89575  20.367  44.319  14.315
17151W        W89576   5.210  39.597  11.593
17152W        W89577  35.470  36.328   4.143
17153W        W89578   2.112  11.552  14.698
17154W        W89579  12.963   4.400   4.533
17155W        W89580   4.427   3.353   2.062
17156W        W89581   5.666  10.618   1.187
17157W        W89582  44.985  34.661   3.766
17158W        W89583  11.022  43.212  12.795
17159W        W89584  40.292  18.521   0.343
17160W        W89585  39.939  39.308   0.924
17161W        W89586  24.721   0.544   3.137
17162W        W89587  11.222  40.024   0.241
17163W        W89588   5.050   0.939   0.531
17164W        W89589   9.642  44.808  13.031
17165W        W89590  38.396  21.516  13.815
17166W        W89591  19.258   0.028   0.487
17167W        W89592  42.155  42.793   5.028
17168W        W89593  11.260  29.092   2.208
17169W        W89594  21.651  40.154  14.791
17170W        W89595  27.909  39.286   3.366
17171W        W89596  36.523  22.814  13.389
17172W        W89597  22.273   6.073  11.075
17173W        W89598  20.116   8.705  11.565
17174W        W89599  25.060  22.157   1.920
17175W        W89600  14.711  35.655   1.346
17176W        W89601  10.766  26.096  12.963
17177W        W89602  42.434  40.078   5.021
17178W        W89603  19.613  10.792   0.262
17179W        W89604   6.723  41.102   2.003
17180W        W89605   3.839  22.128   2.407
17181W        W89606  20.243  44.236  11.011
17182W        W89607  39.908   4.187  12.244
17183W        W89608  26.107  39.287  14.929
17184W        W89609  22.725  10.115  10.451
17185W        W89610  31.949  23.523   0.881
17186W        W89611  18.254  43.000   3.163
17187W        W89612  24.880  15.860  14.897
17188W        W89613  14.919  43.575  11.541
17189W        W89614  26.525  30.024   3.887
17190W        W89615   6.199  16.257   4.768
17191W        W89616  44.291  17.251   3.237
17192W        W89617  31.896  24.271  13.015
17193W        W89618  42.239  42.856   4.220
17194W        W89619  19.768  39.677   3.122
17195W        W89620  44.380  23.530  11.611
17196W        W89621  21.780  10.652   5.452
17197W        W89622   5.096  13.014   1.445
17198W        W89623  38.330  38.354  11.057
17199W        W89624  30.620  25.903   3.704
17200W        W89625  31.445  15.912   1.439
17201W        W89626   5.521  40.015  12.057
17202W        W89627  12.586  22.640  11.948
17203W        W89628  13.260  12.876  12.707
17204W        W89629  13.217  17.252  10.385
17205W        W89630  13.774  41.576  14.826
17206W        W89631  19.866  13.881   2.745
17207W        W89632  14.231  17.091  10.717
17208W        W89633  18.541  19.781  13.701
17209W        W89634   5.867  11.650  12.778
17210W        W89635  43.945  24.754   0.536
17211W        W89636  42.935  21.418  13.534
17212W        W89637  30.163  23.227   2.191
17213W        W89638  29.052   9.799   3.307
17214W        W89639  37.966  13.640  14.185
17215W        W89640  24.536   5.302  13.038
17216W        W89641  21.150  16.111   0.411
17217W        W89642   8.326  12.673  13.549
17218W        W89643   9.139   5.841   9.799
17219W        W89644  31.241   4.778  10.358
17220W        W89645  20.122  19.087  10.767
17221W        W89646  40.578  25.086   0.468
17222W        W89647   7.802   4.756   1.379
17223W        W89648   7.128  26.023  14.866
17224W        W89649  37.505  42.768   0.974
17225W        W89650  22.048  28.295  11.079
17226W        W89651  41.863   1.309  13.102
17227W        W89652  42.852  16.725  12.572
17228W        W89653  14.223  10.717  11.432
17229W        W89654  38.097   0.579  13.118
17230W        W89655   8.843  43.951   3.326
17231W        W89656  26.700  44.145   1.779
17232W        W89657  15.758  31.858   0.489
17233W        W89658   1.535  40.949  11.085
17234W        W89659  25.212  25.493  10.609
17235W        W89660   2.769  22.155  14.352
17236W        W89661  14.494  20.842   2.545
17237W        W89662  24.496  26.027   1.936
17238W        W89663  13.554  17.773   0.454
17239W        W89664  22.127   8.801   3.680
17240W        W89665  11.638  17.190  12.404
17241W        W89666  29.310  15.059  12.447
17242W        W89667  37.934  16.289   1.555
17243W        W89668  35.427  24.188  12.131
17244W        W89669  22.600  22.339   3.223
17245W        W89670  28.328  18.791   3.378
17246W        W89671  27.999   3.026  11.317
17247W        W89672   4.393  26.461  12.199
17248W        W89673  20.823  40.079  13.249
17249W        W89674  30.664  10.781  10.845
17250W        W89675  41.739   4.231   0.776
17251W        W89676  34.949   1.502   2.271
17252W        W89677   4.231  27.208  12.483
17253W        W89678  27.888   5.117  12.573
17254W        W89679  24.534  10.848   0.295
17255W        W89680  27.852  41.872   4.103
17256W        W89681  43.787  32.856   1.272
17257W        W89682   3.390  21.348   3.298
17258W        W89683  23.994  31.178  14.568
17259W        W89684  34.672  44.296  12.946
17260W        W89685   4.207  25.853   2.600
17261W        W89686  21.798   7.414   4.187
17262W        W89687  30.397  33.443  13.054
17263W        W89688  34.046  33.463   2.756
17264W        W89689   7.884  24.699   0.739
17265W        W89690  37.550  43.245   1.867
17266W        W89691  22.462  19.111  12.684
17267W        W89692  28.429  12.096   1.409
17268W        W89693  37.047  41.976  13.446
17269W        W89694  14.455   4.369   4.749
17270W        W89695   1.664  26.002   3.386
17271W        W89696   7.215  20.105  13.388
17272W        W89697  44.024  22.587  10.763
17273W        W89698  43.062  34.122  11.524
17274W        W89699  13.871  34.595   1.482
17275W        W89700  43.007   2.479   4.571
17276W        W89701  44.173   9.043  11.872
17277W        W89702  38.443  36.605   4.085
17278W        W89703  44.392   5.784   0.298
17279W        W89704  36.411  20.508  11.110
17280W        W89705  37.099   9.672   2.576
17281W        W89706   8.193  26.450  13.086
17282W        W89707   3.394   6.274   4.356
17283W        W89708  24.048  41.715  14.923
17284W        W89709  42.386  33.557   4.563
17285W        W89710  33.477  13.016   1.691
17286W        W89711  16.821  43.952   2.778
17287W        W89712   3.448  31.774  14.372
17288W        W89713  28.334   8.254   1.759
17289W        W89714  44.533  28.129   4.087
17290W        W89715   9.608   8.037  10.700
17291W        W89716   4.703  33.364  10.355
17292W        W89717  22.273  25.621   3.766
17293W        W89718  23.987  28.128   4.399
17294W        W89719  29.122  15.123   0.358
17295W        W89720   7.728  11.139  12.081
17296W        W89721   2.173  16.247  13.394
17297W        W89722   9.861  10.587  11.006
17298W        W89723  23.833  42.186  14.965
17299W        W89724  38.287  35.925   1.422
17300W        W89725  18.401  37.244   2.699
17301W        W89726  16.190  38.452   1.738
17302W        W89727   4.133  33.217   2.227
17303W        W89728   1.799  26.173  14.820
17304W        W89729  14.908  34.617  13.719
17305W        W89730  41.038   1.283   0.329
17306W        W89731  33.406  37.921   4.363
17307W        W89732  17.859  22.166   0.182
17308W        W89733   9.893   5.410   3.726
17309W        W89734   5.303  44.166   2.203
17310W        W89735  33.460  11.373  13.592
17311W        W89736  17.258  24.750   4.054
17312W        W89737  23.141  15.125  11.155
17313W        W89738  32.036   5.862   2.066
17314W        W89739  36.428   6.714   2.401
17315W        W89740  12.332  42.455   4.121
17316W        W89741  33.027  28.414   0.319
17317W        W89742  29.150  37.929   0.183
17318W        W89743   5.175  43.466  14.354
17319W        W89744  24.204  37.356   2.184
17320W        W89745   2.767  43.075   0.517
17321W        W89746   1.311  13.341  13.210
17322W        W89747  37.680  42.345   2.009
17323W        W89748   6.634  10.816   0.313
17324W        W89749  11.778  35.925   2.408
17325W        W89750  42.826  33.587  10.727
17326W        W89751  21.722  39.187   4.700
17327W        W89752  35.043  25.045   4.104
17328W        W89753   1.642  34.288  11.490
17329W        W89754  41.023  38.013   3.170
17330W        W89755  34.605  19.469  14.679
17331W        W89756  37.664   0.984   3.203
17332W        W89757  16.293  15.734  11.216
17333W        W89758  39.057  34.362  14.407
17334W        W89759  13.589   0.028  12.971
17335W        W89760  25.652  17.696   2.457
17336W        W89761   1.812  42.087  14.936
17337W        W89762  24.442  32.604  11.459
17338W        W89763  35.554   1.660   0.452
17339W        W89764  23.338   3.860   4.157
17340W        W89765  22.719  28.427   0.604
17341W        W89766   5.761  19.678  12.963
17342W        W89767  12.766  36.757  11.385
17343W        W89768  37.184  17.777  10.905
17344W        W89769  26.671   8.327  13.520
17345W        W89770   9.441  10.844   2.398
17346W        W89771   7.482  32.904  11.389
17347W        W89772  40.921   3.478   0.321
17348W        W89773  38.744  19.986  14.374
17349W        W89774  29.004  24.957   1.728
17350W        W89775   3.271   4.177  14.139
17351W        W89776   8.914  14.150   5.068
17352W        W89777  17.120  27.205   3.302
17353W        W89778   7.676  38.079  11.539
17354W        W89779  25.495   9.001   3.864
17355W        W89780  28.054  17.284   2.315
17356W        W89781  31.331  16.446  11.068
17357W        W89782  16.503   6.512  13.868
17358W        W89783  27.671  14.725  13.560
17359W        W89784  42.850  32.195   4.126
17360W        W89785   9.989  38.937   2.489
17361W        W89786  28.443  28.459  11.009
17362W        W89787   7.302   2.933   2.383
17363W        W89788  35.701   6.619   1.938
17364W        W89789  12.323  17.459  13.151
17365W        W89790  23.115  29.540   2.909
17366W        W89791  17.118  37.963  13.570
17367W        W89792  10.746  19.609  10.372
17368W        W89793  12.866  33.426   3.504
17369W        W89794  41.527  24.635  14.914
17370W        W89795  38.512  10.676   1.209
17371W        W89796  23.262   2.533   4.028
17372W        W89797   5.286  41.000   4.152
17373W        W89798  26.429  20.218   2.423
17374W        W89799  25.739  11.742   1.619
17375W        W89800  38.921   4.826  11.611
17376W        W89801  10.265  27.001  10.649
17377W        W89802  38.589   3.723   3.562
17378W        W89803  43.357  32.407  12.487
17379W        W89804  26.043  30.029   3.185
17380W        W89805  34.906  33.954   1.880
17381W        W89806   2.954  39.482   1.595
17382W        W89807  13.792  44.798   1.896
17383W        W89808  21.228   3.144   3.144
17384W        W89809  32.639  35.836   0.896
17385W        W89810  12.354  30.861   4.407
17386W        W89811  19.091  35.813   3.794
17387W        W89812  21.305   0.080  12.094
17388W        W89813  24.513  26.231   0.900
17389W        W89814  37.659  40.404   4.554
17390W        W89815  15.460  34.129   2.142
17391W        W89816  36.490  40.555   1.363
17392W        W89817  27.210   3.297   2.617
17393W        W89818  14.864  37.443   1.189
17394W        W89819  17.751  25.664  12.099
17395W        W89820  11.472   9.392   2.338
17396W        W89821   5.329  33.324   2.860
17397W        W89822  30.530   9.898   4.210
17398W        W89823  29.126  30.930  10.495
17399W        W89824  11.853  12.754  13.991
17400W        W89825  42.907  31.108   4.567
17401W        W89826  34.117  11.641  11.536
17402W        W89827   4.838  18.656  14.997
17403W        W89828   3.575  29.333  13.838
17404W        W89829  20.023  37.616  12.050
17405W        W89830  22.751  30.991   3.335
17406W        W89831  18.512  34.318   2.366
17407W        W89832   9.161  15.367   4.077
17408W        W89833   2.197  12.615  13.805
17409W        W89834  42.201  41.109   0.437
17410W        W89835  20.398  35.064  13.463
17411W        W89836   4.255  19.982   2.846
17412W        W89837  19.125   6.814  10.715
17413W        W89838  12.293  41.525  10.589
17414W        W89839   6.175  31.948   3.263
17415W        W89840   2.779  37.949   0.467
17416W        W89841  32.125  11.710  12.608
17417W        W89842  43.579  23.608   2.296
17418W        W89843  21.951  38.853   2.839
17419W        W89844   0.315  19.049   2.439
17420W        W89845  11.660   0.523  14.250
17421W        W89846   8.935   1.575   4.255
17422W        W89847   9.133   2.294  11.649
17423W        W89848  26.913   5.449  14.948
17424W        W89849  21.585  15.537   2.444
17425W        W89850  14.116  15.035   2.779
17426W        W89851  16.758  13.775  13.979
17427W        W89852   2.337  25.970  10.491
17428W        W89853   5.329  12.893  10.993
17429W        W89854  20.176   4.133  12.518
17430W        W89855  41.540  18.728  12.069
17431W        W89856   8.188   4.338   0.877
17432W        W89857   8.284  36.692   1.918
17433W        W89858  35.147   2.413  13.040
17434W        W89859   9.053  23.006  10.865
17435W        W89860  40.002   0.363   0.927
17436W        W89861  33.466   3.657  12.509
17437W        W89862  25.976  15.062   3.269
17438W        W89863  11.956  41.888  10.786
17439W        W89864  21.166  40.939   4.315
17440W        W89865  41.040  38.560   1.369
17441W        W89866  19.210  11.027   0.622
17442W        W89867  14.580   3.153   0.863
17443W        W89868  19.335  18.307   2.708
17444W        W89869  44.973  10.077   1.310
17445W        W89870  15.570  10.312  13.722
17446W        W89871  32.334  38.384  14.519
17447W        W89872   4.154  17.423  10.698
17448W        W89873   5.180  18.336  14.186
17449W        W89874   6.667  27.699  14.451
17450W        W89875  25.260   1.007   0.660
17451W        W89876  29.383   4.222   1.930
17452W        W89877  40.336  11.211   1.397
17453W        W89878  24.213  31.097  13.029
17454W        W89879  18.386  28.889   0.896
17455W        W89880  44.931  15.980   1.699
17456W        W89881   6.984  32.288  14.381
17457W        W89882  18.694  21.732   3.101
17458W        W89883   1.896  12.195  10.769
17459W        W89884  37.856  37.098  14.096
17460W        W89885  27.607  19.745   4.845
17461W        W89886  28.613  18.981   1.846
17462W        W89887  29.085  29.429  12.060
17463W        W89888  28.390   6.637   3.767
17464W        W89889   6.186  14.097   1.651
17465W        W89890  36.992  43.243  11.517
17466W        W89891  18.666  14.793  10.470
17467W        W89892   6.920  40.355   2.667
17468W        W89893  27.447   9.531  13.141
17469W        W89894  30.186  19.808  11.133
17470W        W89895  13.062  11.735  10.905
17471W        W89896  30.630  43.372   3.513
17472W        W89897  33.663  43.456  13.829
17473W        W89898  18.990  25.361   0.098
17474W        W89899  30.666  25.990   1.895
17475W        W89900  22.946  11.296  12.589
17476W        W89901  31.823  17.639  11.959
17477W        W89902  23.681  15.210  11.111
17478W        W89903  30.179  19.557   3.454
17479W        W89904   0.319   6.906   4.124
17480W        W89905  23.128  27.842   4.683
17481W        W89906  39.000  37.019  14.708
17482W        W89907  29.659  35.015  13.402
17483W        W89908   7.691  29.211  13.549
17484W        W89909  10.699   5.023  12.854
17485W        W89910   4.903   9.227  13.422
17486W        W89911  31.631  23.107   3.377
17487W        W89912   3.770   7.719   0.450
17488W        W89913  37.248   4.939  14.341
17489W        W89914  36.148   6.411   3.595
17490W        W89915   6.738   2.254  10.739
17491W        W89916  33.621  22.871  13.798
17492W        W89917  38.883  19.852  10.701
17493W        W89918  11.129  35.149  12.880
17494W        W89919  39.466   4.850   1.833
17495W        W89920  28.620  20.448  14.783
17496W        W89921  39.888   6.200   4.683
17497W        W89922   3.676  33.018  13.437
17498W        W89923  34.860  12.161   0.338
17499W        W89924  19.261   3.385  10.981
17500W        W89925  17.781  26.557  11.621
17501W        W89926  31.012  29.441   4.596
17502W        W89927  27.696  41.431   0.393
17503W        W89928  14.129  24.104  12.645
17504W        W89929  11.880   4.869   1.111
17505W        W89930   6.742  22.291   4.927
17506W        W89931  23.505  25.560   3.142
17507W        W89932   1.212  43.797  10.882
17508W        W89933   6.297  35.124  12.652
17509W        W89934  43.666  14.245   2.525
17510W        W89935  13.595  22.991  11.277
17511W        W89936  42.569  37.089  14.675
17512W        W89937  23.965  20.198  11.638
17513W        W89938   6.650   3.001  11.088
17514W        W89939  10.379  38.554  13.463
17515W        W89940  35.923  25.289  10.518
17516W        W89941  14.430  39.775  13.965
17517W        W89942  34.407   8.764  14.065
17518W        W89943  44.707  39.530  11.064
17519W        W89944  29.464  38.415   3.646
17520W        W89945   0.095   1.299   1.772
17521W        W89946  43.426  28.857   3.775
17522W        W89947  34.975  43.821  13.020
17523W        W89948  17.726   1.237   1.826
17524W        W89949  39.118   1.182   2.298
17525W        W89950  21.122   1.890  10.690
17526W        W89951  24.208  16.206  10.928
17527W        W89952   8.894  44.913  11.222
17528W        W89953   4.052  36.875   4.159
17529W        W89954   5.318  18.904   3.651
17530W        W89955  13.875  11.942   0.937
17531W        W89956  22.718  14.737  11.923
17532W        W89957   8.898   0.827  12.264
17533W        W89958  12.270  10.909  12.616
17534W        W89959  44.996  30.997   2.834
17535W        W89960  10.015  23.540  12.122
17536W        W89961  31.430  28.430   1.270
17537W        W89962  40.442   3.308  11.188
17538W        W89963  35.366  33.975  12.769
17539W        W89964   1.475  23.794   2.811
17540W        W89965  30.495  24.531  12.992
17541W        W89966  28.578   8.918   3.399
17542W        W89967  19.363  22.206   2.643
17543W        W89968   5.153  14.132  11.635
17544W        W89969  34.841  24.457  10.389
17545W        W89970  13.560   8.202  12.050
17546W        W89971   1.915  14.297   2.330
17547W        W89972  43.858  43.940  12.537
17548W        W89973  19.536  42.900   4.043
17549W        W89974  25.987  34.229   1.447
17550W        W89975  42.444  22.958   3.783
17551W        W89976  25.259  14.143  10.921
17552W        W89977   0.930  44.437   1.414
17553W        W89978   5.534  19.350   2.711
17554W        W89979  39.305  38.786  12.576
17555W        W89980  27.928  38.865  14.074
17556W        W89981  29.987  15.123  12.986
17557W        W89982  26.030  32.167   4.888
17558W        W89983   8.153  30.857  12.052
17559W        W89984  23.485  42.891   3.183
17560W        W89985  21.594  41.536  10.756
17561W        W89986  33.289  31.080   0.217
17562W        W89987  22.133  30.049   4.399
17563W        W89988  37.330   2.323   3.126
17564W        W89989  44.951   8.018   1.274
17565W        W89990  14.330  32.942   0.931
17566W        W89991   6.781  40.895   0.518
17567W        W89992  20.940  19.746   3.288
17568W        W89993  23.386  18.364  14.881
17569W        W89994  20.322   3.337   1.690
17570W        W89995  18.684   4.771  11.652
17571W        W89996  30.879  20.102   1.264
17572W        W89997  36.996   5.490   0.801
17573W        W89998  34.042  37.807   1.816
17574W        W89999   6.795  10.320  11.016
17575W        W90000  37.021  41.049  11.104
17576W        W90001  21.559  30.984  12.377
17577W        W90002  21.320  23.120   1.422
17578W        W90003  28.153  33.001  13.821
17579W        W90004   0.529  44.552  11.563
17580W        W90005  44.664  23.126  12.445
17581W        W90006  19.701  42.083  13.146
17582W        W90007  17.333   1.288  13.977
17583W        W90008  41.838  35.821   1.766
17584W        W90009  19.587  42.770  14.506
17585W        W90010   4.726  41.710   5.169
17586W        W90011  18.951  37.341  13.014
17587W        W90012   7.996  34.771   4.106
17588W        W90013  36.461  11.266   0.362
17589W        W90014  11.713  42.578  14.373
17590W        W90015   5.915  23.079  11.337
17591W        W90016  14.687  39.791  11.272
17592W        W90017   1.210  31.279   2.432
17593W        W90018  34.342  28.235   4.103
17594W        W90019  16.186  14.396  12.093
17595W        W90020  19.804  30.543  14.601
17596W        W90021  34.514  44.595   3.653
17597W        W90022  25.433   9.761   0.694
17598W        W90023  24.178  10.770   2.753
17599W        W90024   3.759  39.128   4.378
17600W        W90025   6.164  25.173  14.541
17601W        W90026  23.577   4.808  10.524
17602W        W90027  29.601  18.385   1.845
17603W        W90028  20.600   6.924  11.084
17604W        W90029  40.016  16.182   4.655
17605W        W90030  34.564  43.461  14.244
17606W        W90031  38.981  21.106   1.280
17607W        W90032  29.652  18.115  10.567
17608W        W90033  20.708  15.634   3.452
17609W        W90034  28.339  22.071  11.401
17610W        W90035  41.709   7.021   0.897
17611W        W90036  11.562  21.191   1.276
17612W        W90037   9.911   5.886   3.534
17613W        W90038   6.877   6.145   4.321
17614W        W90039  15.219  17.153  13.331
17615W        W90040  23.529  28.656   0.980
17616W        W90041   6.257  39.237   0.004
17617W        W90042  32.811  21.985   2.299
17618W        W90043   0.757   0.859  11.223
17619W        W90044  11.335  21.128   2.594
17620W        W90045  34.594  18.683   2.804
17621W        W90046  16.899  24.073  14.294
17622W        W90047   2.358   1.394  10.588
17623W        W90048  29.242  13.149  14.730
17624W        W90049  34.025  32.435  10.952
17625W        W90050   0.649  43.789   3.237
17626W        W90051  42.240  41.626   0.514
17627W        W90052   4.307  14.343   0.239
17628W        W90053  33.775   1.799  10.374
17629W        W90054  25.058   4.760  12.618
17630W        W90055   1.920  25.064  11.897
17631W        W90056  22.666  42.838  14.469
17632W        W90057  35.982  15.855  10.657
17633W        W90058  10.439  44.301  13.988
17634W        W90059  28.511  33.981  11.745
17635W        W90060  12.306  11.226   0.273
17636W        W90061  19.331  21.734  10.706
17637W        W90062  26.182  42.822   2.912
17638W        W90063  38.495   1.468  12.063
17639W        W90064  34.589  39.387  13.091
17640W        W90065  32.148  25.668  10.716
17641W        W90066  26.479  37.609  14.799
17642W        W90067  37.592  37.087   5.000
17643W        W90068  25.711   0.920   4.176
17644W        W90069   0.891  31.701  11.576
17645W        W90070   3.469   5.852   4.094
17646W        W90071  12.111  21.318  13.557
17647W        W90072  18.267   8.311   0.493
17648W        W90073  10.267   8.267  11.031
17649W        W90074  35.533  30.584  12.356
17650W        W90075  21.762  12.736  13.604
17651W        W90076  24.705  34.407   0.975
17652W        W90077  19.709  15.089   2.168
17653W        W90078   6.266  40.731   3.719
17654W        W90079  13.758  38.493  13.471
17655W        W90080  24.649  35.408   0.762
17656W        W90081   7.301   9.045  13.254
17657W        W90082  16.311  38.635  13.968
17658W        W90083  11.112   2.919  12.527
17659W        W90084   3.683  26.741  11.634
17660W        W90085   3.254  19.353   1.914
17661W        W90086  13.067   4.937  11.494
17662W        W90087  13.689   0.544   0.682
17663W        W90088   1.809  12.646  12.261
17664W        W90089  13.155  27.263  13.219
17665W        W90090  37.432  42.555   3.309
17666W        W90091   7.621   4.331   4.250
17667W        W90092   6.041  12.883  11.586
17668W        W90093  31.619  42.237  12.748
17669W        W90094  13.377   1.712  14.403
17670W        W90095   6.953  37.965  13.266
17671W        W90096   7.605   6.117  10.367
17672W        W90097   8.462  33.372  12.745
17673W        W90098  10.268   7.773  13.068
17674W        W90099  13.075  38.046   2.850
17675W        W90100  12.672  39.898   0.766
17676W        W90101  25.776  18.228  11.918
17677W        W90102  43.205  25.502  11.984
17678W        W90103  23.944  29.430   3.666
17679W        W90104  10.433  36.963   0.227
17680W        W90105  12.884  33.124  11.695
17681W        W90106  14.842  25.527  14.959
17682W        W90107   3.458   4.250   4.675
17683W        W90108  32.948  36.989  11.706
17684W        W90109  12.901   1.691   2.706
17685W        W90110  22.213  25.388  14.835
17686W        W90111  18.656  12.432  14.436
17687W        W90112  35.423   0.870  12.617
17688W        W90113  20.217  19.177   0.743
17689W        W90114  12.269  26.586   4.565
17690W        W90115  24.524  23.246   4.003
17691W        W90116   4.117  25.309  13.508
17692W        W90117  22.390  29.196  14.739
17693W        W90118  33.738  18.059   3.654
17694W        W90119   3.668   1.284   1.516
17695W        W90120   3.300  34.179   2.321
17696W        W90121  37.410  37.079   0.323
17697W        W90122   6.626   3.236  12.020
17698W        W90123  34.824  25.278   3.703
17699W        W90124   6.264   8.519  11.616
17700W        W90125   5.825  11.253  10.797
17701W        W90126  34.132  31.939   3.997
17702W        W90127  21.603   6.863  10.698
17703W        W90128  28.210  44.674  11.296
17704W        W90129   3.670  36.559   0.422
17705W        W90130  14.188  20.004   2.736
17706W        W90131  34.128  18.069  13.786
17707W        W90132   7.657  23.514   1.470
17708W        W90133  20.498  11.856  14.324
17709W        W90134  33.406  10.869  13.748
17710W        W90135  13.309  25.017   3.789
17711W        W90136  35.574  13.323  12.072
17712W        W90137   8.262  21.749   1.277
17713W        W90138   2.631  19.912  11.965
17714W        W90139  43.955   8.875  11.432
17715W        W90140   3.609  20.684  14.824
17716W        W90141  17.050  30.657  14.251
17717W        W90142  30.749  23.233   3.067
17718W        W90143   7.702  29.699  12.114
17719W        W90144  44.673  26.300   2.305
17720W        W90145  11.374   4.012   3.255
17721W        W90146  33.581  19.115   1.719
17722W        W90147   9.550  19.130   2.367
17723W        W90148  24.200   7.231  14.364
17724W        W90149  15.651  36.587  11.597
17725W        W90150  12.346   4.264   3.223
17726W        W90151  19.544   4.873  14.336
17727W        W90152  17.617  12.683  13.488
17728W        W90153   4.286  27.781  11.152
17729W        W90154  42.170  17.345  11.604
17730W        W90155  13.867  23.747  14.105
17731W        W90156   6.881  26.499   3.307
17732W        W90157  15.485  44.338   5.288
17733W        W90158  41.400  29.787   1.589
17734W        W90159   7.298  34.976  11.988
17735W        W90160   4.571  29.527   3.190
17736W        W90161  38.838  22.376  10.674
17737W        W90162   4.321  37.414  14.998
17738W        W90163  17.653  29.927  13.486
17739W        W90164  26.245   8.354   0.388
17740W        W90165  24.019   0.399   3.231
17741W        W90166  32.514  30.677   0.373
17742W        W90167  34.927  21.502  12.666
17743W        W90168   9.599  14.778  10.589
17744W        W90169  29.578  18.934   2.777
17745W        W90170  42.846   2.813  13.859
17746W        W90171  35.118  20.928   0.996
17747W        W90172   9.733   9.216  13.789
17748W        W90173  26.407  30.994  13.071
17749W        W90174  38.664  25.545   2.149
17750W        W90175  34.544  10.438   1.792
17751W        W90176  21.711   9.638   5.465
17752W        W90177  13.214  39.875  13.366
17753W        W90178   3.133  21.661   4.545
17754W        W90179  36.874   1.999  12.097
17755W        W90180  30.179  40.458  12.956
17756W        W90181   3.425  30.486   4.799
17757W        W90182  28.059  22.185  14.883
17758W        W90183   2.740  12.451   3.680
17759W        W90184  18.216   9.366  13.388
17760W        W90185  40.275  36.505   2.873
17761W        W90186  18.310   7.870  12.042
17762W        W90187  38.997  37.457  10.052
17763W        W90188   4.331  21.616  11.852
17764W        W90189   8.615   3.057   2.713
17765W        W90190  22.518   3.762  13.891
17766W        W90191  43.873   0.866   2.852
17767W        W90192  35.339  37.372  12.467
17768W        W90193   0.448   0.581   0.696
17769W        W90194  30.164  31.099  12.349
17770W        W90195  21.735   6.846  14.415
17771W        W90196   0.669  23.732   1.712
17772W        W90197  28.638  34.436  12.919
17773W        W90198  34.846  20.438   3.267
17774W        W90199  29.517  30.946   4.080
17775W        W90200  10.971  10.852   1.831
17776W        W90201  15.771  30.468   4.253
17777W        W90202   3.740  35.699   0.215
17778W        W90203  14.550  37.499  12.530
17779W        W90204  38.124  18.811  12.601
17780W        W90205  44.211  29.190  13.358
17781W        W90206  19.175  10.177  13.375
17782W        W90207  11.977   3.666  12.608
17783W        W90208  41.426  18.298  14.444
17784W        W90209  41.951  38.650   0.714
17785W        W90210  13.829  32.015   3.342
17786W        W90211  22.138  37.161  12.814
17787W        W90212  17.342   3.715  12.966
17788W        W90213  22.635  24.697   0.951
17789W        W90214  18.279  30.729  12.517
17790W        W90215   0.861  22.071  11.413
17791W        W90216  34.439  37.140  13.255
17792W        W90217  22.734  21.278  13.427
17793W        W90218  32.447   9.184  10.952
17794W        W90219  18.079  40.652  11.284
17795W        W90220  33.588  14.589   2.687
17796W        W90221   9.875  37.977   2.641
17797W        W90222   0.751  22.834   2.246
17798W        W90223  15.357  26.954   0.191
17799W        W90224   3.244  27.630  12.411
17800W        W90225   8.243  25.074   1.459
17801W        W90226  11.494  36.315  13.959
17802W        W90227  42.327  21.818  12.145
17803W        W90228   2.772  13.383   0.749
17804W        W90229   0.940  10.300   1.177
17805W        W90230   3.800   1.380   1.019
17806W        W90231  38.661  35.927   1.799
17807W        W90232  27.274  22.229   2.619
17808W        W90233  27.952  41.547   3.175
17809W        W90234  23.736  33.471   2.890
17810W        W90235  26.550   3.730  10.739
17811W        W90236  29.131  20.407  10.537
17812W        W90237   9.904  31.946   0.414
17813W        W90238  22.725   0.937   2.465
17814W        W90239  15.054  29.951  13.429
17815W        W90240  40.032  39.821  10.702
17816W        W90241   6.741  15.767   1.714
17817W        W90242   2.917   2.732   2.751
17818W        W90243  11.642  14.634   1.715
17819W        W90244  29.297  34.339   1.772
17820W        W90245  32.604  35.408  14.490
17821W        W90246  38.281  43.866  10.663
17822W        W90247  44.146  11.686   4.559
17823W        W90248  41.678   9.061  12.432
17824W        W90249  30.163  10.033   2.156
17825W        W90250  16.613  10.300   4.102
17826W        W90251   5.849  35.303  11.585
17827W        W90252  25.753  43.800  11.531
17828W        W90253   1.362   9.456  12.201
17829W        W90254  40.576  34.439  12.619
17830W        W90255  29.715  10.686  12.464
17831W        W90256   6.696  43.531  14.975
17832W        W90257  15.621  25.626   2.160
17833W        W90258  31.991  40.392   1.504
17834W        W90259  11.594  32.494  13.964
17835W        W90260   8.169  31.997  12.949
17836W        W90261  35.252  44.629  14.141
17837W        W90262  40.821  35.380   2.854
17838W        W90263   2.976  36.897  10.782
17839W        W90264  26.014  27.962  13.434
17840W        W90265  24.606  13.092   3.396
17841W        W90266  17.047  17.162  13.580
17842W        W90267  12.432   6.720   3.205
17843W        W90268   7.546  32.182  14.944
17844W        W90269  15.325   0.757   2.308
17845W        W90270  37.021   9.448   4.130
17846W        W90271   2.380  32.585  14.403
17847W        W90272  10.813   9.314  10.522
17848W        W90273   9.422  42.239  11.795
17849W        W90274  35.652  32.122   2.853
17850W        W90275  37.520   0.068   3.128
17851W        W90276   8.938  18.586   4.436
17852W        W90277  24.010  42.938   1.348
17853W        W90278  36.844  40.278   0.512
17854W        W90279   7.650  41.458  14.252
17855W        W90280  21.447  16.519  11.965
17856W        W90281  31.634  15.140   4.512
17857W        W90282  41.826  30.429  11.605
17858W        W90283   2.447  43.358  11.589
17859W        W90284  22.039  12.511   3.667
17860W        W90285  22.157  10.409   0.724
17861W        W90286  36.447  28.209   1.762
17862W        W90287   0.291  33.500   3.358
17863W        W90288  17.232  18.119   4.310
17864W        W90289  17.766   2.787   1.714
17865W        W90290  10.201  22.011  14.040
17866W        W90291   6.735  16.296  13.892
17867W        W90292  13.548  41.021   3.922
17868W        W90293  22.714  18.276   0.294
17869W        W90294  23.117  26.596   3.930
17870W        W90295  37.894  44.920  11.015
17871W        W90296  35.029  12.349   4.051
17872W        W90297  42.934  14.158   1.833
17873W        W90298  42.277   1.833   4.538
17874W        W90299  23.047  27.348   4.900
17875W        W90300   4.461  29.090   0.541
17876W        W90301   6.457  35.150  11.162
17877W        W90302   1.056  24.029   0.811
17878W        W90303  35.886  32.646  12.419
17879W        W90304  32.429  42.401  10.686
17880W        W90305   9.720  23.271   1.452
17881W        W90306   1.354  29.912   3.123
17882W        W90307   4.405  32.058  12.539
17883W        W90308   3.018  28.207  14.880
17884W        W90309  27.960  13.075   0.165
17885W        W90310  28.772   0.802   3.051
17886W        W90311  25.059  44.367   2.781
17887W        W90312  18.339  12.331  11.344
17888W        W90313  27.228  32.719  12.886
17889W        W90314  10.255   9.774  13.089
17890W        W90315   8.157  12.412  11.450
17891W        W90316  11.323  35.341  10.613
17892W        W90317  38.086  22.749   5.015
17893W        W90318  23.611  18.328  10.792
17894W        W90319  25.356  17.566  10.556
17895W        W90320  44.745   6.554   0.424
17896W        W90321  33.536  24.264  13.377
17897W        W90322  40.279  35.569   3.605
17898W        W90323  26.135   2.295  13.770
17899W        W90324  40.049  32.907  10.670
17900W        W90325  19.165  41.482  12.593
17901W        W90326  38.015  39.212   0.945
17902W        W90327  41.914  44.916   3.262
17903W        W90328  24.159  11.142  13.102
17904W        W90329  38.254  32.108   4.548
17905W        W90330  30.074  38.823   4.085
17906W        W90331  14.777   6.211   2.882
17907W        W90332  25.204  26.517  11.758
17908W        W90333  26.594  18.890   5.088
17909W        W90334  43.455  11.359   3.423
17910W        W90335  39.610   0.533   4.696
17911W        W90336  41.721   7.832   2.179
17912W        W90337  23.633  32.438   2.724
17913W        W90338  17.742  14.085   4.679
17914W        W90339  25.727  21.763  11.498
17915W        W90340  22.215   7.930  10.651
17916W        W90341  22.646  25.165   1.784
17917W        W90342  30.157  14.866  13.886
17918W        W90343   2.970   2.004  14.513
17919W        W90344  22.582  10.581  14.399
17920W        W90345  17.679   1.972  13.209
17921W        W90346  27.356  31.112  13.058
17922W        W90347  22.040  29.962  13.345
17923W        W90348   1.261  35.380  14.888
17924W        W90349  17.854  41.685  11.081
17925W        W90350   8.116  32.671   1.383
17926W        W90351   2.806  26.881  12.539
17927W        W90352  38.885   4.926   1.322
17928W        W90353   0.828  27.476   0.483
17929W        W90354   7.402  20.885   1.992
17930W        W90355  16.795  27.165  13.859
17931W        W90356  24.687  40.900   2.425
17932W        W90357  15.673  10.226   0.346
17933W        W90358  36.002  14.796   3.802
17934W        W90359  18.952   1.422  11.581
17935W        W90360  13.265  38.689   5.111
17936W        W90361   0.808  38.539  13.573
17937W        W90362  42.028   8.687  14.271
17938W        W90363  39.948  26.535  12.476
17939W        W90364  24.839  43.068   0.028
17940W        W90365   5.875  28.018   4.828
17941W        W90366  38.983  18.457  14.630
17942W        W90367  39.318  23.650  11.554
17943W        W90368   3.446   4.281  11.474
17944W        W90369   0.287   1.871  10.910
17945W        W90370  43.050   3.252  12.827
17946W        W90371  15.568  26.492   0.124
17947W        W90372   4.658  38.049  13.851
17948W        W90373  32.385   1.183  11.097
17949W        W90374  40.631  16.564   4.162
17950W        W90375  26.294  41.080  11.341
17951W        W90376  23.765  14.235   4.268
17952W        W90377  15.151  35.863  11.920
17953W        W90378   4.490  12.865  10.367
17954W        W90379  39.753  25.531   3.740
17955W        W90380   5.933  14.107   4.156
17956W        W90381   5.442  26.939  12.091
17957W        W90382  19.474  23.634   3.735
17958W        W90383  33.091  35.435   2.676
17959W        W90384  25.714  10.298   4.671
17960W        W90385  16.310  43.119  13.008
17961W        W90386   6.277  41.548  12.823
17962W        W90387  21.431   1.510  14.835
17963W        W90388  19.722  25.557  12.799
17964W        W90389  12.613  13.163  14.280
17965W        W90390  25.155  32.487  12.947
17966W        W90391  21.678   8.768   4.977
17967W        W90392  42.929   4.659  13.530
17968W        W90393  20.174  13.620   0.903
17969W        W90394  23.303  35.992   1.875
17970W        W90395  11.696  10.745   2.879
17971W        W90396  27.440  11.550   3.295
17972W        W90397  32.239   5.147   4.616
17973W        W90398   5.855  41.099   4.799
17974W        W90399  19.678  12.254  12.095
17975W        W90400  34.603  22.025  13.346
17976W        W90401  23.640  22.660   3.815
17977W        W90402  44.361   9.282  14.407
17978W        W90403  34.816  21.146  14.451
17979W        W90404  20.272  19.983   3.986
17980W        W90405  21.173  13.055   3.747
17981W        W90406   1.578  30.029   1.339
17982W        W90407  26.127  18.838   2.700
17983W        W90408  41.074  31.871   0.809
17984W        W90409   4.723   5.239  12.571
17985W        W90410  17.075   2.352  11.001
17986W        W90411  34.132  35.902  13.596
17987W        W90412  19.229  15.962   2.842
17988W        W90413  32.143  43.990  11.539
17989W        W90414  21.234  23.043  14.441
17990W        W90415   1.339   3.177  12.406
17991W        W90416  28.889   6.193   1.291
17992W        W90417  10.669  18.693   3.700
17993W        W90418   1.328  11.860  13.325
17994W        W90419  30.145  21.227   3.181
17995W        W90420  31.901   6.043  13.122
17996W        W90421  24.749  37.487   1.235
17997W        W90422  10.227  43.512   3.779
17998W        W90423   6.260  10.361   2.319
17999W        W90424  34.578  12.589   4.135
18000W        W90425  33.273  13.544   2.189
18001W        W90426  24.969  35.465   2.144
18002W        W90427  22.264  28.412   1.700
18003W        W90428  27.710  25.759   2.635
18004W        W90429   0.713  17.729  12.422
18005W        W90430  34.159   7.275  13.798
18006W        W90431  26.096  31.400  12.921
18007W        W90432  21.798  29.033   0.930
18008W        W90433  14.014  22.677   4.133
18009W        W90434  32.919  13.849  13.391
18010W        W90435  43.297  21.282  10.987
18011W        W90436  18.028   9.237  12.020
18012W        W90437   8.864  34.548   2.314
18013W        W90438  27.624  44.808  14.810
18014W        W90439  23.155  21.559   1.403
18015W        W90440  34.871  14.715  11.237
18016W        W90441  30.886   4.443  10.492
18017W        W90442  32.534  10.116  10.423
18018W        W90443  22.101  37.917   2.428
18019W        W90444  19.496  35.883   2.816
18020W        W90445  32.516  32.028  11.120
18021W        W90446   9.354  36.333   3.749
18022W        W90447   5.315  22.198   0.846
18023W        W90448   7.993  24.734   1.773
18024W        W90449  38.874   7.754   2.758
18025W        W90450   2.780  29.543   4.764
18026W        W90451  32.600  23.887  12.613
18027W        W90452   6.348  21.227  12.167
18028W        W90453  39.529   1.745  13.896
18029W        W90454  16.289  40.014   4.191
18030W        W90455  41.821  12.793  14.810
18031W        W90456  32.787  35.857  14.746
18032W        W90457  44.666  31.416   1.231
18033W        W90458   8.581  17.256   4.536
18034W        W90459  33.037  37.896  12.290
18035W        W90460  15.040  26.880  11.106
18036W        W90461  17.820  31.566  10.707
18037W        W90462   3.904   7.126  10.749
18038W        W90463  24.308  33.419  11.540
18039W        W90464  36.357   0.554   0.852
18040W        W90465  37.570  43.981   4.970
18041W        W90466  24.062   5.940   1.380
18042W        W90467  32.963  15.642   4.797
18043W        W90468  18.647   5.514  11.072
18044W        W90469  27.874  24.224   2.915
18045W        W90470  41.172  22.020  12.144
18046W        W90471  40.663  25.603   3.650
18047W        W90472  33.129   4.436   3.822
18048W        W90473  37.917  40.447  13.810
18049W        W90474  37.037  32.214  12.345
18050W        W90475  39.144   2.692   1.193
18051W        W90476  17.703  13.750   0.403
18052W        W90477  21.978  33.874  14.866
18053W        W90478  24.721   2.849   1.384
18054W        W90479  39.427  33.339   2.164
18055W        W90480   9.089   4.179  13.267
18056W        W90481   2.653   3.696   3.147
18057W        W90482  25.246  28.152   1.179
18058W        W90483  11.227  20.475   1.609
18059W        W90484  29.438  20.781   3.871
18060W        W90485  24.518   6.320   0.225
18061W        W90486  34.016   8.185   2.252
18062W        W90487  44.057  31.224  14.354
18063W        W90488   0.753  30.885   0.557
18064W        W90489   8.120  34.908  14.251
18065W        W90490  17.583  19.951   3.776
18066W        W90491   4.986  39.302  12.016
18067W        W90492  23.431  29.483  11.739
18068W        W90493  27.409  26.674  11.427
18069W        W90494   9.187  28.540  13.071
18070W        W90495  10.686  10.014   4.236
18071W        W90496  14.267  34.063  14.295
18072W        W90497   0.820   9.191  11.691
18073W        W90498  18.524  13.777   3.213
18074W        W90499   7.899   7.326   4.054
18075W        W90500  20.217  10.039   4.988
18076W        W90501   3.777  43.745   1.177
18077W        W90502  43.672   4.336  10.890
18078W        W90503  32.593   1.435   2.308
18079W        W90504   5.207  38.017   0.278
18080W        W90505   5.928   8.248   4.014
18081W        W90506   2.381  38.129  14.248
18082W        W90507  44.395  30.363  10.657
18083W        W90508  43.198   9.675  14.037
18084W        W90509   6.355  21.043   2.704
18085W        W90510  12.584  27.261  10.785
18086W        W90511  27.983   9.050  11.328
18087W        W90512  32.945  12.340   2.878
18088W        W90513  12.189   2.653   2.293
18089W        W90514  34.478   2.250   2.455
18090W        W90515   1.228  31.560  14.394
18091W        W90516  24.080  33.328  12.949
18092W        W90517  36.644   4.902   1.271
18093W        W90518   5.255  14.772  10.711
18094W        W90519  34.827  20.133  11.650
18095W        W90520   4.629  44.227   1.518
18096W        W90521   2.383  35.903   3.381
18097W        W90522   5.433  28.453   4.860
18098W        W90523   3.347  34.625  13.400
18099W        W90524   5.296  35.570  13.317
18100W        W90525   3.069  41.427  11.203
18101W        W90526  19.237  14.473   2.916
18102W        W90527  38.964   3.237  10.659
18103W        W90528  34.985  19.681  14.986
18104W        W90529   7.105  24.047   0.696
18105W        W90530   6.395   8.377  11.108
18106W        W90531  13.666  36.103   2.900
18107W        W90532  27.223  37.609  13.055
18108W        W90533  35.855  13.701   4.648
18109W        W90534  30.009  35.471  12.910
18110W        W90535  10.136   8.133   5.573
18111W        W90536  33.852   0.924   4.176
18112W        W90537  29.590   8.831  10.698
18113W        W90538   2.365   4.867  11.257
18114W        W90539   9.358  19.876  14.393
18115W        W90540   8.772  29.394   1.209
18116W        W90541  10.353  37.482  12.080
18117W        W90542  24.485   9.386   5.023
18118W        W90543  33.709  30.626  10.191
18119W        W90544   5.436  21.726   3.825
18120W        W90545   0.341  26.085   0.865
18121W        W90546  36.018  23.539  11.044
18122W        W90547  30.357  25.606  11.924
18123W        W90548   0.258  29.628   0.504
18124W        W90549  37.768   7.442  14.208
18125W        W90550  32.822  33.665   4.069
18126W        W90551  21.675  19.032  13.339
18127W        W90552  22.735  37.722  14.638
18128W        W90553   2.833  29.518   1.808
18129W        W90554  15.085   4.938  12.903
18130W        W90555   7.821  32.438   3.799
18131W        W90556  15.755  33.883  12.617
18132W        W90557  38.407  32.030   2.798
18133W        W90558  21.529  11.805   4.411
18134W        W90559  27.528  25.451   3.497
18135W        W90560   1.511  33.839   1.439
18136W        W90561   7.828  21.362  11.039
18137W        W90562  30.897  22.806   1.260
18138W        W90563  43.004  27.104  12.073
18139W        W90564  39.368  31.891   3.535
18140W        W90565  31.343  32.178   2.225
18141W        W90566   5.298  35.559  10.741
18142W        W90567   3.696  21.235   4.288
18143W        W90568  16.778  35.594  10.607
18144W        W90569  23.187  43.028   0.848
18145W        W90570  37.113  32.977   0.808
18146W        W90571  12.123  26.540  14.029
18147W        W90572  10.145  26.515  14.003
18148W        W90573  36.055  44.567   2.796
18149W        W90574  43.008  33.963   0.315
18150W        W90575  17.271  30.412  14.670
18151W        W90576  33.053  34.025   2.689
18152W        W90577   2.166  34.953  11.205
18153W        W90578  25.721  10.894   0.870
18154W        W90579   5.874  41.990   0.483
18155W        W90580   9.217  20.314  11.506
18156W        W90581  36.502  16.724  10.736
18157W        W90582  25.944  12.702   2.285
18158W        W90583  44.518  28.894  10.348
18159W        W90584  28.551  40.621   2.305
18160W        W90585  36.490   1.934  14.780
18161W        W90586  23.207  20.186  12.956
18162W        W90587  35.174  26.487   4.106
18163W        W90588  19.281  28.399   2.584
18164W        W90589  14.689  13.201  12.523
18165W        W90590   0.512  10.482   3.964
18166W        W90591   4.461  10.745  13.374
18167W        W90592   6.073  33.659   0.309
18168W        W90593  14.705  36.527  14.920
18169W        W90594  29.664  28.758  13.805
18170W        W90595  30.899   9.591  14.445
18171W        W90596  35.274   7.140   3.765
18172W        W90597  41.205  33.664   2.912
18173W        W90598  18.803  36.106   1.071
18174W        W90599  43.889   1.304   1.390
18175W        W90600  14.096  27.636  13.402
18176W        W90601   1.810   8.939  14.552
18177W        W90602  35.662  34.469  11.088
18178W        W90603  30.197  23.452  12.243
18179W        W90604   2.188  28.451   0.710
18180W        W90605   1.667  12.899   2.876
18181W        W90606  22.090   3.699  13.585
18182W        W90607   6.795  21.965   1.269
18183W        W90608  42.407  20.551   2.800
18184W        W90609  32.200  32.095  12.447
18185W        W90610  37.626  33.805  13.598
18186W        W90611  39.368  24.453  12.513
18187W        W90612  39.810   2.669  12.029
18188W        W90613  16.303   0.233  12.429
18189W        W90614  13.189  17.890  10.223
18190W        W90615  12.085  37.391   0.378
18191W        W90616  16.469  36.757  11.787
18192W        W90617  34.115  25.043   5.104
18193W        W90618  40.218   2.005  10.264
18194W        W90619  36.999  18.711   1.657
18195W        W90620  25.669  23.711   2.839
18196W        W90621  24.300  23.222   1.731
18197W        W90622  20.806  25.007   4.472
18198W        W90623   0.563  15.322  11.079
18199W        W90624  34.966  40.002  14.067
18200W        W90625  31.958  19.700  13.594
18201W        W90626   4.120  34.902  12.588
18202W        W90627   3.629  34.053   4.294
18203W        W90628  38.221  26.423   0.023
18204W        W90629  11.317  21.047  11.574
18205W        W90630  25.378  19.444  12.002
18206W        W90631  28.854  13.918   4.978
18207W        W90632  14.174  33.088   2.144
18208W        W90633  30.749  23.588   3.451
18209W        W90634  16.206  17.216   0.857
18210W        W90635  34.612  24.258  12.458
18211W        W90636  32.007  16.099  10.636
18212W        W90637  25.070  42.590  14.930
18213W        W90638   9.957   1.963   2.148
18214W        W90639  41.833  39.822   2.466
18215W        W90640  24.567  14.233   0.530
18216W        W90641   6.740  13.821  12.556
18217W        W90642  34.013  37.882   0.678
18218W        W90643  40.862   9.578   1.848
18219W        W90644  26.351  38.018  13.879
18220W        W90645   5.506  16.168  10.446
18221W        W90646   0.395  17.847   1.313
18222W        W90647  35.159  25.288   2.873
18223W        W90648  24.446  28.045   4.180
18224W        W90649  13.066  21.333   2.245
18225W        W90650   5.259   0.072  13.669
18226W        W90651  33.520   4.939   2.843
18227W        W90652  30.370   0.895  14.870
18228W        W90653  29.856   6.411  13.038
18229W        W90654  32.923   5.358  12.442
18230W        W90655  39.875   7.715  12.854
18231W        W90656  14.865   7.176   5.112
18232W        W90657  32.759  29.193  14.407
18233W        W90658  27.984  31.808  14.352
18234W        W90659  33.577  37.466   3.084
18235W        W90660  10.713   7.965   5.316
18236W        W90661  23.141  26.669   2.141
18237W        W90662  37.404  38.523  12.172
18238W        W90663  31.873  41.265  13.992
18239W        W90664   7.224  24.924   1.331
18240W        W90665   2.561  36.351   3.591
18241W        W90666  44.364  13.722   3.040
18242W        W90667  44.013  40.815  13.787
18243W        W90668  16.878  14.512  11.066
18244W        W90669  31.239  25.627  11.641
18245W        W90670  28.091  24.420  11.362
18246W        W90671  20.665   5.966  13.364
18247W        W90672  41.878  41.775  11.562
18248W        W90673  19.537  40.272   4.235
18249W        W90674  35.332  33.699   3.736
18250W        W90675  18.776  10.201  14.121
18251W        W90676  22.762  37.025   0.217
18252W        W90677  43.416  41.764   2.692
18253W        W90678  36.021   9.793   4.545
18254W        W90679   8.864  17.694  13.036
18255W        W90680   6.057  37.320  11.150
18256W        W90681  24.434  37.439   3.719
18257W        W90682  25.508   1.404  11.217
18258W        W90683  32.456  13.370  13.857
18259W        W90684  10.946  11.851  11.148
18260W        W90685   7.683   5.309  13.965
18261W        W90686   9.805  39.568  13.013
18262W        W90687  11.268  19.565   2.929
18263W        W90688  40.686  16.964  14.536
18264W        W90689  29.028  20.492   1.074
18265W        W90690  39.114  44.219   2.195
18266W        W90691  33.923  43.190   1.384
18267W        W90692   2.874  22.633  11.171
18268W        W90693  36.555   4.716  12.645
18269W        W90694  22.160  43.416  10.884
18270W        W90695   9.147  23.241  14.088
18271W        W90696  42.044  31.940   3.123
18272W        W90697   9.883  38.047   0.454
18273W        W90698  18.122  41.261   2.800
18274W        W90699  14.676   2.296  10.703
18275W        W90700  27.011  41.060   1.385
18276W        W90701   0.408  26.443   3.030
18277W        W90702   7.637  42.011   1.242
18278W        W90703  17.095   0.959  10.987
18279W        W90704  29.165  33.550   0.245
18280W        W90705  40.465  35.829   1.610
18281W        W90706   3.295  35.580   0.425
18282W        W90707  43.266  23.004  14.857
18283W        W90708  14.358  28.967   0.978
18284W        W90709  21.140  13.586  14.250
18285W        W90710  28.038  16.035  10.758
18286W        W90711   7.968  23.927  10.209
18287W        W90712  21.532  35.948  12.956
18288W        W90713  37.421  27.780   3.445
18289W        W90714  13.779  36.379   0.746
18290W        W90715   6.610   9.106  14.036
18291W        W90716  29.337   6.482  12.972
18292W        W90717  22.978  11.643  11.914
18293W        W90718  24.078  10.177  10.354
18294W        W90719  38.499  22.651   0.811
18295W        W90720  39.949  44.832  12.089
18296W        W90721  44.466  12.668  12.067
18297W        W90722   5.019   5.983  10.717
18298W        W90723  16.744   9.249  12.352
18299W        W90724  28.462  14.819   1.522
18300W        W90725  28.061   5.451   2.939
18301W        W90726  31.583  40.092  12.353
18302W        W90727   6.212  29.620   4.464
18303W        W90728  40.568  18.278   3.622
18304W        W90729  41.603  42.958  11.222
18305W        W90730   0.960  41.257   0.826
18306W        W90731   4.070  34.538   3.617
18307W        W90732  11.371  28.331   3.527
18308W        W90733  35.514  31.476  12.088
18309W        W90734  16.335   6.944   1.199
18310W        W90735  13.143  16.251  11.612
18311W        W90736   4.957  31.549   2.776
18312W        W90737  30.058  37.084  12.868
18313W        W90738  44.962  20.208  11.326
18314W        W90739  16.780  33.416   1.293
18315W        W90740  41.783   3.353  12.427
18316W        W90741  44.919  29.212   0.514
18317W        W90742  30.245  23.698  13.615
18318W        W90743   7.955  31.635   2.833
18319W        W90744  33.144  28.550  13.327
18320W        W90745  39.079   3.367   1.781
18321W        W90746  14.507  28.531   1.920
18322W        W90747   3.477   9.710   2.335
18323W        W90748   5.650  36.661   1.319
18324W        W90749  10.713   8.774   0.474
18325W        W90750  39.690  11.654  11.099
18326W        W90751  30.129  44.479   2.899
18327W        W90752  43.278  12.696  11.721
18328W        W90753   0.771  26.031   4.791
18329W        W90754  12.603   8.644  13.408
18330W        W90755  21.572   8.552  11.988
18331W        W90756  30.992  23.218  13.359
18332W        W90757   5.804  18.142   4.212
18333W        W90758   0.786  27.455  12.991
18334W        W90759  21.632  37.649   0.097
18335W        W90760  16.798  10.122  10.041
18336W        W90761  39.590   6.995   4.615
18337W        W90762   8.810   1.549  11.217
18338W        W90763  43.797  33.158   0.357
18339W        W90764  29.517  13.721   1.368
18340W        W90765  41.479  18.429   4.793
18341W        W90766  41.118  24.249   1.536
18342W        W90767  16.973  25.897   1.528
18343W        W90768  28.743  32.343   0.347
18344W        W90769   0.684  12.592   0.437
18345W        W90770   0.814  31.340  13.915
18346W        W90771   9.957  36.800   1.671
18347W        W90772  14.002  39.629   4.276
18348W        W90773  11.747  15.926   0.155
18349W        W90774  25.246   4.939  13.627
18350W        W90775  40.777  44.309  14.575
18351W        W90776  18.519  36.825  11.568
18352W        W90777  29.975  41.243   3.632
18353W        W90778   1.559  33.518   3.703
18354W        W90779  25.566   2.374  14.863
18355W        W90780  32.084   8.280  11.077
18356W        W90781  26.112  38.781   3.404
18357W        W90782  42.462  41.980   2.580
18358W        W90783  42.284   9.885  10.669
18359W        W90784  30.952  28.832  12.797
18360W        W90785  30.623  33.841  14.970
18361W        W90786  32.101  30.299   0.210
18362W        W90787   9.281  19.124   1.019
18363W        W90788  44.862  36.511  12.377
18364W        W90789  36.604  38.463  10.752
18365W        W90790  12.716  41.731   2.594
18366W        W90791  20.015  25.627   1.321
18367W        W90792  16.134   5.343  11.681
18368W        W90793  20.721  13.583  13.944
18369W        W90794  10.575   8.647   3.766
18370W        W90795  17.351  35.203  13.396
18371W        W90796  43.409   0.103  12.454
18372W        W90797  33.466  27.588  14.983
18373W        W90798  28.003  24.224   4.696
18374W        W90799  31.740   8.814   3.656
18375W        W90800  32.595  23.763   3.900
18376W        W90801   7.787  19.251  11.987
18377W        W90802  29.627  25.888  11.104
18378W        W90803  21.628  26.505  14.097
18379W        W90804  44.926  14.734   3.289
18380W        W90805  41.544   9.738  11.162
18381W        W90806  32.638  32.646  14.372
18382W        W90807  30.435   0.367   0.471
18383W        W90808  22.192  40.377  13.331
18384W        W90809  30.918  39.722  13.032
18385W        W90810  19.264  26.100   3.232
18386W        W90811  16.054  22.304   3.192
18387W        W90812  32.683  17.296  12.074
18388W        W90813  22.258  23.747   3.697
18389W        W90814  32.450   4.745  11.941
18390W        W90815   8.874   0.555   1.559
18391W        W90816  12.766  43.316   0.265
18392W        W90817  40.429  15.217   2.205
18393W        W90818   0.854   1.356  11.257
18394W        W90819   6.710  29.569  11.581
18395W        W90820   9.315  39.785  11.167
18396W        W90821  15.832  19.257   0.196
18397W        W90822  15.404   8.357  11.768
18398W        W90823  26.567  35.646   2.979
18399W        W90824  16.318  14.598  14.019
18400W        W90825   1.976  23.084  12.052
18401W        W90826  44.607  33.394  11.729
18402W        W90827  26.302  42.432  11.178
18403W        W90828   2.791  27.169  14.704
18404W        W90829  31.114  30.164  12.530
18405W        W90830  10.408  11.655  14.976
18406W        W90831  14.771   9.104   1.003
18407W        W90832  43.783  14.098  10.745
18408W        W90833  36.601  43.293  11.828
18409W        W90834  20.750  37.536   1.853
18410W        W90835  42.475  43.476  13.540
18411W        W90836  13.709   8.356  10.760
18412W        W90837  18.652   2.981   1.114
18413W        W90838  16.164  29.667  10.724
18414W        W90839   1.007  16.996  10.124
18415W        W90840  14.326  26.107  11.729
18416W        W90841  12.739  25.473  12.445
18417W        W90842  42.245   4.624  11.129
18418W        W90843  43.729  21.287   3.610
18419W        W90844  44.407  41.527  13.446
18420W        W90845  41.812  23.587  11.778
18421W        W90846  16.561  29.546   4.537
18422W        W90847  19.202  32.615  13.377
18423W        W90848   7.289  38.383  14.816
18424W        W90849  24.950  23.586  13.347
18425W        W90850   8.289   3.901  11.488
18426W        W90851  15.745  36.615  13.352
18427W        W90852  20.157  31.904   4.811
18428W        W90853  33.436  43.000   2.127
18429W        W90854  15.190   0.474  13.341
18430W        W90855  31.866  21.054  12.924
18431W        W90856  23.670  38.509  10.661
18432W        W90857  37.862   4.373  10.472
18433W        W90858   3.905   5.011  11.596
18434W        W90859  30.658  36.476   4.536
18435W        W90860  13.871  31.116   1.224
18436W        W90861  33.336  23.856  13.810
18437W        W90862  39.945   1.536  13.348
18438W        W90863  28.478  40.500  12.650
18439W        W90864  38.606  35.029  11.621
18440W        W90865  30.738   7.901  13.840
18441W        W90866  37.816  10.907  13.431
18442W        W90867  16.843  33.588   3.749
18443W        W90868  19.762  32.631   3.625
18444W        W90869  18.218  22.447  14.934
18445W        W90870  10.634  17.896   1.407
18446W        W90871  23.297  36.557   3.686
18447W        W90872  16.355  31.011  11.170
18448W        W90873   9.787  42.616  12.980
18449W        W90874  10.335  31.528   1.878
18450W        W90875   2.314  30.024   4.133
18451W        W90876  17.973  22.750  11.164
18452W        W90877  10.567  30.247   1.293
18453W        W90878  15.492   1.755   4.182
18454W        W90879   1.555  38.358   0.102
18455W        W90880  11.127  11.092   4.965
18456W        W90881  23.911  42.838  11.833
18457W        W90882  26.382  41.718   4.866
18458W        W90883  25.099  16.086  10.759
18459W        W90884  16.263  36.955  12.776
18460W        W90885  44.554  37.430   1.721
18461W        W90886  29.617  27.047   1.319
18462W        W90887   4.322  36.899   0.060
18463W        W90888   6.812  10.910   1.670
18464W        W90889  23.002   3.091   3.300
18465W        W90890   7.283  10.353  11.247
18466W        W90891  26.669  16.044   0.445
18467W        W90892   8.360  29.667   2.357
18468W        W90893  19.496  20.266  11.378
18469W        W90894   8.415   7.843   3.236
18470W        W90895  16.743  40.335  14.396
18471W        W90896  12.771  42.841  12.136
18472W        W90897  38.578  24.230   2.592
18473W        W90898  11.197  37.083   2.289
18474W        W90899  15.786  23.537  14.795
18475W        W90900  42.497  22.112   1.556
18476W        W90901  18.632   4.925  12.117
18477W        W90902  31.757  17.582  10.665
18478W        W90903   4.281  41.771   1.850
18479W        W90904  44.796  43.820   4.140
18480W        W90905  20.543   6.866  12.166
18481W        W90906   2.270  16.967   0.066
18482W        W90907   2.407  26.186   0.514
18483W        W90908  26.121  37.548  10.604
18484W        W90909  14.117  10.148  12.003
18485W        W90910  37.099  35.421  11.166
18486W        W90911  44.216  20.324   2.660
18487W        W90912  42.993  19.716  10.409
18488W        W90913  41.756  39.865  14.420
18489W        W90914   3.631  32.999   1.923
18490W        W90915  36.266  37.566  14.683
18491W        W90916  22.700  14.825  12.928
18492W        W90917  13.696  27.249  13.481
18493W        W90918  10.273  32.537   3.729
18494W        W90919  33.563  13.346  12.096
18495W        W90920  20.238  30.029   5.090
18496W        W90921  15.672   9.788  12.978
18497W        W90922   0.025  38.981  13.382
18498W        W90923   1.294  22.829   0.362
18499W        W90924  33.832  44.053  13.948
18500W        W90925  12.780  32.512   1.416
18501W        W90926  24.315  14.107  14.543
18502W        W90927  28.866  24.619  13.058
18503W        W90928  42.826   1.230   2.327
18504W        W90929  36.390  43.818  13.570
18505W        W90930  20.696  12.390   4.646
18506W        W90931  35.382  22.624  13.344
18507W        W90932  44.354   2.748   0.451
18508W        W90933  29.122  14.317  10.589
18509W        W90934  36.020   7.355  12.406
18510W        W90935  22.019  34.359  12.377
18511W        W90936  28.166  17.629   2.688
18512W        W90937  29.619  29.009  13.134
18513W        W90938   8.418  24.782   0.889
18514W        W90939  39.825   8.382  13.522
18515W        W90940   0.005  44.968  14.954
18516W        W90941  11.351  27.954   0.898
18517W        W90942   3.511  40.082  13.990
18518W        W90943  26.151  17.920  12.152
18519W        W90944  40.942  12.256   1.650
18520W        W90945   6.672  18.710  13.819
18521W        W90946  20.481  31.842   0.527
18522W        W90947   9.733  27.832  14.718
18523W        W90948  35.835  21.696   0.070
18524W        W90949  44.931  32.151   3.586
18525W        W90950  34.677   3.321  11.765
18526W        W90951  17.825  13.607   3.837
18527W        W90952  19.195  35.492   2.647
18528W        W90953   7.961  36.075  13.350
18529W        W90954  28.514  33.605   4.260
18530W        W90955  33.942  24.519   3.340
18531W        W90956  39.000   8.364   3.322
18532W        W90957  13.375  29.142  10.641
18533W        W90958  30.636  36.548  13.825
18534W        W90959   6.348   6.122  10.713
18535W        W90960  42.997  38.549   2.776
18536W        W90961  37.049  15.755  14.905
18537W        W90962  29.047  31.628   2.307
18538W        W90963   3.355  35.085  14.340
18539W        W90964  29.533  39.060   2.416
18540W        W90965  16.762  16.322   3.945
18541W        W90966  21.709  36.071  13.433
18542W        W90967  17.898  22.275  11.934
18543W        W90968  15.605  40.532  14.819
18544W        W90969  30.352   8.367  11.892
18545W        W90970  31.969  35.892   2.027
18546W        W90971  35.163  18.697   2.554
18547W        W90972  21.688  27.994  14.360
18548W        W90973  20.646   9.405  11.686
18549W        W90974   7.100  10.044  12.015
18550W        W90975  28.383  20.965   0.326
18551W        W90976  39.516  20.662   3.693
18552W        W90977  24.190  16.656  10.690
18553W        W90978   3.414   6.190  12.831
18554W        W90979  31.565  14.350   0.315
18555W        W90980  24.951  41.558  13.889
18556W        W90981  22.061  14.307   2.809
18557W        W90982   3.421  24.624  10.623
18558W        W90983  38.019  11.694   0.328
18559W        W90984  33.851   9.021  10.692
18560W        W90985   4.802  22.115   3.344
18561W        W90986  13.386   3.336   3.186
18562W        W90987   9.503  33.809  11.640
18563W        W90988  44.016   7.412  14.969
18564W        W90989   3.100  12.550  11.577
18565W        W90990   5.702   1.412  13.771
18566W        W90991  35.098  43.289   5.006
18567W        W90992  10.093  39.975  14.444
18568W        W90993  32.932   1.436   1.400
18569W        W90994   7.725  14.958   4.344
18570W        W90995   6.369  27.938  13.476
18571W        W90996  10.993  18.092   0.147
18572W        W90997  29.148  37.594   4.600
18573W        W90998  22.979  42.802  13.374
18574W        W90999  18.750  24.152   3.582
18575W        W91000  32.535  35.029   1.345
18576W        W91001  31.577   2.358  11.130
18577W        W91002  18.412  22.781  10.175
18578W        W91003   9.238  11.333   2.416
18579W        W91004   8.361  13.534  12.843
18580W        W91005  20.731  31.873  12.034
18581W        W91006  33.364  29.636   0.629
18582W        W91007   2.344   9.323   1.365
18583W        W91008  35.487  16.198  14.299
18584W        W91009  42.934  43.343   1.460
18585W        W91010   8.671   4.370   5.020
18586W        W91011  38.275  14.094   1.478
18587W        W91012  30.943   4.927  10.760
18588W        W91013  27.675  12.018   3.304
18589W        W91014   4.396  37.251   1.258
18590W        W91015   2.469  22.682   2.147
18591W        W91016  37.358  33.391   2.240
18592W        W91017  23.087  20.990  11.539
18593W        W91018   8.337   9.894   2.148
18594W        W91019   3.531  28.119  14.791
18595W        W91020   8.861  41.789   0.985
18596W        W91021  29.790  41.232   2.792
18597W        W91022  41.029  19.463   0.780
18598W        W91023  33.680   4.962   9.966
18599W        W91024  41.879   1.792   3.193
18600W        W91025  30.128  38.792   4.597
18601W        W91026  15.818  22.200  13.698
18602W        W91027  43.359  15.277  12.518
18603W        W91028  37.029  35.824   3.280
18604W        W91029   3.247   3.378   4.951
18605W        W91030  40.043  40.025   3.659
18606W        W91031  14.389  15.144   0.890
18607W        W91032  12.512  44.930  14.314
18608W        W91033   4.539   4.402   4.959
18609W        W91034  39.593  22.635  14.852
18610W        W91035  44.323  37.831  13.766
18611W        W91036  15.079  34.591  13.179
18612W        W91037  25.915  40.795  12.107
18613W        W91038  27.049  44.758  10.897
18614W        W91039  42.062  39.857  10.450
18615W        W91040  13.699  18.036   2.325
18616W        W91041   1.058   3.804   0.913
18617W        W91042  25.179  42.925  14.077
18618W        W91043  10.004   1.563   3.708
18619W        W91044  23.512   1.622  11.958
18620W        W91045  33.628  31.881   1.424
18621W        W91046   1.286   7.416  12.481
18622W        W91047  31.972  37.046  14.667
18623W        W91048  12.142  39.105  14.037
18624W        W91049  42.524  29.607   4.433
18625W        W91050   8.747   8.367  10.136
18626W        W91051  15.213  34.510  12.185
18627W        W91052  41.039  26.986   0.995
18628W        W91053  31.144   0.362  14.856
18629W        W91054   9.818  34.488   3.137
18630W        W91055  10.653  36.887  11.407
18631W        W91056   8.050  31.243   4.193
18632W        W91057  21.578  32.913  12.672
18633W        W91058  36.638  10.086   2.326
18634W        W91059  21.066  33.507   0.532
18635W        W91060   4.241  40.394   1.954
18636W        W91061   7.886   1.206  13.604
18637W        W91062  23.734  37.570  14.161
18638W        W91063   6.691  29.737  13.389
18639W        W91064  37.065  16.994   2.282
18640W        W91065  41.435   6.870   4.497
18641W        W91066   6.670  40.858  13.581
18642W        W91067  30.295  23.947  12.376
18643W        W91068  25.143  21.059   3.358
18644W        W91069  13.623   2.340   2.262
18645W        W91070   2.914  13.087   1.588
18646W        W91071  17.807   7.157   0.357
18647W        W91072  16.363   6.941  12.519
18648W        W91073  23.751  12.881   0.856
18649W        W91074  38.550  25.523  11.614
18650W        W91075   6.211  10.049   3.278
18651W        W91076  41.938  28.607   1.654
18652W        W91077  11.737   7.669  10.694
18653W        W91078  40.478   8.750  11.630
18654W        W91079  19.535  43.814   0.305
18655W        W91080   3.158  13.618  14.448
18656W        W91081  11.941  21.786  13.391
18657W        W91082  33.015  23.958  13.327
18658W        W91083  43.298   2.083  12.894
18659W        W91084  14.250   5.911  14.061
18660W        W91085   5.836  39.531   4.723
18661W        W91086  38.023  11.073   4.149
18662W        W91087   9.190  17.881   1.207
18663W        W91088  43.965  27.953   2.224
18664W        W91089  29.112  19.588   1.292
18665W        W91090  11.092  12.809   3.138
18666W        W91091  23.047   8.333  13.998
18667W        W91092   7.314  15.260   4.273
18668W        W91093  34.403  22.216   4.209
18669W        W91094  32.820  12.257   3.673
18670W        W91095  23.727  14.283   3.362
18671W        W91096  21.249  37.775   2.314
18672W        W91097  27.249  35.964   1.434
18673W        W91098  23.584  34.899  10.664
18674W        W91099  25.560  20.012  11.772
18675W        W91100  10.833  13.648  12.842
18676W        W91101   3.382  38.798   4.308
18677W        W91102  23.463  29.731  11.308
18678W        W91103   1.385  25.956   2.624
18679W        W91104  12.860  30.126  11.491
18680W        W91105  38.821   1.778  13.317
18681W        W91106  18.103   5.245   1.045
18682W        W91107   7.869  40.546   2.278
18683W        W91108  33.627  21.202  11.170
18684W        W91109  35.839  35.514   1.966
18685W        W91110  32.616  40.072   4.881
18686W        W91111  32.941  40.999   0.860
18687W        W91112  17.264  44.414  13.227
18688W        W91113  19.958  23.117   4.163
18689W        W91114  32.865  30.484   2.735
18690W        W91115  34.000   7.820  13.795
18691W        W91116  10.365   7.274  11.413
18692W        W91117  31.071   1.024   1.768
18693W        W91118   7.420  35.313   4.365
18694W        W91119   3.460  19.615  13.555
18695W        W91120  27.056  33.570  12.430
18696W        W91121  30.207  10.312   0.372
18697W        W91122  11.162  34.893  13.357
18698W        W91123  20.049  22.742   2.429
18699W        W91124   7.233   2.369  10.777
18700W        W91125  36.067  35.167  12.047
18701W        W91126  24.156  13.706   3.628
18702W        W91127  30.481   4.523   4.177
18703W        W91128  16.538  23.185   3.618
18704W        W91129  12.247  20.122   0.704
18705W        W91130  37.951  43.695   5.166
18706W        W91131  18.514   7.848  14.290
18707W        W91132  14.147  31.185  11.300
18708W        W91133  29.537  16.132   3.430
18709W        W91134   5.499  26.697   3.740
18710W        W91135  35.463  31.934  11.188
18711W        W91136   8.644  22.918  14.751
18712W        W91137   6.414  34.381  12.377
18713W        W91138  37.070  10.493  14.400
18714W        W91139   1.237  16.882   1.236
18715W        W91140  28.230   9.285   1.824
18716W        W91141   0.709  16.743  11.928
18717W        W91142  28.024  33.864   5.006
18718W        W91143  10.818   2.835   3.228
18719W        W91144  22.727   4.384   1.408
18720W        W91145  38.447  21.613   1.280
18721W        W91146   7.617   1.739   1.332
18722W        W91147  44.090  20.669  12.105
18723W        W91148  25.808  35.558   0.222
18724W        W91149  39.008   2.000   2.829
18725W        W91150  15.750  29.190  11.939
18726W        W91151   4.473  38.607   0.443
18727W        W91152  21.933  31.917   4.078
18728W        W91153   2.036  36.467   1.656
18729W        W91154  14.642  26.578   3.752
18730W        W91155  40.792  15.167  12.472
18731W        W91156  26.308  27.196   3.533
18732W        W91157  16.547   0.495  11.974
18733W        W91158  34.367  37.536   1.487
18734W        W91159  10.862   9.754   2.783
18735W        W91160   0.270   7.408   1.339
18736W        W91161  44.134  20.716   4.339
18737W        W91162  35.971   0.313  13.659
18738W        W91163  11.105  11.878   4.641
18739W        W91164  25.690  42.516   3.595
18740W        W91165  14.647   5.271   4.622
18741W        W91166   6.923  18.250  10.687
18742W        W91167  38.975  29.309   2.823
18743W        W91168  39.844  16.069   4.148
18744W        W91169   9.151   6.179   1.862
18745W        W91170  33.211   1.372   0.969
18746W        W91171  36.084  12.557   1.397
18747W        W91172  16.146  21.659  11.026
18748W        W91173  21.114  20.796   1.758
18749W        W91174  33.697  10.263   3.680
18750W        W91175   8.266  31.133   2.264
18751W        W91176  11.326  34.855  10.767
18752W        W91177  24.576  18.878  12.910
18753W        W91178  30.571  35.096   0.224
18754W        W91179  10.877  19.206  14.902
18755W        W91180  33.613  38.090   3.407
18756W        W91181   4.601  29.391  10.817
18757W        W91182  35.476  14.630  12.657
18758W        W91183  12.751  10.404   3.195
18759W        W91184   8.187  31.904  12.053
18760W        W91185  18.374  36.387  14.364
18761W        W91186  38.414  27.351   3.577
18762W        W91187   3.350  37.042  12.048
18763W        W91188  10.401  17.732  12.946
18764W        W91189  15.777  17.240  14.038
18765W        W91190  36.548  44.817  14.851
18766W        W91191  26.647   9.362   4.765
18767W        W91192  28.822  34.842  13.763
18768W        W91193  30.213  28.190   2.408
18769W        W91194  22.644   1.219   3.745
18770W        W91195  33.035   4.146   2.783
18771W        W91196  23.670   5.262   1.851
18772W        W91197  30.307  12.109   1.744
18773W        W91198  22.715  21.968  12.119
18774W        W91199   2.457  44.306   0.998
18775W        W91200   0.942  25.470   3.183
18776W        W91201  36.353   5.933   3.639
18777W        W91202   2.272  18.996   3.723
18778W        W91203  13.137  38.396   3.231
18779W        W91204   5.759  23.108   0.852
18780W        W91205  34.346   2.802  14.414
18781W        W91206  37.458   0.818  13.892
18782W        W91207  21.716  43.595   1.914
18783W        W91208  23.060  35.497  11.242
18784W        W91209  13.814  26.462   3.182
18785W        W91210   1.430  40.497   1.408
18786W        W91211  38.125   8.311  14.391
18787W        W91212  11.062   0.938   2.008
18788W        W91213   3.025  10.050   4.418
18789W        W91214  21.317  38.431  11.648
18790W        W91215  33.829  21.750  11.932
18791W        W91216   8.457  28.103   3.987
18792W        W91217   4.916   8.172  10.698
18793W        W91218  33.971  43.363  13.383
18794W        W91219  13.347  34.628   2.803
18795W        W91220   2.799  20.801   0.379
18796W        W91221  29.588  24.764   0.005
18797W        W91222   5.274  20.620  12.419
18798W        W91223   4.879  21.789  13.896
18799W        W91224  24.974  23.095   2.065
18800W        W91225   9.437  31.686   0.730
18801W        W91226  24.516  24.689  14.742
18802W        W91227  36.891  44.102  12.506
18803W        W91228  16.253  40.231  13.614
18804W        W91229   8.364  12.847   1.578
18805W        W91230   9.317  18.267  14.655
18806W        W91231  22.737   6.904   0.949
18807W        W91232  11.049  13.120   4.521
18808W        W91233  24.373   0.335  13.901
18809W        W91234  16.608  40.456   2.761
18810W        W91235  22.070  12.846  11.148
18811W        W91236  24.928  22.977  14.218
18812W        W91237  28.843  25.454  13.980
18813W        W91238  29.170  27.426   4.281
18814W        W91239  16.444   8.417   1.240
18815W        W91240  12.449  20.260   3.716
18816W        W91241  29.181   9.215   1.624
18817W        W91242  29.596   5.713  10.687
18818W        W91243  12.873  17.368   3.456
18819W        W91244  13.915  14.263  10.361
18820W        W91245  18.209  10.443   2.330
18821W        W91246  40.203   9.221   3.288
18822W        W91247  32.563  44.888   2.316
18823W        W91248  14.110  25.462  12.331
18824W        W91249   2.537  44.008  14.961
18825W        W91250  38.742  36.075   1.211
18826W        W91251  20.766   4.178  10.758
18827W        W91252  22.562  28.634  10.700
18828W        W91253  41.430  22.828  14.307
18829W        W91254  24.197   2.823   1.403
18830W        W91255   7.738  40.420  12.076
18831W        W91256  35.073  43.859   3.254
18832W        W91257  41.463   7.785  10.710
18833W        W91258  29.008  27.542  11.482
18834W        W91259  21.284  20.335   3.171
18835W        W91260   6.370  25.012   4.536
18836W        W91261  35.766  31.963  10.756
18837W        W91262  26.012  34.556  12.388
18838W        W91263  25.920  27.003  14.324
18839W        W91264  36.590   8.630  12.093
18840W        W91265  30.431  34.524   1.837
18841W        W91266  17.759  26.743  12.567
18842W        W91267  18.737   9.464   3.350
18843W        W91268   7.688  42.913  10.608
18844W        W91269  35.511   7.643  14.050
18845W        W91270  34.236  31.721   0.002
18846W        W91271  41.731  29.711  12.063
18847W        W91272  26.934  23.554  13.419
18848W        W91273  11.905   6.208  14.157
18849W        W91274  43.099   1.483   2.891
18850W        W91275  25.450  31.574  14.580
18851W        W91276  18.098  10.239  11.484
18852W        W91277   0.923  33.135  12.084
18853W        W91278  27.583  18.649  12.045
18854W        W91279  29.074  17.297   1.260
18855W        W91280  10.278  43.520  10.605
18856W        W91281  36.890   6.075   3.714
18857W        W91282  20.127  17.276  14.311
18858W        W91283  38.917  36.693  14.090
18859W        W91284  44.032  27.924  14.972
18860W        W91285  28.907  32.047  13.030
18861W        W91286  21.298  36.464  12.660
18862W        W91287   0.817  40.952   2.176
18863W        W91288  26.346  20.631   1.488
18864W        W91289  28.189   1.251   3.801
18865W        W91290  18.622  23.196  12.410
18866W        W91291  41.443  28.649   1.484
18867W        W91292  20.983   2.251  12.086
18868W        W91293   7.366  29.042   3.375
18869W        W91294  32.740  13.205   0.266
18870W        W91295  39.832  19.874   0.352
18871W        W91296  17.184   4.558   1.972
18872W        W91297  25.953   6.150   3.812
18873W        W91298  39.580  21.105   1.341
18874W        W91299  36.951  15.835  13.889
18875W        W91300  30.259  11.324   3.106
18876W        W91301  24.263   3.009  11.251
18877W        W91302  38.454  24.886   4.151
18878W        W91303  23.819  36.057   1.873
18879W        W91304  31.583  33.862  12.503
18880W        W91305  24.163  42.457   1.366
18881W        W91306  20.804   2.904   2.847
18882W        W91307  43.878   5.223  13.373
18883W        W91308  11.578   8.682   1.727
18884W        W91309   6.115  21.314  14.803
18885W        W91310   8.774   6.366   2.211
18886W        W91311  35.354  28.703  12.217
18887W        W91312  12.630  17.148  14.467
18888W        W91313  37.463   7.162   2.423
18889W        W91314  36.884  17.532  12.607
18890W        W91315  22.464  13.686  12.481
18891W        W91316  42.335   2.769   4.672
18892W        W91317  39.702  42.396   1.433
18893W        W91318  18.849  27.151   4.846
18894W        W91319  24.020  31.301  12.316
18895W        W91320  11.708   4.369  11.648
18896W        W91321  35.100  35.716  14.549
18897W        W91322   7.272   0.950   1.758
18898W        W91323  32.386   7.601  10.670
18899W        W91324  34.621   1.785   0.527
18900W        W91325  33.314  21.704   4.217
18901W        W91326  34.942  11.733   1.414
18902W        W91327   4.396  13.253  11.653
18903W        W91328  44.900   7.715  14.300
18904W        W91329  36.498  39.913  10.601
18905W        W91330  31.714  34.633  12.078
18906W        W91331  26.733  20.197  14.689
18907W        W91332  24.286  18.523  12.528
18908W        W91333  33.406  33.620  13.999
18909W        W91334  20.188   1.426  13.062
18910W        W91335  12.103  27.047   4.739
18911W        W91336  31.896  15.576  10.650
18912W        W91337  40.789  30.508  14.947
18913W        W91338  28.710   5.685  11.589
18914W        W91339  34.345  14.435   2.195
18915W        W91340  13.936  11.059   3.343
18916W        W91341  43.473   5.222  11.919
18917W        W91342  44.969   4.300   0.035
18918W        W91343  39.516  33.580  10.126
18919W        W91344   6.395  36.777   2.493
18920W        W91345  13.769  37.474   3.095
18921W        W91346  44.768  19.763  13.453
18922W        W91347  12.153  17.253   2.727
18923W        W91348  12.849  33.655  11.694
18924W        W91349  24.629  17.720   1.812
18925W        W91350  18.748  36.656   4.637
18926W        W91351  15.687  11.251   4.542
18927W        W91352   4.993  40.544  11.424
18928W        W91353  41.934  12.635  12.545
18929W        W91354  32.861  16.926  14.239
18930W        W91355  19.777  41.301   3.774
18931W        W91356  21.490   1.044  14.601
18932W        W91357  31.409   8.281  11.934
18933W        W91358  15.567  19.664   4.131
18934W        W91359  35.754  34.898  11.623
18935W        W91360   2.823   4.995  11.061
18936W        W91361  12.693   0.488   3.608
18937W        W91362  12.655  22.294  14.814
18938W        W91363  11.362   6.307   3.847
18939W        W91364  13.872  26.123  11.993
18940W        W91365  29.653  42.070   2.596
18941W        W91366  23.956   7.863  12.831
18942W        W91367   8.265  26.487   2.793
18943W        W91368  22.189  34.571  10.794
18944W        W91369  13.130  34.252   0.274
18945W        W91370  17.745   1.885   2.806
18946W        W91371  19.418  15.193  13.327
18947W        W91372   8.155  26.950  11.426
18948W        W91373  42.109  28.664   4.172
18949W        W91374  28.923  30.138  11.273
18950W        W91375  29.766  11.995   4.518
18951W        W91376  31.936  26.806   1.360
18952W        W91377  42.935   3.298  13.747
18953W        W91378  21.959  12.995   2.220
18954W        W91379  22.212  43.504  12.737
18955W        W91380  22.212  13.316  14.140
18956W        W91381   5.667   5.102  10.988
18957W        W91382  21.742  17.866   0.591
18958W        W91383  44.773   9.368  13.021
18959W        W91384  13.216  31.196   0.004
18960W        W91385   8.991   1.796   3.800
18961W        W91386   9.777  25.079  14.974
18962W        W91387   4.630  24.226  12.785
18963W        W91388  15.850   2.239  12.385
18964W        W91389  41.951  21.525   2.104
18965W        W91390  14.652  21.003  14.795
18966W        W91391  10.873  25.681   3.778
18967W        W91392  17.277  43.584   4.407
18968W        W91393  18.578  22.250  13.343
18969W        W91394   6.140  20.660   4.618
18970W        W91395  41.526   7.940  11.224
18971W        W91396  10.667  23.548   2.138
18972W        W91397  23.559   8.197  11.463
18973W        W91398  16.626   1.250  13.337
18974W        W91399   4.161   3.228   3.850
18975W        W91400  37.056   7.893  12.142
18976W        W91401   9.282  39.570  13.024
18977W        W91402   7.395   3.793   3.758
18978W        W91403   9.750  44.771   2.275
18979W        W91404   0.143  18.760  13.409
18980W        W91405  22.463  17.807   3.621
18981W        W91406  28.047  26.904  14.849
18982W        W91407  39.099   2.957  11.072
18983W        W91408  17.312  43.870   0.541
18984W        W91409  17.753  30.454  11.660
18985W        W91410  37.095  20.581   4.161
18986W        W91411  10.585   7.248   5.115
18987W        W91412  13.619  22.371   3.990
18988W        W91413   1.961  37.612   5.070
18989W        W91414  21.528  37.585   1.038
18990W        W91415  30.458  30.465   0.969
18991W        W91416  34.936  37.221   2.449
18992W        W91417  41.019  29.983   4.650
18993W        W91418  21.113   8.812  11.978
18994W        W91419   5.419   9.141  12.533
18995W        W91420   9.301  33.054  12.698
18996W        W91421  42.002  38.311  11.869
18997W        W91422  13.534  31.384   4.074
18998W        W91423  12.628  18.486  12.239
18999W        W91424  21.558  30.608  11.971
19000W        W91425   2.736  17.690   2.926
19001W        W91426  30.576  17.556  13.382
19002W        W91427  26.518  39.307  10.804
19003W        W91428   0.870  14.303   1.171
19004W        W91429  13.584  24.414   0.193
19005W        W91430  18.445  43.007  12.920
19006W        W91431  33.642   2.797   2.810
19007W        W91432  33.174   4.889   3.257
19008W        W91433  22.240  35.443   2.858
19009W        W91434  18.754  37.614  12.600
19010W        W91435  15.238  30.063   0.286
19011W        W91436  21.687  11.443  14.210
19012W        W91437  34.204  15.030   3.697
19013W        W91438  13.170  15.179   3.597
19014W        W91439  22.615   2.925   3.628
19015W        W91440  31.404  26.556   3.045
19016W        W91441  14.031  38.349   1.122
19017W        W91442  14.024  20.433   0.800
19018W        W91443  17.024  11.083  11.632
19019W        W91444  24.731  28.617   3.369
19020W        W91445  40.269  35.440   4.592
19021W        W91446  43.873  26.007  11.512
19022W        W91447  18.701   8.334   0.770
19023W        W91448   6.276  13.712   1.991
19024W        W91449  43.259  44.391  11.213
19025W        W91450   1.786  19.292  11.098
19026W        W91451  15.596  16.241  11.110
19027W        W91452  40.812  21.161  12.419
19028W        W91453  22.169   3.602  11.073
19029W        W91454  40.959  30.597  10.832
19030W        W91455  33.049  40.738   4.156
19031W        W91456  10.669  11.781   3.925
19032W        W91457  19.310   6.266   1.893
19033W        W91458  15.524  25.931   1.753
19034W        W91459  12.654  11.117  12.340
19035W        W91460  17.494  39.003  10.839
19036W        W91461   7.298   2.945  11.498
19037W        W91462  23.996   1.937  12.820
19038W        W91463   7.977   2.659  14.388
19039W        W91464  41.839  23.028   3.162
19040W        W91465  28.132  42.280  11.213
19041W        W91466  25.162  25.629   4.553
19042W        W91467  26.822   8.763   3.238
19043W        W91468  28.481  35.301  11.723
19044W        W91469  16.101  18.119   0.475
19045W        W91470   7.757  11.753  13.796
19046W        W91471  29.582  30.760   3.192
19047W        W91472  28.680  32.591  14.361
19048W        W91473  43.602  44.001   4.875
19049W        W91474   7.413   9.446   1.176
19050W        W91475  15.808  29.969   2.483
19051W        W91476   9.308   7.048  13.476
19052W        W91477  35.921   0.581   1.635
19053W        W91478  16.733  30.036   0.206
19054W        W91479   5.752  22.495  10.584
19055W        W91480  12.239   1.904   3.508
19056W        W91481  17.564   0.955   2.232
19057W        W91482  19.040  27.447   3.195
19058W        W91483  23.971  26.590   2.835
19059W        W91484  13.664  32.229   2.426
19060W        W91485  26.171  13.466   0.246
19061W        W91486  32.697  21.991   1.752
19062W        W91487  26.741   9.744   1.049
19063W        W91488   5.842  44.075  10.698
19064W        W91489  12.893  14.397   3.213
19065W        W91490  43.528  39.859   3.294
19066W        W91491   5.879   5.344  12.778
19067W        W91492  29.508  26.475   1.302
19068W        W91493  39.507  21.661   4.543
19069W        W91494   0.308  41.294  12.515
19070W        W91495  36.927  17.029   0.995
19071W        W91496  42.364   9.216   1.763
19072W        W91497   0.028  34.208  14.577
19073W        W91498  22.262  32.057  14.067
19074W        W91499  44.836  10.801   1.236
19075W        W91500  44.844   8.928   4.557
19076W        W91501  29.929  29.628   2.606
19077W        W91502  24.151  33.741  11.923
19078W        W91503  43.878  14.408  14.371
19079W        W91504  32.069  30.366  10.212
19080W        W91505   3.268  43.436  14.207
19081W        W91506  10.401   0.862   0.780
19082W        W91507   1.537  31.014  12.584
19083W        W91508   4.866  39.954   2.612
19084W        W91509  25.655  23.982  13.968
19085W        W91510  18.637  26.524   3.601
19086W        W91511  20.281  39.432  12.858
19087W        W91512   9.632  26.150  13.562
19088W        W91513  25.999  38.703   0.545
19089W        W91514  34.514   8.923  12.050
19090W        W91515  11.287  44.375  14.458
19091W        W91516  28.284   2.188  11.195
19092W        W91517   5.519  28.522   3.337
19093W        W91518  21.205   7.339  10.156
19094W        W91519  15.698  41.387  14.301
19095W        W91520   0.010  40.344   1.239
19096W        W91521   8.645   2.444  10.910
19097W        W91522  28.438  29.726   1.620
19098W        W91523   1.223  20.162   1.873
19099W        W91524   5.250  32.630   3.658
19100W        W91525  44.256  28.139  12.490
19101W        W91526  12.954  15.356   0.429
19102W        W91527  12.906  43.878  12.428
19103W        W91528  34.876  26.199   3.651
19104W        W91529   0.476  17.356   0.914
19105W        W91530  16.147   1.194   2.272
19106W        W91531   4.973  32.443   0.062
19107W        W91532   2.950   5.367  14.854
19108W        W91533  41.268  10.216   1.259
19109W        W91534   5.533  37.168   4.317
19110W        W91535  34.300  36.424  13.164
19111W        W91536   6.429  20.215  12.936
19112W        W91537  27.127  44.328   1.991
19113W        W91538  16.354  42.953   0.958
19114W        W91539  19.750  37.740   2.606
19115W        W91540   5.752  16.379   0.248
19116W        W91541  38.262  30.671  11.219
19117W        W91542  12.829  35.893  12.880
19118W        W91543   0.274   7.676  13.385
19119W        W91544   4.875   0.358   0.248
19120W        W91545   9.326  37.869   0.790
19121W        W91546   7.599  14.349   1.762
19122W        W91547  15.653  35.991   2.208
19123W        W91548   0.658  37.735   0.492
19124W        W91549  20.160   4.415  14.777
19125W        W91550  15.905  16.311  12.588
19126W        W91551  32.955   3.942  11.434
19127W        W91552  20.748  35.461  13.393
19128W        W91553   5.802  13.063  14.588
19129W        W91554   7.581  31.192  12.834
19130W        W91555  35.680  25.571   0.338
19131W        W91556   4.354  19.816  14.094
19132W        W91557  36.123  29.970   4.672
19133W        W91558  14.330  25.418   0.859
19134W        W91559   3.989   1.916   4.168
19135W        W91560  22.059  41.434   3.199
19136W        W91561  13.818   9.353   2.665
19137W        W91562  42.817   0.484   2.876
19138W        W91563  34.222  42.970  10.744
19139W        W91564   0.673  28.678  13.938
19140W        W91565  20.511  32.462   1.358
19141W        W91566  13.597  18.488  13.908
19142W        W91567  39.992  43.493  10.240
19143W        W91568  21.601  21.614  13.735
19144W        W91569   5.795  13.351  12.435
19145W        W91570  17.141  39.005  14.355
19146W        W91571   5.474  33.624   1.694
19147W        W91572   4.714  17.308  11.367
19148W        W91573  22.861  23.106  14.750
19149W        W91574  29.951   1.511   3.539
19150W        W91575  19.669   3.509   0.468
19151W        W91576  32.526  32.576  11.809
19152W        W91577  15.112   2.144  13.921
19153W        W91578  14.461  34.718   1.516
19154W        W91579  17.747  30.573  10.650
19155W        W91580  36.548  26.733  14.861
19156W        W91581  22.269  23.352  11.998
19157W        W91582  30.529  18.529   4.594
19158W        W91583  38.486  16.230   0.804
19159W        W91584  20.412  12.689   0.843
19160W        W91585   1.707  13.667  10.888
19161W        W91586  16.153  32.597  10.707
19162W        W91587  40.710  17.109  11.370
19163W        W91588  18.116   5.758  14.256
19164W        W91589  19.391  31.449  14.034
19165W        W91590  19.067  42.030   0.853
19166W        W91591  16.341   8.104  11.351
19167W        W91592  37.897  44.528   1.796
19168W        W91593  20.314  34.069   2.851
19169W        W91594   1.470  10.764  11.736
19170W        W91595   2.034   4.480  13.975
19171W        W91596  21.157   1.727  13.440
19172W        W91597   2.808  35.958   3.067
19173W        W91598  15.940  44.463  14.785
19174W        W91599   8.699  44.038   4.361
19175W        W91600  14.658  15.774   0.156
19176W        W91601   5.386  13.353   3.271
19177W        W91602   0.098  22.447  10.837
19178W        W91603  26.621  32.848  10.273
19179W        W91604  16.045  41.324   0.395
19180W        W91605  41.892  21.631  11.185
19181W        W91606  35.495   8.548  12.145
19182W        W91607  44.766   5.795  12.337
19183W        W91608  35.635  35.036  10.709
19184W        W91609   3.365  27.167  11.639
19185W        W91610  37.950  26.778   4.083
19186W        W91611  23.143  14.517  11.690
19187W        W91612  18.653  19.712  12.400
19188W        W91613  36.611  40.260  14.524
19189W        W91614   1.700   6.483   1.661
19190W        W91615  16.308  23.820   0.257
19191W        W91616  23.771  22.458   9.838
19192W        W91617  38.540  18.102   4.128
19193W        W91618  10.990  13.214  11.122
19194W        W91619   5.111  31.085   2.972
19195W        W91620  10.468  29.892   2.695
19196W        W91621  30.498  11.358   4.151
19197W        W91622  31.880   2.850  14.395
19198W        W91623  36.535  43.165  14.520
19199W        W91624  26.001  27.664  10.470
19200W        W91625  14.320  29.122  10.660
19201W        W91626   1.769  17.572   0.309
19202W        W91627   9.371  26.985   2.169
19203W        W91628  11.020  27.670  12.015
19204W        W91629   4.260  26.092  13.122
19205W        W91630   2.290   7.366  14.300
19206W        W91631  20.469   4.724   2.081
19207W        W91632  13.064  15.890   0.448
19208W        W91633   0.695  19.063  12.419
19209W        W91634  39.548  40.009   2.233
19210W        W91635  35.867  34.643   2.266
19211W        W91636  18.737  44.097  11.760
19212W        W91637  16.382   4.906   0.899
19213W        W91638  29.058  40.319   3.816
19214W        W91639   6.684  41.678   2.011
19215W        W91640   9.615   7.867  13.094
19216W        W91641  11.222   3.004  13.416
19217W        W91642  39.095  31.827  11.984
19218W        W91643  16.302  20.600   1.147
19219W        W91644   3.735  42.826  13.549
19220W        W91645   1.232  28.216   0.335
19221W        W91646  18.222  14.553   2.244
19222W        W91647  40.049   0.295   4.657
19223W        W91648  41.966  36.778   0.216
19224W        W91649   4.227  10.171  12.644
19225W        W91650  10.162  41.304   0.884
19226W        W91651  24.600  38.949   4.817
19227W        W91652  24.463   7.294   0.728
19228W        W91653  12.074   1.712  10.418
19229W        W91654  37.484   3.253   3.408
19230W        W91655   8.173  44.174   4.134
19231W        W91656  29.321  19.402  10.826
19232W        W91657  35.989  37.493   2.614
19233W        W91658  13.239   8.693   4.461
19234W        W91659  32.025  28.455   4.122
19235W        W91660  14.209   4.706   0.164
19236W        W91661  18.358  44.315   2.319
19237W        W91662   7.959  24.301   3.348
19238W        W91663  16.242   1.866  13.596
19239W        W91664  40.174  41.493  14.505
19240W        W91665  17.035  36.229   0.428
19241W        W91666  12.613   3.442  11.186
19242W        W91667  44.379  11.436  10.317
19243W        W91668  39.337   7.946  10.757
19244W        W91669  33.507  14.565   1.811
19245W        W91670  30.040  35.200   0.413
19246W        W91671  22.940  29.592   1.968
19247W        W91672  27.776  11.104  14.961
19248W        W91673  24.664  23.154   2.715
19249W        W91674  13.672  18.090  13.234
19250W        W91675  31.233   9.677   0.934
19251W        W91676  31.383  44.871   1.969
19252W        W91677   4.811  39.013   0.349
19253W        W91678  36.395  30.224  14.796
19254W        W91679  44.120  10.237  10.721
19255W        W91680   0.257   3.142   5.204
19256W        W91681   4.881  19.634   0.393
19257W        W91682  27.763   2.687   3.659
19258W        W91683  36.427  34.910  14.824
19259W        W91684  25.735  29.016  12.444
19260W        W91685  26.665  33.375  10.225
19261W        W91686  20.587  29.549   4.780
19262W        W91687  19.300  15.309   0.303
19263W        W91688  11.311  26.183   4.591
19264W        W91689   5.195  31.539  11.910
19265W        W91690  12.897  25.662   0.986
19266W        W91691  13.723   9.895  10.758
19267W        W91692  37.057  31.513  13.945
19268W        W91693  33.430  25.586   1.708
19269W        W91694   2.212   9.445  12.460
19270W        W91695  43.361  13.940  12.405
19271W        W91696  33.795  26.274   2.217
19272W        W91697   1.883  23.475   2.885
19273W        W91698  33.353  43.357  10.162
19274W        W91699  36.832  30.525   3.134
19275W        W91700  35.576  40.275  14.351
19276W        W91701  44.499  41.516  11.078
19277W        W91702   5.003  25.706   0.782
19278W        W91703  13.120   3.460  14.341
19279W        W91704  26.982  34.654  10.527
19280W        W91705   6.934   8.253   0.129
19281W        W91706  44.788   9.425   2.769
19282W        W91707  27.648  38.300  12.835
19283W        W91708  26.068  32.809   1.691
19284W        W91709  30.167  27.605   4.827
19285W        W91710  25.140  40.438  11.723
19286W        W91711  11.304  41.345   1.566
19287W        W91712   9.541  32.158   2.984
19288W        W91713  28.458  29.046  13.122
19289W        W91714  22.119   8.383  11.616
19290W        W91715  12.592  16.216  12.181
19291W        W91716  29.571  25.977  12.007
19292W        W91717  35.018   2.216   2.836
19293W        W91718  36.048  15.295   2.775
19294W        W91719  30.514  15.196  13.330
19295W        W91720  13.375   6.476  12.900
19296W        W91721  13.223  25.797   2.471
19297W        W91722  25.651  41.275   3.260
19298W        W91723  25.416   8.489   1.804
19299W        W91724  39.110  27.684   9.938
19300W        W91725   0.975   3.203  10.723
19301W        W91726  17.196  41.824  14.723
19302W        W91727   1.780  28.513   3.273
19303W        W91728   3.287   3.387  14.772
19304W        W91729   5.008  38.842  14.876
19305W        W91730  41.947  29.582   3.659
19306W        W91731  34.467   8.805  11.560
19307W        W91732   0.367  19.463   0.832
19308W        W91733  38.143  34.033  11.640
19309W        W91734   4.844  11.123  13.848
19310W        W91735  16.325  19.562   3.790
19311W        W91736   0.250  36.635  11.225
19312W        W91737  23.297  43.827   0.319
19313W        W91738  18.023   6.880   3.160
19314W        W91739   1.495  21.099  13.851
19315W        W91740  11.299  22.045  14.754
19316W        W91741  22.267  40.412   0.304
19317W        W91742  20.685   7.841  11.712
19318W        W91743  21.968   1.483  14.970
19319W        W91744   5.062   2.971  12.613
19320W        W91745  11.348  10.861   2.177
19321W        W91746  36.942  39.723  10.767
19322W        W91747  12.692   8.149  11.458
19323W        W91748   3.425  14.624   2.438
19324W        W91749  27.617  20.107  11.431
19325W        W91750   4.492  32.308   2.752
19326W        W91751  14.580   3.127  14.108
19327W        W91752  14.844  19.747  13.400
19328W        W91753   4.650  23.475   2.232
19329W        W91754  32.553  15.620   0.411
19330W        W91755   7.812  35.830   0.315
19331W        W91756   5.705  34.072   3.242
19332W        W91757  11.724  22.781  13.492
19333W        W91758  15.441  42.506   5.107
19334W        W91759   5.217  26.692  11.694
19335W        W91760  42.870  11.405  10.488
19336W        W91761  33.577  17.809   0.987
19337W        W91762  24.808  33.514  11.511
19338W        W91763  28.719  19.504   3.585
19339W        W91764  11.747  44.563  14.268
19340W        W91765   4.938  10.829   3.945
19341W        W91766  10.297   4.233   0.798
19342W        W91767  41.347  23.654  11.564
19343W        W91768   6.870  22.281  11.720
19344W        W91769  16.117  34.447   0.577
19345W        W91770  14.565  20.660  13.624
19346W        W91771   9.812   8.986  10.257
19347W        W91772  36.925  26.177   3.549
19348W        W91773  12.802  39.573   0.374
19349W        W91774  28.101  28.848  11.114
19350W        W91775  26.683  13.288   3.687
19351W        W91776  20.338   3.352  13.778
19352W        W91777  22.107  24.772  12.100
19353W        W91778  30.494  32.933  12.947
19354W        W91779  37.015  17.271  11.114
19355W        W91780  16.326  31.913   0.417
19356W        W91781  36.693  12.793  14.563
19357W        W91782  20.968  30.068  13.973
19358W        W91783  44.222   6.679  11.085
19359W        W91784  31.600  29.442   1.300
19360W        W91785  37.495  12.768  14.491
19361W        W91786  11.252  16.126   2.319
19362W        W91787   8.411  13.757  11.290
19363W        W91788   0.618  12.358  12.887
19364W        W91789  17.101  19.884   4.021
19365W        W91790  43.956  26.195   3.813
19366W        W91791  30.980  24.937  14.136
19367W        W91792  41.773  39.706   0.838
19368W        W91793  44.056  37.527  14.402
19369W        W91794   6.696  38.854   1.949
19370W        W91795  42.850  17.453  14.905
19371W        W91796  28.540   4.387   3.302
19372W        W91797  10.263  19.082  12.583
19373W        W91798  17.220   3.585  14.584
19374W        W91799  22.751  44.850   2.199
19375W        W91800  29.370   8.104   2.684
19376W        W91801  11.652  37.338  11.605
19377W        W91802  13.310  27.427  11.871
19378W        W91803   5.323   2.510  14.543
19379W        W91804  22.526  29.880  11.549
19380W        W91805   5.207  12.942  13.902
19381W        W91806   9.342  30.508   3.842
19382W        W91807  33.412  36.282  10.757
19383W        W91808  27.600   8.847  14.436
19384W        W91809  38.029  29.217  13.841
19385W        W91810  25.072  30.867   2.880
19386W        W91811  16.203  10.245   3.124
19387W        W91812  20.237  28.188   4.624
19388W        W91813  42.503  15.370  11.181
19389W        W91814  24.585  24.650   1.181
19390W        W91815  37.118   4.829  13.043
19391W        W91816  23.130   4.533  14.612
19392W        W91817  41.299  42.640  10.765
19393W        W91818   2.224  42.077   0.945
19394W        W91819  36.858  26.578  10.285
19395W        W91820  32.150   0.743   2.662
19396W        W91821  17.839  23.077  14.300
19397W        W91822  36.704   8.324  10.507
19398W        W91823   5.240  13.350  11.228
19399W        W91824  42.428  42.989   1.640
19400W        W91825  43.772  16.784   3.652
19401W        W91826  39.359  10.721   4.498
19402W        W91827  37.387  20.510   2.339
19403W        W91828  34.805  29.529   3.402
19404W        W91829   1.973  29.559  11.184
19405W        W91830  34.908   4.902   1.893
19406W        W91831  38.973  10.988   3.276
19407W        W91832  36.888  37.974  13.426
19408W        W91833  12.927   8.915   2.240
19409W        W91834  14.682  27.421   2.781
19410W        W91835  32.112  11.326   1.762
19411W        W91836   8.870  32.689  11.156
19412W        W91837  20.784  41.403   2.809
19413W        W91838  37.481  24.628  10.878
19414W        W91839  15.403   2.497   1.767
19415W        W91840  31.911  20.149   0.320
19416W        W91841  31.025   5.926   1.746
19417W        W91842   9.086   4.720  12.002
19418W        W91843  33.826   9.339   1.317
19419W        W91844  16.659   9.322  13.778
19420W        W91845  44.145  35.816   4.156
19421W        W91846  11.275   1.184   1.413
19422W        W91847   1.414   5.648   1.758
19423W        W91848  44.857  24.740   0.416
19424W        W91849  41.117  14.953  14.835
19425W        W91850  34.592  38.463  13.004
19426W        W91851   0.451  22.141   3.707
19427W        W91852   6.277  44.377  10.696
19428W        W91853  14.763  18.697  14.748
19429W        W91854   6.611  13.275  10.729
19430W        W91855  31.613  14.662   1.562
19431W        W91856  19.592  25.048   2.830
19432W        W91857   6.845  32.560  14.902
19433W        W91858   0.801  37.878   1.816
19434W        W91859  23.344  26.105   3.264
19435W        W91860  11.654  43.008  10.317
19436W        W91861  41.078   1.296  11.063
19437W        W91862  16.510  35.569   4.939
19438W        W91863  37.346  44.268  11.409
19439W        W91864   3.000  31.006   0.970
19440W        W91865  41.492  42.462   2.350
19441W        W91866   4.316  35.016  10.636
19442W        W91867  31.081   5.226   4.334
19443W        W91868  39.277  15.153  12.469
19444W        W91869  33.864  17.643  12.131
19445W        W91870   4.294   1.764   2.750
19446W        W91871  44.766  37.557   4.378
19447W        W91872  35.352   5.003   0.465
19448W        W91873  18.432  32.509  14.975
19449W        W91874  26.346   7.822   4.186
19450W        W91875  42.416  11.269  12.544
19451W        W91876  29.199  10.293   2.770
19452W        W91877  18.072   0.549   4.618
19453W        W91878  27.185  16.908   1.740
19454W        W91879  10.396  26.765  12.670
19455W        W91880  38.252   6.626   0.444
19456W        W91881  16.316  38.441  13.462
19457W        W91882  31.128  18.454   4.148
19458W        W91883  39.862  37.499  13.650
19459W        W91884  38.682   8.715  13.637
19460W        W91885  35.227  19.803   4.128
19461W        W91886   0.849  19.805   4.545
19462W        W91887  18.082  10.786   0.349
19463W        W91888  12.787  32.370  12.332
19464W        W91889  27.907   1.476  11.674
19465W        W91890  40.103  29.495   1.345
19466W        W91891  41.839  26.519  13.654
19467W        W91892  34.086  20.583  14.612
19468W        W91893  16.669  29.081  13.033
19469W        W91894  31.125  41.022  11.641
19470W        W91895  24.616  31.579   0.081
19471W        W91896  14.132  18.304   2.212
19472W        W91897   0.868  28.831   0.587
19473W        W91898  16.825  36.601  11.148
19474W        W91899  17.161  14.685  12.419
19475W        W91900   5.184  14.821   0.399
19476W        W91901  20.665  31.487   1.145
19477W        W91902  42.425  25.971   0.183
19478W        W91903  32.695  32.085  14.772
19479W        W91904  10.750  28.513   2.364
19480W        W91905  37.366  14.802   2.448
19481W        W91906   0.324  33.958  14.243
19482W        W91907  34.502   3.286   2.951
19483W        W91908   7.176  17.179  12.950
19484W        W91909  41.655   3.365  14.261
19485W        W91910  23.753  29.151   0.752
19486W        W91911  14.113  35.868   3.038
19487W        W91912   7.324  10.873  11.964
19488W        W91913   8.850  13.691   4.723
19489W        W91914  12.818  20.356   0.438
19490W        W91915  15.691  22.941   2.418
19491W        W91916  27.485  18.465   0.474
19492W        W91917  30.624   4.012   0.844
19493W        W91918  33.116  14.028  14.962
19494W        W91919  21.673  15.133   3.169
19495W        W91920  39.046  28.416   3.161
19496W        W91921   6.272  38.495   4.457
19497W        W91922  14.235  40.418  11.859
19498W        W91923  33.162  23.461  11.919
19499W        W91924  14.504  24.261   3.741
19500W        W91925  26.186  22.921   4.646
19501W        W91926  33.401  40.616  13.743
19502W        W91927  44.856  27.522  11.046
19503W        W91928  12.318  22.834   3.105
19504W        W91929  16.203  35.474  11.529
19505W        W91930  31.317  44.923   2.834
19506W        W91931  43.788  14.112   1.015
19507W        W91932   5.152  42.346   4.623
19508W        W91933  20.558   1.892  11.182
19509W        W91934  40.041  15.626  14.719
19510W        W91935  15.510  17.277   3.135
19511W        W91936  38.548  33.736   0.057
19512W        W91937  31.462  37.419  13.271
19513W        W91938  32.807  40.599   3.694
19514W        W91939   1.721  11.817   4.573
19515W        W91940   0.327  23.905  13.921
19516W        W91941  15.264  27.064   2.675
19517W        W91942  10.883  21.540   2.380
19518W        W91943  26.288  11.313  11.140
19519W        W91944  30.073  25.833  12.884
19520W        W91945   8.157  37.891  11.418
19521W        W91946  29.755  17.317   0.471
19522W        W91947  39.430  19.260   1.264
19523W        W91948  34.978   0.918   2.216
19524W        W91949  36.163  38.565   1.680
19525W        W91950   8.884  40.526  10.930
19526W        W91951   2.460  35.217   1.110
19527W        W91952  22.179  33.323   2.161
19528W        W91953  17.928  31.283   4.415
19529W        W91954   9.469  21.172  11.495
19530W        W91955  35.492   4.379   4.222
19531W        W91956  20.017  37.580  11.072
19532W        W91957  23.679  25.545  12.444
19533W        W91958   2.703   2.150   3.430
19534W        W91959  18.677   0.729   1.755
19535W        W91960  24.798  39.833  14.858
19536W        W91961  44.524  20.569  12.450
19537W        W91962  21.753  34.424  13.730
19538W        W91963  31.041   2.990   1.277
19539W        W91964  12.867   5.938  11.359
19540W        W91965  39.938  13.523   3.133
19541W        W91966  39.779  30.114  11.682
19542W        W91967  36.869   2.743  13.380
19543W        W91968   7.262  10.911   3.228
19544W        W91969  31.428  12.813   2.826
19545W        W91970   3.199  22.687  10.753
19546W        W91971  11.311  32.287   3.396
19547W        W91972  40.866   2.948   0.416
19548W        W91973   5.740  30.485   3.377
19549W        W91974  28.503  29.910  10.601
19550W        W91975  15.050   1.045   2.659
19551W        W91976  20.706  11.726  12.765
19552W        W91977  28.461  35.555  13.870
19553W        W91978  40.627  11.494  10.162
19554W        W91979   4.597  36.526  12.019
19555W        W91980  11.031   9.577  10.990
19556W        W91981   3.491  17.820  13.880
19557W        W91982   1.450  11.723  14.099
19558W        W91983  25.442   3.425  14.847
19559W        W91984  12.544  42.464   2.700
19560W        W91985  35.815  17.620  12.429
19561W        W91986  33.525   9.648  10.792
19562W        W91987  18.085  28.683   0.529
19563W        W91988  34.608  15.784  12.111
19564W        W91989  43.291  17.131  14.974
19565W        W91990   3.448  38.125   2.581
19566W        W91991  33.651  10.675  12.444
19567W        W91992  13.842  19.912  12.631
19568W        W91993  18.899  25.191   0.626
19569W        W91994   7.311  26.002   2.652
19570W        W91995  38.983  35.046   2.240
19571W        W91996  40.591   5.927  14.355
19572W        W91997  22.330  14.198  13.891
19573W        W91998  26.157  24.099  11.045
19574W        W91999  18.175   1.522   1.814
19575W        W92000  37.859  39.828  14.952
19576W        W92001  29.669   6.782   2.153
19577W        W92002  33.781  11.560  11.154
19578W        W92003  16.166  12.348  14.804
19579W        W92004  34.916  27.000   4.044
19580W        W92005   4.746  22.517   3.706
19581W        W92006   1.941   2.499  11.839
19582W        W92007   7.272  15.429  13.784
19583W        W92008   1.104  44.573  14.343
19584W        W92009   8.338  43.391  13.616
19585W        W92010  26.300  10.161   3.214
19586W        W92011  17.838  12.221  11.502
19587W        W92012  32.121  16.222   5.529
19588W        W92013   4.888   1.930  10.705
19589W        W92014  39.002  36.985   4.594
19590W        W92015  31.823  12.073   3.573
19591W        W92016  38.469  35.868  14.044
19592W        W92017  44.452  37.441   0.702
19593W        W92018  16.116  26.701  14.127
19594W        W92019  10.291  31.548  11.141
19595W        W92020  30.468  12.279  14.548
19596W        W92021   2.961  22.132   3.775
19597W        W92022  33.972  33.363  13.217
19598W        W92023  32.946   0.307  12.031
19599W        W92024  23.682  31.902  10.740
19600W        W92025  11.807   8.466   5.049
19601W        W92026  40.951  34.611   2.606
19602W        W92027  38.977  11.127  10.879
19603W        W92028   6.181  31.088   2.940
19604W        W92029   6.427  25.018   2.224
19605W        W92030   4.454  12.650  14.897
19606W        W92031  31.551  26.066  12.541
19607W        W92032  15.141  38.743  11.485
19608W        W92033  33.501  12.888   3.169
19609W        W92034   4.220  44.931  12.396
19610W        W92035  14.345  44.474   3.982
19611W        W92036  11.273   6.470   0.690
19612W        W92037   9.674  23.638   4.795
19613W        W92038  23.495  17.727  13.083
19614W        W92039   4.701  11.591  12.770
19615W        W92040   1.716  36.544  10.521
19616W        W92041  31.025  20.513   0.956
19617W        W92042  19.095  16.595  14.913
19618W        W92043  18.453   2.950  10.388
19619W        W92044  42.285  44.840   4.422
19620W        W92045  37.385   0.188  12.113
19621W        W92046  31.942  10.140  14.876
19622W        W92047  11.471  21.529  13.455
19623W        W92048  40.821  12.518  11.152
19624W        W92049   0.997   5.751   0.385
19625W        W92050  23.044  27.492   3.225
19626W        W92051  24.484   8.684   4.525
19627W        W92052   2.653  26.109   2.997
19628W        W92053  33.027  25.172   1.360
19629W        W92054  40.708   6.934  13.622
19630W        W92055  24.246  30.533   1.783
19631W        W92056   0.331  32.839  11.488
19632W        W92057   3.842  42.324  11.453
19633W        W92058   8.333  34.356   4.706
19634W        W92059   7.921  42.033  12.704
19635W        W92060   7.436  17.599  14.431
19636W        W92061  43.523   7.100   1.585
19637W        W92062  22.317   8.422  10.781
19638W        W92063   6.553  29.084  11.570
19639W        W92064  15.422  13.843  11.191
19640W        W92065  42.484   7.427  11.509
19641W        W92066  20.612  39.339   2.565
19642W        W92067   4.203  26.713  12.622
19643W        W92068  28.690  33.122  13.420
19644W        W92069  37.967   0.682  11.514
19645W        W92070  32.524  42.700   2.440
19646W        W92071  34.321   7.722  10.598
19647W        W92072  25.572  17.257   5.035
19648W        W92073  38.494  11.921  12.317
19649W        W92074  25.252   5.774  12.941
19650W        W92075  17.737  41.420   1.748
19651W        W92076  23.690  18.872  11.520
19652W        W92077  13.270  19.198  12.043
19653W        W92078  16.539  44.267   0.473
19654W        W92079  12.791  38.434  14.926
19655W        W92080  24.063  35.820  13.103
19656W        W92081  41.309  18.204   4.361
19657W        W92082   5.368  20.171   2.208
19658W        W92083   3.749  37.841   0.498
19659W        W92084  35.410  41.469   2.713
19660W        W92085  24.280   0.845   3.153
19661W        W92086  34.397  22.480   3.743
19662W        W92087   6.910  34.077   2.126
19663W        W92088  26.525  20.233   0.675
19664W        W92089  44.152  30.017   4.272
19665W        W92090  43.862  22.989   0.921
19666W        W92091  33.965  12.735   1.944
19667W        W92092  12.217  32.725   3.689
19668W        W92093   1.489  17.100   2.850
19669W        W92094  40.067  21.731  12.534
19670W        W92095   7.388   5.256  14.412
19671W        W92096  31.552  10.794   2.352
19672W        W92097  30.463  25.682   0.515
19673W        W92098  43.971  32.187  12.440
19674W        W92099  28.083  15.152   3.887
19675W        W92100  24.018  20.802  12.442
19676W        W92101  33.330  43.208  10.991
19677W        W92102  25.479  34.339   4.036
19678W        W92103  23.002  44.924  14.799
19679W        W92104  24.176  42.795  10.516
19680W        W92105   2.773  19.751   1.326
19681W        W92106  39.113  10.858   1.859
19682W        W92107  37.070  11.085  13.727
19683W        W92108  11.889   1.877   0.967
19684W        W92109  14.706  24.990  11.964
19685W        W92110  36.297  39.836  10.140
19686W        W92111  32.335  18.113  13.538
19687W        W92112   9.110  16.335   0.491
19688W        W92113  21.105  16.107  14.207
19689W        W92114  14.706  18.549   0.370
19690W        W92115   0.016  26.623   2.584
19691W        W92116  44.296  34.673   1.307
19692W        W92117  12.552  18.762  13.085
19693W        W92118  13.459  21.547   1.344
19694W        W92119  25.162  32.099   4.811
19695W        W92120  38.281   8.410  14.884
19696W        W92121  23.091   9.418   0.885
19697W        W92122  39.391  35.544  14.287
19698W        W92123  20.262  22.626   1.745
19699W        W92124   2.426  28.968  13.016
19700W        W92125   2.465  30.588  14.356
19701W        W92126  44.023   9.706  14.272
19702W        W92127  12.532   3.301  13.125
19703W        W92128  41.447  43.358  11.840
19704W        W92129   3.260  42.334   2.373
19705W        W92130   2.834   5.684  11.522
19706W        W92131  39.580  25.233   3.263
19707W        W92132   2.431   1.555  11.085
19708W        W92133  30.412  14.286   0.921
19709W        W92134  29.564   9.392  12.882
19710W        W92135  19.082  39.950   0.221
19711W        W92136  31.942   6.006   0.569
19712W        W92137   7.859  14.685  11.945
19713W        W92138  17.339  24.673  13.343
19714W        W92139  13.826  43.049   1.243
19715W        W92140  43.250  25.457   0.216
19716W        W92141  35.301   7.779  13.599
19717W        W92142  25.213  40.758  12.754
19718W        W92143  23.134  39.027   0.740
19719W        W92144  35.189  27.220  12.300
19720W        W92145  34.337  11.844   3.462
19721W        W92146   4.177   4.893   0.979
19722W        W92147  12.636  34.055   0.394
19723W        W92148   1.046  40.224   2.337
19724W        W92149  18.995  26.123   3.672
19725W        W92150  32.388  10.740   2.885
19726W        W92151  40.154  34.622   2.716
19727W        W92152   6.381  24.265   4.099
19728W        W92153  43.046  34.145   2.690
19729W        W92154  32.482  38.611   4.362
19730W        W92155  18.027  42.976  11.864
19731W        W92156  29.461  35.083   2.922
19732W        W92157   7.676  41.040   3.136
19733W        W92158  26.102  15.341   1.461
19734W        W92159  24.943   3.532   4.292
19735W        W92160  18.029  16.924   2.311
19736W        W92161  43.471  11.920  12.543
19737W        W92162  44.308  19.537  13.461
19738W        W92163  19.333  23.450  11.720
19739W        W92164   3.908  40.521   2.319
19740W        W92165  12.628  20.112   4.917
19741W        W92166  19.489  43.362   4.267
19742W        W92167  11.864  15.220  13.827
19743W        W92168  18.528   1.754   3.188
19744W        W92169  13.139  32.966  12.862
19745W        W92170  30.942  38.368  14.754
19746W        W92171  26.741  38.686   1.467
19747W        W92172  13.789  38.490   0.688
19748W        W92173  43.945   5.216   1.755
19749W        W92174  15.750  18.852   3.929
19750W        W92175  44.899   4.100   1.728
19751W        W92176  11.674  33.119  10.637
19752W        W92177  38.904  34.916   3.714
19753W        W92178  39.406  39.103  13.527
19754W        W92179  40.776  13.272   3.161
19755W        W92180  17.020  43.380  14.226
19756W        W92181  44.375  37.375  11.804
19757W        W92182  27.388  41.161   3.405
19758W        W92183   2.441   9.288  11.140
19759W        W92184  18.861  41.639  11.183
19760W        W92185   6.811   9.218  14.885
19761W        W92186  20.872  42.859   4.047
19762W        W92187  20.683  18.350   0.304
19763W        W92188  20.936  38.270  12.552
19764W        W92189  41.405  34.141  14.364
19765W        W92190  14.915  14.913  14.034
19766W        W92191  16.870  32.624  14.000
19767W        W92192  20.287   0.155   4.850
19768W        W92193  18.245   0.281  12.942
19769W        W92194  29.106  16.807  10.607
19770W        W92195  26.229  20.598   3.232
19771W        W92196   6.336  36.272  13.907
19772W        W92197  32.219   7.375   2.551
19773W        W92198   6.343   9.221   2.617
19774W        W92199   4.485  11.887   0.847
19775W        W92200  19.100  20.181  11.683
19776W        W92201  11.290  17.080   0.200
19777W        W92202   1.546  16.246  10.739
19778W        W92203  18.381  41.473   2.404
19779W        W92204  24.958   2.648   1.816
19780W        W92205   1.953  22.385   2.978
19781W        W92206  11.202   5.845   4.080
19782W        W92207  33.676  41.747  13.096
19783W        W92208   6.831  23.006  11.890
19784W        W92209  39.893   5.302   3.570
19785W        W92210  32.721  44.417  11.605
19786W        W92211   1.006  39.672  12.936
19787W        W92212  38.912  40.650  12.916
19788W        W92213  13.918  29.688   0.426
19789W        W92214  41.314  19.843   2.799
19790W        W92215  17.359  37.845  14.939
19791W        W92216  27.988  39.074   4.214
19792W        W92217  44.817  41.909  11.858
19793W        W92218   0.212  34.934  14.530
19794W        W92219  40.299  36.089  12.541
19795W        W92220  17.727   3.310   2.423
19796W        W92221   1.725  38.938  14.437
19797W        W92222  13.773  12.823   3.598
19798W        W92223  25.674  21.170  14.241
19799W        W92224  20.485  32.986  11.851
19800W        W92225  20.623  22.082   0.707
19801W        W92226  42.845  30.197  12.832
19802W        W92227   2.675  31.389   0.792
19803W        W92228  21.761  14.529   4.341
19804W        W92229  33.997   5.911   4.673
19805W        W92230  20.173  26.072  11.909
19806W        W92231  31.239   4.258   3.763
19807W        W92232  23.713  19.405   3.202
19808W        W92233  26.454  29.945   1.234
19809W        W92234   5.570  37.742  12.931
19810W        W92235  26.612  38.795  14.250
19811W        W92236  30.637   4.328   1.291
19812W        W92237   2.858  32.496   0.271
19813W        W92238  44.492  43.589  14.384
19814W        W92239  15.723   0.885  12.600
19815W        W92240  18.499   4.016   1.987
19816W        W92241  42.270  12.386   0.770
19817W        W92242  15.849  27.339   1.983
19818W        W92243  18.256  17.245  12.958
19819W        W92244  10.327   3.184   4.235
19820W        W92245  23.228   6.394   0.760
19821W        W92246  39.691   6.212   1.457
19822W        W92247  28.073  14.552  12.579
19823W        W92248  19.805  14.736   1.370
19824W        W92249   5.906   2.957  12.398
19825W        W92250  22.136   6.809  11.494
19826W        W92251  13.275  12.785   4.446
19827W        W92252   6.480  43.765  12.432
19828W        W92253  17.153  11.813   4.665
19829W        W92254  36.811  31.883   1.814
19830W        W92255  25.992   0.039   1.266
19831W        W92256  42.085  21.400  13.497
19832W        W92257   4.444  36.459  11.081
19833W        W92258  34.529  23.232  12.035
19834W        W92259  26.126  15.899   0.276
19835W        W92260  15.660   4.861  14.075
19836W        W92261  36.221  35.494  11.260
19837W        W92262  12.288  27.972  13.121
19838W        W92263   9.466  27.196  12.594
19839W        W92264  22.935  44.040  10.626
19840W        W92265  20.200  14.724  11.618
19841W        W92266  20.085  21.658  12.379
19842W        W92267   7.680   2.677   1.327
19843W        W92268  10.834   1.766   0.485
19844W        W92269  13.595  36.096   0.338
19845W        W92270   4.302  21.823  11.359
19846W        W92271   0.169  22.122   3.274
19847W        W92272  14.217   5.239  10.915
19848W        W92273  18.444  28.530   1.375
19849W        W92274  35.464  13.140   3.189
19850W        W92275   4.555  21.468   0.877
19851W        W92276  25.038  32.598   1.172
19852W        W92277  12.936  12.104   0.127
19853W        W92278  15.365  15.573   3.791
19854W        W92279  14.618  43.688   1.927
19855W        W92280  30.542  24.741   1.188
19856W        W92281  27.686  34.464   4.266
19857W        W92282  13.246  14.770   2.425
19858W        W92283  41.982   7.258   3.733
19859W        W92284  40.946  32.583  11.510
19860W        W92285  11.644   2.296  13.598
19861W        W92286  20.295   8.815  13.166
19862W        W92287  19.851  16.958  10.971
19863W        W92288  26.709  43.837   2.226
19864W        W92289  24.930   6.882  13.029
19865W        W92290  23.672   0.313   4.677
19866W        W92291  23.129  36.083  12.311
19867W        W92292  38.786  40.581  13.860
19868W        W92293  42.427  33.413   0.062
19869W        W92294  26.064   5.040  12.976
19870W        W92295   7.612  40.851  10.652
19871W        W92296  34.009  16.545  10.208
19872W        W92297   6.209  20.163   3.346
19873W        W92298  15.054  17.985   4.883
19874W        W92299  44.193  38.562   2.285
19875W        W92300  19.969  33.657   4.217
19876W        W92301   0.729   5.177   2.350
19877W        W92302  13.761  27.991  11.905
19878W        W92303  39.342  22.646  14.361
19879W        W92304   9.414  25.527  13.556
19880W        W92305   9.048  14.305   2.280
19881W        W92306   0.122   4.299   4.064
19882W        W92307  25.294  25.249   0.821
19883W        W92308   6.912  34.527  13.640
19884W        W92309   1.857  36.519   4.594
19885W        W92310  10.308  36.848  10.606
19886W        W92311  44.670   1.430   0.315
19887W        W92312  16.719  32.749  10.184
19888W        W92313   4.863  28.984  14.379
19889W        W92314  37.572   5.881  13.511
19890W        W92315  41.500  15.787  13.482
19891W        W92316  11.755  25.597   2.380
19892W        W92317  21.074  15.597   2.165
19893W        W92318  17.752  21.102  11.952
19894W        W92319   7.030  42.357  12.895
19895W        W92320   5.829  34.411   1.157
19896W        W92321  42.261  17.539  12.938
19897W        W92322  30.066  35.375  14.454
19898W        W92323  10.681   0.892  11.227
19899W        W92324  31.103  24.451   2.287
19900W        W92325   0.870  11.388  12.769
19901W        W92326   1.342  25.738  13.434
19902W        W92327  11.888  10.153   4.676
19903W        W92328   1.118  22.772   0.879
19904W        W92329  22.242  10.969   2.486
19905W        W92330  38.615  24.231   5.460
19906W        W92331   5.905  33.186   2.172
19907W        W92332   7.266  24.223   2.131
19908W        W92333  41.891   9.990   2.630
19909W        W92334   6.416  38.396   0.200
19910W        W92335  30.495   7.803   4.840
19911W        W92336  41.318  24.535   3.903
19912W        W92337  26.987  23.135   4.076
19913W        W92338  37.351   6.589   0.165
19914W        W92339  10.930  12.365  14.498
19915W        W92340  21.091  34.418  13.519
19916W        W92341  33.412  12.127  12.411
19917W        W92342  26.991  30.663   4.311
19918W        W92343  21.150  18.245   1.203
19919W        W92344   1.453   9.826  10.499
19920W        W92345  35.056  15.265   2.886
19921W        W92346  42.325  30.172   3.360
19922W        W92347  35.660  40.494  10.662
19923W        W92348  20.297  15.420  13.344
19924W        W92349   2.973  21.577   1.677
19925W        W92350  30.526  43.311   4.515
19926W        W92351   3.667  26.618   1.589
19927W        W92352   6.391  19.326   2.948
19928W        W92353  44.942  28.953  11.864
19929W        W92354   2.085  32.159  11.764
19930W        W92355  37.546   2.439  11.140
19931W        W92356  20.688  28.389   0.956
19932W        W92357  37.834  17.137   2.785
19933W        W92358  40.296  38.569  14.100
19934W        W92359   2.991  11.017   0.385
19935W        W92360  27.432  31.344   0.722
19936W        W92361  27.324  34.063  12.116
19937W        W92362  27.529  25.195  11.783
19938W        W92363  25.266  18.329  14.762
19939W        W92364   2.975  44.627   2.439
19940W        W92365  14.261  21.535   3.687
19941W        W92366  44.690  19.191  12.618
19942W        W92367   6.157  39.428  13.634
19943W        W92368  35.122  13.202   0.072
19944W        W92369  34.417   9.230   2.601
19945W        W92370  44.822   4.739  14.802
19946W        W92371   2.724  32.099  13.920
19947W        W92372  21.257  38.936   0.884
19948W        W92373  40.388   9.463  12.985
19949W        W92374  42.559   1.091  12.460
19950W        W92375  35.984  40.585   4.144
19951W        W92376  27.198   5.864  14.833
19952W        W92377  31.592   3.100  10.772
19953W        W92378  10.698  12.862  14.849
19954W        W92379  24.590   5.114  14.508
19955W        W92380  42.110  38.119  12.902
19956W        W92381  10.307  29.539   5.007
19957W        W92382  38.985  13.629  10.990
19958W        W92383  27.814  22.105  12.271
19959W        W92384  34.347  26.158   3.903
19960W        W92385   9.315  32.797  11.844
19961W        W92386  38.231  20.569  13.861
19962W        W92387  15.523  30.272  12.981
19963W        W92388  37.938   9.730   4.524
19964W        W92389   4.845  32.688  11.820
19965W        W92390   6.397  39.110   2.676
19966W        W92391  11.226  40.414  14.585
19967W        W92392  38.348  43.222  13.555
19968W        W92393  39.780  38.411  10.964
19969W        W92394  29.599   5.190  14.425
19970W        W92395  24.489   8.138   4.283
19971W        W92396  32.393   8.676  13.533
19972W        W92397  14.167  25.143   5.150
19973W        W92398   5.745  36.129   2.700
19974W        W92399  16.836  19.267   0.362
19975W        W92400  42.596   0.023   2.815
19976W        W92401  11.693   1.940   4.129
19977W        W92402  32.918  10.444  14.190
19978W        W92403  24.931  31.918   1.778
19979W        W92404   1.664  36.035   1.753
19980W        W92405  22.420  14.258  10.652
19981W        W92406  44.883  42.802   1.398
19982W        W92407  36.177   5.668  14.885
19983W        W92408  40.548   8.932   1.209
19984W        W92409  33.034  14.006   2.190
19985W        W92410   1.787  24.261  10.678
19986W        W92411  42.432  16.421  12.618
19987W        W92412   5.266  19.190   2.223
19988W        W92413  19.736  43.778   4.462
19989W        W92414  33.495  34.082   3.674
19990W        W92415  27.563   6.864  14.330
19991W        W92416  34.039  24.585  12.097
19992W        W92417   0.503  26.080  14.423
19993W        W92418  16.718  26.693   2.833
19994W        W92419  27.490  23.702  14.317
19995W        W92420  23.141  21.570   3.716
19996W        W92421   7.805  40.271   1.842
19997W        W92422  14.377  37.070   3.387
19998W        W92423  27.767  24.712   0.705
19999W        W92424  17.214   2.257   0.949
20000W        W92425  11.216  44.498   1.736
20001W        W92426  23.130   7.877   0.787
20002W        W92427   6.429  27.534   2.935
20003W        W92428  33.575   0.578   5.099
20004W        W92429   9.440  29.939   5.077
20005W        W92430  28.979  15.541   4.113
20006W        W92431  23.079  22.570   3.770
20007W        W92432  35.287  29.655  13.600
20008W        W92433   5.299  40.988   0.655
20009W        W92434   7.935  26.584  11.139
20010W        W92435   3.816  31.057  10.558
20011W        W92436  11.215  41.847   1.499
20012W        W92437  26.487  27.584  10.671
20013W        W92438  17.284  16.906   4.936
20014W        W92439  20.731  42.249   2.427
20015W        W92440   1.420  11.903   0.281
20016W        W92441  30.768  13.565  13.186
20017W        W92442   3.942  24.105   2.294
20018W        W92443  19.485  14.646  13.451
20019W        W92444  26.438  38.401   4.944
20020W        W92445  14.669   4.525   0.376
20021W        W92446  43.364  16.691  12.615
20022W        W92447  37.022   9.651   3.630
20023W        W92448  15.865  21.267   1.403
20024W        W92449  12.348  23.459   0.245
20025W        W92450  40.481  26.614  13.610
20026W        W92451  33.375  25.005  14.007
20027W        W92452   4.424   1.029   3.257
20028W        W92453   5.682  17.440   4.587
20029W        W92454  33.918  35.520  10.248
20030W        W92455   0.974  16.129   4.572
20031W        W92456   1.906  14.839  11.416
20032W        W92457  36.175  35.868   2.188
20033W        W92458  16.555  10.572  11.128
20034W        W92459  35.633  32.477   0.913
20035W        W92460  32.011  37.310   0.525
20036W        W92461  25.081  22.285  11.086
20037W        W92462  39.465  38.498  10.541
20038W        W92463  37.194  13.588   1.278
20039W        W92464  10.670  23.243  12.308
20040W        W92465  13.849  22.024  14.399
20041W        W92466  27.381  37.933   1.872
20042W        W92467  16.063  38.131  14.936
20043W        W92468  32.908  34.650  12.424
20044W        W92469  37.651   9.862  11.202
20045W        W92470  34.698  23.012   4.585
20046W        W92471  20.185  19.694   4.682
20047W        W92472  14.659  40.092   5.126
20048W        W92473   1.586  17.570   0.801
20049W        W92474  29.347  18.294   1.384
20050W        W92475  30.154  25.405  12.582
20051W        W92476   3.378  14.360  14.019
20052W        W92477  19.825  42.792   3.147
20053W        W92478  12.145   8.114   3.270
20054W        W92479   3.890  44.400   4.134
20055W        W92480  18.647   4.429   2.951
20056W        W92481  10.318  20.668   0.316
20057W        W92482  33.094   2.981   4.356
20058W        W92483   5.015   9.942   2.131
20059W        W92484   1.138   6.732   4.525
20060W        W92485  42.822  40.777  12.780
20061W        W92486   2.786   7.210  14.272
20062W        W92487  16.323   7.877   2.460
20063W        W92488  28.150  22.811   3.388
20064W        W92489  17.546  33.576   3.265
20065W        W92490  42.851  34.911  13.422
20066W        W92491  12.137  37.871   1.577
20067W        W92492  29.009  12.186   0.279
20068W        W92493  35.601  37.629  12.064
20069W        W92494   1.907  34.045  10.871
20070W        W92495  43.248  14.284   4.591
20071W        W92496  21.178   5.727   3.294
20072W        W92497  41.596   2.887   4.081
20073W        W92498  35.997  33.098   1.637
20074W        W92499  17.089  26.889   0.535
20075W        W92500  12.324  10.770   4.823
20076W        W92501  27.557  11.560  14.887
20077W        W92502  36.810   7.706   3.898
20078W        W92503  29.655  23.936   1.760
20079W        W92504   9.296  23.951  13.354
20080W        W92505   7.214  29.498   2.366
20081W        W92506  29.821  26.581   0.409
20082W        W92507  24.710   7.759   0.031
20083W        W92508  42.452  24.618   2.494
20084W        W92509  42.948  16.223  13.399
20085W        W92510  40.319  33.036   2.205
20086W        W92511   0.958  35.608   3.786
20087W        W92512  23.562  32.122  12.118
20088W        W92513   9.650  31.748   2.260
20089W        W92514  40.895   0.420   2.685
20090W        W92515  20.268  34.889   1.691
20091W        W92516  10.670  39.902   3.645
20092W        W92517   9.552  38.153  13.066
20093W        W92518   3.450  19.019   2.816
20094W        W92519  21.348   1.995   3.793
20095W        W92520  10.437  11.967   1.944
20096W        W92521  33.961  32.933  10.974
20097W        W92522  35.970   7.967   0.612
20098W        W92523  39.482  13.918  11.919
20099W        W92524  30.537  41.737   2.701
20100W        W92525  24.482  40.918   3.850
20101W        W92526  15.725   1.523   4.621
20102W        W92527  37.446  41.434   4.190
20103W        W92528  40.293  33.524   2.026
20104W        W92529  33.937  31.414  12.513
20105W        W92530  14.710  44.818   3.863
20106W        W92531  26.370   2.300   1.541
20107W        W92532  38.773  23.448   4.987
20108W        W92533  13.905  36.620  13.040
20109W        W92534  27.658  28.961   2.224
20110W        W92535   3.465  21.141  12.578
20111W        W92536  13.478  31.330   2.263
20112W        W92537  19.487  43.011  12.126
20113W        W92538  41.196   0.646   1.391
20114W        W92539  36.059  30.687  12.453
20115W        W92540  16.702  40.877  14.417
20116W        W92541  31.962  29.266  11.445
20117W        W92542  35.270  22.647  10.410
20118W        W92543  38.401  15.308  10.650
20119W        W92544  21.699  19.625   2.680
20120W        W92545   0.433  30.689   2.869
20121W        W92546  29.026  34.376   0.672
20122W        W92547  28.627  28.912   3.676
20123W        W92548  19.158  36.517  10.468
20124W        W92549  27.050  44.789  13.752
20125W        W92550  21.101  38.005  11.411
20126W        W92551   1.919  11.375   2.818
20127W        W92552  31.986   2.681  11.180
20128W        W92553  31.192  44.747  14.430
20129W        W92554  35.017  25.749   2.714
20130W        W92555  14.446  31.606   0.484
20131W        W92556   6.261  38.876   4.096
20132W        W92557  38.379  19.610  14.300
20133W        W92558   2.039  35.932  13.974
20134W        W92559  10.614  40.511  11.600
20135W        W92560   2.879   1.369  10.615
20136W        W92561  23.464  39.606   4.612
20137W        W92562  24.513  33.074  11.209
20138W        W92563  34.498  43.769   1.231
20139W        W92564   7.651  24.631   0.269
20140W        W92565  43.138  16.602  14.928
20141W        W92566  44.958  34.159  12.080
20142W        W92567  16.530  38.432   4.582
20143W        W92568  24.725  12.214   2.341
20144W        W92569   2.809  41.811   2.367
20145W        W92570  35.521  24.987  14.313
20146W        W92571  38.881   4.696  13.930
20147W        W92572  15.767  42.955   0.926
20148W        W92573  42.037  38.639  12.923
20149W        W92574  43.751  22.582  14.402
20150W        W92575  11.574  30.457  11.680
20151W        W92576  11.755  38.284  10.394
20152W        W92577  32.621  15.296   0.023
20153W        W92578  21.576  20.902   2.591
20154W        W92579  37.603  16.672   1.438
20155W        W92580  16.466   5.856  14.700
20156W        W92581   7.634  34.010   4.075
20157W        W92582   4.250  21.393   1.805
20158W        W92583  32.627   0.249  13.992
20159W        W92584  14.624  32.226  13.627
20160W        W92585  18.202   1.567   4.728
20161W        W92586   5.582  24.777  11.983
20162W        W92587  41.772  17.169  13.647
20163W        W92588  16.046   2.326   4.794
20164W        W92589  33.827  35.278  12.489
20165W        W92590  10.653  43.902  12.311
20166W        W92591  21.985  27.575  11.533
20167W        W92592  16.494  34.434  12.447
20168W        W92593  42.544  42.978   2.664
20169W        W92594  25.758  10.217  11.890
20170W        W92595  21.216  39.309  11.106
20171W        W92596   7.962  44.190  14.807
20172W        W92597  27.270   8.625  14.835
20173W        W92598   9.662  11.439   0.571
20174W        W92599  43.214  17.437  11.617
20175W        W92600  11.680  19.290   1.013
20176W        W92601  10.373  29.448   3.640
20177W        W92602   6.909   6.262   3.222
20178W        W92603  11.654  15.748  14.696
20179W        W92604  22.289  25.203  11.305
20180W        W92605  14.697  25.969   3.016
20181W        W92606  18.493  32.980  10.225
20182W        W92607  21.236   3.657   3.274
20183W        W92608  35.187  27.226   2.558
20184W        W92609   9.801  24.216   1.420
20185W        W92610  32.432  18.760   1.170
20186W        W92611  41.433  26.202  10.667
20187W        W92612  27.590  27.657   1.833
20188W        W92613   8.724  36.948  10.179
20189W        W92614  42.139  28.353   5.085
20190W        W92615  19.765  19.400  14.930
20191W        W92616  31.143   8.592   2.275
20192W        W92617  22.766  25.739   2.637
20193W        W92618   6.846  26.631  13.286
20194W        W92619  20.498  17.200   3.360
20195W        W92620   1.611  16.591   2.790
20196W        W92621  19.104   0.817  11.161
20197W        W92622   0.197  37.949   3.114
20198W        W92623  28.410  24.775   4.258
20199W        W92624  17.567  11.083   2.191
20200W        W92625   9.722  11.614   3.856
20201W        W92626   8.361  30.489  13.517
20202W        W92627  17.138  27.749   9.972
20203W        W92628  23.231  41.422  13.356
20204W        W92629  16.862   7.553   5.026
20205W        W92630  39.689   0.934   4.365
20206W        W92631  41.522  22.638  13.848
20207W        W92632  33.939   4.980  11.660
20208W        W92633  30.090   1.334   1.098
20209W        W92634  14.745  22.671   1.412
20210W        W92635   6.803  21.276  12.933
20211W        W92636  10.345  40.723  12.381
20212W        W92637  39.407  22.778   3.397
20213W        W92638  23.538  23.634  12.209
20214W        W92639   5.950   4.233  12.572
20215W        W92640  23.150  26.300  14.000
20216W        W92641  41.493  32.896   1.411
20217W        W92642  27.833  24.879  13.497
20218W        W92643  25.517  18.748  14.541
20219W        W92644  29.195  20.805  12.418
20220W        W92645  20.776  20.021   0.742
20221W        W92646  29.658  21.504   3.167
20222W        W92647  31.864   9.744  10.636
20223W        W92648  13.831  10.280  14.952
20224W        W92649  38.502  31.659   4.656
20225W        W92650   6.208  23.816  14.765
20226W        W92651  35.244  38.442   0.512
20227W        W92652  24.941  26.353  12.162
20228W        W92653  26.688  33.298   0.306
20229W        W92654  38.901  30.396  13.503
20230W        W92655  43.351  43.864   2.179
20231W        W92656  34.747  17.970   2.198
20232W        W92657  28.784  13.074  14.955
20233W        W92658   6.917  15.247   3.768
20234W        W92659  40.314  40.560   2.365
20235W        W92660  32.613   6.816   3.062
20236W        W92661  14.790  10.283   3.798
20237W        W92662  27.014  12.259   1.157
20238W        W92663  27.845  15.272  12.856
20239W        W92664  10.754  11.271  11.949
20240W        W92665  16.804  11.776  14.888
20241W        W92666  28.620  10.211  12.259
20242W        W92667  14.563   9.341  12.030
20243W        W92668  21.029   3.940   3.676
20244W        W92669  44.578  33.678  13.467
20245W        W92670   4.917   3.544  10.005
20246W        W92671  37.638  27.736   1.644
20247W        W92672  31.620   4.645  11.906
20248W        W92673  17.590   5.229   2.450
20249W        W92674  44.965  31.851  12.487
20250W        W92675  18.718  21.558  10.694
20251W        W92676   0.294  38.376   4.743
20252W        W92677  21.503  13.757   0.067
20253W        W92678  31.029  31.221  13.396
20254W        W92679   9.868   3.253   5.073
20255W        W92680  21.805  31.655   4.671
20256W        W92681  28.254  32.654  10.739
20257W        W92682  15.309  42.460   0.246
20258W        W92683  24.120   6.679   3.247
20259W        W92684  42.470   6.628  11.094
20260W        W92685  39.321  37.721   4.987
20261W        W92686   9.352   1.416   1.066
20262W        W92687  19.811  30.554  12.771
20263W        W92688  39.846  38.794  13.649
20264W        W92689   4.504  23.098   1.889
20265W        W92690  14.907  38.008   4.154
20266W        W92691  10.870  39.017   4.608
20267W        W92692   7.454  25.556  11.201
20268W        W92693   2.644   2.305   2.943
20269W        W92694  32.669   4.363   1.559
20270W        W92695   9.147  41.939  10.477
20271W        W92696  39.889  19.659   2.710
20272W        W92697  42.781  28.114  14.326
20273W        W92698   2.042  29.779   1.343
20274W        W92699   1.874  32.421  14.375
20275W        W92700  23.111  16.859  13.436
20276W        W92701   5.348  37.610   3.147
20277W        W92702  30.567  36.383   1.021
20278W        W92703  29.569  37.611  11.187
20279W        W92704  18.324  42.043   0.190
20280W        W92705  44.034  11.135   0.105
20281W        W92706  14.246  32.930   3.145
20282W        W92707  34.058  17.508  14.161
20283W        W92708  29.837  42.681  13.485
20284W        W92709  38.118  17.357  12.662
20285W        W92710   7.277  14.827  14.501
20286W        W92711  31.685   4.963   0.887
20287W        W92712  30.158   8.683  13.932
20288W        W92713  24.776  31.959   3.632
20289W        W92714   3.731  23.184   3.143
20290W        W92715   3.572  30.448  11.673
20291W        W92716  27.693  17.674  13.082
20292W        W92717  39.161  19.622   4.069
20293W        W92718  28.262  32.085  11.153
20294W        W92719  25.988  32.468   5.682
20295W        W92720  44.260  43.239  11.512
20296W        W92721   7.833  12.198  13.457
20297W        W92722   8.805   1.972  14.462
20298W        W92723  37.053   4.995   0.729
20299W        W92724   0.629   3.740   2.239
20300W        W92725  13.280   6.792   4.705
20301W        W92726   0.439  15.957   1.618
20302W        W92727  38.818  17.028  13.909
20303W        W92728  25.610   8.699   2.240
20304W        W92729  18.041   9.855   2.823
20305W        W92730   6.308  37.423  11.570
20306W        W92731  32.893   9.226  11.219
20307W        W92732  13.838  11.826   1.844
20308W        W92733  31.954  44.966  10.634
20309W        W92734  42.009  42.907   0.534
20310W        W92735  41.526  15.408  11.226
20311W        W92736  23.918  11.170   3.895
20312W        W92737  25.679  43.519   3.617
20313W        W92738  28.079  20.360   2.708
20314W        W92739  33.394  17.366   1.203
20315W        W92740  16.275  25.046  14.051
20316W        W92741  29.590  38.819  11.530
20317W        W92742  38.881  41.611   4.216
20318W        W92743  25.520  18.276  14.302
20319W        W92744  34.479   2.434  13.570
20320W        W92745   5.778   3.010  11.042
20321W        W92746  42.663   0.966  10.742
20322W        W92747  42.196   5.825   1.827
20323W        W92748  30.898  10.748  12.918
20324W        W92749   3.956  29.590  13.592
20325W        W92750  29.363  21.250   2.842
20326W        W92751  32.948   6.486  14.698
20327W        W92752   7.691  11.750  12.754
20328W        W92753   0.881  42.417   1.241
20329W        W92754   4.314  32.661  12.003
20330W        W92755  20.166  31.627   0.977
20331W        W92756  29.246  11.016  12.009
20332W        W92757  44.543  20.684  10.632
20333W        W92758  25.092  12.582   2.721
20334W        W92759  26.715  37.388  11.089
20335W        W92760  30.070  33.367  13.423
20336W        W92761  27.873  13.530  14.233
20337W        W92762  28.214  44.818  12.104
20338W        W92763  24.754  14.017  14.265
20339W        W92764   4.986  15.735  11.220
20340W        W92765  30.966  26.327  11.003
20341W        W92766  18.199  28.831   4.434
20342W        W92767   3.592   8.156   3.632
20343W        W92768  44.192  16.872   0.417
20344W        W92769  37.895   6.783   3.251
20345W        W92770   2.721   2.206   4.850
20346W        W92771   8.745  35.858  10.919
20347W        W92772  11.058  28.605  14.332
20348W        W92773  44.891  25.751   3.557
20349W        W92774   9.820  29.596   3.290
20350W        W92775  26.109  38.783   2.676
20351W        W92776   0.662  25.834  11.507
20352W        W92777  13.855  36.039  11.036
20353W        W92778  21.610  15.726   3.838
20354W        W92779  11.300  20.112  13.420
20355W        W92780  17.720  12.833   0.393
20356W        W92781  35.828  12.561  12.852
20357W        W92782  34.390  39.667   3.638
20358W        W92783  34.884  37.567   0.860
20359W        W92784  36.560   8.416   1.319
20360W        W92785  37.959  14.312   4.406
20361W        W92786   4.715  14.253  10.036
20362W        W92787  18.585   7.600   1.596
20363W        W92788  37.117  31.796  12.876
20364W        W92789  28.604  37.204  12.958
20365W        W92790  26.377  30.355   0.464
20366W        W92791  31.871  30.618   1.966
20367W        W92792  35.603  16.272  10.673
20368W        W92793  34.970  23.554   3.220
20369W        W92794   2.414   8.618  14.815
20370W        W92795   2.928  24.417   0.975
20371W        W92796  20.335   9.881  12.184
20372W        W92797  22.731  13.205  12.434
20373W        W92798  27.848  39.057   0.072
20374W        W92799  13.466  11.268  13.426
20375W        W92800  42.519  11.054  14.407
20376W        W92801   2.772  29.475  14.045
20377W        W92802  17.152  25.338   0.479
20378W        W92803   4.823   2.636   4.999
20379W        W92804  26.639  27.255   1.754
20380W        W92805   8.862  32.387   2.305
20381W        W92806   9.774  24.037   3.226
20382W        W92807   5.921  22.144   3.795
20383W        W92808   0.847  27.056  13.382
20384W        W92809  15.336   4.955  11.507
20385W        W92810   2.259   4.987   0.847
20386W        W92811  15.360  20.408   3.777
20387W        W92812  35.445   2.228  11.727
20388W        W92813  21.144  43.395   2.653
20389W        W92814  44.805  17.645  11.605
20390W        W92815  42.591  12.084  11.158
20391W        W92816  39.334  41.352   2.460
20392W        W92817   3.749  30.282   5.284
20393W        W92818  30.614  25.161   4.530
20394W        W92819  15.635  22.478   5.019
20395W        W92820  24.240  44.410   4.629
20396W        W92821  12.337  30.157   2.121
20397W        W92822  43.885   5.954  13.982
20398W        W92823   0.352  33.628   2.438
20399W        W92824   3.772  15.720   4.890
20400W        W92825   9.389  12.557  11.550
20401W        W92826  14.334  41.584  10.605
20402W        W92827  38.369  16.678   4.624
20403W        W92828  10.017   0.962   1.593
20404W        W92829  29.967  22.942  12.080
20405W        W92830  39.875  41.851  11.045
20406W        W92831   0.203  19.494  13.335
20407W        W92832  19.905  15.571  10.319
20408W        W92833  37.941   3.719   2.381
20409W        W92834  20.613   4.974   3.606
20410W        W92835  14.914  30.070   4.967
20411W        W92836  24.188  38.410  14.475
20412W        W92837   8.186  25.454   0.273
20413W        W92838   2.006  38.900  11.429
20414W        W92839  31.551  28.758  10.339
20415W        W92840  32.550  39.483  11.638
20416W        W92841  44.592   0.367   4.197
20417W        W92842  24.154   9.158  10.599
20418W        W92843  34.028  26.764  11.524
20419W        W92844  12.619  24.546   2.783
20420W        W92845   1.658  11.898   3.686
20421W        W92846   5.790  25.244  13.915
20422W        W92847   1.289  25.224  13.461
20423W        W92848  19.707  35.300  10.841
20424W        W92849  13.027  12.333   1.420
20425W        W92850   9.303  13.089   3.188
20426W        W92851   6.211  38.008   1.298
20427W        W92852  30.389  21.709   1.231
20428W        W92853  21.690  27.560   4.053
20429W        W92854  29.515  29.799   2.150
20430W        W92855  44.514  23.050   1.624
20431W        W92856  23.864  18.819  12.391
20432W        W92857  20.730  34.559  14.867
20433W        W92858  16.140  34.982   2.900
20434W        W92859  37.003  13.327   3.968
20435W        W92860  35.430   3.081   2.846
20436W        W92861  16.371  10.280   0.689
20437W        W92862  29.950  44.226  11.114
20438W        W92863  28.409   5.098  10.727
20439W        W92864  18.845  29.154  12.979
20440W        W92865  25.116  34.378  12.881
20441W        W92866  39.463  36.958  14.945
20442W        W92867  19.220  25.846   0.055
20443W        W92868  27.330   5.144  13.852
20444W        W92869  36.544  14.132   2.296
20445W        W92870   5.852   2.596   1.826
20446W        W92871  18.056   7.665  11.578
20447W        W92872  33.868  38.523   4.483
20448W        W92873   4.783  16.583   3.821
20449W        W92874   4.190  32.560   0.611
20450W        W92875  20.574  27.311   4.635
20451W        W92876  20.558   2.963  14.616
20452W        W92877  27.379  22.583  10.497
20453W        W92878  38.364  44.220  10.209
20454W        W92879  42.925  19.788   1.273
20455W        W92880  38.513  25.421  11.120
20456W        W92881  41.343  11.844   4.625
20457W        W92882  33.540  22.379  12.867
20458W        W92883  28.227  28.135   2.586
20459W        W92884  19.594  29.718  12.260
20460W        W92885   7.543  41.579  11.675
20461W        W92886  33.178  13.196   2.574
20462W        W92887   9.710  35.596   1.353
20463W        W92888   3.247  12.618   4.000
20464W        W92889  25.099  11.891  13.469
20465W        W92890  43.430  20.959  14.001
20466W        W92891   6.271  11.201   0.430
20467W        W92892  12.341  30.425   3.373
20468W        W92893   2.045  28.445   2.848
20469W        W92894  15.312  40.733  10.825
20470W        W92895  38.353  36.423   1.230
20471W        W92896  23.543  43.019   2.297
20472W        W92897  10.483   4.145   1.953
20473W        W92898   4.106  10.491   3.622
20474W        W92899  43.303  17.629  14.745
20475W        W92900  22.389   9.244   0.153
20476W        W92901  44.647  32.798   2.205
20477W        W92902   4.015   2.368  14.977
20478W        W92903   3.331  39.435  14.761
20479W        W92904  42.363  20.461  14.486
20480W        W92905   7.246  21.857   3.481
20481W        W92906  19.762  35.881  11.961
20482W        W92907  34.561  10.355   2.338
20483W        W92908  30.187   5.397  13.045
20484W        W92909  11.570  11.565  10.409
20485W        W92910  39.173  25.725   0.358
20486W        W92911  20.230  35.543  13.513
20487W        W92912  24.554  18.067   4.296
20488W        W92913  33.538  28.079  14.228
20489W        W92914  18.721  28.614  13.064
20490W        W92915  17.054  19.801  14.243
20491W        W92916  13.007  27.443  11.017
20492W        W92917  43.989  44.032  14.922
20493W        W92918  13.261  36.774  14.505
20494W        W92919  30.885  10.292  13.380
20495W        W92920  43.091  10.434   2.411
20496W        W92921  12.797  28.412   4.164
20497W        W92922  18.090  39.110  14.854
20498W        W92923  15.283  26.681   4.386
20499W        W92924  32.984   9.345   0.328
20500W        W92925  20.920   9.601   0.532
20501W        W92926  31.816  38.332  11.393
20502W        W92927   2.810   2.733   4.835
20503W        W92928  43.865  22.285   0.333
20504W        W92929  18.089  24.790  14.436
20505W        W92930  26.035  36.842   4.470
20506W        W92931  36.472  14.052  12.100
20507W        W92932  40.866  15.320   4.754
20508W        W92933   3.153  14.166  14.469
20509W        W92934  41.620  18.886   4.566
20510W        W92935  17.617  31.863  11.410
20511W        W92936  16.023  33.562   0.751
20512W        W92937   2.178  27.872   2.770
20513W        W92938   9.240  11.264  14.747
20514W        W92939  35.620   1.808  14.941
20515W        W92940  25.564  43.119   4.180
20516W        W92941  36.823   4.461   4.695
20517W        W92942  29.321   2.272   4.138
20518W        W92943  26.278  13.148   4.631
20519W        W92944  23.737   3.649  12.591
20520W        W92945  18.807   0.019   0.731
20521W        W92946  16.186  11.727   3.615
20522W        W92947  20.613  28.931  13.373
20523W        W92948  24.683  32.157  11.617
20524W        W92949  28.568  43.977   2.350
20525W        W92950  30.045  14.364  12.485
20526W        W92951  43.994  34.634   4.748
20527W        W92952  19.517  35.049  12.510
20528W        W92953  27.445  29.439   2.227
20529W        W92954  12.336  18.622  13.595
20530W        W92955  38.402   8.418  11.674
20531W        W92956   0.018  30.940   4.162
20532W        W92957  44.616  29.773  11.620
20533W        W92958   0.947  12.266   1.497
20534W        W92959  22.077  30.587  11.250
20535W        W92960  23.978  20.088   1.884
20536W        W92961  19.171  37.142  14.987
20537W        W92962  35.947  35.675  12.033
20538W        W92963  32.505  34.836   3.205
20539W        W92964   1.974   5.423   4.812
20540W        W92965   4.259  22.179  12.582
20541W        W92966   3.604   5.389  11.728
20542W        W92967  31.641  40.006   1.542
20543W        W92968  19.536  11.126  13.920
20544W        W92969   7.378  12.622  10.709
20545W        W92970  26.084  16.341  10.606
20546W        W92971  36.350  30.989   1.768
20547W        W92972  17.209  34.557  11.765
20548W        W92973  38.438   1.604   0.227
20549W        W92974  18.564  21.007   1.799
20550W        W92975   7.444  20.150  12.914
20551W        W92976  30.055  28.384  12.925
20552W        W92977  37.392  30.743  10.713
20553W        W92978  16.102  10.376   4.053
20554W        W92979  30.907   4.632  14.828
20555W        W92980  37.997  44.450  14.078
20556W        W92981  43.254   9.202  12.445
20557W        W92982  33.621  21.827   0.420
20558W        W92983  15.902  17.769  13.332
20559W        W92984  43.418  32.018  11.085
20560W        W92985  41.109   6.847  12.513
20561W        W92986  18.637   9.763   3.787
20562W        W92987   9.981  30.726   0.612
20563W        W92988  41.880  41.250   2.197
20564W        W92989  23.073  12.865  10.891
20565W        W92990  28.118  32.870   2.675
20566W        W92991  43.830  34.154   4.855
20567W        W92992   1.933  22.013   2.571
20568W        W92993  22.731  11.522   2.481
20569W        W92994   9.341   2.683  11.967
20570W        W92995  28.518  25.925   2.317
20571W        W92996  14.093   5.569  12.098
20572W        W92997  19.846   3.229   1.944
20573W        W92998  33.358   8.100   0.746
20574W        W92999  25.880  40.500   1.110
20575W        W93000  39.598  34.873   1.339
20576W        W93001  32.519   7.120   1.630
20577W        W93002  27.443   7.858   0.759
20578W        W93003   4.714  22.023  13.475
20579W        W93004   0.850   9.371   0.950
20580W        W93005  39.079  23.214   3.451
20581W        W93006  36.153   1.180  13.446
20582W        W93007  36.899  32.113   1.366
20583W        W93008  42.248  43.384   4.127
20584W        W93009  16.113  14.227   1.757
20585W        W93010   5.969  13.755   1.185
20586W        W93011  39.545  43.953  12.281
20587W        W93012   4.283  14.800   4.592
20588W        W93013  13.691  42.912   2.662
20589W        W93014  19.930  40.838  11.272
20590W        W93015   3.374  25.404   1.885
20591W        W93016  26.257   0.484   4.783
20592W        W93017  20.623   4.158  13.974
20593W        W93018  42.420  11.282  10.719
20594W        W93019  33.196  15.044   1.311
20595W        W93020  17.610  38.607   1.046
20596W        W93021  38.745  36.243   2.753
20597W        W93022  32.112   7.446  12.932
20598W        W93023  39.704  19.711   1.277
20599W        W93024  27.709  31.498  10.525
20600W        W93025  38.403   2.480  12.201
20601W        W93026  29.637  39.959   4.537
20602W        W93027  24.283  39.279  14.243
20603W        W93028  13.698  42.861   4.798
20604W        W93029  35.627  37.627  13.315
20605W        W93030  31.047  26.451   1.720
20606W        W93031  21.662   8.342   3.140
20607W        W93032  44.834  37.914   3.562
20608W        W93033  13.106  11.367   4.525
20609W        W93034  35.922  10.585   2.861
20610W        W93035  44.130  26.530   0.483
20611W        W93036  29.600  13.750   1.894
20612W        W93037  27.020   0.543  12.691
20613W        W93038  37.599   6.013  11.825
20614W        W93039  17.862  34.877  11.207
20615W        W93040   9.692   4.413   3.658
20616W        W93041  36.553  15.568  11.687
20617W        W93042  14.379  44.495   4.503
20618W        W93043  35.869   8.375  12.475
20619W        W93044  34.314   7.349   1.288
20620W        W93045   0.388  20.651  10.909
20621W        W93046   4.457  14.171   0.731
20622W        W93047   4.839  31.039  10.271
20623W        W93048  27.904  32.293  10.710
20624W        W93049   6.379  31.656  11.884
20625W        W93050  13.347  32.898   4.202
20626W        W93051  18.701   7.024  12.991
20627W        W93052  28.115   0.703   3.003
20628W        W93053   0.759  29.461  13.274
20629W        W93054  12.711  17.022   1.842
20630W        W93055  44.808  14.601   1.887
20631W        W93056  38.506   4.361   2.975
20632W        W93057  43.080  28.023  12.008
20633W        W93058   3.883  20.017   3.248
20634W        W93059  37.041  15.299   1.721
20635W        W93060  29.713  19.099  10.937
20636W        W93061  18.541  38.390  12.081
20637W        W93062   1.187  35.067   1.760
20638W        W93063   7.455   1.906  12.066
20639W        W93064  30.291  15.381  12.381
20640W        W93065  16.210  10.424  10.715
20641W        W93066   2.403  17.954   0.573
20642W        W93067  36.626  38.251  13.050
20643W        W93068  41.011  23.410   1.205
20644W        W93069  10.044   8.732  11.154
20645W        W93070  33.659  24.658   2.216
20646W        W93071   5.417  11.598   3.523
20647W        W93072  33.446  20.238  14.492
20648W        W93073  33.309  21.927   2.675
20649W        W93074  33.931  33.696  10.710
20650W        W93075  26.828   7.361   1.793
20651W        W93076  11.605  41.624  12.003
20652W        W93077  43.946  40.134   4.239
20653W        W93078  26.063  24.153  12.388
20654W        W93079  35.273  42.892  10.763
20655W        W93080  41.791  31.958  14.472
20656W        W93081  31.454   6.389  13.447
20657W        W93082  23.132  38.732   0.321
20658W        W93083  28.152  30.309  14.508
20659W        W93084  14.802  20.788   1.227
20660W        W93085  22.321  40.528   3.683
20661W        W93086   7.405  38.192  10.714
20662W        W93087  44.002  14.004   2.813
20663W        W93088  36.953  41.245  10.613
20664W        W93089  23.723  21.183   0.249
20665W        W93090   6.777  29.269  12.008
20666W        W93091   4.449  42.339   2.496
20667W        W93092  17.766  40.336   0.403
20668W        W93093  26.974  12.338  11.660
20669W        W93094  43.517  31.516   0.225
20670W        W93095  35.967  36.344   2.305
20671W        W93096  24.832  21.686   4.467
20672W        W93097  44.347   1.426   3.254
20673W        W93098  31.921   3.078   3.238
20674W        W93099  32.893  38.994  11.045
20675W        W93100  35.521  15.687   1.839
20676W        W93101  36.864  30.995  11.930
20677W        W93102  21.262  39.962   1.783
20678W        W93103  36.005  19.203   4.353
20679W        W93104   6.682  35.552   0.217
20680W        W93105  27.673   4.705   2.629
20681W        W93106  34.925  25.949  14.525
20682W        W93107  36.942  39.007   3.133
20683W        W93108  21.943  26.947  13.842
20684W        W93109  38.981  15.069  12.982
20685W        W93110  42.215  27.922   0.741
20686W        W93111  24.073  41.618  13.638
20687W        W93112  38.438  17.372  13.817
20688W        W93113  13.593  18.232   2.824
20689W        W93114  40.899  37.058   1.267
20690W        W93115   9.591  36.438  14.344
20691W        W93116   3.439  44.336  14.514
20692W        W93117  42.761   1.288  12.879
20693W        W93118   6.782  22.565   3.678
20694W        W93119  27.507   3.743  13.952
20695W        W93120  42.450   5.891  11.619
20696W        W93121  11.047   0.187   1.413
20697W        W93122  43.293   7.715   4.628
20698W        W93123  36.551  36.789  14.281
20699W        W93124  36.658  10.291  13.070
20700W        W93125  30.899  22.460  14.057
20701W        W93126  31.817   3.050  12.601
20702W        W93127  34.416   8.126  13.963
20703W        W93128  21.017  33.620   4.141
20704W        W93129  40.031  14.732   1.328
20705W        W93130  26.588  20.267   1.176
20706W        W93131   6.755  44.513   4.955
20707W        W93132   5.420  12.084   3.708
20708W        W93133  25.529  31.095   4.202
20709W        W93134  13.554  35.103   0.330
20710W        W93135  30.525  39.475  12.161
20711W        W93136  38.561  23.486  11.077
20712W        W93137  28.190  16.323   2.036
20713W        W93138   9.894  10.624   2.230
20714W        W93139   5.892   7.025  14.683
20715W        W93140  18.758   1.859   5.518
20716W        W93141  15.867   4.495  12.443
20717W        W93142   2.993   0.459   4.031
20718W        W93143  40.185  22.526   0.146
20719W        W93144  13.950   5.367  14.268
20720W        W93145  22.153  17.071  10.525
20721W        W93146  14.519  38.310   1.332
20722W        W93147  42.182  31.120  11.992
20723W        W93148   8.680  14.536  11.592
20724W        W93149  14.890  22.190   1.216
20725W        W93150   8.402   8.282  14.320
20726W        W93151  31.042   4.277   4.282
20727W        W93152   5.027  35.192   4.290
20728W        W93153  28.423  39.540  12.038
20729W        W93154  38.702   3.717   1.773
20730W        W93155  43.246  24.571   4.933
20731W        W93156  27.320  23.449   0.822
20732W        W93157  26.933  14.018  13.457
20733W        W93158  35.626   8.361   0.681
20734W        W93159  39.416  24.948   4.069
20735W        W93160   1.356  39.816  14.052
20736W        W93161  22.443   2.428   3.580
20737W        W93162  23.055   7.657  12.538
20738W        W93163   4.813  10.655  12.098
20739W        W93164  42.425  13.191  10.720
20740W        W93165   0.491  34.062  10.568
20741W        W93166   5.694  34.998   3.073
20742W        W93167   4.846  21.163   4.621
20743W        W93168  36.776  27.611   1.152
20744W        W93169   8.184  17.242  14.629
20745W        W93170  19.317  41.334  14.581
20746W        W93171  28.956   7.785   4.447
20747W        W93172  42.298  23.945  12.904
20748W        W93173  29.323   2.949  13.409
20749W        W93174  15.084  33.295  13.311
20750W        W93175  40.763  29.666   4.313
20751W        W93176   7.060  15.604  13.333
20752W        W93177  23.338  44.834   0.402
20753W        W93178  18.534  21.330   1.131
20754W        W93179  38.060   4.018   2.802
20755W        W93180  13.724  44.524  12.863
20756W        W93181   6.236  13.825   3.362
20757W        W93182  23.144  37.611   1.362
20758W        W93183   5.542  40.274   2.342
20759W        W93184  35.896   4.306   2.428
20760W        W93185  32.547  12.352  12.954
20761W        W93186   3.750  25.211  10.129
20762W        W93187  25.651  28.132   0.857
20763W        W93188  33.078  11.854  14.544
20764W        W93189  37.219  10.280  13.941
20765W        W93190  26.217   2.802   1.410
20766W        W93191  17.646  33.030  13.846
20767W        W93192  43.395  24.203  12.487
20768W        W93193  21.012  25.695   3.284
20769W        W93194  17.751  38.507   3.246
20770W        W93195   8.912  35.033   4.261
20771W        W93196   4.192  33.833   2.742
20772W        W93197   6.338  43.791  13.842
20773W        W93198  15.785  34.422  13.371
20774W        W93199  11.197  19.055  11.997
20775W        W93200  34.566   7.997   1.877
20776W        W93201  37.026   4.480   0.721
20777W        W93202   2.743  14.593   2.903
20778W        W93203  43.283  16.240  13.833
20779W        W93204  22.900  11.512  11.437
20780W        W93205  32.412  27.561  11.510
20781W        W93206  27.049  16.481  14.239
20782W        W93207  28.407   6.426   0.802
20783W        W93208  43.493   6.871   1.115
20784W        W93209  25.010   6.457  12.210
20785W        W93210  25.556   4.759  14.402
20786W        W93211  25.193  16.737  14.366
20787W        W93212  26.907   9.386   0.231
20788W        W93213  16.769   9.859  13.048
20789W        W93214  13.114  23.696   0.758
20790W        W93215   6.966  28.072  14.696
20791W        W93216  15.570   8.212   1.440
20792W        W93217  32.998  42.715   4.614
20793W        W93218  27.648  39.207   1.420
20794W        W93219  23.610   4.764  14.357
20795W        W93220  12.014  34.978  12.929
20796W        W93221   0.700  19.692   3.768
20797W        W93222   5.655  35.590   0.286
20798W        W93223  38.028   2.801  14.526
20799W        W93224  25.986  19.321  10.731
20800W        W93225  41.269  38.819  10.678
20801W        W93226  31.065  30.039   1.734
20802W        W93227  13.781  35.829   0.805
20803W        W93228  33.142  25.606   2.678
20804W        W93229  19.352   5.676  10.734
20805W        W93230   9.383  44.643  13.469
20806W        W93231  24.151   4.340  12.333
20807W        W93232   8.459  29.548  13.001
20808W        W93233  38.029  18.599   3.169
20809W        W93234  36.603   7.652  12.000
20810W        W93235  23.210  37.393  13.389
20811W        W93236  12.590  15.574  14.648
20812W        W93237  27.791  35.967  12.898
20813W        W93238  31.365   6.893  14.841
20814W        W93239  40.348  29.160   0.952
20815W        W93240   9.707  40.665  13.795
20816W        W93241   9.815   2.626   2.850
20817W        W93242  11.640  34.865   3.132
20818W        W93243  32.047  40.050   0.760
20819W        W93244  43.464  42.832  12.369
20820W        W93245  29.388   0.930   4.678
20821W        W93246  31.006   6.771   0.731
20822W        W93247  30.993  22.948  11.130
20823W        W93248   3.945   0.855   1.325
20824W        W93249  42.046  10.914  12.520
20825W        W93250   6.759  29.234  13.376
20826W        W93251  10.365  23.988   1.259
20827W        W93252  40.342  27.202   0.398
20828W        W93253  34.862  36.871   0.459
20829W        W93254   5.642  12.894   3.315
20830W        W93255   0.166  40.776  12.385
20831W        W93256  32.149  22.967  11.220
20832W        W93257   5.847  30.653  11.168
20833W        W93258  26.720  39.703  11.174
20834W        W93259  10.593  39.093   2.386
20835W        W93260  23.979  23.819  11.974
20836W        W93261  27.536  38.962  13.748
20837W        W93262  35.387  16.622   2.968
20838W        W93263  31.851   7.831  11.346
20839W        W93264  20.763   6.222  10.570
20840W        W93265  13.952  43.342   4.104
20841W        W93266  22.217  37.494   2.142
20842W        W93267  32.431  39.599   4.263
20843W        W93268  15.199   0.503  11.620
20844W        W93269  20.594  28.904  14.320
20845W        W93270  16.977  25.042   4.990
20846W        W93271  36.061  40.497   3.625
20847W        W93272   4.614  12.384   1.748
20848W        W93273   7.187   1.582  11.402
20849W        W93274  16.284  10.270   1.689
20850W        W93275  35.431  14.484   2.712
20851W        W93276  28.604  43.959   0.223
20852W        W93277  30.900  40.066   1.667
20853W        W93278  25.979  23.928   4.666
20854W        W93279  18.216   9.880  10.674
20855W        W93280  17.249  30.479  10.303
20856W        W93281  13.877   9.423  13.431
20857W        W93282  29.938  18.624  14.834
20858W        W93283   1.999  18.788   2.859
20859W        W93284   9.357  35.036  14.636
20860W        W93285   3.467   7.400  14.972
20861W        W93286  29.144  30.087   5.312
20862W        W93287  11.853   7.725  10.122
20863W        W93288  21.485  30.694  11.125
20864W        W93289  26.995  26.629   3.078
20865W        W93290   5.344  33.716  11.967
20866W        W93291  39.147  42.109  13.321
20867W        W93292   0.904  37.022  10.486
20868W        W93293  32.068  26.979  10.774
20869W        W93294  43.567  11.649  13.889
20870W        W93295   9.143  11.121  12.859
20871W        W93296   6.879  22.476   1.222
20872W        W93297  22.650   7.306  14.347
20873W        W93298   1.847   3.356   3.541
20874W        W93299  28.779  30.607   4.581
20875W        W93300  11.260  20.974   1.666
20876W        W93301   2.329  35.218  12.170
20877W        W93302  37.056  22.618  12.316
20878W        W93303   7.750  34.913   2.714
20879W        W93304  16.244  24.443  10.578
20880W        W93305  40.821  24.225   2.384
20881W        W93306  33.480  16.263   1.382
20882W        W93307  31.329  37.635  13.813
20883W        W93308   8.560  15.368  12.871
20884W        W93309  11.640   9.860  11.537
20885W        W93310  43.644  28.056  11.333
20886W        W93311   1.370  40.034   0.486
20887W        W93312  38.646  35.540   1.402
20888W        W93313  31.616   0.426  14.006
20889W        W93314  33.188  28.969  11.787
20890W        W93315   0.493   8.724  13.895
20891W        W93316  24.694  25.680   1.203
20892W        W93317  42.863  37.753  13.901
20893W        W93318  31.545  33.253   4.107
20894W        W93319  39.894  35.526   2.812
20895W        W93320  27.814  31.028  10.293
20896W        W93321  24.864  36.370  13.014
20897W        W93322   3.441  37.449   3.222
20898W        W93323  39.561  22.373   1.416
20899W        W93324  40.082  13.546   1.359
20900W        W93325   8.830  17.025  11.673
20901W        W93326  20.112  41.266  13.913
20902W        W93327  20.179  36.672   2.173
20903W        W93328   9.394  18.340   5.037
20904W        W93329  10.365  35.435   1.865
20905W        W93330   3.593  17.902  14.931
20906W        W93331   6.235  30.167   2.664
20907W        W93332  37.626  21.060   1.445
20908W        W93333  10.641  16.076   4.536
20909W        W93334  23.908  27.247  14.395
20910W        W93335  44.332  30.891   0.391
20911W        W93336  16.179  12.249   2.769
20912W        W93337  16.870   5.011   3.258
20913W        W93338  16.973  13.595   2.958
20914W        W93339  22.798  17.840  13.848
20915W        W93340   4.406   8.868  11.908
20916W        W93341  19.116  19.999  13.024
20917W        W93342  30.536  25.701   4.651
20918W        W93343  31.371  39.011   3.674
20919W        W93344  15.677  35.602  11.890
20920W        W93345  17.329  27.883  13.172
20921W        W93346  19.875  16.735   1.476
20922W        W93347  44.219  14.370   0.826
20923W        W93348  23.972  30.060   4.501
20924W        W93349  41.596  42.568  12.642
20925W        W93350   5.311   2.417  14.014
20926W        W93351  22.537   8.884  14.341
20927W        W93352  34.612  34.967  10.662
20928W        W93353   9.394  15.408   4.537
20929W        W93354  34.567  31.811   0.432
20930W        W93355  11.650  20.497   2.393
20931W        W93356  24.477  14.865   4.579
20932W        W93357  43.704  23.470  12.913
20933W        W93358  43.116  10.901  13.241
20934W        W93359  10.081  21.210   2.202
20935W        W93360  15.158   9.409   0.829
20936W        W93361  24.288  16.724  12.599
20937W        W93362  21.054  18.765   4.575
20938W        W93363  36.675  14.328  12.942
20939W        W93364   3.443  38.430   3.399
20940W        W93365  22.801  15.374   1.102
20941W        W93366  39.765   7.710  10.474
20942W        W93367   8.760   3.309  14.212
20943W        W93368  19.731  23.929   1.832
20944W        W93369  40.907   4.765   2.718
20945W        W93370  13.843   1.424  11.989
20946W        W93371  22.775  14.071   2.237
20947W        W93372  23.982  39.057  12.043
20948W        W93373  15.785  29.079   4.266
20949W        W93374  25.083  31.135   4.448
20950W        W93375  23.022  20.671   0.404
20951W        W93376  20.575  20.187   4.890
20952W        W93377  15.706  30.194   3.807
20953W        W93378  26.103  12.317   1.104
20954W        W93379  30.147  13.553  11.113
20955W        W93380  18.084  33.186  11.151
20956W        W93381  41.481   2.024   2.908
20957W        W93382  10.293  19.761   3.316
20958W        W93383  42.595  32.596   3.553
20959W        W93384  15.741  34.895  13.153
20960W        W93385  12.179  43.854  14.368
20961W        W93386  30.210  12.367   2.182
20962W        W93387  30.126  36.059  13.810
20963W        W93388  10.737  21.701   1.926
20964W        W93389  22.550  11.705   2.998
20965W        W93390  40.474  21.557   4.167
20966W        W93391  41.982  25.123   1.478
20967W        W93392  12.965   1.484   3.613
20968W        W93393  41.546  37.962  11.171
20969W        W93394  35.422  23.020   3.397
20970W        W93395  30.264  32.390  14.834
20971W        W93396  33.271  26.201   2.241
20972W        W93397  38.125  10.845  13.843
20973W        W93398   9.271   2.972  12.402
20974W        W93399  19.812  15.543  13.480
20975W        W93400  17.601   6.449   0.868
20976W        W93401   4.925  41.448   4.760
20977W        W93402  20.467  27.075  13.203
20978W        W93403   3.929  34.846  10.317
20979W        W93404  34.196  41.461   3.763
20980W        W93405   6.988  15.607   4.153
20981W        W93406   1.400  44.280   1.153
20982W        W93407   1.617  27.021   2.168
20983W        W93408   9.368  27.202  14.407
20984W        W93409  13.607  25.599   5.145
20985W        W93410   0.955  27.679  14.907
20986W        W93411   4.853  13.043  10.732
20987W        W93412  25.469  38.494   0.109
20988W        W93413  24.661  18.097   0.837
20989W        W93414  34.809   0.960   5.085
20990W        W93415   3.262  16.016   1.382
20991W        W93416  28.128   0.155   3.022
20992W        W93417  12.707  19.661  12.803
20993W        W93418  35.426   4.016  13.530
20994W        W93419  33.701  16.568   4.538
20995W        W93420  44.453  21.982   2.005
20996W        W93421  27.206  19.683  14.105
20997W        W93422  31.662  14.641   2.913
20998W        W93423   7.203  15.324   3.317
20999W        W93424   8.233  37.441   3.610
21000W        W93425  23.509  38.311   0.930
21001W        W93426  16.582  10.204  13.917
21002W        W93427  35.772  16.436  12.545
21003W        W93428  27.063   5.769   2.389
21004W        W93429  34.892   1.304  13.648
21005W        W93430  12.554  27.618  10.409
21006W        W93431  36.950  27.003  12.834
21007W        W93432  32.587   8.210  11.088
21008W        W93433   8.093   8.964   9.847
21009W        W93434  12.102  28.173   2.142
21010W        W93435  33.521  16.591   9.561
21011W        W93436  41.378   1.271   3.331
21012W        W93437  39.622   6.972   2.736
21013W        W93438  31.129  14.457  13.587
21014W        W93439  27.435   5.072  11.438
21015W        W93440  31.532  30.224   1.900
21016W        W93441   8.930  41.979   4.931
21017W        W93442  10.578  28.060   3.148
21018W        W93443  29.977  10.694   4.335
21019W        W93444  12.270   1.286  13.508
21020W        W93445  31.175  30.966  13.819
21021W        W93446  42.125   8.579   2.516
21022W        W93447  15.328  16.323   0.373
21023W        W93448  30.152  38.645  13.878
21024W        W93449  28.338  32.583   1.696
21025W        W93450  27.327  38.119  13.965
21026W        W93451  29.661  19.578   3.583
21027W        W93452  29.652   9.304  14.292
21028W        W93453  11.160  40.619   0.780
21029W        W93454  18.282  27.015  14.863
21030W        W93455  33.700  30.414  11.036
21031W        W93456  27.053  26.760  12.415
21032W        W93457  38.664  23.983   4.030
21033W        W93458   7.141  28.525  14.951
21034W        W93459   7.823  10.171  10.512
21035W        W93460  42.316  22.637   4.183
21036W        W93461  28.677  38.527  14.103
21037W        W93462  38.940  30.719   0.356
21038W        W93463  34.165   2.345  13.146
21039W        W93464   2.920  12.586   1.727
21040W        W93465  15.167  18.615   0.066
21041W        W93466  27.009  22.009   4.143
21042W        W93467  12.204  27.969  12.151
21043W        W93468  14.085  35.082   4.534
21044W        W93469  31.823  31.613   2.335
21045W        W93470  23.462  34.406   2.400
21046W        W93471  20.156  11.482  14.421
21047W        W93472  20.765  17.497  14.421
21048W        W93473  23.654  36.348  12.226
21049W        W93474   0.478   1.472  13.452
21050W        W93475  33.944  20.185  10.812
21051W        W93476  19.668  35.550   1.904
21052W        W93477  15.687  12.232   4.780
21053W        W93478   8.859  36.972   0.221
21054W        W93479   7.243  27.542   4.299
21055W        W93480  33.592  33.982   2.671
21056W        W93481  21.545  30.712  13.264
21057W        W93482  30.977  19.439  13.361
21058W        W93483  32.116   4.439   4.127
21059W        W93484  37.928  27.533  13.000
21060W        W93485  14.373  15.018   3.253
21061W        W93486  44.026  26.448  10.695
21062W        W93487  33.991   1.336   1.432
21063W        W93488  33.990  42.453   5.002
21064W        W93489  38.343  39.766  13.814
21065W        W93490   7.932  32.102   1.846
21066W        W93491  32.421   6.771  10.752
21067W        W93492  22.508  41.717  12.602
21068W        W93493  41.746  39.922   3.387
21069W        W93494  21.892  42.764  11.555
21070W        W93495  31.494  41.461   3.810
21071W        W93496  37.416  41.478  12.392
21072W        W93497  16.768  13.796  12.494
21073W        W93498  24.095   8.882   0.410
21074W        W93499   1.054  33.619   3.724
21075W        W93500  29.643  19.016   4.785
21076W        W93501   0.996  34.113   0.484
21077W        W93502   2.861   3.277  12.797
21078W        W93503   4.639   4.195  10.884
21079W        W93504  34.409  21.928  10.998
21080W        W93505  38.438  12.717   3.323
21081W        W93506  36.507  35.073  12.451
21082W        W93507  14.936   8.282  14.344
21083W        W93508  42.966  19.691   0.395
21084W        W93509   9.833  29.036   0.384
21085W        W93510  26.314  17.398   0.402
21086W        W93511  21.248  17.492  14.799
21087W        W93512  28.869  24.204   2.165
21088W        W93513  43.480  33.474   3.678
21089W        W93514  39.867  11.233  13.826
21090W        W93515  14.226   4.669  12.125
21091W        W93516  33.611  23.078   3.435
21092W        W93517  25.226  42.017  13.077
21093W        W93518   5.512  30.214  14.861
21094W        W93519  19.163  36.385   4.512
21095W        W93520   9.911  44.374  13.680
21096W        W93521  18.171   4.403   2.192
21097W        W93522  36.899  43.345   0.397
21098W        W93523   1.962  21.693   4.194
21099W        W93524  18.133  16.099  10.757
21100W        W93525  14.797  21.101   4.675
21101W        W93526   3.044  30.875   5.062
21102W        W93527  19.300  36.507  12.435
21103W        W93528  20.101  28.033   0.397
21104W        W93529  22.217  14.690   4.504
21105W        W93530  11.702   9.096  10.607
21106W        W93531  29.230  38.167   4.098
21107W        W93532  19.051  23.018  13.383
21108W        W93533  34.347  35.284   1.741
21109W        W93534  13.590   7.143   1.707
21110W        W93535  43.841  42.235  11.151
21111W        W93536  18.334  13.563   1.926
21112W        W93537  19.859   5.672   3.705
21113W        W93538  35.508   9.642  12.036
21114W        W93539  24.211  35.562  13.536
21115W        W93540  10.393  14.831  12.028
21116W        W93541  17.847  30.868   0.794
21117W        W93542  21.460  38.282  11.146
21118W        W93543   8.192  16.736   1.939
21119W        W93544  28.216  15.829   1.857
21120W        W93545  35.154  15.684  12.121
21121W        W93546  36.852  30.094   1.671
21122W        W93547   7.969   3.710  12.017
21123W        W93548  13.494  15.581   2.309
21124W        W93549   1.238  43.897   4.568
21125W        W93550  11.295  19.190   2.149
21126W        W93551  19.226  14.261   2.399
21127W        W93552  11.027  41.184  12.103
21128W        W93553  44.042  29.786   1.966
21129W        W93554  29.747  14.679   1.606
21130W        W93555  27.953   0.627   1.264
21131W        W93556   9.611  12.100  11.463
21132W        W93557   6.414  35.456  14.791
21133W        W93558  17.123   5.376  14.349
21134W        W93559   7.267  27.760  13.307
21135W        W93560   2.844   0.958  14.420
21136W        W93561   9.879  22.684   4.206
21137W        W93562  39.459  33.823   3.245
21138W        W93563   4.604   3.290  11.941
21139W        W93564   6.858   9.636   3.770
21140W        W93565  34.414  41.105  10.878
21141W        W93566  14.403   6.806   2.110
21142W        W93567  44.784  15.750  10.958
21143W        W93568  10.247   6.858   5.138
21144W        W93569  11.128  34.893  11.473
21145W        W93570   4.728   4.791  14.066
21146W        W93571  15.137  12.516  13.837
21147W        W93572   3.129  14.710  14.287
21148W        W93573  17.297  11.265   0.484
21149W        W93574  20.065  17.190   1.627
21150W        W93575   2.761   6.169  12.441
21151W        W93576  17.203  28.096   4.442
21152W        W93577  32.246   6.409   0.748
21153W        W93578  28.058  28.328   4.667
21154W        W93579  24.759  28.494   4.946
21155W        W93580  40.747  20.814  12.942
21156W        W93581  35.958  20.250   1.816
21157W        W93582  41.485  17.225  12.726
21158W        W93583   0.936  31.511  12.089
21159W        W93584   5.125  44.341   1.352
21160W        W93585   4.773  21.560   3.663
21161W        W93586  27.004   7.671  11.500
21162W        W93587  12.292  29.855   1.691
21163W        W93588   4.593  20.103  13.395
21164W        W93589  38.960  10.682   2.836
21165W        W93590  16.573  34.837  12.798
21166W        W93591  18.567  14.459   1.782
21167W        W93592  22.156  43.049   1.645
21168W        W93593   5.278  29.243   2.693
21169W        W93594  40.431  34.187   1.426
21170W        W93595  44.884   5.608  13.914
21171W        W93596  19.743  28.520   0.789
21172W        W93597   9.876   7.972   1.408
21173W        W93598  26.094  30.448   4.210
21174W        W93599  19.553  15.496  14.480
21175W        W93600  29.036  18.502  14.823
21176W        W93601  32.455  37.614   4.082
21177W        W93602  41.838  13.651  12.132
21178W        W93603  24.724  35.551  11.192
21179W        W93604  40.678  39.330   2.806
21180W        W93605  10.639  11.119  10.700
21181W        W93606  29.482  42.012  10.654
21182W        W93607  38.336  42.356  12.939
21183W        W93608  14.660  12.994  14.223
21184W        W93609   1.267  44.520   4.188
21185W        W93610  20.090  22.196   3.208
21186W        W93611  19.555  23.219  13.305
21187W        W93612  18.993  27.300   1.458
21188W        W93613  37.865  21.213   4.272
21189W        W93614  36.704   0.972   0.873
21190W        W93615  39.509  44.071  14.788
21191W        W93616  12.489  28.857   4.133
21192W        W93617  24.870  10.497   3.298
21193W        W93618  27.194  32.543   3.217
21194W        W93619  43.889   9.250  12.871
21195W        W93620   4.204  30.245  11.095
21196W        W93621  18.194   4.181   2.714
21197W        W93622  38.259  28.627  11.574
21198W        W93623  36.129  28.671   1.745
21199W        W93624   0.542  22.255  11.053
21200W        W93625   5.174  19.636   0.832
21201W        W93626  13.246  32.148  12.459
21202W        W93627  21.738  13.234   4.094
21203W        W93628   7.019  14.648   1.334
21204W        W93629  23.525  30.638   1.182
21205W        W93630  39.073  35.867   2.637
21206W        W93631   1.372  14.046  10.597
21207W        W93632   3.458  39.532   2.253
21208W        W93633  38.512  27.671  12.559
21209W        W93634  37.864  25.596   5.529
21210W        W93635  32.451  27.685  10.957
21211W        W93636  38.745  36.051   3.462
21212W        W93637  23.504   3.484  13.036
21213W        W93638  23.196  19.233   3.668
21214W        W93639   5.991  15.519  11.815
21215W        W93640   7.273   4.354   3.862
21216W        W93641  26.687  32.668   9.818
21217W        W93642   0.062  33.877  13.605
21218W        W93643  15.121  12.281   3.066
21219W        W93644  27.594  34.149   2.475
21220W        W93645  18.039   2.697   3.548
21221W        W93646   9.233  35.325   2.778
21222W        W93647   9.877  33.969  14.287
21223W        W93648  18.153  38.437   0.660
21224W        W93649  39.780  18.115  13.974
21225W        W93650  29.062  13.164  13.026
21226W        W93651  40.028  30.006   4.579
21227W        W93652  14.255   3.965  14.464
21228W        W93653  25.923  33.912  12.945
21229W        W93654  32.615  18.994  13.847
21230W        W93655   9.391  20.266   2.772
21231W        W93656  27.930  13.622   9.822
21232W        W93657   5.136  32.007  12.120
21233W        W93658  39.417  42.414  12.112
21234W        W93659  15.664  20.753   4.719
21235W        W93660  36.408   7.229  11.125
21236W        W93661   0.544  20.249   0.336
21237W        W93662  42.898  31.711   3.950
21238W        W93663   1.842   0.414  12.579
21239W        W93664  44.417  29.151  14.786
21240W        W93665  19.130   7.140   0.961
21241W        W93666  21.208   8.791   9.942
21242W        W93667  21.441  28.809   2.231
21243W        W93668  30.776  32.487  14.922
21244W        W93669   1.757  33.120  13.847
21245W        W93670  13.434  18.260   0.538
21246W        W93671  22.302   2.947   0.683
21247W        W93672  35.160  17.480  11.260
21248W        W93673   2.656  28.453   0.948
21249W        W93674  38.583  41.747   3.748
21250W        W93675  11.373  11.301   0.903
21251W        W93676   1.559  18.616  12.099
21252W        W93677  30.273  35.442  10.595
21253W        W93678   4.737  22.150  12.162
21254W        W93679  18.584  35.829   0.696
21255W        W93680  33.016  27.467  12.008
21256W        W93681  34.151  40.792  14.919
21257W        W93682  37.835   0.403  11.961
21258W        W93683  37.966   2.424  11.935
21259W        W93684  38.778  35.756  10.348
21260W        W93685   1.261  31.903  14.841
21261W        W93686  38.238  12.138   0.209
21262W        W93687  34.398  13.208   2.088
21263W        W93688   2.265  43.975   2.789
21264W        W93689  31.831  18.724  10.953
21265W        W93690   6.360  41.690  10.488
21266W        W93691  26.626   4.725   3.573
21267W        W93692   9.767  21.750  12.097
21268W        W93693  19.163   1.241  13.912
21269W        W93694   6.951  34.577   1.344
21270W        W93695   1.735  30.433  13.500
21271W        W93696  29.507  12.081  12.564
21272W        W93697   4.335   1.268   4.267
21273W        W93698  40.321  44.312   2.854
21274W        W93699  34.597   1.934   2.999
21275W        W93700  34.125  22.738  13.895
21276W        W93701  28.443  34.066  13.214
21277W        W93702   4.783  25.148  11.852
21278W        W93703  44.433   0.170   3.333
21279W        W93704  26.763   0.015  12.018
21280W        W93705  19.059   0.095  12.606
21281W        W93706  34.994   2.842  12.066
21282W        W93707   2.420  14.148   0.524
21283W        W93708  44.607  39.544  11.927
21284W        W93709  30.100  36.818   2.813
21285W        W93710  36.855  39.228  10.861
21286W        W93711   7.751  21.216   1.799
21287W        W93712  36.729  39.317   1.212
21288W        W93713  11.215  40.397  14.031
21289W        W93714  33.391  14.859   2.246
21290W        W93715  25.879   2.383  12.442
21291W        W93716  36.464  24.320   4.645
21292W        W93717   7.789   5.790   0.533
21293W        W93718  19.106   1.423   4.414
21294W        W93719  10.582  39.800  14.500
21295W        W93720  36.966  14.665   3.691
21296W        W93721  26.924  38.500  13.286
21297W        W93722  13.183   4.328  14.244
21298W        W93723  14.935  33.488  13.794
21299W        W93724  37.289  32.779   5.226
21300W        W93725  44.928   8.399   4.497
21301W        W93726  23.024  22.507   0.425
21302W        W93727  14.826  23.086   4.316
21303W        W93728   6.750  34.356  11.156
21304W        W93729  21.984  39.583  11.262
21305W        W93730  40.856  18.997   0.612
21306W        W93731   9.264  34.236   3.747
21307W        W93732   6.361  20.423  14.361
21308W        W93733  39.280  22.727   1.172
21309W        W93734  42.377  18.106   4.515
21310W        W93735  13.087  41.342   2.649
21311W        W93736  19.148   4.909   4.701
21312W        W93737  14.857  23.484  14.974
21313W        W93738  38.035  30.641  12.887
21314W        W93739  31.964   7.501  11.722
21315W        W93740  25.047  42.303  11.571
21316W        W93741  25.505  39.954  14.084
21317W        W93742  15.968  40.771  12.125
21318W        W93743  21.817   3.537  11.479
21319W        W93744  13.269  37.073  14.936
21320W        W93745  17.502  19.593   4.165
21321W        W93746  13.269  17.768  14.168
21322W        W93747  34.519  33.394  14.347
21323W        W93748  23.331   5.728  12.004
21324W        W93749  35.933   6.805  13.048
21325W        W93750   6.428  19.927  14.368
21326W        W93751  22.420  15.294   3.804
21327W        W93752  10.609  34.099   4.143
21328W        W93753  22.992  19.023  12.539
21329W        W93754  30.211  24.037   0.815
21330W        W93755  13.399  19.758  10.407
21331W        W93756  41.037  39.608  12.089
21332W        W93757  32.531  40.072  13.640
21333W        W93758  15.569  13.101  13.305
21334W        W93759   0.966  33.263  13.387
21335W        W93760  10.854   2.094   0.899
21336W        W93761  32.502  16.976   4.692
21337W        W93762   9.276  32.903   4.136
21338W        W93763  40.766  10.366  14.982
21339W        W93764  18.714  29.577  13.338
21340W        W93765   4.804  14.695   3.891
21341W        W93766  16.559  25.748   3.067
21342W        W93767  28.045  42.940  13.228
21343W        W93768   3.523  23.724  11.551
21344W        W93769   3.850  15.609   1.495
21345W        W93770   9.871  41.266  12.598
21346W        W93771   0.721  21.789  13.930
21347W        W93772  27.168   7.880   0.299
21348W        W93773  44.547  18.278  12.930
21349W        W93774  17.602  22.640  14.463
21350W        W93775  20.431  29.659  11.922
21351W        W93776  18.280  22.918   4.743
21352W        W93777   4.436  30.888  14.413
21353W        W93778  22.496   9.302  11.566
21354W        W93779  11.328  24.201   4.603
21355W        W93780  31.061  40.124  14.781
21356W        W93781  11.766  29.155  12.658
21357W        W93782  29.822  26.129  14.878
21358W        W93783  21.706   2.823  14.536
21359W        W93784   2.572  18.074  11.594
21360W        W93785  18.308  23.161   1.288
21361W        W93786  19.568  15.316  11.552
21362W        W93787   9.106  17.238  13.822
21363W        W93788  12.639  32.399   3.704
21364W        W93789  29.986   1.124  11.423
21365W        W93790  30.566  28.046  11.571
21366W        W93791   6.861   1.754  10.736
21367W        W93792   4.759  43.770  12.628
21368W        W93793   6.385  37.135  13.321
21369W        W93794   6.852   0.469   1.114
21370W        W93795  39.614  16.659  13.967
21371W        W93796  22.623  25.474   0.407
21372W        W93797  24.617   2.031   4.220
21373W        W93798  32.090  24.960   2.399
21374W        W93799   7.638  10.075  11.989
21375W        W93800  21.330  31.745   2.439
21376W        W93801  26.357  24.434   2.280
21377W        W93802  44.787  16.422  13.894
21378W        W93803  11.350   3.916   4.870
21379W        W93804   6.369  42.968  12.913
21380W        W93805  15.122  10.631  10.925
21381W        W93806  38.462   5.943  13.720
21382W        W93807  39.202  15.346  11.962
21383W        W93808  27.187  32.411  14.161
21384W        W93809  12.611   5.641   4.169
21385W        W93810  19.636  37.476   4.110
21386W        W93811  22.436  13.188   2.161
21387W        W93812   6.650  19.747  13.005
21388W        W93813   7.312  35.454   3.878
21389W        W93814  23.633   1.956   2.701
21390W        W93815   7.315  18.340   4.105
21391W        W93816  38.344  30.915   3.981
21392W        W93817  32.373  43.296  12.427
21393W        W93818  44.330  44.687   3.201
21394W        W93819   6.843  43.307   1.544
21395W        W93820   5.942  14.254   1.058
21396W        W93821   7.830   7.442   2.752
21397W        W93822  23.206  15.160  13.919
21398W        W93823  37.625  14.007  13.965
21399W        W93824  13.258   1.055  12.085
21400W        W93825   9.385  33.936   1.856
21401W        W93826  16.035  33.040   3.705
21402W        W93827  30.599  40.380   1.297
21403W        W93828  15.766  43.581   2.661
21404W        W93829  39.759   5.699  14.938
21405W        W93830  40.478  10.484   1.695
21406W        W93831  13.168  27.497   4.927
21407W        W93832  40.136  13.155  14.012
21408W        W93833  20.043  29.630  11.585
21409W        W93834  41.229  39.962   3.290
21410W        W93835  17.377  22.081  11.911
21411W        W93836   9.121  22.490   2.851
21412W        W93837  32.358  37.268  13.859
21413W        W93838  11.137  37.429   0.228
21414W        W93839   8.239  23.412  12.384
21415W        W93840   0.492  18.002  14.024
21416W        W93841   8.782  43.197   1.322
21417W        W93842  27.578  36.958  10.936
21418W        W93843  39.926  33.873   2.302
21419W        W93844   3.625  36.942  10.224
21420W        W93845  31.951  19.968  12.904
21421W        W93846  23.841  16.706  12.848
21422W        W93847  25.671   1.532  12.834
21423W        W93848   0.371   5.256   2.880
21424W        W93849   3.231  26.669  14.047
21425W        W93850  12.540  24.972   0.460
21426W        W93851   0.497  14.742  14.535
21427W        W93852   1.250  21.607   4.658
21428W        W93853  15.838  10.719   2.204
21429W        W93854  19.131  33.802  11.465
21430W        W93855   0.810  13.342  13.962
21431W        W93856  12.208  28.220  10.724
21432W        W93857  32.681  13.351   2.674
21433W        W93858   2.401   8.396   0.684
21434W        W93859  43.933  15.636   3.754
21435W        W93860  33.417  32.166   2.802
21436W        W93861  28.386  44.434   0.295
21437W        W93862  20.734  24.447   0.799
21438W        W93863  26.553   8.681   0.116
21439W        W93864  14.388  26.409   4.198
21440W        W93865  36.403  25.070   1.634
21441W        W93866  15.371  11.201  13.381
21442W        W93867  21.714   4.928   2.794
21443W        W93868  42.977  43.972  11.186
21444W        W93869  25.376   8.146   4.322
21445W        W93870  10.587  31.581   2.329
21446W        W93871  34.043   6.040   0.486
21447W        W93872  33.814   3.836   3.419
21448W        W93873  25.018   5.383  13.794
21449W        W93874  42.820  25.133  12.044
21450W        W93875  41.727  44.823   5.072
21451W        W93876  30.783   6.260  12.604
21452W        W93877  21.065  33.278  14.481
21453W        W93878  15.004   9.847  14.865
21454W        W93879  44.839  25.262   0.519
21455W        W93880  26.663  17.070  13.732
21456W        W93881  27.649  14.218   3.550
21457W        W93882  42.067   4.162   3.115
21458W        W93883  13.364  28.282   3.824
21459W        W93884  24.291  42.145  14.734
21460W        W93885  26.048  29.608   0.095
21461W        W93886  30.123   4.932   0.819
21462W        W93887  40.216   3.208  12.491
21463W        W93888   0.677  21.112   1.749
21464W        W93889  16.813   6.666   3.676
21465W        W93890   9.882  35.142  13.510
21466W        W93891  36.673  26.467   4.085
21467W        W93892  22.755   0.189   3.792
21468W        W93893  38.842   3.112   1.331
21469W        W93894  16.525  32.421   2.226
21470W        W93895  25.481  26.651  13.286
21471W        W93896   0.520  16.345   4.195
21472W        W93897  22.069  18.007   0.020
21473W        W93898  34.640  36.903  11.501
21474W        W93899  25.610  33.916   0.878
21475W        W93900  26.549  41.981   0.136
21476W        W93901  37.310  29.628   0.926
21477W        W93902  32.144  37.416   4.468
21478W        W93903   8.464   4.661   0.564
21479W        W93904   6.394  36.420  12.901
21480W        W93905  39.436  20.767  11.142
21481W        W93906  13.645  27.986  11.368
21482W        W93907  35.831  38.939   0.733
21483W        W93908  28.432  22.738  13.015
21484W        W93909  12.207  11.176   2.132
21485W        W93910  31.456  43.000  11.134
21486W        W93911  10.764  12.589   2.213
21487W        W93912  17.393  36.742   3.706
21488W        W93913  29.102  18.661  13.834
21489W        W93914  39.012  31.495   2.279
21490W        W93915  22.495  29.649  12.028
21491W        W93916   9.745  30.186  12.899
21492W        W93917  19.832  15.202   0.440
21493W        W93918  14.077  38.341  10.821
21494W        W93919  25.730  37.070  11.149
21495W        W93920  43.006  20.944  13.180
21496W        W93921  16.791  40.389   2.250
21497W        W93922  31.657   6.756   1.608
21498W        W93923  25.287  23.058  12.478
21499W        W93924   1.386  35.975   2.596
21500W        W93925  33.060  29.188   3.345
21501W        W93926  34.661  11.123   4.063
21502W        W93927  35.744  34.967  13.560
21503W        W93928  39.351  28.368   3.841
21504W        W93929  27.980   5.331   2.454
21505W        W93930   6.103  16.442  10.314
21506W        W93931  16.809  23.619   1.878
21507W        W93932  27.137  38.593   0.756
21508W        W93933  14.390  23.773  13.554
21509W        W93934  35.423  36.515  14.900
21510W        W93935   5.470   4.852   3.290
21511W        W93936  31.140  24.569  14.929
21512W        W93937   3.387   0.632  10.549
21513W        W93938  19.756   2.842   1.606
21514W        W93939  16.731  30.699  10.131
21515W        W93940   8.341  24.977  12.584
21516W        W93941  27.151  24.534  10.763
21517W        W93942  10.698  40.501   1.256
21518W        W93943  23.609  27.963   3.792
21519W        W93944  22.680  36.333  11.921
21520W        W93945  29.334  16.182   2.955
21521W        W93946  13.198  33.432   1.333
21522W        W93947  42.369  34.864   1.241
21523W        W93948  13.915  37.392   0.847
21524W        W93949  23.435  44.784   4.732
21525W        W93950   9.616  16.804  12.858
21526W        W93951  19.563   4.766   0.235
21527W        W93952  39.401  40.972  11.487
21528W        W93953  18.477   4.851  10.741
21529W        W93954  23.849  42.462  10.699
21530W        W93955  42.348   2.395  12.006
21531W        W93956  25.483  22.031   3.207
21532W        W93957  37.873  43.530   0.692
21533W        W93958   2.495  12.234  11.997
21534W        W93959  25.128   6.870  12.496
21535W        W93960  43.794  26.746   0.843
21536W        W93961  24.758  43.057   1.732
21537W        W93962  10.194   2.484   0.530
21538W        W93963   2.304  21.347  10.670
21539W        W93964   1.674  29.022   0.308
21540W        W93965   9.219  27.976   1.930
21541W        W93966  30.234  14.600  14.817
21542W        W93967  15.591  22.509  10.857
21543W        W93968  28.811  13.530  11.730
21544W        W93969  26.496   5.663   3.441
21545W        W93970  15.504  19.800   2.516
21546W        W93971  41.242   9.625  12.371
21547W        W93972  23.344  44.033  14.029
21548W        W93973  36.952  19.386   1.308
21549W        W93974  22.835  33.961   1.103
21550W        W93975  10.581   8.189   4.170
21551W        W93976  34.638   4.866   3.710
21552W        W93977  10.259  44.016   3.748
21553W        W93978  28.197  18.153   1.875
21554W        W93979  28.573  44.291  11.447
21555W        W93980  19.101  20.534  12.948
21556W        W93981  15.090  17.226   0.434
21557W        W93982  12.904  38.990   2.586
21558W        W93983  26.616  44.732   3.500
21559W        W93984  33.706  16.575  13.008
21560W        W93985  38.944  10.252  12.353
21561W        W93986  15.841  27.510   4.548
21562W        W93987  36.850  29.467   4.642
21563W        W93988  42.284  14.563   3.249
21564W        W93989   0.516  29.575  11.992
21565W        W93990  24.012  27.243  11.538
21566W        W93991  24.617  18.052  12.548
21567W        W93992  27.683  27.208  13.507
21568W        W93993  24.827  16.254   0.960
21569W        W93994  33.873  32.390   2.763
21570W        W93995  24.510  18.008  14.496
21571W        W93996   0.739  42.932  13.549
21572W        W93997  23.759  36.150  11.149
21573W        W93998   2.355  41.568   2.307
21574W        W93999  41.011  14.584   0.226
21575W        W94000  21.215  30.897   2.825
21576W        W94001  21.168  25.856  14.833
21577W        W94002  23.395  25.780  12.092
21578W        W94003  14.345  27.807  12.477
21579W        W94004  13.175  12.242   2.325
21580W        W94005  27.119  43.540   2.350
21581W        W94006  35.098  31.335  12.364
21582W        W94007  28.623  35.338   0.216
21583W        W94008  29.963  15.258   2.703
21584W        W94009  23.743  14.856   3.076
21585W        W94010   7.447  27.001   2.254
21586W        W94011   4.411  38.891  13.455
21587W        W94012  20.542   9.779  13.845
21588W        W94013  33.047  21.282   1.480
21589W        W94014  26.661  22.693  13.325
21590W        W94015  22.093  34.082   4.852
21591W        W94016   8.303  28.096   1.568
21592W        W94017  37.858  39.072   1.779
21593W        W94018  43.516  22.129   2.550
21594W        W94019   1.206   6.332   0.244
21595W        W94020   2.486   6.679  10.707
21596W        W94021  11.842  44.558   2.362
21597W        W94022  13.685  15.915   2.846
21598W        W94023  43.138   7.687  13.892
21599W        W94024  13.310  40.926   1.137
21600W        W94025  10.566  12.850   1.260
21601W        W94026  23.129  27.620   1.922
21602W        W94027   2.695  15.611   1.773
21603W        W94028   4.697  36.023  11.994
21604W        W94029  26.609  18.620   2.424
21605W        W94030  27.353  25.430   1.316
21606W        W94031   9.733  30.180   3.739
21607W        W94032  33.500  27.182  11.904
21608W        W94033  43.025   6.348  14.065
21609W        W94034  33.524  38.579  13.439
21610W        W94035   4.698   3.153  13.849
21611W        W94036  35.352  41.865   4.964
21612W        W94037  34.051  25.003  10.945
21613W        W94038  44.029  19.826  11.193
21614W        W94039   3.287  43.026  11.372
21615W        W94040  19.610  40.544   1.588
21616W        W94041  13.714  44.886   2.847
21617W        W94042  34.334  17.799   3.348
21618W        W94043  17.833  42.779  10.898
21619W        W94044   8.631   4.380  13.443
21620W        W94045  42.664   4.582  11.980
21621W        W94046   4.346  26.396  13.564
21622W        W94047  11.570  31.500  11.161
21623W        W94048  30.406  33.774   3.632
21624W        W94049  19.340   7.924  12.034
21625W        W94050  41.564  31.693   1.981
21626W        W94051  26.743  39.201   1.494
21627W        W94052  38.571   4.415   0.344
21628W        W94053  24.291  35.288  11.171
21629W        W94054   8.756  12.779   1.251
21630W        W94055  21.698  18.731   1.007
21631W        W94056  13.071  33.333  13.785
21632W        W94057  32.674  12.368  11.234
21633W        W94058  32.047  34.851  13.634
21634W        W94059  21.775  22.136   3.622
21635W        W94060  20.094  28.413  10.640
21636W        W94061  20.291   1.864   2.849
21637W        W94062   8.342   9.436  12.530
21638W        W94063   2.763  19.183   4.565
21639W        W94064  16.214  42.959   3.287
21640W        W94065   8.623  10.817   0.413
21641W        W94066  19.919  12.860  11.889
21642W        W94067  26.723  39.306   4.221
21643W        W94068  15.158  22.293   2.935
21644W        W94069  29.885  23.220   0.845
21645W        W94070  36.112  17.546  13.980
21646W        W94071  30.446  43.059   4.980
21647W        W94072  12.606  41.601   4.817
21648W        W94073   1.947  43.294  13.954
21649W        W94074  22.091  36.014  12.005
21650W        W94075  31.157  33.562   3.208
21651W        W94076  11.023  37.981  10.640
21652W        W94077  27.670  26.936   0.750
21653W        W94078  12.616   4.345  13.461
21654W        W94079  39.597  12.166  10.710
21655W        W94080  17.907   2.307  10.544
21656W        W94081   2.232  38.938   0.265
21657W        W94082  10.809   7.730   1.424
21658W        W94083  43.441   0.517   1.264
21659W        W94084  12.075   8.951  13.467
21660W        W94085  18.289   2.204   9.579
21661W        W94086  27.157  11.279   2.349
21662W        W94087   6.927  38.787  14.277
21663W        W94088  21.488   1.881  13.059
21664W        W94089  10.683   3.225   0.052
21665W        W94090  12.189  11.659  14.974
21666W        W94091  13.666  40.842  10.583
21667W        W94092  24.064  40.918  14.277
21668W        W94093  13.239  15.524  14.014
21669W        W94094   8.463  20.151   0.843
21670W        W94095  29.797  27.517   0.266
21671W        W94096  40.719  23.815   1.314
21672W        W94097   1.388   0.732   1.375
21673W        W94098  18.247  39.792   1.247
21674W        W94099  22.786  24.672   2.785
21675W        W94100   7.658  34.104  12.061
21676W        W94101  36.998  26.453  12.561
21677W        W94102  26.176  37.921   3.342
21678W        W94103  44.936   2.734   1.959
21679W        W94104  33.302   5.294   3.582
21680W        W94105  32.267  27.091   2.956
21681W        W94106  15.118  11.482   3.680
21682W        W94107  23.548   8.701  13.456
21683W        W94108  21.106  18.842  12.181
21684W        W94109  40.166  27.171  13.023
21685W        W94110  44.042  33.940  10.470
21686W        W94111   4.923  43.023   2.684
21687W        W94112   7.930  35.713   1.116
21688W        W94113  44.673   4.191  14.628
21689W        W94114  21.578  24.095   4.067
21690W        W94115   1.362  30.186   1.823
21691W        W94116  43.066   5.464  10.646
21692W        W94117   8.914   2.940  12.068
21693W        W94118  16.252  28.549  13.954
21694W        W94119  43.511  19.015   3.015
21695W        W94120   0.027  20.451  14.914
21696W        W94121  33.370  39.073  11.199
21697W        W94122  38.930  41.189   4.499
21698W        W94123  20.614  41.180  12.437
21699W        W94124  38.940  32.339   5.405
21700W        W94125  36.376   5.373   1.967
21701W        W94126  24.667  22.746   2.306
21702W        W94127  27.630   3.760  11.352
21703W        W94128  34.521   4.396   3.899
21704W        W94129  15.288   3.424   4.125
21705W        W94130   7.259   8.249   3.753
21706W        W94131  37.022  24.168   0.858
21707W        W94132  24.733  42.032  14.467
21708W        W94133   7.479  37.888  11.974
21709W        W94134   6.106  25.060  13.518
21710W        W94135  25.297  43.765   2.321
21711W        W94136  33.468  42.049  10.104
21712W        W94137  36.135  36.863  11.556
21713W        W94138  11.651  37.648  13.800
21714W        W94139  32.766   8.261   0.978
21715W        W94140  42.275  13.609   4.180
21716W        W94141  10.727   5.312   0.453
21717W        W94142  26.437  17.336   1.328
21718W        W94143  40.812  29.917  12.936
21719W        W94144  43.234   5.732  12.890
21720W        W94145  23.407   8.287  14.903
21721W        W94146  31.882  17.905  10.293
21722W        W94147  33.902  19.784  12.971
21723W        W94148  36.381   6.810   0.109
21724W        W94149  30.456  27.597  10.670
21725W        W94150  21.297   7.767  14.546
21726W        W94151  22.061   2.371  12.221
21727W        W94152  13.852   4.840  14.383
21728W        W94153  29.522  28.677  14.735
21729W        W94154  35.347  23.099  13.059
21730W        W94155  33.429  19.849   3.243
21731W        W94156  28.611  40.816  11.433
21732W        W94157  13.424  22.842   4.122
21733W        W94158  30.098  14.314  10.758
21734W        W94159  28.239  42.786  11.164
21735W        W94160  35.890  35.865  14.973
21736W        W94161  29.589  40.741   2.801
21737W        W94162  37.009  19.521  13.369
21738W        W94163  32.845  22.036   4.973
21739W        W94164  27.827  30.444   4.173
21740W        W94165  16.901  16.525   4.418
21741W        W94166  29.615  26.967   2.225
21742W        W94167  19.819   9.265   4.498
21743W        W94168   7.257  32.492   2.700
21744W        W94169  13.017  11.663   2.650
21745W        W94170  24.674   5.777   3.482
21746W        W94171  24.676  20.020  13.405
21747W        W94172  26.022  39.361  10.600
21748W        W94173  40.086  43.277   1.900
21749W        W94174  10.382   9.396  12.370
21750W        W94175  11.191   4.873  11.561
21751W        W94176  35.844  29.701  11.189
21752W        W94177  31.091  40.196  13.022
21753W        W94178  19.601  44.312  12.503
21754W        W94179  35.985   5.355   1.032
21755W        W94180  11.827  24.981  10.180
21756W        W94181   2.481   4.106  14.077
21757W        W94182  38.117   8.676  12.778
21758W        W94183   5.064  19.601   1.905
21759W        W94184  34.373   4.969   2.140
21760W        W94185  24.079  25.190  14.418
21761W        W94186  31.376  25.981  14.822
21762W        W94187  42.233   2.901   3.327
21763W        W94188  33.057  34.997   3.858
21764W        W94189  13.540  29.935  11.136
21765W        W94190  30.008  36.262  11.097
21766W        W94191   2.882  41.770   4.416
21767W        W94192  27.947  19.052   4.170
21768W        W94193   7.800   6.930   2.789
21769W        W94194  42.327  22.995  11.450
21770W        W94195  35.458   7.353   4.199
21771W        W94196  43.374   7.175  10.403
21772W        W94197  33.161   7.155  14.704
21773W        W94198   2.374  40.700  13.441
21774W        W94199  14.425   2.759   0.484
21775W        W94200   1.521  20.122  14.939
21776W        W94201   5.221   7.238  13.311
21777W        W94202  29.106  19.083   1.983
21778W        W94203  38.444  23.114  14.204
21779W        W94204  35.578   6.715   2.911
21780W        W94205  41.552  31.549  11.480
21781W        W94206  26.171  29.209  11.152
21782W        W94207  17.523   3.746   2.237
21783W        W94208  32.468  38.292  14.029
21784W        W94209  30.636  11.416  10.995
21785W        W94210   7.935  44.227  13.542
21786W        W94211  34.117  35.521   4.613
21787W        W94212   5.708   9.629  11.988
21788W        W94213   1.933  42.802  10.464
21789W        W94214  13.574  18.403  11.047
21790W        W94215  28.500   0.886   3.982
21791W        W94216  31.438  15.201  11.875
21792W        W94217   1.571   3.699   1.002
21793W        W94218   3.914  37.740  14.208
21794W        W94219  16.589   7.830   3.831
21795W        W94220   2.532   8.283   0.196
21796W        W94221   2.344   6.654  13.906
21797W        W94222   3.703   8.870   2.939
21798W        W94223  28.464  32.156  10.700
21799W        W94224  40.747  39.347  14.972
21800W        W94225  28.241  43.993  11.877
21801W        W94226  44.703  30.093  10.998
21802W        W94227  20.774  15.240   2.482
21803W        W94228  42.978  15.640  10.429
21804W        W94229  34.618  44.917  12.595
21805W        W94230  10.278  24.210  13.105
21806W        W94231  13.493  42.374  12.315
21807W        W94232  17.216  17.571  13.846
21808W        W94233  13.585  43.919  10.745
21809W        W94234  44.530  12.276  10.393
21810W        W94235  19.790   5.107   2.746
21811W        W94236  28.391  13.108  13.044
21812W        W94237  21.066  13.800  14.784
21813W        W94238  35.417  43.254   4.584
21814W        W94239  13.189  24.462   2.814
21815W        W94240  29.879  40.053   1.687
21816W        W94241  41.955  17.642  14.721
21817W        W94242  12.635  10.934  10.507
21818W        W94243  37.635  35.053   4.128
21819W        W94244  12.919   2.189   1.380
21820W        W94245  26.460   7.846   0.519
21821W        W94246  31.926  39.343  10.166
21822W        W94247   8.699   3.861  13.423
21823W        W94248  44.506  26.812  13.516
21824W        W94249  26.981   5.397  12.528
21825W        W94250  36.047  28.486  10.537
21826W        W94251  25.207  13.124   0.187
21827W        W94252  26.048   7.431   3.285
21828W        W94253   1.040   1.945  12.893
21829W        W94254  25.217  12.291  14.864
21830W        W94255   0.236   3.860  14.925
21831W        W94256  17.838   1.532   3.629
21832W        W94257  18.183  29.541   2.287
21833W        W94258  38.403  42.857   1.745
21834W        W94259  43.533  25.568  11.572
21835W        W94260  38.877  21.525  11.152
21836W        W94261  17.869   8.388   1.796
21837W        W94262   0.028  13.572  13.392
21838W        W94263  14.388  43.264  14.341
21839W        W94264  31.067  30.337   3.302
21840W        W94265  29.736  27.957   4.022
21841W        W94266  28.913   4.668   2.559
21842W        W94267   0.044  41.802   4.592
21843W        W94268  10.611   4.150  11.537
21844W        W94269  11.352  36.574  14.924
21845W        W94270  32.491  12.588  13.409
21846W        W94271  32.985  23.046  12.176
21847W        W94272  24.521  43.605   3.681
21848W        W94273   0.935   1.725   3.194
21849W        W94274  13.793  41.053  14.754
21850W        W94275  26.223   7.133   3.810
21851W        W94276  12.850  30.356  14.806
21852W        W94277  42.249  21.970  12.904
21853W        W94278  22.838  14.302  10.335
21854W        W94279  35.382  11.208   3.560
21855W        W94280  10.355  17.816   4.007
21856W        W94281   7.204  25.465   1.170
21857W        W94282  10.251  22.021  11.673
21858W        W94283  18.121  27.738   0.485
21859W        W94284  15.074  11.894  12.639
21860W        W94285  31.670  39.229   1.858
21861W        W94286  23.441   8.724  14.368
21862W        W94287   4.708   5.714  14.207
21863W        W94288  44.094  16.350  12.851
21864W        W94289  19.721  13.164  13.998
21865W        W94290   8.282  36.038   2.655
21866W        W94291  18.442  19.997  12.746
21867W        W94292  43.925  16.020   4.116
21868W        W94293   8.631  12.460   1.815
21869W        W94294   1.840  14.161  13.798
21870W        W94295  42.094  31.808   2.209
21871W        W94296  33.468  18.618  13.921
21872W        W94297  30.314   2.902  13.783
21873W        W94298  21.730  32.358  14.385
21874W        W94299   4.354  40.994   1.157
21875W        W94300  23.009  23.166  13.375
21876W        W94301  29.062  36.475  12.076
21877W        W94302   4.181  14.617   0.748
21878W        W94303  34.793  13.594  12.205
21879W        W94304  20.822   5.514  12.029
21880W        W94305   5.759  41.471   0.200
21881W        W94306   3.065  26.144   1.009
21882W        W94307   9.300  41.779  11.962
21883W        W94308  31.648  38.568   3.771
21884W        W94309  44.458  28.859   3.765
21885W        W94310  21.668  28.546  11.312
21886W        W94311  37.948  22.727  10.307
21887W        W94312  20.701  44.557  11.758
21888W        W94313   1.161   8.711  10.503
21889W        W94314  28.649   8.939  12.056
21890W        W94315  17.066  12.372   2.258
21891W        W94316  14.537  24.016  12.358
21892W        W94317  14.219  39.981  13.122
21893W        W94318   4.772   5.890  11.609
21894W        W94319   2.610  17.328   4.156
21895W        W94320  41.987  31.862  14.001
21896W        W94321  39.495  35.825   2.342
21897W        W94322  11.978  42.057   3.184
21898W        W94323  30.451  30.855  10.614
21899W        W94324   4.002  26.748   4.539
21900W        W94325  12.121  24.117   9.673
21901W        W94326  23.634  10.672   1.930
21902W        W94327   0.125   1.450   3.456
21903W        W94328  14.393  17.058   4.036
21904W        W94329  31.643  41.799   4.479
21905W        W94330  10.598   4.337  14.277
21906W        W94331  16.021  40.733   3.681
21907W        W94332  15.749  38.331   4.122
21908W        W94333  12.813   5.856   4.660
21909W        W94334  14.818   7.464  10.861
21910W        W94335  13.035  17.043   3.841
21911W        W94336  44.625  38.960   4.943
21912W        W94337  15.487   5.304  13.857
21913W        W94338  29.039  40.422  12.010
21914W        W94339  36.790  35.564  13.157
21915W        W94340  34.352  43.197  11.556
21916W        W94341  21.680  23.471   2.845
21917W        W94342   1.273   9.363   3.852
21918W        W94343  41.997   3.805  12.300
21919W        W94344   1.092   9.197  13.526
21920W        W94345  27.454  34.755   1.266
21921W        W94346  31.674  17.916   4.977
21922W        W94347  10.787  10.816   1.342
21923W        W94348  17.551   3.129   4.863
21924W        W94349  42.739   1.426   3.936
21925W        W94350  20.664  23.503  11.500
21926W        W94351  29.486  15.015  12.943
21927W        W94352   4.505  19.311  12.281
21928W        W94353   3.775  14.052  12.387
21929W        W94354  29.926   1.561  10.500
21930W        W94355  27.951  32.924  12.938
21931W        W94356  39.825  27.030  12.633
21932W        W94357  14.745  39.757  13.065
21933W        W94358   5.229  44.988   0.370
21934W        W94359  27.813  10.244   4.213
21935W        W94360  12.283  20.109   1.212
21936W        W94361  17.239  43.178   3.367
21937W        W94362   1.389  37.591  13.799
21938W        W94363  31.011  40.008   0.795
21939W        W94364  28.652  27.276   4.095
21940W        W94365  21.692  28.614  14.938
21941W        W94366  41.741  24.482  10.655
21942W        W94367  19.460  16.212  14.868
21943W        W94368  18.264  42.504  12.521
21944W        W94369  17.188  22.656   0.252
21945W        W94370   8.731  21.119   0.872
21946W        W94371   9.425   1.301  14.460
21947W        W94372  14.058  21.543  10.680
21948W        W94373   3.908  22.249  10.741
21949W        W94374  14.777  38.669  14.260
21950W        W94375  39.475  17.700   3.602
21951W        W94376   6.670  16.770  10.730
21952W        W94377   7.685  29.711  14.231
21953W        W94378  20.040  44.933  13.951
21954W        W94379  42.638  31.925   2.253
21955W        W94380  30.571  38.443   0.366
21956W        W94381  35.826  14.926   0.364
21957W        W94382  34.380  38.935  12.940
21958W        W94383  22.438  38.982  13.839
21959W        W94384  42.674  23.033  12.676
21960W        W94385  37.611  10.919   2.144
21961W        W94386  31.347  25.022  12.053
21962W        W94387   0.152   6.756   0.169
21963W        W94388  12.248  20.079  13.319
21964W        W94389  38.611  39.447   3.728
21965W        W94390  14.244   3.740   0.465
21966W        W94391   0.781   9.135  12.669
21967W        W94392  16.605   6.027  10.601
21968W        W94393  38.340  43.459   4.081
21969W        W94394  10.370  17.249   5.204
21970W        W94395  34.558  24.071  13.845
21971W        W94396  35.884  22.688   2.797
21972W        W94397  26.174   7.667   4.652
21973W        W94398  30.558  44.433   3.691
21974W        W94399   3.853   0.419   0.478
21975W        W94400  26.815  39.593  13.928
21976W        W94401   3.449   0.362   4.751
21977W        W94402  32.575  16.615   0.203
21978W        W94403   5.109   2.179   2.279
21979W        W94404  38.630  24.469  10.769
21980W        W94405   7.256  34.347   0.319
21981W        W94406  13.273  17.979   0.946
21982W        W94407  24.765   4.513   1.722
21983W        W94408  29.573  37.068  11.100
21984W        W94409  16.665  18.412   0.379
21985W        W94410  41.091  38.436  12.554
21986W        W94411  33.126  28.523  12.028
21987W        W94412   0.312   4.902  14.716
21988W        W94413  16.560  33.418  12.924
21989W        W94414   0.984  25.221  13.878
21990W        W94415   9.166  35.817  14.971
21991W        W94416   8.410  44.102   2.108
21992W        W94417  15.959  30.840   1.238
21993W        W94418  16.484  32.159  12.067
21994W        W94419  16.397   0.283   1.261
21995W        W94420  36.909   5.072   2.822
21996W        W94421   8.644  26.161  11.784
21997W        W94422   5.258  20.607   4.574
21998W        W94423  11.739   3.777   4.540
21999W        W94424  26.441   2.939  12.924
22000W        W94425  34.890   6.762   3.587
22001W        W94426   6.535   4.093   1.954
22002W        W94427  43.918  23.749   4.162
22003W        W94428  32.246   5.346   2.216
22004W        W94429  43.612  25.003   3.239
22005W        W94430  21.971  17.609   4.507
22006W        W94431  30.068  30.217  12.026
22007W        W94432   6.249  20.058  14.852
22008W        W94433  40.076   2.452  13.762
22009W        W94434   9.083   5.915  13.859
22010W        W94435   1.936  11.346   4.681
22011W        W94436   0.894  39.914  14.759
22012W        W94437  30.929  19.550   2.564
22013W        W94438  31.912  37.759  12.592
22014W        W94439  27.568  29.985   4.204
22015W        W94440  27.755   6.623  13.919
22016W        W94441  24.130  33.144   0.774
22017W        W94442  25.051   7.306  13.869
22018W        W94443  37.569   2.265  11.631
22019W        W94444  37.393  40.469   4.107
22020W        W94445  30.169  13.797   2.203
22021W        W94446  19.024   0.978  13.098
22022W        W94447   5.355   2.581   3.260
22023W        W94448   7.836   9.170   1.288
22024W        W94449  30.482   2.423   2.015
22025W        W94450  27.198   3.469  12.815
22026W        W94451  24.035  23.679   4.605
22027W        W94452  32.193   2.280  12.908
22028W        W94453  41.560  28.040  10.763
22029W        W94454   3.187  27.017   1.317
22030W        W94455  27.032  34.903  14.077
22031W        W94456   2.595  12.256   0.414
22032W        W94457  22.834  16.308  11.969
22033W        W94458  39.744  22.733   0.371
22034W        W94459   4.172   1.796   4.643
22035W        W94460  24.993   3.128  13.196
22036W        W94461   5.922  37.718  10.801
22037W        W94462  19.744   5.701  13.106
22038W        W94463  37.804   2.962   0.794
22039W        W94464  23.608   6.336   0.350
22040W        W94465   8.418  32.403   1.718
22041W        W94466  25.028  36.886   4.516
22042W        W94467   9.297  26.966   1.651
22043W        W94468  18.012   5.661   1.812
22044W        W94469  44.434  35.569  11.034
22045W        W94470   7.305  24.618  10.661
22046W        W94471   8.827  38.598   1.317
22047W        W94472  37.530  18.630  14.310
22048W        W94473  23.518  41.659   0.811
22049W        W94474  22.133   3.020   2.765
22050W        W94475  13.197  44.067  14.440
22051W        W94476  21.981   9.203  10.729
22052W        W94477  26.026  39.477  12.914
22053W        W94478  41.101   8.685   2.735
22054W        W94479  43.313   5.952   0.894
22055W        W94480  25.571  22.277   4.070
22056W        W94481  27.148  36.976  14.450
22057W        W94482  33.908  24.168   0.126
22058W        W94483  24.596   3.753   4.612
22059W        W94484  25.696   0.369   0.387
22060W        W94485  29.632  36.480   4.478
22061W        W94486  26.924  43.862  10.491
22062W        W94487  40.911  31.174  13.332
22063W        W94488   0.413  25.411  11.686
22064W        W94489  23.157  24.840   1.071
22065W        W94490  35.374  24.553   3.239
22066W        W94491  13.576  41.931  11.467
22067W        W94492  28.020  15.122  12.401
22068W        W94493   5.652  15.478   4.711
22069W        W94494  15.184  33.085  10.895
22070W        W94495  25.154  38.007   1.372
22071W        W94496   3.396  12.798  10.711
22072W        W94497  20.041   3.261   2.828
22073W        W94498  34.606   8.329   0.499
22074W        W94499  11.630  24.105   0.477
22075W        W94500  12.741  32.039   3.244
22076W        W94501  31.022  16.838   5.050
22077W        W94502  42.430  34.013   2.139
22078W        W94503  12.062  21.093   1.349
22079W        W94504  10.607  29.469   0.618
22080W        W94505   5.480  37.963   4.754
22081W        W94506   0.892  16.106   1.433
22082W        W94507  13.748  34.806  14.821
22083W        W94508  26.981  38.619   0.221
22084W        W94509   7.463   9.081   0.390
22085W        W94510  13.954  35.129  12.971
22086W        W94511   5.445   8.335  12.984
22087W        W94512  12.714   4.692   1.752
22088W        W94513  23.364  39.051  13.425
22089W        W94514  11.216  40.842  12.427
22090W        W94515  31.596  32.900  12.367
22091W        W94516  33.038   0.421  14.617
22092W        W94517  38.966   8.206  13.829
22093W        W94518  12.197  36.577   3.664
22094W        W94519  39.439  24.502  14.946
22095W        W94520  15.133  18.998   3.779
22096W        W94521  40.014   0.521   5.118
22097W        W94522  43.420  28.550   4.481
22098W        W94523  30.431  19.409   0.959
22099W        W94524  22.504  27.516   3.383
22100W        W94525   0.357  37.623   4.858
22101W        W94526  34.359  44.417  12.560
22102W        W94527  32.101  26.371  13.933
22103W        W94528  11.695  39.903  12.135
22104W        W94529  33.509   6.949  12.015
22105W        W94530  17.449  37.078   4.135
22106W        W94531   5.928  34.056   4.643
22107W        W94532   9.229   2.528   4.095
22108W        W94533  23.673   1.908   2.182
22109W        W94534   8.960  29.400  13.979
22110W        W94535  43.825  17.645  13.307
22111W        W94536  28.206   8.814   1.584
22112W        W94537  21.571  44.440   1.360
22113W        W94538  19.052  16.570  13.048
22114W        W94539  17.779  23.531  14.572
22115W        W94540  26.139   0.765  12.866
22116W        W94541  39.448  32.933   0.941
22117W        W94542  39.904  24.650  12.380
22118W        W94543  24.567   6.445   3.783
22119W        W94544  42.073  18.826  12.197
22120W        W94545  26.688  23.523   2.746
22121W        W94546  40.563  39.431  11.925
22122W        W94547  14.577  20.353   2.729
22123W        W94548  22.708  16.473   1.923
22124W        W94549  41.455  16.050  12.100
22125W        W94550  22.488  32.534  13.893
22126W        W94551  23.042  42.740  11.917
22127W        W94552  29.542   2.649   1.195
22128W        W94553  19.282  36.845   4.741
22129W        W94554   7.144  38.045   4.366
22130W        W94555  14.306  26.804  11.158
22131W        W94556   3.673  14.340  13.336
22132W        W94557  20.092   5.430   0.390
22133W        W94558   5.776   9.713  13.821
22134W        W94559   1.721  32.946  14.842
22135W        W94560   9.297  41.616  14.954
22136W        W94561   7.685   9.424   0.733
22137W        W94562  20.466  33.458  13.089
22138W        W94563   1.860   9.417   2.773
22139W        W94564   5.406  14.976  14.140
22140W        W94565  32.992  23.184   0.320
22141W        W94566  30.247  34.890   4.194
22142W        W94567  34.452  17.311   4.620
22143W        W94568   8.864  22.023   2.731
22144W        W94569  16.576  19.632   0.662
22145W        W94570  20.471   4.728  11.629
22146W        W94571  13.388  14.166  11.609
22147W        W94572  43.693   7.839  10.569
22148W        W94573  37.365  39.267  13.913
22149W        W94574  16.988  15.783  12.877
22150W        W94575  40.283  15.831  13.847
22151W        W94576  15.889   5.795  12.189
22152W        W94577  20.006   7.667  14.554
22153W        W94578  21.760  21.184   0.351
22154W        W94579  38.919   0.222  10.580
22155W        W94580  43.236  13.533   0.602
22156W        W94581  13.324   5.946   4.946
22157W        W94582  37.001  36.745  13.992
22158W        W94583   1.365   8.435  13.952
22159W        W94584  43.986  22.748  11.512
22160W        W94585  12.896  21.351  12.432
22161W        W94586  42.491  18.205   0.371
22162W        W94587   6.763  35.956  14.884
22163W        W94588   1.229  26.122   3.639
22164W        W94589  23.585  14.275   0.759
22165W        W94590  22.245   8.045  14.614
22166W        W94591  37.391   0.227   3.592
22167W        W94592   3.269  15.668  10.696
22168W        W94593  33.609   6.896  13.931
22169W        W94594  39.399   0.466  11.106
22170W        W94595  33.526  40.439   2.354
22171W        W94596  17.176  27.350   0.728
22172W        W94597  26.474  30.238  13.896
22173W        W94598  44.759   5.112  13.848
22174W        W94599  35.039   7.675   1.764
22175W        W94600  23.189  35.634  10.771
22176W        W94601  21.088  31.726   1.973
22177W        W94602  38.762  32.138  14.098
22178W        W94603  32.875   9.225   0.889
22179W        W94604  39.861  40.296  13.006
22180W        W94605  11.115  25.905  11.386
22181W        W94606  16.834  18.740  11.153
22182W        W94607  22.915  27.969  13.508
22183W        W94608   4.814  12.375  13.233
22184W        W94609  11.667  19.374  11.198
22185W        W94610  13.780  34.063  13.940
22186W        W94611  29.518   4.669   2.817
22187W        W94612  11.145  15.186  13.605
22188W        W94613  33.119  19.161   5.335
22189W        W94614  22.817  27.754   1.509
22190W        W94615  22.008  31.151  13.971
22191W        W94616  37.058  43.109   0.848
22192W        W94617  20.566  35.194  12.429
22193W        W94618  41.914  30.353  12.975
22194W        W94619  40.856  27.471   4.498
22195W        W94620  10.443  43.198  13.426
22196W        W94621  35.840   1.679   4.094
22197W        W94622  17.167  29.581   0.772
22198W        W94623   4.384  43.030   1.975
22199W        W94624  26.960  25.431  11.160
22200W        W94625  36.997  38.975   2.624
22201W        W94626   0.413   5.416  14.978
22202W        W94627  10.125  22.490   2.609
22203W        W94628  13.046  35.376   1.168
22204W        W94629   3.752   8.910   4.800
22205W        W94630  33.940   9.142   0.393
22206W        W94631   4.299  23.773   0.219
22207W        W94632  44.332  16.438  11.669
22208W        W94633  14.665   8.898  14.927
22209W        W94634  33.050  42.485  12.553
22210W        W94635  22.443  35.322   2.282
22211W        W94636  36.793  43.369  14.124
22212W        W94637  15.805  35.937   2.714
22213W        W94638  36.107  35.960   4.457
22214W        W94639  12.197  13.214   2.906
22215W        W94640  15.730   3.849   3.442
22216W        W94641  11.299  40.742  11.921
22217W        W94642  14.772  26.403  11.913
22218W        W94643  23.591  30.675  12.366
22219W        W94644   9.180  35.844   3.711
22220W        W94645  14.843   7.592   4.285
22221W        W94646   7.357  11.227   0.303
22222W        W94647  36.379   1.111   4.757
22223W        W94648   7.716  30.420   2.273
22224W        W94649  43.171  16.862  13.058
22225W        W94650  21.635  29.245   0.393
22226W        W94651  42.670  15.663  11.595
22227W        W94652  43.430  40.894  10.088
22228W        W94653  24.051  37.894  14.433
22229W        W94654  24.995  12.201  12.475
22230W        W94655  32.895  20.807   3.264
22231W        W94656  34.893   9.226   1.950
22232W        W94657   4.324  34.006  11.627
22233W        W94658  21.160  14.062   2.333
22234W        W94659  14.782  19.687  14.336
22235W        W94660  12.903  29.826   3.903
22236W        W94661  44.578  22.709  14.008
22237W        W94662   7.277  26.124   2.164
22238W        W94663   5.331  32.161   4.346
22239W        W94664   2.270  10.365  13.993
22240W        W94665  19.646  11.011   1.318
22241W        W94666  15.140  43.437  12.476
22242W        W94667  42.018  24.589   2.209
22243W        W94668  10.326   8.190   5.091
22244W        W94669  36.461  28.993   0.940
22245W        W94670  10.614  24.554  13.617
22246W        W94671   8.988  37.877   4.246
22247W        W94672  32.136  39.802  11.421
22248W        W94673  35.589  44.815   2.605
22249W        W94674  22.075   0.214   4.169
22250W        W94675  18.566  23.193   1.733
22251W        W94676  40.552  27.102  13.850
22252W        W94677  34.125  29.121   4.140
22253W        W94678  22.531  24.079   1.906
22254W        W94679  39.044  13.394   3.254
22255W        W94680   3.198  18.391   3.574
22256W        W94681   6.944  39.272  12.133
22257W        W94682  10.061  22.701  13.485
22258W        W94683  28.569  43.713   1.430
22259W        W94684  30.615  38.808  14.991
22260W        W94685  21.165  15.455  14.836
22261W        W94686  18.658  24.550   1.247
22262W        W94687  14.926   3.171  13.506
22263W        W94688  44.889   5.177   3.789
22264W        W94689  35.020   9.224  11.160
22265W        W94690   7.731  20.217  13.334
22266W        W94691   3.460  38.474  10.450
22267W        W94692  19.712   5.188  13.023
22268W        W94693  20.619  17.043   4.530
22269W        W94694   8.870  24.622  14.445
22270W        W94695  29.028  17.178  14.008
22271W        W94696  22.371  32.665   4.542
22272W        W94697  25.874  21.071  12.469
22273W        W94698  44.566  29.265  11.651
22274W        W94699  31.254  41.917  14.519
22275W        W94700  39.194  27.161  11.120
22276W        W94701   1.036  28.160  11.563
22277W        W94702  18.310   1.217   0.970
22278W        W94703  26.647  33.434  13.614
22279W        W94704  40.548   0.195   3.010
22280W        W94705  23.415  26.097  13.621
22281W        W94706  41.841  20.524   1.288
22282W        W94707  20.185  37.404  13.308
22283W        W94708  42.935  19.631  13.547
22284W        W94709  33.053  11.811   3.793
22285W        W94710  43.804   9.776  11.967
22286W        W94711  42.257  28.212  14.378
22287W        W94712  16.660  30.955  14.939
22288W        W94713  43.814  32.069   3.894
22289W        W94714   5.785  22.682   1.615
22290W        W94715  23.045  19.648  12.987
22291W        W94716  42.039   3.252  11.189
22292W        W94717  34.705  40.149  11.091
22293W        W94718  40.335  14.299  12.183
22294W        W94719  28.128   4.199   3.920
22295W        W94720  32.437  12.883  12.083
22296W        W94721  13.719  41.099  11.047
22297W        W94722  33.003  11.856   0.490
22298W        W94723  34.248  17.031   1.055
22299W        W94724   4.866  38.416  11.860
22300W        W94725   7.721   6.795   0.881
22301W        W94726  11.371  33.931   3.821
22302W        W94727   9.339  16.024  13.932
22303W        W94728  15.156   0.491   4.212
22304W        W94729  26.125  20.110   4.315
22305W        W94730  43.948  11.600   2.691
22306W        W94731  16.787  23.037  14.005
22307W        W94732  32.409   9.662  10.657
22308W        W94733  20.944  25.698   1.924
22309W        W94734  44.309  40.747  13.351
22310W        W94735  10.296  38.351   3.326
22311W        W94736  43.547   3.293  10.104
22312W        W94737  22.712  32.949  13.627
22313W        W94738  19.800  32.907  12.655
22314W        W94739  36.609  23.243   0.764
22315W        W94740  41.024  30.010  14.353
22316W        W94741  27.755  11.843  12.099
22317W        W94742  10.403  26.661   1.339
22318W        W94743  11.587   8.536   0.302
22319W        W94744   2.037  33.288   3.820
22320W        W94745  43.430   3.968  13.290
22321W        W94746  21.197  34.336   2.422
22322W        W94747  36.022  11.815  14.951
22323W        W94748   6.215  40.216   3.767
22324W        W94749  36.084  19.352  10.650
22325W        W94750  31.499  12.518   4.244
22326W        W94751  44.615  26.606  14.363
22327W        W94752  28.383  23.059   4.609
22328W        W94753  16.163  21.117   2.300
22329W        W94754   4.415   4.217   2.093
22330W        W94755  36.077  17.649   4.093
22331W        W94756   1.814  39.564  12.012
22332W        W94757  37.389   1.236  10.987
22333W        W94758  15.775  39.798  12.959
22334W        W94759  14.877  21.048  11.601
22335W        W94760   7.296  26.280  13.037
22336W        W94761  40.756  28.232  11.047
22337W        W94762  38.114   1.565   0.761
22338W        W94763  15.676  37.697   2.401
22339W        W94764   6.373  39.506   4.642
22340W        W94765  11.231   6.732   2.823
22341W        W94766  27.218  43.261  10.624
22342W        W94767  30.650   0.822  11.027
22343W        W94768  29.018   5.827   0.511
22344W        W94769   0.380  11.822  12.455
22345W        W94770  24.746  21.312   2.296
22346W        W94771  27.971  21.760  10.629
22347W        W94772  31.160  20.980  13.945
22348W        W94773  25.703  11.782  11.176
22349W        W94774   7.776  13.598   1.113
22350W        W94775  18.700  32.933   4.582
22351W        W94776  26.962  29.259   4.815
22352W        W94777  39.528  37.047  12.023
22353W        W94778  30.149   7.798   3.768
22354W        W94779  44.724  34.436  10.514
22355W        W94780  15.562   1.413   2.861
22356W        W94781  35.155  42.018   0.670
22357W        W94782  42.581   4.245  14.334
22358W        W94783   8.776  29.410  10.658
22359W        W94784  35.011  19.844   2.408
22360W        W94785   9.894   7.458  12.005
22361W        W94786  34.690  38.456   1.851
22362W        W94787   9.467  15.144  12.537
22363W        W94788  17.634   9.013   2.805
22364W        W94789  15.768  15.850  12.871
22365W        W94790  26.774  43.346  14.981
22366W        W94791  20.018  44.031   0.059
22367W        W94792  41.269   9.140   0.941
22368W        W94793  44.716  39.403  13.346
22369W        W94794   7.306   4.880  13.070
22370W        W94795  30.988  10.133  13.921
22371W        W94796   5.964  41.797  12.428
22372W        W94797  33.006  23.101  12.686
22373W        W94798  42.986   5.338  12.047
22374W        W94799  43.580  25.800  11.092
22375W        W94800  37.666  10.822   3.193
22376W        W94801  20.751   1.497  12.475
22377W        W94802  36.456  24.522   0.800
22378W        W94803  15.523  32.614  13.672
22379W        W94804  10.225  11.586   4.699
22380W        W94805  13.421  43.983  12.540
22381W        W94806  22.982   7.845   1.865
22382W        W94807  13.817  14.547  14.482
22383W        W94808  41.463   0.429   3.446
22384W        W94809  36.438   0.688  10.714
22385W        W94810  31.112  14.702  11.523
22386W        W94811  38.339  33.545   1.362
22387W        W94812  28.984  35.682   1.468
22388W        W94813  39.487  42.033   2.602
22389W        W94814  39.733  35.846   0.918
22390W        W94815  38.479   9.944  13.192
22391W        W94816  13.620  42.468  14.034
22392W        W94817  44.178  30.287  13.483
22393W        W94818  11.717   7.700   0.457
22394W        W94819  35.415  44.393  14.684
22395W        W94820  18.451  37.408  13.008
22396W        W94821  41.132  34.963   2.931
22397W        W94822   7.388  32.735   3.138
22398W        W94823   3.853  37.371   2.007
22399W        W94824   9.884  33.085   1.448
22400W        W94825   2.330  27.093  12.591
22401W        W94826  32.393   4.407  12.566
22402W        W94827  32.306  34.521   0.510
22403W        W94828  28.301  23.623  10.658
22404W        W94829  37.589   3.825   2.762
22405W        W94830  11.264  32.378   0.660
22406W        W94831   1.760  16.210   3.151
22407W        W94832  41.766   5.522   3.212
22408W        W94833  19.668  44.581  13.842
22409W        W94834  35.264  35.889   2.767
22410W        W94835   7.366  12.355  11.145
22411W        W94836  16.361  30.513   4.656
22412W        W94837  22.704  34.951   0.947
22413W        W94838  32.006  22.448   2.199
22414W        W94839  33.677   8.543   0.778
22415W        W94840  14.263  11.142  11.724
22416W        W94841  27.052  10.904  11.061
22417W        W94842   5.252  32.010   3.065
22418W        W94843   2.389  11.408   3.615
22419W        W94844  16.633   1.828  12.643
22420W        W94845  43.831   7.423  11.748
22421W        W94846  25.305  44.880   3.458
22422W        W94847   0.157  38.407   2.330
22423W        W94848  42.390  15.891  14.045
22424W        W94849  17.596  22.796   2.334
22425W        W94850  30.522  41.316  14.194
22426W        W94851  22.903  26.489   1.261
22427W        W94852  42.853  27.505  13.468
22428W        W94853  19.694  18.911  12.118
22429W        W94854  13.800  27.586   1.213
22430W        W94855  17.794   7.705   1.226
22431W        W94856  26.653  13.060   0.862
22432W        W94857  29.973  11.156  11.214
22433W        W94858   7.946  17.152  13.295
22434W        W94859  33.530  43.934   2.849
22435W        W94860  33.468  37.625  11.138
22436W        W94861  40.998  29.250  10.987
22437W        W94862  15.232  23.676   0.959
22438W        W94863  33.014   6.854  13.372
22439W        W94864  18.196  35.509  14.793
22440W        W94865  40.017  28.417  13.448
22441W        W94866   0.611   0.453   4.184
22442W        W94867  38.519  20.480   3.559
22443W        W94868  35.209  38.995   2.336
22444W        W94869   8.345  38.334   3.186
22445W        W94870  26.724  14.109  10.724
22446W        W94871  40.962  35.864   2.844
22447W        W94872  27.044  41.503  12.509
22448W        W94873  44.847   7.519   2.606
22449W        W94874  13.229  33.413   4.232
22450W        W94875  22.173  34.866  12.376
22451W        W94876  23.596  10.033   5.241
22452W        W94877  16.623  25.697   4.419
22453W        W94878  35.608   1.111  10.900
22454W        W94879  14.550  35.186   2.098
22455W        W94880  24.129   0.879  14.825
22456W        W94881   2.867  23.511  13.923
22457W        W94882  27.522  25.214  14.424
22458W        W94883  35.369  35.358  13.619
22459W        W94884  42.170  12.112   4.044
22460W        W94885  21.753  21.587  11.226
22461W        W94886   7.348  10.673  13.933
22462W        W94887  10.421   3.598   1.943
22463W        W94888  32.809  31.141   2.150
22464W        W94889  24.432  44.900  13.040
22465W        W94890  43.045  26.942  10.696
22466W        W94891   3.687  13.065  11.142
22467W        W94892  21.595  40.598   2.331
22468W        W94893  36.996  26.830   0.785
22469W        W94894  39.772   0.986  10.706
22470W        W94895  28.342  28.106  11.347
22471W        W94896   9.190  34.518  11.172
22472W        W94897  11.573  22.632   4.268
22473W        W94898  35.967  21.791   3.726
22474W        W94899  11.369  33.462   0.269
22475W        W94900  18.690   1.458  12.040
22476W        W94901  22.405   5.335   1.996
22477W        W94902   8.327  21.012   1.755
22478W        W94903  13.823  41.275   0.815
22479W        W94904  26.819  24.665   2.385
22480W        W94905   7.990   2.744  13.452
22481W        W94906  28.214  39.826  13.004
22482W        W94907  20.467   2.317   1.697
22483W        W94908  42.770  32.866   1.418
22484W        W94909  20.571  37.569   0.475
22485W        W94910  23.975  30.858   2.178
22486W        W94911   2.427  17.124   0.521
22487W        W94912  23.976  23.486   1.422
22488W        W94913   7.481   7.634   0.470
22489W        W94914  33.858  10.180   1.398
22490W        W94915  39.063  16.217   3.705
22491W        W94916  34.444  21.139   2.197
22492W        W94917  23.963  43.712  13.339
22493W        W94918  27.926   1.292  11.178
22494W        W94919  12.736  44.643   4.636
22495W        W94920  40.948  43.251   0.426
22496W        W94921   0.908   0.938   1.395
22497W        W94922   7.739  12.646   4.497
22498W        W94923   4.505  37.526   2.892
22499W        W94924  20.513  25.692   3.317
22500W        W94925   2.007  17.605   1.807
22501W        W94926  41.266   5.318   3.107
22502W        W94927   2.337  26.496   2.406
22503W        W94928  16.652   1.717   0.365
22504W        W94929  43.465  10.432  12.408
22505W        W94930  13.988  17.505  13.400
22506W        W94931  10.878  30.692  12.437
22507W        W94932  34.858  15.024  14.811
22508W        W94933  40.064  41.163  13.150
22509W        W94934  24.567  28.417  13.343
22510W        W94935  11.137  44.702   1.235
22511W        W94936   9.328  18.359  11.324
22512W        W94937  24.379  44.070  10.625
22513W        W94938  14.574   1.311   2.910
22514W        W94939  36.309   4.418  12.191
22515W        W94940  18.276  42.991  12.322
22516W        W94941  14.241  20.153  10.856
22517W        W94942  35.379  39.639   1.151
22518W        W94943  41.916  10.826   1.319
22519W        W94944  24.473  32.061   4.056
22520W        W94945   5.831   2.529   0.885
22521W        W94946   6.692  12.121  14.812
22522W        W94947  31.094  13.070  11.938
22523W        W94948  43.878  41.915   0.741
22524W        W94949  10.361  17.573  12.049
22525W        W94950   1.231  13.637  14.813
22526W        W94951  41.894  27.034  14.024
22527W        W94952  26.093   8.781   4.687
22528W        W94953  15.754  35.085  14.573
22529W        W94954  36.439  14.155  14.767
22530W        W94955   4.416   6.672  14.507
22531W        W94956  12.454  21.648  13.364
22532W        W94957  15.751  42.859  12.001
22533W        W94958  15.159  43.354  14.963
22534W        W94959  25.078  21.782   2.314
22535W        W94960  41.775  20.034  13.780
22536W        W94961   0.185  44.684   1.231
22537W        W94962  13.808  28.019   2.931
22538W        W94963  13.815   2.710  13.924
22539W        W94964  36.883  37.490   2.583
22540W        W94965  11.746  14.635   1.195
22541W        W94966  34.060   3.943  10.811
22542W        W94967  37.389  43.754   1.882
22543W        W94968   5.723   5.981   2.743
22544W        W94969  22.555   9.893   1.317
22545W        W94970  22.077  12.020  13.031
22546W        W94971  31.404   6.315  14.463
22547W        W94972  14.809  42.382   0.265
22548W        W94973  40.889  14.876  11.593
22549W        W94974  31.530  21.606  12.602
22550W        W94975  32.379  14.277   1.729
22551W        W94976  18.754  32.917   0.036
22552W        W94977  36.642  24.625  12.879
22553W        W94978  13.946  42.820   0.345
22554W        W94979  10.593  41.768   4.266
22555W        W94980  15.332  28.391  11.960
22556W        W94981   2.495  36.546  12.532
22557W        W94982   7.675  22.729   1.880
22558W        W94983   8.321  32.979   1.762
22559W        W94984   5.224  31.814   4.715
22560W        W94985   4.296   9.904   2.830
22561W        W94986  17.030  42.990  12.928
22562W        W94987  34.286   5.821  12.138
22563W        W94988  13.627  13.623   3.260
22564W        W94989  16.075   0.473  12.897
22565W        W94990  43.991   8.860   4.076
22566W        W94991  18.927  18.643   1.807
22567W        W94992  24.550   6.751  12.169
22568W        W94993  10.757  29.937  12.966
22569W        W94994  42.917  19.456  11.208
22570W        W94995  22.588  41.835  14.482
22571W        W94996  35.087  36.172  12.461
22572W        W94997   3.901  44.287  14.760
22573W        W94998   6.622  38.978   0.797
22574W        W94999   2.421   8.383  14.355
22575W        W95000  44.768  10.813   4.356
22576W        W95001   3.727  42.742   0.367
22577W        W95002   8.795  38.797   4.934
22578W        W95003  36.373  17.703   0.887
22579W        W95004  15.307  27.433   1.957
22580W        W95005  34.316  35.122  12.567
22581W        W95006  23.773  41.940  11.964
22582W        W95007  29.825  31.444   2.742
22583W        W95008   6.007  29.716   2.834
22584W        W95009  38.390  36.992  14.018
22585W        W95010  41.101  40.074  13.826
22586W        W95011  20.858  40.790   3.424
22587W        W95012  29.381  40.574   2.338
22588W        W95013   8.256   5.832   5.134
22589W        W95014  35.271   6.640   3.920
22590W        W95015  25.198  17.128  11.557
22591W        W95016   9.344  30.079  11.556
22592W        W95017  24.696  31.633   2.310
22593W        W95018  38.020  12.341  14.774
22594W        W95019   3.193  35.449  11.997
22595W        W95020   5.762  28.273  12.116
22596W        W95021  27.660   2.484  12.753
22597W        W95022  39.559   8.847  11.422
22598W        W95023  11.635   7.971   3.107
22599W        W95024   8.472   9.728  10.128
22600W        W95025  29.048  16.313   3.384
22601W        W95026  16.158  33.441  14.515
22602W        W95027  37.120   2.441  14.567
22603W        W95028  23.347   6.523  11.171
22604W        W95029   1.383   7.739  14.834
22605W        W95030   6.512  40.793  11.208
22606W        W95031  19.716   7.963   3.302
22607W        W95032  37.966  21.907   5.326
22608W        W95033  23.546  36.848  14.820
22609W        W95034  23.759  28.030  10.707
22610W        W95035  32.101  29.465  14.852
22611W        W95036   3.331  44.552   0.535
22612W        W95037  19.250   2.872   0.239
22613W        W95038  33.885  15.641  11.627
22614W        W95039  42.957  14.588   9.969
22615W        W95040  16.107  25.564   4.499
22616W        W95041  14.255   0.429  14.307
22617W        W95042  29.564  41.919   1.071
22618W        W95043  31.405  43.929  12.664
22619W        W95044   7.852  33.007  12.969
22620W        W95045   9.749  32.741   4.379
22621W        W95046  24.109   6.351  11.070
22622W        W95047  23.551  18.096   1.076
22623W        W95048  32.679   3.748   2.768
22624W        W95049  19.814  11.471   1.138
22625W        W95050   8.074   0.066   4.605
22626W        W95051  38.604  42.484  10.573
22627W        W95052  39.763  41.844  14.313
22628W        W95053  14.748  32.913   4.318
22629W        W95054  31.538  41.620   1.684
22630W        W95055  12.252   1.774   1.326
22631W        W95056   7.920  29.156   0.465
22632W        W95057  15.360  22.184   1.826
22633W        W95058  41.536   3.361  12.874
22634W        W95059  36.206  30.513  13.958
22635W        W95060   0.748  31.990  14.802
22636W        W95061   5.283  36.121   5.139
22637W        W95062  41.732  35.605  11.948
22638W        W95063  13.700  23.632   3.729
22639W        W95064  25.856  13.727  13.558
22640W        W95065  30.481  21.473  11.096
22641W        W95066  40.492  43.829   4.660
22642W        W95067  31.030  17.512   3.001
22643W        W95068  38.568  44.900   9.727
22644W        W95069   6.011  21.597   0.658
22645W        W95070   3.596  28.368  10.701
22646W        W95071   9.138  32.916  14.086
22647W        W95072  15.792  18.752   9.824
22648W        W95073  25.286  40.586  12.190
22649W        W95074  44.043  10.107   2.837
22650W        W95075  40.284  12.205   4.244
22651W        W95076  22.778  41.710  12.149
22652W        W95077  34.363  11.354  10.688
22653W        W95078   9.569  44.094  10.459
22654W        W95079  41.337  37.523   3.340
22655W        W95080  39.230  35.693   4.600
22656W        W95081  31.476  13.176   0.339
22657W        W95082  41.371  17.682  11.312
22658W        W95083  17.584  32.659   1.216
22659W        W95084  20.105  35.815   1.832
22660W        W95085  31.920  33.264   3.774
22661W        W95086  41.002  12.295  14.717
22662W        W95087  17.553   7.014  12.644
22663W        W95088  43.209   5.696   3.900
22664W        W95089  20.690  22.478  11.557
22665W        W95090  21.057  43.713   3.149
22666W        W95091  28.734  11.337  13.261
22667W        W95092  39.642  17.295   0.756
22668W        W95093  25.457  30.390   1.218
22669W        W95094   8.591  42.929  10.729
22670W        W95095   7.376  37.838   4.764
22671W        W95096  36.350  11.174   4.710
22672W        W95097   7.149  36.285  12.587
22673W        W95098  25.270  22.026  11.500
22674W        W95099  21.710  41.341   3.589
22675W        W95100  20.134  39.920   4.757
22676W        W95101  23.611  32.147   1.545
22677W        W95102  33.677   4.218  13.960
22678W        W95103  35.385  29.445   3.324
22679W        W95104  28.691  10.191   4.953
22680W        W95105  27.445   6.570   4.578
22681W        W95106  14.858  11.511  14.976
22682W        W95107   7.948  41.470   4.170
22683W        W95108   7.429  35.218  12.435
22684W        W95109  23.093  37.913   1.876
22685W        W95110  23.601  28.097   2.329
22686W        W95111  30.778  28.027  10.641
22687W        W95112  30.709  17.292   5.056
22688W        W95113  25.174  22.507  13.318
22689W        W95114  39.653  38.321  13.722
22690W        W95115  36.104  21.643   3.245
22691W        W95116   6.249  21.946   0.331
22692W        W95117  23.682  17.968   0.595
22693W        W95118  29.604  21.859   3.652
22694W        W95119  22.144  19.571  10.912
22695W        W95120  37.655  39.809  11.954
22696W        W95121  42.850  31.120  13.325
22697W        W95122  18.756   8.224  12.446
22698W        W95123  38.908  13.313  13.499
22699W        W95124  17.120  43.923  10.644
22700W        W95125  34.072  34.754  11.499
22701W        W95126  20.666  12.137   0.020
22702W        W95127  12.839  38.526   2.014
22703W        W95128   3.868  43.750   3.150
22704W        W95129  40.174  15.244  11.151
22705W        W95130  28.576  42.161  11.420
22706W        W95131  43.444  10.714   4.823
22707W        W95132  44.871   5.074   4.669
22708W        W95133  26.461  22.064   2.255
22709W        W95134  38.461   6.484   1.546
22710W        W95135  24.986  26.878  10.680
22711W        W95136   9.354  14.829  11.965
22712W        W95137  18.182  22.655  13.600
22713W        W95138  28.785  30.588   4.066
22714W        W95139  38.998   2.766  12.338
22715W        W95140  20.143  28.944   4.668
22716W        W95141  25.475  36.427   1.410
22717W        W95142  32.194   1.442  12.500
22718W        W95143  11.853  22.115  12.895
22719W        W95144  16.412   3.155  13.603
22720W        W95145  14.064  40.636  14.585
22721W        W95146  35.974  41.802  13.369
22722W        W95147  23.862  33.392  12.461
22723W        W95148  35.129  18.751  12.230
22724W        W95149  32.551   5.799  13.542
22725W        W95150  15.175   2.049   1.894
22726W        W95151  40.803  18.574   3.156
22727W        W95152  12.877  43.435  13.001
22728W        W95153  37.709  26.519  14.795
22729W        W95154  22.047  12.814   4.104
22730W        W95155  20.216   1.750   5.083
22731W        W95156  30.227  22.505   4.972
22732W        W95157  30.554  31.560  12.885
22733W        W95158  40.449  44.706  12.016
22734W        W95159  34.005  16.614  12.230
22735W        W95160  13.530  28.521   0.815
22736W        W95161  12.206  10.902   2.770
22737W        W95162  37.028  35.439  14.136
22738W        W95163  44.575  17.158  13.340
22739W        W95164  35.601  13.577  14.407
22740W        W95165   5.663  34.536  12.849
22741W        W95166  13.762   4.439  10.490
22742W        W95167  23.737  18.742  13.846
22743W        W95168  21.612  19.790   5.066
22744W        W95169   4.034  33.694  13.913
22745W        W95170  40.072  17.565   0.734
22746W        W95171  24.735  39.337  12.020
22747W        W95172  33.538  12.967   0.121
22748W        W95173  43.534  16.094   2.669
22749W        W95174  18.206  17.046  14.835
22750W        W95175   0.810  42.873   2.317
22751W        W95176  29.652  16.985  11.338
22752W        W95177  10.890   5.985  13.014
22753W        W95178  28.407  34.064  12.497
22754W        W95179  33.884  40.383  11.179
22755W        W95180  18.767  32.953   3.702
22756W        W95181   5.261  38.039  11.642
22757W        W95182  40.822  31.627   0.413
22758W        W95183   4.173  14.254  13.308
22759W        W95184  18.055   9.711  11.617
22760W        W95185  19.603   3.783  13.838
22761W        W95186  26.510  43.124   1.746
22762W        W95187  16.022  30.607  11.140
22763W        W95188   3.825   2.428   4.197
22764W        W95189  16.813   1.828   5.027
22765W        W95190  16.247   1.957  10.294
22766W        W95191  18.104  35.560  11.843
22767W        W95192  31.924  27.535   2.279
22768W        W95193  36.996  23.207  14.089
22769W        W95194  15.290   8.294  12.260
22770W        W95195  18.680  31.491   2.480
22771W        W95196   9.318   8.867  13.798
22772W        W95197  44.944  43.384   0.686
22773W        W95198  23.214  13.913   0.881
22774W        W95199   4.554  25.197   3.730
22775W        W95200  35.813  14.327  11.472
22776W        W95201  36.671  22.852  13.878
22777W        W95202  20.650  43.416  14.393
22778W        W95203   9.312  27.430  11.562
22779W        W95204  37.830  15.123   1.725
22780W        W95205  33.466  32.725   2.737
22781W        W95206  23.741   8.706  12.419
22782W        W95207  30.182  31.968  12.452
22783W        W95208  40.833  32.863  14.394
22784W        W95209  44.520  12.819   3.869
22785W        W95210  36.980  11.509  12.071
22786W        W95211  21.709  16.726   2.104
22787W        W95212  34.526  36.559   1.479
22788W        W95213   1.338   1.306   4.020
22789W        W95214  33.415  17.317  10.726
22790W        W95215  30.993   0.889   3.815
22791W        W95216   9.659  23.154  14.032
22792W        W95217  15.803  15.060   0.655
22793W        W95218  42.056  20.561  14.890
22794W        W95219  40.794   8.639   3.706
22795W        W95220  14.581  24.729  13.409
22796W        W95221   0.778  13.946  11.082
22797W        W95222  32.116  18.878   2.776
22798W        W95223   2.678  43.871  10.671
22799W        W95224   0.462  42.852   0.163
22800W        W95225  24.687  43.289  11.032
22801W        W95226  16.138  16.122  14.887
22802W        W95227  31.992   3.655  13.879
22803W        W95228  33.855   5.918  13.057
22804W        W95229  27.869  35.767  11.272
22805W        W95230  18.217   0.171   3.150
22806W        W95231  42.735  26.531  12.465
22807W        W95232  36.006  15.774   3.715
22808W        W95233  26.399  10.500   4.195
22809W        W95234  34.502  42.683  10.418
22810W        W95235   1.538  18.417  14.408
22811W        W95236  24.276  10.628  13.156
22812W        W95237  31.615  19.126   2.326
22813W        W95238  37.129  19.614  11.243
22814W        W95239   5.816  12.390  11.521
22815W        W95240  37.644  39.447   1.384
22816W        W95241  33.665   2.279   2.818
22817W        W95242   9.684  14.631  11.135
22818W        W95243  25.982   6.280  14.786
22819W        W95244  14.336   9.235  12.502
22820W        W95245  22.290  28.666   0.397
22821W        W95246  35.286  31.130  14.246
22822W        W95247  29.406  32.141  11.977
22823W        W95248  38.143  28.687   1.307
22824W        W95249  28.869   9.600  14.605
22825W        W95250   8.675  26.461   2.417
22826W        W95251   2.412  40.792   0.020
22827W        W95252  41.423  21.761  10.500
22828W        W95253  12.791  20.624   3.596
22829W        W95254  24.169  19.110   3.368
22830W        W95255  14.197  27.424  13.904
22831W        W95256  38.607  24.450  14.405
22832W        W95257  18.763   4.925   2.875
22833W        W95258  10.524  13.641  11.607
22834W        W95259  28.962  41.920  10.742
22835W        W95260  33.562   6.404  11.149
22836W        W95261  23.177  25.753  13.310
22837W        W95262  18.579  18.623   2.827
22838W        W95263   0.839  34.888   2.123
22839W        W95264  32.947   2.917   3.882
22840W        W95265   4.359  13.838  10.813
22841W        W95266   1.875   3.797  12.491
22842W        W95267  20.118  26.494   9.873
22843W        W95268  41.557   8.967  11.507
22844W        W95269  16.226  28.896   2.314
22845W        W95270   1.559  23.531   2.333
22846W        W95271  32.551   4.315  10.716
22847W        W95272   5.489  41.673   2.462
22848W        W95273   8.620  21.045  10.392
22849W        W95274  30.438  41.430   4.559
22850W        W95275   1.507   6.924   1.405
22851W        W95276  42.039  40.084   4.667
22852W        W95277   1.485  30.166   2.680
22853W        W95278  36.748   2.231   4.368
22854W        W95279   0.883  14.546  13.116
22855W        W95280   1.877  15.704   1.849
22856W        W95281   0.924  17.812   3.739
22857W        W95282  31.661  44.462  12.422
22858W        W95283  38.508   2.950  12.359
22859W        W95284  10.995   9.254   0.446
22860W        W95285  11.566  40.910  13.191
22861W        W95286  26.942  15.544   0.445
22862W        W95287  31.531  13.036  13.594
22863W        W95288  29.634  34.624  14.457
22864W        W95289  14.238   9.626  10.206
22865W        W95290  12.709  26.972  14.373
22866W        W95291  36.922  16.763  12.137
22867W        W95292  13.341   1.012   3.867
22868W        W95293  15.120  27.174   3.159
22869W        W95294   4.412  35.898  13.709
22870W        W95295  42.079  36.087  12.056
22871W        W95296   9.502  12.198  12.884
22872W        W95297   7.907  13.657  14.815
22873W        W95298  33.060   7.934   2.180
22874W        W95299  41.292  11.546   1.865
22875W        W95300   4.435  39.550  14.000
22876W        W95301   3.800  10.681   1.798
22877W        W95302  30.895  13.423  14.679
22878W        W95303   7.795  15.026  11.538
22879W        W95304  20.311  38.679  13.822
22880W        W95305  29.098  18.635   4.639
22881W        W95306  15.841  23.562   2.699
22882W        W95307   1.309  30.506   1.293
22883W        W95308  18.758  40.736  12.876
22884W        W95309  17.383   0.589   1.354
22885W        W95310  35.366   6.105   0.870
22886W        W95311  39.546  17.847  13.577
22887W        W95312   8.673  19.883   4.464
22888W        W95313   5.753   3.866   4.169
22889W        W95314  11.265   1.398   4.666
22890W        W95315  21.700  41.332  12.641
22891W        W95316  37.463  32.870   3.542
22892W        W95317  10.898   0.363  11.811
22893W        W95318   1.894   8.023  10.801
22894W        W95319  28.242  24.489   0.892
22895W        W95320  27.479  18.983   0.392
22896W        W95321  15.602  43.830  13.947
22897W        W95322  26.154  27.365   4.330
22898W        W95323   6.103  35.058  14.993
22899W        W95324  27.006  35.506  13.889
22900W        W95325  32.008  17.478   1.968
22901W        W95326  23.197  23.024  12.178
22902W        W95327  23.306   4.345  13.211
22903W        W95328   7.869  14.320   0.531
22904W        W95329   4.624  42.709  12.541
22905W        W95330  24.080  42.493  12.653
22906W        W95331  12.886  23.724   3.173
22907W        W95332  40.626  24.056  11.168
22908W        W95333  23.126   2.169  14.743
22909W        W95334  12.676   0.266   0.767
22910W        W95335  42.450  11.219  14.929
22911W        W95336  41.826  30.037   3.373
22912W        W95337  28.512  15.988   2.310
22913W        W95338   1.853  19.330   4.585
22914W        W95339  36.221   5.708   3.195
22915W        W95340  13.303   9.017  11.491
22916W        W95341  33.598   9.246  14.620
22917W        W95342   0.546   3.914   0.851
22918W        W95343  30.370  10.851  12.016
22919W        W95344  12.348   8.316   3.697
22920W        W95345  27.025   6.862   4.694
22921W        W95346  38.763  32.654  13.780
22922W        W95347  35.163  16.093   3.491
22923W        W95348  18.490  26.491   0.327
22924W        W95349  35.755  12.790  11.991
22925W        W95350  23.937  14.685  10.700
22926W        W95351  30.418  44.273  14.400
22927W        W95352  41.099  22.710  12.912
22928W        W95353  25.640  32.669  14.015
22929W        W95354   1.870  21.618  12.357
22930W        W95355   1.570  38.148   3.397
22931W        W95356   2.869  36.969   1.518
22932W        W95357  34.444  32.891  11.586
22933W        W95358   4.626   7.962  14.451
22934W        W95359   5.955  24.129   3.843
22935W        W95360   4.761  29.105   1.768
22936W        W95361  15.805   3.370  10.471
22937W        W95362  24.739  44.538  12.811
22938W        W95363  34.004  23.187  11.911
22939W        W95364  39.074  24.600   3.115
22940W        W95365  29.555  27.064   4.196
22941W        W95366   4.364  35.595  10.639
22942W        W95367  19.438  19.018   4.836
22943W        W95368  10.386  30.448   0.430
22944W        W95369  29.064  38.371  11.097
22945W        W95370  42.542  26.959   0.749
22946W        W95371   5.208  40.007   4.501
22947W        W95372  44.183  15.030   1.365
22948W        W95373  10.881  17.146   1.824
22949W        W95374  12.718  13.165  11.608
22950W        W95375   4.439   3.363   1.543
22951W        W95376  44.898  43.752   3.594
22952W        W95377  15.708  16.952   1.756
22953W        W95378  26.422   0.475   1.243
22954W        W95379   4.786  31.403  10.641
22955W        W95380  40.007  34.855   0.928
22956W        W95381  36.914  24.100  13.464
22957W        W95382  29.004  10.640   4.876
22958W        W95383  31.478  33.237  12.786
22959W        W95384  31.872  31.377  12.191
22960W        W95385   9.719  26.912  12.076
22961W        W95386  15.592  41.006   2.213
22962W        W95387   5.735  19.410  12.511
22963W        W95388  31.609   3.704   3.815
22964W        W95389  40.078  23.958   0.952
22965W        W95390  14.230  11.421   0.772
22966W        W95391  17.597  39.797   3.750
22967W        W95392  24.156  33.499   0.359
22968W        W95393  25.766  43.443   2.611
22969W        W95394  20.953  41.871   0.418
22970W        W95395  41.817  41.651  12.512
22971W        W95396  21.250  25.661   2.820
22972W        W95397  42.013  22.142  11.883
22973W        W95398  12.461   1.451   3.695
22974W        W95399  15.076   7.211  13.169
22975W        W95400  25.935   1.803   2.360
22976W        W95401  32.960  38.333   4.230
22977W        W95402  39.466  17.308  13.567
22978W        W95403   6.493  43.863   0.436
22979W        W95404  33.486   4.292   1.450
22980W        W95405  20.179  16.153   4.391
22981W        W95406  38.538  13.230   3.163
22982W        W95407  27.839   2.282  10.275
22983W        W95408  37.610  32.036   2.407
22984W        W95409  22.111  17.691  13.002
22985W        W95410   4.057  33.695   1.987
22986W        W95411  32.453  29.546   1.696
22987W        W95412  13.265   6.537  13.400
22988W        W95413  19.414  12.846  11.996
22989W        W95414  31.141  22.518   0.879
22990W        W95415  24.880  43.992  10.711
22991W        W95416   3.830  42.803   4.945
22992W        W95417  33.420  41.238  10.588
22993W        W95418   2.469  43.534   2.328
22994W        W95419  15.506  16.568  14.467
22995W        W95420  35.780  10.741  11.469
22996W        W95421  34.048  24.333   3.837
22997W        W95422  19.297  42.930   3.132
22998W        W95423  22.104  23.456  14.782
22999W        W95424  38.358  15.142  11.564
23000W        W95425  17.045  17.079   3.529
23001W        W95426   8.603   3.808   3.142
23002W        W95427  26.556  44.552   5.075
23003W        W95428  27.984  23.679   2.075
23004W        W95429  27.009   1.513  11.429
23005W        W95430   6.699   6.944  13.352
23006W        W95431  21.581  14.114   2.652
23007W        W95432  17.607  38.922   3.530
23008W        W95433  22.658   1.929  14.879
23009W        W95434  31.581  13.318  14.036
23010W        W95435  41.015  25.396   0.481
23011W        W95436   2.270   6.716  14.879
23012W        W95437   7.253  39.034   5.051
23013W        W95438  29.927  44.559   0.371
23014W        W95439  37.452  17.021  11.023
23015W        W95440  33.873  37.353  11.576
23016W        W95441  10.730  13.162  11.578
23017W        W95442   0.778  30.017  13.560
23018W        W95443  21.120  18.995   2.806
23019W        W95444  19.305  35.074  12.025
23020W        W95445  23.683  14.676  11.857
23021W        W95446   2.712  33.661  13.065
23022W        W95447  28.105  11.599  12.400
23023W        W95448  27.949  28.677   0.269
23024W        W95449  39.598  10.918  12.340
23025W        W95450  15.665  28.200  13.111
23026W        W95451  34.334  24.614  11.667
23027W        W95452   0.275  29.979  10.722
23028W        W95453  42.985  27.178   0.914
23029W        W95454  22.147  23.205   1.881
23030W        W95455  43.827   8.703   3.069
23031W        W95456   3.583   0.432   3.295
23032W        W95457   1.326   5.630  11.990
23033W        W95458  21.488   6.617   3.798
23034W        W95459  30.594  33.811   2.609
23035W        W95460  36.322   7.958  11.683
23036W        W95461  40.017  43.250  11.235
23037W        W95462   7.574  16.762  12.060
23038W        W95463   0.401  29.697   1.943
23039W        W95464  28.605  28.534   4.614
23040W        W95465  17.603  33.446   4.193
23041W        W95466  24.166  20.501  11.103
23042W        W95467  28.494  39.863  11.614
23043W        W95468  31.171  16.332  12.300
23044W        W95469   7.154   1.774   2.769
23045W        W95470  10.750   8.502  10.199
23046W        W95471  10.283  24.583   2.357
23047W        W95472  39.261  19.178   3.835
23048W        W95473  24.666  29.634  11.678
23049W        W95474  27.075  26.450  13.419
23050W        W95475  44.595  13.097   1.966
23051W        W95476  42.767  33.777  14.895
23052W        W95477   8.600  15.778  12.194
23053W        W95478  19.798  39.825   4.359
23054W        W95479  14.785  16.803  12.190
23055W        W95480  23.593  19.637  14.876
23056W        W95481  15.621  18.539  14.474
23057W        W95482  26.872   9.625   2.706
23058W        W95483  20.089  38.544   4.783
23059W        W95484  14.764   0.801   3.635
23060W        W95485  26.474   5.816   4.674
23061W        W95486  43.437  30.116   1.704
23062W        W95487  40.486  22.507   4.124
23063W        W95488  21.021  12.407  14.763
23064W        W95489  23.461  26.104   1.513
23065W        W95490   2.990  32.898  14.392
23066W        W95491  37.782  23.510  12.077
23067W        W95492   3.536  15.788  13.484
23068W        W95493  33.916  20.119  11.707
23069W        W95494  29.004  15.731  13.987
23070W        W95495  20.097   3.327   5.175
23071W        W95496  31.001  33.698  11.647
23072W        W95497  18.101  31.057  10.033
23073W        W95498   6.343  31.583   3.811
23074W        W95499  27.142  11.584   0.732
23075W        W95500  21.573  33.957   3.576
23076W        W95501   7.381  44.490   2.780
23077W        W95502  39.437  38.956   4.568
23078W        W95503  38.631  11.373  13.053
23079W        W95504  40.507   1.247  11.807
23080W        W95505  17.629  41.513  14.702
23081W        W95506  10.337  32.130   3.408
23082W        W95507  44.903  18.014   1.303
23083W        W95508  11.911  16.724  10.294
23084W        W95509  26.891   0.494   2.198
23085W        W95510  19.075  29.773  11.224
23086W        W95511   3.421  43.461  14.776
23087W        W95512   4.790   7.638  11.478
23088W        W95513  26.272   5.907  10.546
23089W        W95514  24.576  37.292  14.703
23090W        W95515   3.609  10.822   1.320
23091W        W95516  43.632  15.247  14.407
23092W        W95517   8.393  43.500   2.493
23093W        W95518   0.310  29.225  14.574
23094W        W95519   8.714  13.790   2.305
23095W        W95520  12.159   1.417  13.021
23096W        W95521   0.862  31.868  13.939
23097W        W95522  17.663  17.621   2.229
23098W        W95523  22.657  26.884  12.898
23099W        W95524  21.905  31.919  11.516
23100W        W95525   7.264   6.672   3.132
23101W        W95526  23.356  15.636   0.057
23102W        W95527   5.219  19.277   1.221
23103W        W95528   5.745  39.857  14.310
23104W        W95529  19.099  38.675   0.336
23105W        W95530  38.270  26.669  12.029
23106W        W95531  14.590  25.922   4.063
23107W        W95532  19.171  41.894  14.521
23108W        W95533  38.865  37.900  14.085
23109W        W95534  40.951  34.826  14.563
23110W        W95535  35.489   2.566   2.741
23111W        W95536  37.743  32.468  14.967
23112W        W95537  40.038  25.734   4.145
23113W        W95538   3.809  35.977   1.655
23114W        W95539   8.938  18.760   0.784
23115W        W95540  14.898  14.332  11.621
23116W        W95541  20.617  32.799   0.303
23117W        W95542  29.181  24.453  12.055
23118W        W95543  21.405  11.258  12.458
23119W        W95544  42.280  20.161  13.783
23120W        W95545  37.400  24.039  12.609
23121W        W95546  10.932  41.012   1.460
23122W        W95547  17.018   4.553   0.422
23123W        W95548   6.330  34.622   0.440
23124W        W95549  43.845  36.773  14.854
23125W        W95550  15.879  24.591   4.906
23126W        W95551  35.546  19.990   2.452
23127W        W95552  42.770  29.643   5.222
23128W        W95553   3.466  34.500   2.746
23129W        W95554  30.859  28.904   0.834
23130W        W95555   7.933  38.710   9.784
23131W        W95556  29.604  31.105   3.607
23132W        W95557  11.660  24.816   4.175
23133W        W95558  35.112  37.638   5.039
23134W        W95559   5.338  41.937  11.184
23135W        W95560  43.024  11.364  13.038
23136W        W95561  10.528   4.084   2.882
23137W        W95562  43.037  44.305   0.445
23138W        W95563  13.459  18.918  11.013
23139W        W95564  39.234  34.941   2.685
23140W        W95565  41.908  24.230  11.075
23141W        W95566  29.888   8.824   0.168
23142W        W95567  13.621  12.556  11.216
23143W        W95568  40.327  35.433   3.106
23144W        W95569   3.355  37.125   2.842
23145W        W95570  34.673  16.135   2.661
23146W        W95571  41.819  30.659  13.392
23147W        W95572  25.096  25.836   1.497
23148W        W95573   8.114   5.541  13.140
23149W        W95574  30.206  32.662  12.044
23150W        W95575  10.692  23.726  12.473
23151W        W95576  42.792  30.990   0.371
23152W        W95577  44.094  29.795  12.830
23153W        W95578  14.198   3.221   0.444
23154W        W95579   8.129  44.386  10.601
23155W        W95580  21.169  19.506   2.760
23156W        W95581  23.531   8.137  13.552
23157W        W95582  28.572  13.303  10.680
23158W        W95583  21.733  38.001   4.124
23159W        W95584   8.214  17.079   3.283
23160W        W95585  23.361  11.319  14.246
23161W        W95586   0.766  38.779   0.591
23162W        W95587  21.036   4.448  14.209
23163W        W95588  35.829  13.437  11.213
23164W        W95589   7.411  21.209   1.240
23165W        W95590   8.119  32.948   4.672
23166W        W95591  33.963   5.442  11.915
23167W        W95592   7.850  22.339   2.852
23168W        W95593   6.895  16.692   4.594
23169W        W95594   1.025  15.063  11.666
23170W        W95595   4.862  14.930   4.686
23171W        W95596  30.530   7.672  10.579
23172W        W95597  34.356  17.761  11.857
23173W        W95598   2.264  25.894   2.704
23174W        W95599  14.300  22.308   2.668
23175W        W95600  21.352  17.624  13.751
23176W        W95601  25.708   7.844   3.627
23177W        W95602  44.936  34.511  12.832
23178W        W95603  28.786  32.164   3.452
23179W        W95604  28.756  28.207   2.637
23180W        W95605  23.901  12.860   4.722
23181W        W95606  16.126  30.854   3.337
23182W        W95607  13.612   6.290  14.924
23183W        W95608   7.362  39.082  14.404
23184W        W95609   6.540  28.194  14.370
23185W        W95610  20.804   8.859  10.306
23186W        W95611   5.349   8.737   0.221
23187W        W95612  40.481  33.954   4.310
23188W        W95613   0.207  17.847   2.994
23189W        W95614  39.144  24.944  14.862
23190W        W95615  34.906   8.475   2.137
23191W        W95616  44.024  42.805   4.141
23192W        W95617  28.168  41.482   4.171
23193W        W95618  19.281  13.351   4.901
23194W        W95619   6.784  30.296   4.538
23195W        W95620  11.588  36.597   4.159
23196W        W95621  25.533  38.292   4.695
23197W        W95622   3.712  44.382  12.050
23198W        W95623  16.830  24.620  13.367
23199W        W95624  31.640  37.425  10.948
23200W        W95625  30.633  16.372   3.897
23201W        W95626  28.790  17.788  11.556
23202W        W95627   7.693   8.325  10.475
23203W        W95628  19.725  33.957  13.253
23204W        W95629  16.183  44.655   3.818
23205W        W95630  21.411  16.191   3.857
23206W        W95631  30.362  36.934   3.672
23207W        W95632  31.969  35.580   4.179
23208W        W95633  42.790   5.163  11.112
23209W        W95634   9.708   9.558   0.395
23210W        W95635   2.304  22.573   2.635
23211W        W95636  33.934  29.408  12.594
23212W        W95637  11.985  18.114  12.462
23213W        W95638  10.852  11.301   1.607
23214W        W95639  22.849  30.989   4.201
23215W        W95640  26.889  23.185   0.909
23216W        W95641  13.196  24.954   1.797
23217W        W95642  18.171  18.800   4.682
23218W        W95643  13.459  37.895   4.866
23219W        W95644  10.704  13.722  14.790
23220W        W95645  15.363  10.089  13.284
23221W        W95646  44.479   0.284  12.362
23222W        W95647  17.726  14.715   4.214
23223W        W95648   1.370  22.709   2.794
23224W        W95649  31.871  25.092  13.852
23225W        W95650  19.611  25.671  10.292
23226W        W95651  17.990  15.850  11.637
23227W        W95652  19.379  31.287  12.920
23228W        W95653  31.559  29.945  10.847
23229W        W95654  41.442  40.378   1.186
23230W        W95655  12.215  41.052  10.778
23231W        W95656  27.513  24.117   1.370
23232W        W95657   6.159   6.468   1.968
23233W        W95658   6.854  24.620  10.416
23234W        W95659  19.759  19.595   2.601
23235W        W95660  14.835  32.541  14.433
23236W        W95661   1.135  21.974  10.998
23237W        W95662  44.159  14.897   0.832
23238W        W95663  27.342  19.794   2.798
23239W        W95664   6.717  27.543  12.628
23240W        W95665  13.405  11.224   3.345
23241W        W95666   8.791  17.122  10.735
23242W        W95667  15.033  28.609  13.765
23243W        W95668  10.239  41.243  12.240
23244W        W95669   2.390  31.708  11.146
23245W        W95670  13.330  16.554   4.764
23246W        W95671   0.375  12.889  13.464
23247W        W95672  20.532  34.789  13.951
23248W        W95673   1.341  13.893  12.256
23249W        W95674  30.200  25.249  13.055
23250W        W95675  39.914  18.747  14.009
23251W        W95676  11.746  20.224   0.838
23252W        W95677  17.201  19.538  13.813
23253W        W95678  32.647  29.567  14.021
23254W        W95679  27.871  29.309  11.174
23255W        W95680  22.113  37.708  12.270
23256W        W95681  27.811  10.214   0.419
23257W        W95682  24.332   0.537  11.390
23258W        W95683  34.546  27.140   1.802
23259W        W95684  36.501  11.296  12.011
23260W        W95685  44.614  14.032  11.124
23261W        W95686  35.031  11.835   4.078
23262W        W95687  41.793  30.858  13.869
23263W        W95688  13.180  19.069   1.303
23264W        W95689   6.195   6.275   4.762
23265W        W95690  31.557   8.230   4.480
23266W        W95691  17.206   2.387   2.350
23267W        W95692   9.685  42.381   1.888
23268W        W95693   8.198   6.999   0.682
23269W        W95694  32.050  14.794   3.852
23270W        W95695  11.765  21.199  13.168
23271W        W95696  24.480  36.463   2.181
23272W        W95697  28.084  39.392   4.654
23273W        W95698  11.295  36.393   3.482
23274W        W95699  42.860  20.732   0.340
23275W        W95700   9.367  18.931  13.411
23276W        W95701  32.967  43.430   2.321
23277W        W95702  38.556   7.390  13.488
23278W        W95703  27.586  44.019   2.828
23279W        W95704  32.148  44.693   3.688
23280W        W95705  31.906  16.142   4.149
23281W        W95706  11.225  12.934  11.514
23282W        W95707  22.107  22.284   0.844
23283W        W95708  34.414  16.729   2.113
23284W        W95709   7.384   4.711  12.480
23285W        W95710  35.015   1.692   2.762
23286W        W95711  10.131  25.036  12.471
23287W        W95712  21.737  19.159   3.891
23288W        W95713  13.672   6.806  14.988
23289W        W95714  10.736   7.004  11.718
23290W        W95715  27.941  30.194   9.866
23291W        W95716   6.629   4.560   2.167
23292W        W95717  38.093  18.175  13.002
23293W        W95718  44.345  33.315   2.769
23294W        W95719  15.191  23.100  10.941
23295W        W95720  13.622  15.847   1.841
23296W        W95721  14.728   8.622   0.377
23297W        W95722  31.870  19.129  14.540
23298W        W95723  30.304   1.770   2.156
23299W        W95724  12.561  22.948  14.075
23300W        W95725  10.266  39.597   0.293
23301W        W95726  27.475  40.876  14.030
23302W        W95727  22.151  20.500  11.078
23303W        W95728   5.264  26.672   3.225
23304W        W95729  23.604  35.930  10.712
23305W        W95730   8.587   3.196  14.784
23306W        W95731  36.815  42.267   4.143
23307W        W95732  23.149  22.549   1.376
23308W        W95733  33.582  37.359   4.550
23309W        W95734  22.053  33.118   2.939
23310W        W95735  22.239   8.826  10.505
23311W        W95736  13.677  22.449   2.776
23312W        W95737  32.073  15.743  13.760
23313W        W95738   6.847  23.714  12.598
23314W        W95739   1.269  36.314   0.000
23315W        W95740  24.729  27.456  12.356
23316W        W95741  16.531  38.564   2.720
23317W        W95742  20.455   0.295  13.882
23318W        W95743   4.758   9.534  12.983
23319W        W95744  25.111  42.709  10.252
23320W        W95745   4.322  15.375   0.441
23321W        W95746  41.103  22.914   3.654
23322W        W95747   7.695  34.852  13.011
23323W        W95748  23.384  34.733   4.560
23324W        W95749  39.746  36.579   3.646
23325W        W95750  24.532  28.732  11.953
23326W        W95751   2.793  13.875  13.376
23327W        W95752  41.873  12.563  13.493
23328W        W95753  18.680  24.585  11.360
23329W        W95754  39.313  19.823  11.490
23330W        W95755  31.954  27.222  12.969
23331W        W95756   6.316  23.148  13.048
23332W        W95757   4.373   2.716   4.668
23333W        W95758   2.272  26.192  13.442
23334W        W95759  39.784  11.861   2.779
23335W        W95760  42.448  29.637   3.584
23336W        W95761  37.563  25.030   4.677
23337W        W95762  27.358  30.859   3.561
23338W        W95763  21.833  32.923  14.684
23339W        W95764  12.977  18.765   4.237
23340W        W95765   9.308   8.141   1.733
23341W        W95766  30.381  24.216   2.355
23342W        W95767  16.202  21.550   4.638
23343W        W95768  18.291  33.171  14.327
23344W        W95769  44.295  11.870   4.098
23345W        W95770  18.494  24.549  11.827
23346W        W95771  39.468  13.850  11.052
23347W        W95772  18.466  20.952   3.990
23348W        W95773  36.576   3.629   3.726
23349W        W95774  41.110   0.487  14.798
23350W        W95775   3.366  13.949  10.167
23351W        W95776   5.952  30.443  13.935
23352W        W95777  36.913  20.027  13.461
23353W        W95778   2.399  39.542  14.340
23354W        W95779  18.926  10.623  12.456
23355W        W95780  30.595  27.854  11.102
23356W        W95781  31.201  34.624   3.955
23357W        W95782  34.577  44.221   1.806
23358W        W95783  39.912  39.632   2.389
23359W        W95784  27.203  27.088  10.594
23360W        W95785  36.447   0.406  11.760
23361W        W95786  31.668  24.052   2.897
23362W        W95787  15.244  44.458   3.922
23363W        W95788   9.907  12.770  12.969
23364W        W95789  43.255   2.984   3.628
23365W        W95790   7.079  37.524   5.065
23366W        W95791  36.333  19.704   0.343
23367W        W95792   8.630  29.429  14.712
23368W        W95793  28.938  40.011  10.699
23369W        W95794  44.714  41.312   1.399
23370W        W95795  16.441  32.652   2.794
23371W        W95796  16.154  39.855   3.366
23372W        W95797  22.715  18.292   1.272
23373W        W95798  27.934  31.255   0.759
23374W        W95799  36.421  35.488   0.322
23375W        W95800  35.558  33.437   3.267
23376W        W95801   5.231  38.128   1.171
23377W        W95802  11.478  15.590  12.409
23378W        W95803   6.338  26.728   3.535
23379W        W95804  23.576   4.796   0.767
23380W        W95805  30.966  18.783   4.511
23381W        W95806  32.664  20.548   3.882
23382W        W95807  14.589  34.582  12.392
23383W        W95808  28.110   9.151  13.146
23384W        W95809  23.320  14.082   2.264
23385W        W95810  38.885  30.962   1.831
23386W        W95811  38.587  34.872   3.147
23387W        W95812  43.320  40.863   4.445
23388W        W95813  10.264   4.295   3.394
23389W        W95814  13.034  37.998   0.819
23390W        W95815   8.581   6.421   0.446
23391W        W95816  17.991  13.105  10.943
23392W        W95817   9.730   9.493   4.998
23393W        W95818  32.258  26.020   2.453
23394W        W95819   9.820  18.845  12.432
23395W        W95820  16.093   1.953   1.804
23396W        W95821  34.448  43.950   2.835
23397W        W95822  30.412   9.076   3.677
23398W        W95823  39.546  18.778   2.731
23399W        W95824  35.874  13.737  13.022
23400W        W95825  29.548  14.212  14.888
23401W        W95826  17.714   5.959   2.877
23402W        W95827  11.565  14.974   4.142
23403W        W95828  18.809  39.596  11.620
23404W        W95829  42.422   5.074  12.894
23405W        W95830  39.680  15.196  11.117
23406W        W95831  27.141   3.277   2.107
23407W        W95832  12.407  40.002   4.057
23408W        W95833  41.136  28.290  13.877
23409W        W95834  17.359  21.700   2.539
23410W        W95835   3.373  28.624  14.716
23411W        W95836  11.218   9.270  14.971
23412W        W95837  11.635  17.858   1.279
23413W        W95838  36.988  35.095   2.760
23414W        W95839  32.910  33.110  10.675
23415W        W95840   3.752  37.377  10.991
23416W        W95841  24.537  38.788   3.799
23417W        W95842  22.027  20.038  10.721
23418W        W95843   3.944  39.353   1.764
23419W        W95844  37.914  20.147  11.586
23420W        W95845  43.640  18.950   1.302
23421W        W95846  43.606  20.602   1.988
23422W        W95847  40.035   6.891   0.369
23423W        W95848  29.703  20.232  10.686
23424W        W95849  34.332  17.302  11.588
23425W        W95850  42.662  40.049   4.532
23426W        W95851  16.550  35.079  14.878
23427W        W95852  40.493  14.577   0.368
23428W        W95853  10.724   6.679  10.833
23429W        W95854  35.874  14.194  13.300
23430W        W95855  43.907  27.053   4.512
23431W        W95856  23.273  18.182   2.649
23432W        W95857  10.292  44.522   1.545
23433W        W95858  15.216  35.966   4.899
23434W        W95859   1.620  38.820   2.360
23435W        W95860  14.400  31.527  11.563
23436W        W95861  18.879  14.109   2.743
23437W        W95862  24.792   7.090   4.580
23438W        W95863  34.939  19.840  14.032
23439W        W95864  12.769   7.874   1.552
23440W        W95865  20.648  44.500  11.267
23441W        W95866  18.311  26.475  13.488
23442W        W95867  18.739  27.930   3.629
23443W        W95868  40.336   4.908   1.377
23444W        W95869  36.683  22.583   2.430
23445W        W95870  18.676  40.068  13.376
23446W        W95871  34.984  36.350   1.286
23447W        W95872  33.030  44.741  11.980
23448W        W95873  42.030  19.042  10.632
23449W        W95874  24.192  11.789   3.312
23450W        W95875  28.847   0.058   3.711
23451W        W95876  11.057  16.069   5.068
23452W        W95877  34.320  18.262   2.699
23453W        W95878  14.857  25.437  12.914
23454W        W95879  17.518  38.831  14.069
23455W        W95880  23.991  29.763   4.060
23456W        W95881  33.940  24.537  10.714
23457W        W95882   3.857  14.716  14.840
23458W        W95883   3.870   5.834  13.847
23459W        W95884  26.774  10.176   5.233
23460W        W95885  39.476  40.853   3.363
23461W        W95886   3.302  12.792   1.409
23462W        W95887   4.094  29.252  10.883
23463W        W95888  31.378  33.012  13.870
23464W        W95889  27.596  34.495  11.426
23465W        W95890  23.768  24.476   4.891
23466W        W95891  36.157  10.308   0.766
23467W        W95892   1.352  10.270   3.332
23468W        W95893  13.823  37.313  14.691
23469W        W95894  29.898  34.833   2.866
23470W        W95895  39.365   7.439   1.722
23471W        W95896  26.177  26.554   2.902
23472W        W95897  21.035  14.367   3.297
23473W        W95898  13.184  28.122  11.585
23474W        W95899  15.783  30.441  10.692
23475W        W95900  37.356  13.232   4.670
23476W        W95901  16.484  27.059  14.264
23477W        W95902  27.287   6.593   0.324
23478W        W95903  11.091   8.810  14.198
23479W        W95904  15.119  35.992  13.899
23480W        W95905  32.586  29.704   4.292
23481W        W95906  44.587  44.323   1.787
23482W        W95907  15.292  10.831   3.418
23483W        W95908  19.621   1.833   0.652
23484W        W95909  13.049   6.276  11.748
23485W        W95910   0.201  32.487   3.045
23486W        W95911   6.315  23.446   3.434
23487W        W95912  20.808  23.935   2.830
23488W        W95913  20.807  44.278   4.338
23489W        W95914  35.805  28.058  13.868
23490W        W95915  41.844  31.917  13.082
23491W        W95916  11.629   6.843  12.287
23492W        W95917  31.659   8.418   3.983
23493W        W95918  11.197  28.700   2.593
23494W        W95919  20.102  13.663  14.791
23495W        W95920  25.176  30.009   3.103
23496W        W95921  31.581  16.502  12.555
23497W        W95922  39.886  34.621   4.487
23498W        W95923  36.408  27.399  12.927
23499W        W95924  27.880  34.970   1.026
23500W        W95925  11.697  42.306  11.666
23501W        W95926  15.705  11.357  10.878
23502W        W95927  24.199  24.224   0.330
23503W        W95928  29.650  33.621  13.523
23504W        W95929  37.546  20.127   1.385
23505W        W95930  30.705  21.624  14.210
23506W        W95931  35.672  28.673  14.507
23507W        W95932  19.566  27.113  14.684
23508W        W95933  37.856  18.544   3.645
23509W        W95934  39.294  41.956  13.999
23510W        W95935  30.469  36.786   3.202
23511W        W95936  38.434  25.698   3.759
23512W        W95937  36.278   9.177  10.622
23513W        W95938  39.221  23.549  14.399
23514W        W95939   2.593  41.006   0.491
23515W        W95940  14.008  39.293  14.778
23516W        W95941  23.972  38.273   3.395
23517W        W95942  29.742  27.655  12.376
23518W        W95943  34.140   5.907  11.158
23519W        W95944  23.098  26.981   3.127
23520W        W95945  31.501  43.165  12.896
23521W        W95946  43.641   2.302   2.116
23522W        W95947   6.903  42.701  11.225
23523W        W95948  32.464  10.346   1.598
23524W        W95949  29.433  16.321  14.001
23525W        W95950  24.163  17.794  11.176
23526W        W95951  36.841  21.765   3.301
23527W        W95952  17.647  14.890  12.503
23528W        W95953  18.412  30.571   0.753
23529W        W95954   2.276  39.890   3.610
23530W        W95955  17.570   5.844  12.291
23531W        W95956  13.754   3.967  14.165
23532W        W95957   3.850  40.296   0.993
23533W        W95958  27.077  30.981  10.785
23534W        W95959  41.593  32.769  14.121
23535W        W95960   7.899   7.200  12.590
23536W        W95961  37.857  34.207   4.585
23537W        W95962  23.675  18.243  12.567
23538W        W95963  40.021  17.014   3.339
23539W        W95964  10.486   3.756   2.451
23540W        W95965  22.910  43.761   3.799
23541W        W95966   6.576  17.753   4.573
23542W        W95967   8.700   7.339  11.579
23543W        W95968  42.511   2.154  12.432
23544W        W95969  27.604  28.630   3.842
23545W        W95970  24.204   1.276   3.815
23546W        W95971  12.376   3.859  11.688
23547W        W95972   3.221  41.098   0.632
23548W        W95973  38.427   2.038  14.400
23549W        W95974   8.239  19.557   0.759
23550W        W95975  40.893  25.640   1.308
23551W        W95976  39.345  21.518   1.034
23552W        W95977  21.557  39.435  13.307
23553W        W95978  11.425  23.210   2.702
23554W        W95979  10.312   7.175  11.905
23555W        W95980  13.164  23.147   3.286
23556W        W95981  23.187  13.869   0.061
23557W        W95982   7.176  21.217  13.827
23558W        W95983  10.382  41.932  12.437
23559W        W95984  19.781  35.530  13.214
23560W        W95985  27.435  28.601   2.829
23561W        W95986  33.521   4.308   0.437
23562W        W95987  18.603  17.183   5.304
23563W        W95988  23.289  17.305  13.282
23564W        W95989  42.858  40.514   3.731
23565W        W95990  36.747  28.098  11.487
23566W        W95991  10.521  28.503   0.910
23567W        W95992  44.386   3.924   3.180
23568W        W95993  36.528   2.035   0.295
23569W        W95994   2.423   4.851  10.750
23570W        W95995  36.954  41.400   2.854
23571W        W95996   6.918  13.780  11.311
23572W        W95997  39.314   3.641   0.894
23573W        W95998  32.434  17.585  14.819
23574W        W95999  23.508  42.825   1.390
23575W        W96000   6.298  13.804   2.502
23576W        W96001  22.012  30.861   0.456
23577W        W96002  20.010  19.863   3.554
23578W        W96003  24.494  31.532  10.790
23579W        W96004  37.983  21.451   1.460
23580W        W96005  28.137  10.731   2.644
23581W        W96006  26.022  27.071   3.102
23582W        W96007  10.854  43.594  11.950
23583W        W96008   2.214   7.722  13.857
23584W        W96009   6.728  14.208   3.711
23585W        W96010  37.326  12.978   4.215
23586W        W96011  25.930  43.773  10.914
23587W        W96012  10.406  36.572  14.841
23588W        W96013   6.698  20.135  11.500
23589W        W96014  26.841  20.593   0.019
23590W        W96015  44.499  21.637  10.739
23591W        W96016  22.332   5.951   1.118
23592W        W96017  18.477  42.835  10.658
23593W        W96018   7.389  11.175  10.651
23594W        W96019   3.506  12.687   0.611
23595W        W96020  36.889  19.172  14.239
23596W        W96021  13.902   5.722  11.156
23597W        W96022  43.245   8.392   1.242
23598W        W96023  40.894  43.304   1.332
23599W        W96024  43.388  41.389  12.245
23600W        W96025  26.392  16.820   2.033
23601W        W96026   8.941  40.551  13.731
23602W        W96027  29.859  31.183   4.809
23603W        W96028   9.967  43.370  13.540
23604W        W96029  34.536  39.275   4.523
23605W        W96030  11.164   6.761  10.611
23606W        W96031  19.292  29.046   1.912
23607W        W96032  44.516  38.770  11.213
23608W        W96033  10.915  25.928  13.942
23609W        W96034  23.336  35.635   1.145
23610W        W96035   8.903  10.375   1.295
23611W        W96036  42.560   3.679  11.131
23612W        W96037  38.827   6.683   1.841
23613W        W96038  13.586  42.847  10.168
23614W        W96039  25.012  16.347  11.225
23615W        W96040   7.790  18.462   0.991
23616W        W96041   4.918   8.160   3.774
23617W        W96042   5.103  17.424  11.022
23618W        W96043  13.664  44.276   0.031
23619W        W96044   4.861  31.526   0.384
23620W        W96045  17.061  29.069  10.388
23621W        W96046   1.374  34.834  11.883
23622W        W96047  11.819  40.869  11.711
23623W        W96048  44.844  30.832   2.352
23624W        W96049  14.785  37.803   2.358
23625W        W96050  29.017  15.216   3.714
23626W        W96051  30.200   0.393   2.855
23627W        W96052   9.549  29.504   0.493
23628W        W96053   6.256  26.489   4.942
23629W        W96054  43.909   2.160  13.240
23630W        W96055  10.429  11.866  11.169
23631W        W96056  24.028  44.007   1.359
23632W        W96057  39.476  37.347   1.303
23633W        W96058  12.219  10.645   2.252
23634W        W96059  15.588  42.740   9.796
23635W        W96060  20.667  30.918   0.510
23636W        W96061  33.788  28.258  11.541
23637W        W96062  20.786  43.321  11.300
23638W        W96063  10.194  16.339   0.623
23639W        W96064  20.054   4.629   4.225
23640W        W96065  22.375  18.308  11.073
23641W        W96066   5.818  35.815   4.226
23642W        W96067  42.239   0.348   4.345
23643W        W96068   4.203  18.747  12.399
23644W        W96069  14.584  21.693   1.893
23645W        W96070  15.116  21.943   0.015
23646W        W96071   0.074  22.611   3.008
23647W        W96072  36.427  32.566  13.555
23648W        W96073  23.074   9.848  10.147
23649W        W96074   7.120  36.540  12.113
23650W        W96075  33.476  34.018  10.670
23651W        W96076  21.047  24.204  12.668
23652W        W96077  41.276  11.313   4.591
23653W        W96078  14.972  19.100  14.999
23654W        W96079  26.555   8.297   0.834
23655W        W96080  42.423  10.605  11.355
23656W        W96081  31.022  34.086  14.131
23657W        W96082  42.553  14.078  13.372
23658W        W96083   7.943  22.026  13.956
23659W        W96084   9.762  29.397  12.476
23660W        W96085   1.439  24.747   1.434
23661W        W96086  20.265  23.767   0.804
23662W        W96087  19.003  42.552   4.409
23663W        W96088  11.149   3.683   2.933
23664W        W96089  34.413  37.377  12.603
23665W        W96090  35.484   1.512   1.334
23666W        W96091   6.883   9.413  14.400
23667W        W96092  41.903  43.534   3.779
23668W        W96093  17.277  19.300  12.065
23669W        W96094  38.954  13.111  11.873
23670W        W96095  24.727   1.734   2.138
23671W        W96096  32.530  22.456   4.300
23672W        W96097  41.787  32.543  13.706
23673W        W96098  29.967   5.484   2.798
23674W        W96099   8.615  44.995  13.029
23675W        W96100  15.744  32.357  12.407
23676W        W96101  29.422   2.181   1.452
23677W        W96102  29.075   0.063  14.073
23678W        W96103  35.464  32.484  12.071
23679W        W96104  11.245  22.553   3.576
23680W        W96105  28.501   2.739   4.088
23681W        W96106  41.549  44.367   4.880
23682W        W96107   3.071  30.298  11.456
23683W        W96108  32.603   7.445   4.253
23684W        W96109  20.572  13.773   4.701
23685W        W96110  43.774   6.904  11.023
23686W        W96111  32.036  44.907   1.635
23687W        W96112  16.366  11.252   4.192
23688W        W96113  38.633  10.775  13.779
23689W        W96114  28.064  33.780  11.586
23690W        W96115  10.915   4.410  12.076
23691W        W96116  32.549  38.650  11.224
23692W        W96117  31.603  17.776  14.312
23693W        W96118  36.500   9.261   0.224
23694W        W96119  24.697  28.444  11.552
23695W        W96120   0.818  39.622   1.231
23696W        W96121  11.298  26.653   4.395
23697W        W96122  11.085  21.065  12.449
23698W        W96123  24.064  31.840   3.158
23699W        W96124  20.915  40.171  12.718
23700W        W96125  40.885  21.580   4.470
23701W        W96126  43.110  33.420  11.164
23702W        W96127  39.419  42.729  10.220
23703W        W96128  19.762  27.672   1.506
23704W        W96129  30.491  44.822   0.355
23705W        W96130  32.426   5.424  13.165
23706W        W96131  14.074  31.536  13.109
23707W        W96132  43.365  34.942   1.581
23708W        W96133  30.079  34.534  12.009
23709W        W96134  21.082  35.363   3.500
23710W        W96135  42.249   7.012   2.592
23711W        W96136   8.615  15.762   2.165
23712W        W96137  10.434  16.372   1.627
23713W        W96138   4.869  25.576  12.122
23714W        W96139  20.514   3.286   2.648
23715W        W96140  39.906  18.764  10.993
23716W        W96141   6.591  10.728  11.535
23717W        W96142  41.069   3.847   1.423
23718W        W96143   1.263  28.391   1.218
23719W        W96144  23.542  20.713   0.853
23720W        W96145   6.563   1.838   5.009
23721W        W96146  32.188  28.827  11.590
23722W        W96147   4.372  44.529  14.900
23723W        W96148   1.775  25.226  14.307
23724W        W96149  29.221  22.052   2.416
23725W        W96150  39.618  39.852  12.858
23726W        W96151   3.360  37.938  13.494
23727W        W96152   4.261  31.125  12.021
23728W        W96153  22.588  19.016   2.867
23729W        W96154  15.393  19.083  11.096
23730W        W96155  12.300   0.789  10.573
23731W        W96156  27.459  27.612   0.428
23732W        W96157  14.539  42.847  13.040
23733W        W96158  21.513  35.661   3.333
23734W        W96159  32.503  22.876  11.643
23735W        W96160   7.090  30.528  13.238
23736W        W96161   1.179  14.620  14.967
23737W        W96162  12.976  33.130   0.908
23738W        W96163   7.987  26.100   0.118
23739W        W96164  44.799  37.453  12.571
23740W        W96165  18.461  41.617  10.294
23741W        W96166  16.225  41.846   0.501
23742W        W96167  40.231  31.503   2.650
23743W        W96168  17.272  11.110  13.504
23744W        W96169  27.741  10.717   1.214
23745W        W96170  33.575   0.256  13.829
23746W        W96171   7.477  26.801  12.472
23747W        W96172   1.842  44.798  11.747
23748W        W96173  25.176  22.182   2.810
23749W        W96174   9.325  43.386  10.924
23750W        W96175  42.618  18.797   1.484
23751W        W96176  44.013  34.119  14.427
23752W        W96177   3.372  42.160   1.844
23753W        W96178  35.564  11.738   3.812
23754W        W96179  28.075   3.631  10.669
23755W        W96180  12.118  44.501   1.607
23756W        W96181  41.465  31.676   4.235
23757W        W96182  24.138  17.581   0.522
23758W        W96183  43.535   7.080  11.531
23759W        W96184  13.089   3.436   2.780
23760W        W96185  26.538  14.902  13.487
23761W        W96186   7.545  12.981  10.310
23762W        W96187  26.698  21.673   3.887
23763W        W96188   4.398   9.140   3.586
23764W        W96189  16.318  21.604   1.389
23765W        W96190   0.930  17.589   0.764
23766W        W96191   1.884   8.525   0.811
23767W        W96192  25.642   0.196  12.508
23768W        W96193  17.805  16.781  10.661
23769W        W96194   9.920   2.537   1.175
23770W        W96195  34.043  23.140   2.632
23771W        W96196  23.005  26.256   2.430
23772W        W96197  29.102  30.457   1.315
23773W        W96198  18.153  36.853  14.433
23774W        W96199   7.069  25.797  13.910
23775W        W96200   0.246  26.602   0.784
23776W        W96201  17.381  27.387  14.794
23777W        W96202  14.495   2.166  13.040
23778W        W96203   7.364  30.734   0.855
23779W        W96204  39.947   0.945   2.197
23780W        W96205   7.602   1.220   2.229
23781W        W96206  41.250  27.224   0.101
23782W        W96207  41.497   7.930  13.030
23783W        W96208   2.265  28.617   0.220
23784W        W96209  40.080   2.544  10.758
23785W        W96210  18.766  42.495  12.432
23786W        W96211  22.286  44.194  13.442
23787W        W96212  20.983  22.586  10.589
23788W        W96213   9.075  16.213  10.422
23789W        W96214  42.866  18.195  13.763
23790W        W96215  27.389  10.384   2.304
23791W        W96216  14.563   6.393   3.770
23792W        W96217  35.952  11.289  10.706
23793W        W96218  11.728   1.773   3.638
23794W        W96219  37.336  27.631   2.958
23795W        W96220   1.330   4.325   2.290
23796W        W96221   2.441  28.148  13.980
23797W        W96222   8.138  17.569   3.175
23798W        W96223  20.034  36.076   1.370
23799W        W96224  19.557  24.218   4.189
23800W        W96225  10.496  12.405  12.409
23801W        W96226  36.799   7.403   1.395
23802W        W96227  36.786   8.986  12.957
23803W        W96228  20.351  31.060   4.097
23804W        W96229   6.426  40.200  14.582
23805W        W96230  37.558   8.626   0.372
23806W        W96231  41.644  43.819  11.683
23807W        W96232  24.773  24.309   2.312
23808W        W96233  22.058  34.960   4.716
23809W        W96234  10.947  35.937  13.287
23810W        W96235  14.035   7.988  11.998
23811W        W96236   5.411   0.861   1.353
23812W        W96237  13.675  15.082  11.567
23813W        W96238  22.730  14.863   4.609
23814W        W96239  24.546  38.921  12.615
23815W        W96240  41.716   2.964  12.097
23816W        W96241  39.392  32.480  14.193
23817W        W96242  25.928   1.418   0.028
23818W        W96243  26.175   3.722  13.321
23819W        W96244  34.904  29.965   3.122
23820W        W96245  19.309   5.846   1.361
23821W        W96246  34.451  38.397  12.513
23822W        W96247   4.445  26.952   1.704
23823W        W96248   8.130  12.582  12.640
23824W        W96249  44.891   9.455   4.579
23825W        W96250  36.815  32.089   4.465
23826W        W96251  40.898   7.131  13.162
23827W        W96252   6.748  35.714  10.028
23828W        W96253  21.187  10.639  11.657
23829W        W96254  38.334   9.911   2.927
23830W        W96255  40.587  20.874   4.277
23831W        W96256  14.403   4.025   3.614
23832W        W96257   4.824   7.297   1.789
23833W        W96258  34.206   8.945  12.495
23834W        W96259  30.288  27.485   0.395
23835W        W96260  39.365   5.939  13.971
23836W        W96261  15.818  38.426   1.309
23837W        W96262  41.621  14.410  13.654
23838W        W96263   9.411  44.633  12.607
23839W        W96264  29.390  43.992   3.666
23840W        W96265  26.760  31.591  13.518
23841W        W96266   3.379  42.198   4.585
23842W        W96267  26.494  37.804   5.174
23843W        W96268  16.599  19.636  11.886
23844W        W96269   6.342   2.055  14.858
23845W        W96270  27.928  19.205   2.439
23846W        W96271   8.328  28.624  11.640
23847W        W96272  18.789  21.770  14.800
23848W        W96273  39.860  20.165   2.437
23849W        W96274  14.497  21.643  12.451
23850W        W96275  22.729   7.062   3.718
23851W        W96276  12.491  26.960   4.281
23852W        W96277   6.261  27.429   1.745
23853W        W96278  11.907  14.852  11.168
23854W        W96279  10.807   7.389  12.060
23855W        W96280   9.897  33.998   1.953
23856W        W96281   4.836  40.322  13.765
23857W        W96282  27.163  17.782  13.929
23858W        W96283  23.890  33.963  11.546
23859W        W96284  16.227  24.230  11.921
23860W        W96285  14.046   5.164  12.873
23861W        W96286  31.996  35.846   3.737
23862W        W96287   3.355  15.657  12.133
23863W        W96288  32.573  23.134  14.983
23864W        W96289   6.459  41.939  13.769
23865W        W96290  24.681   7.683  12.614
23866W        W96291   3.292  19.065   2.339
23867W        W96292  40.653   7.280  11.462
23868W        W96293  33.686  13.060   2.722
23869W        W96294  31.123  27.122  10.372
23870W        W96295  19.233  19.651   4.692
23871W        W96296  34.982   3.253   1.710
23872W        W96297  22.296  34.411   3.502
23873W        W96298   6.343  39.855  11.146
23874W        W96299   8.351   6.473  12.599
23875W        W96300  33.615  36.329  14.528
23876W        W96301  11.706   5.796   1.516
23877W        W96302  19.174   1.833  12.509
23878W        W96303  43.495   8.957   4.151
23879W        W96304  37.451  38.677   0.421
23880W        W96305   7.386  30.717  10.684
23881W        W96306   7.297  15.110  12.480
23882W        W96307  26.993  15.992   3.346
23883W        W96308  15.418   5.238   2.312
23884W        W96309  39.424   3.535   5.120
23885W        W96310  32.845  32.490  10.706
23886W        W96311  22.187   4.060   2.986
23887W        W96312  31.989  18.458   1.291
23888W        W96313  16.694  42.294  11.184
23889W        W96314  25.629  37.436   4.916
23890W        W96315  15.863   1.045  13.611
23891W        W96316  16.825   7.223  10.487
23892W        W96317  19.862  27.583  11.621
23893W        W96318   8.889  32.476   4.726
23894W        W96319  10.522  13.691  12.439
23895W        W96320  36.818  23.647   2.273
23896W        W96321  43.231   9.272  13.496
23897W        W96322  43.481  19.537   4.434
23898W        W96323  12.239  18.191  12.024
23899W        W96324  38.864  11.176  11.738
23900W        W96325  28.080  42.453   1.359
23901W        W96326  37.023  42.493  14.862
23902W        W96327  11.373  10.763  10.660
23903W        W96328  19.799  34.626  13.981
23904W        W96329  42.899  18.622   2.848
23905W        W96330  38.960  13.744   1.845
23906W        W96331   9.275  25.043   1.869
23907W        W96332  12.858  10.130   2.779
23908W        W96333  40.468  30.884  10.738
23909W        W96334  20.277  12.913  10.975
23910W        W96335   7.318  26.960  10.695
23911W        W96336  12.299  42.393  13.372
23912W        W96337  21.739  44.992   3.350
23913W        W96338  11.138  42.847   3.293
23914W        W96339   6.882  10.622   0.749
23915W        W96340  38.861  43.951  12.088
23916W        W96341  29.219  40.527   1.163
23917W        W96342   8.802  17.789  14.478
23918W        W96343  36.524  12.668  13.845
23919W        W96344   3.783  22.347  12.581
23920W        W96345   6.857  39.431   0.945
23921W        W96346  27.141   3.790  12.391
23922W        W96347  32.375  12.764  11.119
23923W        W96348   4.331  36.621  12.870
23924W        W96349  15.679  16.064   4.541
23925W        W96350  25.955  36.441  10.684
23926W        W96351  31.704   9.335  13.087
23927W        W96352  14.436  24.685  11.199
23928W        W96353   6.438  30.852   1.920
23929W        W96354  38.083  17.150   2.286
23930W        W96355   3.718  20.089   4.543
23931W        W96356  37.542  33.824   3.684
23932W        W96357  42.586  20.697  12.438
23933W        W96358  16.738  31.975   0.054
23934W        W96359  32.102  13.347   3.703
23935W        W96360  29.175  38.114  12.946
23936W        W96361  30.984  39.309   2.328
23937W        W96362  24.094  44.892  13.866
23938W        W96363   1.448  40.097   1.870
23939W        W96364   7.600  34.035  14.092
23940W        W96365   9.355  29.827  11.110
23941W        W96366  32.994  32.993   2.725
23942W        W96367  11.884  22.987   2.831
23943W        W96368  44.053  43.370  11.046
23944W        W96369  11.712  30.711   0.318
23945W        W96370  19.936  30.441   0.141
23946W        W96371  17.904   9.426  13.788
23947W        W96372  22.053  20.015   2.931
23948W        W96373  22.193  28.506  13.087
23949W        W96374  20.761  25.193  11.906
23950W        W96375   5.412  39.492   3.062
23951W        W96376   2.375  12.119   4.171
23952W        W96377   5.349  34.865   4.057
23953W        W96378  38.016  41.473   0.922
23954W        W96379   2.462  20.550   1.878
23955W        W96380  36.539  34.538  11.022
23956W        W96381  31.569  10.975   1.387
23957W        W96382  12.230  11.986  14.553
23958W        W96383   4.658  40.220   3.231
23959W        W96384  17.579  37.839  13.743
23960W        W96385  26.457  10.000   1.395
23961W        W96386  11.261   8.632   3.219
23962W        W96387  35.479   4.007   0.386
23963W        W96388  19.820  42.987   4.499
23964W        W96389  23.180  43.488   1.134
23965W        W96390  30.497  14.059   3.230
23966W        W96391   3.493   2.239  11.082
23967W        W96392  26.497  28.260   1.783
23968W        W96393   8.171   1.413  11.875
23969W        W96394  14.768   3.189   2.229
23970W        W96395  27.935  12.288   4.136
23971W        W96396  17.331  35.824   4.620
23972W        W96397  40.807  39.726  13.578
23973W        W96398   9.417   2.519   1.418
23974W        W96399   9.333   4.018   2.696
23975W        W96400  17.178   5.688   4.965
23976W        W96401  10.240  10.291  13.159
23977W        W96402  27.945  39.280  12.062
23978W        W96403  18.832  30.275   1.006
23979W        W96404  22.578  27.983  14.311
23980W        W96405  44.447  17.301   0.238
23981W        W96406  18.384   2.684   3.148
23982W        W96407  27.175  22.976  14.093
23983W        W96408   9.345  40.167  14.885
23984W        W96409  33.148  22.441  14.883
23985W        W96410  25.551  24.995  14.020
23986W        W96411  30.119  25.193  11.011
23987W        W96412   2.455  24.173  12.796
23988W        W96413  11.510  36.609  14.394
23989W        W96414   8.824   7.659   5.216
23990W        W96415  23.989  14.390   3.802
23991W        W96416  13.198  25.265   0.879
23992W        W96417   2.415   5.169  13.392
23993W        W96418  36.943  35.872   1.520
23994W        W96419  28.381  37.489  10.695
23995W        W96420  40.982   6.384  11.518
23996W        W96421   7.359   7.713  13.303
23997W        W96422  36.427  32.904  14.953
23998W        W96423  26.090   3.721   4.402
23999W        W96424  28.164  41.998  12.993
24000W        W96425  34.853  26.706   4.448
24001W        W96426  16.416  30.485   3.625
24002W        W96427  42.046  13.205  11.537
24003W        W96428   8.949   5.915   3.800
24004W        W96429  16.301  32.587   0.744
24005W        W96430   8.374  21.876   0.279
24006W        W96431  18.684  34.794   2.240
24007W        W96432  23.524  20.276  10.699
24008W        W96433  24.898  31.037  14.357
24009W        W96434  19.333  11.369   0.232
24010W        W96435  16.019   3.887   0.817
24011W        W96436  15.986   9.750   4.543
24012W        W96437  34.560   3.268  13.084
24013W        W96438  16.515  10.385  14.789
24014W        W96439  27.426  43.218   0.980
24015W        W96440  39.409  10.881  13.318
24016W        W96441   1.301  31.461  12.613
24017W        W96442  24.739  30.514   3.485
24018W        W96443  38.154  19.647  11.220
24019W        W96444  23.732  15.807  14.525
24020W        W96445  26.703  14.631   0.849
24021W        W96446   1.922  29.370   1.853
24022W        W96447   8.958   1.968   4.583
24023W        W96448  24.300   1.908  11.684
24024W        W96449  33.990  30.202  13.943
24025W        W96450   1.789  13.757   3.740
24026W        W96451  25.730   7.837   3.102
24027W        W96452  17.653  36.964   2.361
24028W        W96453  10.197   4.486   4.310
24029W        W96454   6.167  21.692  12.451
24030W        W96455  22.780  36.894   2.880
24031W        W96456  43.339  44.268  14.858
24032W        W96457  32.261   1.705   2.043
24033W        W96458  30.015  24.899   1.746
24034W        W96459   0.281  12.750   2.494
24035W        W96460  35.937  43.557  12.455
24036W        W96461  18.512  30.877  14.401
24037W        W96462  24.945  42.180  11.091
24038W        W96463  37.066  12.918  11.668
24039W        W96464  28.401  20.126   2.358
24040W        W96465  40.249  44.937  13.994
24041W        W96466  44.367  33.800   2.157
24042W        W96467  32.662  17.660  13.397
24043W        W96468  17.156  16.276  14.127
24044W        W96469  42.637  14.249  11.766
24045W        W96470  38.005  33.559  11.369
24046W        W96471  35.412  43.472   3.210
24047W        W96472  21.819  16.828  10.843
24048W        W96473  29.383  17.514   3.358
24049W        W96474   2.758   3.280  14.039
24050W        W96475  42.801  33.504   2.248
24051W        W96476  18.155  14.006   0.372
24052W        W96477  22.156  20.728  12.993
24053W        W96478  12.805  35.639  14.060
24054W        W96479   6.131  33.770   3.288
24055W        W96480  42.347  23.755   4.771
24056W        W96481  19.047  17.279   1.303
24057W        W96482  43.277  38.434   4.100
24058W        W96483   6.696  10.233   3.125
24059W        W96484  14.567  27.354  12.172
24060W        W96485  42.606  16.257   0.737
24061W        W96486  12.761   0.366  14.715
24062W        W96487  12.216  16.360   2.746
24063W        W96488  16.126  33.963   0.329
24064W        W96489  27.407  38.334   4.485
24065W        W96490  39.396  16.551   1.833
24066W        W96491  43.889  20.148   1.998
24067W        W96492  23.051   7.589   0.331
24068W        W96493   4.666  38.117   0.260
24069W        W96494  14.643  44.609   1.629
24070W        W96495  12.240  24.614  14.893
24071W        W96496  22.815  33.139   0.475
24072W        W96497   2.881  35.011   3.042
24073W        W96498  29.549  30.179  13.799
24074W        W96499  42.241  35.434  10.694
24075W        W96500  43.291  33.062  12.175
24076W        W96501  35.607  39.424   1.774
24077W        W96502  18.914  28.252  14.994
24078W        W96503  14.116  35.103  10.725
24079W        W96504  20.067  29.421   4.490
24080W        W96505   9.780   4.268   3.169
24081W        W96506  11.310  34.150  12.831
24082W        W96507   8.669   6.776   0.863
24083W        W96508  30.625  41.850  11.406
24084W        W96509   9.366  15.997   1.854
24085W        W96510   5.842  40.058  11.208
24086W        W96511  39.013   3.666  11.607
24087W        W96512   1.288  10.386  13.053
24088W        W96513  37.554  15.796   0.079
24089W        W96514  32.222  35.442  11.520
24090W        W96515  22.015  14.010  12.624
24091W        W96516  15.565  37.338  12.572
24092W        W96517  22.631  30.333   1.618
24093W        W96518  29.618  44.457  14.943
24094W        W96519   6.347  33.218   2.562
24095W        W96520  20.735  30.430   2.288
24096W        W96521  41.143  15.060  11.154
24097W        W96522  32.349  38.908  10.812
24098W        W96523  19.130  40.336   3.663
24099W        W96524  44.724  37.463   3.810
24100W        W96525   4.855   2.859  11.178
24101W        W96526  34.548  22.355  12.011
24102W        W96527  28.467   3.430  12.003
24103W        W96528  18.261  34.509  10.688
24104W        W96529  21.629   7.821  13.359
24105W        W96530   3.044  39.946  13.814
24106W        W96531   2.067  35.562  10.724
24107W        W96532  18.652  15.306  11.437
24108W        W96533   2.872  15.896  10.450
24109W        W96534   7.759  34.468  12.643
24110W        W96535  11.716  28.934   2.373
24111W        W96536  16.786  42.364   3.828
24112W        W96537  41.885  35.099   4.248
24113W        W96538   7.884   7.882   3.212
24114W        W96539  10.422  43.129   0.412
24115W        W96540  35.127   3.951   2.241
24116W        W96541  24.649  38.402   4.136
24117W        W96542   3.998  44.454  12.507
24118W        W96543  13.865  33.067   4.102
24119W        W96544  31.472  18.535  10.673
24120W        W96545  22.598   4.427   0.742
24121W        W96546  31.585   5.266  11.057
24122W        W96547   5.781  38.142   0.149
24123W        W96548  42.266  34.486  12.404
24124W        W96549  21.180  29.209  11.783
24125W        W96550   0.893  12.076   3.340
24126W        W96551  19.948   7.557  13.362
24127W        W96552   8.687  14.612   1.026
24128W        W96553  31.433  21.050  14.431
24129W        W96554  32.018  25.667   4.348
24130W        W96555  42.237   8.330   4.200
24131W        W96556  31.916  12.562  10.049
24132W        W96557  12.107  41.472  11.069
24133W        W96558  41.443  40.089   0.720
24134W        W96559   9.651   8.492  10.230
24135W        W96560   2.767  17.887  13.363
24136W        W96561  38.535   2.836   2.298
24137W        W96562   0.173   3.484   2.342
24138W        W96563  34.458  40.023   1.348
24139W        W96564   8.705  35.970  14.789
24140W        W96565   6.343  28.533   0.874
24141W        W96566  18.062  40.078   4.644
24142W        W96567   7.800   8.787  12.194
24143W        W96568  29.030  15.056  12.023
24144W        W96569  41.105  29.549   3.932
24145W        W96570   6.614   9.720   3.328
24146W        W96571  29.969  11.136  13.918
24147W        W96572  23.448  29.249  12.182
24148W        W96573  13.028  27.622   1.351
24149W        W96574   0.008   0.706   0.422
24150W        W96575  24.453  11.431   4.759
24151W        W96576   3.456  24.518   2.814
24152W        W96577   9.929   9.983  13.442
24153W        W96578  38.953  28.619   3.645
24154W        W96579  12.045  35.548  14.247
24155W        W96580  14.577  22.150  14.754
24156W        W96581  11.076  40.808   2.609
24157W        W96582   9.012  40.025   0.900
24158W        W96583  23.598  37.582   0.438
24159W        W96584  19.504   0.023   2.771
24160W        W96585   7.282  31.854   4.163
24161W        W96586  28.038   1.727   2.806
24162W        W96587  36.349  39.324  10.960
24163W        W96588  16.351   9.238   2.313
24164W        W96589  31.845  40.547   3.727
24165W        W96590   4.631  10.764   9.821
24166W        W96591  10.289  41.279   2.157
24167W        W96592   7.953  40.020   2.318
24168W        W96593   4.314  27.865   0.944
24169W        W96594  44.386   0.821   4.161
24170W        W96595  17.633  31.262  12.171
24171W        W96596  41.994  19.310  11.453
24172W        W96597  28.228  34.580   0.965
24173W        W96598   4.952   9.117  14.932
24174W        W96599  37.566  21.002   2.370
24175W        W96600  20.549  12.131  13.485
24176W        W96601  12.045  43.012   3.272
24177W        W96602   3.636  19.520   0.921
24178W        W96603  38.575   2.703   1.784
24179W        W96604  16.076  40.313  11.915
24180W        W96605  15.230  17.636  11.656
24181W        W96606  39.044  40.106   2.197
24182W        W96607   3.176  14.266  11.510
24183W        W96608  31.166  20.072  14.876
24184W        W96609  14.642  21.230  12.132
24185W        W96610  10.775  31.627   3.864
24186W        W96611  38.108  27.284   0.839
24187W        W96612  22.013  36.469  14.395
24188W        W96613  26.347  24.608  14.351
24189W        W96614  38.324  21.359   2.053
24190W        W96615  41.958  41.773  14.863
24191W        W96616   8.646  41.859  14.990
24192W        W96617  22.661  21.596   1.264
24193W        W96618  19.314  20.736  14.732
24194W        W96619  24.096  20.754   3.197
24195W        W96620  24.674   0.743  12.989
24196W        W96621  33.805  44.595   5.012
24197W        W96622   2.441  31.109  14.912
24198W        W96623  32.971  39.615   2.295
24199W        W96624  43.918  17.213   1.416
24200W        W96625  22.714  11.776  12.591
24201W        W96626  12.278  22.957   5.586
24202W        W96627  22.145  37.448   2.647
24203W        W96628  31.140  14.095   5.157
24204W        W96629  19.533   6.738   2.115
24205W        W96630  41.549  37.596  11.568
24206W        W96631  21.944  28.264   0.344
24207W        W96632  35.534  32.955  13.847
24208W        W96633  34.947  22.981   3.133
24209W        W96634  38.415   8.817   2.378
24210W        W96635  25.102  31.989  10.907
24211W        W96636  43.405   4.808   1.274
24212W        W96637  22.141  17.800  13.818
24213W        W96638   2.270  19.012   4.538
24214W        W96639  21.448  32.567  14.790
24215W        W96640   1.348  17.132   4.661
24216W        W96641  35.106  14.777  13.006
24217W        W96642  31.454  44.563   4.642
24218W        W96643   9.193  36.804  14.350
24219W        W96644  32.429   9.806  14.047
24220W        W96645   0.190  35.490  11.617
24221W        W96646  28.028  41.363  10.883
24222W        W96647   5.448  37.375  12.579
24223W        W96648   6.964  40.268  12.368
24224W        W96649   8.849  22.315  12.935
24225W        W96650  10.428  20.160   0.262
24226W        W96651  34.927  18.565   4.661
24227W        W96652  32.911  32.129   4.860
24228W        W96653  10.061  17.319   4.641
24229W        W96654   7.569  42.015   2.096
24230W        W96655   3.410   6.689   4.645
24231W        W96656  10.699  42.307   4.944
24232W        W96657   3.981   5.465   4.588
24233W        W96658   8.637  42.846  14.312
24234W        W96659  10.752  31.936   0.976
24235W        W96660  38.653  29.536   0.500
24236W        W96661   6.407   8.367   3.797
24237W        W96662  11.905  26.145  13.777
24238W        W96663  13.738   8.425   0.902
24239W        W96664  38.456  25.182  12.962
24240W        W96665  13.113  44.103   1.652
24241W        W96666  13.586  26.211  11.543
24242W        W96667  14.752  32.108   1.346
24243W        W96668  23.480  16.165  11.310
24244W        W96669   8.201   6.401  11.616
24245W        W96670   6.867  34.489  14.851
24246W        W96671  11.027  18.747  11.541
24247W        W96672   9.604  36.219   2.230
24248W        W96673  39.842  41.478  12.356
24249W        W96674  39.799   1.708   2.760
24250W        W96675  17.628   8.560  13.887
24251W        W96676  15.333   8.605  13.027
24252W        W96677   1.323  33.506   4.191
24253W        W96678   3.685  29.054   4.094
24254W        W96679  37.924  10.921  10.791
24255W        W96680  22.593  39.920  13.974
24256W        W96681  11.305  27.281  12.483
24257W        W96682  33.219  31.602   3.643
24258W        W96683  25.739   9.473   1.775
24259W        W96684  27.725   6.615  11.053
24260W        W96685  22.086  26.283   5.072
24261W        W96686  41.900   7.376   2.417
24262W        W96687  10.366  34.964  14.724
24263W        W96688  44.030   5.338  12.905
24264W        W96689  34.557  42.993   3.574
24265W        W96690  31.208   9.299  13.213
24266W        W96691  44.977  43.803  11.189
24267W        W96692  33.922  44.370  13.540
24268W        W96693  28.155  15.602  12.163
24269W        W96694  31.394  37.343  11.398
24270W        W96695  26.666  36.368  11.067
24271W        W96696  15.241   5.886   3.072
24272W        W96697   2.010  38.398   3.259
24273W        W96698  12.317  40.298   1.000
24274W        W96699  27.298   3.898  13.140
24275W        W96700   7.295   8.343  13.418
24276W        W96701  18.163  30.149   0.431
24277W        W96702  17.193  38.932   0.333
24278W        W96703  33.592   1.868   4.636
24279W        W96704  38.146   1.972  13.970
24280W        W96705  31.001  20.724   3.449
24281W        W96706  15.586  24.210   4.696
24282W        W96707  43.016  39.523   2.135
24283W        W96708  28.976  24.599  10.894
24284W        W96709  12.111  43.395  13.571
24285W        W96710   6.738  30.469  11.293
24286W        W96711  13.174  16.988   3.165
24287W        W96712  13.155  15.894  13.129
24288W        W96713   6.110  32.867  12.346
24289W        W96714   6.133  36.765   1.618
24290W        W96715   0.952  22.238  14.053
24291W        W96716  36.865  25.564   5.189
24292W        W96717  13.877   0.959   4.841
24293W        W96718  37.131  10.741   3.166
24294W        W96719  24.604  12.125   1.814
24295W        W96720  22.585   3.753  12.992
24296W        W96721  10.056  37.471  14.446
24297W        W96722  26.286  18.545   0.734
24298W        W96723  10.074  40.281  12.455
24299W        W96724   9.969   1.759   1.663
24300W        W96725  12.844  10.712  12.065
24301W        W96726  40.265   0.473   1.460
24302W        W96727   3.489  26.251  13.843
24303W        W96728   9.281   5.808   1.442
24304W        W96729  34.610  11.650  12.009
24305W        W96730  12.144  34.517  12.019
24306W        W96731  38.400  21.148   1.556
24307W        W96732  13.847  26.875   3.810
24308W        W96733  41.940  16.264   0.579
24309W        W96734  44.557  10.285   3.736
24310W        W96735  33.176  21.089   1.939
24311W        W96736   5.684   5.311   0.482
24312W        W96737  19.711  36.878   2.322
24313W        W96738  22.399  37.503  11.110
24314W        W96739  26.488  30.905  14.757
24315W        W96740  35.369  38.925   0.374
24316W        W96741  37.336  33.131   2.722
24317W        W96742   9.379  18.799  11.599
24318W        W96743  27.990  17.016   4.103
24319W        W96744  17.101  15.383   4.118
24320W        W96745  22.123  20.724  13.831
24321W        W96746  38.887  30.226  12.985
24322W        W96747  12.315  26.163   3.439
24323W        W96748   0.873  36.974   4.518
24324W        W96749  42.181  25.620   3.647
24325W        W96750  35.787  42.980  10.769
24326W        W96751  36.774  20.818  12.789
24327W        W96752  15.174  43.501  11.113
24328W        W96753   8.297  44.843  11.200
24329W        W96754   1.484  21.102   2.265
24330W        W96755   3.293  42.105   0.925
24331W        W96756   7.148  42.112   0.240
24332W        W96757   6.877   7.445  11.803
24333W        W96758   4.736  12.319   0.213
24334W        W96759  29.880   2.044  14.411
24335W        W96760  22.534  21.688   3.727
24336W        W96761   8.984  15.145   0.331
24337W        W96762   2.351  41.247  14.022
24338W        W96763   8.030  41.785  14.357
24339W        W96764   0.873  36.775   4.039
24340W        W96765  18.053  33.388   3.098
24341W        W96766   8.174  37.998   4.588
24342W        W96767  41.417  28.561   3.279
24343W        W96768  17.237   3.286  14.089
24344W        W96769   0.573   2.193  12.449
24345W        W96770  36.864  19.325  14.747
24346W        W96771  23.463  36.983   4.535
24347W        W96772  20.071  33.548   1.018
24348W        W96773  38.422  27.531   4.062
24349W        W96774  11.057   2.471  14.414
24350W        W96775  36.538  38.451   3.818
24351W        W96776  25.928   6.854  11.628
24352W        W96777   8.669   4.797  13.030
24353W        W96778  30.673  33.381  12.623
24354W        W96779  19.183  39.629  11.028
24355W        W96780  32.364   7.641   1.742
24356W        W96781  11.175   4.906  11.045
24357W        W96782  28.875   0.882   4.835
24358W        W96783  36.030  12.697  11.562
24359W        W96784  29.410  15.820   4.135
24360W        W96785  36.893  26.254   2.077
24361W        W96786  38.878  33.576  11.381
24362W        W96787  43.023  11.363   2.801
24363W        W96788  17.211   2.560   1.368
24364W        W96789  15.631  26.047   1.250
24365W        W96790  17.476   3.848   0.719
24366W        W96791  14.790  31.492  12.531
24367W        W96792   0.200  21.191  14.472
24368W        W96793  42.894  12.070  11.854
24369W        W96794  28.143  30.947   3.179
24370W        W96795   5.872  40.971   2.457
24371W        W96796   0.985   8.287  12.959
24372W        W96797  23.779  11.642   1.865
24373W        W96798  18.628  16.563  12.032
24374W        W96799  44.352  16.390   0.303
24375W        W96800  34.678  14.768   1.158
24376W        W96801   7.269   7.986   4.199
24377W        W96802  42.941   2.764   0.703
24378W        W96803   1.276  12.595  13.949
24379W        W96804  10.388  42.029   3.662
24380W        W96805   0.469   8.395  12.888
24381W        W96806  10.753  31.503  11.920
24382W        W96807  22.747  27.105  11.118
24383W        W96808  36.605   0.009   0.772
24384W        W96809   9.728  31.430  13.343
24385W        W96810  38.983  22.776   4.131
24386W        W96811  17.929   8.682   4.695
24387W        W96812  10.200  20.081   4.141
24388W        W96813  19.408  38.452   2.546
24389W        W96814   3.660   5.008   0.917
24390W        W96815  15.874   6.148   4.153
24391W        W96816  21.702   9.960   0.228
24392W        W96817  43.210  10.700  13.712
24393W        W96818  22.950  11.334  13.932
24394W        W96819   8.745  12.612   0.282
24395W        W96820  11.757  13.556  11.706
24396W        W96821  17.068  35.432  14.384
24397W        W96822  23.885  29.235   1.246
24398W        W96823  21.699  13.694   4.860
24399W        W96824  39.364  42.964  13.850
24400W        W96825   3.342   5.169  14.381
24401W        W96826  32.362  43.683  11.148
24402W        W96827  10.718  18.328  14.733
24403W        W96828  24.607  16.758   1.511
24404W        W96829  15.754  26.381   1.660
24405W        W96830  33.644  34.472   5.063
24406W        W96831   2.824  16.895  14.457
24407W        W96832  27.091  30.649   0.852
24408W        W96833  29.615  15.847  11.261
24409W        W96834  37.712  14.560  13.031
24410W        W96835  37.976  43.065  11.695
24411W        W96836  33.349  28.909  12.317
24412W        W96837   2.009  26.492   0.376
24413W        W96838  34.874   8.468  14.818
24414W        W96839  29.580  17.144   2.565
24415W        W96840   7.316  32.902  11.897
24416W        W96841  16.873  17.018  14.602
24417W        W96842  40.901   9.152   2.768
24418W        W96843  21.050  38.587   1.255
24419W        W96844  34.109  28.177   0.248
24420W        W96845  23.429  13.235   2.237
24421W        W96846  13.312   4.206  11.981
24422W        W96847  35.312  36.714  11.112
24423W        W96848  32.108  41.353   2.283
24424W        W96849   9.130  32.634  14.528
24425W        W96850  25.549   4.180   1.280
24426W        W96851  28.662  17.125   1.510
24427W        W96852   7.824  38.867   0.258
24428W        W96853  14.033  43.890  11.704
24429W        W96854  30.006  19.771   1.655
24430W        W96855   0.200  23.467  10.727
24431W        W96856  40.880  32.500   1.396
24432W        W96857  16.776  23.143   3.170
24433W        W96858   2.784  22.040  14.890
24434W        W96859   1.132  32.078  10.641
24435W        W96860  34.506  28.421   3.162
24436W        W96861  29.606  38.347  11.876
24437W        W96862  12.635   3.822   3.724
24438W        W96863   5.106  37.886   9.937
24439W        W96864  12.829  10.120   0.773
24440W        W96865  19.548   4.321   1.337
24441W        W96866  27.462  12.919  14.939
24442W        W96867  25.045  11.162  11.572
24443W        W96868  32.102  37.308   2.422
24444W        W96869  37.316  21.315   0.460
24445W        W96870   1.267  19.794   2.797
24446W        W96871   7.413  25.081  12.147
24447W        W96872   6.430  31.200  11.101
24448W        W96873  16.403  11.859   2.511
24449W        W96874  28.635  37.957   3.228
24450W        W96875  20.274  30.115   4.114
24451W        W96876  27.532  13.471  10.643
24452W        W96877  19.312  44.313   4.853
24453W        W96878  19.148  30.456  14.027
24454W        W96879   3.269  12.881   0.193
24455W        W96880  38.070  24.969   4.710
24456W        W96881   6.716  29.981   1.766
24457W        W96882  14.622  30.261  13.455
24458W        W96883  12.035   3.901  13.923
24459W        W96884  42.372  10.719   0.472
24460W        W96885  21.228  25.237  11.662
24461W        W96886  11.974   9.228   2.397
24462W        W96887  26.736   2.668   1.418
24463W        W96888  19.781   6.467  14.406
24464W        W96889   1.543  14.121   2.665
24465W        W96890  43.912  32.394  10.716
24466W        W96891  26.083  28.931  11.569
24467W        W96892  20.579  39.277  10.619
24468W        W96893  30.250  17.325   2.146
24469W        W96894  27.915  40.544  10.289
24470W        W96895  32.447  24.256   4.167
24471W        W96896  14.026  38.475   0.248
24472W        W96897  39.755  41.292   3.344
24473W        W96898  22.091  30.788  10.441
24474W        W96899  13.107  34.446  13.553
24475W        W96900   6.716  19.126  11.561
24476W        W96901  40.745  42.727   4.217
24477W        W96902  14.918  23.554   4.707
24478W        W96903  36.933  13.020  12.387
24479W        W96904   5.504  44.760   3.714
24480W        W96905  31.005   2.206  14.766
24481W        W96906  13.116  42.295   2.244
24482W        W96907  28.659  29.494  12.951
24483W        W96908   4.119  20.541   0.743
24484W        W96909  37.102  20.059   0.261
24485W        W96910  13.095   5.143  13.803
24486W        W96911  29.086   5.787  10.720
24487W        W96912  30.429  33.971  13.033
24488W        W96913  37.609  40.464  11.413
24489W        W96914  25.902  21.690   2.739
24490W        W96915  39.536  43.313  11.027
24491W        W96916  42.969  39.464   3.788
24492W        W96917  11.413  38.054   0.448
24493W        W96918  35.517  20.056   3.756
24494W        W96919  20.711  10.812   2.849
24495W        W96920  36.348   7.906  14.816
24496W        W96921  40.021  14.978   0.856
24497W        W96922  27.158   0.347  14.481
24498W        W96923   7.668  41.051   0.062
24499W        W96924  28.578  37.352  11.580
24500W        W96925  33.546  33.570   3.557
24501W        W96926  31.946  28.454   2.545
24502W        W96927   4.634  17.678   0.815
24503W        W96928  33.267  38.814   4.963
24504W        W96929  33.532   8.042  13.741
24505W        W96930  18.625  19.014   3.569
24506W        W96931   8.758  25.618   4.220
24507W        W96932  36.078   5.043  11.442
24508W        W96933  39.836  24.055  10.733
24509W        W96934  43.705  21.790   3.545
24510W        W96935  12.616  20.594  11.967
24511W        W96936  11.810   6.797  14.895
24512W        W96937   6.476  28.655  11.005
24513W        W96938   9.040  14.098  12.431
24514W        W96939  36.332  38.816  11.066
24515W        W96940  34.158   9.737  12.119
24516W        W96941  10.139  27.933   4.585
24517W        W96942  11.964  19.232  14.153
24518W        W96943  22.900  35.391  11.724
24519W        W96944   6.527  37.491   4.309
24520W        W96945  33.546   4.939  14.359
24521W        W96946  41.210  44.990   3.578
24522W        W96947  42.504   5.798   0.547
24523W        W96948   4.446   7.982  12.038
24524W        W96949  22.850  26.952  14.720
24525W        W96950  31.191   0.432  12.863
24526W        W96951  12.842  14.559  14.447
24527W        W96952  16.633  22.565   2.399
24528W        W96953  15.772  23.204  11.104
24529W        W96954  15.641   6.352  12.406
24530W        W96955  33.506  18.696   0.428
24531W        W96956  36.856   0.214   2.469
24532W        W96957  12.167  36.886  13.914
24533W        W96958  24.632  41.150  11.529
24534W        W96959  41.032  17.467   3.877
24535W        W96960  32.064   9.137   4.518
24536W        W96961  34.853  36.011   1.674
24537W        W96962   8.790  21.169  14.851
24538W        W96963  20.278  27.055   3.596
24539W        W96964  36.407  42.573   1.262
24540W        W96965   4.775  25.500   1.992
24541W        W96966   8.395  36.431  13.291
24542W        W96967   1.655  19.998  13.290
24543W        W96968  30.915   8.395   2.729
24544W        W96969  15.978  30.976   4.648
24545W        W96970  40.651   1.498   4.968
24546W        W96971   6.550  26.589  12.429
24547W        W96972  20.514  39.007  13.485
24548W        W96973   4.241  17.326  11.532
24549W        W96974   8.180  19.632  12.870
24550W        W96975  15.355  32.745   5.005
24551W        W96976   8.810   7.746  10.513
24552W        W96977   9.195  33.422   4.167
24553W        W96978   9.928  33.723   0.763
24554W        W96979  21.758  28.746  12.942
24555W        W96980  24.614   7.434   1.965
24556W        W96981  43.880  26.083   0.325
24557W        W96982  21.665  35.800  11.124
24558W        W96983   8.372  16.198  13.434
24559W        W96984  20.091   9.742  14.105
24560W        W96985  32.055   9.670   1.283
24561W        W96986  39.927  42.833   1.663
24562W        W96987  27.709  23.663   4.099
24563W        W96988  38.535  41.835   2.902
24564W        W96989   1.411  16.068  12.751
24565W        W96990  40.940  34.728  12.331
24566W        W96991  25.103  39.965   3.326
24567W        W96992  42.442   1.411  11.607
24568W        W96993  41.042   0.011  14.964
24569W        W96994  37.604  42.647  10.476
24570W        W96995  22.005  37.838  11.044
24571W        W96996   3.466  11.607  10.512
24572W        W96997  16.066  44.183   0.274
24573W        W96998  42.184   8.351  11.573
24574W        W96999  40.034  39.933  12.011
24575W        W97000   2.722  16.618  13.948
24576W        W97001  35.438  25.122  10.615
24577W        W97002  21.219  13.326  13.806
24578W        W97003  34.863  35.055   0.909
24579W        W97004  23.691   2.165   3.181
24580W        W97005  44.959   8.673  12.443
24581W        W97006  26.371   4.954   0.253
24582W        W97007  16.759  23.012  13.030
24583W        W97008   0.935  21.564  11.252
24584W        W97009   6.615  23.692  13.065
24585W        W97010   8.598   7.322   2.359
24586W        W97011  33.870   5.277   0.816
24587W        W97012  29.000  11.243   2.729
24588W        W97013   3.006  43.326   0.935
24589W        W97014  31.400  41.555  11.498
24590W        W97015  33.837  20.013  14.802
24591W        W97016  37.037  34.545  13.052
24592W        W97017  10.848  13.769   4.054
24593W        W97018   3.929  31.488  13.385
24594W        W97019   8.233   8.439  14.796
24595W        W97020  40.830  30.860   0.884
24596W        W97021  17.670   3.706   1.170
24597W        W97022  13.767  19.132   3.927
24598W        W97023  39.769   1.771  11.142
24599W        W97024  26.056   5.609   3.753
24600W        W97025  43.846  19.403   2.116
24601W        W97026  14.635  27.989   2.019
24602W        W97027   8.367  24.021   3.281
24603W        W97028  12.892  40.598  12.127
24604W        W97029  15.774  34.187  14.380
24605W        W97030  36.300  11.408  12.471
24606W        W97031  35.435  11.076   1.829
24607W        W97032  12.873  32.119   2.373
24608W        W97033  26.219  11.089  14.000
24609W        W97034  33.835  23.664   1.935
24610W        W97035  32.719  42.906   0.873
24611W        W97036  40.127  25.878  13.049
24612W        W97037   3.211  21.521   2.682
24613W        W97038   9.299  28.000   4.005
24614W        W97039   3.846   4.189   1.312
24615W        W97040  41.806  40.120  10.806
24616W        W97041  34.216  43.043   2.701
24617W        W97042   4.588  25.334   4.384
24618W        W97043  44.939  43.526   2.675
24619W        W97044  17.021  11.283   0.009
24620W        W97045  22.176   5.780  11.617
24621W        W97046  13.252  18.996   4.628
24622W        W97047  32.358  14.359  14.666
24623W        W97048  41.002  21.573   2.464
24624W        W97049   5.822  26.620   0.735
24625W        W97050  43.268  22.646   1.227
24626W        W97051  39.566  14.972  12.066
24627W        W97052  33.562  42.284   4.792
24628W        W97053   4.323  14.495   2.196
24629W        W97054   1.223  34.796   3.719
24630W        W97055  42.403  19.241   1.679
24631W        W97056  19.942   9.642   4.824
24632W        W97057  37.936  32.609  10.881
24633W        W97058  40.458  43.357   3.762
24634W        W97059  36.729  13.638   2.140
24635W        W97060   3.714   6.378   3.418
24636W        W97061  20.888   0.875  11.917
24637W        W97062  35.562  22.507   1.810
24638W        W97063  22.144   8.620   5.152
24639W        W97064  28.233  20.825   0.987
24640W        W97065  36.659   9.640  12.958
24641W        W97066  27.941  44.981   1.377
24642W        W97067  17.734   7.355   4.791
24643W        W97068  21.081  22.643   0.255
24644W        W97069   1.212  42.874  10.456
24645W        W97070  26.364  43.015  10.692
24646W        W97071  24.933  38.962   1.326
24647W        W97072  16.614  43.482   2.780
24648W        W97073  24.452  32.196   2.665
24649W        W97074  24.999   3.866   3.444
24650W        W97075  21.781  37.186  12.017
24651W        W97076  34.832  20.822   2.314
24652W        W97077   8.707  43.908   0.251
24653W        W97078  24.909  27.750  13.969
24654W        W97079   6.215  29.232   4.118
24655W        W97080   6.861  23.273   0.238
24656W        W97081  30.891  35.601  13.450
24657W        W97082  41.493   2.242  12.169
24658W        W97083  21.704  24.531   2.233
24659W        W97084  15.212  28.364  12.852
24660W        W97085  23.754  35.131   1.744
24661W        W97086  31.731   0.755  11.777
24662W        W97087  27.248  36.916   4.367
24663W        W97088  16.796  20.919   4.654
24664W        W97089  34.177  32.333  13.700
24665W        W97090   0.392  10.314   4.433
24666W        W97091  15.543  30.534   1.369
24667W        W97092  30.084  35.147   4.597
24668W        W97093  37.910   3.271  14.359
24669W        W97094  19.167  27.445   4.552
24670W        W97095  17.256   6.958  11.182
24671W        W97096  37.365  11.391   0.366
24672W        W97097  41.790  34.546   0.550
24673W        W97098  32.257  41.749   5.053
24674W        W97099  24.250  26.413   3.218
24675W        W97100  28.681   8.217   0.502
24676W        W97101  19.654  11.338  14.376
24677W        W97102   3.588  37.491   1.197
24678W        W97103  42.693  29.157  11.646
24679W        W97104  42.884  21.021   4.420
24680W        W97105   9.229   1.431   4.655
24681W        W97106  10.667  12.241  14.050
24682W        W97107  21.564   6.511  10.218
24683W        W97108  38.027  25.009   3.285
24684W        W97109  13.208  24.529  10.666
24685W        W97110  33.942   4.520   0.206
24686W        W97111  33.861   4.544   4.512
24687W        W97112  35.823   0.142  14.514
24688W        W97113  15.625  18.139   1.274
24689W        W97114  26.699  44.952   4.790
24690W        W97115  28.727  36.942   2.801
24691W        W97116   2.312  13.100  14.533
24692W        W97117  16.237  27.579  11.207
24693W        W97118  11.290   3.373  14.412
24694W        W97119  19.446  25.950   1.708
24695W        W97120  16.304  37.991   4.743
24696W        W97121  25.733   8.391   0.306
24697W        W97122   2.317  10.359   0.468
24698W        W97123   5.501  14.177  13.094
24699W        W97124  17.097  27.474  12.280
24700W        W97125  12.192  19.618   4.254
24701W        W97126  32.523  30.939  11.642
24702W        W97127   4.493  10.399  13.003
24703W        W97128  22.371  40.288   4.162
24704W        W97129  28.217  24.954  11.214
24705W        W97130  10.196  29.686  14.972
24706W        W97131  29.620  37.769   0.380
24707W        W97132  26.526  14.197  14.368
24708W        W97133   9.166  37.816  12.378
24709W        W97134  37.441  20.095  12.896
24710W        W97135  41.690  34.513   3.277
24711W        W97136  27.459  29.509  12.002
24712W        W97137  35.725  18.645  11.622
24713W        W97138   6.230  28.539  11.988
24714W        W97139   0.963  33.109  14.299
24715W        W97140  23.553  25.838  11.592
24716W        W97141  44.871  30.965  13.527
24717W        W97142  40.399  42.678  12.048
24718W        W97143  31.631  19.785  11.097
24719W        W97144  34.568  21.785   3.280
24720W        W97145  14.400  15.656  13.397
24721W        W97146   8.596   0.481  12.029
24722W        W97147  39.792  24.270   1.256
24723W        W97148  16.171  19.715   2.143
24724W        W97149   7.338  10.288   0.525
24725W        W97150  35.293  18.825   4.941
24726W        W97151  36.871  44.226  11.582
24727W        W97152  23.669   0.522   4.113
24728W        W97153  16.101  34.687   2.416
24729W        W97154   9.789  33.969   2.917
24730W        W97155  38.921  12.857   2.392
24731W        W97156  17.583  40.270   4.585
24732W        W97157   8.991  28.060  10.636
24733W        W97158  33.859  15.253   3.357
24734W        W97159  29.861  20.683   4.153
24735W        W97160  27.565  26.188  13.547
24736W        W97161   4.905  24.559  13.106
24737W        W97162  27.633  39.299  11.454
24738W        W97163  26.253  22.017  12.424
24739W        W97164  21.161  14.192   0.858
24740W        W97165  18.139  30.319  13.866
24741W        W97166  22.259  35.372  13.316
24742W        W97167  15.539  27.449  14.956
24743W        W97168  37.854  29.493   4.912
24744W        W97169  43.954  39.338  13.934
24745W        W97170   0.065  11.274   0.988
24746W        W97171  22.390  14.403   2.385
24747W        W97172   5.329  42.742  10.726
24748W        W97173   7.135   2.352   0.248
24749W        W97174  22.247  28.986  10.521
24750W        W97175   3.642  27.412  10.800
24751W        W97176   5.704   0.478   0.013
24752W        W97177   8.857  39.437   3.831
24753W        W97178   0.028  35.533   0.425
24754W        W97179   0.827  28.587   3.262
24755W        W97180  31.085  11.895   0.950
24756W        W97181   3.280  33.387   0.249
24757W        W97182  23.001   2.692  12.488
24758W        W97183  35.525  43.343  14.797
24759W        W97184  40.387  12.345  11.613
24760W        W97185   7.325   4.962   1.308
24761W        W97186  16.251  15.325   0.431
24762W        W97187  17.664  31.413  11.684
24763W        W97188  26.095  38.412  10.402
24764W        W97189  15.890  12.658   4.589
24765W        W97190  42.719  21.614   1.678
24766W        W97191  20.190   8.962   1.618
24767W        W97192   3.767  19.599   2.958
24768W        W97193  42.213  19.038   4.548
24769W        W97194   1.801  30.587  12.623
24770W        W97195  13.232  13.288  10.822
24771W        W97196  42.552  20.710  14.897
24772W        W97197   6.885  24.630  11.460
24773W        W97198  37.832  42.002   4.545
24774W        W97199  39.983  28.602  12.958
24775W        W97200  17.680  15.130  13.350
24776W        W97201  39.073   6.828   1.427
24777W        W97202  13.293   7.837  13.777
24778W        W97203  32.234   4.453   1.285
24779W        W97204   9.865  18.058  13.851
24780W        W97205  37.203  42.927  10.281
24781W        W97206  32.739  42.884   2.917
24782W        W97207  22.258  22.817   1.517
24783W        W97208  21.158   5.944  10.740
24784W        W97209  17.739  43.084   1.275
24785W        W97210  24.175  28.230  11.588
24786W        W97211  13.626  26.522   2.243
24787W        W97212  27.027  36.408  13.796
24788W        W97213  31.911  13.526  12.354
24789W        W97214   4.272   3.574  11.610
24790W        W97215  12.139   0.273  11.089
24791W        W97216  43.706  35.178  14.538
24792W        W97217  32.627   3.292   1.198
24793W        W97218  26.230  34.836   3.244
24794W        W97219   7.828  42.754  11.162
24795W        W97220  28.122   9.309  12.644
24796W        W97221  37.387  16.344   4.745
24797W        W97222  33.507  24.512  12.039
24798W        W97223  14.347   5.877  13.555
24799W        W97224  21.448   0.353   0.302
24800W        W97225  40.829   0.440   2.171
24801W        W97226  16.268  34.647  10.651
24802W        W97227  24.637  43.351   1.306
24803W        W97228  40.205   3.480   3.201
24804W        W97229  30.010   0.484   2.390
24805W        W97230  17.208  29.652  13.343
24806W        W97231  12.982  37.474  13.611
24807W        W97232  44.268  20.086  12.512
24808W        W97233   7.700  12.931  14.441
24809W        W97234   3.953  15.489   1.982
24810W        W97235  31.149   4.030   0.850
24811W        W97236  34.829  42.448  14.053
24812W        W97237  19.714   6.542  12.092
24813W        W97238  42.780  42.733  14.491
24814W        W97239  31.236   1.240  11.536
24815W        W97240  23.017  28.348  14.374
24816W        W97241  25.721  11.777  11.664
24817W        W97242  42.696  27.139   3.908
24818W        W97243  14.490   7.643   0.799
24819W        W97244  21.991  27.590   3.281
24820W        W97245  18.350  11.063   1.577
24821W        W97246   0.732  10.399   0.720
24822W        W97247  30.467  16.267  10.822
24823W        W97248  28.915  33.850  11.442
24824W        W97249   8.905  15.284   2.272
24825W        W97250  42.810  23.005   0.824
24826W        W97251  24.784   4.015   1.825
24827W        W97252  16.069  33.029   2.710
24828W        W97253  43.629  27.202   4.045
24829W        W97254  15.399  20.164  13.952
24830W        W97255  43.766   2.832  12.574
24831W        W97256  20.143  43.577   1.788
24832W        W97257  24.229   1.693   2.122
24833W        W97258  40.261  26.942  12.393
24834W        W97259   1.444   4.824  14.280
24835W        W97260  27.731  43.605   1.066
24836W        W97261   4.596   7.897   0.765
24837W        W97262  28.830   7.274   4.419
24838W        W97263  27.823   8.656  11.017
24839W        W97264   4.237  31.951   3.142
24840W        W97265  22.049  32.665  11.095
24841W        W97266  11.619  27.394   0.305
24842W        W97267  43.326  14.811  10.334
24843W        W97268  10.821  15.562   0.302
24844W        W97269  42.777  30.094   4.377
24845W        W97270  27.189  26.032  12.408
24846W        W97271  25.026  32.649  14.334
24847W        W97272  30.489  44.984   4.081
24848W        W97273  15.598  26.188  10.876
24849W        W97274  33.638   3.675  10.938
24850W        W97275  42.979  29.569  11.654
24851W        W97276  24.263  37.910   3.104
24852W        W97277  20.558  21.115  14.530
24853W        W97278  14.888  15.590  13.273
24854W        W97279   4.250  27.099   3.576
24855W        W97280  16.991  40.959  12.922
24856W        W97281   1.518  38.596  12.059
24857W        W97282   9.311  22.307   0.300
24858W        W97283  27.631  16.101   0.809
24859W        W97284  36.946  20.027  11.532
24860W        W97285  25.446   1.139   5.067
24861W        W97286  16.583  32.476  13.584
24862W        W97287  26.787  32.536  11.781
24863W        W97288   2.973  13.278   2.060
24864W        W97289  14.239   1.317  12.711
24865W        W97290  19.790  18.410  12.017
24866W        W97291   0.684  37.512   2.157
24867W        W97292  23.592  14.302   0.237
24868W        W97293  38.340  16.290   0.263
24869W        W97294   8.127  14.291   1.829
24870W        W97295  10.292   5.798   5.598
24871W        W97296   3.878  35.657   3.107
24872W        W97297  43.808  36.178   2.640
24873W        W97298  43.950  36.932  13.088
24874W        W97299  31.874  31.388  13.225
24875W        W97300  11.629   7.349  12.099
24876W        W97301  32.061  17.881  11.544
24877W        W97302  39.072   8.717   0.452
24878W        W97303  29.237  41.531   1.323
24879W        W97304  27.687  40.057   1.071
24880W        W97305  10.058  37.584  13.597
24881W        W97306  24.088   4.217   1.212
24882W        W97307  38.342  38.045   1.715
24883W        W97308  43.168  32.468  11.094
24884W        W97309  32.049  18.236   2.173
24885W        W97310  13.387  22.266   0.831
24886W        W97311  16.621  37.953   3.857
24887W        W97312   5.359  40.990   4.667
24888W        W97313  40.051  28.545   1.382
24889W        W97314   4.867  14.910  13.109
24890W        W97315  17.536  40.510   0.831
24891W        W97316  11.882  33.026  12.367
24892W        W97317  29.551  15.183  13.445
24893W        W97318  26.516  17.987  12.612
24894W        W97319   9.106  20.049  13.983
24895W        W97320  28.569  31.885  11.528
24896W        W97321  27.016  26.936   3.997
24897W        W97322  36.918  16.077   1.247
24898W        W97323  26.676  19.790  12.449
24899W        W97324   3.933   8.224   1.168
24900W        W97325  18.162  22.632  11.637
24901W        W97326  24.200  27.032  14.885
24902W        W97327  24.438  33.068   3.378
24903W        W97328  32.049  22.761  12.510
24904W        W97329   9.862  14.754  11.983
24905W        W97330  41.821  24.968   2.498
24906W        W97331   4.751   6.657   3.826
24907W        W97332  33.997  27.587  12.132
24908W        W97333  32.025  17.589   3.650
24909W        W97334  19.971   3.670   3.637
24910W        W97335  36.138  35.905  11.565
24911W        W97336  11.327   0.880   4.856
24912W        W97337  29.693  20.207  12.069
24913W        W97338   0.418  14.797   0.523
24914W        W97339  11.395  42.876  14.109
24915W        W97340   3.203  33.530   4.442
24916W        W97341  36.508  16.580  11.589
24917W        W97342  39.789  40.645   0.334
24918W        W97343  15.372   6.689  13.918
24919W        W97344  19.549  37.642   1.826
24920W        W97345  18.326  23.398   2.703
24921W        W97346  44.320   1.962  12.489
24922W        W97347  27.526  19.341  11.548
24923W        W97348   6.290  27.520  14.778
24924W        W97349  29.162  17.590  11.090
24925W        W97350  41.133  10.908   0.775
24926W        W97351   7.112  18.212   2.302
24927W        W97352  18.301   7.345   4.365
24928W        W97353   7.426   2.822  11.995
24929W        W97354  33.982  31.774   2.098
24930W        W97355  30.669  24.586   4.265
24931W        W97356   3.923   5.024   2.402
24932W        W97357  32.888   0.977   4.510
24933W        W97358  44.519  42.839   4.291
24934W        W97359  17.130  11.790   3.176
24935W        W97360  18.024  32.955   0.746
24936W        W97361  34.592  26.677  11.111
24937W        W97362  16.827  28.064   3.615
24938W        W97363  39.603  25.218  11.999
24939W        W97364  20.675  19.023   1.773
24940W        W97365   1.143  29.262  14.438
24941W        W97366  18.148  20.614   2.463
24942W        W97367  31.435  19.473   1.865
24943W        W97368  18.301  35.155  12.085
24944W        W97369  17.693  15.794   0.399
24945W        W97370  29.992   3.502  12.857
24946W        W97371  42.064  36.102  13.874
24947W        W97372  15.255  44.268   3.430
24948W        W97373  27.892  35.942   2.794
24949W        W97374  35.636   3.210   4.093
24950W        W97375  23.669  13.668  14.981
24951W        W97376  42.403   3.846   1.896
24952W        W97377   7.874   6.785  11.491
24953W        W97378   3.710  22.591   3.677
24954W        W97379  10.107  17.114  12.935
24955W        W97380  30.191  15.381  13.978
24956W        W97381   8.291   4.770  13.421
24957W        W97382  39.053  11.622   0.366
24958W        W97383  25.425  42.499   2.706
24959W        W97384  40.776  24.160   2.912
24960W        W97385  22.021  28.502   2.207
24961W        W97386   2.951  35.645  10.902
24962W        W97387  24.619  21.205  14.925
24963W        W97388  22.075  25.216   2.849
24964W        W97389  12.072  33.603  13.326
24965W        W97390  41.413  38.799  14.257
24966W        W97391  31.239  11.180   3.137
24967W        W97392  10.135  13.442   1.480
24968W        W97393   7.437   4.043  11.117
24969W        W97394   4.349   5.839  13.064
24970W        W97395   0.178  33.387  11.593
24971W        W97396  32.204  22.802  14.803
24972W        W97397  21.681   6.465   3.309
24973W        W97398  28.778  11.592   3.903
24974W        W97399   2.852  35.056  12.212
24975W        W97400  23.566   5.782   1.770
24976W        W97401  30.125   8.151  13.907
24977W        W97402  27.179  23.472  11.561
24978W        W97403  11.644  21.752   1.775
24979W        W97404  13.891  29.605   2.984
24980W        W97405  25.219  40.602  13.875
24981W        W97406  10.596  23.766   0.675
24982W        W97407  28.230  19.332   1.909
24983W        W97408  44.630  16.787  14.524
24984W        W97409  21.291  17.401   0.841
24985W        W97410  35.733  15.391  14.434
24986W        W97411   6.667  31.962   2.651
24987W        W97412  30.491  34.812  12.613
24988W        W97413  27.676  27.719  14.508
24989W        W97414  34.159  42.042   4.101
24990W        W97415  34.483  43.486   2.587
24991W        W97416  17.310  40.059  12.905
24992W        W97417   9.765  21.434   0.386
24993W        W97418  33.123  15.558   1.254
24994W        W97419  24.608  40.768   1.872
24995W        W97420   1.288  13.278   0.223
24996W        W97421  21.640  29.081  11.173
24997W        W97422  39.903  14.248  11.883
24998W        W97423  31.322  34.865   2.756
24999W        W97424  23.626   4.406  13.982
25000W        W97425  34.721  33.585  12.524
25001W        W97426  28.049  29.829  11.228
25002W        W97427  31.717  37.112  11.981
25003W        W97428  33.127  22.183  12.123
25004W        W97429  27.734  39.440   3.941
25005W        W97430  44.239  30.126   0.771
25006W        W97431  30.640  24.692   2.296
25007W        W97432  32.350  34.831  14.867
25008W        W97433  13.971   1.798  12.752
25009W        W97434  30.939  10.856   1.879
25010W        W97435  23.134  15.722   3.766
25011W        W97436  21.945  29.662   0.540
25012W        W97437   5.728  13.155  10.487
25013W        W97438  39.122   1.431  11.967
25014W        W97439  31.908  27.745  13.877
25015W        W97440  14.688  42.828  14.315
25016W        W97441  26.934  21.164  10.775
25017W        W97442  25.194  36.937   1.473
25018W        W97443  30.976  25.503   4.925
25019W        W97444   7.550  21.477  13.553
25020W        W97445  17.722  21.300   4.626
25021W        W97446   6.879   5.226  14.337
25022W        W97447  30.219  33.466  10.808
25023W        W97448  39.228   7.347   4.496
25024W        W97449  18.780  26.515  14.377
25025W        W97450   0.933  40.282   4.631
25026W        W97451   7.720  37.621  12.685
25027W        W97452  42.981  35.789   3.671
25028W        W97453  16.496  37.035   1.433
25029W        W97454  43.841  37.356  10.485
25030W        W97455   0.559  30.465   0.779
25031W        W97456   9.194  24.980  10.506
25032W        W97457  43.934  33.482  13.019
25033W        W97458  31.485  37.624  10.239
25034W        W97459  37.802  38.429  12.466
25035W        W97460   4.739   6.255  11.113
25036W        W97461  15.983  40.580   0.787
25037W        W97462  25.902   6.920  10.818
25038W        W97463  36.293   2.875   1.085
25039W        W97464  33.007  32.127   2.307
25040W        W97465   9.651   1.202   3.824
25041W        W97466  40.893   5.606   1.193
25042W        W97467   1.818  31.556   0.234
25043W        W97468  25.503   4.378   2.216
25044W        W97469  11.182  33.009  10.529
25045W        W97470  31.107  27.188  13.573
25046W        W97471   0.823  16.044  11.397
25047W        W97472  32.582  22.222   0.817
25048W        W97473   2.423  36.899  13.934
25049W        W97474  42.076  11.028   1.806
25050W        W97475  33.869  39.858   0.667
25051W        W97476  30.377  17.302   3.199
25052W        W97477  21.012  14.976  14.744
25053W        W97478  43.777  15.152   4.661
25054W        W97479  27.034  26.897   1.680
25055W        W97480  11.864   2.798   4.590
25056W        W97481  42.461  10.537  14.417
25057W        W97482   1.747  32.603  13.894
25058W        W97483  25.444  31.785  12.656
25059W        W97484  14.820  26.309  13.886
25060W        W97485  12.601  21.099  12.061
25061W        W97486  31.541  19.155   4.719
25062W        W97487  14.605  32.216   2.281
25063W        W97488  37.810  15.791  13.300
25064W        W97489  17.626  22.768   3.184
25065W        W97490  31.011  23.471  12.906
25066W        W97491  43.568   2.373   3.868
25067W        W97492   2.446  30.340   0.886
25068W        W97493  18.166  35.596  12.857
25069W        W97494   2.491   7.171  13.843
25070W        W97495  35.179   2.349  14.394
25071W        W97496  44.741  30.962  13.037
25072W        W97497  37.350  31.890   0.321
25073W        W97498  19.829  16.553   0.365
25074W        W97499  32.090  29.905   0.567
25075W        W97500  14.183   9.212  11.032
25076W        W97501   8.729  13.575  12.023
25077W        W97502   6.253  28.798   1.331
25078W        W97503   4.300  40.415   2.890
25079W        W97504  17.775   4.794   3.244
25080W        W97505   8.089  24.240   0.901
25081W        W97506  20.512  19.295   2.260
25082W        W97507  37.354  13.561  14.000
25083W        W97508   0.629  28.584  13.028
25084W        W97509  24.717  21.123   3.651
25085W        W97510  44.782  24.132  11.101
25086W        W97511  20.041  18.690   4.223
25087W        W97512  38.887  44.447  10.403
25088W        W97513  22.635  24.153  14.804
25089W        W97514  11.316   1.182  13.058
25090W        W97515   8.816   1.356  13.743
25091W        W97516  44.010  31.474  12.940
25092W        W97517  10.726  32.181   1.447
25093W        W97518  20.980   0.777   1.526
25094W        W97519   8.097  28.976  13.766
25095W        W97520  26.792  41.003  11.573
25096W        W97521   5.312  24.080  11.390
25097W        W97522   5.175  33.834   0.752
25098W        W97523   7.208   3.086  14.736
25099W        W97524  11.310  24.019  14.538
25100W        W97525  19.312  37.342  13.872
25101W        W97526  17.701  26.495   1.469
25102W        W97527  38.662  38.358  13.864
25103W        W97528  32.351   2.743   3.322
25104W        W97529  35.588  25.769  10.031
25105W        W97530  15.641  20.224   1.205
25106W        W97531   4.208  29.172  12.559
25107W        W97532  35.643  11.243  13.848
25108W        W97533  24.633  28.197   1.636
25109W        W97534  10.138  34.855   2.381
25110W        W97535  28.920  23.121  12.004
25111W        W97536  41.424  22.190   2.600
25112W        W97537  20.571  31.676  14.276
25113W        W97538   8.592  19.610  11.125
25114W        W97539  20.055   1.410   2.893
25115W        W97540  36.773  20.203   3.988
25116W        W97541  23.727  44.842  12.390
25117W        W97542  18.710  23.848  13.519
25118W        W97543   6.457  16.236  12.429
25119W        W97544   2.422  22.371   1.272
25120W        W97545  14.262  42.018   0.853
25121W        W97546  32.959   6.320   4.498
25122W        W97547  37.416  17.574   3.828
25123W        W97548   9.295  12.900   4.760
25124W        W97549  44.819  26.151   0.831
25125W        W97550   2.329   2.646  12.169
25126W        W97551  10.429  25.452   1.892
25127W        W97552  37.790  30.158  13.797
25128W        W97553  14.726  27.469   3.299
25129W        W97554   2.007  41.158  11.039
25130W        W97555  36.411  26.880  12.934
25131W        W97556  13.655  31.385   3.222
25132W        W97557  30.306  15.431   5.079
25133W        W97558  14.724  21.832   3.644
25134W        W97559  27.623  37.982   2.360
25135W        W97560  34.688  19.503  11.650
25136W        W97561   8.596  17.057  14.910
25137W        W97562  25.458   8.180  12.415
25138W        W97563   5.778  29.521   4.176
25139W        W97564  29.096  17.553   2.689
25140W        W97565  42.411   4.768   2.383
25141W        W97566  26.926  11.228   0.418
25142W        W97567   4.259  21.198  12.703
25143W        W97568   1.643  22.115   4.142
25144W        W97569  34.064   1.624   4.699
25145W        W97570  43.993   4.641  12.374
25146W        W97571   5.774  23.206   2.298
25147W        W97572   9.641   2.082   1.204
25148W        W97573  43.837  13.665  13.564
25149W        W97574  29.144  37.600  12.948
25150W        W97575  12.682  23.262   2.258
25151W        W97576   9.291  12.133  13.389
25152W        W97577  28.220  34.053   4.561
25153W        W97578  30.944  15.744  14.504
25154W        W97579  34.695  27.590  13.274
25155W        W97580  41.642  11.070   0.664
25156W        W97581  39.452   0.064  13.013
25157W        W97582   2.580   6.336  10.321
25158W        W97583  32.527  23.196   0.542
25159W        W97584   5.231  33.214  10.436
25160W        W97585  41.862  21.788  14.285
25161W        W97586  10.462   4.840   0.855
25162W        W97587  10.469  22.522  11.072
25163W        W97588  25.014  32.739   4.833
25164W        W97589  37.388   4.511  11.167
25165W        W97590   1.522   8.845   0.284
25166W        W97591  28.936  33.542   4.574
25167W        W97592  31.539  21.410  10.255
25168W        W97593  44.372   6.011  14.766
25169W        W97594   6.778  38.018   2.142
25170W        W97595  17.219  41.323   3.119
25171W        W97596  37.517   3.995   2.296
25172W        W97597   9.747  35.241  12.999
25173W        W97598  44.100  44.743  12.997
25174W        W97599  14.404   4.724  11.574
25175W        W97600  25.500  35.091  13.441
25176W        W97601  20.074  19.498   3.169
25177W        W97602   4.007  37.292  10.137
25178W        W97603  36.154  25.456   4.588
25179W        W97604  31.686  24.544   4.337
25180W        W97605  35.041   5.209   3.689
25181W        W97606  13.034  31.583   2.115
25182W        W97607  25.539   5.496  12.606
25183W        W97608   7.247  33.667   2.230
25184W        W97609  18.828  19.409   0.330
25185W        W97610  16.584   1.196   0.355
25186W        W97611  23.175  28.972  13.328
25187W        W97612  10.846  11.119  12.850
25188W        W97613  16.169  41.048  11.114
25189W        W97614  30.505  21.217   4.535
25190W        W97615  21.241  15.003  13.133
25191W        W97616   3.500   7.106   4.936
25192W        W97617  17.649  29.945   4.300
25193W        W97618   7.276  11.472  14.328
25194W        W97619  38.571   8.279   4.097
25195W        W97620  40.092  32.108  13.739
25196W        W97621   9.873  24.195  14.895
25197W        W97622  29.437   5.011  13.913
25198W        W97623   5.519  28.334   2.851
25199W        W97624  12.376  34.361   0.894
25200W        W97625  10.138  19.580  12.683
25201W        W97626  29.274  39.599   0.426
25202W        W97627  25.890  44.237  11.166
25203W        W97628  30.037   5.785  10.953
25204W        W97629  22.636  25.817  13.474
25205W        W97630  40.442  26.450   3.254
25206W        W97631  39.104   6.820   4.659
25207W        W97632  13.740  24.244  14.303
25208W        W97633  13.192  13.754  12.658
25209W        W97634  38.136  34.862   1.130
25210W        W97635  42.934  43.380  10.827
25211W        W97636  44.363  44.935  10.958
25212W        W97637  12.397  10.297   4.592
25213W        W97638  14.567  23.572   4.324
25214W        W97639  21.693  32.451   3.222
25215W        W97640  27.646  21.376  14.890
25216W        W97641   8.647  36.643   0.558
25217W        W97642  43.001  40.015   0.210
25218W        W97643  27.167  24.951   1.064
25219W        W97644  37.961  39.800   3.122
25220W        W97645  32.059  30.414  13.438
25221W        W97646  19.943   2.532   4.507
25222W        W97647  38.328  20.495  13.027
25223W        W97648  44.161  26.077  13.884
25224W        W97649  23.533  31.993   2.952
25225W        W97650  42.034  14.060   1.594
25226W        W97651  27.453  25.952  14.927
25227W        W97652  36.983  30.847   2.746
25228W        W97653   0.245   5.821  14.711
25229W        W97654  30.089  32.724   4.145
25230W        W97655  24.135  16.028  10.432
25231W        W97656   8.095  40.921  14.743
25232W        W97657  40.254  28.449   4.643
25233W        W97658  12.347   3.189   1.369
25234W        W97659  41.529  30.860   3.749
25235W        W97660  43.656  12.880  12.973
25236W        W97661  21.085   8.371  10.218
25237W        W97662  19.450  19.692  10.541
25238W        W97663  16.718  10.172  12.404
25239W        W97664   4.756  16.928   4.243
25240W        W97665  19.477  10.182   3.817
25241W        W97666   2.564   9.846  11.639
25242W        W97667  28.942  36.082  13.398
25243W        W97668  10.353  41.990   4.668
25244W        W97669  44.343  42.107   0.571
25245W        W97670   1.033  44.956  14.771
25246W        W97671  35.569  28.142   2.882
25247W        W97672  25.597  19.327   3.144
25248W        W97673   5.773  33.636   2.919
25249W        W97674  21.420   7.390   3.354
25250W        W97675  19.654  37.406  14.920
25251W        W97676  29.161  27.131  10.721
25252W        W97677   7.885  16.351   1.023
25253W        W97678  13.646  11.729   1.375
25254W        W97679  43.793   0.272  12.139
25255W        W97680  16.702  43.993  14.417
25256W        W97681   5.652   3.309  14.840
25257W        W97682  17.229   9.048  13.029
25258W        W97683  39.766   3.406   1.285
25259W        W97684  43.900  25.009  11.876
25260W        W97685  13.659  43.932   0.429
25261W        W97686  18.253  24.407   2.845
25262W        W97687  28.931  24.684   1.265
25263W        W97688  30.539  18.814   2.626
25264W        W97689  30.516  31.145  13.183
25265W        W97690   7.279  33.998  14.941
25266W        W97691  27.124  37.121  12.117
25267W        W97692  28.865  21.151   0.322
25268W        W97693   8.252  25.676   2.330
25269W        W97694  23.596   8.069   3.001
25270W        W97695   9.920  18.942   1.839
25271W        W97696   9.101  44.433   4.291
25272W        W97697  28.874  22.205   2.023
25273W        W97698  38.556  42.337   2.232
25274W        W97699  13.336  37.535   2.758
25275W        W97700  33.767  31.509  11.260
25276W        W97701   8.543   4.892  11.054
25277W        W97702  28.053  18.577  13.836
25278W        W97703   7.291  13.059  14.741
25279W        W97704  21.822  28.094   1.680
25280W        W97705  32.422   5.893   0.737
25281W        W97706  26.940  16.203  11.222
25282W        W97707   6.795  25.096   3.284
25283W        W97708  12.004   4.231   2.803
25284W        W97709  40.967  36.136   2.369
25285W        W97710  36.061  23.588   4.120
25286W        W97711  24.074  37.882   1.268
25287W        W97712   8.877   0.685   2.927
25288W        W97713  41.623  44.831   2.713
25289W        W97714  27.556  35.764   0.038
25290W        W97715  11.065   9.141  11.838
25291W        W97716  26.090  27.115  13.854
25292W        W97717  36.487  41.770  14.080
25293W        W97718   4.411  32.816  12.983
25294W        W97719   6.160  39.007   4.598
25295W        W97720   2.521  12.813  11.501
25296W        W97721   6.726  37.427   2.902
25297W        W97722  20.815  14.526  14.575
25298W        W97723  25.037  23.245  12.938
25299W        W97724  30.159  19.810  11.646
25300W        W97725  28.377   4.845  13.071
25301W        W97726   6.789  18.701   2.921
25302W        W97727  25.215  34.512  13.774
25303W        W97728  41.069  30.978  12.310
25304W        W97729   8.470  34.567   1.285
25305W        W97730  20.638   8.386  10.480
25306W        W97731  24.150   6.393  13.018
25307W        W97732  13.655  30.106  12.581
25308W        W97733  27.250  33.505   3.063
25309W        W97734  35.067  31.018   3.299
25310W        W97735  32.347   6.493   4.532
25311W        W97736  20.553  29.656  10.270
25312W        W97737   3.987  34.844   1.191
25313W        W97738   8.986   9.290  13.518
25314W        W97739  17.160  17.387   9.821
25315W        W97740  32.040  33.672  10.303
25316W        W97741   2.419  17.981  12.979
25317W        W97742   9.404   3.462  12.391
25318W        W97743  21.193   2.642   3.035
25319W        W97744  30.043   4.399  10.716
25320W        W97745  13.744  15.132  12.774
25321W        W97746  13.010   9.284   3.216
25322W        W97747  24.518  21.773   4.072
25323W        W97748  16.600  19.846   4.136
25324W        W97749  41.119  29.750  11.122
25325W        W97750   3.803  36.427  12.642
25326W        W97751  43.573  25.527   3.226
25327W        W97752  11.387  27.823  11.679
25328W        W97753  24.681  28.204  12.860
25329W        W97754  43.569  41.322   1.997
25330W        W97755  13.839  31.478  14.334
25331W        W97756  26.424  13.634   3.975
25332W        W97757   0.710  21.158  14.376
25333W        W97758  39.529  16.156  13.880
25334W        W97759  43.052  33.467   3.304
25335W        W97760  31.080  12.775  11.466
25336W        W97761  13.391   4.310  13.776
25337W        W97762   8.893  34.882  14.861
25338W        W97763  14.022  18.792  13.080
25339W        W97764  19.308  31.026   3.096
25340W        W97765   6.877  34.469  11.655
25341W        W97766  21.058  41.771   3.068
25342W        W97767  30.245  16.691   4.024
25343W        W97768  40.368  16.274  11.482
25344W        W97769  22.727  26.617  14.043
25345W        W97770  43.787  31.901  12.014
25346W        W97771   8.710  27.626   1.592
25347W        W97772   2.394  26.039  11.021
25348W        W97773  34.500  23.700   0.846
25349W        W97774  29.950  26.625  13.514
25350W        W97775  32.947  41.591   1.187
25351W        W97776  22.675  20.240  13.674
25352W        W97777  22.464  38.549  14.378
25353W        W97778   4.448   3.735  10.757
25354W        W97779  26.093  44.892  10.700
25355W        W97780  25.201  32.922   1.571
25356W        W97781  22.916  15.266   3.668
25357W        W97782  25.588  16.810   2.425
25358W        W97783  26.946  28.695  14.370
25359W        W97784  31.584   4.880  11.432
25360W        W97785   9.374  28.576  14.069
25361W        W97786   9.845  21.300   4.624
25362W        W97787  23.611  39.292  13.041
25363W        W97788  27.211  22.211   0.995
25364W        W97789  11.425  29.163   0.349
25365W        W97790  21.546   1.480  14.303
25366W        W97791  37.545  21.980  10.612
25367W        W97792  12.588  21.201   0.456
25368W        W97793  21.217   7.515   0.437
25369W        W97794  14.092  28.755  12.587
25370W        W97795   0.483   0.629   1.446
25371W        W97796  24.167   1.196   4.387
25372W        W97797  41.369  14.887   0.487
25373W        W97798   1.665  31.518   3.187
25374W        W97799   3.187  11.266   4.079
25375W        W97800  12.293  31.004  13.492
25376W        W97801  12.669  13.135  13.567
25377W        W97802  22.743   9.769  13.311
25378W        W97803  31.123  17.549  13.317
25379W        W97804  18.907  17.703  14.293
25380W        W97805  41.006  35.138  14.977
25381W        W97806  18.535  18.337   0.266
25382W        W97807  25.036   9.539  11.131
25383W        W97808   6.707  38.411  11.704
25384W        W97809   0.277   0.296  11.188
25385W        W97810  41.981  30.032   2.878
25386W        W97811  32.491  16.278  10.782
25387W        W97812  11.070  16.159   3.660
25388W        W97813   0.244  43.159   3.980
25389W        W97814   6.451  33.536  14.928
25390W        W97815  39.315  31.735   0.370
25391W        W97816  27.627  32.540  11.974
25392W        W97817  12.084  40.530  14.761
25393W        W97818  22.116  41.096   1.763
25394W        W97819  12.046   4.656  10.036
25395W        W97820  19.218   0.418   4.581
25396W        W97821  11.698  18.837  11.151
25397W        W97822  34.126  38.335  14.759
25398W        W97823  13.362  32.361   0.676
25399W        W97824  22.662   6.787  14.446
25400W        W97825  18.263   5.612  13.306
25401W        W97826  24.032  11.873  13.867
25402W        W97827  41.073  10.367  11.264
25403W        W97828  32.053  19.776   1.049
25404W        W97829  11.200  26.442  12.944
25405W        W97830  43.543  12.653   0.166
25406W        W97831   2.487  38.627   3.346
25407W        W97832  24.634  43.492  14.775
25408W        W97833  30.218   1.752   3.132
25409W        W97834  10.831  35.876   4.591
25410W        W97835  44.493   5.149  12.154
25411W        W97836  29.496  21.087   0.545
25412W        W97837  24.824   3.385   3.741
25413W        W97838  26.875  17.605  12.635
25414W        W97839   2.746  28.560  13.820
25415W        W97840  31.103  26.553  14.798
25416W        W97841  32.697  41.668  11.174
25417W        W97842  12.129  40.554   1.415
25418W        W97843  39.798  28.921   1.679
25419W        W97844  14.640   6.897  11.511
25420W        W97845  32.171   9.579  13.400
25421W        W97846  10.306   8.243   4.597
25422W        W97847  26.395  44.786  14.845
25423W        W97848  20.767  43.389   4.144
25424W        W97849   5.753   7.327  11.565
25425W        W97850  39.519   9.265  13.121
25426W        W97851  14.988  41.539  12.493
25427W        W97852   3.975  38.862   2.712
25428W        W97853  34.109  22.807  11.581
25429W        W97854  10.751  20.622  10.216
25430W        W97855  24.469  36.832   3.190
25431W        W97856  16.115  17.725  10.596
25432W        W97857  39.505  40.751  14.511
25433W        W97858  37.351   2.765  13.989
25434W        W97859  32.829   4.683  11.012
25435W        W97860  20.069  37.179   4.166
25436W        W97861   4.304  34.996   1.913
25437W        W97862  12.525   7.779   0.845
25438W        W97863  39.887  28.032  14.398
25439W        W97864   7.411   3.299  14.254
25440W        W97865  24.660  39.694   3.357
25441W        W97866  31.383  15.606   2.301
25442W        W97867  27.443  42.586   0.362
25443W        W97868  39.478   6.492   4.440
25444W        W97869  25.196  30.658   4.267
25445W        W97870  13.190   9.765   3.264
25446W        W97871  44.656   4.679  12.939
25447W        W97872  23.766  29.402  14.885
25448W        W97873  10.602  13.140  13.516
25449W        W97874  12.936  37.943   4.777
25450W        W97875  36.119  17.752   3.125
25451W        W97876  14.322  18.357   1.728
25452W        W97877  18.294  31.927   1.467
25453W        W97878  16.623  25.023   3.707
25454W        W97879  18.289  11.611  12.929
25455W        W97880  23.879  12.724   2.876
25456W        W97881  43.812  24.409   0.910
25457W        W97882  29.463  12.271   1.296
25458W        W97883  43.416  13.059  12.079
25459W        W97884  24.662  40.052  12.904
25460W        W97885  30.141  35.412  14.966
25461W        W97886   0.963  20.581  11.671
25462W        W97887   7.926   2.507   4.554
25463W        W97888   3.348  31.720   1.345
25464W        W97889  15.269  34.473  14.078
25465W        W97890  41.038  13.186   0.379
25466W        W97891  20.373  30.260  11.932
25467W        W97892   2.296   3.305   3.276
25468W        W97893  38.608   0.110  12.013
25469W        W97894  38.534  20.997   1.028
25470W        W97895  24.439  23.765   0.331
25471W        W97896  13.392  25.688  11.542
25472W        W97897  31.724  43.909  13.505
25473W        W97898  39.076  40.323  13.512
25474W        W97899  21.671  33.866   1.600
25475W        W97900  23.058   1.741   0.764
25476W        W97901   6.433  10.766  14.348
25477W        W97902  11.275  31.434   4.204
25478W        W97903  28.881  36.941   4.709
25479W        W97904  16.348  44.034  11.561
25480W        W97905  11.874  37.320   4.983
25481W        W97906  17.335  14.355   4.975
25482W        W97907  12.313  14.269  12.697
25483W        W97908  29.379  18.264  14.025
25484W        W97909  44.340  37.496   4.640
25485W        W97910  18.551   2.469  13.909
25486W        W97911  38.367  21.653  11.148
25487W        W97912  16.738  17.848  10.667
25488W        W97913   0.750  35.980  13.530
25489W        W97914  29.699  39.446   4.663
25490W        W97915  30.869  11.720  11.658
25491W        W97916   2.363  29.436  11.723
25492W        W97917   8.669  38.030   4.605
25493W        W97918  29.032  13.990  11.862
25494W        W97919  39.422   5.183   2.235
25495W        W97920  27.840  39.577  11.080
25496W        W97921   6.124   2.583  13.524
25497W        W97922   5.657  37.796  14.299
25498W        W97923  10.028  34.947   4.289
25499W        W97924  36.875  28.015   2.351
25500W        W97925   3.432   2.414  11.925
25501W        W97926  21.761  16.573   1.091
25502W        W97927  29.159   8.705   1.766
25503W        W97928  38.359  40.325  14.052
25504W        W97929  14.629  26.392  14.851
25505W        W97930   1.243  23.903  13.698
25506W        W97931  14.150   4.606   4.068
25507W        W97932  42.446  13.677   1.317
25508W        W97933  20.494  28.563   2.341
25509W        W97934   2.936   6.418  12.862
25510W        W97935  34.340  40.550   1.542
25511W        W97936  29.287  30.521   2.681
25512W        W97937  22.990   4.106   0.581
25513W        W97938  40.764   1.719   4.500
25514W        W97939  12.502  24.539  11.336
25515W        W97940  12.502  41.520  12.008
25516W        W97941  24.544   3.898   0.001
25517W        W97942  38.910   3.309  14.435
25518W        W97943  35.077  10.276  14.806
25519W        W97944  33.746  24.334  14.660
25520W        W97945  14.102  28.093  14.873
25521W        W97946  25.696  34.044  11.206
25522W        W97947  10.794   0.955  14.896
25523W        W97948  40.752  21.513   4.962
25524W        W97949  41.043  42.019   3.594
25525W        W97950  41.504   4.784   1.232
25526W        W97951  33.687   0.956   3.668
25527W        W97952  42.824  12.315   4.888
25528W        W97953  30.476   9.088   2.934
25529W        W97954   1.678  43.555   3.632
25530W        W97955  17.332  13.408   2.124
25531W        W97956  16.050  22.707  14.417
25532W        W97957  34.602  21.734   4.192
25533W        W97958   6.906   3.265  14.220
25534W        W97959   9.418  10.935   2.898
25535W        W97960  18.799   4.574  14.927
25536W        W97961  22.213  34.985   2.628
25537W        W97962  13.163  41.789   1.193
25538W        W97963  37.938  38.480  10.411
25539W        W97964  32.657   4.341   4.015
25540W        W97965  28.480  23.773  11.689
25541W        W97966  32.602   9.135  14.885
25542W        W97967  34.122  25.056   2.099
25543W        W97968  17.385  12.237  13.383
25544W        W97969  23.192   6.874  14.900
25545W        W97970   8.313   1.379   1.534
25546W        W97971  25.109   9.382  12.624
25547W        W97972  25.559  11.343  14.845
25548W        W97973  31.178   7.405  13.205
25549W        W97974  27.973  26.388  11.977
25550W        W97975  17.607   2.728  10.479
25551W        W97976  10.533  25.880   5.061
25552W        W97977  11.113  41.808  11.158
25553W        W97978  39.414  20.806  14.444
25554W        W97979  40.929   1.482  13.071
25555W        W97980  44.323  26.528   1.500
25556W        W97981   6.484  26.733   1.457
25557W        W97982  32.980  14.800  13.190
25558W        W97983   7.449  11.315  14.785
25559W        W97984  13.339   9.153   1.289
25560W        W97985  41.910  26.384  10.746
25561W        W97986   3.723  27.873  12.304
25562W        W97987   2.466  24.098   4.691
25563W        W97988  30.514  37.575  11.069
25564W        W97989   1.152  12.894   2.884
25565W        W97990  17.363  17.975   1.644
25566W        W97991  26.749   8.309   4.572
25567W        W97992   0.849  30.920  12.047
25568W        W97993  18.709  33.524   0.242
25569W        W97994  38.223  14.118   3.396
25570W        W97995  44.426   1.422  14.322
25571W        W97996   6.893  23.855  14.407
25572W        W97997  33.182  20.812  13.680
25573W        W97998  26.208  17.240   1.829
25574W        W97999  10.750  19.816  11.271
25575W        W98000  22.753   5.862   3.336
25576W        W98001  24.693   2.353  10.884
25577W        W98002  39.571  30.566  12.878
25578W        W98003   4.007  34.479  12.037
25579W        W98004   4.202  11.835   1.705
25580W        W98005  35.940  37.491  14.283
25581W        W98006  26.244  31.479  12.130
25582W        W98007  41.502  40.017   2.847
25583W        W98008  10.475  32.640  10.886
25584W        W98009   1.494  34.292   0.412
25585W        W98010  44.833  25.485  13.457
25586W        W98011  36.645  30.676  14.768
25587W        W98012  37.349  26.017  10.882
25588W        W98013  41.414  24.390  14.205
25589W        W98014  15.265  28.579  14.247
25590W        W98015  15.030   1.195  13.782
25591W        W98016  30.929  12.755   0.330
25592W        W98017  42.552  11.575   0.390
25593W        W98018  30.512  12.072   3.606
25594W        W98019  38.603  37.393   0.874
25595W        W98020  20.128  19.365   3.690
25596W        W98021   8.315   2.309   3.850
25597W        W98022   9.374  17.345  10.520
25598W        W98023   7.128   9.208  13.989
25599W        W98024  37.777  23.261  10.573
25600W        W98025   2.972  14.072  10.506
25601W        W98026  12.670  24.115   5.079
25602W        W98027  34.034   6.220   3.638
25603W        W98028  25.558  12.781   0.537
25604W        W98029  44.590   7.700   3.550
25605W        W98030  27.679  44.320  12.586
25606W        W98031  18.794  21.946  12.925
25607W        W98032  12.315  21.665   3.181
25608W        W98033  33.542   8.749   3.219
25609W        W98034  11.187  19.899  10.432
25610W        W98035  11.116  27.251   0.313
25611W        W98036  39.848   8.142   1.644
25612W        W98037  32.174  41.235   4.131
25613W        W98038  14.310  12.669  10.253
25614W        W98039  21.404  18.105  12.561
25615W        W98040  34.091  35.781  11.492
25616W        W98041  41.504  10.198  10.376
25617W        W98042  23.243  38.544  11.965
25618W        W98043   0.734  33.127  14.907
25619W        W98044  41.766  35.036  13.397
25620W        W98045   8.449  26.926   2.459
25621W        W98046  40.700   6.787  11.627
25622W        W98047  22.097  15.160  12.915
25623W        W98048  27.891  33.058  14.285
25624W        W98049  42.577  44.410  11.855
25625W        W98050  40.781  19.052  14.732
25626W        W98051  12.598  14.853   4.306
25627W        W98052  19.291  27.151  11.162
25628W        W98053  13.484   5.162   0.810
25629W        W98054  40.102  39.891   2.801
25630W        W98055  29.149   9.324  14.230
25631W        W98056  10.689  35.091  13.361
25632W        W98057  17.493  39.980   3.274
25633W        W98058  43.309  12.871   0.667
25634W        W98059  27.229   7.252  12.984
25635W        W98060  28.748  31.384  10.227
25636W        W98061  32.653  36.810  12.980
25637W        W98062   9.915   2.517  10.734
25638W        W98063  37.599  35.896   0.882
25639W        W98064  19.260  22.494   0.875
25640W        W98065  15.088  39.558  11.056
25641W        W98066  14.795  13.897  10.615
25642W        W98067  25.059   0.331   4.160
25643W        W98068  39.848   5.337  12.916
25644W        W98069  24.110   0.510  11.889
25645W        W98070  20.036   5.156  12.467
25646W        W98071  13.196  37.143  11.999
25647W        W98072  28.628   5.810   4.408
25648W        W98073   3.683  33.267  12.003
25649W        W98074   4.570  15.080  11.993
25650W        W98075  11.141  10.396  14.931
25651W        W98076  34.922  29.731  13.255
25652W        W98077  12.336   6.271  14.425
25653W        W98078  37.951  11.119  12.885
25654W        W98079  36.520  44.331  10.958
25655W        W98080  39.628  18.459  10.711
25656W        W98081  24.599  32.079  12.123
25657W        W98082  13.733   1.360  10.703
25658W        W98083   1.501  33.399  11.469
25659W        W98084  11.892  34.435   3.260
25660W        W98085  19.073  26.047  14.348
25661W        W98086  41.577  21.119  12.863
25662W        W98087  20.817  42.795   3.347
25663W        W98088  17.218   1.893   2.731
25664W        W98089   3.417  21.670   2.221
25665W        W98090  35.937  40.229  11.014
25666W        W98091  24.054  22.980  12.333
25667W        W98092   1.911  28.093  14.890
25668W        W98093  34.047  41.554   4.245
25669W        W98094  41.966  39.880   1.859
25670W        W98095   6.446  38.865  11.438
25671W        W98096  41.850  22.625  14.998
25672W        W98097   0.973   0.387   1.426
25673W        W98098  29.009  22.119   0.387
25674W        W98099  17.231  31.398  11.382
25675W        W98100  39.869  40.428   3.902
25676W        W98101   0.842   1.420   1.206
25677W        W98102  41.149  28.414  14.992
25678W        W98103  15.487  37.211   2.424
25679W        W98104  42.899  40.933   4.049
25680W        W98105   5.443  23.522  14.302
25681W        W98106  16.224  15.338  13.511
25682W        W98107  36.559  39.563   3.851
25683W        W98108  36.308   4.468   2.039
25684W        W98109  23.481  16.153   1.236
25685W        W98110  13.607  13.972   4.141
25686W        W98111  40.570   0.966   5.009
25687W        W98112  37.729  14.031   3.370
25688W        W98113  34.446  14.459   3.137
25689W        W98114  17.057  39.504  12.104
25690W        W98115   4.191  42.603  11.235
25691W        W98116   8.491  12.803   2.146
25692W        W98117  40.240  36.467  13.970
25693W        W98118  29.048  41.968  11.601
25694W        W98119  11.932  41.961  12.594
25695W        W98120  10.273  26.606   3.882
25696W        W98121   7.371   9.957  11.549
25697W        W98122  30.367  13.557   3.275
25698W        W98123   2.480  44.311   4.554
25699W        W98124  17.837  40.801  12.625
25700W        W98125   0.169   3.978   2.175
25701W        W98126   8.603  27.227   0.254
25702W        W98127  20.249  11.701  13.014
25703W        W98128  24.478  21.066  12.613
25704W        W98129  19.307  35.055   2.896
25705W        W98130  19.993  33.856   3.197
25706W        W98131  13.023  24.764  14.760
25707W        W98132  13.359  41.525   0.811
25708W        W98133  12.191  24.096   3.691
25709W        W98134  18.539  21.440  13.701
25710W        W98135  19.936  31.840  11.483
25711W        W98136  24.949  15.160   3.225
25712W        W98137  44.773  21.109   3.874
25713W        W98138   4.402  11.376   1.487
25714W        W98139  43.660  11.697   4.823
25715W        W98140  38.614   5.272   3.270
25716W        W98141  15.523  21.323  12.429
25717W        W98142  10.929  38.584   3.881
25718W        W98143  34.883  38.913   1.954
25719W        W98144  23.671   0.653  12.122
25720W        W98145  43.800  39.131   3.340
25721W        W98146  44.946   2.436  14.730
25722W        W98147  37.353  33.129  14.494
25723W        W98148   5.367  37.779  13.430
25724W        W98149  34.012   9.362  14.926
25725W        W98150  15.776   2.315   0.903
25726W        W98151  13.176  13.915  11.211
25727W        W98152  34.104  12.355   4.072
25728W        W98153  39.356  37.490   4.528
25729W        W98154  29.460  20.677  12.001
25730W        W98155  35.707  13.208  10.621
25731W        W98156   7.168  43.945   1.927
25732W        W98157  40.921  44.539  12.151
25733W        W98158  41.405  39.014   4.563
25734W        W98159   2.763   4.230   0.264
25735W        W98160  19.133   2.292   5.002
25736W        W98161   0.422  19.660  10.624
25737W        W98162  15.735   2.893  10.674
25738W        W98163  29.511  39.481  13.603
25739W        W98164  34.881  43.253   1.509
25740W        W98165   8.379  21.023   5.145
25741W        W98166  17.396  11.591   5.094
25742W        W98167   5.728  22.647   0.167
25743W        W98168  12.308  35.123  14.131
25744W        W98169  15.057   4.013  13.886
25745W        W98170  41.938  20.086  11.036
25746W        W98171  25.688  35.405   0.721
25747W        W98172  23.634  35.600  11.135
25748W        W98173  25.635  42.283   4.560
25749W        W98174  44.067   3.262   3.831
25750W        W98175  22.982  39.547   3.905
25751W        W98176  32.598  11.619   3.053
25752W        W98177  40.068  41.896   0.717
25753W        W98178  22.631   7.366   1.225
25754W        W98179  25.984   9.648   3.126
25755W        W98180   6.966  22.221  13.949
25756W        W98181  25.124  32.672  13.448
25757W        W98182  17.967  35.429   3.380
25758W        W98183   5.042  32.000   0.323
25759W        W98184  26.696  40.499  13.359
25760W        W98185  11.176  34.784   3.315
25761W        W98186  27.900  27.675  10.521
25762W        W98187  40.683   6.322   4.107
25763W        W98188  40.734  22.955   2.258
25764W        W98189  38.322  14.223  11.682
25765W        W98190  38.968  22.563   3.655
25766W        W98191  38.997  41.632   4.740
25767W        W98192  36.324  21.611  14.963
25768W        W98193  13.286   3.881   3.001
25769W        W98194  34.591   5.589   0.383
25770W        W98195  27.320  41.089  12.250
25771W        W98196  28.131  19.803  12.866
25772W        W98197  18.972  24.413  14.062
25773W        W98198  30.112  17.995   0.828
25774W        W98199  10.863  31.431   1.871
25775W        W98200  42.463  29.234  10.420
25776W        W98201  32.566  14.254   2.219
25777W        W98202  32.385  36.938   0.537
25778W        W98203  34.614   3.407  13.778
25779W        W98204  41.258  25.829  14.282
25780W        W98205  30.610  10.672  12.493
25781W        W98206  18.927  41.722   2.786
25782W        W98207  26.313  31.964   4.075
25783W        W98208   1.999  36.275   3.340
25784W        W98209  20.296   6.735   1.136
25785W        W98210  25.527   8.442   9.678
25786W        W98211  34.076  35.472   2.678
25787W        W98212   8.094  41.361   9.769
25788W        W98213  21.138  44.271  10.562
25789W        W98214  12.612  15.545   1.153
25790W        W98215   0.061   2.336  12.450
25791W        W98216  43.921  11.917  10.946
25792W        W98217  26.081  28.496   0.514
25793W        W98218  18.133  32.843  12.106
25794W        W98219   8.726  13.377  10.881
25795W        W98220   4.078   4.929   3.714
25796W        W98221  28.432  19.831   3.310
25797W        W98222  31.966  38.909  14.098
25798W        W98223   6.616  42.958   0.348
25799W        W98224  18.223   7.210   1.403
25800W        W98225  21.660  36.089  14.386
25801W        W98226   9.939  42.840   4.654
25802W        W98227  25.264   4.820   0.907
25803W        W98228  28.433  34.399   1.405
25804W        W98229   1.293  26.350   0.738
25805W        W98230  43.166  37.243  14.535
25806W        W98231  19.526   8.433  11.991
25807W        W98232  21.702  18.283   0.290
25808W        W98233  19.752  40.647  13.137
25809W        W98234  19.287  41.375  11.213
25810W        W98235  15.480   2.421   2.829
25811W        W98236  37.814  15.716   4.883
25812W        W98237  33.810   9.736   1.652
25813W        W98238  14.251  18.510  12.173
25814W        W98239  40.781  18.335   0.401
25815W        W98240  32.154  25.304  14.805
25816W        W98241  17.255  13.989   4.598
25817W        W98242  22.184  44.457   1.673
25818W        W98243  43.424  39.468   4.597
25819W        W98244  19.648  30.574  14.086
25820W        W98245  41.047  22.569   2.708
25821W        W98246  10.132  28.191   5.032
25822W        W98247  16.203  13.858   0.343
25823W        W98248  36.996  34.247  12.261
25824W        W98249  32.764  42.518  11.561
25825W        W98250  18.036  43.193  10.685
25826W        W98251  34.197  28.475  13.529
25827W        W98252  38.487  17.634   4.884
25828W        W98253  32.654  27.459  14.376
25829W        W98254   5.324   1.390  14.117
25830W        W98255  15.097  34.961  11.915
25831W        W98256  10.187  12.998   4.649
25832W        W98257  16.035  39.730   3.866
25833W        W98258   5.414  11.807  13.533
25834W        W98259  33.794   5.937  12.032
25835W        W98260  24.633  24.705   2.763
25836W        W98261  22.140  18.656   3.317
25837W        W98262  43.208  40.472   4.097
25838W        W98263  40.852   6.369  11.020
25839W        W98264  27.820  30.434  14.912
25840W        W98265  40.776  41.190  13.331
25841W        W98266   9.188  15.084   1.871
25842W        W98267  12.282  35.134   3.341
25843W        W98268  33.236  39.428   2.887
25844W        W98269  12.112  14.260  13.564
25845W        W98270  15.779  38.004  11.928
25846W        W98271  10.736  33.593   0.833
25847W        W98272  42.079   8.811   5.094
25848W        W98273  21.144  13.131  12.912
25849W        W98274   0.281   0.990  11.463
25850W        W98275  34.903  37.370   1.348
25851W        W98276  21.257   6.441  10.635
25852W        W98277  32.515  14.773   1.476
25853W        W98278  19.129  11.335   2.191
25854W        W98279  15.632  40.011  11.545
25855W        W98280  40.531  10.340  11.175
25856W        W98281  32.497  42.123   0.395
25857W        W98282  18.266   1.806   5.717
25858W        W98283   7.547  14.059  11.573
25859W        W98284   1.230  26.680   4.933
25860W        W98285   9.292  19.504   3.344
25861W        W98286  13.292   2.408   0.303
25862W        W98287   2.498  29.031  13.924
25863W        W98288  26.405  34.391  11.089
25864W        W98289   1.831   1.445  12.471
25865W        W98290  37.407  27.552   2.432
25866W        W98291  28.853  35.391  12.098
25867W        W98292  22.011   6.907  12.393
25868W        W98293  36.331  39.881   1.757
25869W        W98294   0.448   8.460   1.938
25870W        W98295  33.920  42.796   4.586
25871W        W98296  17.496   5.006  14.362
25872W        W98297  12.377   9.461   2.607
25873W        W98298   4.342   7.054   4.980
25874W        W98299   3.790  21.042   3.393
25875W        W98300  36.553   3.649   2.264
25876W        W98301  40.455  30.413   9.852
25877W        W98302  36.659  27.245  14.935
25878W        W98303  21.101   0.709   3.199
25879W        W98304  18.641  10.683  13.943
25880W        W98305  17.155  13.862  14.309
25881W        W98306  41.738  14.912  12.953
25882W        W98307   5.852  22.185  11.575
25883W        W98308  24.177  21.099   4.134
25884W        W98309  29.721   5.006   4.394
25885W        W98310  17.247  12.973   3.544
25886W        W98311  12.296   4.716   3.926
25887W        W98312   2.336   5.249  12.707
25888W        W98313  13.062   9.153   0.861
25889W        W98314  14.130   9.800   4.594
25890W        W98315  13.131  20.264   3.038
25891W        W98316  11.314   6.270   4.360
25892W        W98317  38.969   7.366   0.223
25893W        W98318  32.086  37.519  12.098
25894W        W98319  20.077  16.999   4.527
25895W        W98320  36.172  34.149  10.952
25896W        W98321  41.934  38.038   0.734
25897W        W98322  18.294  22.714   3.717
25898W        W98323  36.061  37.344   0.829
25899W        W98324  40.952  21.851  14.273
25900W        W98325  21.967  42.773   2.207
25901W        W98326   2.809  20.809  10.833
25902W        W98327  39.058  28.673   1.136
25903W        W98328  21.047   6.808   2.412
25904W        W98329   9.546   4.065  12.945
25905W        W98330  24.858  10.317   9.794
25906W        W98331  42.249  15.014  10.789
25907W        W98332   8.495  14.845  13.568
25908W        W98333  24.932  44.956   3.122
25909W        W98334   8.181  21.757   4.480
25910W        W98335  33.858  26.429   2.702
25911W        W98336  29.078  14.141  13.348
25912W        W98337  28.596  40.490  14.667
25913W        W98338  33.063   7.196  10.915
25914W        W98339   1.752  35.862   2.239
25915W        W98340   1.681  39.768  12.964
25916W        W98341  14.675  14.595   1.432
25917W        W98342  20.541  22.714  14.043
25918W        W98343  22.709  42.368   2.209
25919W        W98344  16.335  26.965  11.585
25920W        W98345  15.153  19.217   4.853
25921W        W98346  29.387  22.661   1.309
25922W        W98347  10.759  44.276   1.807
25923W        W98348   3.862   0.752  11.396
25924W        W98349  44.162  31.711   1.247
25925W        W98350  27.161  29.651   1.296
25926W        W98351   3.378   1.554   0.749
25927W        W98352   1.886  22.175   0.287
25928W        W98353  23.531  28.519  10.686
25929W        W98354  12.850   3.352   1.369
25930W        W98355  20.732  14.647  13.767
25931W        W98356  36.949  37.204   3.368
25932W        W98357  15.116  35.971   2.230
25933W        W98358  13.968  13.272   2.844
25934W        W98359  11.028  38.584  14.378
25935W        W98360   9.697  13.453  13.501
25936W        W98361  29.995  28.163   4.820
25937W        W98362  13.993  27.945   4.617
25938W        W98363  35.515  19.077   1.081
25939W        W98364  31.863  21.012  12.032
25940W        W98365  13.259  43.467   3.063
25941W        W98366  14.790  26.406   2.741
25942W        W98367  22.660   8.462  12.544
25943W        W98368  30.058   7.840  14.899
25944W        W98369  16.002  23.101   2.800
25945W        W98370  38.885  29.592  12.090
25946W        W98371  13.296  14.238  12.532
25947W        W98372  34.322   7.818  13.404
25948W        W98373  41.504  33.229   2.745
25949W        W98374  34.798  12.645  13.075
25950W        W98375   9.838   5.451  12.830
25951W        W98376  41.316  20.260   1.898
25952W        W98377  29.176  33.348   5.015
25953W        W98378  37.863  18.026  14.959
25954W        W98379  39.299   8.529  14.998
25955W        W98380  19.780  30.176   2.814
25956W        W98381   8.401  37.299  14.779
25957W        W98382  28.867  23.046  13.100
25958W        W98383  35.502  13.038   1.824
25959W        W98384  37.304   4.148  12.074
25960W        W98385  17.200   3.207   4.495
25961W        W98386   1.471  19.188   2.453
25962W        W98387  30.733  35.102   1.165
25963W        W98388  22.698   4.332  10.677
25964W        W98389  12.724  27.641  12.963
25965W        W98390  16.714   8.704   2.700
25966W        W98391  19.828   8.770  12.935
25967W        W98392  41.289  33.386   2.255
25968W        W98393  32.651   0.767  13.972
25969W        W98394  14.312  13.048  13.046
25970W        W98395  39.472   3.837  11.074
25971W        W98396  44.187   3.993  12.563
25972W        W98397  24.067  26.502   0.868
25973W        W98398  16.876  18.003   2.505
25974W        W98399   9.632  34.585  14.506
25975W        W98400  25.571   9.327  10.679
25976W        W98401  32.301  32.547  12.805
25977W        W98402  39.463  24.403   4.008
25978W        W98403  13.442  15.611   4.582
25979W        W98404  22.240  18.113   2.707
25980W        W98405  19.814  27.994   5.370
25981W        W98406  26.112  44.087   2.494
25982W        W98407  40.979  11.851  10.412
25983W        W98408   2.812  35.834  14.426
25984W        W98409   5.689   1.378   4.585
25985W        W98410  11.200  13.515  14.583
25986W        W98411  37.475  18.353  11.524
25987W        W98412  21.979  27.491  10.691
25988W        W98413  40.888  29.584  13.399
25989W        W98414   4.551  20.953  11.154
25990W        W98415  41.537   2.839  11.608
25991W        W98416  14.420  34.437   2.649
25992W        W98417  35.570  14.270   0.975
25993W        W98418  42.562  43.425   1.880
25994W        W98419   5.724  12.295   1.746
25995W        W98420   4.053  36.352   3.856
25996W        W98421  15.926  30.716   9.919
25997W        W98422  22.587   8.992   4.781
25998W        W98423  25.025   0.046   2.181
25999W        W98424  38.942  43.014  10.254
26000W        W98425  39.451  44.449  11.207
26001W        W98426  38.440   9.863   3.836
26002W        W98427  19.998  11.147  11.681
26003W        W98428  34.008  30.709  14.068
26004W        W98429   0.083  17.103  13.403
26005W        W98430  44.806  26.120   4.438
26006W        W98431   2.150   8.182  13.510
26007W        W98432  22.467  23.419   2.325
26008W        W98433   8.751   0.621  14.440
26009W        W98434  11.618  24.802   3.289
26010W        W98435  28.216  17.296  12.058
26011W        W98436  25.404  21.858  11.042
26012W        W98437  12.807  23.538  12.664
26013W        W98438  12.922   9.232  14.616
26014W        W98439  17.761  21.791  12.097
26015W        W98440  17.762   5.798  13.875
26016W        W98441  15.177  15.761   0.052
26017W        W98442  40.551   6.215  14.798
26018W        W98443  43.509  29.003  14.314
26019W        W98444  10.326  34.885   3.877
26020W        W98445  13.210  43.557   0.905
26021W        W98446  23.313  26.581   1.656
26022W        W98447  24.456  43.580  13.083
26023W        W98448  11.255   9.604  10.523
26024W        W98449   0.513  37.664  13.289
26025W        W98450   9.763  41.976   0.290
26026W        W98451   2.036  15.241   0.789
26027W        W98452   8.886  44.857   3.259
26028W        W98453   4.990   1.104   1.492
26029W        W98454  16.974  40.752  13.411
26030W        W98455  30.943   2.489  13.292
26031W        W98456  37.844   1.459  11.167
26032W        W98457   1.693  29.943   3.695
26033W        W98458  12.193  20.527   4.096
26034W        W98459  29.573  28.049   0.744
26035W        W98460  37.502  26.911   1.239
26036W        W98461  24.465   7.363  14.810
26037W        W98462   1.324  16.777   4.266
26038W        W98463  39.488  11.085   4.050
26039W        W98464  20.249  14.260   4.567
26040W        W98465  24.189   8.664   0.878
26041W        W98466  36.899   9.176  14.843
26042W        W98467  25.584   3.510  12.478
26043W        W98468  30.245   9.736   4.600
26044W        W98469  31.750  33.559   3.122
26045W        W98470  17.681   4.394  14.495
26046W        W98471  35.895  18.940  14.220
26047W        W98472  30.724  20.716   4.669
26048W        W98473  28.622  19.587   1.458
26049W        W98474  36.855  20.746   1.416
26050W        W98475  44.452  22.330  13.076
26051W        W98476  40.735  35.121   3.296
26052W        W98477  41.772   0.536  12.047
26053W        W98478   7.674  27.669   3.244
26054W        W98479  25.973  22.703  12.120
26055W        W98480  18.216  41.444   1.931
26056W        W98481  42.469   8.231   2.378
26057W        W98482   7.141  11.207  11.119
26058W        W98483  34.928   1.686  10.547
26059W        W98484   7.912  44.755   3.556
26060W        W98485  16.325  20.089  11.955
26061W        W98486  16.761  29.909   4.209
26062W        W98487  16.687  30.148   9.264
26063W        W98488   1.380  11.528  14.922
26064W        W98489   5.890  29.984   3.260
26065W        W98490  42.562  39.958  10.500
26066W        W98491  14.587  43.551  13.532
26067W        W98492  20.991   5.219   3.270
26068W        W98493  19.198  26.861  14.968
26069W        W98494  31.740  38.770   3.245
26070W        W98495  42.066  11.136   0.943
26071W        W98496   3.559  28.071   3.676
26072W        W98497   0.753  38.245  10.665
26073W        W98498  31.910  42.193   1.415
26074W        W98499   1.992   1.327   2.705
26075W        W98500  12.659  33.074  13.034
26076W        W98501  28.582  20.003   0.063
26077W        W98502   9.706  10.082   0.654
26078W        W98503  14.388  19.545   1.020
26079W        W98504  28.156  39.588   4.203
26080W        W98505  26.450   8.369  14.015
26081W        W98506  10.849  33.686  13.566
26082W        W98507  10.814  36.956  13.213
26083W        W98508  29.897   0.943   2.655
26084W        W98509  27.711  22.604   3.257
26085W        W98510  36.006  23.169  11.854
26086W        W98511  18.992  44.128  10.969
26087W        W98512  10.565  41.791  13.851
26088W        W98513  11.637  26.135  10.613
26089W        W98514  37.477  17.539   2.838
26090W        W98515  16.525  23.201   1.784
26091W        W98516  36.521  30.402  11.356
26092W        W98517  25.071  19.792   2.285
26093W        W98518  27.355  30.979   4.061
26094W        W98519   3.639  27.604   2.389
26095W        W98520  34.741  24.283  11.583
26096W        W98521   1.081  36.046   3.481
26097W        W98522  40.974   9.238   0.452
26098W        W98523  44.271  18.858   2.628
26099W        W98524  11.853  42.990  14.996
26100W        W98525   0.305  36.002   0.545
26101W        W98526  31.035  43.568   3.089
26102W        W98527  13.371   4.744  11.874
26103W        W98528  23.108  32.129   2.693
26104W        W98529  37.506   7.230   1.504
26105W        W98530  27.605   5.350  10.305
26106W        W98531  24.737  10.323   0.579
26107W        W98532  40.419   1.246   3.798
26108W        W98533  31.049  37.879   4.686
26109W        W98534   9.828   3.316   4.077
26110W        W98535  21.470  35.792  14.995
26111W        W98536   7.333  34.516   0.829
26112W        W98537  12.605  27.915   4.209
26113W        W98538  31.252  18.543   9.845
26114W        W98539   7.339   4.464  14.076
26115W        W98540  11.160   2.886   4.547
26116W        W98541  20.046  28.092  14.525
26117W        W98542  13.211  22.043   5.132
26118W        W98543  31.842  43.978  11.969
26119W        W98544  30.453   8.399  10.530
26120W        W98545  10.029  24.727   0.477
26121W        W98546  25.995  28.531   0.004
26122W        W98547  32.198   0.438  10.712
26123W        W98548  25.190  25.676  13.304
26124W        W98549  35.173  15.568   2.212
26125W        W98550   6.325   5.746   0.061
26126W        W98551  29.840  15.791  13.261
26127W        W98552   9.712  15.660   3.204
26128W        W98553   1.437  24.085  14.137
26129W        W98554  31.664  17.614   3.213
26130W        W98555  14.813  44.981   1.971
26131W        W98556   5.199  27.143  12.514
26132W        W98557  44.295   1.532   5.106
26133W        W98558  13.067   7.805   1.964
26134W        W98559   1.717   7.801  13.931
26135W        W98560  18.073   2.765  14.914
26136W        W98561   8.832   8.151   2.801
26137W        W98562   2.269  26.220   4.172
26138W        W98563  20.726  26.389   4.196
26139W        W98564  32.828  43.424  11.065
26140W        W98565  22.102  19.824   4.156
26141W        W98566  27.634  25.280  10.766
26142W        W98567  28.082  16.112   4.282
26143W        W98568  29.114  12.086   1.988
26144W        W98569  25.662  36.533   3.068
26145W        W98570  12.122  30.762   3.057
26146W        W98571  32.174   9.856   0.793
26147W        W98572  44.870  28.898  12.399
26148W        W98573  39.415  44.812  14.395
26149W        W98574   0.407   2.351   4.691
26150W        W98575  28.550  17.190  12.765
26151W        W98576  26.238  13.096  12.410
26152W        W98577   6.500  14.380  12.965
26153W        W98578  26.416  25.310  13.888
26154W        W98579  33.101   0.244  13.096
26155W        W98580  13.131  18.787   3.323
26156W        W98581  21.193  31.937  10.143
26157W        W98582  40.305  34.867  13.457
26158W        W98583  38.869  38.974   1.816
26159W        W98584   5.793  27.987   3.798
26160W        W98585  29.471  19.718   0.322
26161W        W98586  16.370   5.346  14.945
26162W        W98587  20.218   8.972  12.280
26163W        W98588   1.582   3.938  11.683
26164W        W98589  17.709  28.647   3.546
26165W        W98590  43.782   5.832   1.931
26166W        W98591  32.392   9.901   4.970
26167W        W98592  35.249  34.833  13.582
26168W        W98593  36.775  44.707   2.342
26169W        W98594   4.411  20.069   2.237
26170W        W98595  31.478  18.790   4.343
26171W        W98596  31.052  29.533   1.849
26172W        W98597   3.401  29.121   4.543
26173W        W98598  21.725  10.638   4.556
26174W        W98599   7.594  42.338  14.984
26175W        W98600  10.788   1.321   1.224
26176W        W98601   2.245  23.619   4.663
26177W        W98602   3.081  35.013  14.786
26178W        W98603  21.558  19.163   1.248
26179W        W98604  36.380   8.390  12.509
26180W        W98605  17.487  21.020   2.695
26181W        W98606  36.441  15.169  13.174
26182W        W98607   8.048  16.108  14.106
26183W        W98608   6.732  26.005   4.424
26184W        W98609  31.999  12.619  13.317
26185W        W98610  24.476  21.181   4.537
26186W        W98611  31.208  39.564  13.973
26187W        W98612  27.116   4.474   1.815
26188W        W98613  26.418   6.959  13.876
26189W        W98614  21.057  12.270   1.778
26190W        W98615  12.478  23.043   2.672
26191W        W98616  16.356  29.434  13.520
26192W        W98617  24.433  14.785   1.699
26193W        W98618  34.192  30.927  12.511
26194W        W98619  19.004  19.625  10.824
26195W        W98620  25.240  22.524   3.178
26196W        W98621  34.851   6.373   1.855
26197W        W98622   6.913  43.062  14.928
26198W        W98623  27.130  17.164   1.249
26199W        W98624  44.287  42.594   0.341
26200W        W98625  24.712   9.705   2.775
26201W        W98626  25.730  31.513   0.458
26202W        W98627   3.238  16.717  11.925
26203W        W98628   0.004   7.291   0.857
26204W        W98629  27.575  14.647  14.445
26205W        W98630  17.673  18.153   4.733
26206W        W98631  25.733  14.394  11.728
26207W        W98632   4.539  37.553  13.088
26208W        W98633  15.646  23.044  14.679
26209W        W98634  24.893  39.088   0.825
26210W        W98635  18.795  17.265  12.625
26211W        W98636  37.764   1.744  13.064
26212W        W98637  14.296  36.301   3.263
26213W        W98638  13.839  32.977  11.157
26214W        W98639   3.218  39.838  14.347
26215W        W98640  10.892  43.006  14.041
26216W        W98641   6.291  22.610   1.876
26217W        W98642   0.946  40.275   3.308
26218W        W98643  39.789  21.738  12.996
26219W        W98644  11.414  40.099  11.737
26220W        W98645  43.626   0.064   4.159
26221W        W98646  37.286  40.002   1.711
26222W        W98647   7.426  16.562   2.782
26223W        W98648  21.977  23.017  12.251
26224W        W98649  37.115  19.202   1.783
26225W        W98650  44.051  35.877  14.973
26226W        W98651  36.605  13.103  11.968
26227W        W98652  38.082  43.739  12.990
26228W        W98653  11.587  28.063   4.046
26229W        W98654  34.803  26.953  11.957
26230W        W98655  15.661  30.980  14.804
26231W        W98656  12.927   7.207  10.520
26232W        W98657  18.407  10.350   3.823
26233W        W98658  25.752  26.625   4.115
26234W        W98659  22.743  34.516   1.856
26235W        W98660   3.302  41.437   0.231
26236W        W98661  40.433  13.114   1.401
26237W        W98662   8.596  14.889   0.596
26238W        W98663  34.386  25.443   3.284
26239W        W98664  41.489  21.428  14.809
26240W        W98665  43.751  42.472  12.599
26241W        W98666   3.361  26.972   1.846
26242W        W98667  21.146  27.913   2.174
26243W        W98668  24.894  15.237  13.337
26244W        W98669  38.282  12.144   4.252
26245W        W98670   9.634  41.976   1.407
26246W        W98671   0.288  14.735   2.839
26247W        W98672  43.775  30.823  10.805
26248W        W98673  12.452  44.256   4.452
26249W        W98674  40.050  42.364  13.552
26250W        W98675   1.998  14.877   3.173
26251W        W98676   9.923  24.430   0.938
26252W        W98677  36.852  30.363   0.871
26253W        W98678  41.056  26.136  13.130
26254W        W98679  15.505  14.535  13.389
26255W        W98680  24.336  15.821   1.237
26256W        W98681  43.356  43.949   4.420
26257W        W98682  18.732  24.450   2.162
26258W        W98683  28.048   7.687   1.471
26259W        W98684  22.671  39.765  14.861
26260W        W98685  22.756   5.865   0.718
26261W        W98686  42.428  21.298   2.024
26262W        W98687  33.013  17.777   1.885
26263W        W98688  15.652  21.108   4.313
26264W        W98689  29.000   3.200  11.556
26265W        W98690  12.706   7.908   3.688
26266W        W98691  34.010  44.537  14.074
26267W        W98692  43.285  37.515   3.689
26268W        W98693  17.367   1.337   3.596
26269W        W98694   3.610  38.863  13.012
26270W        W98695   8.111  35.942  12.520
26271W        W98696  43.942  22.083  12.581
26272W        W98697  11.598  43.534   2.317
26273W        W98698   0.499  29.664  12.884
26274W        W98699  40.588  22.660   0.480
26275W        W98700  24.713   1.186   3.092
26276W        W98701   7.650  14.286   4.707
26277W        W98702  39.423  11.955   0.885
26278W        W98703  10.939  44.853  13.282
26279W        W98704  44.818  29.693   0.797
26280W        W98705   6.467   8.287  14.951
26281W        W98706  38.400   5.824  10.644
26282W        W98707   5.898  36.987  13.514
26283W        W98708  30.027  21.324  13.010
26284W        W98709   0.850   6.266  12.357
26285W        W98710  42.491  42.804   3.374
26286W        W98711   2.641  30.305  13.336
26287W        W98712  30.937  11.608   4.066
26288W        W98713  38.947  10.536  10.098
26289W        W98714  21.480  40.636  14.916
26290W        W98715  15.059   2.644  10.837
26291W        W98716  37.735  32.082   4.482
26292W        W98717  11.480   1.877   1.252
26293W        W98718   7.475  43.798   1.526
26294W        W98719  12.772  21.239  14.940
26295W        W98720  32.025  34.584   3.168
26296W        W98721  28.489  35.552   1.645
26297W        W98722   3.814  11.329  13.004
26298W        W98723   5.259  27.425   4.829
26299W        W98724   4.449  32.998  11.631
26300W        W98725  10.926  34.926   1.918
26301W        W98726  39.094   0.857   0.869
26302W        W98727  36.584  12.181  10.512
26303W        W98728   7.175  24.309   3.713
26304W        W98729   8.308  33.940   3.989
26305W        W98730   7.567  29.258   0.853
26306W        W98731  33.516  33.083  11.183
26307W        W98732   2.441  18.786  12.547
26308W        W98733  32.847  40.587  11.991
26309W        W98734  22.675   4.891   4.524
26310W        W98735  26.476  16.104  14.862
26311W        W98736  28.173  33.362   5.010
26312W        W98737   8.434  20.119  11.100
26313W        W98738  41.337   1.506  13.373
26314W        W98739   0.855  11.413  14.847
26315W        W98740  32.883  25.557   0.722
26316W        W98741   1.963  38.107   3.703
26317W        W98742  16.723  28.863   3.195
26318W        W98743  43.034   7.160  11.642
26319W        W98744  22.642  34.907   3.865
26320W        W98745  43.853  13.612   4.850
26321W        W98746  19.972   9.387   0.229
26322W        W98747  10.712  30.695  10.444
26323W        W98748  39.606  18.023  11.522
26324W        W98749   3.911  44.773  14.961
26325W        W98750  26.077  18.672   1.202
26326W        W98751   5.820  16.324  11.120
26327W        W98752   4.480   9.452   2.659
26328W        W98753   6.211   8.241   3.182
26329W        W98754  18.254  34.038  10.902
26330W        W98755  34.025   7.299  14.708
26331W        W98756  33.132  26.666  14.025
26332W        W98757  41.958  11.150  13.876
26333W        W98758  24.800   5.170   2.683
26334W        W98759  21.881  19.052   0.217
26335W        W98760  24.151  14.543   4.300
26336W        W98761  15.677  28.545   2.357
26337W        W98762  16.852  27.489  11.235
26338W        W98763  44.348  15.484  11.941
26339W        W98764  19.221  18.576  11.068
26340W        W98765   9.191  18.533   0.316
26341W        W98766  25.454   5.309  11.474
26342W        W98767  38.095   1.679  14.839
26343W        W98768  13.259  11.269   2.319
26344W        W98769  31.083  35.535   3.184
26345W        W98770  13.147  23.201  11.080
26346W        W98771  10.755  28.543  11.852
26347W        W98772   9.883   2.259  12.124
26348W        W98773  29.632  43.504   2.807
26349W        W98774  22.160  24.047   3.208
26350W        W98775  17.224  30.250   0.176
26351W        W98776   6.693  25.697   1.289
26352W        W98777  20.001  12.744  13.911
26353W        W98778  25.476  32.314   2.367
26354W        W98779  14.052  37.837  10.801
26355W        W98780   3.453   9.137  13.378
26356W        W98781  18.772  18.173   4.126
26357W        W98782   2.521  19.142  10.789
26358W        W98783  44.827  27.524  13.006
26359W        W98784  43.407  20.466   3.723
26360W        W98785  39.314   6.375  14.308
26361W        W98786  24.945  10.936   4.214
26362W        W98787  33.031  29.800   4.030
26363W        W98788  29.284  26.194   4.536
26364W        W98789  27.730  30.000  14.545
26365W        W98790  39.967  38.917  11.939
26366W        W98791  24.631  21.971  10.494
26367W        W98792  17.272  14.808  14.482
26368W        W98793  30.644  36.326   2.306
26369W        W98794  11.850   1.861  14.053
26370W        W98795  44.004  44.687  11.314
26371W        W98796  13.306  17.066   4.613
26372W        W98797  17.243  40.329  11.747
26373W        W98798  20.794  28.116   1.835
26374W        W98799   6.298  11.119   3.084
26375W        W98800  15.104  33.602  12.863
26376W        W98801  30.098  39.975  14.069
26377W        W98802  37.942   5.196   0.229
26378W        W98803  16.375  40.273  11.482
26379W        W98804  13.350  31.662   1.172
26380W        W98805  32.116  41.270  11.399
26381W        W98806  31.217  17.896   3.293
26382W        W98807   5.097   0.516  11.740
26383W        W98808  31.363  36.492  11.051
26384W        W98809  39.444   0.326  12.512
26385W        W98810  33.617  39.346  10.650
26386W        W98811  23.469  30.949  11.026
26387W        W98812  15.237  18.997  13.268
26388W        W98813  29.083   4.946   0.796
26389W        W98814  10.702  38.535  13.861
26390W        W98815   8.493  28.563  13.843
26391W        W98816  29.165  17.403  11.566
26392W        W98817  17.094   6.603  14.996
26393W        W98818   1.741   7.630   0.914
26394W        W98819  26.483   1.187  10.713
26395W        W98820   3.288  36.343  11.511
26396W        W98821  25.210  27.506  11.104
26397W        W98822  33.510  31.736   0.926
26398W        W98823  25.956  31.326   3.864
26399W        W98824  11.400  28.406  10.624
26400W        W98825  41.278  13.286  12.021
26401W        W98826  44.278   7.749   0.281
26402W        W98827   9.425  30.031   0.343
26403W        W98828  26.485   9.632   2.358
26404W        W98829  12.210  14.036  12.236
26405W        W98830  31.921  38.914  11.966
26406W        W98831  33.968   4.861   1.468
26407W        W98832   5.696  29.474  14.310
26408W        W98833   1.680  31.249  11.441
26409W        W98834  44.912  18.630   4.258
26410W        W98835  22.489   1.973   3.293
26411W        W98836  40.438  37.287   0.430
26412W        W98837   5.935   9.328  13.499
26413W        W98838  13.780  19.194  10.707
26414W        W98839  32.536   1.827   4.702
26415W        W98840   8.445   5.989  11.834
26416W        W98841  19.588  25.912   0.422
26417W        W98842  28.090  22.376  13.972
26418W        W98843  14.171  40.589   2.665
26419W        W98844  19.446   4.042   2.824
26420W        W98845  36.390  41.050  13.448
26421W        W98846   9.737   9.919   1.788
26422W        W98847  25.463  29.894  13.933
26423W        W98848  43.421  40.007  12.168
26424W        W98849  17.064  24.473   2.387
26425W        W98850   4.725   3.860   2.336
26426W        W98851  19.705  31.608   5.475
26427W        W98852  18.316  43.157  10.246
26428W        W98853  24.361  32.014   1.786
26429W        W98854  27.150  21.220   2.766
26430W        W98855  30.935  29.981   2.660
26431W        W98856   7.629  31.117   3.864
26432W        W98857  15.111  16.441   2.147
26433W        W98858  42.218   7.463  14.000
26434W        W98859  12.591  18.262  13.269
26435W        W98860  12.526  23.742  11.217
26436W        W98861  18.544  29.042  11.133
26437W        W98862   1.155  29.190  12.424
26438W        W98863  10.708   5.205  13.966
26439W        W98864   7.124  41.144   1.242
26440W        W98865   1.466  27.027  14.489
26441W        W98866   9.273  32.316   3.414
26442W        W98867  31.160  17.809  11.426
26443W        W98868   0.736  23.316   2.027
26444W        W98869  15.873  31.715  11.610
26445W        W98870  28.151  34.833   2.365
26446W        W98871   7.413   0.473  12.972
26447W        W98872  18.208  40.398   1.757
26448W        W98873  19.162  41.346  12.109
26449W        W98874  22.887  44.164   0.434
26450W        W98875  40.277   5.752   1.718
26451W        W98876  42.427  25.638   3.187
26452W        W98877  40.991  26.972  14.136
26453W        W98878  19.152  44.226   3.913
26454W        W98879  11.148   3.222   4.143
26455W        W98880  26.993  18.728   3.383
26456W        W98881  14.249  24.516   2.359
26457W        W98882   0.700   8.308  14.731
26458W        W98883  10.654  16.041  12.467
26459W        W98884  24.036   5.472   0.428
26460W        W98885  36.501  32.220   0.733
26461W        W98886   3.943  17.840   3.154
26462W        W98887   6.218  20.936   4.142
26463W        W98888  44.032  16.220   0.720
26464W        W98889  32.036  39.398  11.146
26465W        W98890  16.167   3.676  10.714
26466W        W98891   2.664   6.156  11.534
26467W        W98892  16.537   1.461   2.953
26468W        W98893  28.412  38.963  13.953
26469W        W98894  25.273  44.924  10.953
26470W        W98895  44.875  27.359   3.618
26471W        W98896  34.825  23.682   2.301
26472W        W98897  15.265  17.523   3.654
26473W        W98898  41.102  43.622   1.996
26474W        W98899   4.509   5.910  10.773
26475W        W98900  20.591  30.064   0.558
26476W        W98901  19.584  26.512  12.909
26477W        W98902  43.418   9.191  14.983
26478W        W98903  13.611   8.363   4.624
26479W        W98904  29.156  23.945   1.701
26480W        W98905  29.687  17.187  12.382
26481W        W98906   8.176  12.769  12.148
26482W        W98907   7.616  32.608   0.247
26483W        W98908  43.251  44.977   2.126
26484W        W98909   9.237   7.452  14.820
26485W        W98910  24.452  20.214  10.776
26486W        W98911  22.053   6.962   3.240
26487W        W98912  24.139  10.805  12.677
26488W        W98913  38.990  23.115   0.970
26489W        W98914  38.612  31.530  12.023
26490W        W98915  11.450  25.612  13.455
26491W        W98916   2.293   5.681   1.810
26492W        W98917  42.845   5.442  11.568
26493W        W98918   0.033  27.118  13.914
26494W        W98919   3.235  13.644  12.600
26495W        W98920   7.815  21.273   0.904
26496W        W98921  18.534  33.955  14.966
26497W        W98922  27.805   9.717   1.225
26498W        W98923  22.051  21.330   2.821
26499W        W98924  34.508  10.900  10.376
26500W        W98925  25.100  39.481   1.210
26501W        W98926  33.598  24.582  13.795
26502W        W98927  29.113  34.563   1.168
26503W        W98928  14.828  23.577   1.825
26504W        W98929  27.774  32.190   4.225
26505W        W98930  37.036  12.843   3.786
26506W        W98931  38.560  38.363  12.032
26507W        W98932  17.113  23.265  10.668
26508W        W98933  29.001   3.369   3.622
26509W        W98934  15.040  29.467  12.001
26510W        W98935  44.914   4.749  10.325
26511W        W98936  17.995  39.964   3.415
26512W        W98937  22.234  11.630   2.593
26513W        W98938   2.356  14.583  11.463
26514W        W98939   9.438  26.010  12.546
26515W        W98940  25.214  41.556   3.227
26516W        W98941  36.983   8.637   3.386
26517W        W98942  13.628  30.636  13.354
26518W        W98943  44.806  29.997  14.464
26519W        W98944   5.662  40.778   0.963
26520W        W98945  40.936   7.091   4.619
26521W        W98946  23.163  10.607   2.812
26522W        W98947   1.756  18.183  11.026
26523W        W98948  16.758   2.245  13.526
26524W        W98949  27.599   2.842   4.491
26525W        W98950  23.445  28.169  13.444
26526W        W98951  19.127  17.186   0.338
26527W        W98952  25.251  30.409   2.713
26528W        W98953  27.918   6.337   4.396
26529W        W98954  14.670  14.584   3.246
26530W        W98955  41.776  28.130  10.257
26531W        W98956  11.582   7.301   4.098
26532W        W98957  26.287  29.174   2.707
26533W        W98958  23.667   0.480   2.409
26534W        W98959  38.375  13.429  13.577
26535W        W98960  10.899  41.849   4.714
26536W        W98961  27.078  17.213   4.665
26537W        W98962  19.814  34.881  14.857
26538W        W98963  15.176   5.901  12.934
26539W        W98964  28.128  14.652   4.583
26540W        W98965  16.223  30.357  12.635
26541W        W98966  14.592  29.691   4.719
26542W        W98967  18.719   0.424   2.173
26543W        W98968  10.813  24.542   2.884
26544W        W98969  40.189  19.158   3.672
26545W        W98970  39.285   5.030  14.182
26546W        W98971  10.570  35.573   0.815
26547W        W98972  36.141  33.621  13.297
26548W        W98973   0.619  27.785  14.506
26549W        W98974  12.310   1.725  13.840
26550W        W98975  30.563  10.345   2.319
26551W        W98976   0.393  41.690  13.933
26552W        W98977   2.950  12.847  13.428
26553W        W98978  28.094   1.909   1.860
26554W        W98979   3.840  35.453   3.595
26555W        W98980  44.032  42.701   2.353
26556W        W98981  25.664  31.209  14.252
26557W        W98982  34.851  43.249  11.627
26558W        W98983  12.764  22.684  13.148
26559W        W98984  20.312  18.539  10.791
26560W        W98985  26.636  15.405   1.275
26561W        W98986  14.770   3.912  14.304
26562W        W98987  33.811  32.311   3.856
26563W        W98988  20.553  17.584   2.590
26564W        W98989  20.156   9.932   1.900
26565W        W98990  33.528  41.864   3.235
26566W        W98991   3.232   8.891   3.683
26567W        W98992  12.204  34.306  10.623
26568W        W98993   7.432  17.160  13.421
26569W        W98994  14.738   1.031  14.861
26570W        W98995   9.880  16.826   4.840
26571W        W98996  14.701  16.607  13.486
26572W        W98997   2.269   8.867  14.357
26573W        W98998   6.305   0.694  11.172
26574W        W98999  15.728  13.586  13.438
26575W        W99000   7.856  23.644  11.503
26576W        W99001   5.688   8.560   2.613
26577W        W99002  16.579  41.334  11.002
26578W        W99003  14.809  24.408  10.325
26579W        W99004  39.510  18.827  13.449
26580W        W99005  33.943  11.138   4.593
26581W        W99006   9.250  29.511   1.426
26582W        W99007  35.702  15.243   4.016
26583W        W99008   7.839  11.242   0.141
26584W        W99009  40.393  44.369   5.421
26585W        W99010  22.501  23.178  13.449
26586W        W99011  25.148  29.953   4.145
26587W        W99012  10.762   4.613  11.636
26588W        W99013  28.033   0.307   4.028
26589W        W99014  31.654  34.874   4.617
26590W        W99015  40.408  11.333  13.276
26591W        W99016  24.262   6.897  14.926
26592W        W99017  27.686  36.244  11.045
26593W        W99018  32.401  15.177   3.166
26594W        W99019  36.573   9.409  12.500
26595W        W99020   8.399  41.285  10.741
26596W        W99021  14.861  17.795   0.873
26597W        W99022   9.827   6.725   4.308
26598W        W99023   7.371  20.597  11.172
26599W        W99024  15.031  15.337   2.810
26600W        W99025  24.272  36.598   0.693
26601W        W99026   2.675   5.368   1.606
26602W        W99027  27.447  42.449  12.857
26603W        W99028  29.164  11.059  13.312
26604W        W99029  36.690  28.036  10.805
26605W        W99030  34.918   1.999  14.738
26606W        W99031  13.911  16.853   3.963
26607W        W99032  23.188  39.068  13.938
26608W        W99033  28.592  17.311  13.760
26609W        W99034  11.019  10.117   3.142
26610W        W99035  13.552  21.106   2.206
26611W        W99036  27.387  44.201  14.800
26612W        W99037   3.355  35.089   1.798
26613W        W99038  28.572  24.935   5.156
26614W        W99039   5.321  38.276  13.518
26615W        W99040  18.226  23.567  12.487
26616W        W99041   8.314  24.627  14.477
26617W        W99042  28.816  23.606  14.796
26618W        W99043  15.619   0.821   0.077
26619W        W99044  14.252  44.037   3.690
26620W        W99045   0.462   2.233   1.384
26621W        W99046   5.838  37.780   1.801
26622W        W99047  13.821  26.454   0.240
26623W        W99048   0.849  17.661  12.927
26624W        W99049   5.600   0.600  11.578
26625W        W99050  16.201  21.178   4.154
26626W        W99051  43.469  37.045  13.201
26627W        W99052  32.884   1.855  10.755
26628W        W99053  29.126  10.239  13.021
26629W        W99054  41.939  25.036  11.809
26630W        W99055  24.068  35.577  10.822
26631W        W99056  18.187  16.798   4.239
26632W        W99057  10.753   3.239   4.580
26633W        W99058  37.880   3.186  14.886
26634W        W99059  42.551   3.543  12.838
26635W        W99060  20.990  40.503  11.311
26636W        W99061   8.278  33.860   4.511
26637W        W99062  44.422  31.389   3.399
26638W        W99063   0.743  40.345   1.935
26639W        W99064  40.928  41.790   2.136
26640W        W99065  14.624  32.095  14.617
26641W        W99066  12.148  40.790  12.104
26642W        W99067   3.804  13.306  12.963
26643W        W99068  33.132   3.914   3.730
26644W        W99069  14.022  17.128   3.537
26645W        W99070  40.776  19.214  11.906
26646W        W99071   0.822  28.000   2.967
26647W        W99072  29.638  20.699   1.942
26648W        W99073   5.846  14.319   0.556
26649W        W99074  31.291  34.080   3.268
26650W        W99075  31.531  16.792   5.257
26651W        W99076   2.258  28.239   3.323
26652W        W99077  13.352   3.860   1.032
26653W        W99078  31.137  27.758  14.450
26654W        W99079   7.386  39.430   4.646
26655W        W99080  11.184  42.687   2.220
26656W        W99081  24.522  28.737   0.931
26657W        W99082  31.465  19.502   3.760
26658W        W99083  35.375  21.502   2.246
26659W        W99084   8.724  27.589  14.221
26660W        W99085  39.034   0.174  14.371
26661W        W99086   9.229  11.706   1.477
26662W        W99087  13.379  23.462   1.549
26663W        W99088  37.091   1.561   2.673
26664W        W99089  18.355  38.550   2.152
26665W        W99090  12.955  17.277  14.097
26666W        W99091  14.144  40.029   0.936
26667W        W99092  38.310  24.436  11.165
26668W        W99093  30.529  21.206   1.149
26669W        W99094  31.114  40.609  13.304
26670W        W99095  33.419  13.606  12.526
26671W        W99096   7.385  18.693  12.474
26672W        W99097  15.293   1.979   0.304
26673W        W99098  15.043  17.676  12.134
26674W        W99099  14.383  16.527   4.103
26675W        W99100  12.672  20.086  11.943
26676W        W99101  42.569  39.342   2.335
26677W        W99102  41.553  26.938  13.391
26678W        W99103   3.482   5.481  13.517
26679W        W99104  43.771  10.195   3.297
26680W        W99105  33.555  28.125   4.069
26681W        W99106  33.721  34.954  13.441
26682W        W99107  36.249  23.084   4.144
26683W        W99108  31.477  44.184   4.258
26684W        W99109  24.885  33.057  12.120
26685W        W99110  36.622  32.109  13.480
26686W        W99111  32.843  16.071   5.089
26687W        W99112  30.927  25.483   0.382
26688W        W99113  15.592  17.072   4.094
26689W        W99114  18.133   4.322  14.691
26690W        W99115  27.089   5.797   1.277
26691W        W99116  12.160  19.327   2.743
26692W        W99117  10.342  10.955   2.877
26693W        W99118  23.490  42.590   0.923
26694W        W99119  43.431   5.453  13.381
26695W        W99120   5.360  31.728   1.701
26696W        W99121   1.573  24.546  12.389
26697W        W99122  17.871  34.942   4.422
26698W        W99123  26.742  28.149  13.093
26699W        W99124  44.374  21.548  13.349
26700W        W99125  33.511   4.742   2.375
26701W        W99126  22.068  11.078  14.202
26702W        W99127  18.561  15.113  13.344
26703W        W99128  20.232  29.563  12.929
26704W        W99129   2.081  19.244  12.597
26705W        W99130  42.428  16.554  13.487
26706W        W99131  34.552   3.394   2.455
26707W        W99132  27.375   5.559  11.336
26708W        W99133  30.124  25.931  13.786
26709W        W99134  16.554  31.097   1.865
26710W        W99135  37.263  29.436  14.941
26711W        W99136  42.873   9.670   4.617
26712W        W99137  26.496  38.027   0.955
26713W        W99138  36.581  44.539   0.566
26714W        W99139  14.057  12.640   4.241
26715W        W99140  17.904  21.769   4.683
26716W        W99141  38.599  30.526   3.798
26717W        W99142  39.950  16.769  13.037
26718W        W99143  31.625  39.452   3.847
26719W        W99144  42.816  26.582   1.116
26720W        W99145  23.503  18.487  13.395
26721W        W99146  11.026  37.451  13.352
26722W        W99147  17.182  18.266  12.087
26723W        W99148  33.988  27.154   0.431
26724W        W99149  44.792  43.252  12.918
26725W        W99150   0.536   0.808  12.301
26726W        W99151   0.872  43.119   5.032
26727W        W99152   5.205  12.770   2.345
26728W        W99153  35.930  43.859  13.270
26729W        W99154   2.456  21.285   2.300
26730W        W99155  13.294   9.224  10.626
26731W        W99156  38.641  42.347  12.524
26732W        W99157  17.762  43.434  14.825
26733W        W99158  34.369   2.734   0.812
26734W        W99159   5.100  24.223   0.793
26735W        W99160  17.996  32.288   4.675
26736W        W99161  27.950  16.710  13.295
26737W        W99162   9.314  32.973  11.319
26738W        W99163  41.827   6.614  11.349
26739W        W99164  39.132  39.351   2.826
26740W        W99165  36.458  44.786  10.717
26741W        W99166  25.540   9.362   3.135
26742W        W99167  19.198  43.712   2.320
26743W        W99168  20.775  31.441   9.741
26744W        W99169  44.144  39.325  11.990
26745W        W99170  13.338  39.257   1.686
26746W        W99171   7.847  30.573  14.396
26747W        W99172  33.889  37.449  14.914
26748W        W99173   0.941  19.591  10.738
26749W        W99174  40.958  12.382  10.368
26750W        W99175   4.736  19.640  14.429
26751W        W99176  15.382  35.494   2.117
26752W        W99177  41.922  13.282   2.036
26753W        W99178  44.780  23.201   4.573
26754W        W99179   5.814  12.817  11.142
26755W        W99180   4.418  24.788  11.095
26756W        W99181  20.109   5.324   4.624
26757W        W99182  10.252  35.408   4.138
26758W        W99183  12.802  23.127  11.903
26759W        W99184   3.939  14.095   1.837
26760W        W99185  11.979  21.254  12.701
26761W        W99186  14.097  40.134   4.867
26762W        W99187  43.447  12.848   2.605
26763W        W99188   1.069  29.619   4.056
26764W        W99189  27.736  14.737   3.111
26765W        W99190  21.716  35.566  13.570
26766W        W99191   2.236  23.749  13.090
26767W        W99192  24.693  39.253   3.624
26768W        W99193  43.758  18.985   2.562
26769W        W99194  18.551  18.622  13.423
26770W        W99195  19.742   4.669  13.904
26771W        W99196  40.592  11.765   4.215
26772W        W99197  26.123  27.464  11.221
26773W        W99198  25.557  35.004   1.654
26774W        W99199  16.212  13.764  14.369
26775W        W99200  33.399   4.515  11.074
26776W        W99201  12.877  23.603   0.275
26777W        W99202  41.635  30.542   4.972
26778W        W99203   2.935  11.731  10.548
26779W        W99204  22.653  21.834   3.250
26780W        W99205   4.350  26.137   3.928
26781W        W99206  28.030  22.745   5.173
26782W        W99207  44.521  22.639   1.936
26783W        W99208   7.228   8.502   4.212
26784W        W99209  30.147  28.520  14.787
26785W        W99210  44.377  18.935  10.946
26786W        W99211  10.001  14.209   4.152
26787W        W99212   5.946  22.505  14.700
26788W        W99213  32.868   2.735   0.846
26789W        W99214  17.027   4.022  12.079
26790W        W99215  40.925   9.183   4.950
26791W        W99216  20.607   2.425  11.206
26792W        W99217   5.395  17.012  14.825
26793W        W99218  40.082   7.695  11.360
26794W        W99219  20.510  30.438  12.395
26795W        W99220   5.690  33.705   0.700
26796W        W99221  17.454  24.148  12.948
26797W        W99222  22.699  26.010   0.285
26798W        W99223  10.629  36.556  11.016
26799W        W99224  37.633  44.553   2.272
26800W        W99225   2.331  40.926   3.648
26801W        W99226  21.232  39.407   0.220
26802W        W99227  26.169  20.069  14.615
26803W        W99228  35.290  14.748   2.204
26804W        W99229  22.952  18.969   4.067
26805W        W99230  16.546   3.742   0.179
26806W        W99231  36.596   4.046  13.280
26807W        W99232  10.273  23.593  11.178
26808W        W99233   9.636  44.827   3.697
26809W        W99234  13.358  40.363  13.470
26810W        W99235  13.106  13.194   3.530
26811W        W99236   6.473   7.773   3.228
26812W        W99237  24.491  10.663   4.177
26813W        W99238  42.588  35.934   3.121
26814W        W99239  14.547  12.790   2.221
26815W        W99240  28.741   2.999  12.029
26816W        W99241  12.339  44.297  13.467
26817W        W99242  42.058  35.360   2.229
26818W        W99243  24.686  10.896   5.491
26819W        W99244  21.177  16.223   2.780
26820W        W99245  13.358  16.321   0.347
26821W        W99246  30.192  26.656   0.819
26822W        W99247  36.837  30.520  12.144
26823W        W99248  32.114  28.609  14.671
26824W        W99249   5.747  25.873   3.567
26825W        W99250  40.499  31.192  11.156
26826W        W99251  22.911  42.854  11.380
26827W        W99252  44.593   3.502  11.084
26828W        W99253   0.474  29.678   4.481
26829W        W99254   7.405  13.573  10.453
26830W        W99255  28.484  29.075  14.045
26831W        W99256  20.604  29.153   4.442
26832W        W99257   5.592  32.576  13.396
26833W        W99258   3.213  16.709  13.758
26834W        W99259  14.391  22.041  13.464
26835W        W99260  43.398  37.783  12.538
26836W        W99261  41.475   5.270   4.603
26837W        W99262  29.642   8.628   1.928
26838W        W99263  40.387  42.193  11.893
26839W        W99264   3.934   9.357  13.457
26840W        W99265  34.575  32.502   4.491
26841W        W99266  42.503  34.466   3.679
26842W        W99267  19.692   1.898   1.164
26843W        W99268  23.303  40.564   3.884
26844W        W99269  27.058   7.946  13.454
26845W        W99270  32.188   1.925   2.658
26846W        W99271  27.527  43.728  11.499
26847W        W99272  38.545  40.244   4.619
26848W        W99273  24.044   2.275   1.464
26849W        W99274   4.681  13.295  12.627
26850W        W99275  40.836  40.892  14.263
26851W        W99276  22.237  33.968  12.632
26852W        W99277  14.533   7.798  12.646
26853W        W99278  23.552  41.616  14.783
26854W        W99279  19.194  17.805  12.388
26855W        W99280  42.253  27.592  13.964
26856W        W99281  19.456  13.825   4.759
26857W        W99282  28.099  33.106   0.358
26858W        W99283   3.002  32.397  11.694
26859W        W99284   5.930   3.844  12.114
26860W        W99285  36.538  18.174  13.277
26861W        W99286  11.987  23.134   4.394
26862W        W99287   5.739  39.612  12.442
26863W        W99288  16.348  38.947   1.805
26864W        W99289  41.038  40.835  12.865
26865W        W99290  37.861  33.627   0.685
26866W        W99291  37.423   9.189  12.033
26867W        W99292  24.768  22.885   1.353
26868W        W99293  30.968   6.654   4.774
26869W        W99294   7.272   0.736  14.851
26870W        W99295   1.397  11.598   2.720
26871W        W99296   8.851  41.426  14.756
26872W        W99297   3.276  32.206   2.177
26873W        W99298  11.358  30.745  13.088
26874W        W99299   3.285  10.756   1.895
26875W        W99300   6.470   7.799   2.709
26876W        W99301   7.429   7.918  10.295
26877W        W99302  30.404  29.632   2.412
26878W        W99303  39.248  23.125   2.480
26879W        W99304  25.010  33.144   0.556
26880W        W99305  25.707  14.684   2.127
26881W        W99306  22.589   3.013  12.471
26882W        W99307   7.610  42.422  10.781
26883W        W99308  14.191  39.631   4.785
26884W        W99309  42.429  41.357  14.565
26885W        W99310  14.323  16.723   3.648
26886W        W99311   9.104  39.665  14.261
26887W        W99312   8.765  19.773  10.675
26888W        W99313   5.465  40.446   0.579
26889W        W99314  43.673  32.480   3.161
26890W        W99315  42.604  22.274  10.786
26891W        W99316   0.653  29.431  14.248
26892W        W99317  44.070   4.740   2.647
26893W        W99318   4.937   5.419   2.854
26894W        W99319   6.843   0.787  11.924
26895W        W99320  43.698  12.603  10.760
26896W        W99321   0.909   0.314  13.993
26897W        W99322  30.551  29.403   0.293
26898W        W99323  18.330  40.104   0.840
26899W        W99324  12.848  42.250   0.821
26900W        W99325  34.981  43.649   4.390
26901W        W99326  28.515  21.601  11.516
26902W        W99327   8.208  19.752  14.807
26903W        W99328  16.736  31.035   9.733
26904W        W99329  44.761   7.258  14.495
26905W        W99330  25.110  10.577  10.189
26906W        W99331   5.754   4.443   1.848
26907W        W99332  21.822  15.591  11.100
26908W        W99333  27.597  15.609  14.363
26909W        W99334  11.925  17.101  13.857
26910W        W99335  40.408  39.304   1.211
26911W        W99336  34.932  29.977   1.304
26912W        W99337  39.994  20.104  11.151
26913W        W99338   8.026  18.718   0.601
26914W        W99339   6.629  12.644  12.124
26915W        W99340  19.185   1.281   9.692
26916W        W99341  27.505  38.890  11.729
26917W        W99342  14.754  43.303  12.833
26918W        W99343  21.241   8.152   2.383
26919W        W99344  23.877   9.511  11.943
26920W        W99345   8.828  24.924  14.880
26921W        W99346  29.587   2.612   4.542
26922W        W99347   6.989   0.250  11.197
26923W        W99348  41.433   3.968  13.466
26924W        W99349  21.274  34.634  10.308
26925W        W99350  19.844  32.131   3.483
26926W        W99351  19.454   3.470  12.090
26927W        W99352  30.486  29.561  12.998
26928W        W99353  25.928  26.929   4.477
26929W        W99354  31.798  20.256  12.516
26930W        W99355  41.598  37.372   4.099
26931W        W99356   5.009   2.078  12.799
26932W        W99357   4.629  43.974  14.074
26933W        W99358   5.796  41.923  14.955
26934W        W99359  39.944  40.946   2.584
26935W        W99360  16.258  40.941  14.821
26936W        W99361  36.896   8.705   2.376
26937W        W99362  14.425  13.577  11.292
26938W        W99363  13.404  26.647  12.451
26939W        W99364  44.045  25.623   2.446
26940W        W99365   5.398  31.477   2.148
26941W        W99366  28.242  34.887   3.263
26942W        W99367  19.146  14.384  14.148
26943W        W99368  12.352  40.763   0.281
26944W        W99369  12.076  12.736  13.486
26945W        W99370  30.503  11.873   4.094
26946W        W99371   0.053   2.786   0.799
26947W        W99372  32.431   8.184  14.779
26948W        W99373  39.350  16.646   2.754
26949W        W99374  36.908  30.418  11.665
26950W        W99375  44.838  21.323  12.177
26951W        W99376   3.165  30.975  13.355
26952W        W99377   5.657  18.577  14.007
26953W        W99378  44.115  34.598  12.299
26954W        W99379  29.964  33.077  12.974
26955W        W99380  38.869  22.772   3.182
26956W        W99381   4.860   2.354  11.040
26957W        W99382  37.091  26.940  11.155
26958W        W99383   4.783   8.659   3.691
26959W        W99384  41.351  29.372  14.913
26960W        W99385  16.129  20.516  11.025
26961W        W99386  26.911   7.666   0.734
26962W        W99387  27.183  33.603   4.079
26963W        W99388  33.639  24.065   4.614
26964W        W99389  36.394  26.408   2.254
26965W        W99390  11.293   5.238  10.592
26966W        W99391  23.682  44.770   1.777
26967W        W99392  30.143  36.487   4.598
26968W        W99393   4.709  40.874  12.833
26969W        W99394  18.244  25.961   0.515
26970W        W99395   1.099   0.700   1.819
26971W        W99396  41.538   2.410   1.606
26972W        W99397  10.827  33.921   1.854
26973W        W99398  21.760  12.030  14.362
26974W        W99399  35.729  33.878  11.041
26975W        W99400  38.637   3.275  14.000
26976W        W99401  22.394  33.681  11.052
26977W        W99402   6.764  12.615   4.526
26978W        W99403  36.885   7.676   3.368
26979W        W99404   8.400  23.173   1.842
26980W        W99405  37.145  37.565   2.136
26981W        W99406  25.529  40.265   3.294
26982W        W99407   6.606  14.798  10.755
26983W        W99408  13.286  39.612   1.303
26984W        W99409  12.889  20.816   0.227
26985W        W99410  13.566  29.291   2.713
26986W        W99411  15.950  16.872   4.990
26987W        W99412   1.337  17.137  13.756
26988W        W99413  34.592  21.513  11.714
26989W        W99414   7.463  16.109  11.651
26990W        W99415  11.297   8.593  12.482
26991W        W99416   5.771  14.715   0.866
26992W        W99417  25.741  37.522   3.237
26993W        W99418  18.304   4.362   1.168
26994W        W99419  22.444  15.210   4.896
26995W        W99420  19.501   2.390   2.890
26996W        W99421  28.041  21.618  12.128
26997W        W99422  38.381  21.784   3.813
26998W        W99423  44.534  30.476  13.865
26999W        W99424   6.625  14.340  11.648
27000W        W99425  39.126  37.956  10.816
27001W        W99426  18.694  12.177   4.184
27002W        W99427  21.944  16.665  11.931
27003W        W99428  44.465  28.597  12.495
27004W        W99429  16.108  44.906   3.349
27005W        W99430  23.295   9.213  12.798
27006W        W99431  42.310  10.261   0.257
27007W        W99432  14.247  29.072   3.855
27008W        W99433  20.722  13.676   3.665
27009W        W99434  36.483  38.266  14.668
27010W        W99435   0.526  18.999  14.051
27011W        W99436   9.325  25.067   4.189
27012W        W99437  24.040  20.673  14.079
27013W        W99438  17.165  30.581  12.935
27014W        W99439  23.515  28.056  11.169
27015W        W99440  42.388  21.476  13.005
27016W        W99441  34.402  40.459   0.224
27017W        W99442  35.663  23.766   4.571
27018W        W99443  25.924  19.043  14.928
27019W        W99444  27.621   7.761   1.778
27020W        W99445  30.208   2.720  14.956
27021W        W99446   1.594  33.106   4.012
27022W        W99447  40.718  36.769   0.838
27023W        W99448  44.957  39.834  13.503
27024W        W99449  17.035  12.452   1.360
27025W        W99450   7.160  23.990  13.401
27026W        W99451  15.720   9.650   1.241
27027W        W99452   9.214  10.475   2.104
27028W        W99453  37.716  20.253   4.156
27029W        W99454  37.076  19.813  12.061
27030W        W99455  21.768   1.928  14.118
27031W        W99456  18.290  26.203  10.756
27032W        W99457  40.044  39.804  13.587
27033W        W99458  14.749  29.900   1.948
27034W        W99459  29.928  16.605   2.813
27035W        W99460   9.193   5.223   2.188
27036W        W99461  36.028  33.686   3.239
27037W        W99462  21.870   6.355  13.359
27038W        W99463  40.833  17.173  14.061
27039W        W99464  41.789  29.546  13.892
27040W        W99465   5.488  20.828  14.400
27041W        W99466  27.112  40.451   3.155
27042W        W99467  38.972  44.829   3.295
27043W        W99468  24.607  16.526  11.000
27044W        W99469  15.992  40.089  11.194
27045W        W99470  29.357  37.804  10.622
27046W        W99471   9.263  44.363  13.009
27047W        W99472  26.051  12.663  10.992
27048W        W99473  42.223  25.000   2.817
27049W        W99474  28.935  12.486   1.743
27050W        W99475   2.463   6.083   4.152
27051W        W99476   5.514  32.110   0.141
27052W        W99477  11.620  17.528   4.476
27053W        W99478  41.501  29.405  11.275
27054W        W99479  23.562  40.953  14.109
27055W        W99480  17.531   6.327  12.010
27056W        W99481  43.459  25.530  10.648
27057W        W99482  31.723  41.236   1.312
27058W        W99483   2.327  32.410   4.592
27059W        W99484   1.359  28.525   4.117
27060W        W99485  34.483   9.401  12.381
27061W        W99486  25.664  41.512   2.809
27062W        W99487  20.899  24.735  11.041
27063W        W99488   1.685  32.649   0.960
27064W        W99489  12.077   5.271  14.288
27065W        W99490  43.773   8.230  14.563
27066W        W99491  22.582  11.348  14.902
27067W        W99492  37.043   5.243  13.338
27068W        W99493  27.947   4.864   2.221
27069W        W99494  18.333  39.464   3.552
27070W        W99495  24.751  23.689  12.860
27071W        W99496  31.407  20.754   2.730
27072W        W99497  14.654  41.289  11.955
27073W        W99498  12.762   5.852   2.808
27074W        W99499   8.990  21.591   2.989
27075W        W99500  36.031   0.213  14.974
27076W        W99501  30.168  44.760   0.802
27077W        W99502  39.427   0.821   1.928
27078W        W99503  10.866  28.141   0.541
27079W        W99504  32.530  39.703  14.007
27080W        W99505  43.458  36.864  10.576
27081W        W99506  33.482  35.461   9.966
27082W        W99507  31.133  11.190  10.352
27083W        W99508  10.854  30.845  11.831
27084W        W99509   4.985  15.644  12.515
27085W        W99510  25.569  36.802   4.114
27086W        W99511  44.105  13.197  12.978
27087W        W99512  42.704   5.472   3.690
27088W        W99513  35.357   8.839   4.992
27089W        W99514   2.447  26.526  11.186
27090W        W99515  18.755   4.246  10.715
27091W        W99516   2.415  39.809   4.561
27092W        W99517  16.583  41.441   1.697
27093W        W99518  34.429  20.202  14.514
27094W        W99519  37.306   4.149   4.754
27095W        W99520  20.686  18.577  12.083
27096W        W99521  20.064  19.994  13.777
27097W        W99522   2.060  28.192   1.244
27098W        W99523  41.483  16.971   2.824
27099W        W99524   5.381  13.668   3.673
27100W        W99525  32.555   8.895   3.301
27101W        W99526  41.586  25.955   1.723
27102W        W99527  44.574  32.575   9.827
27103W        W99528   5.131  13.427   4.618
27104W        W99529  13.765  17.882  11.035
27105W        W99530  37.989   3.195   1.544
27106W        W99531  21.635  43.496  10.788
27107W        W99532  16.140  18.824  11.459
27108W        W99533  42.473  13.585  14.979
27109W        W99534  27.594  23.776  11.623
27110W        W99535  36.892  15.005   2.343
27111W        W99536   2.226  29.279  12.585
27112W        W99537  19.499  16.617   4.362
27113W        W99538  13.385  41.313  13.931
27114W        W99539  32.884  26.746  12.993
27115W        W99540   7.839   7.955   2.707
27116W        W99541  17.644   0.169  13.415
27117W        W99542  21.512  41.714   3.957
27118W        W99543  15.646   8.231   2.470
27119W        W99544  27.799  19.081  12.832
27120W        W99545  23.346  22.413  12.809
27121W        W99546  15.795  21.208  11.995
27122W        W99547  33.928   9.734   2.584
27123W        W99548  36.394  35.380   3.941
27124W        W99549  32.306  31.863   2.290
27125W        W99550  25.980  38.323   3.617
27126W        W99551  40.092  40.375   1.855
27127W        W99552   7.835  43.985   0.745
27128W        W99553   2.667  39.605   3.324
27129W        W99554   5.791   2.460  11.032
27130W        W99555   1.261  24.545  14.289
27131W        W99556  41.160  14.171  11.125
27132W        W99557  20.842  15.065   3.479
27133W        W99558  25.250  13.840  12.916
27134W        W99559  10.559  12.677  13.784
27135W        W99560  12.801   0.866  10.554
27136W        W99561  11.791   4.523   4.092
27137W        W99562  22.684  25.327  11.725
27138W        W99563  33.242   8.954  11.928
27139W        W99564   0.521   9.531   3.295
27140W        W99565  16.392  21.005   3.288
27141W        W99566  40.929  25.480  10.702
27142W        W99567  44.267  36.985   1.909
27143W        W99568  31.533   5.317  14.325
27144W        W99569  36.368   3.180  10.767
27145W        W99570   9.827  36.363   3.537
27146W        W99571  42.332   1.526  13.022
27147W        W99572  38.376   5.376  12.048
27148W        W99573   6.307  30.947  10.666
27149W        W99574   2.050   0.532   0.448
27150W        W99575  34.467  17.422   0.798
27151W        W99576   0.960  43.946   2.838
27152W        W99577  44.242  30.513   4.142
27153W        W99578  25.466  41.632  12.868
27154W        W99579  30.951  21.101   5.188
27155W        W99580  44.196   3.891   1.304
27156W        W99581  13.370   1.484   2.011
27157W        W99582  40.115   0.472  11.556
27158W        W99583   1.023  14.144   2.580
27159W        W99584  25.077  36.676   3.879
27160W        W99585  31.621   1.326  10.560
27161W        W99586  44.723  33.029   3.590
27162W        W99587   4.862  10.149  12.183
27163W        W99588   0.728  16.266   0.526
27164W        W99589  42.429  33.042   3.770
27165W        W99590  25.166  11.251  13.618
27166W        W99591  23.157  30.935  10.616
27167W        W99592   8.441  38.598  13.361
27168W        W99593  39.817  36.169  11.198
27169W        W99594  15.696  13.718   1.380
27170W        W99595  34.211  25.141   4.611
27171W        W99596  36.927  15.083  11.451
27172W        W99597  10.751  35.494  13.017
27173W        W99598   7.329  23.966   1.169
27174W        W99599  11.963  38.361   4.576
27175W        W99600  34.594   8.901   2.236
27176W        W99601  22.100  32.209   0.809
27177W        W99602  20.748   5.922   3.558
27178W        W99603  35.585  30.462  14.770
27179W        W99604   1.750   1.557   1.234
27180W        W99605   1.405  16.337   2.356
27181W        W99606  35.533  34.463   0.752
27182W        W99607  10.353  23.480   4.252
27183W        W99608  13.230  21.700  12.145
27184W        W99609  20.313  10.228  14.055
27185W        W99610  20.729  31.124   3.518
27186W        W99611  20.991  16.482  14.740
27187W        W99612  29.004  32.892  13.068
27188W        W99613  32.339  31.587  13.294
27189W        W99614   7.064  34.805   5.458
27190W        W99615  40.378  10.328  13.978
27191W        W99616  12.225  10.782   0.550
27192W        W99617  41.811  25.509  13.123
27193W        W99618  19.250  43.353  11.235
27194W        W99619  44.090  17.654  14.360
27195W        W99620  44.854  11.074  11.605
27196W        W99621  28.568  18.590   0.040
27197W        W99622  10.358  33.903   3.731
27198W        W99623  25.725  31.091  10.445
27199W        W99624   4.439  22.996  14.358
27200W        W99625  39.917  26.059  13.817
27201W        W99626  36.122  34.629  11.302
27202W        W99627  14.970  24.209  12.558
27203W        W99628  18.854  36.989   2.632
27204W        W99629  42.763  26.044   3.277
27205W        W99630  26.157   4.693  14.255
27206W        W99631  20.594  40.364   2.357
27207W        W99632  41.242  29.070  14.283
27208W        W99633  11.392  15.226  14.052
27209W        W99634  28.697  24.009   3.871
27210W        W99635  37.008  40.999   4.641
27211W        W99636  35.981  24.449   2.428
27212W        W99637  14.210  30.537   1.498
27213W        W99638  41.508  37.276   9.959
27214W        W99639   5.155  27.180   0.160
27215W        W99640  33.610  25.087   0.458
27216W        W99641  12.488  12.178  11.712
27217W        W99642  36.917  18.198   4.928
27218W        W99643  17.121  35.039   5.029
27219W        W99644  36.899  21.551  12.159
27220W        W99645  15.650  30.569  12.004
27221W        W99646   1.689  44.956  13.499
27222W        W99647  19.269  37.827   3.874
27223W        W99648   8.568   7.132  10.256
27224W        W99649  36.922  44.632   1.030
27225W        W99650  43.399   3.968  12.794
27226W        W99651  27.011  11.333  12.836
27227W        W99652  39.535  11.914   2.339
27228W        W99653  29.037   6.135   0.060
27229W        W99654   3.967  27.433   3.874
27230W        W99655  37.767  29.034   1.712
27231W        W99656  27.475  42.971  11.983
27232W        W99657   2.905  14.786   1.328
27233W        W99658  14.100  40.181  10.988
27234W        W99659  11.874   0.907  14.519
27235W        W99660  16.598  15.830  14.801
27236W        W99661  35.173  21.447   0.946
27237W        W99662  28.224  36.432   2.254
27238W        W99663  17.458   4.883   2.802
27239W        W99664   1.733  10.621   4.518
27240W        W99665  19.761   3.706  11.752
27241W        W99666  42.986  31.673  12.449
27242W        W99667   3.772  16.175  10.766
27243W        W99668   8.902   0.169   1.152
27244W        W99669   0.441  40.462   4.605
27245W        W99670  33.381  19.019   3.672
27246W        W99671  28.049  36.380   3.076
27247W        W99672  29.955  37.871   3.653
27248W        W99673  42.257   4.321   0.697
27249W        W99674  34.342  28.083  10.650
27250W        W99675   7.581  24.562  12.117
27251W        W99676  42.477  35.981   4.485
27252W        W99677  23.189  36.538  10.626
27253W        W99678  40.594   2.195   2.800
27254W        W99679  16.898  13.378  11.744
27255W        W99680  20.504   9.090   5.211
27256W        W99681  44.450   5.470   3.061
27257W        W99682  31.558  12.801  13.123
27258W        W99683  27.590  13.987  10.774
27259W        W99684  12.204  24.621  13.579
27260W        W99685   9.769  30.418  10.672
27261W        W99686  39.375   0.720   0.401
27262W        W99687  29.559  29.216  14.017
27263W        W99688  27.087  11.214   4.584
27264W        W99689   1.977  30.444  12.164
27265W        W99690  39.597   7.215  14.526
27266W        W99691  17.712  12.675   1.798
27267W        W99692  31.964  21.685   4.490
27268W        W99693  39.824   8.167  12.090
27269W        W99694  40.867  12.657   3.338
27270W        W99695  11.866  23.116   9.713
27271W        W99696  21.461   9.893  11.125
27272W        W99697   0.340  17.631  12.912
27273W        W99698  42.523  36.625  11.461
27274W        W99699   5.294  41.088   1.178
27275W        W99700  37.490  37.794  10.374
27276W        W99701  44.718  33.428  12.460
27277W        W99702  29.617   8.258  13.891
27278W        W99703  27.965  43.205   2.774
27279W        W99704  31.918   6.489   0.326
27280W        W99705  17.013  14.805   3.337
27281W        W99706  28.688  43.819  13.372
27282W        W99707   1.985  41.766   4.051
27283W        W99708  17.884   3.156  10.424
27284W        W99709   9.599  15.292  11.982
27285W        W99710  38.319  42.258  10.927
27286W        W99711  41.392  38.976   2.377
27287W        W99712  35.129  26.652  11.007
27288W        W99713  19.756  42.634  12.427
27289W        W99714  30.457  31.728  14.449
27290W        W99715   3.753  10.279  14.268
27291W        W99716  32.273   4.560   3.168
27292W        W99717  43.881  29.674   4.945
27293W        W99718  16.559  25.092  12.325
27294W        W99719  44.869   8.710   2.185
27295W        W99720  33.651  41.134   2.761
27296W        W99721  16.626  38.159  10.316
27297W        W99722  34.992  21.614   2.696
27298W        W99723  41.835  16.935  11.558
27299W        W99724  34.201  10.026   3.593
27300W        W99725  39.366   4.925   2.701
27301W        W99726  39.591  15.548   3.359
27302W        W99727   3.219  17.084  11.034
27303W        W99728   9.112  36.253  10.995
27304W        W99729  11.199  34.137   2.669
27305W        W99730  28.261  39.882   0.420
27306W        W99731  28.497   5.229   3.144
27307W        W99732  27.594   1.329   3.170
27308W        W99733  42.016  19.341   3.191
27309W        W99734   5.262  38.468   4.712
27310W        W99735  43.867  40.949   4.353
27311W        W99736  24.529  43.242   0.415
27312W        W99737  16.439  21.664  12.654
27313W        W99738  26.079  24.128   1.223
27314W        W99739  26.732  34.863   3.351
27315W        W99740  14.756  34.134   3.872
27316W        W99741  17.155  36.495   1.144
27317W        W99742  24.518  34.748  14.252
27318W        W99743  16.160  18.551   4.699
27319W        W99744   2.445  20.280   5.053
27320W        W99745  17.768  21.995  14.159
27321W        W99746  28.500  11.905   0.176
27322W        W99747  42.670  10.136   2.267
27323W        W99748  20.155  44.493   1.856
27324W        W99749   4.934   6.867  10.345
27325W        W99750   6.212   5.864   2.392
27326W        W99751  41.557  29.449   1.237
27327W        W99752  18.992   0.677  12.009
27328W        W99753  27.718  40.969   2.075
27329W        W99754  20.752   3.463  12.658
27330W        W99755  14.321  24.536  10.570
27331W        W99756  36.725  17.474  13.537
27332W        W99757   0.419   4.191   1.758
27333W        W99758   6.234  44.975   2.156
27334W        W99759  31.735  27.473   3.715
27335W        W99760   3.309   0.080  11.406
27336W        W99761  24.583   0.402  14.386
27337W        W99762  44.165  21.992  14.376
27338W        W99763  36.126   3.048   4.088
27339W        W99764  13.848  21.642   0.206
27340W        W99765   7.997  16.243  14.612
27341W        W99766   1.984  38.624  14.939
27342W        W99767   5.350  14.935  11.196
27343W        W99768   3.315   9.714   4.723
27344W        W99769  31.607  19.825   4.148
27345W        W99770   2.524   4.595  13.876
27346W        W99771  38.293   3.427   2.154
27347W        W99772  17.042  34.538   4.119
27348W        W99773   6.280  31.400  13.352
27349W        W99774  21.092  44.541  11.025
27350W        W99775  36.857  16.094   3.956
27351W        W99776  16.179  27.966   2.828
27352W        W99777  23.982  40.976   4.565
27353W        W99778  22.136   7.524   0.381
27354W        W99779  21.062  12.757  10.359
27355W        W99780  44.888  17.410  13.765
27356W        W99781  38.716   9.823  14.894
27357W        W99782  29.232  16.793   1.326
27358W        W99783  20.340  33.925   1.279
27359W        W99784  21.650  30.109   2.668
27360W        W99785  39.814   9.112  12.389
27361W        W99786  35.366  18.622   0.845
27362W        W99787  43.398  38.040   4.408
27363W        W99788  32.080  23.572   4.129
27364W        W99789   4.905  29.800   4.034
27365W        W99790   9.865  31.151  11.732
27366W        W99791   3.803  18.727  11.591
27367W        W99792  32.967   9.763   2.766
27368W        W99793  18.346  44.014   1.563
27369W        W99794   7.315  34.247  12.422
27370W        W99795  36.054   8.376   0.322
27371W        W99796  18.878  24.993   3.165
27372W        W99797  16.334  11.625   0.823
27373W        W99798   9.822   9.255   9.795
27374W        W99799   5.746  38.012   3.238
27375W        W99800  19.506  27.442   4.091
27376W        W99801   8.681  39.952  14.342
27377W        W99802  23.985  16.207  11.386
27378W        W99803  28.476   7.338   3.176
27379W        W99804  43.773   6.380  11.187
27380W        W99805  35.441  18.688   4.469
27381W        W99806  33.421  43.533   2.050
27382W        W99807   0.396  12.801  14.374
27383W        W99808  19.573   4.897  12.611
27384W        W99809   7.330  32.493   2.190
27385W        W99810  19.205  26.082   4.128
27386W        W99811  17.099  28.564   2.717
27387W        W99812   2.539  44.878  13.039
27388W        W99813  20.061   4.937   0.231
27389W        W99814  25.043  16.987  12.043
27390W        W99815  11.576  40.800  14.802
27391W        W99816  29.921  44.486   1.432
27392W        W99817  38.666   7.309  14.038
27393W        W99818  13.744   1.227   0.024
27394W        W99819   5.939  20.102  14.187
27395W        W99820  29.016  37.385   1.465
27396W        W99821  33.576  11.642  14.437
27397W        W99822  28.213   4.319  13.833
27398W        W99823   2.913   4.925  14.545
27399W        W99824  28.031  18.717   0.773
27400W        W99825   4.040   3.589   4.959
27401W        W99826  39.748  27.083   1.336
27402W        W99827  38.360  44.343  11.584
27403W        W99828  27.467  19.774   4.314
27404W        W99829   5.233  33.235   1.472
27405W        W99830  19.630  30.707  12.336
27406W        W99831  37.435   3.172  13.058
27407W        W99832   9.357   5.652   0.291
27408W        W99833  38.768  15.850  11.994
27409W        W99834  32.485  24.060   0.211
27410W        W99835   9.635  20.208  14.076
27411W        W99836  44.124  30.882  12.063
27412W        W99837   8.887   2.742   1.221
27413W        W99838  40.264   6.024   4.024
27414W        W99839  43.273   0.349   4.475
27415W        W99840  41.067  18.251  12.820
27416W        W99841  15.229  13.501   1.402
27417W        W99842  11.170  29.112   0.812
27418W        W99843  19.136  26.214  12.810
27419W        W99844  44.329   4.212  14.234
27420W        W99845  43.489   0.371  14.973
27421W        W99846  44.992  43.314  11.047
27422W        W99847  28.479   4.576   3.798
27423W        W99848  14.672  14.885   2.803
27424W        W99849  39.562  30.030  14.672
27425W        W99850   0.381  19.484  13.842
27426W        W99851  40.742   3.352   2.252
27427W        W99852  24.838  36.217   1.868
27428W        W99853  27.780  13.228   1.452
27429W        W99854  38.587   7.731   2.317
27430W        W99855  21.806  14.698  11.724
27431W        W99856  17.779  23.867  13.338
27432W        W99857  40.937  40.855   0.744
27433W        W99858  43.338  30.082  12.980
27434W        W99859   9.174  34.657  10.502
27435W        W99860  38.953  19.826  12.104
27436W        W99861  35.805  24.675   4.962
27437W        W99862  19.584   8.740   2.721
27438W        W99863  12.595  19.285  11.167
27439W        W99864   1.951  30.105  10.581
27440W        W99865  32.985  21.678  12.770
27441W        W99866  17.010  24.473   0.465
27442W        W99867  41.108  41.481  10.666
27443W        W99868  10.820  29.910   3.070
27444W        W99869   4.747  21.357  14.921
27445W        W99870  21.635  17.272  11.470
27446W        W99871  11.332  26.229   2.241
27447W        W99872  39.781  14.661  13.099
27448W        W99873  10.028  26.997  14.100
27449W        W99874  42.513  21.694  13.450
27450W        W99875  44.376  43.083  10.135
27451W        W99876  20.760  24.435  11.484
27452W        W99877  20.522  20.681   3.242
27453W        W99878  43.977  11.611   0.338
27454W        W99879  31.680  26.611  11.360
27455W        W99880  15.253  13.134  10.660
27456W        W99881   4.429  17.950  14.054
27457W        W99882   3.401  43.247   4.620
27458W        W99883  40.370  24.077  10.713
27459W        W99884  35.593  34.045  12.298
27460W        W99885  22.470   6.076   2.002
27461W        W99886   0.241   9.667   2.392
27462W        W99887  18.665  38.920   4.077
27463W        W99888  13.603  27.522   2.163
27464W        W99889   3.385  10.186   0.478
27465W        W99890  43.889  34.958  13.400
27466W        W99891  24.073   8.137   3.161
27467W        W99892   0.680   6.671   0.094
27468W        W99893   6.425   4.452  12.604
27469W        W99894  10.263  29.951  10.386
27470W        W99895  13.173  31.083   0.506
27471W        W99896  23.668  28.404  11.674
27472W        W99897  19.742  31.732   4.548
27473W        W99898  23.278   8.811  14.843
27474W        W99899  14.412  22.719   2.389
27475W        W99900  43.736  17.356  14.645
27476W        W99901  28.156   0.318  14.181
27477W        W99902  27.866  31.006   3.607
27478W        W99903   2.136   3.705  11.459
27479W        W99904  37.491  43.797   0.936
27480W        W99905   3.863   3.274   0.496
27481W        W99906  44.313  29.910  14.351
27482W        W99907  23.223  10.607   4.605
27483W        W99908  23.971  17.565   1.856
27484W        W99909  44.977   5.294   0.898
27485W        W99910  30.675   6.836  12.918
27486W        W99911  26.931  34.859   1.863
27487W        W99912  19.994  14.894  14.814
27488W        W99913  27.590  19.651  11.134
27489W        W99914  30.161  14.256   0.436
27490W        W99915  20.914  37.584   4.178
27491W        W99916  35.398   4.633  12.604
27492W        W99917  36.890  34.024   1.331
27493W        W99918   8.220  15.253  10.716
27494W        W99919  14.616  35.400   0.899
27495W        W99920  16.630  34.532   3.796
27496W        W99921  23.826  25.780   3.713
27497W        W99922  43.009  40.456   4.607
27498W        W99923  35.594  27.042   0.782
27499W        W99924  17.425   4.684  10.445
27500W        W99925  20.028  11.290   2.100
27501W        W99926  20.197  22.402  11.498
27502W        W99927  41.898   5.269   4.294
27503W        W99928  11.375  12.828  12.708
27504W        W99929  19.124  39.316  13.577
27505W        W99930  42.703   5.408   4.524
27506W        W99931  34.927  42.356   1.969
27507W        W99932  16.109  31.038  12.088
27508W        W99933   9.676  32.520   0.796
27509W        W99934  17.582   5.801   1.529
27510W        W99935  26.305  16.266  11.424
27511W        W99936  23.024  43.364  13.168
27512W        W99937  25.604  19.015  13.601
27513W        W99938  43.629  16.303   1.056
27514W        W99939  29.607  24.741   0.942
27515W        W99940  11.063  41.111   1.991
27516W        W99941  44.175  21.950  12.147
27517W        W99942  41.542  21.339   3.319
27518W        W99943  28.939  22.689  14.564
27519W        W99944  28.096  39.815   2.344
27520W        W99945  43.651   4.988   2.844
27521W        W99946   1.292   4.708   2.759
27522W        W99947  43.940  25.113  14.039
27523W        W99948  10.067  23.065  10.621
27524W        W99949  29.475   8.604  12.455
27525W        W99950  34.999  38.508   2.312
27526W        W99951   3.407   4.491   1.174
27527W        W99952  34.517   6.901   0.631
27528W        W99953   6.138  36.917  11.486
27529W        W99954   7.815  28.211   0.250
27530W        W99955  18.144  25.104   0.426
27531W        W99956   8.146  31.913  11.153
27532W        W99957  35.672  27.447  13.996
27533W        W99958  30.558  40.043   4.856
27534W        W99959  34.961  17.946  14.009
27535W        W99960  40.029  40.459   2.790
27536W        W99961  44.924   0.271   3.676
27537W        W99962  40.537  29.111   4.704
27538W        W99963   7.443  36.881   2.792
27539W        W99964   9.484  35.424   3.689
27540W        W99965   5.411  30.961   4.465
27541W        W99966  33.690   3.959   2.558
27542W        W99967  41.468  31.715  14.004
27543W        W99968  16.157  26.163  12.171
27544W        W99969  26.148  44.975   4.737
27545W        W99970  28.488  24.739  10.711
27546W        W99971  28.422  15.664   3.259
27547W        W99972   4.940  29.096   2.250
27548W        W99973  24.068  19.171  11.414
27549W        W99974  29.972   4.484   2.548
27550W        W99975  10.384  29.395  11.633
27551W        W99976  28.260  16.794  12.900
27552W        W99977  44.385  36.435  12.182
27553W        W99978   0.718  40.550   0.147
27554W        W99979  33.883   4.986  10.778
27555W        W99980  24.833  36.891  12.959
27556W        W99981  32.301  25.668   3.140
27557W        W99982   3.873  41.868  13.975
27558W        W99983  43.313  33.206   2.117
27559W        W99984  36.078   0.200  12.618
27560W        W99985  44.147  31.629  11.703
27561W        W99986   0.983  25.651   2.690
27562W        W99987  11.237  14.345   3.317
27563W        W99988  43.533  25.890   3.706
27564W        W99989  34.346  42.916  12.955
27565W        W99990  25.727   9.425   3.635
27566W        W99991  30.185  25.993   4.343
27567W        W99992  39.050  29.444  12.544
27568W        W99993  22.270  34.537  11.427
27569W        W99994  20.886  18.290   0.771
27570W        W99995  23.438   9.359   0.490
27571W        W99996   8.801   9.641   1.914
27572W        W99997  23.401   0.007  12.902
27573W        W99998  17.210   1.983  13.442
27574W        W99999   1.304  17.627   4.094
27575W        W    0   4.926  31.080  12.839
27576W        W    1  13.688   8.905   4.617
27577W        W    2  21.542  31.443  12.568
27578W        W    3   1.885  36.403  14.211
27579W        W    4  31.548  23.201   2.494
27580W        W    5  30.082   6.161  11.752
27581W        W    6  24.122  13.334   4.639
27582W        W    7  26.973  38.847   4.334
27583W        W    8  21.294  16.583   1.396
27584W        W    9  19.964  37.471  12.793
27585W        W   10  10.650  32.531   0.782
27586W        W   11   4.171   3.422  11.132
27587W        W   12   7.657   3.355   2.557
27588W        W   13  41.625  10.662   3.988
27589W        W   14  22.765  32.134  14.129
27590W        W   15   8.676   7.864  13.421
27591W        W   16  38.986  12.101  12.404
27592W        W   17  19.228   5.774   3.727
27593W        W   18  31.669  35.818  14.392
27594W        W   19   9.938  38.830   3.723
27595W        W   20  36.035  28.364   4.314
27596W        W   21  20.031  26.577   3.188
27597W        W   22  18.754  20.617  11.671
27598W        W   23  20.068  18.201  12.974
27599W        W   24  39.829  34.495  11.844
27600W        W   25  14.818  43.200   1.298
27601W        W   26  18.582  41.547   4.791
27602W        W   27   9.664  10.336   3.989
27603W        W   28  28.491   0.181  12.922
27604W        W   29  38.444   9.281   0.910
27605W        W   30  19.163  18.444   2.243
27606W        W   31  40.580  11.253  11.047
27607W        W   32   5.223   7.190   2.151
27608W        W   33  16.847  13.288   2.205
27609W        W   34   3.230  12.516  14.287
27610W        W   35   4.438  16.938  10.584
27611W        W   36   6.741  40.934   1.526
27612W        W   37  36.029   7.475   0.543
27613W        W   38  20.337  16.963   4.089
27614W        W   39  15.707  16.879  10.677
27615W        W   40  13.158  11.148   0.248
27616W        W   41  33.884  26.781   1.389
27617W        W   42  15.817  43.825   0.815
27618W        W   43  26.492  13.606   4.468
27619W        W   44   4.479  31.487   3.030
27620W        W   45  22.331   7.846   1.316
27621W        W   46  12.255   6.928  11.047
27622W        W   47   7.990  29.721   3.623
27623W        W   48   9.885   6.696   0.284
27624W        W   49   0.678  17.807   4.717
27625W        W   50  44.282   2.777   2.429
27626W        W   51  43.384  23.119   0.351
27627W        W   52  39.114   6.249  11.208
27628W        W   53  36.404  31.962   3.027
27629W        W   54   1.371  35.882  14.745
27630W        W   55  18.225  35.901  14.460
27631W        W   56  44.843  11.146   2.236
27632W        W   57  13.337  28.607  13.920
27633W        W   58  13.996  21.126  11.446
27634W        W   59  26.521  29.913   3.385
27635W        W   60  16.799   0.476  14.995
27636W        W   61  37.022  21.085   0.802
27637W        W   62  29.199  25.152   0.338
27638W        W   63  36.536  25.947  12.863
27639W        W   64  27.408  43.399   1.908
27640W        W   65  41.394  31.626   2.895
27641W        W   66  28.464  31.392   0.753
27642W        W   67  16.596  30.003   3.731
27643W        W   68   6.619  12.133   0.708
27644W        W   69  40.559   1.488   1.204
27645W        W   70  35.675  35.592   2.869
27646W        W   71  41.385  36.612   4.705
27647W        W   72  21.793  25.529   2.364
27648W        W   73  36.097   3.846  10.675
27649W        W   74   4.914  37.863   4.760
27650W        W   75   3.101   3.700  10.680
27651W        W   76  26.591  25.093   2.216
27652W        W   77  30.588   3.699   3.160
27653W        W   78  12.696  19.776  12.324
27654W        W   79  36.690  35.432   3.104
27655W        W   80  25.729   8.444   4.545
27656W        W   81  33.796  20.599   3.231
27657W        W   82  11.586  11.269  14.151
27658W        W   83   1.442  15.061   2.762
27659W        W   84  20.539   3.200   2.143
27660W        W   85  12.690   7.576   0.416
27661W        W   86  29.103  33.941  14.425
27662W        W   87  11.207  14.255  13.252
27663W        W   88   6.963  23.943  13.881
27664W        W   89  44.035  20.611  10.689
27665W        W   90  12.920  25.944   0.544
27666W        W   91  15.838  30.400   0.969
27667W        W   92  26.560  27.240  11.081
27668W        W   93   7.687  20.540   2.271
27669W        W   94  33.633  15.315   1.224
27670W        W   95  16.555  32.399   1.400
27671W        W   96  20.036  16.066   0.348
27672W        W   97  30.014  23.546   2.667
27673W        W   98  33.980   4.725   3.008
27674W        W   99  17.126  16.294  13.611
27675W        W  100   2.977  40.276  13.167
27676W        W  101  33.058  31.271  14.372
27677W        W  102  43.518  20.255  11.856
27678W        W  103  44.895  37.804  14.302
27679W        W  104   9.913   5.808  11.427
27680W        W  105  15.722  35.093  12.661
27681W        W  106  29.458  42.438  10.938
27682W        W  107  26.089  19.167  13.528
27683W        W  108  38.425  21.271  11.994
27684W        W  109  21.633  40.940  12.187
27685W        W  110  36.118  34.883   1.372
27686W        W  111  25.458   7.926  12.932
27687W        W  112  19.777  39.355  12.919
27688W        W  113  36.376  14.893   0.334
27689W        W  114  23.610  25.746  11.074
27690W        W  115  18.675   8.672   0.317
27691W        W  116  18.382  35.480  10.378
27692W        W  117  14.612  19.963   1.860
27693W        W  118  35.905  42.013  11.695
27694W        W  119   5.222  12.252   0.430
27695W        W  120  31.041  35.378   3.674
27696W        W  121  20.440   3.290   0.860
27697W        W  122  35.449  35.652   3.735
27698W        W  123  23.200  32.633   0.872
27699W        W  124  17.645  10.391   3.186
27700W        W  125   8.572  27.908   4.990
27701W        W  126  37.832  18.651   4.138
27702W        W  127  14.208   1.645  12.335
27703W        W  128  33.074  21.149   4.652
27704W        W  129   8.764  41.942  11.674
27705W        W  130  22.970  33.118   2.695
27706W        W  131   2.511  20.490  13.032
27707W        W  132  15.749   1.745   0.285
27708W        W  133  43.906  31.363   3.257
27709W        W  134  13.840  19.806   0.393
27710W        W  135  35.217  37.936   2.970
27711W        W  136  42.253  30.962  14.050
27712W        W  137  32.114  31.412  11.708
27713W        W  138  31.606  33.421  14.655
27714W        W  139  42.970  24.716   2.688
27715W        W  140  34.814   4.937  10.975
27716W        W  141  11.707   4.855  12.080
27717W        W  142  13.359  42.607  11.424
27718W        W  143   9.577  38.850  13.391
27719W        W  144  14.041  29.552   3.680
27720W        W  145  44.586  16.829   0.045
27721W        W  146  39.124  39.193  14.007
27722W        W  147  35.227  38.066  11.191
27723W        W  148  41.045  44.505   4.944
27724W        W  149  14.198  43.471   4.550
27725W        W  150  24.972   6.794  10.507
27726W        W  151   9.323  20.038  12.344
27727W        W  152  19.281  29.022   4.156
27728W        W  153   7.630   4.942  11.265
27729W        W  154  36.802  16.068   0.291
27730W        W  155  28.018  38.817   0.488
27731W        W  156  39.125  36.892  11.666
27732W        W  157  44.865  39.552   2.881
27733W        W  158  36.505  13.229  13.960
27734W        W  159   5.152  11.526   0.721
27735W        W  160  15.228  18.702  10.737
27736W        W  161  29.441  19.769  13.877
27737W        W  162  17.277  24.010   4.582
27738W        W  163   9.577  21.230   2.117
27739W        W  164  23.076  35.152  10.581
27740W        W  165  32.172  12.896   3.270
27741W        W  166   5.843   1.910  14.980
27742W        W  167  22.611  23.564  14.918
27743W        W  168  31.756  24.105   4.641
27744W        W  169  30.531  34.965  10.568
27745W        W  170  40.854  32.099  11.627
27746W        W  171  34.722  41.462   3.753
27747W        W  172  25.556  39.700   1.351
27748W        W  173  18.737  41.536   1.974
27749W        W  174  16.175  28.315   4.335
27750W        W  175  25.172  25.180  11.436
27751W        W  176  43.855  16.401   0.219
27752W        W  177  41.530   3.967   3.177
27753W        W  178  15.643  18.587  10.437
27754W        W  179  37.202  23.054   5.391
27755W        W  180   2.592   3.747  10.609
27756W        W  181  37.520   5.772   4.442
27757W        W  182   9.362  14.395   4.992
27758W        W  183   5.902  29.901  14.577
27759W        W  184  43.257  33.471  12.534
27760W        W  185  33.217   0.797   3.724
27761W        W  186  26.666   0.779  14.893
27762W        W  187   3.051  10.838  13.825
27763W        W  188  31.661  22.699   2.569
27764W        W  189  26.945  11.581   3.189
27765W        W  190  40.532  39.880  12.162
27766W        W  191  26.704  10.441  12.854
27767W        W  192  26.953  37.377   2.045
27768W        W  193  16.204  32.147  12.511
27769W        W  194  38.381  39.796  14.846
27770W        W  195  36.560  25.024  11.000
27771W        W  196  10.589  28.423   1.404
27772W        W  197  33.432  42.998   4.599
27773W        W  198   8.344  39.037   0.368
27774W        W  199  21.075  12.052   4.576
27775W        W  200   7.825  18.063  10.939
27776W        W  201   4.351  11.740   0.342
27777W        W  202  31.419  38.295  11.068
27778W        W  203  24.524   2.820   2.388
27779W        W  204  16.813  43.966   1.228
27780W        W  205  18.271  32.245   5.461
27781W        W  206   0.753  26.126  14.905
27782W        W  207  19.809  28.915  11.952
27783W        W  208  40.694  44.345   3.258
27784W        W  209  26.786   7.955  13.898
27785W        W  210  27.854  44.899   4.716
27786W        W  211  21.390   8.324   1.264
27787W        W  212  30.659  13.903  12.043
27788W        W  213  15.267   3.854   4.743
27789W        W  214  25.764   5.096   2.909
27790W        W  215  16.221  18.336  11.563
27791W        W  216  22.707  12.559  10.088
27792W        W  217  39.486   8.840  12.842
27793W        W  218  41.445  11.641  12.540
27794W        W  219  23.671  23.133   3.601
27795W        W  220  44.878  23.585  12.749
27796W        W  221  39.879  15.764   3.717
27797W        W  222   2.740  23.665   4.536
27798W        W  223  25.481  24.764  13.558
27799W        W  224  21.283  39.944   3.037
27800W        W  225   5.151  25.471   2.360
27801W        W  226  25.034   8.916  12.084
27802W        W  227  30.007   6.299   4.356
27803W        W  228  10.726  26.664   1.917
27804W        W  229  43.792  17.757  10.736
27805W        W  230  25.634  30.485   3.514
27806W        W  231  26.431  15.309   3.278
27807W        W  232  11.221  23.822   0.379
27808W        W  233   4.434  28.202   3.764
27809W        W  234  24.492  35.950   0.498
27810W        W  235   2.160   3.760   0.320
27811W        W  236  17.283  25.172  13.509
27812W        W  237  25.543  26.697   0.710
27813W        W  238  13.171  39.899  10.285
27814W        W  239  30.515  18.007   4.598
27815W        W  240  39.976  40.649  14.318
27816W        W  241  36.014  22.892   4.634
27817W        W  242  28.717  41.401   1.470
27818W        W  243  18.507   0.797   4.785
27819W        W  244   1.967  13.719   3.217
27820W        W  245  39.768  30.704  13.479
27821W        W  246   8.685  33.511   2.193
27822W        W  247   2.292  30.639  12.532
27823W        W  248  31.582  30.009   3.952
27824W        W  249  39.600  18.169  14.830
27825W        W  250  44.058  37.082  12.594
27826W        W  251   4.268   4.709   2.178
27827W        W  252  32.258   1.377  11.563
27828W        W  253  18.293  39.416   1.610
27829W        W  254   8.767  32.407  14.807
27830W        W  255  10.618  17.218  11.335
27831W        W  256  30.155  27.624  12.046
27832W        W  257  25.923  32.016   4.409
27833W        W  258   6.209   2.136   3.102
27834W        W  259  42.883  33.454   0.317
27835W        W  260  11.516   8.307  10.254
27836W        W  261  17.304   1.826  12.044
27837W        W  262  39.818  37.087   3.707
27838W        W  263  30.424  10.252   1.744
27839W        W  264   5.448  12.676   1.251
27840W        W  265  39.134  22.062   4.502
27841W        W  266  31.995   8.748  14.308
27842W        W  267   9.489   9.118   1.642
27843W        W  268   1.572  23.230  12.741
27844W        W  269  18.329   6.418   4.350
27845W        W  270  15.698   3.327   2.198
27846W        W  271   4.736  39.367  11.584
27847W        W  272  10.014  10.299  10.604
27848W        W  273  38.934  24.458  14.827
27849W        W  274   1.758  13.125  12.095
27850W        W  275  13.283   9.790  12.075
27851W        W  276   6.787   3.806  13.479
27852W        W  277  31.412   7.205   3.719
27853W        W  278  40.780  28.091  14.766
27854W        W  279  20.879  17.139   3.720
27855W        W  280   6.865  30.469   1.907
27856W        W  281  30.574  13.410   4.083
27857W        W  282  23.701  27.089  14.893
27858W        W  283  24.274  33.388  13.427
27859W        W  284  41.982  30.389   4.113
27860W        W  285  10.240  21.231   0.337
27861W        W  286  44.819  21.215   4.920
27862W        W  287   9.805   5.705   0.646
27863W        W  288  16.392  12.897  13.816
27864W        W  289  10.122  16.078  12.430
27865W        W  290  26.081  21.535  12.421
27866W        W  291  42.497  34.905  10.988
27867W        W  292  36.849  33.099   1.237
27868W        W  293  13.500  30.610   2.875
27869W        W  294  21.727   4.495   4.622
27870W        W  295   1.003  23.441  11.220
27871W        W  296  23.283  35.883   4.098
27872W        W  297  43.721   2.282  13.719
27873W        W  298  42.967  37.912  11.631
27874W        W  299  20.028  31.538   2.863
27875W        W  300  41.560  19.368  11.724
27876W        W  301  27.010   6.531   0.767
27877W        W  302   4.550  32.501   1.389
27878W        W  303  35.934  23.000  14.877
27879W        W  304  26.691  25.005  11.202
27880W        W  305  31.415  44.684  12.843
27881W        W  306   4.856  28.138   0.925
27882W        W  307   3.976  10.853   3.994
27883W        W  308  20.230  42.102  13.892
27884W        W  309  32.588  37.519   1.176
27885W        W  310  18.548  20.822  12.101
27886W        W  311  18.584  42.492  12.942
27887W        W  312  10.618  40.778   2.856
27888W        W  313  42.917  15.027  14.874
27889W        W  314   8.703  11.761  11.665
27890W        W  315   5.769   0.902  13.799
27891W        W  316   3.705  30.716   4.370
27892W        W  317   5.713  10.201  14.073
27893W        W  318   5.570  39.376  14.447
27894W        W  319  42.345  39.096  11.535
27895W        W  320   0.385   8.729   1.047
27896W        W  321   1.018  31.833  11.094
27897W        W  322  29.152  25.189   4.728
27898W        W  323  39.489  30.095   2.623
27899W        W  324  43.786  35.418  14.968
27900W        W  325  19.216   9.632  11.561
27901W        W  326  34.399  24.809  13.346
27902W        W  327  23.568   0.119   3.189
27903W        W  328   7.871   1.362  13.110
27904W        W  329   0.939  27.945  13.007
27905W        W  330  40.791   5.084   1.211
27906W        W  331   7.765  26.196   1.830
27907W        W  332   3.243   7.847  12.575
27908W        W  333  20.659  18.179  13.847
27909W        W  334  39.130   6.710  10.696
27910W        W  335  41.802  18.070   4.522
27911W        W  336  11.022  12.815  13.635
27912W        W  337   6.457  29.025  10.660
27913W        W  338  17.710   9.202   0.420
27914W        W  339  31.550  31.113  10.665
27915W        W  340  44.393  40.365   3.114
27916W        W  341  10.284  11.958   0.872
27917W        W  342  33.382  18.265  10.703
27918W        W  343  42.744  22.004  11.188
27919W        W  344   5.854  30.966  11.599
27920W        W  345   7.707   3.830   4.190
27921W        W  346  15.370  12.637  14.306
27922W        W  347  11.863  36.508   1.229
27923W        W  348  30.887  18.034   2.893
27924W        W  349  33.960   7.786  14.942
27925W        W  350  22.497  21.082  13.874
27926W        W  351  27.225  43.822   4.267
27927W        W  352   8.188   4.868   0.985
27928W        W  353  40.793   9.937  12.469
27929W        W  354  23.770  42.454   3.161
27930W        W  355  25.077  43.942   4.592
27931W        W  356   9.766   8.267  11.138
27932W        W  357  12.739  21.518   3.531
27933W        W  358  39.407   8.388  12.583
27934W        W  359  29.403  28.581  13.354
27935W        W  360  43.190  10.429   1.215
27936W        W  361   6.801  35.898   4.271
27937W        W  362  12.327   0.324   2.695
27938W        W  363   0.199   9.087  14.809
27939W        W  364  25.128  33.991  11.647
27940W        W  365  28.732  42.801  14.971
27941W        W  366  42.667   4.929   2.834
27942W        W  367  41.123  37.231   4.349
27943W        W  368  22.746   4.671  11.971
27944W        W  369  18.177   2.487   5.022
27945W        W  370  28.410  38.397  14.543
27946W        W  371  24.511  39.951   3.816
27947W        W  372  29.538  40.521  14.807
27948W        W  373  29.002  14.812  11.552
27949W        W  374   2.736  29.423  12.552
27950W        W  375  41.969  14.362  11.591
27951W        W  376   7.488  43.154  10.145
27952W        W  377  33.408  16.658  11.561
27953W        W  378   0.161  11.766  14.715
27954W        W  379   1.808  20.772  11.938
27955W        W  380  22.286  19.130  11.482
27956W        W  381  25.431  17.027   3.034
27957W        W  382   4.033  31.181  11.074
27958W        W  383  22.088  31.190   4.632
27959W        W  384  19.098   7.973  14.120
27960W        W  385  17.761  19.979  14.010
27961W        W  386  11.765  21.777   0.009
27962W        W  387  17.862   9.138   4.108
27963W        W  388  37.733  12.065   0.095
27964W        W  389  39.608  25.092  14.011
27965W        W  390  29.099  27.992  10.633
27966W        W  391  26.880  44.452  11.288
27967W        W  392  28.757  23.805   4.341
27968W        W  393  22.139  43.008   2.880
27969W        W  394  39.579  29.991   0.183
27970W        W  395  21.814   4.636  12.080
27971W        W  396   7.378  40.622   0.283
27972W        W  397  31.479   7.458  11.327
27973W        W  398  28.411  36.956  10.701
27974W        W  399   8.367   0.490  13.927
27975W        W  400  25.002  16.123   3.361
27976W        W  401  37.927  13.823   1.749
27977W        W  402  28.121  14.065  13.018
27978W        W  403  25.299  37.369  11.161
27979W        W  404  28.725  42.835  14.065
27980W        W  405  15.740  43.879   5.198
27981W        W  406   9.220  29.043  13.291
27982W        W  407   4.402  12.821  12.595
27983W        W  408  28.555  32.840   0.299
27984W        W  409   5.893  20.528  14.555
27985W        W  410  18.013  19.766  12.976
27986W        W  411  28.035  24.026  11.698
27987W        W  412  41.821  11.424   3.059
27988W        W  413  30.782  35.883  14.423
27989W        W  414  23.403   6.526   1.225
27990W        W  415  29.407   6.709   0.806
27991W        W  416  33.118   1.996  11.197
27992W        W  417  26.525  23.683  10.313
27993W        W  418  12.754  10.878   0.448
27994W        W  419   4.648  35.012  13.863
27995W        W  420   7.451  44.452  11.213
27996W        W  421  18.719  44.357  13.124
27997W        W  422   8.783  35.017   1.301
27998W        W  423   2.315  27.951  10.468
27999W        W  424  22.151  37.637   0.267
28000W        W  425   0.902  12.861  14.472
28001W        W  426  41.194  17.254  11.510
28002W        W  427   9.135  38.216   3.114
28003W        W  428  40.827  25.676   0.078
28004W        W  429  35.803  41.582  10.600
28005W        W  430   6.203   1.700  14.305
28006W        W  431  36.919   9.338   1.228
28007W        W  432  25.276  32.721   3.653
28008W        W  433  35.088  38.118  14.997
28009W        W  434  39.614  10.717   0.348
28010W        W  435  21.718  39.151  11.095
28011W        W  436   6.862  40.337  11.882
28012W        W  437   5.305  42.405   0.352
28013W        W  438  43.962  37.693  12.576
28014W        W  439   1.651  10.409   0.419
28015W        W  440  23.642   3.462  10.403
28016W        W  441   8.292   1.786   2.413
28017W        W  442  40.340   4.429  14.834
28018W        W  443  23.442   1.533   4.145
28019W        W  444  36.642  27.242   3.646
28020W        W  445  35.254  41.368   5.083
28021W        W  446  19.976  23.673   0.330
28022W        W  447  39.420  44.989   3.507
28023W        W  448  36.695  41.967   2.850
28024W        W  449  39.954  40.282  10.472
28025W        W  450  22.577   6.613   1.352
28026W        W  451  20.497  28.634   4.455
28027W        W  452  10.685   0.821  12.549
28028W        W  453   9.080  34.663   4.880
28029W        W  454  19.818  27.556   3.692
28030W        W  455   2.216   5.147   1.705
28031W        W  456  30.108   8.457  13.056
28032W        W  457  14.316  18.621   0.011
28033W        W  458  32.514   6.485  12.641
28034W        W  459  44.233  21.087   3.664
28035W        W  460  18.728  39.252  10.351
28036W        W  461   5.241  30.653  14.905
28037W        W  462  20.650  17.108   2.380
28038W        W  463  16.136  35.895  11.841
28039W        W  464  43.295  42.343  12.825
28040W        W  465   1.860  24.645  12.822
28041W        W  466  44.232  18.072  14.710
28042W        W  467   5.161  35.881   2.948
28043W        W  468  11.924  35.924   4.632
28044W        W  469  16.597   4.261  11.892
28045W        W  470  38.769  12.825   0.740
28046W        W  471   7.888  44.245   3.692
28047W        W  472   1.925  18.207   1.344
28048W        W  473  32.902  20.219   0.141
28049W        W  474  38.041  29.895  12.538
28050W        W  475  25.605  15.089   1.828
28051W        W  476  11.811  34.097  14.595
28052W        W  477   9.605  40.000   4.587
28053W        W  478  40.876  18.564   0.865
28054W        W  479   5.172  27.015   2.838
28055W        W  480  16.621  24.735   2.355
28056W        W  481  14.704   7.812  14.430
28057W        W  482  25.166   8.680   0.251
28058W        W  483  40.522  10.493  12.955
28059W        W  484  24.488  37.542   2.675
28060W        W  485   1.932   8.003   3.774
28061W        W  486  37.097   6.326   3.316
28062W        W  487  17.669  41.870   0.942
28063W        W  488  32.072  40.989  13.156
28064W        W  489  40.287  29.978  12.964
28065W        W  490  34.944  16.947   2.061
28066W        W  491  32.845   9.626  14.911
28067W        W  492   6.285  24.006   4.730
28068W        W  493  28.157  35.527  13.444
28069W        W  494   8.885  35.520   4.524
28070W        W  495   3.275  29.926   0.711
28071W        W  496   7.807  30.518   1.757
28072W        W  497   3.905  11.276   3.392
28073W        W  498  40.027   2.655   3.744
28074W        W  499  34.711   0.002   3.397
28075W        W  500  16.291  16.379  13.550
28076W        W  501  32.589  34.407   3.841
28077W        W  502  36.148   7.172   4.131
28078W        W  503   8.726   1.748   0.588
28079W        W  504  12.786  25.321   4.874
28080W        W  505   1.465  20.431  11.692
28081W        W  506   4.966  19.172  14.324
28082W        W  507  31.193  25.534   1.303
28083W        W  508   1.968   6.441  10.786
28084W        W  509  34.940  28.891   4.124
28085W        W  510  25.969  13.390   1.963
28086W        W  511  44.602  39.436   1.525
28087W        W  512  44.652  14.145   1.620
28088W        W  513  23.193  42.906   2.744
28089W        W  514   8.442  21.139  14.448
28090W        W  515  10.149  12.634  12.077
28091W        W  516  34.090  20.625  13.073
28092W        W  517   2.047  13.297  11.703
28093W        W  518  23.721   7.781   4.704
28094W        W  519   9.739  43.515   3.180
28095W        W  520  44.891  39.903   1.485
28096W        W  521  12.789  29.678   4.505
28097W        W  522  12.864   3.929  13.619
28098W        W  523  41.415  10.714   0.021
28099W        W  524   0.674  17.603  10.631
28100W        W  525  22.513  42.432   4.924
28101W        W  526   3.684  22.109   4.295
28102W        W  527  44.925  15.109   2.792
28103W        W  528  41.522  17.156  14.209
28104W        W  529   9.436   7.154  12.080
28105W        W  530  30.470   8.601  14.380
28106W        W  531  16.159   5.758  13.403
28107W        W  532   8.643  12.836   3.188
28108W        W  533  25.426  26.064  10.626
28109W        W  534  33.061  10.770   2.175
28110W        W  535  27.979  38.322   1.242
28111W        W  536  32.108  23.354  10.228
28112W        W  537  32.992  32.993  13.746
28113W        W  538  16.095  12.836  12.060
28114W        W  539  19.518  13.152  13.540
28115W        W  540  30.455   6.241   0.416
28116W        W  541  30.016  16.896   2.373
28117W        W  542   2.761   3.843  11.081
28118W        W  543  10.123  24.001  10.902
28119W        W  544  25.001  17.094   3.318
28120W        W  545  13.227   9.793  10.739
28121W        W  546  30.638   0.561   0.918
28122W        W  547  40.498  22.668  12.785
28123W        W  548  41.012  19.822   4.205
28124W        W  549  42.916   8.232   3.290
28125W        W  550  41.845   5.236  11.495
28126W        W  551  37.025  25.565   4.717
28127W        W  552  35.952  42.812   1.169
28128W        W  553  44.800  42.423   4.368
28129W        W  554  33.854  15.287  13.506
28130W        W  555  30.099  20.829  13.079
28131W        W  556   6.597  44.871   4.538
28132W        W  557  10.031   7.891  14.911
28133W        W  558  11.308  34.688  11.900
28134W        W  559  40.094  11.680   4.089
28135W        W  560  20.219  12.858   3.740
28136W        W  561  44.327  31.369   1.608
28137W        W  562   3.040  42.554  13.791
28138W        W  563   5.982  18.756   0.058
28139W        W  564   8.308  34.454   1.779
28140W        W  565   4.838  26.414   0.344
28141W        W  566  27.608  26.783   2.754
28142W        W  567  20.745  26.638  14.952
28143W        W  568  44.853  33.790   3.360
28144W        W  569  12.673  33.587   0.153
28145W        W  570   9.650   8.783   4.215
28146W        W  571   2.219   9.821  11.179
28147W        W  572  36.709  40.428   0.026
28148W        W  573  20.326  13.119   4.246
28149W        W  574   1.414  27.519   0.770
28150W        W  575  42.970  31.573  10.798
28151W        W  576  34.078  36.489  11.942
28152W        W  577  30.703  27.105  10.658
28153W        W  578  41.722  25.608  14.201
28154W        W  579  40.090   1.399   0.280
28155W        W  580  31.439  12.726  11.113
28156W        W  581  35.522  15.326   0.535
28157W        W  582  34.047  11.791  10.775
28158W        W  583  43.847   8.661  11.952
28159W        W  584  37.223  16.326  12.917
28160W        W  585  39.335  13.680  12.356
28161W        W  586  15.587  35.941  13.151
28162W        W  587  22.519  16.077  14.635
28163W        W  588   5.471  43.883   3.703
28164W        W  589   2.383  12.131  12.505
28165W        W  590  18.066   6.765  11.647
28166W        W  591  44.906  36.952  14.945
28167W        W  592   5.196  24.537   0.399
28168W        W  593   1.740  39.080   4.253
28169W        W  594  15.694   4.765  12.021
28170W        W  595  33.603   0.433  14.769
28171W        W  596  34.389  19.659  13.056
28172W        W  597  25.600   8.173   2.161
28173W        W  598  14.104  15.243   1.852
28174W        W  599   0.932  44.248  11.658
28175W        W  600  33.284  12.083   1.970
28176W        W  601  13.815  39.989  12.202
28177W        W  602  40.109  15.871  11.687
28178W        W  603  27.931  22.845   0.553
28179W        W  604  24.525  31.371  14.207
28180W        W  605  30.656  30.926  13.632
28181W        W  606  44.059  18.618  11.191
28182W        W  607  17.567  30.096  10.703
28183W        W  608   3.338  39.895   0.016
28184W        W  609  43.945  15.827  12.889
28185W        W  610  25.685  23.295  14.508
28186W        W  611  25.956  11.225   2.650
28187W        W  612   0.202   5.660  12.583
28188W        W  613  35.024  24.415   4.706
28189W        W  614  15.167  32.717  10.535
28190W        W  615  32.475  15.559  13.418
28191W        W  616  16.790   5.349   1.359
28192W        W  617  34.990  21.848   2.228
28193W        W  618   3.915  17.403  11.905
28194W        W  619  41.275   3.919   2.716
28195W        W  620  43.383  30.886   4.339
28196W        W  621   1.226  17.388   1.149
28197W        W  622  28.670   0.364  14.299
28198W        W  623  10.173   8.265  12.926
28199W        W  624   6.153  28.272   1.284
28200W        W  625  35.156  15.251   3.382
28201W        W  626  25.688  25.605   3.800
28202W        W  627  36.914   1.898  13.368
28203W        W  628   3.272  25.899   1.905
28204W        W  629  24.704   7.496  11.418
28205W        W  630  39.390  17.642  13.121
28206W        W  631  18.607  15.611  14.577
28207W        W  632  42.673  17.370   1.218
28208W        W  633  22.969  42.552   0.796
28209W        W  634   8.964   4.403   2.803
28210W        W  635  14.572  30.654  14.495
28211W        W  636  31.133   3.794   3.024
28212W        W  637  22.139  11.186  14.689
28213W        W  638   6.016   9.347   2.217
28214W        W  639  41.919  42.582  14.455
28215W        W  640  27.524  40.413  11.668
28216W        W  641  20.789   0.694   4.137
28217W        W  642   5.848   4.378  10.756
28218W        W  643  13.320   4.344   1.818
28219W        W  644  32.397  37.036  13.390
28220W        W  645  38.119  22.206   4.722
28221W        W  646  16.117  43.585  13.803
28222W        W  647  24.029   6.584   3.743
28223W        W  648  29.561  27.022  14.726
28224W        W  649  42.383  37.841   3.195
28225W        W  650  22.058   2.700   3.185
28226W        W  651  28.705  30.009  13.751
28227W        W  652  43.922  29.182   4.870
28228W        W  653  34.023  40.175  13.962
28229W        W  654   0.757  43.802   2.363
28230W        W  655  14.202   0.434   4.004
28231W        W  656   8.860  43.534  11.249
28232W        W  657  21.197  33.817  10.563
28233W        W  658  32.199  37.822   3.240
28234W        W  659   4.463   8.276   1.083
28235W        W  660  18.701  16.186   1.510
28236W        W  661  17.293  14.017   2.946
28237W        W  662  14.601   4.476   3.773
28238W        W  663  41.031  43.352  13.612
28239W        W  664  32.657  29.060  13.330
28240W        W  665  19.488   2.303   4.633
28241W        W  666  17.335  24.089   3.100
28242W        W  667  14.498  34.382  12.861
28243W        W  668  44.549  35.403   3.765
28244W        W  669  19.993  22.143  11.081
28245W        W  670   0.513  21.252  14.873
28246W        W  671  23.077  15.144  14.434
28247W        W  672  27.763  31.367  14.816
28248W        W  673  20.302  42.362   2.714
28249W        W  674   4.022  35.039   4.069
28250W        W  675  30.207  30.106   0.688
28251W        W  676  17.167  21.116  10.141
28252W        W  677  42.723  35.394  10.490
28253W        W  678  16.750  33.972  12.419
28254W        W  679  12.453  43.323   3.266
28255W        W  680  19.814  33.083   1.067
28256W        W  681  39.465  32.949  13.966
28257W        W  682  43.026  35.487  12.761
28258W        W  683  35.834  27.426   1.030
28259W        W  684  21.219  41.864   0.891
28260W        W  685   4.225  40.747  11.482
28261W        W  686  23.989  16.299   1.252
28262W        W  687  40.955  32.153   1.806
28263W        W  688  11.880  36.003   1.059
28264W        W  689   9.740  12.082  11.961
28265W        W  690  19.610  13.335  11.981
28266W        W  691  32.216   5.190  11.654
28267W        W  692   3.479  32.692   3.353
28268W        W  693  13.363  14.075  13.943
28269W        W  694   5.827  10.381   3.147
28270W        W  695  10.813   0.353  13.317
28271W        W  696   0.476  19.739   0.339
28272W        W  697   3.385  13.395   0.309
28273W        W  698   9.414  36.214   5.059
28274W        W  699  44.637   1.385   2.817
28275W        W  700  28.935  43.385   2.122
28276W        W  701   1.714  44.377   1.995
28277W        W  702  38.171  39.922  11.983
28278W        W  703  32.872  43.433  11.577
28279W        W  704  21.281  35.289  13.443
28280W        W  705  26.501  42.974   4.074
28281W        W  706  37.637  44.802  11.845
28282W        W  707  24.479  32.606   3.159
28283W        W  708  38.896  18.477   3.238
28284W        W  709   2.491   6.421  12.082
28285W        W  710  26.183  13.811   0.895
28286W        W  711  40.503  32.468   4.877
28287W        W  712   6.473  29.509  13.793
28288W        W  713  15.934  12.745   1.195
28289W        W  714  17.116  26.405   4.687
28290W        W  715  40.626  12.057  11.202
28291W        W  716  15.771  26.951  11.919
28292W        W  717   4.971  17.628   2.114
28293W        W  718   5.304  31.598  13.818
28294W        W  719  21.607  13.750  14.046
28295W        W  720   0.465  14.715   3.318
28296W        W  721  22.775  44.819  11.673
28297W        W  722   2.023   6.746   1.369
28298W        W  723  16.689   3.443   3.262
28299W        W  724  23.915  16.544  12.218
28300W        W  725  44.972   5.737   2.353
28301W        W  726  21.046   0.954  11.033
28302W        W  727  24.494  23.544   4.417
28303W        W  728   5.858  14.175  10.431
28304W        W  729  21.401   3.948  12.519
28305W        W  730  44.009  25.341  10.322
28306W        W  731  10.050  19.269   2.259
28307W        W  732  16.484  35.156   0.752
28308W        W  733  12.212   0.216  12.497
28309W        W  734  24.508  17.293   3.085
28310W        W  735  12.395   7.340  14.392
28311W        W  736  35.247   9.559   1.713
28312W        W  737  17.201  13.256   4.952
28313W        W  738  21.095  40.325  10.330
28314W        W  739  36.998  35.434   2.361
28315W        W  740  33.506  30.433   4.223
28316W        W  741  32.162  17.571  11.148
28317W        W  742  41.832   6.736   1.731
28318W        W  743  37.013  22.162   5.407
28319W        W  744   5.212   0.825   4.578
28320W        W  745   2.247  37.826  11.978
28321W        W  746  25.226  37.439  14.232
28322W        W  747  36.103  24.079  12.388
28323W        W  748  32.415  36.044  12.443
28324W        W  749   8.623  38.451  13.840
28325W        W  750  37.412  15.192  10.743
28326W        W  751  36.056  38.035   1.736
28327W        W  752   5.347   2.390   1.841
28328W        W  753   2.282  32.003  14.988
28329W        W  754   8.519  27.722   0.387
28330W        W  755  28.715  16.679  14.791
28331W        W  756   7.168  14.237  11.225
28332W        W  757  24.576   3.398   0.965
28333W        W  758  15.221  14.831   2.739
28334W        W  759  26.948  21.714  14.695
28335W        W  760  44.092  40.982   2.605
28336W        W  761   5.727  38.809  13.045
28337W        W  762   6.441  16.828  11.600
28338W        W  763   2.939   4.706   0.411
28339W        W  764   0.977  36.838  13.846
28340W        W  765  35.381  32.017   0.786
28341W        W  766   1.272   9.851  13.040
28342W        W  767   8.891  36.831   4.226
28343W        W  768  44.698  18.736  14.203
28344W        W  769  30.805   6.944  12.072
28345W        W  770  17.834  17.753   1.760
28346W        W  771   3.084  28.199  10.749
28347W        W  772   2.379  43.019   2.543
28348W        W  773  17.046  33.379   3.312
28349W        W  774  29.533  20.144  13.531
28350W        W  775  41.441   4.169   2.271
28351W        W  776   2.285  25.953   4.613
28352W        W  777  36.690  22.126  14.300
28353W        W  778  44.776   0.748   3.840
28354W        W  779   9.808  29.480  13.781
28355W        W  780   8.696   2.951   2.139
28356W        W  781  23.474  10.384  14.711
28357W        W  782  19.057   4.019  14.888
28358W        W  783   4.253   1.243  10.376
28359W        W  784  40.535   6.445   3.642
28360W        W  785  11.704  18.315   3.349
28361W        W  786   8.741   2.899  13.030
28362W        W  787  28.414  24.200   0.308
28363W        W  788  31.316   1.511   0.512
28364W        W  789   3.134  15.716  14.418
28365W        W  790  40.254   3.497   2.187
28366W        W  791  24.598   3.224  12.848
28367W        W  792  38.442  26.502   1.459
28368W        W  793  28.268  22.196  10.794
28369W        W  794  15.830  27.789   3.714
28370W        W  795  15.738  18.391  12.499
28371W        W  796  18.731  42.185   2.774
28372W        W  797   2.716  10.291  11.462
28373W        W  798  35.448  37.055   3.762
28374W        W  799  23.118  39.833  14.434
28375W        W  800   7.070  35.482  13.022
28376W        W  801  44.277  31.904  12.973
28377W        W  802  21.061  20.263   4.567
28378W        W  803   7.443   1.996   0.480
28379W        W  804  34.658   6.194   4.519
28380W        W  805  25.158  17.596  14.003
28381W        W  806  27.586   2.427   4.128
28382W        W  807   7.878  38.229  12.014
28383W        W  808  39.511  43.156   1.704
28384W        W  809  27.567  30.217  11.016
28385W        W  810  31.255  41.424   1.305
28386W        W  811  42.575  19.671  12.622
28387W        W  812   5.646  23.894  14.019
28388W        W  813   7.529  14.621  13.287
28389W        W  814   1.685   8.320   4.109
28390W        W  815  11.277  37.560   2.108
28391W        W  816  40.950  41.746   4.049
28392W        W  817  36.813   8.881   1.464
28393W        W  818  42.908   8.459  12.185
28394W        W  819   0.895  11.552   2.491
28395W        W  820  29.003  24.155   0.389
28396W        W  821   2.323  34.989  11.686
28397W        W  822  38.565  31.358   0.856
28398W        W  823  36.561  32.415   3.277
28399W        W  824  44.918  28.554   1.339
28400W        W  825  16.551  37.426   4.529
28401W        W  826  29.170   7.965   4.032
28402W        W  827  13.092  15.730   1.909
28403W        W  828  24.776  42.034   0.941
28404W        W  829  26.011   4.728  12.548
28405W        W  830   6.054   6.870   4.729
28406W        W  831  31.196  16.738  10.635
28407W        W  832  23.257   0.000  10.498
28408W        W  833   8.182   5.939   0.850
28409W        W  834   8.605  34.519  11.926
28410W        W  835  17.244  37.082   1.905
28411W        W  836   7.462  11.682  11.674
28412W        W  837  39.910  19.078  14.999
28413W        W  838  16.403   8.732  14.390
28414W        W  839   8.778  23.449   3.890
28415W        W  840  22.108  15.675   1.140
28416W        W  841  18.814  32.609   2.846
28417W        W  842  12.692  19.836   2.212
28418W        W  843  21.920  21.214  13.033
28419W        W  844  28.117  43.112  11.521
28420W        W  845  40.949  25.634   4.187
28421W        W  846  21.121  13.019   2.187
28422W        W  847  26.154  30.110  11.100
28423W        W  848  42.465  21.558   2.913
28424W        W  849  43.852  38.070  11.414
28425W        W  850  20.092  12.223   0.705
28426W        W  851  29.493  25.661  11.597
28427W        W  852  36.003  24.122  11.443
28428W        W  853  40.712  22.264   0.138
28429W        W  854  26.972  42.465  12.649
28430W        W  855  21.626  15.655  13.537
28431W        W  856  28.867  17.178   0.350
28432W        W  857  11.848  16.634  14.362
28433W        W  858  14.814  18.542   1.725
28434W        W  859  24.971   9.849   2.082
28435W        W  860   6.819   0.236   4.248
28436W        W  861   2.173  30.410  11.693
28437W        W  862   4.962  42.475  13.842
28438W        W  863  26.047  22.927   1.783
28439W        W  864   9.306  21.690   0.317
28440W        W  865  29.625  28.781  11.587
28441W        W  866  22.330  34.918   4.283
28442W        W  867  12.987  28.949   4.116
28443W        W  868  17.280   1.888  12.890
28444W        W  869  26.111  26.921  12.077
28445W        W  870  38.867  21.351  14.014
28446W        W  871   5.864  35.914   1.561
28447W        W  872  25.162  29.403   0.837
28448W        W  873  32.836   2.906  10.899
28449W        W  874   6.223  14.679   3.845
28450W        W  875  33.415  36.403  12.596
28451W        W  876   8.678  25.910   1.368
28452W        W  877  31.987  26.642  12.333
28453W        W  878  33.084  26.591   5.224
28454W        W  879  11.221  29.261  11.487
28455W        W  880  13.872  18.168  10.643
28456W        W  881  12.762  27.143  14.876
28457W        W  882   6.350  43.845   3.437
28458W        W  883  21.037  34.603   0.397
28459W        W  884  37.730  15.824  11.075
28460W        W  885  24.582  31.170   1.399
28461W        W  886  16.756  33.523  10.735
28462W        W  887  29.596   4.041   3.772
28463W        W  888   4.143   8.278   0.682
28464W        W  889  10.877   1.277  12.820
28465W        W  890  21.071  16.664  14.260
28466W        W  891  29.119  22.235   4.931
28467W        W  892  25.982  41.351   0.936
28468W        W  893  22.485  13.384   4.110
28469W        W  894  26.725  37.437   0.289
28470W        W  895   8.915  10.302  13.534
28471W        W  896  17.842  39.540   2.696
28472W        W  897  29.129  43.732   4.777
28473W        W  898  16.241  44.788   1.439
28474W        W  899  33.354  19.325   4.101
28475W        W  900  12.863  11.336   3.234
28476W        W  901  27.564  31.620   4.841
28477W        W  902   8.389  14.571  12.906
28478W        W  903  20.280  15.274   0.685
28479W        W  904  11.877  41.248   2.852
28480W        W  905   0.998  13.581  13.539
28481W        W  906   3.846   1.480  14.500
28482W        W  907   4.433  34.459  10.867
28483W        W  908  10.198  20.745  13.350
28484W        W  909  34.994   3.704   3.656
28485W        W  910   2.900   8.598  11.593
28486W        W  911   7.020  32.923   4.786
28487W        W  912  12.128  13.876  13.956
28488W        W  913  31.416   2.634  14.474
28489W        W  914  39.531  37.018   0.451
28490W        W  915   9.787  28.870  10.665
28491W        W  916  15.132  13.061   4.797
28492W        W  917  31.093  31.696   4.858
28493W        W  918  21.633  31.426   3.388
28494W        W  919  13.723  35.402   1.410
28495W        W  920  18.212  21.257   4.823
28496W        W  921  22.364  22.972  14.734
28497W        W  922   6.863  40.545  14.539
28498W        W  923  25.674  27.555  13.455
28499W        W  924  10.886  39.814  11.089
28500W        W  925  28.071  26.201   5.109
28501W        W  926  37.129   0.746   4.249
28502W        W  927   6.807  29.985  11.182
28503W        W  928  25.671  28.921  11.199
28504W        W  929   3.507   9.700  14.053
28505W        W  930  32.901  18.510   1.115
28506W        W  931  19.123   1.178  11.996
28507W        W  932  31.891  26.708   3.005
28508W        W  933   3.302  15.275   0.283
28509W        W  934  41.833  13.820  14.395
28510W        W  935  22.500  33.151   4.325
28511W        W  936   9.573   4.413  12.454
28512W        W  937  17.034  34.961  12.556
28513W        W  938  23.621  40.427  14.079
28514W        W  939  18.768  16.202  11.491
28515W        W  940  22.505  10.542   0.315
28516W        W  941  23.382  18.671  12.462
28517W        W  942  37.398   9.720  13.564
28518W        W  943  36.639   5.004  13.071
28519W        W  944  34.934  26.350  11.366
28520W        W  945  38.475  25.434   1.157
28521W        W  946  24.669  17.072   4.061
28522W        W  947   9.614  23.390   2.882
28523W        W  948   5.137  41.962  11.907
28524W        W  949  38.368  43.858   3.338
28525W        W  950  28.690  28.113  13.609
28526W        W  951  22.518   9.349  14.650
28527W        W  952  37.369  29.525   4.664
28528W        W  953  18.584  23.907  14.868
28529W        W  954  12.677   8.768  12.309
28530W        W  955   4.378   7.319  11.405
28531W        W  956  11.269  29.665   2.929
28532W        W  957   5.319  12.387   4.548
28533W        W  958  10.686   6.735   5.380
28534W        W  959  19.415   1.288  11.387
28535W        W  960   4.782  12.068  10.398
28536W        W  961  32.623  21.281   3.225
28537W        W  962   5.896  34.541   2.906
28538W        W  963  31.070  32.941   2.128
28539W        W  964  32.073  25.797  14.953
28540W        W  965   9.330  37.311   3.279
28541W        W  966   7.452   1.833   1.841
28542W        W  967  17.397  11.375   1.797
28543W        W  968  11.722   3.275   1.889
28544W        W  969   4.784   5.456   4.117
28545W        W  970  38.761   9.655   2.819
28546W        W  971  39.600  10.319  11.145
28547W        W  972  19.771  40.493   2.699
28548W        W  973  13.533  12.741   0.449
28549W        W  974  19.163  36.040  14.847
28550W        W  975  18.440  36.104  11.075
28551W        W  976  20.049   9.858   3.256
28552W        W  977  16.827  28.083   0.983
28553W        W  978  20.984  42.436   4.986
28554W        W  979  34.140  35.462  13.864
28555W        W  980  16.710   2.440   1.236
28556W        W  981  19.453  15.251  12.807
28557W        W  982  39.066   8.575   5.079
28558W        W  983   0.555  12.100   4.990
28559W        W  984  23.507  26.678  11.101
28560W        W  985  21.483  22.526   4.328
28561W        W  986  34.471   7.314  13.380
28562W        W  987   1.937   5.815  11.522
28563W        W  988  18.779  30.925   1.727
28564W        W  989  43.431  11.219   4.330
28565W        W  990  11.896  41.034  13.561
28566W        W  991   2.386  15.301   0.005
28567W        W  992   4.829   4.190  11.376
28568W        W  993  21.026  43.764  11.441
28569W        W  994  43.504  36.288   0.534
28570W        W  995  28.705  18.326   1.855
28571W        W  996  28.544  36.294  11.656
28572W        W  997  23.487  27.106   2.271
28573W        W  998  43.217   2.336   0.933
28574W        W  999   0.217  21.910  13.105
28575W        W 1000  14.049   9.238  12.032
28576W        W 1001  20.291  36.900   3.114
28577W        W 1002  19.803  28.390  13.387
28578W        W 1003  13.421   8.786   2.184
28579W        W 1004   0.225  43.772   2.301
28580W        W 1005  22.733  33.888   3.723
28581W        W 1006  21.189  40.587   3.767
28582W        W 1007  34.852  18.061  14.513
28583W        W 1008  25.737  15.479  13.582
28584W        W 1009  26.211  25.444   2.258
28585W        W 1010  22.555  24.095  10.400
28586W        W 1011  33.026  26.989   4.654
28587W        W 1012   8.584  17.882   0.324
28588W        W 1013  29.490  37.981   4.526
28589W        W 1014  10.409  37.937   0.436
28590W        W 1015  44.470   3.205  11.500
28591W        W 1016  31.527  38.061  11.718
28592W        W 1017  20.160  43.842  12.935
28593W        W 1018  31.059   2.165   4.670
28594W        W 1019  13.299  37.428  11.571
28595W        W 1020   1.863  20.111   2.127
28596W        W 1021  22.864  15.586  11.137
28597W        W 1022  25.330  42.589  12.439
28598W        W 1023   4.996   4.966   1.971
28599W        W 1024   6.351   8.763  13.734
28600W        W 1025  33.873  24.140  11.059
28601W        W 1026  21.530  11.412   2.876
28602W        W 1027  41.151  18.683   2.197
28603W        W 1028  33.036   2.007   2.694
28604W        W 1029  32.157   5.231   0.467
28605W        W 1030   5.979   7.932   0.253
28606W        W 1031  14.631  20.992   3.360
28607W        W 1032  12.397   7.273  11.910
28608W        W 1033   4.919  44.825  11.196
28609W        W 1034  31.649  17.166  11.980
28610W        W 1035   9.679  23.785   3.706
28611W        W 1036  31.057  18.214  10.210
28612W        W 1037  24.812  38.726   1.771
28613W        W 1038  10.111  18.308   2.139
28614W        W 1039  21.766  17.083   1.732
28615W        W 1040   2.241   6.110  13.902
28616W        W 1041  44.838  44.900   0.457
28617W        W 1042  21.710  40.558   2.847
28618W        W 1043  11.976  15.803  13.801
28619W        W 1044  24.457   9.319  11.028
28620W        W 1045  18.965  20.672  10.787
28621W        W 1046  19.073   6.727   1.837
28622W        W 1047  23.153   8.800  13.071
28623W        W 1048  18.114  39.782   3.872
28624W        W 1049   2.231  33.351  13.850
28625W        W 1050  14.630   2.334  14.015
28626W        W 1051  19.033  42.107   4.151
28627W        W 1052  30.951  35.718  12.465
28628W        W 1053  17.858  28.859   2.673
28629W        W 1054  17.591  36.169   3.729
28630W        W 1055  41.177  24.776  13.348
28631W        W 1056   0.893  27.193   4.304
28632W        W 1057  44.259  12.185  12.100
28633W        W 1058   4.049   1.347  13.559
28634W        W 1059   6.479  19.152  12.952
28635W        W 1060  23.431  32.118  12.612
28636W        W 1061   4.403   9.876  11.556
28637W        W 1062  38.692  42.954   4.152
28638W        W 1063  19.802  25.042   0.693
28639W        W 1064  21.546   8.015  11.976
28640W        W 1065  43.690  11.179  11.098
28641W        W 1066  13.440  35.750  11.086
28642W        W 1067  30.176   5.949   3.038
28643W        W 1068  16.842  18.533   2.492
28644W        W 1069  39.281  37.859   1.328
28645W        W 1070  21.672   3.045  11.515
28646W        W 1071  35.063   8.720   3.051
28647W        W 1072  14.681  31.733  13.390
28648W        W 1073   8.663   2.154  10.473
28649W        W 1074  44.926  15.108   3.678
28650W        W 1075  43.523  31.344  11.649
28651W        W 1076  17.424  39.536   1.581
28652W        W 1077  43.010  27.670  12.964
28653W        W 1078   4.712   5.020   0.931
28654W        W 1079   5.492  20.125  13.883
28655W        W 1080  44.733   9.256   0.275
28656W        W 1081  42.254  16.785   2.282
28657W        W 1082  20.715  33.762   2.614
28658W        W 1083  12.580  40.399  14.942
28659W        W 1084   1.789  32.555  12.046
28660W        W 1085  27.472  19.297   0.799
28661W        W 1086   6.930  29.979  10.680
28662W        W 1087  31.518   7.665  10.678
28663W        W 1088  15.237  31.666  10.713
28664W        W 1089  21.179   1.373   0.368
28665W        W 1090   0.864  23.024   0.010
28666W        W 1091  20.442  29.431   2.553
28667W        W 1092  17.758  27.026  11.859
28668W        W 1093  23.869  41.549   2.617
28669W        W 1094  43.540   1.528  14.962
28670W        W 1095  32.902   5.279   3.017
28671W        W 1096   0.270  34.989   0.909
28672W        W 1097  11.304  41.429  12.462
28673W        W 1098  33.374  16.649   4.975
28674W        W 1099  25.415  44.728  13.365
28675W        W 1100  32.851  23.840  11.990
28676W        W 1101  37.108  17.116   0.530
28677W        W 1102   2.871  15.326   1.284
28678W        W 1103  26.377  32.266   4.498
28679W        W 1104  40.461   4.670  13.940
28680W        W 1105  44.265  27.950  10.731
28681W        W 1106  18.787  22.710   1.694
28682W        W 1107  29.997  18.704  12.528
28683W        W 1108  44.437  19.813  13.867
28684W        W 1109  12.923  37.055  14.216
28685W        W 1110  15.474   2.727  11.611
28686W        W 1111  42.454  16.761   4.764
28687W        W 1112  24.086   2.101   5.001
28688W        W 1113  29.669  31.502   0.316
28689W        W 1114  31.238  37.864  12.103
28690W        W 1115   7.725  17.257   3.290
28691W        W 1116  43.529  10.723  11.995
28692W        W 1117  36.583  30.891  11.444
28693W        W 1118  17.123  31.228  12.295
28694W        W 1119  23.941  35.755  10.355
28695W        W 1120  33.701  42.923   0.710
28696W        W 1121  11.152   7.196   0.223
28697W        W 1122  22.263  34.697   5.109
28698W        W 1123  17.434  32.052   5.525
28699W        W 1124  35.278   1.893  12.949
28700W        W 1125  28.483  12.636  12.882
28701W        W 1126   9.754  34.452  14.994
28702W        W 1127  38.508  10.459   4.483
28703W        W 1128   5.367  25.561  14.319
28704W        W 1129  24.043  20.494  10.580
28705W        W 1130  23.948   4.872  12.583
28706W        W 1131   7.650  23.711   2.835
28707W        W 1132  28.540   1.791   1.423
28708W        W 1133  21.698   5.940  14.053
28709W        W 1134  14.205  26.934   0.914
28710W        W 1135  36.284   6.912  12.360
28711W        W 1136  20.186  38.501  13.354
28712W        W 1137  12.618  23.126  12.374
28713W        W 1138  18.869  11.544   2.620
28714W        W 1139   6.697  31.193   3.774
28715W        W 1140  17.791  28.651  10.629
28716W        W 1141  30.150  25.095  13.527
28717W        W 1142  26.360  23.623   4.496
28718W        W 1143  13.846   3.480   2.317
28719W        W 1144   6.373  16.448   4.177
28720W        W 1145   8.457  15.691  13.511
28721W        W 1146  34.583  21.130  12.568
28722W        W 1147  38.066  21.082   0.168
28723W        W 1148  39.454  13.384   2.481
28724W        W 1149  19.159  40.307  11.983
28725W        W 1150  40.438   8.249   2.360
28726W        W 1151   3.669  10.726  14.513
28727W        W 1152  13.168  30.080  12.470
28728W        W 1153  28.240   8.693   9.902
28729W        W 1154  22.590  42.775   3.616
28730W        W 1155  42.668  15.978   1.229
28731W        W 1156   8.938  17.542  11.632
28732W        W 1157   2.890   0.283   1.822
28733W        W 1158  13.027  13.845  13.646
28734W        W 1159  23.249  12.403   3.542
28735W        W 1160  11.461  13.063  11.006
28736W        W 1161  32.439  23.583   2.154
28737W        W 1162  43.939  30.916   1.242
28738W        W 1163  17.156  12.351  11.153
28739W        W 1164  18.250   4.416   0.167
28740W        W 1165  30.935  43.593  12.245
28741W        W 1166  23.213  27.210  14.976
28742W        W 1167  16.039  35.556   4.240
28743W        W 1168   7.724  25.768  11.643
28744W        W 1169  35.066  23.344  14.300
28745W        W 1170  22.907  13.399  13.407
28746W        W 1171   0.023  44.516  11.593
28747W        W 1172  42.481  31.878  11.085
28748W        W 1173  39.841   4.674  12.082
28749W        W 1174  11.774  22.007  11.868
28750W        W 1175  29.556   5.176   2.905
28751W        W 1176  35.734  16.891   3.241
28752W        W 1177  32.844  15.492  11.640
28753W        W 1178  33.384  12.662  10.192
28754W        W 1179  15.628  11.866  11.041
28755W        W 1180  34.892  20.700   1.439
28756W        W 1181  36.418  11.355  11.480
28757W        W 1182   4.375  30.641   3.763
28758W        W 1183   5.131  12.829   3.283
28759W        W 1184  12.883  25.214  13.275
28760W        W 1185  31.211  30.046  11.244
28761W        W 1186  25.495  43.400  14.392
28762W        W 1187  10.772  21.843   4.673
28763W        W 1188  35.659  41.897   3.429
28764W        W 1189   3.898  36.782  13.840
28765W        W 1190  29.247  41.835  13.360
28766W        W 1191  15.697  42.364  11.062
28767W        W 1192  15.807  29.051  14.698
28768W        W 1193  10.884   7.900  13.824
28769W        W 1194  13.064  27.658  10.550
28770W        W 1195  15.694   2.790   3.142
28771W        W 1196   8.421  38.444   0.593
28772W        W 1197  32.615  15.988   4.616
28773W        W 1198  41.539  43.325   1.953
28774W        W 1199  42.325  39.650   4.732
28775W        W 1200  23.175  33.393  11.140
28776W        W 1201  23.685  20.955   4.308
28777W        W 1202  41.667  18.884   0.367
28778W        W 1203  19.245  30.288   2.766
28779W        W 1204  43.002  11.595   3.260
28780W        W 1205  30.263  37.474   4.454
28781W        W 1206   4.393  40.070  13.865
28782W        W 1207   4.174  24.034  13.504
28783W        W 1208   5.754   7.772   2.111
28784W        W 1209  37.364  20.600   1.456
28785W        W 1210   2.423   4.985   5.248
28786W        W 1211  38.843  10.203   3.726
28787W        W 1212   0.707  34.921  14.660
28788W        W 1213  13.783  11.223   1.463
28789W        W 1214  22.582  17.475  12.866
28790W        W 1215   5.460  39.564   1.640
28791W        W 1216  32.145  29.026  13.374
28792W        W 1217  28.032  36.152   4.748
28793W        W 1218  27.200  15.650  12.410
28794W        W 1219   3.299  36.084   2.862
28795W        W 1220   0.223   1.032  13.747
28796W        W 1221   9.315  18.255  11.822
28797W        W 1222   3.800   5.934   4.519
28798W        W 1223   2.413  12.479   3.241
28799W        W 1224  33.513   1.474   2.269
28800W        W 1225  25.915  44.287   2.921
28801W        W 1226  15.810  29.874  14.232
28802W        W 1227   9.318  28.239   3.561
28803W        W 1228  39.417  15.183   0.469
28804W        W 1229   6.870   7.639   4.169
28805W        W 1230  37.940  21.590   4.641
28806W        W 1231  15.095   7.850  10.626
28807W        W 1232  11.455  39.829  13.844
28808W        W 1233   3.923  42.313   3.158
28809W        W 1234   7.266   5.378   4.056
28810W        W 1235   7.724   8.250   3.538
28811W        W 1236  19.929  18.466  13.478
28812W        W 1237  38.976   8.609   3.769
28813W        W 1238   1.160  15.767  12.418
28814W        W 1239  17.178   9.542  13.754
28815W        W 1240  23.888  34.391  12.941
28816W        W 1241   0.477  35.141  13.397
28817W        W 1242  38.335  19.375  11.666
28818W        W 1243  12.757  42.832  14.959
28819W        W 1244   7.427  31.913   0.408
28820W        W 1245  34.878  34.604   2.037
28821W        W 1246  19.802  17.630   1.069
28822W        W 1247  15.749   1.405  11.794
28823W        W 1248  23.014  14.716   0.466
28824W        W 1249  17.046  13.302  11.256
28825W        W 1250  33.512   6.648  13.492
28826W        W 1251  27.189  36.426   4.175
28827W        W 1252  44.479   6.229  13.000
28828W        W 1253   2.023   9.666  13.877
28829W        W 1254  12.406   7.182  10.529
28830W        W 1255  44.267  25.060  11.529
28831W        W 1256  34.143  14.768  14.258
28832W        W 1257  40.860  13.229   1.729
28833W        W 1258  21.533  40.156  13.472
28834W        W 1259  20.011  16.960  13.302
28835W        W 1260  20.509  43.798  13.590
28836W        W 1261  14.297   8.582   0.699
28837W        W 1262  39.978   6.856  14.383
28838W        W 1263   6.749   3.732  12.922
28839W        W 1264  27.476  32.381  13.729
28840W        W 1265   0.218  30.636  13.328
28841W        W 1266  24.692  26.411  11.518
28842W        W 1267  31.467  11.185  12.643
28843W        W 1268  19.082  44.523  13.486
28844W        W 1269  37.946  30.417  14.228
28845W        W 1270  10.531   3.839  10.496
28846W        W 1271  11.146  18.782   4.408
28847W        W 1272  26.917  25.927  11.987
28848W        W 1273  19.298  30.510  14.519
28849W        W 1274  30.437  15.314   2.187
28850W        W 1275  17.159  23.741  11.607
28851W        W 1276  21.676  11.773   0.004
28852W        W 1277  20.834   3.822  11.716
28853W        W 1278  38.783  29.080  11.162
28854W        W 1279  34.618  27.422   3.989
28855W        W 1280  24.776  13.823   0.788
28856W        W 1281  24.357  12.798  12.925
28857W        W 1282  20.259  26.911  10.981
28858W        W 1283  37.132  31.436   3.227
28859W        W 1284  36.927   8.763   4.661
28860W        W 1285  33.375  44.951  11.578
28861W        W 1286   3.903  14.270  11.929
28862W        W 1287  14.675  40.951  13.471
28863W        W 1288  22.501  14.312   3.750
28864W        W 1289  30.044  22.082  10.776
28865W        W 1290  32.936  34.551  14.297
28866W        W 1291  29.823  37.532  12.442
28867W        W 1292  27.648   7.944   4.468
28868W        W 1293  21.673  23.612   3.666
28869W        W 1294  30.439  37.081  13.949
28870W        W 1295  31.491   3.441   3.176
28871W        W 1296  23.749  41.491  10.684
28872W        W 1297  36.694   4.114   3.570
28873W        W 1298  22.189   0.306   1.628
28874W        W 1299  17.181  44.763  11.981
28875W        W 1300  28.350  14.996  11.101
28876W        W 1301  44.265  40.394   0.244
28877W        W 1302   0.482   2.838  14.110
28878W        W 1303   4.437   3.558  10.209
28879W        W 1304  21.628  15.814  14.423
28880W        W 1305  17.080  30.215   1.144
28881W        W 1306  38.044  21.075  11.196
28882W        W 1307  27.587  13.876   0.159
28883W        W 1308  11.220  16.589  12.921
28884W        W 1309  16.806  13.346   1.222
28885W        W 1310  43.172   5.251   3.581
28886W        W 1311  44.001  29.476  10.754
28887W        W 1312   5.457  41.375  13.115
28888W        W 1313  20.074   2.970  12.891
28889W        W 1314  10.031  33.443  13.068
28890W        W 1315  33.546  36.776   3.753
28891W        W 1316  32.512   5.268  12.088
28892W        W 1317  30.704  30.749   4.393
28893W        W 1318  29.622  30.221  12.364
28894W        W 1319  16.410  43.374   4.195
28895W        W 1320  38.939  13.634  11.917
28896W        W 1321  35.957   4.865   1.215
28897W        W 1322  16.158  10.680   3.502
28898W        W 1323  26.695  40.112  11.582
28899W        W 1324  41.700  41.789   4.974
28900W        W 1325  25.157   7.345   3.804
28901W        W 1326  33.600  39.121  14.311
28902W        W 1327  36.813  35.204  14.990
28903W        W 1328  40.526  14.240   3.842
28904W        W 1329  18.318  39.266   1.110
28905W        W 1330  35.889  23.059  13.801
28906W        W 1331   7.643  23.698  12.931
28907W        W 1332  28.645  39.992  11.132
28908W        W 1333  22.465  31.916  12.418
28909W        W 1334  24.271  28.541   4.207
28910W        W 1335  11.915   3.983   3.278
28911W        W 1336  32.878  38.851  12.159
28912W        W 1337  27.107  20.206   0.304
28913W        W 1338  18.234  24.942   1.905
28914W        W 1339   5.222  22.093  10.940
28915W        W 1340  40.221  31.587   3.623
28916W        W 1341  18.716  15.039   3.656
28917W        W 1342  14.348   3.190   1.341
28918W        W 1343  28.654  12.739   2.205
28919W        W 1344  32.496  12.095  11.630
28920W        W 1345   9.198  38.092   5.587
28921W        W 1346   5.818  31.195  14.647
28922W        W 1347   0.214  25.508   4.896
28923W        W 1348  42.705  10.407   4.753
28924W        W 1349  41.693  33.594  10.707
28925W        W 1350  34.876  44.401  10.832
28926W        W 1351  23.608  13.273   3.300
28927W        W 1352   3.985  42.731   1.823
28928W        W 1353  37.525  32.110  12.971
28929W        W 1354  41.353  23.373   1.920
28930W        W 1355  15.870   9.757   0.348
28931W        W 1356  21.326  33.552   1.868
28932W        W 1357  42.403  11.814  10.732
28933W        W 1358  13.163  43.343  11.636
28934W        W 1359  28.038  17.476   3.155
28935W        W 1360  35.935  10.229  11.664
28936W        W 1361  42.032   7.317  11.713
28937W        W 1362   0.910  14.796  10.985
28938W        W 1363  25.072  37.074   0.976
28939W        W 1364   6.413  15.281  11.615
28940W        W 1365  35.786  22.644  10.563
28941W        W 1366  14.814   5.515   0.283
28942W        W 1367  20.716   2.881   4.365
28943W        W 1368  40.862  37.239  11.909
28944W        W 1369  10.512  11.684  12.151
28945W        W 1370  38.331  43.694   1.854
28946W        W 1371   1.838  18.271   3.769
28947W        W 1372   4.960  19.315  12.062
28948W        W 1373   4.086  14.934  12.097
28949W        W 1374  28.855   6.296  12.260
28950W        W 1375   4.693   8.121   2.335
28951W        W 1376  41.366  18.354   0.948
28952W        W 1377   1.250  12.929  13.543
28953W        W 1378   6.142  11.229   0.937
28954W        W 1379  25.051  21.704  12.068
28955W        W 1380  41.050  35.198  11.414
28956W        W 1381  35.259  24.482   1.792
28957W        W 1382   9.151  22.057  11.600
28958W        W 1383  26.057  17.713   1.644
28959W        W 1384   0.550  17.291  13.292
28960W        W 1385  28.696  44.349  13.482
28961W        W 1386  35.542   1.301  11.831
28962W        W 1387  16.392  44.738  12.488
28963W        W 1388   1.156  18.728   3.487
28964W        W 1389   8.425  21.164   3.779
28965W        W 1390  21.655  27.312   3.589
28966W        W 1391   3.316   4.816   1.866
28967W        W 1392  21.593  36.551   4.245
28968W        W 1393  18.602  34.636   1.360
28969W        W 1394  33.346   0.864  14.927
28970W        W 1395   8.104  28.994   1.655
28971W        W 1396  16.284  35.660   1.682
28972W        W 1397  19.764  29.958   2.283
28973W        W 1398  40.335  43.517   2.368
28974W        W 1399   1.993  24.551  11.041
28975W        W 1400  26.777  20.696   0.887
28976W        W 1401  12.807  24.767  14.079
28977W        W 1402  33.433  14.256  14.358
28978W        W 1403  10.685  34.605   4.174
28979W        W 1404  29.282  30.980  14.365
28980W        W 1405  38.310  40.862  14.304
28981W        W 1406  32.365  24.611  11.596
28982W        W 1407   6.683  39.468   2.971
28983W        W 1408  12.710  25.027  12.681
28984W        W 1409  29.401   0.223   2.401
28985W        W 1410   6.139  11.350  13.950
28986W        W 1411  34.959  29.964  12.255
28987W        W 1412  20.782  13.751   3.160
28988W        W 1413  29.410  23.896  14.493
28989W        W 1414  29.120  26.500   3.783
28990W        W 1415  35.059  34.892  12.020
28991W        W 1416   3.666  25.568  11.040
28992W        W 1417  42.758  32.134  14.525
28993W        W 1418  24.113  21.339  12.350
28994W        W 1419  16.512  44.645   4.244
28995W        W 1420  21.030  20.159  12.435
28996W        W 1421  20.172  19.872   2.825
28997W        W 1422  15.631  20.832  12.586
28998W        W 1423  39.881  40.855   1.749
28999W        W 1424   3.793   1.868   0.774
29000W        W 1425   9.628  35.439  12.125
29001W        W 1426  31.725  12.346   0.321
29002W        W 1427  15.303  30.276  14.820
29003W        W 1428  29.421  14.025  11.272
29004W        W 1429  22.719  25.955   2.133
29005W        W 1430  42.593   4.308   0.284
29006W        W 1431  18.355  42.294  13.437
29007W        W 1432  40.495   3.259   1.785
29008W        W 1433  38.397  19.545   0.729
29009W        W 1434  21.008  25.564  12.975
29010W        W 1435  14.243  17.277  14.783
29011W        W 1436  39.408  43.513   2.619
29012W        W 1437   8.232  21.723  11.910
29013W        W 1438  37.147   5.347  11.465
29014W        W 1439  26.070  43.530   4.364
29015W        W 1440   1.898  43.661   4.106
29016W        W 1441  26.992  32.064   3.223
29017W        W 1442  41.500  34.903   0.921
29018W        W 1443  13.939  28.272   0.601
29019W        W 1444  40.476  29.510   3.334
29020W        W 1445   3.992  22.990   3.542
29021W        W 1446  38.434  38.581  13.435
29022W        W 1447   5.891   1.214   2.593
29023W        W 1448  38.802  23.995   2.160
29024W        W 1449  36.058  17.202  12.269
29025W        W 1450  20.178  11.749  13.547
29026W        W 1451  37.404  13.275  14.446
29027W        W 1452  15.118  19.664  13.860
29028W        W 1453   6.069   3.942   1.002
29029W        W 1454   0.013   7.668  14.805
29030W        W 1455  21.962  22.191  11.387
29031W        W 1456  11.472  34.446   3.655
29032W        W 1457   7.239  29.784   2.811
29033W        W 1458  32.918  42.563  13.502
29034W        W 1459  26.196  36.870   0.293
29035W        W 1460   7.753  10.432   1.772
29036W        W 1461  37.913  20.582   2.384
29037W        W 1462   9.100  21.234  10.581
29038W        W 1463  42.912   7.851   4.208
29039W        W 1464  44.675  10.991   0.231
29040W        W 1465  34.212  26.533   1.052
29041W        W 1466  11.435  28.876  12.395
29042W        W 1467  18.570   2.502   3.607
29043W        W 1468  15.251  21.869   2.661
29044W        W 1469  44.464  16.701   1.947
29045W        W 1470  36.185   5.214   1.500
29046W        W 1471  40.067  30.924  11.082
29047W        W 1472  15.246  16.946   2.142
29048W        W 1473  15.148  10.145   0.249
29049W        W 1474  44.177  36.686   2.349
29050W        W 1475  36.994  24.963   3.557
29051W        W 1476   6.524  15.326  12.858
29052W        W 1477  43.521   9.634  10.779
29053W        W 1478  29.280   2.903   3.638
29054W        W 1479  10.784  44.240  14.387
29055W        W 1480  32.060  18.324   4.616
29056W        W 1481  36.969  31.106   3.631
29057W        W 1482   5.962  19.092   0.451
29058W        W 1483  12.222   4.353  14.286
29059W        W 1484  17.958  42.918  12.763
29060W        W 1485   3.942  24.269   3.327
29061W        W 1486  16.713  31.877  13.009
29062W        W 1487  28.997  10.725   3.017
29063W        W 1488  37.987   1.746   4.139
29064W        W 1489  35.963   0.786   4.143
29065W        W 1490  26.200  44.780  13.068
29066W        W 1491   8.423   9.460  11.484
29067W        W 1492  34.446  25.696  13.453
29068W        W 1493  33.422  18.810  14.402
29069W        W 1494  15.736  17.380  10.442
29070W        W 1495  28.187  42.165   2.635
29071W        W 1496   5.545   1.236  10.709
29072W        W 1497  33.910  35.609  14.314
29073W        W 1498  41.159  41.834  12.064
29074W        W 1499  37.482  20.098  14.283
29075W        W 1500  18.234  14.120   4.834
29076W        W 1501   0.822  33.579  12.954
29077W        W 1502  20.536  25.623  12.776
29078W        W 1503  33.349  33.865   1.216
29079W        W 1504  42.900  25.767   0.455
29080W        W 1505  23.268  29.515   0.028
29081W        W 1506  20.153  17.245  11.836
29082W        W 1507  38.321  38.048   2.780
29083W        W 1508   9.510  32.566   1.291
29084W        W 1509   0.961  11.918  11.124
29085W        W 1510  24.322  16.203   0.854
29086W        W 1511  22.145   0.189  13.621
29087W        W 1512  11.385  21.749   3.220
29088W        W 1513  12.446  26.194   0.484
29089W        W 1514  14.909  35.902   2.734
29090W        W 1515  13.226   8.770   3.200
29091W        W 1516  39.930   9.183   3.726
29092W        W 1517  41.905  42.501   2.722
29093W        W 1518  32.228  19.273   1.114
29094W        W 1519  14.689  31.183  14.360
29095W        W 1520  43.618  12.560  12.103
29096W        W 1521  39.534  30.919  14.423
29097W        W 1522  29.613   4.938   0.817
29098W        W 1523  40.570  40.944   1.311
29099W        W 1524   3.536  16.772   0.677
29100W        W 1525   2.225   2.718  13.442
29101W        W 1526  16.735  44.469  14.610
29102W        W 1527  14.266  22.812  12.388
29103W        W 1528  42.892  20.117   1.715
29104W        W 1529  18.383  14.921   1.923
29105W        W 1530  29.172  39.899   0.014
29106W        W 1531  39.970  32.696  11.567
29107W        W 1532   5.439  40.069   1.583
29108W        W 1533  10.570  18.673   2.830
29109W        W 1534  41.128  41.792   1.651
29110W        W 1535   6.656   3.344  13.763
29111W        W 1536  10.601  40.968  13.525
29112W        W 1537  21.795  42.369  14.385
29113W        W 1538  24.659  13.213  12.510
29114W        W 1539  10.754   5.644  14.226
29115W        W 1540  25.584   2.354   3.224
29116W        W 1541  37.142  39.935   2.378
29117W        W 1542  17.357  18.806  11.214
29118W        W 1543  39.067  19.766  13.471
29119W        W 1544  15.816  22.135   0.369
29120W        W 1545  12.630   2.224  12.018
29121W        W 1546   9.635  25.842  10.717
29122W        W 1547  27.068  44.309   3.626
29123W        W 1548   5.391  28.735   3.822
29124W        W 1549  41.856  33.393   4.407
29125W        W 1550  22.235  28.366   4.660
29126W        W 1551  30.376  20.017   4.592
29127W        W 1552   5.936  26.884  13.003
29128W        W 1553   7.703   0.815  14.532
29129W        W 1554  24.897  10.222  11.530
29130W        W 1555  39.131  27.104  13.936
29131W        W 1556   0.445  25.200   3.130
29132W        W 1557  14.792   9.140   4.185
29133W        W 1558  18.398   4.886   0.820
29134W        W 1559   4.283  17.348  14.391
29135W        W 1560  12.688  30.398  11.078
29136W        W 1561  25.233  36.852  11.165
29137W        W 1562  13.482  22.930   2.756
29138W        W 1563  27.431  11.715   2.329
29139W        W 1564  44.464  19.298  13.049
29140W        W 1565  29.951  16.622  11.072
29141W        W 1566  12.994  44.746  12.139
29142W        W 1567   6.415  35.530  12.364
29143W        W 1568  15.607  13.642   2.281
29144W        W 1569  10.943  13.207   1.352
29145W        W 1570   9.776  13.087   3.419
29146W        W 1571  21.156   2.005   0.979
29147W        W 1572  23.016  24.320  12.516
29148W        W 1573   1.593  42.305   2.608
29149W        W 1574   5.396  37.806   3.627
29150W        W 1575  25.410  31.979   4.333
29151W        W 1576   5.478   1.082  13.342
29152W        W 1577  43.327  30.344  11.659
29153W        W 1578  10.940  39.022  12.352
29154W        W 1579   9.325  41.875   3.197
29155W        W 1580   5.893  17.835   0.648
29156W        W 1581  34.384  38.967  14.430
29157W        W 1582   2.258   0.597   5.126
29158W        W 1583   1.798  18.303  13.944
29159W        W 1584   9.793  32.928  13.421
29160W        W 1585  44.860  28.707  14.883
29161W        W 1586  14.845   3.696   1.535
29162W        W 1587  41.101   1.774  13.991
29163W        W 1588  26.326  20.930   4.554
29164W        W 1589   6.152   6.817  11.066
29165W        W 1590  25.272  22.536  11.519
29166W        W 1591  14.591  25.026  13.904
29167W        W 1592  35.545   2.748   4.876
29168W        W 1593  31.793  32.436   2.902
29169W        W 1594  43.240  14.606   2.287
29170W        W 1595  33.469  37.309  13.919
29171W        W 1596  16.661  37.941   4.385
29172W        W 1597   5.889  25.769  13.904
29173W        W 1598  24.345  39.303  12.339
29174W        W 1599  35.898  25.991  11.252
29175W        W 1600  12.102  21.050   0.402
29176W        W 1601  42.799   5.716   0.996
29177W        W 1602  39.255  42.833  11.848
29178W        W 1603   0.204   8.207  12.466
29179W        W 1604  16.137  31.900  13.427
29180W        W 1605  44.929  14.224   3.615
29181W        W 1606  28.629  43.436  12.703
29182W        W 1607  36.648  32.998  12.615
29183W        W 1608  35.454  30.329   0.292
29184W        W 1609  32.892   6.604  13.805
29185W        W 1610  27.910  39.935   3.915
29186W        W 1611   0.229  11.380  12.651
29187W        W 1612  17.729   5.113   0.720
29188W        W 1613   6.625  10.791  12.433
29189W        W 1614  13.198  36.114   2.227
29190W        W 1615   2.740  11.143   1.863
29191W        W 1616   7.399  36.162  10.151
29192W        W 1617   0.927  32.493  14.752
29193W        W 1618   5.691  35.780  11.471
29194W        W 1619  21.101   9.890   0.945
29195W        W 1620   8.855  35.680   2.770
29196W        W 1621  29.053  17.847  14.266
29197W        W 1622  24.803  39.383  14.207
29198W        W 1623  24.584  42.589  12.974
29199W        W 1624   2.986  15.285  12.353
29200W        W 1625   9.767  17.799   4.663
29201W        W 1626  41.286  13.877   4.212
29202W        W 1627  30.985   2.463  11.487
29203W        W 1628  32.145  33.630  12.379
29204W        W 1629   7.360  20.256   4.081
29205W        W 1630  36.048  18.256  12.055
29206W        W 1631   0.274  17.341   1.392
29207W        W 1632  31.981  11.622   4.471
29208W        W 1633   6.710  41.967  12.922
29209W        W 1634   9.171  33.670   2.374
29210W        W 1635   7.868  32.163  14.470
29211W        W 1636   0.986   7.308  14.777
29212W        W 1637  36.609  21.797  12.526
29213W        W 1638  22.749  32.008   3.724
29214W        W 1639   7.676   5.661   2.319
29215W        W 1640   3.935  33.981  10.847
29216W        W 1641  20.692   9.212   4.764
29217W        W 1642  32.401  20.259  13.553
29218W        W 1643   9.630  32.126  11.044
29219W        W 1644  11.679  15.865  11.118
29220W        W 1645   0.413  23.918   1.249
29221W        W 1646  26.153   2.964  10.905
29222W        W 1647   3.976  10.395   4.506
29223W        W 1648   1.032  36.637   1.747
29224W        W 1649  36.506   6.208   4.039
29225W        W 1650  19.792  35.969   2.242
29226W        W 1651  44.912  11.813   0.282
29227W        W 1652   6.876  37.284  10.654
29228W        W 1653  15.202   1.426   1.477
29229W        W 1654  16.766   7.296   3.062
29230W        W 1655  24.096  28.732  11.602
29231W        W 1656  27.583  14.111   0.992
29232W        W 1657  26.626   3.879  13.783
29233W        W 1658  36.931   2.190   0.004
29234W        W 1659  38.902   3.633   3.157
29235W        W 1660  33.272  17.121  13.953
29236W        W 1661  15.090  37.609   0.766
29237W        W 1662  40.440   4.923   4.703
29238W        W 1663  11.137  14.533  12.403
29239W        W 1664  22.695  31.479   4.023
29240W        W 1665   2.377  32.605  13.363
29241W        W 1666  18.355  17.161  13.942
29242W        W 1667  31.862  34.886   2.727
29243W        W 1668  30.208  11.304   2.146
29244W        W 1669  38.136  22.711  14.936
29245W        W 1670  14.293  36.473   0.236
29246W        W 1671  22.590  21.668   0.713
29247W        W 1672  37.843  28.342  14.932
29248W        W 1673  34.017   1.991   1.875
29249W        W 1674  10.499  25.520   0.902
29250W        W 1675   4.413   7.280   3.992
29251W        W 1676  24.720  12.769   4.381
29252W        W 1677  17.354   5.318   4.102
29253W        W 1678   7.496  32.267  13.606
29254W        W 1679  29.451  43.273  12.150
29255W        W 1680  13.616  34.832   2.388
29256W        W 1681  32.053  27.950  13.421
29257W        W 1682  21.689  32.139   2.721
29258W        W 1683  34.454   5.923  13.005
29259W        W 1684  22.298  27.895   1.571
29260W        W 1685  29.496  13.137  11.523
29261W        W 1686   6.019  33.622   2.466
29262W        W 1687  20.236  12.210   3.245
29263W        W 1688  13.312  38.575  13.902
29264W        W 1689  40.807  20.193  12.546
29265W        W 1690   6.966  14.583  14.119
29266W        W 1691  12.344  32.553  14.815
29267W        W 1692  18.004  18.173  11.193
29268W        W 1693  12.490  34.919  13.111
29269W        W 1694  20.682  20.218  12.008
29270W        W 1695   9.516  32.551  12.652
29271W        W 1696  26.874  28.324  10.306
29272W        W 1697   7.528  16.089  10.780
29273W        W 1698  12.286  18.908   0.604
29274W        W 1699  42.187   8.758  14.756
29275W        W 1700  30.605   9.770   1.880
29276W        W 1701  40.900   7.782  11.972
29277W        W 1702  31.331  25.604  14.427
29278W        W 1703  24.902   6.873   3.734
29279W        W 1704  15.223   3.170  11.673
29280W        W 1705  25.674   7.899   2.587
29281W        W 1706  38.916  27.952  10.426
29282W        W 1707   9.195  19.350  10.621
29283W        W 1708  43.406   8.780  11.685
29284W        W 1709   6.362  30.349   1.829
29285W        W 1710   7.829  24.728  11.683
29286W        W 1711   0.481  17.115   0.437
29287W        W 1712  44.072  24.884  10.587
29288W        W 1713  29.702   7.677   0.267
29289W        W 1714  14.200   2.170  12.456
29290W        W 1715  34.614  20.088   2.667
29291W        W 1716   2.748  25.623   2.751
29292W        W 1717  25.904   6.193  11.124
29293W        W 1718  38.861   2.922   4.868
29294W        W 1719  19.241   8.207  14.576
29295W        W 1720  40.635  22.078  12.117
29296W        W 1721  33.485  29.946  10.916
29297W        W 1722  37.055  14.070   0.410
29298W        W 1723  12.638  34.250  14.246
29299W        W 1724   9.361  28.194  12.288
29300W        W 1725  19.295   0.356   3.741
29301W        W 1726   2.707  32.481   3.755
29302W        W 1727  10.854  20.329   2.875
29303W        W 1728  11.798  36.163  12.796
29304W        W 1729  40.500  20.277   3.126
29305W        W 1730  17.665  35.166  13.835
29306W        W 1731   1.930   9.535   0.405
29307W        W 1732  19.259  15.188   2.411
29308W        W 1733  36.314   4.063   1.713
29309W        W 1734  21.224  43.740  10.553
29310W        W 1735   3.805  16.202  13.252
29311W        W 1736  43.335  44.607  12.490
29312W        W 1737   5.651   3.206   3.597
29313W        W 1738  40.914  36.826   4.120
29314W        W 1739  27.426  10.756  11.472
29315W        W 1740  18.790  14.079  11.120
29316W        W 1741  41.107  40.081  13.298
29317W        W 1742  19.600   0.256   3.272
29318W        W 1743  14.152  37.527  13.434
29319W        W 1744   7.790  36.070   4.515
29320W        W 1745  32.489  15.068  13.226
29321W        W 1746  21.194   7.043   3.776
29322W        W 1747   4.862  32.867  10.429
29323W        W 1748  43.058  39.164   0.749
29324W        W 1749  40.539  36.216  13.012
29325W        W 1750   0.571  40.429  11.074
29326W        W 1751  30.077  31.104   1.411
29327W        W 1752  42.246  34.586   3.213
29328W        W 1753  33.127  31.388  11.920
29329W        W 1754  20.994  42.488  11.239
29330W        W 1755  29.912  15.142   0.822
29331W        W 1756  11.461  41.503   0.931
29332W        W 1757   2.809  29.624  10.488
29333W        W 1758   6.762  22.106   4.423
29334W        W 1759  43.022  10.860   2.714
29335W        W 1760  20.210  25.969  11.007
29336W        W 1761  43.561  20.275  13.250
29337W        W 1762   3.464  28.840  14.156
29338W        W 1763   9.695  31.689   4.206
29339W        W 1764  29.668  22.241  11.495
29340W        W 1765   7.913  24.043  14.381
29341W        W 1766  17.839  38.487   1.497
29342W        W 1767   2.122  34.004   3.093
29343W        W 1768   6.304  40.469   4.658
29344W        W 1769  15.353   7.975  14.350
29345W        W 1770  34.514   3.286  14.896
29346W        W 1771  11.570  42.843   4.137
29347W        W 1772  10.379   6.216  13.400
29348W        W 1773  23.840   3.945   4.212
29349W        W 1774   1.327   8.897  11.479
29350W        W 1775   5.679  27.603  10.599
29351W        W 1776  24.278  30.532   0.874
29352W        W 1777  26.999  24.455   0.326
29353W        W 1778   7.858   5.373  11.422
29354W        W 1779  30.528  14.662   2.446
29355W        W 1780  16.505  24.168   5.034
29356W        W 1781   5.882  27.419  13.061
29357W        W 1782   2.442   1.330  14.815
29358W        W 1783  16.014  38.941   4.889
29359W        W 1784  23.528  13.775   3.439
29360W        W 1785   7.095  27.619  11.641
29361W        W 1786   1.243   7.863   2.316
29362W        W 1787  41.256  39.855  14.302
29363W        W 1788   3.921  18.186  12.921
29364W        W 1789  21.102  40.516   1.136
29365W        W 1790  36.833   0.448  11.417
29366W        W 1791  26.224  36.114  11.010
29367W        W 1792  33.990  19.892  11.223
29368W        W 1793  10.600  15.237  11.138
29369W        W 1794  20.715  40.527  13.040
29370W        W 1795  31.621  15.815   3.797
29371W        W 1796  15.586  21.706   1.831
29372W        W 1797  35.842  10.752  10.393
29373W        W 1798  24.271  18.041  13.854
29374W        W 1799  19.969   9.248   5.187
29375W        W 1800   9.777   9.678   4.509
29376W        W 1801  19.692  22.978   2.845
29377W        W 1802   5.637  26.129  12.499
29378W        W 1803  38.842  37.607  11.838
29379W        W 1804  17.394  25.571   0.851
29380W        W 1805  32.912  24.977  13.760
29381W        W 1806  10.309   6.984  12.396
29382W        W 1807  18.092  17.945   2.216
29383W        W 1808  11.964   4.403  12.095
29384W        W 1809  18.460  32.057  14.446
29385W        W 1810  11.342  13.154   4.101
29386W        W 1811  22.116  44.005   4.420
29387W        W 1812  26.252   8.094  14.451
29388W        W 1813  36.461  25.952  11.376
29389W        W 1814  22.582  26.936   1.266
29390W        W 1815   7.283  19.718  14.272
29391W        W 1816   6.768   9.028   4.594
29392W        W 1817  15.965  35.746  13.752
29393W        W 1818  44.311  37.986   3.566
29394W        W 1819  10.314  41.590   0.451
29395W        W 1820  14.600  18.793   0.828
29396W        W 1821   5.569  27.002   0.455
29397W        W 1822   8.289  35.859   4.673
29398W        W 1823  39.272   0.794  10.719
29399W        W 1824  32.933  17.611   1.365
29400W        W 1825  37.407  25.689  12.945
29401W        W 1826  38.481  24.885  11.990
29402W        W 1827  25.071  32.412   3.150
29403W        W 1828   1.998  11.896   2.862
29404W        W 1829  19.752   1.270  13.283
29405W        W 1830   0.233  26.007   4.732
29406W        W 1831  25.968  43.328  12.624
29407W        W 1832  19.702   1.453   1.467
29408W        W 1833  26.863  36.791  14.859
29409W        W 1834  22.763  25.586   1.321
29410W        W 1835   6.362  33.890  10.664
29411W        W 1836  24.016  35.211   3.566
29412W        W 1837  31.486  19.555   0.477
29413W        W 1838   1.450   0.311   1.661
29414W        W 1839  10.458  33.434   3.545
29415W        W 1840  29.167  42.228   2.650
29416W        W 1841  21.918   8.819   3.187
29417W        W 1842   6.253   3.503   2.786
29418W        W 1843  39.554   1.747  14.795
29419W        W 1844  35.723   1.227   0.964
29420W        W 1845  19.135  36.419  11.495
29421W        W 1846  39.187  21.267  14.472
29422W        W 1847  27.571  30.492   9.667
29423W        W 1848   1.561   0.389   4.566
29424W        W 1849   0.409  39.025  10.388
29425W        W 1850  24.430  25.350   4.272
29426W        W 1851  28.530  27.160  14.867
29427W        W 1852  11.329   6.498  11.026
29428W        W 1853  29.234   1.863  11.936
29429W        W 1854  22.010   1.893  12.901
29430W        W 1855   1.437  23.210   1.814
29431W        W 1856   6.162   7.965   3.617
29432W        W 1857  35.159  30.706   1.857
29433W        W 1858  15.132  28.356  11.108
29434W        W 1859  23.031   8.746   3.286
29435W        W 1860  18.075  35.350   2.883
29436W        W 1861   1.963  31.201   0.848
29437W        W 1862  28.482  10.966  14.484
29438W        W 1863  25.996  34.742   1.371
29439W        W 1864  23.824  42.132   0.930
29440W        W 1865  19.203   7.456  11.219
29441W        W 1866   8.499  33.758   0.726
29442W        W 1867  12.872   3.354   3.796
29443W        W 1868  39.258   7.551  14.825
29444W        W 1869  22.441  22.045  11.305
29445W        W 1870  14.055  16.882  12.821
29446W        W 1871  20.140  26.530  13.674
29447W        W 1872  21.157  21.843  12.424
29448W        W 1873  19.978  19.570  14.051
29449W        W 1874  41.343  24.818  14.469
29450W        W 1875   4.969  39.397  14.019
29451W        W 1876  24.548   5.729  11.179
29452W        W 1877  23.807  26.961   0.917
29453W        W 1878   6.371  27.216   4.591
29454W        W 1879  21.082  28.427   1.548
29455W        W 1880  40.833  39.359   0.921
29456W        W 1881  10.376  42.822   1.994
29457W        W 1882   8.399  43.716   4.047
29458W        W 1883   2.473  11.925  11.526
29459W        W 1884  13.950  11.351  14.338
29460W        W 1885  18.806   5.849   1.408
29461W        W 1886  13.850  40.553   3.881
29462W        W 1887  34.130  25.198  11.769
29463W        W 1888  42.249   6.865  13.247
29464W        W 1889  27.655  39.948  11.877
29465W        W 1890  43.136  27.627   4.650
29466W        W 1891   0.676  42.150   1.645
29467W        W 1892  15.219  14.649  10.798
29468W        W 1893  29.054   6.777  12.167
29469W        W 1894   7.126   7.282  11.075
29470W        W 1895  36.328  19.699   0.925
29471W        W 1896  42.540  34.164  12.863
29472W        W 1897  11.075   4.357  14.492
29473W        W 1898  36.557  20.364  11.566
29474W        W 1899  26.644  22.681   4.592
29475W        W 1900   4.031  41.880   0.375
29476W        W 1901  10.302   5.636  14.477
29477W        W 1902  18.801  39.721  12.992
29478W        W 1903  12.784   4.112  14.992
29479W        W 1904   7.711   8.448   4.016
29480W        W 1905  19.276  35.901   2.313
29481W        W 1906  38.016   8.404   3.621
29482W        W 1907   9.766  24.288   3.681
29483W        W 1908  31.953  42.775  11.125
29484W        W 1909  30.875   7.404   3.064
29485W        W 1910  11.191  12.496   3.555
29486W        W 1911  38.806  16.497  11.158
29487W        W 1912  34.710  15.193   3.686
29488W        W 1913  34.582  34.897  14.335
29489W        W 1914   8.761   9.586   1.407
29490W        W 1915   7.227   6.152  11.632
29491W        W 1916   2.721  25.842   0.732
29492W        W 1917  39.813  33.640  12.893
29493W        W 1918  34.785  38.377   2.830
29494W        W 1919  41.241  33.437  11.635
29495W        W 1920  18.614  37.785   3.371
29496W        W 1921   3.492  38.335  13.172
29497W        W 1922  19.107  23.518  10.313
29498W        W 1923  22.646  31.846  14.984
29499W        W 1924  41.464  17.376  12.226
29500W        W 1925  22.105  42.709  13.947
29501W        W 1926  14.665  15.516   1.161
29502W        W 1927  30.071  23.653  12.742
29503W        W 1928   8.503  11.688  13.957
29504W        W 1929  31.889  40.405  12.004
29505W        W 1930  21.718  37.618   3.241
29506W        W 1931  44.775   6.203   2.378
29507W        W 1932  34.899  13.598   1.469
29508W        W 1933  39.995  30.543   2.458
29509W        W 1934  29.697  15.176   1.347
29510W        W 1935  33.956  39.233  14.807
29511W        W 1936  24.144   1.815   2.920
29512W        W 1937  42.483  40.976  14.977
29513W        W 1938  21.029  14.399  12.573
29514W        W 1939  24.833  22.510  10.700
29515W        W 1940  31.006  26.615   2.709
29516W        W 1941   7.148  32.042  13.942
29517W        W 1942   5.999  30.233  14.981
29518W        W 1943   5.794  13.823   0.716
29519W        W 1944  40.428   0.070   1.181
29520W        W 1945  34.840  24.228   3.799
29521W        W 1946  16.193  25.553  10.907
29522W        W 1947  23.470   1.074   2.799
29523W        W 1948  24.638  16.648  12.994
29524W        W 1949  44.000   3.280  12.345
29525W        W 1950  20.918  21.687   2.177
29526W        W 1951  33.865   7.838   3.478
29527W        W 1952  25.516  21.955  11.954
29528W        W 1953  13.640  19.097   0.459
29529W        W 1954  11.417  40.665  13.622
29530W        W 1955  27.546  14.569  11.413
29531W        W 1956  35.109   0.816  14.238
29532W        W 1957   2.815   0.750   5.004
29533W        W 1958  15.282  16.202  11.529
29534W        W 1959  32.686  30.503  11.883
29535W        W 1960   8.757  33.224  11.997
29536W        W 1961  13.817  24.091  14.814
29537W        W 1962  15.856  44.905  11.184
29538W        W 1963  36.194  17.762  12.091
29539W        W 1964  36.664   4.785  12.140
29540W        W 1965  14.635  23.988  10.555
29541W        W 1966   5.420   7.338  12.856
29542W        W 1967  12.735  35.039   0.369
29543W        W 1968  42.552  33.062   4.375
29544W        W 1969   2.285   0.961   3.646
29545W        W 1970  14.862  25.335   5.279
29546W        W 1971  31.418  44.298  11.991
29547W        W 1972  15.502  39.559  13.878
29548W        W 1973  14.542  44.211  11.578
29549W        W 1974  14.093  35.029   1.270
29550W        W 1975  19.532  43.958   2.696
29551W        W 1976  10.750  13.236   3.314
29552W        W 1977   1.136  17.230   1.643
29553W        W 1978  37.890  43.455  13.500
29554W        W 1979  16.046  10.738  12.409
29555W        W 1980  19.190   7.370   1.450
29556W        W 1981  37.735   6.206   4.674
29557W        W 1982  43.416  23.459  13.999
29558W        W 1983  37.860  11.280   2.454
29559W        W 1984  39.079   6.869   3.737
29560W        W 1985  29.885   8.162  13.442
29561W        W 1986   9.254  43.833  11.182
29562W        W 1987  13.692  35.429   4.688
29563W        W 1988  36.603   7.915  13.929
29564W        W 1989   4.341   5.338  14.685
29565W        W 1990  42.868  17.646   2.689
29566W        W 1991  11.102  26.161   3.596
29567W        W 1992   0.697  37.744  12.800
29568W        W 1993  24.454  22.140   4.736
29569W        W 1994  43.336  31.147  10.770
29570W        W 1995  33.918   7.209  12.933
29571W        W 1996  44.776   2.823  13.973
29572W        W 1997  18.282  27.714  13.510
29573W        W 1998  34.443  28.772  12.134
29574W        W 1999   3.111  27.690   2.530
29575W        W 2000   9.200  38.424  11.069
29576W        W 2001  23.162  43.853   2.453
29577W        W 2002  22.203   6.809  13.524
29578W        W 2003  28.311  23.963  13.609
29579W        W 2004  32.559  14.044   4.660
29580W        W 2005  18.688   1.436   9.574
29581W        W 2006  18.244   4.919   2.286
29582W        W 2007  19.566  29.299  10.327
29583W        W 2008  35.498  15.056  13.163
29584W        W 2009  38.857  35.343  14.254
29585W        W 2010   3.275  38.452   2.917
29586W        W 2011  18.364   8.299   2.964
29587W        W 2012   2.315   7.161  10.751
29588W        W 2013  14.789  20.291  12.177
29589W        W 2014   1.983  11.280   1.362
29590W        W 2015  16.845  42.774  11.225
29591W        W 2016  24.064  35.412   0.453
29592W        W 2017  33.034  35.340  11.133
29593W        W 2018  11.242   1.657  11.981
29594W        W 2019  20.408  17.506   4.502
29595W        W 2020  35.557  16.204   2.706
29596W        W 2021   6.189  43.803   4.321
29597W        W 2022   2.717  24.839  14.279
29598W        W 2023  36.378  28.863  10.281
29599W        W 2024  14.109   2.316   3.643
29600W        W 2025  17.725  35.867  12.028
29601W        W 2026  18.250  38.794  11.916
29602W        W 2027   9.729  43.388   3.703
29603W        W 2028  17.535   2.345  12.888
29604W        W 2029  20.138   8.800   4.252
29605W        W 2030   8.335  14.892  12.035
29606W        W 2031   9.784  12.407  13.331
29607W        W 2032  44.457  22.166  12.552
29608W        W 2033  13.232  34.734  12.545
29609W        W 2034  39.758   0.225  11.806
29610W        W 2035  18.011  35.763  13.415
29611W        W 2036   7.602  42.967   1.367
29612W        W 2037  37.446   3.487   2.385
29613W        W 2038   2.819  29.470  10.973
29614W        W 2039  37.378  39.534   4.196
29615W        W 2040  15.552   5.202  12.963
29616W        W 2041  14.142   2.873  11.951
29617W        W 2042  30.644  34.648   0.880
29618W        W 2043  16.323  31.485  11.388
29619W        W 2044  27.641  23.617   1.191
29620W        W 2045   0.545   7.829   2.802
29621W        W 2046  34.130  36.610   2.167
29622W        W 2047  37.026  36.568  12.139
29623W        W 2048  35.025   9.361  12.600
29624W        W 2049  16.332  11.277   3.104
29625W        W 2050  42.983   1.230   1.224
29626W        W 2051  18.991  41.355   1.334
29627W        W 2052  36.396   8.894   1.157
29628W        W 2053  36.050  14.720  14.052
29629W        W 2054  35.571  44.758   3.633
29630W        W 2055  37.714   4.840  11.387
29631W        W 2056  38.390  27.703   4.544
29632W        W 2057  23.023  25.738   4.279
29633W        W 2058   0.934  29.553   1.342
29634W        W 2059   7.413  10.827  12.896
29635W        W 2060  18.541   6.859   3.217
29636W        W 2061  27.978   1.964   9.912
29637W        W 2062  37.281  10.508   2.704
29638W        W 2063  37.935   6.905  13.004
29639W        W 2064   5.735   7.605  11.106
29640W        W 2065  44.528   9.571  11.689
29641W        W 2066  22.367  33.382   2.625
29642W        W 2067  26.246  28.049   5.102
29643W        W 2068  11.073  29.052  13.313
29644W        W 2069  29.174  34.331  11.385
29645W        W 2070  18.172  30.122  14.897
29646W        W 2071   6.857  13.468  11.713
29647W        W 2072  40.446  14.302  14.909
29648W        W 2073  42.989  14.696   4.845
29649W        W 2074   3.747   2.360   0.430
29650W        W 2075  18.490  34.494  14.957
29651W        W 2076  41.008  22.412   4.048
29652W        W 2077  44.780  25.536  14.343
29653W        W 2078  19.638   6.377  10.673
29654W        W 2079  19.996  42.322   1.377
29655W        W 2080   6.175  44.265   0.428
29656W        W 2081  10.842   3.355  13.537
29657W        W 2082   5.066  35.247  11.138
29658W        W 2083  10.168  30.571   5.007
29659W        W 2084   6.294  37.869   0.043
29660W        W 2085   0.862   4.423  11.321
29661W        W 2086  11.830  39.459   0.332
29662W        W 2087   0.390  18.516   4.483
29663W        W 2088  36.646  25.744   3.735
29664W        W 2089   4.997   1.949   0.671
29665W        W 2090   2.532  44.882   1.817
29666W        W 2091   9.702  26.085   3.388
29667W        W 2092  20.228  37.184  13.888
29668W        W 2093  33.563   6.353   1.359
29669W        W 2094  17.066  19.719   0.515
29670W        W 2095  35.539   6.059  10.846
29671W        W 2096  40.971  21.173  14.830
29672W        W 2097  35.511  17.321   4.673
29673W        W 2098  18.888   7.190  11.676
29674W        W 2099  12.282  20.264  13.799
29675W        W 2100   6.277  31.486  12.837
29676W        W 2101  38.362  21.053   4.261
29677W        W 2102  14.822  11.914  13.946
29678W        W 2103   7.430   7.995  11.168
29679W        W 2104   3.403  25.825  13.132
29680W        W 2105  21.778  18.560  10.497
29681W        W 2106  22.698  12.243   4.199
29682W        W 2107   5.476  37.512  10.030
29683W        W 2108  22.736  41.321   1.474
29684W        W 2109  27.053  20.175  14.252
29685W        W 2110   5.218  39.970  13.713
29686W        W 2111  21.558   5.972  13.551
29687W        W 2112   6.990  11.098   2.105
29688W        W 2113   2.964  38.062  11.984
29689W        W 2114  13.622  21.250  11.115
29690W        W 2115  27.367  28.216   3.645
29691W        W 2116  15.346  23.008  11.422
29692W        W 2117  34.526  23.162   5.051
29693W        W 2118  14.350  20.580  14.461
29694W        W 2119   3.452  16.796   1.852
29695W        W 2120  28.186  43.505   4.281
29696W        W 2121   9.895  16.540  12.507
29697W        W 2122  36.673  20.170  12.017
29698W        W 2123  40.938   5.176   4.064
29699W        W 2124  13.195  20.057  13.306
29700W        W 2125  13.201   1.694  11.545
29701W        W 2126  20.031   9.284  14.390
29702W        W 2127  26.035  14.807  11.630
29703W        W 2128   7.889  23.262  13.210
29704W        W 2129   4.819   3.454  10.554
29705W        W 2130  26.140  43.428   1.999
29706W        W 2131  29.655   9.716   0.895
29707W        W 2132  23.029  38.175   2.309
29708W        W 2133  25.171  38.019  13.456
29709W        W 2134  40.461   9.707  11.702
29710W        W 2135  17.642  43.567  10.604
29711W        W 2136  16.666  17.184   2.490
29712W        W 2137   4.299  16.273  13.530
29713W        W 2138  39.443  34.348   3.187
29714W        W 2139  33.310  16.237   1.889
29715W        W 2140  21.617  43.778   3.740
29716W        W 2141   8.276   6.057   9.714
29717W        W 2142  15.071  41.002   1.346
29718W        W 2143  10.351  34.595   4.570
29719W        W 2144   6.206  13.525   2.950
29720W        W 2145  13.977  14.187  13.134
29721W        W 2146  23.729  39.414  14.052
29722W        W 2147  19.254   5.413   4.696
29723W        W 2148  31.315  24.388   4.664
29724W        W 2149  42.862  22.510  13.357
29725W        W 2150   5.712  23.524  14.747
29726W        W 2151  34.566   0.842   4.628
29727W        W 2152  19.145   4.885  12.005
29728W        W 2153  39.940  38.777   2.798
29729W        W 2154  18.672  20.273  13.622
29730W        W 2155  32.368  25.682  11.972
29731W        W 2156   5.767  43.887   1.890
29732W        W 2157   5.668  34.005  13.928
29733W        W 2158  32.556   7.618   3.764
29734W        W 2159  13.307  41.628  10.601
29735W        W 2160  16.321  43.867  12.464
29736W        W 2161  38.887   9.903   3.280
29737W        W 2162   5.905  17.672  11.843
29738W        W 2163  24.470  30.245   2.515
29739W        W 2164  33.664   5.454  12.914
29740W        W 2165  39.619  35.566   1.853
29741W        W 2166  26.070  20.179  12.133
29742W        W 2167  17.786  24.036   4.558
29743W        W 2168  27.095   1.810   0.941
29744W        W 2169  19.648  22.046  14.945
29745W        W 2170  33.123  23.862  11.548
29746W        W 2171  42.464  32.366  12.398
29747W        W 2172  20.087  33.745   2.525
29748W        W 2173  39.807  41.458  10.312
29749W        W 2174  18.344  19.739   3.717
29750W        W 2175   8.174   3.543   3.297
29751W        W 2176  29.510   0.341   3.350
29752W        W 2177  26.702  34.368   3.246
29753W        W 2178  11.210  29.792  11.606
29754W        W 2179  22.969  12.634   3.140
29755W        W 2180  37.629  10.812  12.515
29756W        W 2181  41.887   8.241  12.854
29757W        W 2182  30.885  35.957   1.089
29758W        W 2183  32.458  22.439   2.882
29759W        W 2184   6.119   6.641  12.995
29760W        W 2185  37.907  37.831   5.048
29761W        W 2186  29.507  21.980  13.112
29762W        W 2187   3.259  35.103   3.819
29763W        W 2188   8.476  20.748  11.640
29764W        W 2189  43.828  29.018   2.268
29765W        W 2190  27.407  17.113  11.876
29766W        W 2191   5.931   0.973   3.869
29767W        W 2192  18.803  23.662  14.454
29768W        W 2193  38.209  22.306   1.726
29769W        W 2194  34.696   6.741   4.507
29770W        W 2195   4.320  30.162   0.916
29771W        W 2196   6.225   9.565  11.286
29772W        W 2197   5.708  13.321   0.878
29773W        W 2198  33.217   5.651   2.163
29774W        W 2199  34.405   0.855  14.983
29775W        W 2200  42.391  32.941  13.285
29776W        W 2201  39.934  29.827   1.000
29777W        W 2202  38.128  12.837   2.776
29778W        W 2203  12.113  14.822   1.485
29779W        W 2204  28.858  41.949   3.614
29780W        W 2205  25.258  28.585   2.598
29781W        W 2206  10.949   8.190  12.515
29782W        W 2207  12.561  31.722   2.240
29783W        W 2208  24.111  19.252   0.949
29784W        W 2209  10.831  28.566  13.251
29785W        W 2210  43.528  16.931  12.193
29786W        W 2211   4.887  38.318   1.747
29787W        W 2212  18.224  43.434  11.925
29788W        W 2213  30.444  17.747   5.035
29789W        W 2214   0.033  33.230   2.209
29790W        W 2215  35.032  42.000  14.248
29791W        W 2216   5.205  29.005  14.852
29792W        W 2217   2.543  44.997  14.703
29793W        W 2218  25.029  36.590  10.780
29794W        W 2219   1.211  42.990   0.856
29795W        W 2220  11.676  23.550   5.139
29796W        W 2221  27.182  30.945   9.867
29797W        W 2222  25.540  32.177  13.087
29798W        W 2223  15.342  29.926   0.792
29799W        W 2224  24.592  44.418  14.343
29800W        W 2225  15.170  20.018   4.099
29801W        W 2226  11.434  10.823   3.757
29802W        W 2227  20.170  42.380   0.912
29803W        W 2228  28.986  24.303  10.487
29804W        W 2229   1.927   8.889  11.175
29805W        W 2230  14.724   7.090   3.198
29806W        W 2231  16.337  43.291   2.400
29807W        W 2232  38.083  22.740  12.665
29808W        W 2233  12.269  24.843  10.397
29809W        W 2234   7.228  33.684  13.370
29810W        W 2235   8.690  12.684  12.026
29811W        W 2236  20.166  39.967  10.697
29812W        W 2237  35.638   2.809   1.690
29813W        W 2238  15.348  38.995   4.311
29814W        W 2239  20.211  33.448   3.830
29815W        W 2240  11.453  10.816  12.878
29816W        W 2241  24.069  24.962   4.213
29817W        W 2242   2.346  20.150   0.576
29818W        W 2243  15.214  16.706  13.606
29819W        W 2244   0.067  10.313   1.798
29820W        W 2245  35.659  22.173  10.724
29821W        W 2246  14.034  33.088  13.409
29822W        W 2247  20.675  36.334   1.367
29823W        W 2248  38.478   0.771   1.780
29824W        W 2249   8.836  34.626  13.958
29825W        W 2250  38.332  39.262   4.143
29826W        W 2251  29.791  41.511   1.292
29827W        W 2252  36.195  35.536   2.988
29828W        W 2253   7.882   1.712  13.532
29829W        W 2254  43.862   3.059  11.184
29830W        W 2255  40.617  31.203  12.493
29831W        W 2256  35.304  12.679  14.290
29832W        W 2257  25.425  13.203  12.026
29833W        W 2258  34.955  10.854   1.769
29834W        W 2259  37.966  37.864   3.682
29835W        W 2260   1.919  29.377   4.314
29836W        W 2261  26.180   7.040  14.363
29837W        W 2262  40.059  30.901  14.279
29838W        W 2263  36.899   5.145  11.860
29839W        W 2264  22.658  32.167  11.994
29840W        W 2265   0.766  23.559  12.154
29841W        W 2266  23.445  43.461   0.691
29842W        W 2267   6.715   8.896  14.491
29843W        W 2268  20.370  13.993   9.986
29844W        W 2269  29.171   2.975   1.369
29845W        W 2270  12.117   4.712   4.958
29846W        W 2271   8.145  36.845   4.378
29847W        W 2272   1.214  43.281   3.644
29848W        W 2273   4.188  10.918  10.572
29849W        W 2274  12.422  37.005  14.348
29850W        W 2275   0.353  37.815   3.578
29851W        W 2276   4.609  41.342  14.487
29852W        W 2277   7.097   0.261  14.819
29853W        W 2278  37.397   0.387   4.552
29854W        W 2279   0.913  28.940   3.677
29855W        W 2280  18.134  44.976   2.662
29856W        W 2281   9.872  31.835  12.987
29857W        W 2282  42.827  39.353  14.717
29858W        W 2283  12.576   8.822  14.449
29859W        W 2284  23.024  11.605   0.440
29860W        W 2285  36.285  24.597   5.116
29861W        W 2286  24.181  38.717   2.483
29862W        W 2287  25.969  15.723   3.874
29863W        W 2288  41.225  22.499  11.986
29864W        W 2289  23.482  19.087  12.740
29865W        W 2290  25.367  42.204   4.089
29866W        W 2291  24.701   8.701   2.614
29867W        W 2292  37.853  30.475  13.341
29868W        W 2293  12.675  44.685  11.739
29869W        W 2294  43.817   9.740   3.609
29870W        W 2295   6.673   6.444   2.802
29871W        W 2296  41.630  22.305   4.297
29872W        W 2297  21.841   6.764   4.754
29873W        W 2298  33.853  28.893  14.431
29874W        W 2299   0.293  24.511   0.239
29875W        W 2300  32.348  24.157  11.305
29876W        W 2301  27.661  25.094   1.034
29877W        W 2302  10.705  30.747   1.366
29878W        W 2303  34.177  23.937  13.401
29879W        W 2304  17.291  40.661   3.896
29880W        W 2305  38.754  14.252  11.384
29881W        W 2306  41.684  40.981   0.448
29882W        W 2307  37.113  30.538   2.354
29883W        W 2308  13.786  40.254  14.406
29884W        W 2309  15.904  36.291  13.757
29885W        W 2310  16.121  12.797   2.087
29886W        W 2311  12.262  33.921  12.881
29887W        W 2312  22.538  38.351   2.149
29888W        W 2313   6.385  32.940  13.301
29889W        W 2314  16.302   7.104   0.215
29890W        W 2315  10.890  36.554   1.259
29891W        W 2316  36.045  21.127   0.690
29892W        W 2317   7.649  32.024  11.022
29893W        W 2318  34.370  41.434   1.523
29894W        W 2319  24.094   7.795   4.312
29895W        W 2320   4.304   0.492  11.520
29896W        W 2321  32.075  20.442  13.907
29897W        W 2322  41.388   1.927   4.269
29898W        W 2323  40.428   6.678   3.182
29899W        W 2324   6.240  27.753   1.255
29900W        W 2325  21.695  30.019  14.513
29901W        W 2326  43.936   4.843  14.352
29902W        W 2327  37.843  10.250  11.510
29903W        W 2328  28.089  29.111  10.685
29904W        W 2329   5.128  29.481   4.853
29905W        W 2330  18.779  39.907  11.165
29906W        W 2331   0.887  39.178  13.028
29907W        W 2332  11.634  10.339  11.344
29908W        W 2333  28.739  30.443  12.107
29909W        W 2334  12.811  19.314  14.460
29910W        W 2335  36.828  34.638  14.604
29911W        W 2336   2.142   0.906  14.072
29912W        W 2337  13.842  35.902   4.434
29913W        W 2338  25.444  10.212   1.340
29914W        W 2339   2.852  17.810  10.969
29915W        W 2340   5.676  20.052   3.273
29916W        W 2341  43.081  40.958   3.571
29917W        W 2342  18.768  34.299  13.996
29918W        W 2343  28.426  29.479  13.432
29919W        W 2344  22.548  10.803  13.485
29920W        W 2345   5.904  15.674  12.848
29921W        W 2346  20.675  13.812  10.703
29922W        W 2347  17.261  35.164   1.268
29923W        W 2348  28.449  41.966  13.981
29924W        W 2349  17.540  29.177  10.587
29925W        W 2350   7.924  40.621  12.517
29926W        W 2351  20.718   5.359  14.598
29927W        W 2352   8.198  33.345   3.185
29928W        W 2353  41.416  39.850   1.178
29929W        W 2354  13.711  32.453  13.369
29930W        W 2355   5.340  18.275  11.178
29931W        W 2356  23.906  10.426  11.431
29932W        W 2357  16.586  42.066   1.446
29933W        W 2358   4.928  28.730   4.177
29934W        W 2359   8.207  37.822  14.432
29935W        W 2360  20.700  18.808   2.272
29936W        W 2361  19.166  38.441  13.437
29937W        W 2362  39.371  34.626   3.650
29938W        W 2363   9.645  11.240   3.474
29939W        W 2364  37.813  15.336  11.082
29940W        W 2365  23.094  20.116   4.707
29941W        W 2366  23.690   9.037  12.020
29942W        W 2367  43.259  39.945   2.335
29943W        W 2368  38.315  41.521   1.445
29944W        W 2369  13.356  25.618   1.269
29945W        W 2370  22.461   7.489   3.356
29946W        W 2371   9.217  32.801  10.564
29947W        W 2372  16.277  23.526  11.186
29948W        W 2373  27.960  22.359   0.363
29949W        W 2374  37.918  26.452   3.657
29950W        W 2375  21.504  41.667  11.504
29951W        W 2376  42.511   6.286  14.046
29952W        W 2377  33.502  12.535   1.870
29953W        W 2378  14.754   4.390   3.190
29954W        W 2379   7.267  32.272   0.954
29955W        W 2380   9.188  36.035   2.485
29956W        W 2381   8.208  14.791   4.551
29957W        W 2382   5.816  20.434  10.788
29958W        W 2383  25.033  26.599   0.843
29959W        W 2384  33.200  44.853  12.446
29960W        W 2385  30.493  41.067  12.834
29961W        W 2386  39.055  28.111   4.576
29962W        W 2387  18.286  36.301   1.828
29963W        W 2388  19.685  10.405   4.239
29964W        W 2389  28.604  38.078  11.024
29965W        W 2390   7.708  35.719   4.144
29966W        W 2391  41.402  35.484  12.316
29967W        W 2392  42.175  19.549  10.610
29968W        W 2393  12.623  17.802   1.312
29969W        W 2394  38.030   6.397   0.894
29970W        W 2395  29.595   4.076   2.377
29971W        W 2396   9.686  38.857  14.321
29972W        W 2397  25.675  11.664  12.145
29973W        W 2398   4.267  42.421   1.422
29974W        W 2399  28.424  12.436   1.815
29975W        W 2400  23.672  42.037  14.488
29976W        W 2401   8.701   9.665  13.771
29977W        W 2402   6.378  25.093  13.068
29978W        W 2403  44.258  40.053   2.646
29979W        W 2404   9.223  19.713   1.858
29980W        W 2405  10.278  15.565  13.005
29981W        W 2406  13.420   0.837  14.217
29982W        W 2407  23.739  17.016  13.281
29983W        W 2408  35.918   1.994  11.769
29984W        W 2409  10.728  42.898   2.377
29985W        W 2410  25.683   9.881  14.648
29986W        W 2411  17.546   1.469   2.286
29987W        W 2412  12.824   7.632   2.801
29988W        W 2413  13.363  32.985  14.036
29989W        W 2414  20.227  31.147   3.157
29990W        W 2415   1.473  23.213  11.208
29991W        W 2416   3.997  27.909   2.677
29992W        W 2417  35.860  44.633  11.462
29993W        W 2418  41.587  31.909   0.915
29994W        W 2419   7.805  27.420  13.911
29995W        W 2420   8.107  17.095   0.122
29996W        W 2421  24.075  33.846  11.081
29997W        W 2422   7.750  17.705   4.819
29998W        W 2423  23.532  13.360  14.554
29999W        W 2424  37.260  26.560  12.997
30000W        W 2425  42.007  10.710   2.237
30001W        W 2426   4.201  30.170   3.640
30002W        W 2427  35.788  23.473   2.204
30003W        W 2428  33.961   5.472  11.401
30004W        W 2429  26.493  18.318  14.436
30005W        W 2430   8.192   2.463  11.165
30006W        W 2431  22.306   3.958   4.126
30007W        W 2432   6.443   7.113  13.958
30008W        W 2433  28.714  42.325   1.720
30009W        W 2434  20.019  16.271   1.282
30010W        W 2435  38.021  23.674   5.133
30011W        W 2436   3.736  11.607   1.975
30012W        W 2437  17.735   9.653   1.400
30013W        W 2438  38.043  32.627  11.384
30014W        W 2439  30.929  13.817  12.491
30015W        W 2440  16.218  37.312   3.165
30016W        W 2441   3.021  21.096   1.480
30017W        W 2442   5.769  23.011  14.824
30018W        W 2443   8.192  29.584   4.092
30019W        W 2444   4.246  43.366  10.700
30020W        W 2445  10.424   6.443   4.178
30021W        W 2446  28.690  16.167  13.315
30022W        W 2447  12.166  26.493  12.172
30023W        W 2448  17.670  25.763   2.414
30024W        W 2449   6.994  44.528  12.443
30025W        W 2450  39.395  39.640   0.284
30026W        W 2451  40.495  21.062   0.184
30027W        W 2452  16.421  19.088  11.117
30028W        W 2453  28.543   1.705  14.384
30029W        W 2454   9.243  30.768  12.493
30030W        W 2455  20.349  10.199  11.434
30031W        W 2456  13.532   7.184   3.632
30032W        W 2457  43.482  42.595  11.034
30033W        W 2458  21.973   4.946   3.258
30034W        W 2459  26.096   0.712   0.710
30035W        W 2460  31.938   4.731   3.741
30036W        W 2461  16.317  10.647   2.049
30037W        W 2462  37.297  26.195   5.229
30038W        W 2463  18.663  11.120  12.155
30039W        W 2464   6.921  40.270  10.533
30040W        W 2465  35.362  25.686   0.802
30041W        W 2466  35.497  32.122  14.886
30042W        W 2467   9.276   4.903  14.873
30043W        W 2468  17.294  13.511   1.324
30044W        W 2469   8.737  19.491   1.911
30045W        W 2470  44.704  11.275   1.357
30046W        W 2471  14.059  29.432   0.875
30047W        W 2472  17.422  21.628   3.845
30048W        W 2473  30.436  30.110   2.607
30049W        W 2474   0.388  43.980  14.751
30050W        W 2475  44.222  14.783  11.187
30051W        W 2476  14.711   7.185  12.815
30052W        W 2477  16.469  13.169  13.347
30053W        W 2478  20.271  41.414   2.894
30054W        W 2479  18.278  25.652   4.102
30055W        W 2480   9.113  25.466  10.661
30056W        W 2481  27.745   0.032  12.073
30057W        W 2482   8.977  31.443   2.869
30058W        W 2483  14.245  40.309  12.374
30059W        W 2484   3.503  17.138  11.852
30060W        W 2485  23.738  20.725  10.913
30061W        W 2486  25.872   7.959  11.447
30062W        W 2487  20.119  32.078   5.288
30063W        W 2488  40.026   2.291   0.306
30064W        W 2489  37.937  24.946   3.807
30065W        W 2490   4.216  12.341  13.948
30066W        W 2491  13.246  30.854  12.027
30067W        W 2492   8.774  44.320  14.353
30068W        W 2493  21.831   3.390   1.978
30069W        W 2494  15.791  12.586   3.705
30070W        W 2495  42.767  34.550  10.706
30071W        W 2496  18.690   0.356  10.546
30072W        W 2497  22.563   1.455  13.992
30073W        W 2498  42.951  36.300   3.636
30074W        W 2499  15.262  35.317  14.950
30075W        W 2500  18.561  23.170   4.174
30076W        W 2501  19.750  25.551  13.851
30077W        W 2502   3.214  32.386   4.485
30078W        W 2503  23.264   3.402   1.954
30079W        W 2504   5.130  20.566   0.795
30080W        W 2505  39.520  28.542  13.186
30081W        W 2506   8.170  23.539   0.285
30082W        W 2507   5.250  35.335   3.845
30083W        W 2508  30.080   4.048   2.153
30084W        W 2509  18.317  19.291   4.940
30085W        W 2510  28.599  20.669  12.896
30086W        W 2511  22.966  21.366   0.903
30087W        W 2512  20.639  44.794   4.371
30088W        W 2513  36.287  40.336   3.175
30089W        W 2514  41.336   0.769  13.621
30090W        W 2515  14.730  13.859  11.596
30091W        W 2516  19.194   7.909   1.433
30092W        W 2517   6.658  33.410   4.592
30093W        W 2518  11.373  36.430  11.655
30094W        W 2519   8.841   5.690  10.200
30095W        W 2520  30.208  27.392   4.301
30096W        W 2521  37.025  18.519  14.877
30097W        W 2522  36.667  17.701  11.132
30098W        W 2523  20.109   0.334   4.364
30099W        W 2524  14.115  15.733   1.694
30100W        W 2525  36.476  43.890   0.809
30101W        W 2526  22.306  19.056   0.525
30102W        W 2527   2.222   0.956  13.576
30103W        W 2528  14.288  22.906   3.715
30104W        W 2529  11.825  27.098   1.864
30105W        W 2530  42.156  40.939  11.438
30106W        W 2531   5.935  12.250   4.512
30107W        W 2532  44.783   9.161   1.868
30108W        W 2533   4.453  18.723   4.818
30109W        W 2534  11.701  14.370  13.030
30110W        W 2535  42.926  42.779   0.944
30111W        W 2536  40.069  17.422   4.317
30112W        W 2537  28.004   5.655  10.177
30113W        W 2538  32.845  27.458  11.168
30114W        W 2539  25.485  40.111  12.145
30115W        W 2540  41.763   4.662   1.841
30116W        W 2541  17.518  42.522  10.596
30117W        W 2542  40.999  22.950   0.335
30118W        W 2543  23.221  18.258  11.152
30119W        W 2544  32.636  30.754  13.787
30120W        W 2545  37.987  43.550   2.786
30121W        W 2546  43.491  30.551   1.433
30122W        W 2547   8.520  41.475  11.647
30123W        W 2548  32.071  13.339  12.806
30124W        W 2549  32.127  24.034  10.466
30125W        W 2550  27.026   9.520  14.741
30126W        W 2551   0.811  17.303  14.854
30127W        W 2552  27.693  12.294   2.856
30128W        W 2553  41.068   2.423   2.776
30129W        W 2554  39.468  23.500   1.629
30130W        W 2555  29.291  29.295   4.927
30131W        W 2556   1.179  39.080   1.804
30132W        W 2557  27.274   8.170  13.042
30133W        W 2558   2.723  18.807   4.063
30134W        W 2559  40.558  38.345  14.501
30135W        W 2560  11.388  36.691   1.349
30136W        W 2561  21.318  10.785  12.999
30137W        W 2562  21.142  11.439  14.886
30138W        W 2563  40.030  13.193   0.593
30139W        W 2564  43.313  12.294   0.452
30140W        W 2565  18.703  14.649  13.122
30141W        W 2566   5.733  31.663  11.292
30142W        W 2567   9.326  35.379   5.465
30143W        W 2568  39.877   2.279  11.155
30144W        W 2569  25.096  27.501   1.919
30145W        W 2570  26.609  16.368   4.117
30146W        W 2571  10.101  33.102  10.123
30147W        W 2572  25.680  29.277  11.580
30148W        W 2573  39.091  28.459  11.215
30149W        W 2574  11.711  13.892  10.344
30150W        W 2575   7.704  18.481   0.253
30151W        W 2576   1.850  23.581  11.965
30152W        W 2577  20.948  27.106  12.142
30153W        W 2578   4.380  31.383  13.701
30154W        W 2579  37.480   3.469   0.043
30155W        W 2580  16.081  24.709  12.990
30156W        W 2581  35.438  41.246  14.234
30157W        W 2582  19.745  23.479   2.869
30158W        W 2583  36.438  19.156   0.459
30159W        W 2584   6.620  26.433  11.561
30160W        W 2585  10.209   2.277   2.759
30161W        W 2586   7.796  11.397  14.356
30162W        W 2587   1.052  12.832  14.991
30163W        W 2588   5.751  34.810  14.642
30164W        W 2589  33.387  40.724   0.872
30165W        W 2590  13.790  20.315   1.824
30166W        W 2591  42.893  41.059  11.921
30167W        W 2592  16.749   3.063   4.660
30168W        W 2593  26.943   0.254  14.014
30169W        W 2594  12.610  32.860   1.779
30170W        W 2595  12.648  24.452  13.321
30171W        W 2596  24.120  33.638   3.681
30172W        W 2597  27.310   6.288   1.147
30173W        W 2598  21.590  16.209   4.356
30174W        W 2599  34.894   0.371   0.723
30175W        W 2600   7.800  27.105  14.415
30176W        W 2601  42.229  16.173   2.302
30177W        W 2602  36.084  13.788   1.950
30178W        W 2603  16.172   6.792   2.899
30179W        W 2604  17.532   9.112  12.054
30180W        W 2605  37.070   3.394  12.170
30181W        W 2606   1.890  27.514  11.941
30182W        W 2607   0.377  22.372  12.928
30183W        W 2608   1.296   0.145  11.851
30184W        W 2609   9.092  29.256  14.468
30185W        W 2610  20.696  25.222   3.442
30186W        W 2611  39.423  11.671  10.659
30187W        W 2612   1.438  25.451   4.387
30188W        W 2613  41.474  41.132  10.514
30189W        W 2614  32.096   6.523   3.756
30190W        W 2615  41.499   0.868  14.102
30191W        W 2616  12.315  12.818   0.704
30192W        W 2617  41.938   7.802  14.294
30193W        W 2618  20.808  23.917  12.321
30194W        W 2619  27.258   6.699  11.271
30195W        W 2620  29.649   4.297   4.209
30196W        W 2621  31.107   9.602   2.338
30197W        W 2622   9.224  35.948   1.991
30198W        W 2623   5.962  21.647   3.546
30199W        W 2624  18.152  17.258   0.813
30200W        W 2625   6.330  21.566  12.924
30201W        W 2626  15.544  44.223   4.313
30202W        W 2627  29.555  40.387   0.754
30203W        W 2628  36.263  31.977   2.525
30204W        W 2629  37.679  18.418   0.790
30205W        W 2630   9.775  39.351  14.477
30206W        W 2631  42.571  33.111  10.719
30207W        W 2632  25.913  39.050  13.979
30208W        W 2633  13.359  41.994  14.395
30209W        W 2634  30.359  11.831  11.694
30210W        W 2635  37.126  13.148  12.861
30211W        W 2636  37.215  23.325   9.715
30212W        W 2637  22.964  37.457   9.809
30213W        W 2638  37.132  30.872  11.513
30214W        W 2639  10.443   4.822   3.392
30215W        W 2640  25.675  18.623   3.414
30216W        W 2641  26.210  18.640  14.730
30217W        W 2642  26.794  23.982   4.117
30218W        W 2643  17.316  44.224  11.021
30219W        W 2644  12.605  22.582   3.702
30220W        W 2645  34.354   6.223   0.928
30221W        W 2646  31.582   5.859  13.529
30222W        W 2647  34.490  28.106   4.581
30223W        W 2648  34.792   2.987   2.210
30224W        W 2649  26.212  43.863  11.327
30225W        W 2650  44.247   6.923  13.871
30226W        W 2651  16.467  31.037   4.535
30227W        W 2652  26.138  40.624  11.137
30228W        W 2653  29.162  23.005   0.415
30229W        W 2654  30.898  44.058  13.944
30230W        W 2655  18.630   5.274   2.284
30231W        W 2656  35.332  13.635  14.854
30232W        W 2657  44.012  19.585  10.307
30233W        W 2658  31.668  29.596   3.263
30234W        W 2659  22.579  21.706  11.681
30235W        W 2660  24.215  27.346  12.985
30236W        W 2661  30.141  43.282   4.126
30237W        W 2662  37.138  19.268  13.805
30238W        W 2663  33.505   8.227   2.125
30239W        W 2664  19.182  13.562  11.201
30240W        W 2665   4.944  27.053  12.047
30241W        W 2666  27.861  29.916  12.180
30242W        W 2667  36.937  22.072  12.079
30243W        W 2668  25.938   3.265  14.719
30244W        W 2669  15.245  16.908   0.805
30245W        W 2670  24.127  10.183   0.817
30246W        W 2671  17.673  18.991   3.640
30247W        W 2672   3.445  20.662  12.769
30248W        W 2673  30.149  22.819  14.903
30249W        W 2674   7.268  40.144   1.326
30250W        W 2675  17.213  30.190   4.128
30251W        W 2676  22.748  40.350  12.042
30252W        W 2677  28.940  16.007   4.360
30253W        W 2678  32.233   8.172  13.370
30254W        W 2679  16.831  17.515  12.377
30255W        W 2680   9.813  10.726   4.306
30256W        W 2681  37.859  14.703   4.084
30257W        W 2682  14.353   6.468   0.239
30258W        W 2683  32.067  22.122  10.159
30259W        W 2684   5.173   1.295  14.966
30260W        W 2685  43.891  32.139  11.572
30261W        W 2686  32.623   7.105  11.824
30262W        W 2687   4.812  41.123   0.409
30263W        W 2688  16.246  35.236   1.370
30264W        W 2689  31.601  10.457   1.221
30265W        W 2690  11.159   0.847  13.434
30266W        W 2691  22.208  17.740  14.423
30267W        W 2692   5.705  43.897   1.294
30268W        W 2693   9.280  20.551  11.036
30269W        W 2694  34.516  30.176  14.545
30270W        W 2695   8.863  28.695  13.469
30271W        W 2696  23.242  34.512  13.764
30272W        W 2697  38.862  38.606  14.631
30273W        W 2698  26.184  26.901  11.205
30274W        W 2699  23.370  15.655  11.215
30275W        W 2700  17.959   0.393  11.282
30276W        W 2701  30.659  14.772   2.929
30277W        W 2702  36.283  11.771   4.539
30278W        W 2703  26.521  38.903   0.292
30279W        W 2704  22.232  16.644   1.333
30280W        W 2705  20.707  28.422  13.378
30281W        W 2706  31.052  18.813  10.635
30282W        W 2707  29.240  36.208  13.815
30283W        W 2708   8.682  37.025   1.945
30284W        W 2709   9.133  41.036   1.947
30285W        W 2710  25.055   8.315   1.200
30286W        W 2711  11.133   8.320  11.482
30287W        W 2712  34.169  18.392   1.815
30288W        W 2713   3.824  13.557   3.167
30289W        W 2714  29.619  26.515  12.859
30290W        W 2715  11.122   1.331  11.575
30291W        W 2716  25.005  27.384  10.650
30292W        W 2717  23.557  40.041   2.111
30293W        W 2718  34.117  42.871  13.538
30294W        W 2719  39.848  11.708  14.451
30295W        W 2720  42.381   3.388   1.244
30296W        W 2721  40.384  31.106   4.496
30297W        W 2722  36.932  23.602  13.177
30298W        W 2723  32.876  10.696   4.041
30299W        W 2724   9.850   5.939  11.921
30300W        W 2725   9.324  39.341   2.218
30301W        W 2726  16.299  40.166  14.117
30302W        W 2727  20.425  17.434   3.818
30303W        W 2728  25.612  28.719   4.351
30304W        W 2729  12.743  25.154  11.688
30305W        W 2730  25.623  35.628   3.206
30306W        W 2731   1.846  22.130  11.648
30307W        W 2732  16.973  28.175  11.062
30308W        W 2733  17.655  25.250   0.378
30309W        W 2734  17.094   7.579  13.261
30310W        W 2735  18.978  30.616   3.155
30311W        W 2736  11.592  38.346   0.862
30312W        W 2737  19.202  36.847  13.981
30313W        W 2738  13.035   2.870   3.960
30314W        W 2739  38.601   2.638   1.243
30315W        W 2740   3.754  16.212   4.088
30316W        W 2741  24.514  25.570   0.220
30317W        W 2742   1.873  17.071  10.825
30318W        W 2743   8.990  30.374   0.379
30319W        W 2744  12.989  11.061  13.550
30320W        W 2745  35.139  22.825   1.037
30321W        W 2746  21.767  22.665   1.372
30322W        W 2747   8.433  29.878  14.518
30323W        W 2748  25.889  38.801   4.904
30324W        W 2749  35.790  40.339  13.047
30325W        W 2750  18.342  21.784   4.940
30326W        W 2751  24.764  30.350   4.874
30327W        W 2752  35.162  37.778   4.175
30328W        W 2753  40.845   7.834  14.886
30329W        W 2754  32.153  35.102   4.754
30330W        W 2755   6.050   1.878  13.842
30331W        W 2756  11.215  18.811   4.933
30332W        W 2757  31.524  42.583  12.343
30333W        W 2758   7.454   9.083   3.389
30334W        W 2759  10.204  21.239  13.560
30335W        W 2760  29.660  24.237  13.291
30336W        W 2761  27.031  25.129  14.584
30337W        W 2762  44.766  41.987   0.923
30338W        W 2763   9.809  44.204   0.861
30339W        W 2764  21.503  21.005   4.002
30340W        W 2765   3.959  27.145  12.941
30341W        W 2766  11.601  34.004  11.595
30342W        W 2767  11.469   0.811  10.752
30343W        W 2768   8.784  43.744   2.232
30344W        W 2769   2.936  12.036  12.220
30345W        W 2770  21.388   6.992  14.762
30346W        W 2771  21.774   7.291   2.899
30347W        W 2772  22.263  42.985  12.939
30348W        W 2773  19.172  34.125  11.078
30349W        W 2774   7.764  44.986   3.125
30350W        W 2775   5.911  30.998   2.081
30351W        W 2776   3.700  17.103  13.276
30352W        W 2777  10.369  30.155  13.267
30353W        W 2778   6.165   8.429   0.364
30354W        W 2779  15.273   9.966  11.495
30355W        W 2780   8.204   5.806   4.166
30356W        W 2781   0.526  35.410  10.637
30357W        W 2782  21.952   0.279   0.223
30358W        W 2783  39.875  30.606   3.918
30359W        W 2784  26.205   0.964  11.522
30360W        W 2785  34.187   8.233  12.984
30361W        W 2786  16.189  27.571  12.504
30362W        W 2787  29.603  33.622   4.939
30363W        W 2788  22.071   8.811  10.036
30364W        W 2789  40.005   6.157  11.112
30365W        W 2790  38.894  29.183   0.150
30366W        W 2791  10.897  42.906  11.545
30367W        W 2792  37.502  42.947  10.875
30368W        W 2793   6.435  26.346  10.967
30369W        W 2794  10.823  40.087  14.877
30370W        W 2795  44.315  39.876   0.260
30371W        W 2796  34.023  36.599   0.288
30372W        W 2797  44.362  13.312   3.747
30373W        W 2798   8.928  11.116   2.803
30374W        W 2799   8.887  32.931  11.603
30375W        W 2800   5.931  22.389   1.128
30376W        W 2801  15.607  44.769   0.787
30377W        W 2802   4.245  44.315   0.414
30378W        W 2803   5.656  11.183  13.882
30379W        W 2804   2.304  17.597  13.430
30380W        W 2805   7.839  21.479   1.366
30381W        W 2806   0.290   8.750   4.354
30382W        W 2807  28.464  43.132  10.527
30383W        W 2808   5.826  29.563   3.625
30384W        W 2809  25.700  41.900  10.690
30385W        W 2810  38.325  30.360   3.368
30386W        W 2811   7.646  30.496  10.256
30387W        W 2812  39.221  29.395   1.829
30388W        W 2813   1.768  42.917  11.828
30389W        W 2814  10.750  44.352   1.257
30390W        W 2815  32.668  14.605   2.933
30391W        W 2816  24.128  31.659   4.038
30392W        W 2817  40.218  10.302   1.289
30393W        W 2818  29.605   5.088   3.895
30394W        W 2819  28.138   5.725   1.255
30395W        W 2820  10.853  18.114  11.041
30396W        W 2821  43.355  44.865  11.562
30397W        W 2822  37.455  32.937   0.433
30398W        W 2823  28.206  30.574  10.157
30399W        W 2824  40.326  30.930   3.199
30400W        W 2825  34.164  30.586  11.147
30401W        W 2826  38.098  25.180  11.873
30402W        W 2827  44.789  22.106   4.285
30403W        W 2828   4.164  13.764  14.328
30404W        W 2829  43.043  34.732   4.087
30405W        W 2830   1.006  42.400  11.356
30406W        W 2831   2.738  20.651   4.645
30407W        W 2832  28.379  37.787   2.783
30408W        W 2833  41.808  33.335   2.212
30409W        W 2834  36.598  17.764   0.414
30410W        W 2835  39.973   8.662  12.823
30411W        W 2836  26.181  31.648   5.469
30412W        W 2837  27.201  30.708  11.201
30413W        W 2838   6.948  39.899  14.840
30414W        W 2839  19.949  41.848  13.543
30415W        W 2840  32.483  18.207   1.248
30416W        W 2841  18.853   6.023  12.907
30417W        W 2842  25.790  39.054   2.316
30418W        W 2843   1.216   5.889   0.903
30419W        W 2844  40.004  24.239   3.976
30420W        W 2845   5.390  13.155  13.173
30421W        W 2846  35.602  20.979  11.142
30422W        W 2847  33.828  36.552   4.559
30423W        W 2848  12.768  32.886  13.533
30424W        W 2849   2.967   1.843  12.155
30425W        W 2850  24.690  12.934   2.902
30426W        W 2851   7.635  41.866  14.765
30427W        W 2852  24.229  33.680   2.760
30428W        W 2853  23.101  16.071  10.972
30429W        W 2854   5.203  12.114   1.757
30430W        W 2855  19.252   8.177   3.261
30431W        W 2856  42.268  22.628   0.315
30432W        W 2857  30.620  31.814   2.728
30433W        W 2858  16.585  23.536   1.382
30434W        W 2859  21.139  28.557   3.245
30435W        W 2860  21.884   2.535  14.136
30436W        W 2861  30.865   7.169  14.445
30437W        W 2862  18.516  41.274   1.073
30438W        W 2863  27.035   2.408   2.637
30439W        W 2864  27.613  27.552   2.567
30440W        W 2865  18.095  35.647   4.149
30441W        W 2866  11.827   3.056  11.372
30442W        W 2867   1.954  32.609  11.585
30443W        W 2868  32.876  16.685  12.873
30444W        W 2869  42.579   1.140  14.933
30445W        W 2870  15.937  11.287   0.864
30446W        W 2871  44.981  18.129   0.399
30447W        W 2872   1.874  40.207   1.374
30448W        W 2873  22.656  16.717   2.397
30449W        W 2874   2.753   2.908   4.280
30450W        W 2875  34.234  22.028   2.851
30451W        W 2876  44.964   4.365  12.654
30452W        W 2877  40.381   5.706  11.616
30453W        W 2878  44.997  19.568   0.325
30454W        W 2879  10.615  40.966  14.979
30455W        W 2880   0.485  13.372  14.383
30456W        W 2881  28.425  38.513   2.161
30457W        W 2882  32.912  44.368   2.371
30458W        W 2883  31.822  18.054   4.250
30459W        W 2884  14.205   0.395  10.523
30460W        W 2885   6.264  25.371   1.315
30461W        W 2886  31.835  22.632   3.538
30462W        W 2887  39.437   1.402   3.749
30463W        W 2888  43.188  33.594   0.978
30464W        W 2889  40.999  10.592  13.233
30465W        W 2890  18.534  10.266   1.507
30466W        W 2891  13.150  41.559   4.628
30467W        W 2892  11.658  37.881  14.657
30468W        W 2893  33.990  34.195  10.553
30469W        W 2894  25.978  14.335  12.185
30470W        W 2895  43.030   3.677   3.199
30471W        W 2896   8.354   3.153  13.301
30472W        W 2897  41.920  36.850   3.652
30473W        W 2898  30.846  31.979  12.916
30474W        W 2899  40.976  29.562   3.413
30475W        W 2900  38.077  19.867   5.023
30476W        W 2901  34.419  13.066  11.066
30477W        W 2902  42.428  11.562  11.181
30478W        W 2903  28.717  42.971  10.966
30479W        W 2904  36.833   7.427   4.700
30480W        W 2905  30.754  40.186   4.401
30481W        W 2906  12.833  36.449  10.926
30482W        W 2907  16.386  29.676  14.277
30483W        W 2908  34.744  27.923   4.158
30484W        W 2909  35.567  35.783  13.382
30485W        W 2910  35.499  28.472  11.224
30486W        W 2911  18.218   4.395  11.493
30487W        W 2912   9.289  10.642   4.142
30488W        W 2913  20.147  25.589  12.398
30489W        W 2914   3.972  42.862  10.749
30490W        W 2915  40.012  20.102   1.428
30491W        W 2916  10.102  13.254  11.366
30492W        W 2917  18.074  32.020  11.800
30493W        W 2918  16.975  16.838  11.000
30494W        W 2919  28.427  35.922   2.904
30495W        W 2920  34.788  24.420   0.370
30496W        W 2921  14.588   2.161   3.758
30497W        W 2922   1.412  43.414  14.039
30498W        W 2923  35.959  36.448   1.303
30499W        W 2924  14.701  34.084  12.496
30500W        W 2925   0.272  44.290  14.343
30501W        W 2926  15.639  15.555   0.785
30502W        W 2927   8.401   7.628  10.225
30503W        W 2928  12.378  23.848  13.897
30504W        W 2929  22.634  27.467   0.602
30505W        W 2930  19.326   1.393   0.647
30506W        W 2931  23.135  12.812   1.574
30507W        W 2932   7.956  19.160  12.902
30508W        W 2933   4.840  26.674   0.843
30509W        W 2934   9.619  34.556   0.508
30510W        W 2935  28.048  17.190   5.108
30511W        W 2936  30.933  24.430  13.260
30512W        W 2937  41.837  26.086   4.173
30513W        W 2938  12.222  13.644  11.514
30514W        W 2939  15.176  13.066  14.519
30515W        W 2940  23.110  13.436  14.034
30516W        W 2941  10.815  11.125   2.710
30517W        W 2942   9.974  19.793  11.846
30518W        W 2943  38.127  44.048  14.732
30519W        W 2944  40.766  34.873  13.230
30520W        W 2945   3.419  21.603  12.337
30521W        W 2946  29.223  26.634  14.525
30522W        W 2947  31.819  36.026   4.905
30523W        W 2948  10.160  42.395   0.034
30524W        W 2949  36.320   7.419   2.822
30525W        W 2950  42.892  37.602  12.089
30526W        W 2951  44.595  25.622  13.012
30527W        W 2952  35.083  35.949   0.647
30528W        W 2953   6.911   7.694   0.335
30529W        W 2954  37.415   8.325  10.903
30530W        W 2955  26.460  20.497  12.981
30531W        W 2956  14.420   0.904  14.465
30532W        W 2957  32.400  27.978   0.876
30533W        W 2958  23.801   5.218  13.366
30534W        W 2959  31.115  22.204   0.069
30535W        W 2960   5.404   0.740  10.793
30536W        W 2961   9.869  41.764  14.372
30537W        W 2962  24.218   2.399  12.920
30538W        W 2963  38.616  24.200  13.880
30539W        W 2964   3.810  29.114  13.391
30540W        W 2965   1.528  11.645   4.101
30541W        W 2966   4.425  24.093   1.528
30542W        W 2967  40.263  28.575   4.133
30543W        W 2968  34.553  42.449  10.879
30544W        W 2969   4.063  16.101  10.315
30545W        W 2970  12.836  35.512   4.182
30546W        W 2971  36.477  31.964   3.547
30547W        W 2972  38.937  34.830  10.150
30548W        W 2973  36.342   6.040  10.551
30549W        W 2974  22.060  18.147   3.204
30550W        W 2975  20.180  30.175   3.204
30551W        W 2976  16.883  22.240   0.997
30552W        W 2977  26.010  10.445  10.107
30553W        W 2978  20.999  19.560  14.032
30554W        W 2979   5.125  25.750  10.523
30555W        W 2980  30.086  40.026   0.488
30556W        W 2981   1.026  19.635   5.064
30557W        W 2982  35.434  31.616  14.295
30558W        W 2983   1.361  16.182  14.229
30559W        W 2984   7.593   5.762  14.383
30560W        W 2985  27.620  22.127  13.809
30561W        W 2986  19.065   6.045   2.280
30562W        W 2987  28.710  15.693   1.877
30563W        W 2988  27.111  31.792   3.665
30564W        W 2989  32.731  30.466  14.218
30565W        W 2990  18.540  32.283  11.404
30566W        W 2991  36.440  25.984  14.852
30567W        W 2992  44.383  29.373   3.735
30568W        W 2993  43.900  39.992  11.589
30569W        W 2994   0.529  25.604   2.425
30570W        W 2995  15.732   3.819   3.961
30571W        W 2996   2.872  31.865  13.455
30572W        W 2997  35.855   2.759  13.412
30573W        W 2998  15.792  15.561   4.745
30574W        W 2999  24.582  13.611  10.622
30575W        W 3000  18.902  42.878   1.792
30576W        W 3001  18.856  35.123  13.301
30577W        W 3002  22.266  29.596   4.177
30578W        W 3003  20.756   0.301   3.127
30579W        W 3004   1.767  35.727   4.460
30580W        W 3005   7.969  16.036  11.584
30581W        W 3006  42.004  11.370  10.401
30582W        W 3007  33.620  30.931  13.384
30583W        W 3008  22.467  18.733   4.009
30584W        W 3009  20.297  36.400  14.400
30585W        W 3010  16.599  18.240   2.865
30586W        W 3011  30.701  11.239  13.046
30587W        W 3012  35.446   6.661  12.904
30588W        W 3013  24.629  10.492   2.839
30589W        W 3014  25.773  31.541  11.955
30590W        W 3015  37.537   7.317  14.796
30591W        W 3016  10.176  15.434  10.261
30592W        W 3017  41.495  31.650  10.579
30593W        W 3018  29.200  43.630  14.751
30594W        W 3019   0.464   8.888  12.998
30595W        W 3020  34.578   0.862  11.696
30596W        W 3021  28.628  43.004   4.642
30597W        W 3022  33.422  24.032  14.925
30598W        W 3023  19.536  30.555  11.406
30599W        W 3024  19.502  30.058  13.930
30600W        W 3025  41.023   6.661  13.947
30601W        W 3026  17.821  26.973  13.037
30602W        W 3027  17.458   8.442   2.090
30603W        W 3028  26.270  18.321  11.863
30604W        W 3029  18.498  30.819  12.004
30605W        W 3030  44.995   1.976   1.327
30606W        W 3031  38.067  12.949   4.644
30607W        W 3032  11.308   9.133  12.461
30608W        W 3033  17.191  11.572  11.587
30609W        W 3034   8.218  11.675  13.503
30610W        W 3035  28.237  21.717  11.052
30611W        W 3036  28.585  14.649  12.545
30612W        W 3037  23.703   5.351   2.628
30613W        W 3038  14.550  40.573  14.857
30614W        W 3039   8.196  11.495   2.222
30615W        W 3040   3.022   1.798  13.068
30616W        W 3041  40.744  20.311  13.038
30617W        W 3042   1.282  16.657  13.988
30618W        W 3043  23.780  11.116  10.198
30619W        W 3044  43.664  27.971   0.880
30620W        W 3045  44.490  39.065  14.884
30621W        W 3046  22.560  15.152   0.108
30622W        W 3047  22.719  34.893   0.028
30623W        W 3048   7.114  11.249  12.987
30624W        W 3049   5.310  22.192   2.425
30625W        W 3050  40.938  29.119   3.687
30626W        W 3051  33.035  11.826   4.303
30627W        W 3052   0.340   0.991   4.808
30628W        W 3053  30.898  26.887  12.906
30629W        W 3054  38.631   4.381  11.604
30630W        W 3055  15.839  13.520   0.470
30631W        W 3056  41.803   1.642  13.518
30632W        W 3057  14.182  42.772  11.398
30633W        W 3058  37.875  36.838   3.588
30634W        W 3059   5.720  26.450  11.658
30635W        W 3060   3.501  11.289  11.178
30636W        W 3061   0.517  37.971   4.518
30637W        W 3062  36.020   2.141  14.917
30638W        W 3063  18.766  11.234   1.343
30639W        W 3064  15.403   9.702  13.612
30640W        W 3065   5.411  15.723   4.333
30641W        W 3066  12.376  37.557   2.614
30642W        W 3067  12.123   9.187   3.358
30643W        W 3068  11.256  37.981   1.428
30644W        W 3069   3.322  40.382   0.976
30645W        W 3070  39.129  39.336  11.849
30646W        W 3071  26.328   7.679  11.426
30647W        W 3072   7.329  38.058  14.405
30648W        W 3073  21.624  43.256   4.664
30649W        W 3074  19.584  16.360   3.654
30650W        W 3075   0.809   1.139   5.051
30651W        W 3076  25.166  44.748  14.246
30652W        W 3077  21.300  20.588  12.532
30653W        W 3078   4.531  35.111   4.206
30654W        W 3079  16.867  33.830  13.451
30655W        W 3080   0.350  43.414   3.486
30656W        W 3081   8.199  18.755  10.473
30657W        W 3082  42.975  19.550   3.622
30658W        W 3083  36.511  44.698  12.021
30659W        W 3084   2.498  37.972   4.512
30660W        W 3085   7.482  39.440  11.211
30661W        W 3086   3.162  25.096  14.241
30662W        W 3087  25.729  32.769   2.402
30663W        W 3088   9.596   7.118   0.422
30664W        W 3089  17.229   1.430  11.722
30665W        W 3090  21.709  44.920  14.424
30666W        W 3091  11.644   6.484  12.689
30667W        W 3092  32.930  18.987   3.948
30668W        W 3093  26.234  32.072   0.875
30669W        W 3094  42.888  18.348  11.493
30670W        W 3095  20.712  32.368   2.707
30671W        W 3096   9.312   1.811  14.372
30672W        W 3097   0.850  34.909  12.500
30673W        W 3098  11.414  32.147  10.656
30674W        W 3099   0.826  29.994  11.996
30675W        W 3100  32.647  30.082   2.459
30676W        W 3101   6.803  24.205  12.464
30677W        W 3102   7.926   7.761  14.514
30678W        W 3103   1.330   1.554  11.475
30679W        W 3104  24.581  42.456  11.350
30680W        W 3105  31.672   1.239  12.987
30681W        W 3106  19.535  32.154   1.757
30682W        W 3107  23.480  13.604   4.193
30683W        W 3108   5.330  12.204  11.725
30684W        W 3109   3.795  18.624   0.828
30685W        W 3110  31.935  27.886   3.413
30686W        W 3111  25.932  16.124  14.829
30687W        W 3112  21.067  35.734   4.389
30688W        W 3113  42.086   9.239   2.245
30689W        W 3114  33.537  27.243   2.405
30690W        W 3115  37.713  20.598  13.989
30691W        W 3116   9.320  25.035   0.412
30692W        W 3117  44.402  44.100  14.416
30693W        W 3118  41.223   9.590  13.547
30694W        W 3119  41.274  20.258   4.137
30695W        W 3120   6.852  21.001   1.407
30696W        W 3121  16.630   6.367  14.905
30697W        W 3122  17.228   2.460   0.454
30698W        W 3123  29.536   7.246  10.581
30699W        W 3124  15.168  21.519  14.192
30700W        W 3125  38.582  12.377  10.608
30701W        W 3126  18.409  34.959  13.489
30702W        W 3127  23.003  37.094   2.219
30703W        W 3128  25.484   0.692  11.613
30704W        W 3129  17.214   4.587  12.391
30705W        W 3130   1.050  34.577   1.674
30706W        W 3131   7.353   9.980  12.792
30707W        W 3132  21.156   0.873  10.545
30708W        W 3133  42.542  17.662   4.281
30709W        W 3134  30.593   2.700   3.879
30710W        W 3135  17.282  29.116  11.388
30711W        W 3136  25.487   6.390   3.715
30712W        W 3137  29.104  16.882   3.339
30713W        W 3138   9.783   0.570   1.078
30714W        W 3139  24.494  13.826  13.869
30715W        W 3140  31.197  21.678  13.354
30716W        W 3141  24.598  39.465  10.500
30717W        W 3142  29.100  42.034   1.278
30718W        W 3143  24.417  41.401  12.899
30719W        W 3144  38.921  21.603   4.643
30720W        W 3145  26.389  44.550   1.806
30721W        W 3146  31.960   6.794  10.971
30722W        W 3147  43.874  28.539  10.472
30723W        W 3148  18.959  41.907  14.035
30724W        W 3149  15.683   4.197   4.845
30725W        W 3150  14.150   2.251   2.257
30726W        W 3151  26.256  32.153   5.359
30727W        W 3152  44.355   0.749  12.917
30728W        W 3153  20.848   9.268  13.036
30729W        W 3154  19.374  17.769  11.549
30730W        W 3155  17.753   8.736   1.423
30731W        W 3156  22.801  21.132   0.462
30732W        W 3157  38.594  33.137   4.193
30733W        W 3158  19.297  29.907   0.824
30734W        W 3159  39.255  41.716  14.459
30735W        W 3160  43.861  16.064   3.140
30736W        W 3161   6.857  37.458  14.900
30737W        W 3162  10.900  22.585   1.312
30738W        W 3163  15.006  37.124  13.482
30739W        W 3164  41.949   0.846   3.683
30740W        W 3165  16.251  34.406   0.069
30741W        W 3166  40.054  43.762   1.639
30742W        W 3167   1.842  37.372  11.277
30743W        W 3168  16.813   0.220  13.343
30744W        W 3169  35.830   4.039  12.803
30745W        W 3170   4.602   2.660  11.586
30746W        W 3171  41.217  44.353   4.496
30747W        W 3172   2.421  24.564   1.063
30748W        W 3173  18.536   4.527  13.010
30749W        W 3174  28.046  22.528  14.493
30750W        W 3175   8.226  21.676  14.248
30751W        W 3176  18.755  39.889   0.627
30752W        W 3177  17.299  18.489  13.874
30753W        W 3178  25.132  11.123   1.570
30754W        W 3179  27.800  28.097   5.078
30755W        W 3180   6.743  38.080  10.230
30756W        W 3181   4.126   9.078  13.878
30757W        W 3182  33.469   5.326  10.706
30758W        W 3183  16.739  15.346   2.099
30759W        W 3184   0.963   8.283   2.193
30760W        W 3185  21.854  18.271  10.986
30761W        W 3186  44.901   2.773  13.484
30762W        W 3187   8.891  30.686   0.782
30763W        W 3188  18.239  11.491   1.839
30764W        W 3189  14.471  36.783  12.043
30765W        W 3190  23.206  11.190  11.941
30766W        W 3191   3.985   3.973   0.817
30767W        W 3192  38.972   8.768   1.012
30768W        W 3193  12.414  32.159  11.542
30769W        W 3194  41.969  36.089  10.215
30770W        W 3195   9.147  31.612   1.170
30771W        W 3196  15.099  33.310  12.411
30772W        W 3197  41.915  23.552   0.169
30773W        W 3198   1.420  26.550   2.290
30774W        W 3199  41.842  29.919  11.598
30775W        W 3200  42.890  15.890  13.834
30776W        W 3201  38.936  28.093  13.821
30777W        W 3202  21.232  24.897   4.203
30778W        W 3203  25.484   0.480   0.893
30779W        W 3204  16.871  29.762  14.136
30780W        W 3205  32.364  14.728  13.998
30781W        W 3206  38.339  10.005   4.714
30782W        W 3207  33.616  18.141  12.012
30783W        W 3208   7.780   3.165   4.951
30784W        W 3209  35.673  41.128  12.408
30785W        W 3210  11.803  34.413   4.352
30786W        W 3211   3.256  40.656  11.792
30787W        W 3212   1.149  28.530  13.012
30788W        W 3213  18.618  31.648   5.034
30789W        W 3214  37.785  42.688  13.001
30790W        W 3215  15.393  19.171  12.810
30791W        W 3216  43.015   5.715   0.516
30792W        W 3217  16.726   5.502  14.037
30793W        W 3218  22.108   0.268  13.114
30794W        W 3219  28.873  42.451   2.229
30795W        W 3220  43.431  39.449  12.994
30796W        W 3221  29.559  20.962   1.033
30797W        W 3222  40.397  28.166  11.521
30798W        W 3223  42.557  24.731  12.329
30799W        W 3224  12.095  23.708  11.529
30800W        W 3225   8.675  15.853  11.088
30801W        W 3226   0.064   8.922  12.009
30802W        W 3227   7.273  12.962  13.456
30803W        W 3228  39.329  18.988  11.730
30804W        W 3229  31.716  13.295  13.186
30805W        W 3230  26.868  15.612   3.991
30806W        W 3231  41.872  21.531  13.036
30807W        W 3232   6.387  28.239  13.055
30808W        W 3233  19.788  16.048   1.695
30809W        W 3234  37.016   8.014  10.823
30810W        W 3235  43.076   4.344   0.050
30811W        W 3236  32.140   0.446   0.839
30812W        W 3237  43.397  18.165   1.849
30813W        W 3238  23.933  11.746   4.597
30814W        W 3239   7.610  32.075   4.760
30815W        W 3240  36.452   8.877   2.648
30816W        W 3241  32.909  41.476   4.804
30817W        W 3242   5.952  23.778   3.208
30818W        W 3243   7.411  33.663  10.777
30819W        W 3244  21.577   1.427  13.789
30820W        W 3245  14.865  31.103   1.160
30821W        W 3246  14.284  42.418  14.622
30822W        W 3247   8.902  41.745  12.512
30823W        W 3248  38.297  40.216  13.540
30824W        W 3249   6.457  28.948   0.561
30825W        W 3250  31.154  19.873  12.824
30826W        W 3251  37.166  30.121  12.065
30827W        W 3252  25.855   3.827  12.918
30828W        W 3253   0.214  25.983   2.671
30829W        W 3254   5.921  40.590   0.373
30830W        W 3255   3.822  21.248  10.680
30831W        W 3256  40.433  28.178   0.682
30832W        W 3257  14.360  27.815   3.274
30833W        W 3258  20.443  41.872   0.268
30834W        W 3259  14.543  25.970   1.606
30835W        W 3260   9.888  37.420  11.097
30836W        W 3261  20.967  38.002   1.872
30837W        W 3262  29.026  31.002   4.317
30838W        W 3263  37.902  15.079  10.644
30839W        W 3264  26.726  22.347   3.370
30840W        W 3265  29.522  13.390   3.388
30841W        W 3266  23.758  11.394  11.065
30842W        W 3267  26.589  25.221   4.654
30843W        W 3268  23.768  44.480   4.451
30844W        W 3269  27.069  22.487  14.304
30845W        W 3270  25.659  26.660   0.197
30846W        W 3271  32.086  37.935   4.519
30847W        W 3272  18.694  30.672   2.718
30848W        W 3273  34.345  32.499  12.865
30849W        W 3274   1.341  20.821  14.276
30850W        W 3275  39.338   4.955  12.022
30851W        W 3276  26.984  25.027   1.877
30852W        W 3277  43.348  26.470   0.924
30853W        W 3278   3.003  19.808   1.958
30854W        W 3279   4.535  36.613   0.811
30855W        W 3280  25.699  23.089   0.006
30856W        W 3281   3.696  25.248   1.490
30857W        W 3282  35.559   1.780  12.076
30858W        W 3283   9.610   3.013   3.722
30859W        W 3284   9.267  16.289   4.000
30860W        W 3285  23.618   2.927   3.647
30861W        W 3286  34.345  13.837   4.676
30862W        W 3287  40.749  20.502  11.578
30863W        W 3288  22.140  33.273   3.428
30864W        W 3289  26.157  24.248  13.950
30865W        W 3290  25.175   9.134   3.434
30866W        W 3291  35.356  42.797  12.900
30867W        W 3292   2.064  23.008   0.628
30868W        W 3293   7.948  20.119   0.959
30869W        W 3294  43.766  43.453  13.909
30870W        W 3295   1.724  21.114   3.141
30871W        W 3296   9.870   5.213   5.470
30872W        W 3297   5.938  36.532   2.329
30873W        W 3298  11.747  28.011   0.282
30874W        W 3299  23.746  18.465  11.259
30875W        W 3300  35.409   8.642   2.688
30876W        W 3301  17.193   0.727   0.869
30877W        W 3302  30.032  39.007   3.102
30878W        W 3303  19.603  26.995  11.546
30879W        W 3304  24.014  29.880  12.504
30880W        W 3305  19.616   3.876  14.800
30881W        W 3306  37.483   5.688  14.028
30882W        W 3307  27.745  35.666  14.573
30883W        W 3308  35.951  27.638  13.037
30884W        W 3309   2.336   1.443   4.437
30885W        W 3310  21.158  13.859  13.784
30886W        W 3311  39.012  19.156  13.996
30887W        W 3312  11.753  30.213   4.650
30888W        W 3313  26.070  24.440   4.733
30889W        W 3314  14.073   8.771   3.825
30890W        W 3315   9.723   5.335  13.935
30891W        W 3316  42.388  40.516  12.581
30892W        W 3317  15.765  36.833   0.732
30893W        W 3318   9.217   1.222   0.287
30894W        W 3319  20.181   1.307   3.892
30895W        W 3320  34.834   9.838  14.929
30896W        W 3321  40.542  10.074  12.050
30897W        W 3322  34.081  42.338  11.030
30898W        W 3323  26.064   8.419   1.216
30899W        W 3324  13.363  35.956  12.815
30900W        W 3325  39.851  32.545   3.168
30901W        W 3326  34.886  38.866   4.866
30902W        W 3327  33.999  10.830  13.599
30903W        W 3328  13.723   3.953  10.271
30904W        W 3329   3.563  10.077   4.432
30905W        W 3330   7.620  18.723   2.956
30906W        W 3331  22.473  39.774   2.372
30907W        W 3332  21.565  13.618  13.549
30908W        W 3333  42.948  34.652   2.766
30909W        W 3334  10.106   3.315  12.407
30910W        W 3335   6.353  40.918  12.632
30911W        W 3336  19.720  14.227   1.393
30912W        W 3337  21.160  42.606  12.006
30913W        W 3338  11.209   2.343   4.467
30914W        W 3339  38.486  20.764  11.060
30915W        W 3340   3.171   4.853   0.873
30916W        W 3341  38.120  40.232   2.843
30917W        W 3342  30.611  32.673  11.069
30918W        W 3343   7.949  35.385   2.773
30919W        W 3344  37.079  36.037  10.410
30920W        W 3345  23.185  39.563  14.860
30921W        W 3346  31.936  22.378  12.905
30922W        W 3347   4.000  23.179  14.089
30923W        W 3348   5.974  29.508  13.827
30924W        W 3349  34.544  27.471   3.472
30925W        W 3350  26.798  34.105  14.930
30926W        W 3351  28.554  13.981  11.710
30927W        W 3352  12.372   9.741   3.673
30928W        W 3353  38.922  29.635   2.183
30929W        W 3354   2.001  25.969   0.257
30930W        W 3355  18.277  20.025   0.876
30931W        W 3356  21.924   2.745  11.105
30932W        W 3357  38.613  23.484  12.001
30933W        W 3358  35.427  40.289   0.352
30934W        W 3359   2.836  42.242  14.191
30935W        W 3360  11.085  12.687   1.323
30936W        W 3361  22.055  13.697  13.744
30937W        W 3362   8.639  13.995  11.691
30938W        W 3363  30.909   2.031  13.533
30939W        W 3364  40.778  16.618   2.290
30940W        W 3365  14.849  34.796   4.659
30941W        W 3366   2.435  35.180  13.559
30942W        W 3367  31.516  26.717   2.568
30943W        W 3368   6.280   7.618  10.653
30944W        W 3369  40.564  39.351   4.962
30945W        W 3370  11.284  44.825  10.696
30946W        W 3371   4.238  32.737   4.636
30947W        W 3372   7.102  41.444   3.741
30948W        W 3373  34.014  28.827  12.670
30949W        W 3374  36.738  44.954  10.004
30950W        W 3375  28.559  30.384   3.663
30951W        W 3376  30.963  20.811  14.399
30952W        W 3377   6.176  24.579   2.324
30953W        W 3378  33.162  12.774   4.640
30954W        W 3379  22.229  20.869   4.107
30955W        W 3380  43.219  23.552   1.313
30956W        W 3381  22.534  42.479  14.918
30957W        W 3382   9.359  32.504   4.971
30958W        W 3383  37.545  31.623   1.650
30959W        W 3384   7.400  28.743   0.819
30960W        W 3385  13.604   7.870  11.644
30961W        W 3386  38.080  20.131   1.459
30962W        W 3387   8.898   8.133   5.033
30963W        W 3388   7.685  27.028  11.094
30964W        W 3389  37.612  26.575  13.917
30965W        W 3390  44.653  30.125   4.177
30966W        W 3391  12.115  18.041   3.229
30967W        W 3392  26.044  35.122  13.418
30968W        W 3393  14.766  22.665   4.644
30969W        W 3394  35.988  32.918   2.842
30970W        W 3395  22.447  31.255  13.742
30971W        W 3396  26.665  40.998  13.389
30972W        W 3397  42.803  21.284   1.273
30973W        W 3398  29.893  18.578  12.029
30974W        W 3399  25.518   5.006  12.471
30975W        W 3400  16.676  20.233  13.677
30976W        W 3401  13.268  11.564   3.820
30977W        W 3402  13.362   4.475  12.888
30978W        W 3403  19.847  18.486   1.385
30979W        W 3404  42.359  44.322   4.360
30980W        W 3405  20.969  29.023   3.049
30981W        W 3406  31.692  37.862   3.167
30982W        W 3407   4.174  28.618   2.280
30983W        W 3408  31.602  26.218   3.877
30984W        W 3409  36.805  21.725  13.033
30985W        W 3410  24.913  42.773  10.799
30986W        W 3411  29.013  10.209  10.968
30987W        W 3412   0.460  20.022  13.057
30988W        W 3413  38.388  14.731   4.214
30989W        W 3414  41.029  32.539   3.568
30990W        W 3415  23.457   0.917   3.717
30991W        W 3416  29.423  33.211  14.876
30992W        W 3417  14.780  10.107   4.534
30993W        W 3418  12.265  26.488  11.648
30994W        W 3419   9.814  21.549   1.784
30995W        W 3420  26.464  33.065   3.065
30996W        W 3421  14.295  23.596   3.142
30997W        W 3422  38.422  38.068  13.508
30998W        W 3423  10.108  24.967  10.733
30999W        W 3424  29.678  30.770   5.073
31000W        W 3425  22.308  41.036  14.911
31001W        W 3426  29.863  16.636   3.698
31002W        W 3427  40.034  31.953   1.302
31003W        W 3428  41.960  12.252   1.676
31004W        W 3429  44.052   1.267  10.779
31005W        W 3430   5.188  44.339   4.788
31006W        W 3431  18.030   6.288  13.005
31007W        W 3432   1.676  13.674   0.060
31008W        W 3433  34.139  40.994   1.376
31009W        W 3434   7.542  22.838  12.571
31010W        W 3435  22.184   8.350   9.822
31011W        W 3436  16.509   4.250  13.025
31012W        W 3437  36.005  31.614   1.133
31013W        W 3438  34.503  25.488  11.537
31014W        W 3439   8.124  31.151  14.970
31015W        W 3440  27.589  20.063   0.117
31016W        W 3441  16.499  15.847  12.960
31017W        W 3442  19.676  15.756  13.016
31018W        W 3443  24.403  23.706   2.408
31019W        W 3444  17.319  12.871  12.955
31020W        W 3445  30.362   1.920  13.465
31021W        W 3446   4.333  38.037  14.337
31022W        W 3447  13.995  12.294   4.661
31023W        W 3448  37.597  25.693   2.130
31024W        W 3449  42.986  36.220   4.513
31025W        W 3450  28.721  27.300   0.916
31026W        W 3451  30.258  44.440   2.386
31027W        W 3452  24.188  36.939   3.629
31028W        W 3453  34.434  16.326   0.441
31029W        W 3454  15.228   9.604   0.342
31030W        W 3455   2.965   6.333   2.838
31031W        W 3456  28.327  31.063  10.266
31032W        W 3457   5.734  15.158  12.112
31033W        W 3458   4.634  19.828  10.693
31034W        W 3459  28.084  42.340  12.630
31035W        W 3460  34.988  35.661   2.360
31036W        W 3461  35.239  35.890  10.795
31037W        W 3462  20.508   6.632   2.151
31038W        W 3463  37.507  18.670   2.335
31039W        W 3464   5.183  28.025  14.531
31040W        W 3465  15.878   6.789   2.083
31041W        W 3466  12.660   6.659   0.534
31042W        W 3467  31.056  40.488  11.578
31043W        W 3468  19.035   2.748  13.943
31044W        W 3469  24.179  40.163   4.147
31045W        W 3470   4.809   1.870  10.202
31046W        W 3471  32.904  41.990  12.607
31047W        W 3472  17.257   2.758  11.685
31048W        W 3473  26.507   2.261   0.981
31049W        W 3474  36.808  42.790  10.665
31050W        W 3475  38.552   8.209  14.127
31051W        W 3476  40.180  32.113   3.181
31052W        W 3477   0.006  13.159  14.415
31053W        W 3478  12.430  39.249  11.926
31054W        W 3479  30.512  29.926   0.278
31055W        W 3480  29.255   4.531  13.842
31056W        W 3481  40.456  44.055   1.449
31057W        W 3482   7.847   7.092  13.527
31058W        W 3483  26.529  12.151   0.223
31059W        W 3484   4.922  11.842  14.427
31060W        W 3485  38.372   4.189   0.780
31061W        W 3486  38.273  37.125  12.503
31062W        W 3487  12.695  23.109   5.013
31063W        W 3488  23.986  10.824   0.380
31064W        W 3489  39.845  38.079   4.395
31065W        W 3490  29.133   9.783   0.981
31066W        W 3491  19.274  20.840  13.519
31067W        W 3492   0.907   0.894   4.157
31068W        W 3493  38.840  28.614   4.593
31069W        W 3494  28.385  24.411   3.821
31070W        W 3495  13.107   8.220  14.905
31071W        W 3496  24.615  35.917   4.423
31072W        W 3497  15.185  22.970   1.305
31073W        W 3498  14.152  26.592  14.814
31074W        W 3499  40.730  14.127   0.296
31075W        W 3500  17.296   9.959  12.915
31076W        W 3501  44.277   0.853   0.052
31077W        W 3502  30.997  44.577   3.445
31078W        W 3503  17.738  30.252  10.247
31079W        W 3504  35.319   6.156  14.800
31080W        W 3505  13.672  24.428   5.563
31081W        W 3506  28.604  10.654  14.905
31082W        W 3507   6.184  38.198  13.716
31083W        W 3508  33.483  14.383   4.444
31084W        W 3509   1.293   2.438  12.147
31085W        W 3510   2.539  32.085  14.537
31086W        W 3511  34.312  22.113   4.714
31087W        W 3512  33.065  25.696   2.171
31088W        W 3513  39.450  31.538  13.590
31089W        W 3514  44.020   5.650   3.289
31090W        W 3515  24.559  27.734   2.358
31091W        W 3516  19.177   6.461  11.073
31092W        W 3517   1.031   1.994  12.308
31093W        W 3518  37.472   5.915   2.910
31094W        W 3519  41.302  11.397  12.966
31095W        W 3520  44.858  20.706  11.059
31096W        W 3521  22.388   9.474   4.081
31097W        W 3522  12.375  33.466   4.872
31098W        W 3523  36.568  33.830  14.608
31099W        W 3524  15.237   3.793   2.744
31100W        W 3525  32.541   6.601   4.049
31101W        W 3526   0.375  22.883   1.316
31102W        W 3527  15.709  43.744   4.219
31103W        W 3528  18.230  43.908   3.571
31104W        W 3529  30.873  39.124  11.996
31105W        W 3530  23.305  36.373  14.960
31106W        W 3531   8.670  43.792  14.349
31107W        W 3532   9.359  36.006   4.178
31108W        W 3533  14.689  22.254   5.695
31109W        W 3534  27.016  31.045   1.640
31110W        W 3535  26.232  22.017  11.605
31111W        W 3536  29.961   9.172  13.883
31112W        W 3537  44.423  13.861  11.616
31113W        W 3538  34.298  22.635   4.660
31114W        W 3539  31.666  15.375  10.219
31115W        W 3540  27.902  22.128  11.120
31116W        W 3541   9.037  36.338  14.594
31117W        W 3542  19.575  18.131   0.281
31118W        W 3543  16.652  20.693   1.912
31119W        W 3544  24.036   3.058   2.340
31120W        W 3545  19.605  21.936   0.484
31121W        W 3546   6.689  38.100  13.716
31122W        W 3547  30.693  22.834  14.864
31123W        W 3548  33.099   6.341  10.963
31124W        W 3549  10.393  43.654   0.434
31125W        W 3550  29.011  34.280   2.188
31126W        W 3551  43.884  12.192  12.446
31127W        W 3552  38.425   1.195  12.495
31128W        W 3553   8.635  43.794  13.402
31129W        W 3554  33.471   0.279   2.967
31130W        W 3555  23.493  34.281   0.572
31131W        W 3556   3.964  19.003  11.191
31132W        W 3557  35.110   6.225   2.298
31133W        W 3558  37.488  35.706   2.961
31134W        W 3559   7.881  29.562   2.142
31135W        W 3560  32.759   4.802  10.520
31136W        W 3561  17.592  44.725  12.948
31137W        W 3562  21.014  24.217   4.749
31138W        W 3563  31.851  25.064   2.858
31139W        W 3564  15.745   2.363  11.388
31140W        W 3565  44.912   9.870   0.825
31141W        W 3566  38.306  12.521   1.904
31142W        W 3567  14.759   2.589   0.059
31143W        W 3568   9.387   7.707   4.097
31144W        W 3569  24.642  23.637  13.772
31145W        W 3570  30.058   9.560  13.132
31146W        W 3571  33.690  16.236   3.819
31147W        W 3572  10.118  42.216  12.843
31148W        W 3573  36.645  11.756  13.072
31149W        W 3574   3.976  15.102   3.321
31150W        W 3575  21.260  20.044   1.475
31151W        W 3576  33.026   6.112  13.745
31152W        W 3577   9.754  42.019  12.132
31153W        W 3578   6.151  43.454   3.699
31154W        W 3579  13.684  41.514   4.625
31155W        W 3580  37.889  17.848  13.345
31156W        W 3581  15.154   5.406  10.737
31157W        W 3582  20.626   8.840  14.815
31158W        W 3583  43.453  27.285   2.409
31159W        W 3584  40.862  31.676  13.494
31160W        W 3585  33.938  33.815   3.763
31161W        W 3586   4.712  15.068   2.777
31162W        W 3587   3.798  18.085   0.378
31163W        W 3588   6.413   1.192   2.789
31164W        W 3589   5.915  35.510  13.883
31165W        W 3590  25.707  41.012   0.286
31166W        W 3591   9.670  12.622  13.841
31167W        W 3592  27.572  40.394  12.181
31168W        W 3593  10.816  14.139   1.439
31169W        W 3594  23.560  13.816  12.106
31170W        W 3595  23.607  29.439   2.707
31171W        W 3596  17.115   4.991  11.935
31172W        W 3597   3.382  36.985   1.327
31173W        W 3598  33.923   0.703   2.397
31174W        W 3599  34.116   4.777  14.003
31175W        W 3600  34.314  28.696  10.730
31176W        W 3601   8.244   0.048   1.450
31177W        W 3602  32.215  18.554  12.755
31178W        W 3603  13.545   9.416   4.493
31179W        W 3604  35.530  24.072   4.962
31180W        W 3605  23.187  28.279  13.870
31181W        W 3606   8.782   1.653  10.335
31182W        W 3607  26.192   4.715  13.364
31183W        W 3608  29.994   9.390   2.795
31184W        W 3609  14.073  30.971   4.654
31185W        W 3610  30.029  32.927  12.466
31186W        W 3611   7.970  19.888  11.192
31187W        W 3612  41.058  15.656  13.171
31188W        W 3613  21.273  42.336  14.319
31189W        W 3614  14.632   5.414  10.653
31190W        W 3615  26.710  19.603  13.967
31191W        W 3616   3.544  29.396   2.761
31192W        W 3617   5.410   2.135  13.128
31193W        W 3618   9.269  19.926   0.889
31194W        W 3619  44.962  14.588   0.459
31195W        W 3620  35.862   0.270   3.272
31196W        W 3621  32.511  39.933   0.093
31197W        W 3622   9.729  36.889   3.354
31198W        W 3623  18.714  32.052  10.577
31199W        W 3624   4.412   2.721  13.946
31200W        W 3625   2.335  38.426   2.711
31201W        W 3626  19.803   1.310   3.363
31202W        W 3627  34.824  33.482  11.145
31203W        W 3628  42.496  37.694   0.091
31204W        W 3629   0.244  10.760  11.455
31205W        W 3630  10.856  27.222   0.804
31206W        W 3631  44.208  39.910  12.830
31207W        W 3632  23.815  40.829   0.002
31208W        W 3633   9.395  13.714   4.348
31209W        W 3634  23.242  20.493  13.385
31210W        W 3635  26.570  37.505  10.282
31211W        W 3636  21.986  29.661  11.169
31212W        W 3637  11.576  43.892  13.172
31213W        W 3638   2.092  36.574   3.738
31214W        W 3639  36.478   7.402  13.371
31215W        W 3640  38.283  31.522   0.454
31216W        W 3641  27.203  23.299   1.319
31217W        W 3642  41.965  35.818   5.222
31218W        W 3643  33.905  38.766  14.564
31219W        W 3644  33.169  32.052  10.667
31220W        W 3645  23.697   7.404   4.350
31221W        W 3646   8.674  34.069  11.131
31222W        W 3647  24.206  42.275  10.383
31223W        W 3648  39.219  12.590   1.852
31224W        W 3649   8.864  26.357   3.737
31225W        W 3650   9.041  36.957   9.743
31226W        W 3651  39.855   7.632   1.708
31227W        W 3652  37.921  23.291   4.110
31228W        W 3653  34.152  32.224  14.819
31229W        W 3654  32.950  41.400   1.683
31230W        W 3655  25.429  43.260   2.262
31231W        W 3656  27.802  44.886   3.819
31232W        W 3657  19.548  24.240   2.396
31233W        W 3658  11.170  17.059   1.383
31234W        W 3659  24.518  37.271   5.018
31235W        W 3660  21.466  13.293   5.108
31236W        W 3661  21.710  35.718   0.452
31237W        W 3662  39.383  31.036  13.137
31238W        W 3663  32.299   1.256   2.700
31239W        W 3664  19.411  21.543   0.795
31240W        W 3665  21.710  41.016  10.793
31241W        W 3666  14.148  29.905   4.521
31242W        W 3667  37.630  39.534   1.901
31243W        W 3668  44.214  29.437  11.983
31244W        W 3669  19.349  40.948  13.822
31245W        W 3670  36.404   3.090  13.463
31246W        W 3671  22.924  34.465  12.833
31247W        W 3672  20.714  38.342  14.879
31248W        W 3673  43.857  37.077   2.696
31249W        W 3674  11.116  28.113   0.001
31250W        W 3675  43.433  23.612  10.792
31251W        W 3676  23.004  34.073   1.935
31252W        W 3677  16.110  10.602  12.902
31253W        W 3678   9.856  29.662  14.485
31254W        W 3679  18.081  44.385  11.878
31255W        W 3680  36.239  10.384  10.728
31256W        W 3681   8.748  23.304  11.148
31257W        W 3682  33.051   2.425   4.028
31258W        W 3683   6.947  14.391   4.170
31259W        W 3684  43.522  26.104  13.287
31260W        W 3685   9.254  32.050   2.138
31261W        W 3686  16.119  38.433  12.987
31262W        W 3687  25.274  21.636   4.782
31263W        W 3688  31.130   6.801  10.905
31264W        W 3689  38.542  18.139   3.606
31265W        W 3690  19.713  11.899   0.866
31266W        W 3691  19.614  43.228   3.397
31267W        W 3692   1.935  26.470   1.576
31268W        W 3693   6.826  19.648  11.220
31269W        W 3694   7.371  44.269   0.703
31270W        W 3695  10.847  27.736   2.804
31271W        W 3696   5.127   5.778  11.964
31272W        W 3697   3.275  38.405  11.465
31273W        W 3698   2.187  37.355   3.258
31274W        W 3699  16.353  13.858   2.054
31275W        W 3700  23.994  40.916   1.399
31276W        W 3701   4.189  34.734  11.614
31277W        W 3702  18.354  28.248  10.758
31278W        W 3703   4.105  11.639  14.902
31279W        W 3704   2.870  10.398  12.883
31280W        W 3705   6.205  20.674  12.832
31281W        W 3706  36.221  28.048  11.634
31282W        W 3707   4.759  34.090  14.047
31283W        W 3708   6.856   4.494  13.916
31284W        W 3709  31.889  39.034   3.667
31285W        W 3710  21.836   8.680  13.421
31286W        W 3711  36.451  40.773  11.686
31287W        W 3712  23.349  35.153  11.027
31288W        W 3713   2.045  12.845   1.973
31289W        W 3714   0.687  43.717  11.551
31290W        W 3715  14.139   1.894   0.529
31291W        W 3716   4.652  38.076   4.279
31292W        W 3717  37.628   3.237  13.900
31293W        W 3718   4.473  27.212   2.178
31294W        W 3719  24.466  23.377   3.207
31295W        W 3720  16.765   1.895   1.297
31296W        W 3721  32.347  13.067   5.029
31297W        W 3722   4.424  30.872  12.938
31298W        W 3723  26.637  22.057  10.608
31299W        W 3724   6.467  27.998  12.570
31300W        W 3725   2.891  16.326  10.748
31301W        W 3726  27.604   5.260  10.972
31302W        W 3727  38.295  14.237   1.991
31303W        W 3728  32.437  44.439  10.731
31304W        W 3729   1.996  21.140   3.606
31305W        W 3730   8.258  34.985   2.586
31306W        W 3731  34.496   3.586   0.332
31307W        W 3732  11.406   4.779   0.897
31308W        W 3733   6.461  30.832  12.147
31309W        W 3734  31.895  30.984  11.846
31310W        W 3735  43.687  34.333  14.760
31311W        W 3736  25.625  43.924  13.037
31312W        W 3737  22.866  44.921   2.695
31313W        W 3738  30.104  23.665   4.104
31314W        W 3739  34.481   6.477   3.664
31315W        W 3740  28.957   3.950   1.838
31316W        W 3741  39.529  25.159   2.353
31317W        W 3742  10.117  21.321  14.443
31318W        W 3743  42.862  42.131   2.887
31319W        W 3744  21.651  34.595   0.928
31320W        W 3745  12.832  20.379  11.557
31321W        W 3746   2.848  31.603   0.299
31322W        W 3747  35.622  18.571   2.346
31323W        W 3748  41.299   1.776   3.339
31324W        W 3749  19.506  11.976   4.200
31325W        W 3750  34.012  26.780  10.594
31326W        W 3751  42.757  16.344   4.872
31327W        W 3752  27.031  42.286   0.399
31328W        W 3753  34.910  32.948   4.544
31329W        W 3754  36.902  31.172  13.532
31330W        W 3755  39.468  41.391  10.686
31331W        W 3756  39.812  12.404  12.980
31332W        W 3757  14.165  22.326  12.597
31333W        W 3758  40.237   3.423  10.731
31334W        W 3759  17.036   7.514   2.214
31335W        W 3760   3.383  17.259   0.487
31336W        W 3761  13.447  25.069   3.274
31337W        W 3762  14.428  13.739  13.848
31338W        W 3763  16.080  39.231   2.149
31339W        W 3764  10.725  18.848  14.536
31340W        W 3765  21.110  27.583   2.789
31341W        W 3766  29.077  23.734  13.779
31342W        W 3767  35.775  37.644   0.498
31343W        W 3768   1.738  24.497  11.504
31344W        W 3769   7.896  26.522  12.296
31345W        W 3770  21.549  31.208  13.378
31346W        W 3771  35.544  29.092   4.812
31347W        W 3772  40.364  25.656  11.012
31348W        W 3773   8.768  18.320   0.518
31349W        W 3774  19.214  24.605   2.241
31350W        W 3775   4.315   0.582  14.745
31351W        W 3776  31.639  41.487  13.500
31352W        W 3777  28.024   7.480  11.996
31353W        W 3778  41.879  15.548   3.662
31354W        W 3779   2.873   8.304   2.835
31355W        W 3780  38.972  37.546  12.857
31356W        W 3781  25.770   9.393  12.963
31357W        W 3782  37.935  41.788   3.248
31358W        W 3783  31.831  38.037   1.417
31359W        W 3784   0.476  40.434  12.625
31360W        W 3785  39.518   2.022  13.047
31361W        W 3786  28.396  28.078   1.287
31362W        W 3787  34.980  11.132  11.498
31363W        W 3788   0.881   6.472   2.521
31364W        W 3789   9.713  28.861  14.911
31365W        W 3790  32.264  15.647  14.839
31366W        W 3791  33.339  31.723  13.514
31367W        W 3792  44.944  32.474  11.458
31368W        W 3793   4.120  20.241  13.301
31369W        W 3794   6.808   7.122   1.172
31370W        W 3795   6.240   2.943   4.087
31371W        W 3796  43.459  43.295   0.713
31372W        W 3797  20.129   0.575  10.652
31373W        W 3798  21.692  15.708  11.594
31374W        W 3799  42.024  24.155  12.441
31375W        W 3800   1.235  30.372  11.495
31376W        W 3801  30.937  17.795   4.902
31377W        W 3802  15.888  36.483  14.234
31378W        W 3803   1.648  10.403  12.048
31379W        W 3804  42.553  11.850   3.375
31380W        W 3805  40.726   6.223   3.218
31381W        W 3806  38.867  44.864   2.779
31382W        W 3807  42.568   9.688  11.142
31383W        W 3808  19.597   1.460  13.730
31384W        W 3809   2.920  27.623  13.392
31385W        W 3810  12.339  28.865  11.854
31386W        W 3811   6.818  32.873   1.019
31387W        W 3812  43.030  44.825  11.079
31388W        W 3813  16.376  11.284  13.646
31389W        W 3814   6.096  29.524   0.817
31390W        W 3815  37.040  21.076   2.266
31391W        W 3816   1.392  25.854   0.831
31392W        W 3817  31.829  40.952  13.600
31393W        W 3818   7.467  20.223  14.301
31394W        W 3819  44.384  42.429  14.830
31395W        W 3820   9.836   1.358  12.099
31396W        W 3821  18.211   4.087  14.256
31397W        W 3822  29.542  34.310   2.235
31398W        W 3823  39.500  26.346  14.924
31399W        W 3824  24.540  20.806   2.334
31400W        W 3825   5.397  27.456  12.148
31401W        W 3826  30.097  41.835  11.480
31402W        W 3827  30.063  31.669  10.496
31403W        W 3828  10.800  15.247   1.263
31404W        W 3829  19.735  25.004   3.763
31405W        W 3830  31.910  18.969   1.395
31406W        W 3831   4.285  23.107   1.382
31407W        W 3832  20.206  28.055   3.134
31408W        W 3833  38.452  38.831  12.943
31409W        W 3834  12.822  28.189   4.627
31410W        W 3835  35.624  29.479   1.357
31411W        W 3836  10.740  18.990   4.687
31412W        W 3837  11.166  32.973   1.137
31413W        W 3838  44.305   7.906  12.496
31414W        W 3839  23.009  38.839  12.450
31415W        W 3840   1.516  32.159   2.793
31416W        W 3841  23.437  36.956   3.136
31417W        W 3842  14.816  41.678  14.230
31418W        W 3843  35.024  21.297   0.445
31419W        W 3844  11.150   8.090   5.037
31420W        W 3845  12.879   5.011  12.018
31421W        W 3846  33.575  43.718   3.333
31422W        W 3847   9.611  16.115   2.373
31423W        W 3848   5.536   3.754  13.894
31424W        W 3849   5.460  24.961   1.756
31425W        W 3850  14.635   8.733  14.395
31426W        W 3851  31.610  34.913   3.181
31427W        W 3852  27.877  41.899   3.568
31428W        W 3853  39.826  19.331   0.462
31429W        W 3854   9.206  12.297  14.336
31430W        W 3855  42.877   2.729   0.182
31431W        W 3856  15.434  11.441   0.814
31432W        W 3857   6.369  37.760   2.759
31433W        W 3858   1.337  17.123  10.972
31434W        W 3859  18.615   6.324   3.161
31435W        W 3860   9.985   7.769  13.507
31436W        W 3861  15.127  32.903   1.381
31437W        W 3862  18.784  10.187   1.946
31438W        W 3863  39.164  19.855   1.994
31439W        W 3864  16.106  36.683   4.937
31440W        W 3865   9.701   5.965  12.847
31441W        W 3866  23.598  17.301  10.664
31442W        W 3867   4.005   3.896  10.962
31443W        W 3868  20.876  31.257  14.306
31444W        W 3869  12.102   3.732   1.401
31445W        W 3870   4.667  30.387  10.883
31446W        W 3871  36.638  28.126   3.636
31447W        W 3872  30.393  21.967  12.054
31448W        W 3873  43.224  18.276   0.914
31449W        W 3874  10.973  22.484  11.355
31450W        W 3875  30.957  34.434   4.371
31451W        W 3876  33.704   7.154  12.447
31452W        W 3877  16.585  40.322   4.496
31453W        W 3878  36.801  16.525  12.572
31454W        W 3879   4.447  39.471  13.119
31455W        W 3880  18.131  26.446   2.765
31456W        W 3881  12.535   7.876   2.028
31457W        W 3882  34.646  21.142  12.063
31458W        W 3883  15.834  28.250  13.907
31459W        W 3884   8.288  39.775   4.470
31460W        W 3885  22.148  10.763  14.999
31461W        W 3886  11.059  18.245  13.445
31462W        W 3887  18.061  41.539   0.962
31463W        W 3888  42.655  33.121   4.893
31464W        W 3889  34.965  23.055   0.156
31465W        W 3890  42.394  22.852  11.947
31466W        W 3891  24.074  21.914  12.166
31467W        W 3892  24.192  15.167  12.033
31468W        W 3893  26.623  12.559   0.969
31469W        W 3894  27.080  27.224  14.768
31470W        W 3895  13.357  18.092  10.694
31471W        W 3896  17.121  12.944   4.564
31472W        W 3897  41.802  30.925   3.321
31473W        W 3898  27.674   5.634   3.321
31474W        W 3899   1.316  16.249  11.188
31475W        W 3900  19.670  35.678   1.404
31476W        W 3901  39.441  38.091  11.997
31477W        W 3902  34.738  34.443   3.790
31478W        W 3903   0.817  22.592  14.679
31479W        W 3904  20.104  12.348  14.236
31480W        W 3905   4.608  43.008  12.133
31481W        W 3906  43.019  28.486  10.732
31482W        W 3907  23.036   9.740   0.478
31483W        W 3908  30.152  34.827  13.454
31484W        W 3909  33.665   0.185  11.161
31485W        W 3910  21.623  11.256  14.750
31486W        W 3911  31.075  31.617   0.383
31487W        W 3912  44.417  24.200   3.187
31488W        W 3913  42.883  28.618   4.481
31489W        W 3914   6.687  39.811  11.518
31490W        W 3915   4.265  21.297  11.449
31491W        W 3916  41.989  22.571   4.622
31492W        W 3917  40.698  17.560   2.932
31493W        W 3918  27.293  31.132  10.348
31494W        W 3919  20.141   6.968   2.006
31495W        W 3920  21.803  32.593   4.608
31496W        W 3921   2.333  28.537  11.466
31497W        W 3922   8.633  26.752  12.957
31498W        W 3923  31.061  19.037   2.677
31499W        W 3924  42.959  14.733   2.737
31500W        W 3925  41.810  42.085  14.484
31501W        W 3926  28.595  36.520   3.737
31502W        W 3927  30.543   9.580   3.784
31503W        W 3928   4.966  17.198  10.521
31504W        W 3929  44.493   8.092   4.515
31505W        W 3930   0.675   9.361  13.127
31506W        W 3931  37.429  33.862   2.461
31507W        W 3932  27.364  10.299  13.606
31508W        W 3933  17.262   7.424   1.003
31509W        W 3934  43.908   0.228  13.006
31510W        W 3935  18.529   3.761   2.449
31511W        W 3936  25.946  19.307  14.004
31512W        W 3937  14.233  10.857   4.820
31513W        W 3938  32.577   9.197   4.569
31514W        W 3939  26.508  12.680  10.779
31515W        W 3940  13.590  10.725   3.188
31516W        W 3941  25.197  25.240   2.344
31517W        W 3942   1.936  38.416   0.460
31518W        W 3943   6.227   0.886  14.043
31519W        W 3944  21.486  27.109   2.700
31520W        W 3945  24.832  41.591   3.651
31521W        W 3946   1.211  10.576  14.945
31522W        W 3947  20.324   7.225  12.471
31523W        W 3948   5.347   4.677  14.692
31524W        W 3949  21.162  12.837   2.666
31525W        W 3950  13.242  38.325   4.152
31526W        W 3951  15.337  37.901  11.674
31527W        W 3952  28.936  42.070   3.113
31528W        W 3953  44.543  35.991   2.879
31529W        W 3954  40.437  25.433   4.060
31530W        W 3955  43.492  12.621   4.062
31531W        W 3956  44.145  40.360   3.761
31532W        W 3957  25.743   8.208  13.271
31533W        W 3958  29.763   9.223   2.352
31534W        W 3959   4.490  19.304   0.233
31535W        W 3960  19.743  27.100   4.382
31536W        W 3961  32.237  29.601  13.111
31537W        W 3962  24.748  38.004   2.371
31538W        W 3963  11.837   2.117   0.500
31539W        W 3964  18.047   7.838   0.691
31540W        W 3965  22.539   3.478  13.433
31541W        W 3966  19.487  19.680  13.832
31542W        W 3967  14.807  28.817  13.223
31543W        W 3968  35.419  34.015   1.948
31544W        W 3969  39.331  29.026   1.442
31545W        W 3970  29.054  25.521   0.882
31546W        W 3971   3.038  11.842   2.882
31547W        W 3972  35.870  13.367   0.544
31548W        W 3973   3.148   9.796   0.730
31549W        W 3974   0.458  39.091  10.885
31550W        W 3975  43.760  33.652  12.510
31551W        W 3976  23.253  16.492  10.691
31552W        W 3977   4.331  25.347   2.694
31553W        W 3978  37.357  25.548  12.058
31554W        W 3979  12.731  37.082  11.768
31555W        W 3980  33.584  20.608  11.836
31556W        W 3981  20.309  33.100   0.861
31557W        W 3982  26.144  10.284   1.854
31558W        W 3983  44.298  37.502  13.353
31559W        W 3984  35.379  16.175   1.726
31560W        W 3985  42.265  39.874   4.251
31561W        W 3986  10.249  27.203   3.668
31562W        W 3987   6.407  25.636  14.494
31563W        W 3988  22.046  33.971   3.361
31564W        W 3989  37.035  12.675  14.936
31565W        W 3990  24.498   2.209   2.224
31566W        W 3991  30.938  15.318  13.036
31567W        W 3992  36.296   4.506   1.443
31568W        W 3993  30.603   7.991  11.562
31569W        W 3994  14.116  30.544  10.959
31570W        W 3995  33.860  21.546   0.762
31571W        W 3996  44.910  37.292   0.895
31572W        W 3997  20.600   8.405  14.514
31573W        W 3998   3.904   4.517  11.464
31574W        W 3999  14.218  41.026   1.091
31575W        W 4000   2.653   7.986   0.859
31576W        W 4001   6.056   2.321   2.223
31577W        W 4002   1.490  14.793   2.308
31578W        W 4003  24.675  42.802   9.938
31579W        W 4004  38.436   3.696   4.039
31580W        W 4005  22.968  37.339   4.104
31581W        W 4006  26.101   9.592  14.727
31582W        W 4007  27.152  22.503  13.413
31583W        W 4008  25.514  32.417   0.467
31584W        W 4009  10.797  43.439  13.760
31585W        W 4010  35.935   0.984   2.092
31586W        W 4011  20.722  21.720  10.785
31587W        W 4012  26.573  36.595   2.404
31588W        W 4013  25.632  14.260   4.982
31589W        W 4014  30.886  24.065  11.086
31590W        W 4015  15.231  33.481   0.187
31591W        W 4016  43.775  43.590   4.170
31592W        W 4017  40.108  23.624  10.707
31593W        W 4018  40.717  25.566   4.681
31594W        W 4019  22.006  14.635  11.269
31595W        W 4020  29.076  24.685   2.160
31596W        W 4021   4.286  16.307  14.422
31597W        W 4022  15.994   1.501  13.968
31598W        W 4023  20.121  37.636  14.801
31599W        W 4024  27.419  42.229   2.356
31600W        W 4025  16.305  24.620  12.528
31601W        W 4026   0.014  25.673   0.794
31602W        W 4027  34.156  34.522  11.055
31603W        W 4028  11.986  36.544  10.549
31604W        W 4029  18.488  15.772  11.603
31605W        W 4030  29.528  29.432  12.823
31606W        W 4031   7.752  38.830  13.773
31607W        W 4032  14.788  37.436  10.674
31608W        W 4033  35.544  20.196  13.504
31609W        W 4034  21.059  26.957   4.179
31610W        W 4035  26.764  30.650  13.439
31611W        W 4036  18.070  23.535  13.029
31612W        W 4037  16.509   2.404  13.079
31613W        W 4038  42.212  33.522  10.795
31614W        W 4039  36.116   8.405  11.096
31615W        W 4040  27.663   3.840   0.453
31616W        W 4041  40.727  42.929   1.018
31617W        W 4042   8.651   6.321  11.394
31618W        W 4043  17.595  32.391  10.542
31619W        W 4044  10.708  22.481   0.362
31620W        W 4045  42.905   7.427  11.208
31621W        W 4046  21.236  25.208   3.245
31622W        W 4047  43.448  37.138  11.399
31623W        W 4048   8.763  31.945   1.341
31624W        W 4049   4.459   5.293   2.695
31625W        W 4050  21.156  42.879   2.730
31626W        W 4051  34.893   6.277   0.786
31627W        W 4052  11.348  11.271   1.847
31628W        W 4053   8.207  26.009  10.581
31629W        W 4054  44.277   9.209   3.787
31630W        W 4055  25.310   1.811   0.209
31631W        W 4056   5.410  16.128   3.341
31632W        W 4057   5.790  40.889   1.961
31633W        W 4058  41.896  40.481   0.452
31634W        W 4059  12.790  27.290  12.590
31635W        W 4060  42.872  18.271  14.278
31636W        W 4061  21.809  31.921   3.192
31637W        W 4062  27.913  31.649   3.438
31638W        W 4063  21.758  21.744  12.130
31639W        W 4064  10.232   2.606  12.050
31640W        W 4065  21.915  37.424   4.174
31641W        W 4066   0.405  20.007   0.790
31642W        W 4067  18.061  22.217  13.258
31643W        W 4068  21.624  11.005   9.800
31644W        W 4069  38.853  23.768  13.637
31645W        W 4070  40.802  42.130   0.332
31646W        W 4071  43.042  40.122  13.573
31647W        W 4072  29.948  28.751   1.963
31648W        W 4073   0.323  39.549   0.809
31649W        W 4074  43.803  37.006  13.984
31650W        W 4075  29.711  42.845  11.117
31651W        W 4076  40.797   1.365  13.925
31652W        W 4077  19.112   2.665   3.440
31653W        W 4078  17.840  23.573   1.890
31654W        W 4079   8.454  18.223  11.918
31655W        W 4080  33.071  42.343  13.048
31656W        W 4081   1.463   6.330  14.791
31657W        W 4082  38.141  18.733   1.128
31658W        W 4083   6.171   7.672  11.490
31659W        W 4084  24.507   3.207   2.781
31660W        W 4085   7.471  26.973   3.626
31661W        W 4086  43.091  18.347   2.253
31662W        W 4087   8.396  18.873  12.550
31663W        W 4088  41.016  39.585   1.364
31664W        W 4089  38.968  42.937   1.662
31665W        W 4090  19.487  42.757   2.685
31666W        W 4091  42.466  11.507   3.757
31667W        W 4092  39.247  44.375   4.141
31668W        W 4093  40.086  28.770   2.786
31669W        W 4094  36.794  12.719  12.909
31670W        W 4095  12.698  33.473   1.164
31671W        W 4096  23.255  22.404  14.520
31672W        W 4097  36.902  30.710  11.078
31673W        W 4098   3.261  34.569  12.503
31674W        W 4099  15.235  28.850   2.385
31675W        W 4100  12.834  15.074  10.782
31676W        W 4101  27.973  31.941   4.662
31677W        W 4102  22.055   8.392   1.854
31678W        W 4103  42.729  34.702  12.476
31679W        W 4104  34.148   4.209   4.221
31680W        W 4105  16.201  36.333   0.166
31681W        W 4106  19.731  14.270   0.509
31682W        W 4107  27.918  25.949  11.184
31683W        W 4108  13.885   2.978  14.380
31684W        W 4109  14.608  38.937  12.324
31685W        W 4110  37.030  37.327  10.970
31686W        W 4111  34.341   2.177  14.045
31687W        W 4112  16.168  26.219   3.822
31688W        W 4113   6.140  24.043   0.913
31689W        W 4114  39.646  37.009   3.219
31690W        W 4115  40.075  29.851  14.008
31691W        W 4116  18.344  31.319   3.317
31692W        W 4117  21.005  38.838   3.815
31693W        W 4118  38.778  29.792   2.838
31694W        W 4119  29.305  18.329   4.201
31695W        W 4120  41.686   1.156  14.531
31696W        W 4121  41.927   1.286   3.369
31697W        W 4122   0.887  44.152   1.942
31698W        W 4123  41.639   0.538  12.550
31699W        W 4124   5.125  43.978   0.403
31700W        W 4125   1.312  17.061  14.781
31701W        W 4126  12.746  31.011  10.762
31702W        W 4127   5.270   5.325  12.942
31703W        W 4128  24.187  44.155  11.692
31704W        W 4129  22.629  23.125   0.881
31705W        W 4130  38.934  21.192  10.719
31706W        W 4131  12.904  40.720  13.575
31707W        W 4132  27.179  29.139  14.444
31708W        W 4133  41.395  13.282   1.937
31709W        W 4134  22.203  16.763   1.902
31710W        W 4135  17.013  31.888   3.506
31711W        W 4136  18.503   6.386   4.998
31712W        W 4137  43.381   5.955  13.348
31713W        W 4138  20.136  40.676   3.214
31714W        W 4139  37.121   3.168   1.337
31715W        W 4140  13.231  20.638   3.889
31716W        W 4141  32.476  26.619  14.740
31717W        W 4142   4.415  23.574  13.387
31718W        W 4143   1.268  34.998  12.809
31719W        W 4144  14.363  18.020  10.845
31720W        W 4145  39.454  18.821  11.216
31721W        W 4146  31.179  35.403  11.530
31722W        W 4147  44.787  13.526  11.098
31723W        W 4148  19.764  39.420   4.030
31724W        W 4149  15.579  18.718  13.543
31725W        W 4150  25.721  10.908  13.972
31726W        W 4151  23.229  30.020  11.855
31727W        W 4152  36.628  25.205  13.624
31728W        W 4153  37.878  36.855   4.646
31729W        W 4154  11.763  33.764  11.170
31730W        W 4155  35.883  20.520  13.187
31731W        W 4156  16.166   4.148  10.427
31732W        W 4157  32.601  14.343  11.114
31733W        W 4158  33.182   0.413  10.478
31734W        W 4159  36.301  29.302   1.801
31735W        W 4160  42.084  32.888  14.001
31736W        W 4161  19.689  25.274   1.641
31737W        W 4162  11.261  31.657  10.663
31738W        W 4163  14.300  37.427  11.848
31739W        W 4164  40.869  23.460   2.160
31740W        W 4165  39.074  19.440   1.654
31741W        W 4166  34.033  22.711   2.324
31742W        W 4167  12.208  41.566  14.983
31743W        W 4168   0.788  15.004   2.355
31744W        W 4169  10.092  18.808   3.033
31745W        W 4170  26.736   5.953  13.017
31746W        W 4171  44.742  31.699  10.895
31747W        W 4172   6.172  30.503  11.563
31748W        W 4173  30.100  20.333  11.766
31749W        W 4174  42.290  41.567   1.307
31750W        W 4175   2.702  28.674  12.012
31751W        W 4176  43.027  22.532   0.786
31752W        W 4177  10.231  15.835   0.748
31753W        W 4178   8.518  38.482   3.842
31754W        W 4179  39.956  35.253   3.894
31755W        W 4180   3.338  15.841   3.700
31756W        W 4181  39.901  22.194  10.752
31757W        W 4182   2.518  23.977   2.255
31758W        W 4183  33.480  25.601   0.389
31759W        W 4184  36.364  44.452  11.454
31760W        W 4185  30.232   8.010  14.399
31761W        W 4186  32.040  42.326  12.455
31762W        W 4187   6.851  31.999   1.115
31763W        W 4188   0.194  42.469  10.407
31764W        W 4189  11.682  10.175  12.337
31765W        W 4190   8.871  27.491  11.235
31766W        W 4191  19.762  38.335  14.850
31767W        W 4192  33.794  28.885   0.776
31768W        W 4193  35.047   7.441  13.920
31769W        W 4194  32.322  31.117  12.089
31770W        W 4195  30.545  19.227  13.928
31771W        W 4196  37.853  43.951   0.368
31772W        W 4197  27.010   7.425  13.441
31773W        W 4198  30.400   2.091   4.011
31774W        W 4199  33.430  43.515   2.557
31775W        W 4200  31.442  37.859  10.752
31776W        W 4201   2.566   0.364   4.760
31777W        W 4202  34.137  24.624  14.432
31778W        W 4203   8.435  35.131   5.225
31779W        W 4204  27.518  18.071   4.433
31780W        W 4205   3.798  37.485   0.087
31781W        W 4206  10.428  44.007   1.517
31782W        W 4207  11.931  35.902  11.971
31783W        W 4208  11.234   5.788   1.207
31784W        W 4209  11.661  26.093   1.600
31785W        W 4210  21.693  18.402   2.390
31786W        W 4211  38.778  19.271  14.868
31787W        W 4212  24.196  22.767   0.871
31788W        W 4213  26.079  27.234   1.181
31789W        W 4214  36.370  38.705  12.973
31790W        W 4215   4.344  42.063  14.035
31791W        W 4216  34.434  23.515   5.496
31792W        W 4217  32.423  25.735  12.877
31793W        W 4218  25.282   1.689  14.312
31794W        W 4219   3.988   0.381   2.943
31795W        W 4220  31.775  30.642  13.807
31796W        W 4221  24.202  32.240   4.876
31797W        W 4222  38.954  10.662   2.326
31798W        W 4223  43.468  44.920   3.055
31799W        W 4224  33.513  30.160  13.768
31800W        W 4225  25.919  39.761  14.853
31801W        W 4226  22.745  38.427  11.748
31802W        W 4227  43.010  24.051   3.208
31803W        W 4228   8.730   3.772  12.862
31804W        W 4229  21.679  35.008   2.472
31805W        W 4230  44.278   5.452  12.483
31806W        W 4231  31.423  38.855  12.794
31807W        W 4232  14.265  19.057  12.167
31808W        W 4233   9.637  37.789  13.411
31809W        W 4234   0.444   1.486   4.907
31810W        W 4235  27.052  12.742  14.007
31811W        W 4236  40.531  27.002  11.945
31812W        W 4237   1.046  23.966  14.460
31813W        W 4238   1.087  40.375  14.826
31814W        W 4239   9.891  37.114   4.680
31815W        W 4240   4.357   9.006   0.295
31816W        W 4241  37.577   5.071  13.091
31817W        W 4242  35.877  30.213  12.515
31818W        W 4243  18.607   3.351  14.485
31819W        W 4244  37.101  22.703   3.160
31820W        W 4245  16.665  30.863  12.986
31821W        W 4246  15.044  20.761   3.573
31822W        W 4247  30.521  29.625  14.823
31823W        W 4248  31.115  39.633  10.612
31824W        W 4249  20.653  14.191   2.440
31825W        W 4250  30.890  31.701  11.792
31826W        W 4251  32.923  23.640   0.696
31827W        W 4252   6.784   5.944   0.313
31828W        W 4253  44.292  18.391  10.795
31829W        W 4254  36.396  36.665  14.775
31830W        W 4255   9.823  38.605   1.063
31831W        W 4256  16.706  38.875  11.435
31832W        W 4257   2.832  30.820  14.680
31833W        W 4258  44.961   6.356  13.123
31834W        W 4259  44.324  20.796  11.076
31835W        W 4260  43.054  41.277  13.426
31836W        W 4261  14.374  42.000  12.678
31837W        W 4262   5.678  35.045   2.218
31838W        W 4263  20.938  22.830  12.588
31839W        W 4264  29.576   2.433  11.596
31840W        W 4265  18.247  20.561   4.251
31841W        W 4266  11.305  25.472  10.660
31842W        W 4267  21.477  44.014   0.355
31843W        W 4268  39.112  22.434  14.787
31844W        W 4269  33.262  21.232  12.892
31845W        W 4270  32.339   6.856   4.932
31846W        W 4271  44.553  11.448   4.360
31847W        W 4272  30.657  33.524  11.280
31848W        W 4273  17.724  32.037  10.928
31849W        W 4274  21.013  11.775   9.917
31850W        W 4275  29.066   3.948  12.124
31851W        W 4276   4.848   9.106  12.015
31852W        W 4277  42.699  39.967  12.942
31853W        W 4278  41.876   6.865  14.561
31854W        W 4279   9.431  43.501  14.356
31855W        W 4280   3.642   1.735   4.678
31856W        W 4281  10.395  15.387   1.534
31857W        W 4282  12.009  16.555  10.947
31858W        W 4283  24.605  15.397  12.474
31859W        W 4284  13.993   8.234  11.163
31860W        W 4285  34.934  39.438  13.942
31861W        W 4286   9.622  40.479   0.520
31862W        W 4287  25.087   5.668   3.822
31863W        W 4288  29.147   6.909  14.468
31864W        W 4289  43.748  37.565   0.326
31865W        W 4290  31.944  32.661  11.588
31866W        W 4291   7.941  10.352   4.536
31867W        W 4292   0.431   5.617   3.254
31868W        W 4293   3.637  13.090   0.939
31869W        W 4294  34.893  12.617   0.087
31870W        W 4295  19.600   8.748  11.566
31871W        W 4296  36.112  21.725  14.085
31872W        W 4297   5.869  28.913   4.315
31873W        W 4298  23.712  39.102  11.374
31874W        W 4299  20.183  10.981  11.142
31875W        W 4300   2.661   4.333   3.646
31876W        W 4301  32.918  15.042   4.126
31877W        W 4302  29.154  32.899  13.577
31878W        W 4303   0.309  23.273   2.943
31879W        W 4304  25.696  17.096  12.434
31880W        W 4305  19.670  14.173  13.607
31881W        W 4306   7.763  18.036   3.877
31882W        W 4307  11.313  13.589  11.001
31883W        W 4308  35.959  32.390  11.985
31884W        W 4309  43.312  10.199   4.242
31885W        W 4310  10.465   1.892  13.342
31886W        W 4311  32.953  27.746  12.986
31887W        W 4312  35.842  25.177   2.160
31888W        W 4313  28.454  38.137   3.735
31889W        W 4314  32.400  27.778  12.428
31890W        W 4315  15.461  13.406  11.989
31891W        W 4316  23.495   4.320  11.010
31892W        W 4317  11.779  27.470   3.145
31893W        W 4318   5.187  27.674   3.150
31894W        W 4319  35.482  12.335  14.626
31895W        W 4320   6.669   1.853   3.137
31896W        W 4321  10.853  21.479  12.657
31897W        W 4322  27.248  13.161   1.352
31898W        W 4323  44.727  32.282   3.113
31899W        W 4324   4.775  23.769   1.800
31900W        W 4325  20.211   8.491   4.653
31901W        W 4326  29.981   7.091  13.455
31902W        W 4327   9.860  28.877  12.561
31903W        W 4328  36.605   8.291   5.005
31904W        W 4329  35.577  14.962   3.565
31905W        W 4330  21.978  34.447  14.227
31906W        W 4331  29.983  34.685   0.230
31907W        W 4332  29.943  28.431   0.702
31908W        W 4333  15.005  28.554  11.582
31909W        W 4334   4.099  28.508  10.736
31910W        W 4335  30.472  34.610   0.391
31911W        W 4336   7.951  30.506  13.879
31912W        W 4337  18.247   1.332   3.320
31913W        W 4338   8.087  15.969   1.347
31914W        W 4339  26.723  41.929  13.395
31915W        W 4340  22.264  22.269   2.854
31916W        W 4341  40.439  38.932  12.164
31917W        W 4342  42.806  43.993   1.798
31918W        W 4343  32.924  36.382   2.954
31919W        W 4344  35.075   1.930  11.932
31920W        W 4345  14.322  27.705   0.350
31921W        W 4346  36.291  24.616   2.872
31922W        W 4347  40.057  27.638   3.724
31923W        W 4348   6.649   1.234   0.441
31924W        W 4349  25.986  44.919   0.332
31925W        W 4350   4.753  31.960   1.328
31926W        W 4351   0.720  12.689  11.560
31927W        W 4352  42.017  10.202  12.850
31928W        W 4353  17.343  38.276  12.437
31929W        W 4354   4.314   9.538  14.453
31930W        W 4355  38.952  11.883  14.935
31931W        W 4356  34.279  42.285   0.352
31932W        W 4357  23.064  15.019  11.653
31933W        W 4358   8.794   9.374   9.865
31934W        W 4359  38.119  14.674   1.692
31935W        W 4360  35.914  43.575   3.117
31936W        W 4361  12.342   7.760  14.776
31937W        W 4362  22.835  22.688  14.430
31938W        W 4363  14.218   2.372   0.755
31939W        W 4364  40.606  30.061  14.746
31940W        W 4365  29.151  36.516   0.362
31941W        W 4366  33.215  25.738  10.752
31942W        W 4367  43.963  44.674  10.783
31943W        W 4368  39.783  21.061   0.691
31944W        W 4369  38.092  41.535   3.710
31945W        W 4370  31.967   2.233  11.457
31946W        W 4371  37.851  16.666  14.552
31947W        W 4372  12.049  32.521  11.602
31948W        W 4373  33.057  44.750   3.604
31949W        W 4374  15.427  19.171   4.168
31950W        W 4375  23.051  19.064  14.385
31951W        W 4376  17.275  40.569   1.729
31952W        W 4377  31.696  18.188   0.866
31953W        W 4378  13.099  35.880   0.210
31954W        W 4379   1.952  35.046  10.739
31955W        W 4380  38.089  29.469   4.437
31956W        W 4381  29.015   7.081   2.598
31957W        W 4382   7.630  15.816  11.216
31958W        W 4383  20.709  26.107  10.903
31959W        W 4384  24.021   1.740  11.288
31960W        W 4385  10.878  39.407  11.961
31961W        W 4386  25.215  11.680   3.759
31962W        W 4387  20.568   6.278   1.191
31963W        W 4388  20.125   4.003  12.003
31964W        W 4389  31.353   7.602   2.919
31965W        W 4390  37.357  36.222  12.330
31966W        W 4391  16.082  15.135   1.619
31967W        W 4392  22.431  37.649  13.603
31968W        W 4393  34.474   0.827  11.198
31969W        W 4394  32.187  18.670   0.387
31970W        W 4395  22.176  31.464   4.202
31971W        W 4396  14.199  25.077  12.011
31972W        W 4397  33.966  31.837  14.505
31973W        W 4398  37.900  37.963   1.034
31974W        W 4399  40.278  22.792  11.915
31975W        W 4400   0.997  27.198   0.863
31976W        W 4401  35.793  40.442   3.197
31977W        W 4402  29.993  12.632  10.625
31978W        W 4403  34.687  18.232   3.604
31979W        W 4404  29.551  25.076  14.207
31980W        W 4405  22.162  29.201   2.705
31981W        W 4406  10.645   9.978  14.871
31982W        W 4407  32.201  22.124  12.476
31983W        W 4408   1.646   6.896  14.009
31984W        W 4409  21.030  37.957  10.908
31985W        W 4410   6.099  23.813  12.987
31986W        W 4411  15.331  14.058  11.658
31987W        W 4412  21.972  21.841   2.815
31988W        W 4413   3.517  18.696  14.856
31989W        W 4414  44.465  40.267  13.441
31990W        W 4415  26.571   0.160  10.727
31991W        W 4416  26.498  13.083  10.450
31992W        W 4417  37.339  26.023   3.136
31993W        W 4418   8.634  16.804   1.219
31994W        W 4419  41.184  41.054   3.519
31995W        W 4420  14.686   5.444  13.460
31996W        W 4421  32.386   8.139  11.989
31997W        W 4422  19.614   3.484   9.947
31998W        W 4423  15.328  25.255  12.995
31999W        W 4424   4.966  43.890   3.683
32000W        W 4425  26.088  38.004  12.996
32001W        W 4426  34.854  16.537  14.238
32002W        W 4427  39.887  20.792   0.275
32003W        W 4428   0.064  30.367  11.976
32004W        W 4429  11.700  34.931   4.563
32005W        W 4430   1.848  22.635   4.172
32006W        W 4431   6.267  40.701  14.750
32007W        W 4432  40.381  11.986   3.795
32008W        W 4433  14.249   4.779  13.230
32009W        W 4434   2.941  39.493  14.035
32010W        W 4435  38.136  38.820  10.749
32011W        W 4436  18.311  16.759   0.777
32012W        W 4437   4.122  10.513   2.171
32013W        W 4438  25.897  28.519  13.518
32014W        W 4439  28.977  17.480   1.755
32015W        W 4440  33.660  11.276   4.169
32016W        W 4441  28.265  43.913   4.601
32017W        W 4442  25.835   8.859  11.906
32018W        W 4443   0.284  34.801   2.842
32019W        W 4444  10.882  44.496  11.549
32020W        W 4445  37.321   9.106   2.663
32021W        W 4446  29.098  12.799   2.752
32022W        W 4447   1.191   9.064   3.453
32023W        W 4448  21.127  32.494  10.955
32024W        W 4449  14.186  27.648  11.999
32025W        W 4450  43.262  12.232   4.586
32026W        W 4451  27.014  20.011   1.346
32027W        W 4452  38.305  14.694  13.803
32028W        W 4453  35.069   9.793  11.095
32029W        W 4454  22.774   8.259   1.140
32030W        W 4455  30.274   2.962   3.554
32031W        W 4456  32.486  13.582  10.720
32032W        W 4457  36.787   7.474  10.864
32033W        W 4458  24.525  40.152  13.422
32034W        W 4459  35.658  40.609  12.361
32035W        W 4460   7.909  43.653  11.021
32036W        W 4461  31.132   2.892   2.616
32037W        W 4462  33.374  31.486   0.510
32038W        W 4463  23.807  21.561  13.001
32039W        W 4464  35.856  30.630  14.353
32040W        W 4465  26.456  25.472   1.328
32041W        W 4466  42.169  13.264   1.477
32042W        W 4467   5.625   8.042   2.543
32043W        W 4468  30.814  32.005   1.158
32044W        W 4469  37.912  34.896   2.713
32045W        W 4470  40.719  11.142   1.002
32046W        W 4471  16.548   1.033   3.789
32047W        W 4472  22.633   9.772  11.391
32048W        W 4473  28.932  33.637  11.949
32049W        W 4474  14.050  35.451  14.334
32050W        W 4475  26.568  40.714   3.272
32051W        W 4476  22.222   5.972   0.202
32052W        W 4477  44.529  34.349  14.472
32053W        W 4478   0.013  11.652   2.296
32054W        W 4479  27.431  16.554   1.433
32055W        W 4480  21.798  17.624   2.865
32056W        W 4481  19.300  37.031  11.152
32057W        W 4482  27.517  43.142  14.561
32058W        W 4483   5.418  27.135   2.154
32059W        W 4484  44.440  41.387   4.374
32060W        W 4485  10.067  22.077  12.670
32061W        W 4486  22.932   8.178   5.064
32062W        W 4487  28.563  31.608  10.679
32063W        W 4488   5.717  40.109  12.533
32064W        W 4489  33.420   6.582   3.782
32065W        W 4490   7.948  33.758   1.115
32066W        W 4491  18.243   9.605   1.004
32067W        W 4492  41.954   7.650  10.424
32068W        W 4493   5.662  21.733  12.449
32069W        W 4494   6.632   3.723  10.745
32070W        W 4495  34.337  19.301  12.535
32071W        W 4496  15.582  29.032  13.269
32072W        W 4497   3.266  36.642  14.500
32073W        W 4498  18.260  24.237  10.469
32074W        W 4499  42.709   4.085  14.797
32075W        W 4500  19.749  30.831   0.442
32076W        W 4501  43.834  11.726   3.811
32077W        W 4502  14.226   8.270  10.712
32078W        W 4503  19.454   2.267   0.878
32079W        W 4504  21.250  15.334   2.786
32080W        W 4505  31.918   0.775  13.170
32081W        W 4506  35.748   3.684   4.798
32082W        W 4507  24.970  37.341  13.296
32083W        W 4508  30.513   6.413   4.126
32084W        W 4509  12.168  30.881  12.469
32085W        W 4510  16.098  23.711  14.397
32086W        W 4511  39.970  28.148   4.298
32087W        W 4512   0.336  40.756   2.354
32088W        W 4513   3.229   1.383  12.441
32089W        W 4514  40.319  19.095   4.166
32090W        W 4515  27.039  41.975   3.181
32091W        W 4516  43.521  35.909   0.045
32092W        W 4517  37.241  34.896  14.845
32093W        W 4518  25.085  43.424   1.916
32094W        W 4519  15.635  39.181  14.354
32095W        W 4520  34.511  17.796   3.856
32096W        W 4521  39.757   5.693  11.972
32097W        W 4522  35.079   7.197   0.292
32098W        W 4523   8.754  34.907   3.639
32099W        W 4524  10.587  33.034   4.507
32100W        W 4525  14.226   8.663  14.764
32101W        W 4526   7.483  37.882   0.708
32102W        W 4527  44.205  39.384  13.451
32103W        W 4528  19.027   5.654  11.551
32104W        W 4529  33.725  20.269  13.033
32105W        W 4530   7.740  40.303   3.727
32106W        W 4531  13.262   5.844   3.899
32107W        W 4532  16.326  38.352   1.238
32108W        W 4533  33.533  29.721   0.157
32109W        W 4534   2.807  23.838  11.074
32110W        W 4535  24.594  10.209   1.068
32111W        W 4536  15.548   7.884  11.413
32112W        W 4537  35.109  12.249   1.400
32113W        W 4538   8.324  12.321   0.180
32114W        W 4539  19.092  39.361   2.227
32115W        W 4540  23.470  16.215   4.658
32116W        W 4541  39.456   0.552  13.159
32117W        W 4542   6.653  30.945   3.211
32118W        W 4543   8.356  40.898   0.776
32119W        W 4544  15.150  24.155   2.645
32120W        W 4545  26.447  31.179   5.439
32121W        W 4546   7.696  42.972   0.453
32122W        W 4547  41.451  37.312   2.884
32123W        W 4548  18.092  38.946   1.480
32124W        W 4549  17.398  30.046   0.779
32125W        W 4550  40.004  39.865   4.542
32126W        W 4551  41.518  43.887   4.682
32127W        W 4552   7.848  33.913   0.121
32128W        W 4553  33.407  37.325   0.633
32129W        W 4554   9.420  42.037  14.263
32130W        W 4555  10.796  22.260   3.710
32131W        W 4556  23.684   6.339  10.757
32132W        W 4557  39.004  32.124  10.646
32133W        W 4558  28.558  10.898   0.386
32134W        W 4559  31.053  39.347   1.547
32135W        W 4560   5.266  38.578  13.110
32136W        W 4561  36.745   6.845   4.083
32137W        W 4562  33.820  15.835   4.221
32138W        W 4563  39.037  15.592   2.672
32139W        W 4564  13.130   7.803   0.273
32140W        W 4565  12.592  31.878   2.754
32141W        W 4566  31.929  18.641   1.804
32142W        W 4567  43.474   3.731   2.942
32143W        W 4568  20.240  36.388  13.517
32144W        W 4569  43.708   7.209  14.463
32145W        W 4570  33.027  36.465  11.613
32146W        W 4571  30.108  32.166  14.403
32147W        W 4572  20.057  41.711   3.272
32148W        W 4573  42.217   1.050  12.833
32149W        W 4574  26.119  13.124  14.055
32150W        W 4575   6.771  21.690  14.096
32151W        W 4576   9.261  35.980  12.934
32152W        W 4577  20.234  33.979  12.007
32153W        W 4578  27.157  14.645  12.386
32154W        W 4579  43.805  18.076   1.514
32155W        W 4580  29.246   9.226  13.294
32156W        W 4581   0.191   0.042   2.263
32157W        W 4582  21.477  32.618   3.674
32158W        W 4583  39.975  11.601   2.342
32159W        W 4584   5.544  18.034  12.481
32160W        W 4585  25.177  34.512   4.443
32161W        W 4586  24.154  30.264   4.063
32162W        W 4587  19.986  39.839  13.042
32163W        W 4588  25.575   3.290   4.936
32164W        W 4589  36.525   9.962  14.928
32165W        W 4590   6.827  37.887  14.184
32166W        W 4591   4.817  44.778  13.584
32167W        W 4592  24.024  32.982  11.566
32168W        W 4593   4.020  16.579  14.908
32169W        W 4594   5.283  35.982   0.336
32170W        W 4595  29.404  21.264  11.500
32171W        W 4596  23.464   1.801  10.639
32172W        W 4597  34.407  22.471  11.343
32173W        W 4598  41.365  32.372   0.393
32174W        W 4599  19.038   0.495   2.761
32175W        W 4600   7.163  24.408   1.434
32176W        W 4601  26.505  28.377  12.015
32177W        W 4602   8.593   6.235   1.747
32178W        W 4603  37.022  33.150   0.257
32179W        W 4604  28.940  40.463   4.944
32180W        W 4605  11.261  29.784  12.934
32181W        W 4606  32.591  35.485   2.630
32182W        W 4607  14.274  44.267  12.013
32183W        W 4608  25.205  10.864  13.992
32184W        W 4609  31.636  11.244   0.707
32185W        W 4610  25.532  18.902   0.856
32186W        W 4611  13.703  15.246  14.861
32187W        W 4612  11.491  38.902   0.003
32188W        W 4613  42.349  19.705  12.176
32189W        W 4614  17.987  31.921   9.915
32190W        W 4615  15.708  28.710  12.083
32191W        W 4616  39.441  42.132  12.687
32192W        W 4617  40.774  27.171   2.324
32193W        W 4618  15.862  28.416   4.774
32194W        W 4619   3.180  40.092   1.426
32195W        W 4620  44.700  37.900   0.297
32196W        W 4621  36.247  20.510   3.306
32197W        W 4622  27.239  40.396  13.976
32198W        W 4623  43.545  28.230  12.172
32199W        W 4624  43.089  12.689  14.226
32200W        W 4625  30.753  12.208  14.063
32201W        W 4626  19.760  44.073   0.712
32202W        W 4627  23.503  30.149   2.464
32203W        W 4628  38.567  27.707  13.868
32204W        W 4629   6.014  25.167   0.877
32205W        W 4630  29.992  36.615   4.124
32206W        W 4631  15.509   9.185  11.473
32207W        W 4632  12.323   7.850  14.249
32208W        W 4633   0.444  19.307   1.367
32209W        W 4634  20.689  26.367   5.269
32210W        W 4635  35.886  28.899   0.791
32211W        W 4636  13.385  30.366  14.827
32212W        W 4637  44.454  26.768   4.145
32213W        W 4638  29.911  28.963  14.950
32214W        W 4639  30.845  37.081   3.738
32215W        W 4640  17.582  38.885  13.568
32216W        W 4641  40.051   6.151  14.934
32217W        W 4642  20.214  41.899   1.112
32218W        W 4643  42.307  27.406   3.696
32219W        W 4644  26.441   6.796  11.636
32220W        W 4645  11.683  13.286  12.389
32221W        W 4646  24.704  11.418   5.543
32222W        W 4647  29.430  28.769   1.889
32223W        W 4648  12.748  25.793   4.653
32224W        W 4649  11.392   1.997   1.746
32225W        W 4650  22.721   9.255   0.548
32226W        W 4651  26.427   4.207  12.502
32227W        W 4652  25.254  16.166  11.629
32228W        W 4653   7.384  24.727  12.974
32229W        W 4654  24.758  40.404   2.212
32230W        W 4655  36.927   3.217   3.644
32231W        W 4656  15.773  12.841  11.271
32232W        W 4657  24.399  25.085   3.836
32233W        W 4658  15.729  12.876   2.770
32234W        W 4659  24.545  22.257   2.017
32235W        W 4660   1.185  15.255   1.439
32236W        W 4661  10.292  42.536   3.667
32237W        W 4662  27.977   6.434  12.872
32238W        W 4663  22.382  14.470  12.239
32239W        W 4664  43.393  41.848   2.178
32240W        W 4665  12.089  24.502   2.863
32241W        W 4666   0.622   1.463   3.535
32242W        W 4667  33.919   6.029   4.171
32243W        W 4668   3.616  20.650   0.715
32244W        W 4669  19.996  27.055   1.285
32245W        W 4670  14.341  11.789   2.797
32246W        W 4671  19.176   0.868   5.518
32247W        W 4672  42.237  34.600  14.048
32248W        W 4673   1.215  29.962   2.273
32249W        W 4674  19.724  44.033  12.075
32250W        W 4675  44.817  19.442  14.860
32251W        W 4676  12.944   6.517   1.438
32252W        W 4677   2.964  30.423  14.369
32253W        W 4678  27.106  40.799   0.400
32254W        W 4679  35.362  23.249   5.503
32255W        W 4680  26.551  39.127   2.745
32256W        W 4681   4.170  25.662  10.886
32257W        W 4682  21.758  34.523   4.691
32258W        W 4683  34.851  29.418  12.484
32259W        W 4684   9.163  13.325   0.233
32260W        W 4685  42.297  38.890   4.243
32261W        W 4686  21.488  41.426   0.863
32262W        W 4687  27.427  25.979  11.876
32263W        W 4688  36.283  41.420   3.471
32264W        W 4689  11.625  34.758   1.418
32265W        W 4690   3.005  24.014   0.154
32266W        W 4691  43.576  19.630   4.979
32267W        W 4692   6.728  29.545  14.257
32268W        W 4693  19.165  29.934   1.754
32269W        W 4694  14.224  35.581   4.581
32270W        W 4695  31.150  20.533  12.356
32271W        W 4696  14.966   3.113   0.010
32272W        W 4697  27.037  17.293   3.071
32273W        W 4698   9.197  19.562  12.548
32274W        W 4699  23.043  29.930  11.041
32275W        W 4700  38.850  42.599  11.590
32276W        W 4701   4.355   2.424  11.190
32277W        W 4702  26.662  18.542   2.938
32278W        W 4703  19.718  19.448   4.879
32279W        W 4704  31.100  26.934   4.220
32280W        W 4705  39.073   4.750   4.650
32281W        W 4706  44.628  33.329  11.165
32282W        W 4707  16.184   8.419  10.822
32283W        W 4708  28.670  31.054   1.914
32284W        W 4709  29.788  30.514  14.938
32285W        W 4710  25.904  20.670   2.830
32286W        W 4711   5.433  17.207  12.434
32287W        W 4712   3.368  35.390  12.849
32288W        W 4713  35.191  36.096   3.786
32289W        W 4714  18.228  11.335   3.857
32290W        W 4715  38.206  23.507  14.492
32291W        W 4716  25.167  29.237  11.618
32292W        W 4717  13.607  21.201   0.435
32293W        W 4718  25.577  38.384  13.371
32294W        W 4719   3.886  37.980  12.529
32295W        W 4720  22.774   1.060  13.709
32296W        W 4721  29.411  23.069   1.798
32297W        W 4722  10.656   2.178  11.596
32298W        W 4723   3.492   6.577   2.200
32299W        W 4724  39.837  42.844   1.156
32300W        W 4725   6.501   5.244   0.767
32301W        W 4726   0.135  30.694   4.613
32302W        W 4727   3.884  28.131   4.631
32303W        W 4728  33.126  15.075  11.489
32304W        W 4729   3.656  15.660  14.464
32305W        W 4730  38.991   8.838   2.004
32306W        W 4731   9.575   8.086  11.602
32307W        W 4732  37.506  14.689  10.885
32308W        W 4733   4.891  19.875  13.728
32309W        W 4734  26.007  12.692  11.574
32310W        W 4735  26.065  29.692  14.583
32311W        W 4736  36.953  31.096  14.924
32312W        W 4737  41.022  44.927  11.404
32313W        W 4738  29.140  34.498  12.804
32314W        W 4739  33.076  43.643  14.365
32315W        W 4740  40.910  23.604   3.673
32316W        W 4741  44.778  15.335  10.630
32317W        W 4742  30.754  19.050  13.047
32318W        W 4743   4.424  20.238  12.875
32319W        W 4744  22.201   8.881  13.039
32320W        W 4745  34.037  24.461   0.909
32321W        W 4746  26.509  29.233  13.736
32322W        W 4747  23.327  12.143   2.478
32323W        W 4748   7.245   8.881  14.941
32324W        W 4749   5.401   1.329   2.768
32325W        W 4750  33.388  24.267   4.178
32326W        W 4751  23.996   5.792   4.314
32327W        W 4752  32.882  24.599   1.879
32328W        W 4753  39.418  32.208   2.735
32329W        W 4754   8.371  13.250   4.484
32330W        W 4755   4.864  32.875  13.772
32331W        W 4756  33.935  42.209  12.492
32332W        W 4757  20.563  44.363   1.433
32333W        W 4758  32.182   4.225   0.256
32334W        W 4759  28.954   0.351   0.857
32335W        W 4760   9.643  30.713  12.802
32336W        W 4761  36.436  32.968   4.573
32337W        W 4762  34.480  32.378  10.698
32338W        W 4763  16.559  28.196  10.682
32339W        W 4764  34.553   6.126   0.422
32340W        W 4765  25.190  14.121  12.482
32341W        W 4766   7.871  39.067  14.242
32342W        W 4767   0.565  18.643  12.101
32343W        W 4768  41.239  21.884   1.932
32344W        W 4769   2.948  31.265  14.916
32345W        W 4770  29.463  38.017   2.450
32346W        W 4771  11.333  24.444   2.167
32347W        W 4772  15.044  42.894   4.587
32348W        W 4773  39.113  14.222   0.969
32349W        W 4774  21.643  26.521  13.597
32350W        W 4775  20.516  37.499   9.824
32351W        W 4776  31.056  18.723   3.713
32352W        W 4777  34.039  29.169  13.060
32353W        W 4778  31.535  20.586   1.288
32354W        W 4779  10.593  24.089  13.795
32355W        W 4780   1.382  27.998  14.889
32356W        W 4781  43.440  26.951   2.813
32357W        W 4782  42.852   9.433   1.797
32358W        W 4783   0.840  32.367  13.752
32359W        W 4784  20.289   3.637  13.353
32360W        W 4785  27.016  34.256   0.372
32361W        W 4786  27.504  40.868   1.144
32362W        W 4787   0.623   2.479   2.460
32363W        W 4788   2.314  14.507   3.665
32364W        W 4789   7.903  13.720  11.267
32365W        W 4790  21.774   7.532  11.905
32366W        W 4791  34.403  29.949   1.279
32367W        W 4792  43.761  30.315  10.883
32368W        W 4793  39.515  28.491   0.895
32369W        W 4794  17.302  32.545   9.665
32370W        W 4795   7.786   9.155   2.219
32371W        W 4796  13.808  40.878   3.478
32372W        W 4797  31.040  42.283  11.188
32373W        W 4798  13.343  20.138  11.657
32374W        W 4799   2.830  33.013   1.324
32375W        W 4800  24.368  29.141   3.631
32376W        W 4801  42.374  13.355   4.643
32377W        W 4802  31.970  43.460  10.781
32378W        W 4803  18.991  16.109  10.458
32379W        W 4804  15.089  15.383  13.808
32380W        W 4805  44.854  12.302  13.894
32381W        W 4806   2.572  32.903  10.844
32382W        W 4807  26.086  21.996  14.370
32383W        W 4808  15.157  17.104  12.831
32384W        W 4809  20.879  44.876  13.310
32385W        W 4810  13.888  42.026   4.141
32386W        W 4811  37.366  38.111   0.382
32387W        W 4812  19.164  11.141  14.349
32388W        W 4813  14.635  26.427   0.468
32389W        W 4814  32.971   6.830   3.706
32390W        W 4815  40.361  18.836   3.258
32391W        W 4816  17.857   1.014   3.635
32392W        W 4817  24.916  19.324  14.000
32393W        W 4818  17.567  23.701  13.825
32394W        W 4819  28.651  33.051   2.353
32395W        W 4820  19.059  23.134   1.847
32396W        W 4821  40.825  31.906  12.116
32397W        W 4822  22.161  23.813   1.650
32398W        W 4823  10.043  32.476  14.896
32399W        W 4824  37.321  40.020   4.397
32400W        W 4825  44.471  13.918   2.064
32401W        W 4826  34.531   4.802  12.335
32402W        W 4827   3.263  43.751   2.786
32403W        W 4828  39.799  34.828  13.664
32404W        W 4829  44.424  14.815  10.701
32405W        W 4830   1.466  16.818  11.633
32406W        W 4831  37.936  18.607  11.599
32407W        W 4832  30.434  28.553   2.121
32408W        W 4833  37.363  27.062   3.173
32409W        W 4834   5.908   2.734   3.686
32410W        W 4835  13.281  39.794  11.144
32411W        W 4836   2.686   1.493   2.303
32412W        W 4837  30.988  41.077  13.079
32413W        W 4838   0.511  30.888  13.811
32414W        W 4839   1.439  13.364   3.625
32415W        W 4840  24.458  38.911  14.565
32416W        W 4841  17.621   8.263   4.639
32417W        W 4842  35.830  26.447  14.426
32418W        W 4843  33.991  39.000  12.573
32419W        W 4844  41.835  21.065  12.401
32420W        W 4845  34.585  23.932   0.372
32421W        W 4846  28.616  24.249  12.789
32422W        W 4847   5.190  15.332  11.523
32423W        W 4848  41.228  12.758  10.948
32424W        W 4849  37.087  20.886   4.627
32425W        W 4850  35.866  25.148   9.679
32426W        W 4851   5.424   9.427   2.809
32427W        W 4852  28.883  27.119  11.157
32428W        W 4853   6.000   4.832   3.175
32429W        W 4854  43.913   5.306   4.352
32430W        W 4855  39.037  39.071  10.967
32431W        W 4856   3.109  21.547  11.905
32432W        W 4857  24.171  12.263   3.592
32433W        W 4858  35.770  16.933  14.400
32434W        W 4859  20.104   2.327   3.700
32435W        W 4860  30.611  27.261  13.739
32436W        W 4861  15.265  36.932  10.956
32437W        W 4862  23.136   1.663  14.824
32438W        W 4863  17.115  38.449  11.990
32439W        W 4864  11.848  43.392  13.114
32440W        W 4865  17.716   7.451   0.767
32441W        W 4866  32.537  17.789   1.622
32442W        W 4867  19.465  18.262  11.637
32443W        W 4868  13.628   0.741   0.195
32444W        W 4869  23.830  28.944  11.997
32445W        W 4870  31.015  33.463  14.716
32446W        W 4871  28.606  11.311  12.749
32447W        W 4872  27.521  33.856  10.729
32448W        W 4873  18.786   6.664   0.402
32449W        W 4874  35.699   3.855   3.809
32450W        W 4875  42.197   0.227  11.185
32451W        W 4876  26.927   8.368  12.393
32452W        W 4877   2.306   2.629   3.189
32453W        W 4878   2.709  44.890   3.389
32454W        W 4879  29.828  17.707   0.045
32455W        W 4880  37.438  16.235   1.223
32456W        W 4881  40.346  18.531   4.145
32457W        W 4882  40.345  17.516   0.309
32458W        W 4883   7.293   5.195  12.619
32459W        W 4884   1.029  14.843   4.094
32460W        W 4885  24.904  39.521   2.326
32461W        W 4886  24.170  12.848  14.602
32462W        W 4887  13.308  40.423  14.507
32463W        W 4888  37.097  25.582   3.244
32464W        W 4889   7.749   0.723   0.046
32465W        W 4890  24.089  43.289   1.704
32466W        W 4891  19.587   9.974  11.596
32467W        W 4892  19.423  10.220   4.670
32468W        W 4893   6.245  30.249  14.337
32469W        W 4894  38.103  39.344   2.837
32470W        W 4895  37.331  41.930   0.415
32471W        W 4896  37.317  26.156  14.011
32472W        W 4897  32.580  14.637  13.514
32473W        W 4898   4.816  14.206  12.061
32474W        W 4899  33.144  35.492  10.655
32475W        W 4900  31.925   2.266  11.954
32476W        W 4901  39.066   1.875  12.757
32477W        W 4902  31.031  17.207   0.149
32478W        W 4903  28.713  34.202  14.154
32479W        W 4904  38.518  35.392   2.295
32480W        W 4905  22.270  17.192   1.642
32481W        W 4906  44.919  34.914  10.509
32482W        W 4907  43.357  16.997  14.450
32483W        W 4908  22.926  29.587   3.790
32484W        W 4909  36.007  15.885   0.962
32485W        W 4910  17.235  19.172  10.854
32486W        W 4911  41.348  22.129  11.294
32487W        W 4912  20.623  16.188  13.442
32488W        W 4913  29.214  33.958  14.921
32489W        W 4914  26.524   3.715   3.591
32490W        W 4915   2.764  42.976  12.167
32491W        W 4916  41.822  25.340   2.847
32492W        W 4917  15.278   7.796   3.399
32493W        W 4918   0.489   6.942   1.453
32494W        W 4919   0.923  37.494  11.700
32495W        W 4920   9.878  15.795  12.773
32496W        W 4921   6.155  26.772  13.865
32497W        W 4922  13.109  18.648  11.313
32498W        W 4923  30.723   0.452   2.883
32499W        W 4924  29.740  36.266   3.643
32500W        W 4925  18.208  25.439   3.626
32501W        W 4926   9.388  35.043  13.395
32502W        W 4927  33.031   6.323   1.432
32503W        W 4928   3.685  35.754  11.946
32504W        W 4929  19.735  18.230   1.850
32505W        W 4930  38.082  10.798   3.714
32506W        W 4931  40.415  32.719   1.494
32507W        W 4932  25.538  34.902   1.148
32508W        W 4933   8.123  42.273   0.895
32509W        W 4934  25.024  10.612   0.268
32510W        W 4935  15.111  27.539   4.314
32511W        W 4936  32.983  28.622  11.037
32512W        W 4937  22.078  39.438  13.316
32513W        W 4938  10.736  11.934   2.909
32514W        W 4939  18.951   2.791   2.302
32515W        W 4940  18.685  16.621  13.435
32516W        W 4941  18.029  38.332  12.065
32517W        W 4942   3.250  30.979  12.185
32518W        W 4943   1.913  18.695  13.647
32519W        W 4944  23.084   7.584  14.400
32520W        W 4945  21.451  22.267   3.208
32521W        W 4946   5.495  26.477   2.791
32522W        W 4947  14.908  16.399   2.950
32523W        W 4948  32.446  10.317   0.775
32524W        W 4949   1.285  30.643   4.656
32525W        W 4950  12.048  18.119  14.473
32526W        W 4951  28.686  17.599  10.844
32527W        W 4952  28.456  11.109  11.042
32528W        W 4953  11.419  17.268  13.741
32529W        W 4954  27.079  18.511   3.873
32530W        W 4955   3.293  43.838  12.509
32531W        W 4956  42.958  26.252  13.916
32532W        W 4957  32.097  36.024  14.655
32533W        W 4958  28.012  33.240  11.616
32534W        W 4959  32.800  43.724  12.920
32535W        W 4960   8.232   4.506  12.977
32536W        W 4961  15.357  24.610  13.795
32537W        W 4962   1.338  20.924  11.818
32538W        W 4963  13.752  35.116   3.611
32539W        W 4964  23.151  39.539  12.963
32540W        W 4965  13.067   2.460  11.922
32541W        W 4966  24.653  33.951   4.627
32542W        W 4967  22.172  41.338  12.420
32543W        W 4968  31.717   0.722   1.323
32544W        W 4969  43.920  18.575   4.763
32545W        W 4970  39.516  20.150   3.647
32546W        W 4971   7.293  26.166   4.611
32547W        W 4972   1.806   0.016   1.397
32548W        W 4973   9.206  25.692  14.549
32549W        W 4974  38.091   1.555  13.686
32550W        W 4975   3.762  20.724   4.744
32551W        W 4976  14.405  41.442  11.459
32552W        W 4977   4.105   7.778   0.848
32553W        W 4978  15.144  39.094   0.431
32554W        W 4979  41.813  27.400  13.258
32555W        W 4980  23.742  15.205   0.663
32556W        W 4981  19.184  43.981   3.140
32557W        W 4982  33.259  14.347   3.650
32558W        W 4983  35.621  34.476  14.898
32559W        W 4984  34.142  17.114  14.473
32560W        W 4985  19.784  30.063  10.162
32561W        W 4986  34.326   5.148  13.664
32562W        W 4987   2.887   5.707  13.786
32563W        W 4988  27.380   4.168   3.243
32564W        W 4989  34.162  16.975  11.911
32565W        W 4990   5.798  34.342   4.235
32566W        W 4991   7.914  34.425   2.623
32567W        W 4992  21.550  38.399   0.386
32568W        W 4993  14.114   6.642   0.813
32569W        W 4994  39.908  27.431   4.588
32570W        W 4995  30.791   5.416   2.404
32571W        W 4996   8.012  25.733   1.894
32572W        W 4997  26.476  15.222  14.808
32573W        W 4998   1.837  22.944  14.809
32574W        W 4999  40.826  38.332  14.945
32575W        W 5000  22.245  42.086   4.606
32576W        W 5001   2.919  17.657   2.012
32577W        W 5002   6.701  20.297  14.766
32578W        W 5003  15.160  22.045  12.888
32579W        W 5004   3.000  14.661  12.958
32580W        W 5005  31.110   6.215   3.853
32581W        W 5006  37.953  16.445   3.768
32582W        W 5007  39.232  12.042   4.137
32583W        W 5008  26.733  29.038   3.652
32584W        W 5009  14.189  28.950  13.094
32585W        W 5010  31.388  37.028  12.411
32586W        W 5011  21.652  12.206   1.118
32587W        W 5012  31.602  44.548   1.633
32588W        W 5013  11.639  25.730   3.289
32589W        W 5014  29.148  41.666  14.170
32590W        W 5015   2.831  32.755   2.829
32591W        W 5016  39.558  30.043  11.215
32592W        W 5017  37.984   4.395   4.216
32593W        W 5018  13.631  29.511   4.429
32594W        W 5019  39.549   7.648   1.252
32595W        W 5020  23.150   4.223   2.366
32596W        W 5021  14.494  37.099  13.525
32597W        W 5022   2.022  13.702  10.462
32598W        W 5023  34.326  28.332  13.047
32599W        W 5024  44.762   8.936   3.633
32600W        W 5025  34.480  36.512   0.548
32601W        W 5026  25.176  27.556   4.054
32602W        W 5027  16.146  30.109  10.980
32603W        W 5028   5.397  17.000   2.603
32604W        W 5029  27.085   9.575   0.689
32605W        W 5030   1.768   0.327  11.078
32606W        W 5031  22.764  11.771  13.497
32607W        W 5032  21.453  36.940  12.369
32608W        W 5033  33.658  37.635   0.328
32609W        W 5034  31.012   0.127   3.223
32610W        W 5035  41.143   7.147   4.132
32611W        W 5036   6.971  20.622   1.860
32612W        W 5037  44.467  21.219   2.629
32613W        W 5038  20.811   0.178  11.948
32614W        W 5039  43.296  31.603  12.026
32615W        W 5040  18.151  29.554   1.762
32616W        W 5041  32.423  18.095   5.526
32617W        W 5042  44.998  37.499  11.184
32618W        W 5043  17.096  22.249   2.331
32619W        W 5044   5.606  22.413  13.507
32620W        W 5045  10.067  19.015  14.966
32621W        W 5046  30.874  20.092  12.316
32622W        W 5047  32.261   5.666  12.324
32623W        W 5048  35.383  44.657   0.389
32624W        W 5049  27.477  19.805  12.511
32625W        W 5050  25.552   8.915   4.683
32626W        W 5051  12.379  36.919   3.286
32627W        W 5052  19.633  13.220   1.945
32628W        W 5053  24.625  34.062   2.701
32629W        W 5054  16.677  30.200  11.031
32630W        W 5055  20.501  29.168  13.854
32631W        W 5056   5.149  38.068  13.033
32632W        W 5057   4.459  23.332   2.719
32633W        W 5058  39.620   9.463  14.690
32634W        W 5059   8.339  37.016   4.830
32635W        W 5060  31.949   6.280   2.910
32636W        W 5061   2.000  16.692   3.155
32637W        W 5062  18.116  30.440   2.019
32638W        W 5063   3.123   8.258   0.869
32639W        W 5064  41.380   9.475   4.206
32640W        W 5065  15.262   6.708   2.594
32641W        W 5066   4.302  22.151   1.401
32642W        W 5067  40.441  26.139  10.787
32643W        W 5068  16.860  43.928   3.732
32644W        W 5069  39.852  31.444   1.245
32645W        W 5070  26.138  22.691  13.141
32646W        W 5071  23.640  36.957   3.606
32647W        W 5072  35.426   4.488   3.195
32648W        W 5073  28.986  14.342  14.138
32649W        W 5074  35.104  20.090   0.298
32650W        W 5075   7.278  13.977  13.530
32651W        W 5076   9.762  12.706   4.607
32652W        W 5077  43.353  38.869   3.295
32653W        W 5078  39.990   7.583  13.344
32654W        W 5079   7.174  17.597  13.528
32655W        W 5080  30.069  30.249   3.865
32656W        W 5081  35.456  26.410   3.296
32657W        W 5082  32.870  25.488   4.984
32658W        W 5083   0.375  21.739  13.568
32659W        W 5084  42.499  38.542   2.772
32660W        W 5085  22.536  13.660  14.370
32661W        W 5086  31.018  32.684  11.700
32662W        W 5087  30.826  25.724  14.514
32663W        W 5088  29.946   0.967   4.075
32664W        W 5089  23.108  24.601  11.551
32665W        W 5090   9.362  20.570   4.258
32666W        W 5091  36.830  33.426   2.002
32667W        W 5092  42.899  13.783   3.984
32668W        W 5093   5.299  32.146   3.835
32669W        W 5094  40.892  35.619   2.393
32670W        W 5095  15.209   2.865   1.440
32671W        W 5096  32.557  42.444  14.301
32672W        W 5097  15.015  13.777  12.055
32673W        W 5098  36.108   8.290  14.467
32674W        W 5099  10.935   7.687   4.211
32675W        W 5100  19.246  23.805   4.167
32676W        W 5101   8.647   0.755  13.570
32677W        W 5102   6.622  28.946   3.987
32678W        W 5103   1.213  17.782   2.794
32679W        W 5104   9.004  16.793  12.857
32680W        W 5105  11.791   0.983   1.366
32681W        W 5106  17.240   7.960  11.149
32682W        W 5107  33.145   8.587   0.760
32683W        W 5108  32.651   2.516   3.704
32684W        W 5109  41.302  42.245  11.092
32685W        W 5110   9.342  31.743  10.806
32686W        W 5111  20.707  27.900   2.891
32687W        W 5112  44.036   8.332  13.201
32688W        W 5113  38.774  25.251  13.437
32689W        W 5114  31.343   9.379  12.668
32690W        W 5115  15.588   2.306  13.968
32691W        W 5116  26.233  31.720   4.694
32692W        W 5117  41.044  41.851  12.957
32693W        W 5118  10.938  22.508  13.482
32694W        W 5119  21.678   8.801   1.310
32695W        W 5120  32.238  42.044   0.849
32696W        W 5121   4.413   3.306  12.979
32697W        W 5122  18.722  30.943  11.541
32698W        W 5123   9.100   3.732   3.250
32699W        W 5124  30.546  35.075   5.114
32700W        W 5125   7.711  12.898   0.359
32701W        W 5126  23.614   0.938  13.074
32702W        W 5127  41.982   6.389   3.398
32703W        W 5128  34.510   1.718   2.541
32704W        W 5129   0.286  23.386  13.965
32705W        W 5130   5.932  12.775  14.990
32706W        W 5131  25.205  23.049   3.526
32707W        W 5132  12.068  33.978   4.410
32708W        W 5133  35.072  35.843   1.192
32709W        W 5134  12.742  27.681   4.670
32710W        W 5135  18.259  30.654   3.000
32711W        W 5136  40.499  27.193  14.880
32712W        W 5137   4.753  32.575   4.730
32713W        W 5138  31.140   8.699   0.016
32714W        W 5139  18.226  39.298  14.394
32715W        W 5140  33.397   5.388   3.069
32716W        W 5141  18.367  33.170  12.579
32717W        W 5142  28.334  44.453   2.194
32718W        W 5143   0.087  36.986  13.846
32719W        W 5144  16.228  11.789   3.057
32720W        W 5145  22.282  41.429   3.661
32721W        W 5146  16.283   2.484   4.380
32722W        W 5147  28.948  43.223   0.738
32723W        W 5148   5.321  12.635   1.768
32724W        W 5149  41.453  19.745   1.006
32725W        W 5150  29.196  36.554   1.395
32726W        W 5151   4.057   1.870  12.979
32727W        W 5152  18.164  16.726  12.885
32728W        W 5153  20.534  25.434   4.375
32729W        W 5154  39.406  33.310   1.275
32730W        W 5155  29.627  28.228  13.761
32731W        W 5156  41.813  14.728  10.695
32732W        W 5157   3.903   6.793   4.901
32733W        W 5158   7.698  37.097   4.581
32734W        W 5159  35.569  19.397  12.928
32735W        W 5160  21.130  29.466  13.108
32736W        W 5161   8.893   6.760  11.603
32737W        W 5162  18.996  14.713  14.521
32738W        W 5163  27.675  17.185  13.822
32739W        W 5164   3.098  11.789   4.057
32740W        W 5165  12.658  27.632   2.655
32741W        W 5166   2.647   8.252  12.525
32742W        W 5167  11.739  43.771  10.195
32743W        W 5168  21.135  17.208  10.582
32744W        W 5169   1.739   7.697  12.548
32745W        W 5170  38.581  28.529  11.182
32746W        W 5171  33.041  30.656   3.455
32747W        W 5172   4.565  18.399  12.343
32748W        W 5173  20.475   2.243   0.810
32749W        W 5174  19.267  42.901  12.571
32750W        W 5175   4.385  14.083   3.365
32751W        W 5176  10.346  28.472   3.918
32752W        W 5177  27.936  42.337   0.346
32753W        W 5178  23.658  29.655   1.488
32754W        W 5179  14.199  42.473   4.348
32755W        W 5180  35.136  14.761  10.797
32756W        W 5181  15.049  42.184   2.646
32757W        W 5182  41.328  41.905   3.146
32758W        W 5183  42.267  44.462  13.458
32759W        W 5184  17.819  37.422   2.130
32760W        W 5185  24.151  12.138  13.402
32761W        W 5186  16.129  24.327  13.346
32762W        W 5187  39.348   5.489   0.428
32763W        W 5188  30.164  18.173   5.013
32764W        W 5189  29.045  25.381   3.182
32765W        W 5190   4.473  16.853  11.508
32766W        W 5191  26.147  27.659   3.353
32767W        W 5192  35.525  13.938   2.693
32768W        W 5193   9.352   3.317   0.606
32769W        W 5194  29.489  29.866   4.908
32770W        W 5195   2.445  19.254   3.283
32771W        W 5196  43.008  10.600  14.944
32772W        W 5197  20.737  11.141  12.001
32773W        W 5198  17.671  29.915  11.183
32774W        W 5199  40.944  21.281   0.337
32775W        W 5200  42.380   4.503  12.867
32776W        W 5201  20.629  30.078   2.919
32777W        W 5202  41.907  22.913   1.420
32778W        W 5203  25.576  22.202   1.851
32779W        W 5204  42.072  37.435  11.596
32780W        W 5205  10.432   0.050  14.187
32781W        W 5206  23.742  36.634  14.069
32782W        W 5207  42.824  25.541  14.462
32783W        W 5208  32.372  15.634   2.431
32784W        W 5209  43.275  26.551   1.425
32785W        W 5210  44.957  10.688  13.874
32786W        W 5211  26.747  30.917   1.173
32787W        W 5212  37.364  40.239  12.119
32788W        W 5213  29.699  40.591   0.300
32789W        W 5214  37.684  15.200  13.531
32790W        W 5215  23.399  20.689  11.842
32791W        W 5216  37.830  36.784   2.292
32792W        W 5217  41.526  13.764   4.680
32793W        W 5218  33.472   5.248  12.484
32794W        W 5219  28.366  39.084  14.976
32795W        W 5220  28.761  23.558  10.901
32796W        W 5221   5.854  22.151  13.924
32797W        W 5222  12.809  41.236  13.507
32798W        W 5223  27.290  26.029   1.749
32799W        W 5224   8.140  44.368   3.282
32800W        W 5225  10.876   6.767   2.172
32801W        W 5226  37.346  14.209  13.519
32802W        W 5227   1.534  16.097   0.902
32803W        W 5228  25.941   3.873   2.356
32804W        W 5229  20.122  12.263  13.737
32805W        W 5230  13.149   5.771  11.759
32806W        W 5231   4.248  14.153  13.812
32807W        W 5232  15.993   5.216  13.918
32808W        W 5233   6.535  32.075   3.714
32809W        W 5234  43.353  11.864  13.443
32810W        W 5235  11.892  15.115  12.439
32811W        W 5236   5.075  21.129   1.489
32812W        W 5237  27.376   8.451  11.193
32813W        W 5238  40.738  44.952  13.752
32814W        W 5239  40.876   8.428  14.894
32815W        W 5240  11.327  36.171  14.590
32816W        W 5241  38.893  19.053   2.430
32817W        W 5242  36.995  16.666   3.266
32818W        W 5243   3.773  13.553   0.734
32819W        W 5244  28.057   2.269   3.650
32820W        W 5245  35.942   0.851   0.151
32821W        W 5246   9.065  41.713   4.114
32822W        W 5247  34.008  17.609   3.751
32823W        W 5248  17.024  41.879  11.250
32824W        W 5249  12.251  20.624   1.251
32825W        W 5250  39.975   0.447   2.344
32826W        W 5251  19.262  27.670   3.702
32827W        W 5252   9.842  35.056  14.459
32828W        W 5253  30.462  26.670  10.739
32829W        W 5254  33.863   3.687   4.268
32830W        W 5255   5.022   2.944  14.546
32831W        W 5256  14.333  23.122  11.958
32832W        W 5257  38.887  33.279   2.142
32833W        W 5258   7.471   3.296  13.078
32834W        W 5259   4.252  20.781   4.109
32835W        W 5260  32.920  12.178  12.622
32836W        W 5261  28.451  28.753  14.538
32837W        W 5262  20.622  43.972   3.182
32838W        W 5263  42.974  32.474   1.718
32839W        W 5264   3.002  20.125  11.670
32840W        W 5265   3.189  35.087  13.195
32841W        W 5266  42.611   4.070   1.475
32842W        W 5267  41.123  24.186  12.396
32843W        W 5268  27.530  37.153  10.465
32844W        W 5269  37.076  27.962  12.498
32845W        W 5270  19.471  30.286  13.036
32846W        W 5271  41.909  27.565  11.770
32847W        W 5272   9.449  25.701   0.814
32848W        W 5273  12.345   3.823  14.320
32849W        W 5274  36.962   1.933  14.549
32850W        W 5275  23.008   1.382   0.264
32851W        W 5276  31.978  25.962  11.709
32852W        W 5277  36.516  17.121  11.536
32853W        W 5278  35.166  44.221   1.029
32854W        W 5279  21.723  11.849  12.494
32855W        W 5280  11.907  42.032  13.373
32856W        W 5281  27.079   3.378   3.622
32857W        W 5282  12.714  13.882   2.397
32858W        W 5283  36.614   2.892  11.116
32859W        W 5284  36.155  35.390  14.902
32860W        W 5285  14.350  38.204  11.681
32861W        W 5286  11.617  21.195  11.209
32862W        W 5287   7.306  19.246   0.440
32863W        W 5288  40.801  18.239  10.732
32864W        W 5289  35.969  11.332  14.759
32865W        W 5290   1.192  33.930   2.302
32866W        W 5291  29.843   4.173   1.694
32867W        W 5292   2.500  41.338  11.178
32868W        W 5293  40.246  11.184  11.464
32869W        W 5294  17.774  20.043   1.748
32870W        W 5295  37.451  10.182  13.300
32871W        W 5296  26.028  23.190  11.971
32872W        W 5297  13.017   0.197  12.392
32873W        W 5298  41.080  33.957  12.887
32874W        W 5299  34.485  16.677   0.055
32875W        W 5300  32.414   6.771  13.510
32876W        W 5301  19.318   8.232  12.443
32877W        W 5302  22.590  24.987  12.078
32878W        W 5303  26.136  44.047  12.351
32879W        W 5304  19.794  31.075  12.698
32880W        W 5305  12.934  44.721   0.257
32881W        W 5306   8.141  29.525  12.360
32882W        W 5307  20.064   7.205   1.015
32883W        W 5308  34.429  16.210   2.220
32884W        W 5309  10.067  42.013  13.917
32885W        W 5310   3.212   8.773   0.815
32886W        W 5311  23.127  23.682  14.076
32887W        W 5312  41.844  39.647  13.091
32888W        W 5313  15.821  42.367   2.376
32889W        W 5314  14.807  34.490  11.402
32890W        W 5315   9.867  21.762   1.270
32891W        W 5316  13.885  10.181   1.376
32892W        W 5317  38.397  27.463   1.218
32893W        W 5318  44.977  36.063   3.166
32894W        W 5319   5.780   6.184   0.783
32895W        W 5320  31.586   7.233   1.830
32896W        W 5321  23.007  12.846  10.391
32897W        W 5322  30.387  39.001  12.002
32898W        W 5323   9.302   1.925  10.527
32899W        W 5324  25.049  12.371   3.228
32900W        W 5325  33.793  15.205   2.427
32901W        W 5326  41.008  34.380  13.235
32902W        W 5327  34.996  12.133   2.755
32903W        W 5328  11.896   7.694  14.529
32904W        W 5329  22.619  35.551   0.346
32905W        W 5330   2.432  16.239  10.994
32906W        W 5331  27.233  12.770  12.952
32907W        W 5332  29.870  37.023  12.368
32908W        W 5333  39.103  43.513  10.538
32909W        W 5334   7.259  24.464  12.530
32910W        W 5335  31.028  10.117   2.473
32911W        W 5336   8.484  27.509  12.130
32912W        W 5337  27.526  35.461   1.881
32913W        W 5338  20.409  12.817  13.618
32914W        W 5339   4.181  20.649  13.945
32915W        W 5340  36.997   4.908   4.488
32916W        W 5341  10.655  39.979   1.807
32917W        W 5342  33.788   3.235  11.164
32918W        W 5343  29.451  21.124  13.637
32919W        W 5344  43.296  22.826  14.323
32920W        W 5345  40.376  17.866  13.146
32921W        W 5346  19.122  36.860   0.448
32922W        W 5347   2.738  20.150   1.690
32923W        W 5348  37.594  35.514  11.098
32924W        W 5349  36.610  20.149   0.325
32925W        W 5350   3.736  31.610   0.778
32926W        W 5351  15.147  15.710  11.618
32927W        W 5352  44.385  44.366  14.889
32928W        W 5353  16.979  22.011  11.008
32929W        W 5354  27.399  35.532  12.940
32930W        W 5355  17.063  38.606   1.040
32931W        W 5356   7.268  12.732   2.357
32932W        W 5357  13.952  33.713  10.511
32933W        W 5358  18.069  37.070  13.049
32934W        W 5359  36.516  33.310   0.283
32935W        W 5360  30.690  11.653  14.759
32936W        W 5361   2.957   6.902  11.099
32937W        W 5362   1.764   3.412  11.726
32938W        W 5363   9.360  24.155   0.521
32939W        W 5364  27.712  15.512   3.717
32940W        W 5365  29.675   4.752  13.468
32941W        W 5366  25.536  44.307   3.283
32942W        W 5367  36.933  22.190  12.581
32943W        W 5368  22.947  25.403  12.905
32944W        W 5369  30.090  10.708   3.800
32945W        W 5370  28.534  41.497  13.758
32946W        W 5371  22.012  21.103   0.789
32947W        W 5372  15.872   5.353  11.231
32948W        W 5373  16.857  28.564  13.300
32949W        W 5374  43.661   3.285  14.389
32950W        W 5375  26.716  37.086  11.495
32951W        W 5376  23.251  31.825   4.625
32952W        W 5377  28.387  19.701  10.737
32953W        W 5378  38.268   1.770  11.091
32954W        W 5379  21.249   0.407   1.771
32955W        W 5380  44.967   6.788  12.405
32956W        W 5381   6.092  35.553  11.216
32957W        W 5382  35.019  10.851  13.599
32958W        W 5383  25.873  22.056   1.418
32959W        W 5384  14.109  38.793   3.866
32960W        W 5385  35.983   5.556  11.486
32961W        W 5386   2.388  41.206   2.717
32962W        W 5387  27.936  36.820   3.345
32963W        W 5388   6.208  35.744  13.536
32964W        W 5389  41.041  15.625  13.671
32965W        W 5390  41.852   3.727   3.855
32966W        W 5391  20.943  44.785   3.171
32967W        W 5392  38.766  32.169   4.636
32968W        W 5393   5.874  13.637  13.807
32969W        W 5394  39.305  22.305   1.898
32970W        W 5395   0.869  41.121   3.687
32971W        W 5396  18.081  12.186  12.818
32972W        W 5397  11.782  41.193   9.887
32973W        W 5398  40.341   6.265   2.288
32974W        W 5399  11.593  18.619   2.801
32975W        W 5400  35.149   6.416  13.879
32976W        W 5401  34.080  24.626  14.942
32977W        W 5402   5.161  17.265  12.879
32978W        W 5403  29.587  32.078  11.496
32979W        W 5404  15.190   5.132  14.291
32980W        W 5405  16.713   9.493   3.167
32981W        W 5406  16.871  24.815  11.186
32982W        W 5407   1.969  42.392  14.533
32983W        W 5408  28.127  11.063   4.799
32984W        W 5409  10.315   4.306  11.086
32985W        W 5410  37.359  23.592  12.867
32986W        W 5411  17.153  16.337  11.104
32987W        W 5412  38.930  17.061   1.147
32988W        W 5413   5.868   2.478  12.601
32989W        W 5414  36.148   4.634  14.831
32990W        W 5415  35.257   4.836   2.287
32991W        W 5416   7.237  42.796   2.224
32992W        W 5417  36.024  22.700   1.907
32993W        W 5418  43.311  38.349   0.419
32994W        W 5419   3.300  13.427  13.056
32995W        W 5420  19.707  37.448   1.017
32996W        W 5421  30.953  24.665  13.711
32997W        W 5422   6.123  17.096  11.178
32998W        W 5423   0.406  30.239   1.807
32999W        W 5424  38.773  16.152   4.134
33000W        W 5425  30.102  30.513  14.525
33001W        W 5426  24.086  31.883   9.914
33002W        W 5427  13.169  34.528   3.856
33003W        W 5428  14.645  25.118  10.909
33004W        W 5429  12.555  32.720  11.604
33005W        W 5430  22.187  17.830  11.156
33006W        W 5431  15.695  35.050   2.617
33007W        W 5432   8.047   0.969   3.546
33008W        W 5433  24.104   7.621   1.797
33009W        W 5434  29.500  35.978   5.103
33010W        W 5435  24.765  15.762  10.521
33011W        W 5436  26.912  30.749  14.987
33012W        W 5437  12.388  14.320  14.020
33013W        W 5438  41.345  43.534   1.500
33014W        W 5439  14.897  44.014  12.406
33015W        W 5440   3.917   6.619  10.673
33016W        W 5441  39.440  22.682   4.893
33017W        W 5442  13.008  20.537  13.332
33018W        W 5443   4.471  32.438   4.273
33019W        W 5444  26.390   8.138  11.176
33020W        W 5445  27.729  20.782  12.522
33021W        W 5446   6.794   4.426   3.663
33022W        W 5447  26.587  41.460  13.562
33023W        W 5448  26.539   0.951  12.055
33024W        W 5449  17.369  15.810   4.025
33025W        W 5450  14.303  40.252   3.043
33026W        W 5451  13.691  19.644   3.207
33027W        W 5452  12.160  11.973   1.221
33028W        W 5453  14.663  24.962   4.418
33029W        W 5454  10.491  15.188   0.511
33030W        W 5455  36.865  24.602   3.196
33031W        W 5456   7.577  26.798  11.532
33032W        W 5457  13.234  20.297   0.138
33033W        W 5458  30.152  32.654   0.260
33034W        W 5459  21.073  43.284  12.856
33035W        W 5460  20.825  34.532  10.534
33036W        W 5461  37.900  20.112   4.612
33037W        W 5462  30.100  31.252   3.784
33038W        W 5463  22.206  27.452   4.260
33039W        W 5464  23.211  32.900   2.227
33040W        W 5465  29.046  14.098   4.118
33041W        W 5466  11.813  15.179  14.798
33042W        W 5467   2.174  34.083   2.549
33043W        W 5468  32.572  39.155  12.475
33044W        W 5469  12.234  26.653   0.536
33045W        W 5470   1.155  15.935   3.833
33046W        W 5471  20.239   0.418   0.871
33047W        W 5472  13.737  36.531   3.683
33048W        W 5473   5.469  43.798   0.802
33049W        W 5474  37.896  41.103  10.247
33050W        W 5475   8.167  29.437  14.406
33051W        W 5476  37.497  18.619   1.785
33052W        W 5477   2.829  31.666   4.642
33053W        W 5478   6.272  37.957  12.435
33054W        W 5479   1.814   2.429  12.833
33055W        W 5480  13.713  16.101  11.542
33056W        W 5481   9.011  26.272  12.580
33057W        W 5482  39.128  31.508  13.144
33058W        W 5483  34.590  11.172  13.735
33059W        W 5484   1.760   9.162  11.573
33060W        W 5485  16.393  17.715   1.795
33061W        W 5486  21.257   7.259  10.669
33062W        W 5487  10.879  38.786  11.004
33063W        W 5488  18.962  22.481   4.671
33064W        W 5489  10.753  34.125   0.937
33065W        W 5490  40.822  39.222  13.488
33066W        W 5491   5.726  13.918   3.269
33067W        W 5492  19.217  38.893   2.379
33068W        W 5493  16.199  32.558   1.791
33069W        W 5494   0.720  20.096   1.795
33070W        W 5495  14.513  23.016   2.898
33071W        W 5496  24.901  40.396  12.509
33072W        W 5497  28.098   7.673   4.626
33073W        W 5498   6.767  37.831  12.372
33074W        W 5499   8.376  31.665  10.765
33075W        W 5500  27.278   2.568   3.743
33076W        W 5501  28.340  24.157  14.452
33077W        W 5502  14.757  40.403   1.276
33078W        W 5503  37.771  31.367   3.742
33079W        W 5504  13.847  35.860   4.958
33080W        W 5505  39.289  17.874  11.945
33081W        W 5506  15.104  18.225   1.401
33082W        W 5507  11.711  10.775  14.096
33083W        W 5508  31.575  41.578  14.273
33084W        W 5509  31.519   1.668   4.676
33085W        W 5510   9.948  18.234   0.226
33086W        W 5511   9.161  39.238   3.172
33087W        W 5512  35.390  33.593   4.259
33088W        W 5513  27.612   1.572   0.218
33089W        W 5514  39.510   6.719  14.659
33090W        W 5515  11.090   6.800   3.687
33091W        W 5516  23.352  30.918   4.032
33092W        W 5517  10.785  15.092   1.761
33093W        W 5518  33.820   3.233   3.689
33094W        W 5519  32.373  42.024   1.661
33095W        W 5520  16.138   5.541  14.407
33096W        W 5521  27.578  27.978  12.505
33097W        W 5522  26.693  37.926   3.190
33098W        W 5523   4.976  33.590   1.782
33099W        W 5524  18.584  12.451  13.461
33100W        W 5525   0.690  44.653  12.608
33101W        W 5526   7.579  42.924  14.185
33102W        W 5527   2.238  28.745   3.363
33103W        W 5528   9.874   9.401   1.794
33104W        W 5529   9.826  18.733  14.547
33105W        W 5530   6.852  20.281  11.979
33106W        W 5531   2.977   7.215   0.217
33107W        W 5532  29.140  15.271  13.756
33108W        W 5533   3.219  15.289   3.696
33109W        W 5534   6.702  41.222  12.432
33110W        W 5535  22.089   7.744   4.506
33111W        W 5536  23.833  12.282  11.168
33112W        W 5537  33.711  39.559   2.737
33113W        W 5538  34.294  33.971   4.660
33114W        W 5539  13.430  19.549   0.625
33115W        W 5540  12.765  26.562   4.106
33116W        W 5541  27.410  32.405   1.364
33117W        W 5542  15.158  10.097   4.125
33118W        W 5543  36.047  34.860  14.471
33119W        W 5544  23.518  41.925   2.729
33120W        W 5545  21.994  17.129  13.292
33121W        W 5546  43.771  25.303   2.791
33122W        W 5547   7.078  16.889  12.109
33123W        W 5548  20.265   6.670  14.352
33124W        W 5549   2.399  26.758   1.932
33125W        W 5550   8.078  22.003   3.915
33126W        W 5551   3.518  34.864  12.852
33127W        W 5552  23.929  15.037  11.578
33128W        W 5553  35.189  38.455   1.765
33129W        W 5554   7.404  42.785  12.002
33130W        W 5555   9.443   8.162  14.368
33131W        W 5556  18.522  27.675   2.312
33132W        W 5557  33.980  36.940  14.899
33133W        W 5558  12.368  30.608  14.882
33134W        W 5559  22.689  29.161  12.108
33135W        W 5560  10.734  18.074  10.545
33136W        W 5561  12.207  12.467   1.100
33137W        W 5562  20.347  40.331  14.996
33138W        W 5563  30.090  30.594   1.349
33139W        W 5564  31.121  39.348   0.494
33140W        W 5565  20.095   9.970   2.418
33141W        W 5566  17.948   0.590   0.453
33142W        W 5567  40.414  44.958   1.678
33143W        W 5568  31.172  32.188   5.050
33144W        W 5569   9.565   2.125   0.248
33145W        W 5570   8.431   9.998   3.189
33146W        W 5571  16.811  35.772  13.821
33147W        W 5572  20.558   3.300   4.145
33148W        W 5573  43.298  43.388  12.990
33149W        W 5574   0.903  21.250  12.427
33150W        W 5575  17.422   6.775   2.569
33151W        W 5576  12.293  37.747  11.159
33152W        W 5577  39.402  18.310  11.151
33153W        W 5578   3.518  12.249  11.541
33154W        W 5579  35.488  36.519   0.427
33155W        W 5580  40.983  26.447   3.725
33156W        W 5581   4.226  39.033  14.402
33157W        W 5582   3.962   1.712   3.164
33158W        W 5583  39.466   2.750   2.435
33159W        W 5584  13.681  39.406  10.558
33160W        W 5585  12.810  20.642  14.321
33161W        W 5586   5.191  35.109   0.981
33162W        W 5587  24.964  11.496   1.168
33163W        W 5588  44.665  26.973   1.294
33164W        W 5589  42.194   0.776   3.224
33165W        W 5590  41.546  19.730  13.436
33166W        W 5591  18.640  17.725   3.872
33167W        W 5592  25.575  37.521  14.624
33168W        W 5593  36.914  24.452   1.293
33169W        W 5594  39.983  14.113  13.344
33170W        W 5595  32.392  19.102   1.605
33171W        W 5596  31.599   6.147  10.668
33172W        W 5597  15.774   8.211   3.947
33173W        W 5598  17.618  41.848   1.467
33174W        W 5599   3.415  29.600   1.397
33175W        W 5600  30.542  28.568  12.941
33176W        W 5601  11.786   5.814   2.906
33177W        W 5602  38.349  40.303   2.375
33178W        W 5603  20.995  35.859   3.554
33179W        W 5604  30.425  38.602  11.062
33180W        W 5605   5.476  20.533   2.595
33181W        W 5606  38.023  44.284  13.049
33182W        W 5607   2.452   7.128  11.571
33183W        W 5608  17.289  40.318  13.365
33184W        W 5609  37.433   7.322  13.826
33185W        W 5610   9.638  30.964  13.582
33186W        W 5611  17.737  18.641  12.996
33187W        W 5612  32.130  14.372  11.308
33188W        W 5613   6.092  12.079   0.778
33189W        W 5614  44.138   1.871  14.372
33190W        W 5615  22.237  37.497   1.625
33191W        W 5616   9.391  39.502   2.784
33192W        W 5617  38.353  43.884  14.286
33193W        W 5618  29.920   8.276   3.632
33194W        W 5619  33.408   8.185  10.596
33195W        W 5620  24.629  11.853   1.352
33196W        W 5621   6.155   4.877  12.448
33197W        W 5622  16.526   4.002   0.906
33198W        W 5623  41.321  40.466  11.635
33199W        W 5624  42.279  30.101   0.047
33200W        W 5625  38.130  26.462  10.812
33201W        W 5626   6.735   3.227   2.774
33202W        W 5627   0.953  27.050   0.239
33203W        W 5628  34.983  35.449  10.622
33204W        W 5629  34.660  13.639   1.956
33205W        W 5630   9.564  27.111  13.949
33206W        W 5631  11.370  24.114   1.751
33207W        W 5632  11.414  44.573   2.678
33208W        W 5633  20.106  27.004   2.164
33209W        W 5634  40.208  18.361   2.339
33210W        W 5635  15.306  28.122  10.649
33211W        W 5636  17.161  30.985  10.106
33212W        W 5637  26.570  38.895   1.886
33213W        W 5638  41.083   0.449  10.690
33214W        W 5639  32.058  42.061   4.678
33215W        W 5640  11.420   5.336  12.029
33216W        W 5641  23.108   3.369   0.996
33217W        W 5642  41.970  21.067   1.888
33218W        W 5643  24.175  22.062  14.569
33219W        W 5644  21.482  31.989   4.319
33220W        W 5645   6.815  21.653   4.168
33221W        W 5646  42.966  41.642   2.940
33222W        W 5647   5.012  20.260   4.145
33223W        W 5648   8.537  24.204  12.083
33224W        W 5649  36.640   2.292  13.120
33225W        W 5650   5.884   7.337   3.927
33226W        W 5651   0.170  15.096  14.264
33227W        W 5652   1.208  34.086   0.934
33228W        W 5653  24.292  40.403  13.043
33229W        W 5654  43.738  15.203   1.596
33230W        W 5655  19.020  22.515   2.426
33231W        W 5656  35.414  14.172  10.856
33232W        W 5657  27.577  43.907  13.929
33233W        W 5658  24.104  44.503   1.541
33234W        W 5659  37.364  34.092   1.974
33235W        W 5660  21.828   4.176   1.410
33236W        W 5661  43.373  14.149  11.161
33237W        W 5662  44.393  29.244   2.216
33238W        W 5663  19.836   5.271  11.887
33239W        W 5664  37.493  23.705   2.879
33240W        W 5665  26.775   6.771   0.370
33241W        W 5666   5.478  35.046  13.580
33242W        W 5667   1.822  30.918   1.743
33243W        W 5668   9.787  30.106  12.005
33244W        W 5669  27.729  42.750  11.506
33245W        W 5670  36.361   6.287   2.672
33246W        W 5671   9.220   4.839   1.359
33247W        W 5672  18.992  31.334   4.251
33248W        W 5673  22.181  43.213   3.759
33249W        W 5674  44.347  31.394   0.347
33250W        W 5675  39.940   8.281   2.532
33251W        W 5676  21.279  36.121   3.236
33252W        W 5677  15.164  21.732   4.654
33253W        W 5678   7.682  23.049  14.031
33254W        W 5679   3.052  32.034   0.478
33255W        W 5680  26.190   9.108  12.823
33256W        W 5681  41.171  42.975   0.778
33257W        W 5682  17.309  22.877   3.886
33258W        W 5683   3.247  26.449   1.859
33259W        W 5684  12.089  28.628   0.733
33260W        W 5685   3.805  12.621  13.748
33261W        W 5686  36.168  14.523   2.441
33262W        W 5687  22.253  14.540  12.975
33263W        W 5688  44.847  21.170   4.399
33264W        W 5689  12.844  30.038  14.367
33265W        W 5690  31.916  28.956   4.300
33266W        W 5691  29.410  13.901  10.392
33267W        W 5692  16.918   3.164  10.114
33268W        W 5693   2.483  19.538  11.138
33269W        W 5694  32.564  34.533   1.443
33270W        W 5695  35.949  17.191   0.099
33271W        W 5696  14.858   6.663   1.213
33272W        W 5697   5.314   1.876   1.847
33273W        W 5698  31.447  39.898   4.067
33274W        W 5699  10.142  36.008  11.488
33275W        W 5700  13.703  13.548   1.538
33276W        W 5701   6.182  41.517  11.370
33277W        W 5702  40.076  28.112   3.391
33278W        W 5703  18.336  44.738   0.777
33279W        W 5704  40.938  36.424  12.477
33280W        W 5705  11.232  35.686  10.974
33281W        W 5706  42.538  21.169  11.412
33282W        W 5707  39.098  27.982  11.455
33283W        W 5708  22.255  21.259  14.812
33284W        W 5709   1.490  35.156   2.812
33285W        W 5710  10.379  33.870   2.133
33286W        W 5711  22.749   6.443   4.759
33287W        W 5712  18.175   6.419   3.423
33288W        W 5713  43.913  23.832  10.591
33289W        W 5714   5.468   8.387  12.093
33290W        W 5715  18.291   0.725   3.795
33291W        W 5716  40.003  38.117   3.898
33292W        W 5717  24.447  36.130   2.604
33293W        W 5718   5.439   3.965  13.421
33294W        W 5719  29.826  29.015  14.450
33295W        W 5720   1.285   3.351   0.666
33296W        W 5721   2.247   0.111   2.325
33297W        W 5722  15.570   0.306   2.399
33298W        W 5723  37.625  26.132  14.443
33299W        W 5724  36.218  31.100   4.117
33300W        W 5725  25.968  36.435   1.705
33301W        W 5726  10.688  28.197   1.871
33302W        W 5727   7.670  40.871   4.468
33303W        W 5728   0.412  16.696  13.404
33304W        W 5729  11.056  21.229   1.234
33305W        W 5730  41.039  44.409  14.099
33306W        W 5731  44.451  25.696   3.284
33307W        W 5732  11.463  22.950   0.528
33308W        W 5733   7.319  41.676  13.903
33309W        W 5734  20.334  19.127   4.111
33310W        W 5735  40.117   4.449  14.334
33311W        W 5736  20.998  27.511   3.305
33312W        W 5737  31.623  26.452  14.816
33313W        W 5738  29.694  41.997   3.647
33314W        W 5739  38.498  23.994   1.724
33315W        W 5740  42.205  17.255   1.373
33316W        W 5741  37.461  28.451   2.292
33317W        W 5742  41.105  33.289   3.345
33318W        W 5743  19.301  44.943  11.518
33319W        W 5744  31.946  29.630   3.869
33320W        W 5745   1.373  22.067  13.157
33321W        W 5746   3.344  29.061   1.449
33322W        W 5747  41.269  34.622  14.199
33323W        W 5748   5.504   7.645  13.477
33324W        W 5749  41.371  22.233  13.595
33325W        W 5750  33.065  16.538  10.590
33326W        W 5751  25.635  10.217  11.071
33327W        W 5752  25.121  16.761  14.880
33328W        W 5753  11.440  10.074   1.458
33329W        W 5754  19.923  19.624  10.764
33330W        W 5755   9.136  25.467   1.291
33331W        W 5756  34.603  15.075  10.683
33332W        W 5757  43.597  12.259  14.816
33333W        W 5758   3.224  17.869   3.729
33334W        W 5759  35.834  29.192  14.385
33335W        W 5760  11.560  33.467  13.220
33336W        W 5761  11.775  11.062   2.436
33337W        W 5762  18.069  34.212   4.220
33338W        W 5763  27.900  42.797  12.455
33339W        W 5764   3.342   1.141  10.491
33340W        W 5765  11.359  27.524   3.423
33341W        W 5766  29.053  34.092  13.110
33342W        W 5767  41.774  21.595   4.909
33343W        W 5768   1.272  18.840  14.562
33344W        W 5769  40.315  35.028  12.950
33345W        W 5770   7.647  31.887  13.952
33346W        W 5771  42.084   5.439  14.856
33347W        W 5772  16.810   2.853   5.140
33348W        W 5773  36.480  24.005   1.947
33349W        W 5774  25.827  24.260  11.425
33350W        W 5775  42.036   4.369   4.654
33351W        W 5776   4.420  44.028   2.346
33352W        W 5777  44.253  38.932   1.347
33353W        W 5778  44.219  34.631   0.292
33354W        W 5779  18.151  14.021  13.859
33355W        W 5780  41.453   9.862   4.528
33356W        W 5781  34.876  28.546  12.368
33357W        W 5782   8.418  36.813  13.931
33358W        W 5783  17.047  25.150   2.759
33359W        W 5784  26.057   2.305  14.644
33360W        W 5785  39.084  23.998   0.839
33361W        W 5786  17.270   4.695  13.751
33362W        W 5787   8.206  18.117  11.476
33363W        W 5788  15.351   9.819  11.993
33364W        W 5789  17.047  14.327   4.120
33365W        W 5790   7.498  43.731   2.310
33366W        W 5791  40.006  28.263  11.158
33367W        W 5792  38.997  37.175  12.053
33368W        W 5793  16.381  12.180   0.355
33369W        W 5794  28.044  30.754   0.895
33370W        W 5795  34.449  35.545  10.312
33371W        W 5796  37.424  35.008  11.170
33372W        W 5797  15.863  14.296  14.052
33373W        W 5798   0.470  21.048   0.752
33374W        W 5799  43.281  12.296   2.811
33375W        W 5800  15.243  26.321   1.491
33376W        W 5801  26.671  28.398  14.676
33377W        W 5802   3.155  21.254   4.207
33378W        W 5803   2.687  44.474  13.457
33379W        W 5804  14.572   7.330   3.648
33380W        W 5805  16.081  40.399   2.763
33381W        W 5806  19.413  35.806  13.442
33382W        W 5807  27.811  34.504   3.338
33383W        W 5808  21.282  41.011   2.275
33384W        W 5809  33.111  39.972   4.734
33385W        W 5810   3.953  21.677   4.125
33386W        W 5811  31.642  16.192   2.795
33387W        W 5812  22.697  16.203  13.796
33388W        W 5813   6.657  14.203   4.556
33389W        W 5814  30.733  24.583  11.110
33390W        W 5815  28.222  20.619  12.521
33391W        W 5816  41.352   0.498  12.998
33392W        W 5817   1.494  42.785   1.304
33393W        W 5818  12.695   5.404  14.997
33394W        W 5819   1.655  39.618  11.114
33395W        W 5820  40.715  19.209   3.828
33396W        W 5821  33.653   4.156  13.427
33397W        W 5822   4.642  28.492  10.514
33398W        W 5823  29.715   2.276  11.141
33399W        W 5824  10.277  40.867  11.385
33400W        W 5825  38.127  42.417   4.607
33401W        W 5826   9.695  24.465  11.515
33402W        W 5827  15.478  21.678  11.505
33403W        W 5828  18.990  13.963   0.330
33404W        W 5829  27.092  37.403   2.582
33405W        W 5830   5.217  11.594   1.789
33406W        W 5831   9.134  25.778  12.899
33407W        W 5832  44.407  35.100   0.188
33408W        W 5833  20.367  42.984  10.663
33409W        W 5834  35.617  25.648   4.564
33410W        W 5835  36.519  38.704   2.664
33411W        W 5836  37.389  17.378   4.579
33412W        W 5837  32.903  41.868  14.906
33413W        W 5838  20.595   6.786  13.962
33414W        W 5839  39.315  30.438  14.382
33415W        W 5840  32.705   1.911   0.296
33416W        W 5841   6.197  22.089   0.811
33417W        W 5842   3.217  41.453   3.223
33418W        W 5843   8.264   0.544   2.367
33419W        W 5844  10.323  17.175   1.150
33420W        W 5845  38.877  42.456   4.143
33421W        W 5846  41.231  26.954   0.527
33422W        W 5847  38.575  20.293  10.780
33423W        W 5848  41.433   1.583   0.927
33424W        W 5849  37.308  30.601  11.947
33425W        W 5850  44.400  16.299   4.222
33426W        W 5851  38.405  26.712   2.789
33427W        W 5852  19.909  21.702  10.260
33428W        W 5853  12.195   0.184  12.999
33429W        W 5854  30.302  18.537  11.014
33430W        W 5855   0.270  22.663  14.544
33431W        W 5856  28.890   7.373   1.712
33432W        W 5857  22.184  13.829   1.736
33433W        W 5858  42.719   3.275  13.249
33434W        W 5859  28.964  38.555  13.448
33435W        W 5860  15.641  38.790   3.929
33436W        W 5861  35.044  26.848   0.636
33437W        W 5862  16.969  40.437  12.954
33438W        W 5863   5.927  37.072   3.613
33439W        W 5864  25.502   1.463   0.881
33440W        W 5865  20.540  19.523   1.807
33441W        W 5866   6.938   1.232  14.500
33442W        W 5867   3.767  15.763  10.006
33443W        W 5868   7.765  13.634   2.444
33444W        W 5869  37.464  22.839  10.455
33445W        W 5870  25.825  32.450  10.983
33446W        W 5871  39.896   8.181  12.633
33447W        W 5872  41.534  24.158  11.560
33448W        W 5873  14.480  43.308   4.120
33449W        W 5874  11.744   5.897   4.366
33450W        W 5875  32.028  29.999  14.394
33451W        W 5876  22.545  26.596  14.526
33452W        W 5877   6.509  31.049  13.018
33453W        W 5878  39.410  20.205   1.215
33454W        W 5879  36.987   7.549  13.901
33455W        W 5880  44.531   6.840  14.301
33456W        W 5881  19.938  11.730   2.415
33457W        W 5882  38.109   9.178  12.853
33458W        W 5883  11.745  44.549  11.404
33459W        W 5884   9.206  12.793  11.124
33460W        W 5885   3.861   5.589   3.180
33461W        W 5886  11.115   9.662  11.959
33462W        W 5887  10.559  43.834   2.013
33463W        W 5888  18.679  12.140  11.673
33464W        W 5889  32.150  33.110  12.474
33465W        W 5890   3.894  13.378   3.646
33466W        W 5891  23.250  24.952   2.764
33467W        W 5892  44.439  17.198  12.814
33468W        W 5893   8.913   7.195   1.851
33469W        W 5894  32.970  19.571  12.621
33470W        W 5895  44.472  13.538   1.710
33471W        W 5896  44.267  34.360  10.272
33472W        W 5897  36.907  37.822   1.177
33473W        W 5898  13.123   0.789  13.806
33474W        W 5899  17.434  12.597  11.545
33475W        W 5900  27.607  22.414  14.786
33476W        W 5901  35.101  27.458   4.166
33477W        W 5902  34.595  17.742   1.732
33478W        W 5903   5.468  19.780   4.165
33479W        W 5904  40.089  26.572   2.381
33480W        W 5905  12.600  44.220   4.944
33481W        W 5906  31.069   9.541   3.661
33482W        W 5907  34.456  38.081  13.368
33483W        W 5908  11.173   5.373   4.341
33484W        W 5909  29.213   8.831   1.264
33485W        W 5910  31.596  24.203   0.240
33486W        W 5911   6.665  17.033  14.292
33487W        W 5912  32.528  24.076  13.474
33488W        W 5913  33.981  43.011   3.164
33489W        W 5914  30.976   2.957  10.612
33490W        W 5915   4.753  24.634   2.440
33491W        W 5916   3.969  14.244  14.235
33492W        W 5917   7.937  16.617   3.758
33493W        W 5918   5.373   8.254   4.353
33494W        W 5919  32.142  37.923  14.397
33495W        W 5920  34.530  24.430   9.983
33496W        W 5921  40.483  20.513  13.934
33497W        W 5922  24.082  44.441   1.025
33498W        W 5923  25.615  15.206   1.303
33499W        W 5924  30.211   4.750  13.409
33500W        W 5925  41.860  12.057   2.156
33501W        W 5926   0.911  10.918  10.908
33502W        W 5927   8.329  15.859   0.323
33503W        W 5928  29.714   0.301   1.986
33504W        W 5929  39.111  24.588  11.645
33505W        W 5930  23.949  12.588   1.643
33506W        W 5931   4.518  10.839   2.307
33507W        W 5932  23.528  33.026   2.667
33508W        W 5933  41.026  12.865   2.872
33509W        W 5934  35.320   5.496   0.477
33510W        W 5935  26.987  11.849  14.327
33511W        W 5936  17.509  32.517   2.234
33512W        W 5937  28.039  27.921   1.712
33513W        W 5938  17.271  42.427   0.538
33514W        W 5939  27.528  31.220   4.487
33515W        W 5940  10.465  28.737  10.903
33516W        W 5941  37.041   1.179  12.968
33517W        W 5942  33.423  42.105  12.637
33518W        W 5943  40.028  38.611   2.301
33519W        W 5944  14.835  42.093  12.407
33520W        W 5945   9.287  42.103  13.743
33521W        W 5946  41.930  43.502  10.554
33522W        W 5947   8.920  16.267  14.137
33523W        W 5948  27.489   8.891  13.515
33524W        W 5949  42.605  33.420  13.303
33525W        W 5950  27.973  11.156   1.403
33526W        W 5951  33.807  12.846  12.777
33527W        W 5952   6.665  35.633  11.914
33528W        W 5953  42.349   8.950   3.401
33529W        W 5954  28.439  19.875  12.438
33530W        W 5955  39.879  26.898  11.528
33531W        W 5956  42.377   3.692  11.967
33532W        W 5957   2.200   9.487  11.586
33533W        W 5958  42.872   9.100   1.420
33534W        W 5959  34.915  37.092   3.819
33535W        W 5960  25.308  16.721  12.503
33536W        W 5961  23.729   7.162   2.541
33537W        W 5962  37.979  12.936   1.334
33538W        W 5963  41.626  39.629  12.011
33539W        W 5964  17.268  39.074  11.990
33540W        W 5965  15.696  15.830  14.916
33541W        W 5966  11.730  37.093   4.116
33542W        W 5967  22.649  25.492  13.867
33543W        W 5968  25.784  10.809   4.954
33544W        W 5969  29.146  31.613   3.220
33545W        W 5970  12.084  14.321   0.759
33546W        W 5971  37.328  33.000   9.778
33547W        W 5972  21.118  29.325   0.355
33548W        W 5973  26.566  20.168   0.173
33549W        W 5974   2.036   4.399   4.215
33550W        W 5975  33.631  20.176   2.453
33551W        W 5976   8.985  36.446  12.935
33552W        W 5977  39.895   8.110   3.842
33553W        W 5978   7.634   2.279  14.366
33554W        W 5979  14.134  24.747  10.154
33555W        W 5980  30.089  16.102   1.138
33556W        W 5981  29.341  17.890   0.103
33557W        W 5982   2.258  34.519   3.252
33558W        W 5983   9.277  40.575   2.771
33559W        W 5984  24.769  28.441   4.385
33560W        W 5985  36.852  38.792  11.963
33561W        W 5986  34.415  17.841  13.400
33562W        W 5987  43.239  23.196   3.562
33563W        W 5988  36.551  14.502   2.781
33564W        W 5989  12.758  34.944   3.459
33565W        W 5990   4.353   1.321   4.790
33566W        W 5991  19.476  44.489   2.733
33567W        W 5992  29.006  35.934  14.609
33568W        W 5993  33.599  43.049  12.356
33569W        W 5994   5.450  24.726   4.146
33570W        W 5995  41.927   6.650  14.081
33571W        W 5996   6.267   8.841  10.861
33572W        W 5997  20.251   0.897  13.957
33573W        W 5998  40.617   0.027  10.090
33574W        W 5999  43.516  19.091   4.203
33575W        W 6000  28.969  26.707   2.327
33576W        W 6001  42.449  31.874   4.831
33577W        W 6002  31.025   2.307   3.258
33578W        W 6003  32.546  22.118  12.006
33579W        W 6004  44.999  28.802   3.685
33580W        W 6005  28.157  17.226   1.389
33581W        W 6006  36.448   9.656  11.184
33582W        W 6007  42.360  21.819   3.357
33583W        W 6008  39.150  14.300  11.715
33584W        W 6009   0.465  11.819   3.220
33585W        W 6010  18.561  15.092   4.376
33586W        W 6011   5.180  19.246   3.262
33587W        W 6012  34.889  37.138  12.561
33588W        W 6013   1.795  44.261  12.990
33589W        W 6014  38.945  23.764   4.609
33590W        W 6015  13.600   2.500  13.050
33591W        W 6016  20.967  37.013   0.017
33592W        W 6017   9.125   1.148  11.052
33593W        W 6018  10.745  25.022   0.012
33594W        W 6019  24.273  22.448   0.465
33595W        W 6020   9.040  41.428  11.635
33596W        W 6021   7.132  39.060   1.807
33597W        W 6022  15.628  42.318  12.868
33598W        W 6023   3.856  19.055   4.497
33599W        W 6024  21.525  14.201   3.164
33600W        W 6025  18.116  10.251  12.913
33601W        W 6026  36.987  16.609   0.516
33602W        W 6027  33.739  23.674  13.550
33603W        W 6028  17.094  40.039   4.530
33604W        W 6029  31.788  28.456   1.626
33605W        W 6030  34.445  41.868   2.914
33606W        W 6031  31.210   2.176   1.252
33607W        W 6032  35.887   2.891   0.242
33608W        W 6033  22.736   5.671   1.825
33609W        W 6034  30.610   1.458  14.200
33610W        W 6035   6.074  32.020   5.087
33611W        W 6036  27.907  44.874  13.430
33612W        W 6037   5.990   9.271   0.375
33613W        W 6038  32.593  14.321   1.250
33614W        W 6039  11.815  26.725   5.109
33615W        W 6040  27.463   9.339   1.391
33616W        W 6041  15.705  38.614   3.139
33617W        W 6042  10.320  38.717  10.857
33618W        W 6043  10.572   6.577  11.487
33619W        W 6044  19.548  35.963  13.924
33620W        W 6045  42.382  22.085  11.539
33621W        W 6046  13.795  36.438   1.674
33622W        W 6047   4.798  30.313   1.033
33623W        W 6048  42.385  33.200  13.723
33624W        W 6049   1.167   1.236   1.735
33625W        W 6050   9.222   6.180   4.141
33626W        W 6051  20.293  16.375  11.563
33627W        W 6052  10.948  44.842  11.948
33628W        W 6053   0.016  41.371  11.168
33629W        W 6054   4.348  24.840   2.748
33630W        W 6055   8.310  31.802  13.605
33631W        W 6056   4.331  31.510  12.419
33632W        W 6057   4.709  13.272   1.662
33633W        W 6058  36.314  33.654  11.108
33634W        W 6059   5.857  38.245   4.214
33635W        W 6060  25.517  16.684   1.940
33636W        W 6061  21.187  20.773  11.636
33637W        W 6062  38.868  31.474   1.749
33638W        W 6063  40.920  26.012  11.567
33639W        W 6064  39.149  34.101   4.142
33640W        W 6065  14.747  16.386   1.262
33641W        W 6066   8.764  17.575   1.225
33642W        W 6067  36.511   7.231   2.370
33643W        W 6068  24.237  13.048  11.702
33644W        W 6069  11.082  40.505   0.075
33645W        W 6070  37.468   7.439   1.980
33646W        W 6071  23.604   9.206   2.016
33647W        W 6072  18.742  34.586   4.633
33648W        W 6073  14.324  41.074   2.827
33649W        W 6074  39.836   5.651  13.771
33650W        W 6075   3.084  39.475   3.621
33651W        W 6076   3.519  16.867  11.420
33652W        W 6077  20.737  10.649   2.360
33653W        W 6078  34.337  13.385  12.343
33654W        W 6079  24.595  16.249  10.571
33655W        W 6080   7.411  44.299  13.559
33656W        W 6081  40.036  35.989  13.745
33657W        W 6082  32.635   4.966   3.361
33658W        W 6083  15.032   0.337   2.350
33659W        W 6084  12.212  43.745  11.624
33660W        W 6085  16.617  21.741  12.180
33661W        W 6086  38.953  42.103  12.852
33662W        W 6087   1.670  43.915   0.772
33663W        W 6088  37.530  40.933   3.046
33664W        W 6089  40.060  43.953  12.347
33665W        W 6090   4.336  21.622  12.378
33666W        W 6091   9.051  30.703  10.300
33667W        W 6092  27.685  44.854  12.950
33668W        W 6093  39.588  22.561  13.373
33669W        W 6094  37.033  39.632  14.251
33670W        W 6095   6.853  17.244   3.791
33671W        W 6096  21.526  28.312  10.453
33672W        W 6097  25.094  26.681  12.552
33673W        W 6098  31.590   4.890  12.357
33674W        W 6099  31.745   5.078   4.824
33675W        W 6100  38.794   9.360   3.243
33676W        W 6101  10.372  26.393  13.101
33677W        W 6102  39.766   7.634  14.789
33678W        W 6103  34.321  18.343  13.355
33679W        W 6104   4.398  11.981   4.516
33680W        W 6105  25.697  15.829   2.091
33681W        W 6106  37.082  12.546  12.527
33682W        W 6107  23.184  22.687  11.293
33683W        W 6108  30.601  27.566   3.607
33684W        W 6109  30.891   4.753  14.320
33685W        W 6110  30.842  38.112  11.847
33686W        W 6111  23.077   0.275   1.750
33687W        W 6112  10.630  12.830  12.025
33688W        W 6113  28.108  38.515   2.866
33689W        W 6114  13.567  38.428  14.333
33690W        W 6115  11.538  25.176  13.110
33691W        W 6116  44.754  44.832   0.970
33692W        W 6117  17.753  25.533   3.887
33693W        W 6118   2.239  31.587   4.044
33694W        W 6119   9.664  10.757   1.365
33695W        W 6120  18.860  27.971   4.534
33696W        W 6121  43.335   0.406   2.823
33697W        W 6122  10.220  22.348  10.177
33698W        W 6123  40.447   6.837  14.086
33699W        W 6124  16.279  14.287  13.033
33700W        W 6125  11.284  19.781  12.162
33701W        W 6126  16.238  23.556   0.733
33702W        W 6127   2.759  29.977  10.989
33703W        W 6128  13.792  30.587   1.190
33704W        W 6129  33.131  32.530   4.584
33705W        W 6130  39.396  28.760   0.477
33706W        W 6131   7.759  43.465   0.713
33707W        W 6132  40.529  25.612  11.503
33708W        W 6133  39.013   5.771  12.974
33709W        W 6134  41.813  40.720   1.331
33710W        W 6135   0.082  40.919   1.839
33711W        W 6136  37.390  24.136  11.101
33712W        W 6137  24.753  30.569  12.415
33713W        W 6138  29.991   2.957   0.361
33714W        W 6139  36.230  35.980   2.709
33715W        W 6140  36.880  15.348  14.008
33716W        W 6141  34.392  18.284  12.513
33717W        W 6142  35.345  26.625   4.601
33718W        W 6143   3.772  13.747   2.678
33719W        W 6144   0.263   0.236   0.318
33720W        W 6145  28.661  24.618   2.459
33721W        W 6146  19.573  12.714  14.218
33722W        W 6147  36.589  13.846   0.364
33723W        W 6148  37.059  35.245  11.983
33724W        W 6149  11.329   2.116  11.059
33725W        W 6150  21.728  26.485   3.876
33726W        W 6151  34.335  38.795   1.698
33727W        W 6152  34.994  28.374  13.349
33728W        W 6153  21.546  11.364   3.711
33729W        W 6154  11.620  20.276   1.883
33730W        W 6155   0.508  31.168   4.103
33731W        W 6156   5.653  39.901   0.691
33732W        W 6157  25.420  29.121   2.788
33733W        W 6158  23.047  15.824   4.767
33734W        W 6159  27.968   9.244   1.395
33735W        W 6160  38.707   1.485  14.796
33736W        W 6161  33.373  27.002   1.401
33737W        W 6162  40.388  40.422  13.096
33738W        W 6163  15.878  24.168  14.341
33739W        W 6164   0.472  34.960  10.362
33740W        W 6165  22.937  20.594   1.417
33741W        W 6166   1.912  26.975  14.171
33742W        W 6167  12.332  37.309  12.033
33743W        W 6168   3.399  35.610   3.797
33744W        W 6169   5.758  20.461  11.711
33745W        W 6170   4.466   6.472  13.566
33746W        W 6171   4.696  38.815  14.449
33747W        W 6172  11.199  26.728   2.232
33748W        W 6173  40.444   2.964  13.572
33749W        W 6174  21.188  26.620  10.622
33750W        W 6175  13.121   1.728   0.848
33751W        W 6176   2.519   2.261  13.394
33752W        W 6177   2.196   8.877   3.635
33753W        W 6178  33.917  12.274   0.534
33754W        W 6179  25.803  10.105   3.293
33755W        W 6180  25.093  43.816  13.005
33756W        W 6181  13.748  11.448   0.944
33757W        W 6182  25.060  11.872   3.314
33758W        W 6183  27.582  32.943  10.322
33759W        W 6184  25.131  39.028  13.947
33760W        W 6185  33.440  30.637  11.434
33761W        W 6186  14.187  39.235  12.413
33762W        W 6187  40.157  19.259   1.941
33763W        W 6188  42.683  10.199  12.664
33764W        W 6189  36.512  24.186  13.133
33765W        W 6190  34.529   0.250   0.380
33766W        W 6191   8.062  14.600  13.328
33767W        W 6192  27.555  44.706  11.581
33768W        W 6193   0.181  40.500   4.153
33769W        W 6194  13.114  18.531  14.902
33770W        W 6195  22.980  43.482   3.205
33771W        W 6196  37.493   0.385   1.856
33772W        W 6197   2.461  42.996   3.971
33773W        W 6198   7.371  10.808   0.819
33774W        W 6199  31.053  40.519   4.123
33775W        W 6200  17.539  15.320   1.767
33776W        W 6201  32.938  23.709   3.054
33777W        W 6202  13.620  35.722  12.389
33778W        W 6203  10.496   6.955   3.372
33779W        W 6204   0.904  10.218  10.211
33780W        W 6205  40.527  16.591   2.758
33781W        W 6206  11.744   4.763   4.577
33782W        W 6207  31.760  20.624  11.682
33783W        W 6208  19.810  23.351  13.744
33784W        W 6209  11.197  10.164  12.090
33785W        W 6210   8.999  27.660   0.616
33786W        W 6211  15.812  20.042  10.938
33787W        W 6212  27.330  44.373  13.912
33788W        W 6213  19.192  40.397   4.615
33789W        W 6214   2.293  30.646   4.155
33790W        W 6215  31.521  29.081  11.133
33791W        W 6216  34.983  26.236   4.640
33792W        W 6217  20.495   0.922   3.753
33793W        W 6218  32.995  26.137  12.458
33794W        W 6219  42.002   6.549   0.932
33795W        W 6220  28.742   9.780   2.348
33796W        W 6221   8.368  43.939   3.120
33797W        W 6222  36.662  12.283  11.437
33798W        W 6223  41.073  21.524   2.997
33799W        W 6224  11.368  30.924  12.531
33800W        W 6225   5.745  15.630  13.929
33801W        W 6226  35.979  33.185  13.992
33802W        W 6227  33.548  30.056   2.897
33803W        W 6228  38.951  28.704  13.787
33804W        W 6229  16.060  42.501   0.923
33805W        W 6230  12.451   1.227   2.199
33806W        W 6231  29.919   4.291   3.382
33807W        W 6232  33.507   1.024  13.493
33808W        W 6233   2.386  40.997  10.730
33809W        W 6234   0.979   5.657  10.159
33810W        W 6235  28.532   3.941   0.539
33811W        W 6236  25.888   0.537  14.873
33812W        W 6237  29.352   5.634   2.797
33813W        W 6238  23.724   9.562  12.906
33814W        W 6239  33.149  23.014   4.131
33815W        W 6240   0.754  37.497   4.527
33816W        W 6241  28.441  32.482   5.447
33817W        W 6242  19.119  17.278  13.483
33818W        W 6243  33.520  23.348  12.885
33819W        W 6244  20.021  12.816   0.041
33820W        W 6245  10.227  11.800  12.560
33821W        W 6246  35.504  23.174  14.593
33822W        W 6247  42.954   7.421  14.698
33823W        W 6248  29.671  30.597   3.704
33824W        W 6249  24.247   1.984  13.263
33825W        W 6250  33.782  22.748   4.705
33826W        W 6251   4.246  32.675   3.867
33827W        W 6252   1.548   8.113   0.899
33828W        W 6253  34.418  34.629  11.848
33829W        W 6254   1.429  11.360   2.252
33830W        W 6255  29.619  44.724  12.130
33831W        W 6256  20.324   0.387  13.029
33832W        W 6257  44.296  10.814  14.442
33833W        W 6258  44.596  17.727  14.529
33834W        W 6259   9.049  37.878   9.405
33835W        W 6260  35.487  20.292  12.943
33836W        W 6261  41.831  26.233  12.468
33837W        W 6262  18.280  21.037  11.688
33838W        W 6263  38.832  39.922   1.721
33839W        W 6264  38.507  25.507   1.665
33840W        W 6265  13.561  30.856   0.806
33841W        W 6266   0.717  42.869  14.116
33842W        W 6267  26.210  12.283  10.621
33843W        W 6268  13.623  13.155  14.303
33844W        W 6269   3.179  43.022   3.302
33845W        W 6270   6.903  43.550   3.233
33846W        W 6271  16.093   1.553   5.014
33847W        W 6272  21.517  14.185   3.685
33848W        W 6273  39.655  14.716  10.679
33849W        W 6274  22.220  22.270   4.547
33850W        W 6275  30.255  21.218   1.851
33851W        W 6276  19.312  28.027  12.099
33852W        W 6277  36.552  26.730   3.660
33853W        W 6278   1.109  22.208  13.570
33854W        W 6279  37.462  16.861  11.527
33855W        W 6280   2.305  17.552   0.215
33856W        W 6281  44.472  37.803   2.079
33857W        W 6282  38.738   6.339  14.375
33858W        W 6283  24.758  17.330  11.346
33859W        W 6284  37.846   4.202  12.802
33860W        W 6285   4.146  31.119   1.323
33861W        W 6286  22.687  34.467  10.025
33862W        W 6287   5.725   2.256  13.563
33863W        W 6288  43.919  33.105   4.751
33864W        W 6289  18.154  40.472  14.520
33865W        W 6290  40.750  17.678   1.951
33866W        W 6291  26.380   8.727  10.442
33867W        W 6292  42.043  20.670   0.806
33868W        W 6293  36.449   3.176  12.413
33869W        W 6294  38.944  43.242   1.225
33870W        W 6295   1.769  10.494   2.730
33871W        W 6296  30.667  34.769  11.017
33872W        W 6297  29.996  34.123  13.888
33873W        W 6298  41.071  10.070  13.273
33874W        W 6299  40.501  23.278   1.366
33875W        W 6300   8.197   6.000  12.805
33876W        W 6301  33.572  16.352  14.434
33877W        W 6302  24.113  18.574  11.620
33878W        W 6303  14.663  17.138   1.470
33879W        W 6304  30.066  17.597   2.563
33880W        W 6305  26.914  39.616  12.780
33881W        W 6306  44.143  26.965  10.682
33882W        W 6307  16.491   5.048  14.007
33883W        W 6308  12.383   9.498   1.182
33884W        W 6309   4.368  42.975   1.467
33885W        W 6310  42.443  39.598   3.849
33886W        W 6311  20.315   6.203   1.939
33887W        W 6312  12.915   9.819  11.142
33888W        W 6313   4.623  42.293   1.038
33889W        W 6314  15.737  14.804   3.639
33890W        W 6315   6.204  15.276  13.243
33891W        W 6316  11.696  43.210   0.931
33892W        W 6317  42.729   4.920  11.558
33893W        W 6318  34.721   5.914  10.371
33894W        W 6319  13.794   2.356   4.097
33895W        W 6320  37.464  30.956   3.679
33896W        W 6321  28.282  19.549   2.878
33897W        W 6322   0.519  19.661   3.265
33898W        W 6323  14.950  23.186  10.104
33899W        W 6324  19.970  23.138   3.265
33900W        W 6325  13.380  22.161  10.264
33901W        W 6326  20.370   2.827  13.852
33902W        W 6327   2.937  16.076   4.626
33903W        W 6328  13.089  20.347  12.792
33904W        W 6329  43.999   5.367   2.837
33905W        W 6330  31.083  35.475   4.192
33906W        W 6331  15.107  29.929  11.174
33907W        W 6332   5.777  25.889  12.950
33908W        W 6333  44.417  21.172  14.112
33909W        W 6334   2.915  44.688   2.964
33910W        W 6335  43.413  43.451   3.610
33911W        W 6336  19.275  26.529   3.879
33912W        W 6337  17.762  22.180   1.608
33913W        W 6338  40.800  28.367   4.526
33914W        W 6339  37.341  44.325   3.618
33915W        W 6340  15.302  43.928   0.733
33916W        W 6341  15.171  21.730   0.950
33917W        W 6342  42.643  14.909   0.306
33918W        W 6343  28.199  18.495   2.983
33919W        W 6344  39.500  42.398   5.493
33920W        W 6345  32.432  14.598  10.670
33921W        W 6346  27.159  11.331  14.203
33922W        W 6347  15.815  20.243  14.802
33923W        W 6348  42.432  42.439   2.852
33924W        W 6349  28.815   8.490   4.977
33925W        W 6350   5.192   2.876   1.717
33926W        W 6351   8.907  36.314   4.999
33927W        W 6352  24.343  30.059  11.684
33928W        W 6353   3.055  10.981   1.473
33929W        W 6354  17.264  29.495   2.791
33930W        W 6355  25.960  22.516   5.196
33931W        W 6356  18.594  28.146  11.550
33932W        W 6357  14.915  40.393  10.739
33933W        W 6358  20.270   2.968   4.629
33934W        W 6359  15.296  32.092  12.846
33935W        W 6360  39.646  16.860  12.610
33936W        W 6361   4.858  10.643  11.050
33937W        W 6362  17.020  31.913   4.651
33938W        W 6363  27.615   0.368   4.908
33939W        W 6364  23.044  38.085  13.927
33940W        W 6365  18.584   2.386   9.972
33941W        W 6366  43.577  18.787  12.861
33942W        W 6367  30.934  38.305   4.945
33943W        W 6368   6.389  11.803  14.413
33944W        W 6369  40.436   6.696  12.475
33945W        W 6370  12.077  40.724   0.717
33946W        W 6371  41.984  29.571  12.491
33947W        W 6372  27.832  26.187   3.916
33948W        W 6373  14.588  29.826  11.133
33949W        W 6374  23.465  24.076  10.892
33950W        W 6375  11.749  35.715  12.560
33951W        W 6376  12.315   7.991  13.742
33952W        W 6377  14.268  21.340  14.864
33953W        W 6378   3.581  26.439   4.455
33954W        W 6379   3.247  28.714   0.206
33955W        W 6380  40.545  35.095  11.581
33956W        W 6381  22.617  40.933   1.848
33957W        W 6382  28.812   9.831  12.755
33958W        W 6383  31.461   2.875   4.421
33959W        W 6384  19.673  14.314  12.114
33960W        W 6385  12.183  25.080  14.356
33961W        W 6386   1.974   3.397  14.963
33962W        W 6387  37.624  44.543  10.465
33963W        W 6388  35.000  16.042   3.986
33964W        W 6389  41.693  27.133   0.431
33965W        W 6390   4.963  34.464   4.721
33966W        W 6391  26.440  22.069  13.111
33967W        W 6392  16.579  22.021  13.853
33968W        W 6393  40.384  42.383  10.315
33969W        W 6394  41.888  26.191   2.331
33970W        W 6395  38.934  43.694   1.462
33971W        W 6396   5.397  41.494   1.746
33972W        W 6397  38.336  27.644   2.582
33973W        W 6398  14.458  15.722   3.699
33974W        W 6399   6.664  21.986  11.202
33975W        W 6400  25.267  40.313   2.329
33976W        W 6401  25.683   2.744   4.581
33977W        W 6402   0.874   6.244   1.565
33978W        W 6403  40.877  10.207  10.813
33979W        W 6404  35.038  44.739   3.701
33980W        W 6405  12.389  43.384   4.109
33981W        W 6406  39.747  18.656  12.964
33982W        W 6407  37.935  12.577   3.167
33983W        W 6408  12.821  32.201  11.244
33984W        W 6409  35.391   8.441  11.643
33985W        W 6410  35.341  25.497   4.123
33986W        W 6411  43.444  24.481   1.796
33987W        W 6412  15.356  37.178   0.741
33988W        W 6413  31.587  15.764  11.041
33989W        W 6414  31.636  11.648  12.471
33990W        W 6415  40.723  23.200  13.732
33991W        W 6416  37.622  10.327  14.268
33992W        W 6417  30.437  34.764  11.656
33993W        W 6418  20.198   4.294   4.581
33994W        W 6419  21.667  21.657  13.208
33995W        W 6420  20.111   0.324   2.284
33996W        W 6421  37.805  29.166  12.907
33997W        W 6422  42.367  10.034  14.381
33998W        W 6423  27.526  35.793  12.498
33999W        W 6424  41.924  18.942  13.568
34000W        W 6425  25.467  41.550  13.895
34001W        W 6426  26.520  26.478   1.327
34002W        W 6427  41.163  31.588  13.074
34003W        W 6428  11.359  23.456   4.228
34004W        W 6429  27.761  23.706   0.671
34005W        W 6430   1.693  26.680   0.766
34006W        W 6431  11.328  15.657   0.370
34007W        W 6432  36.474  39.804  11.083
34008W        W 6433  38.750  21.079   1.955
34009W        W 6434  37.652  42.212  10.766
34010W        W 6435   4.816  30.587   1.481
34011W        W 6436  24.480  35.577   1.369
34012W        W 6437  16.623  23.107  14.953
34013W        W 6438   3.701   5.144   4.163
34014W        W 6439  25.542  44.327   4.670
34015W        W 6440  29.231   3.250  12.999
34016W        W 6441  24.594   2.819   3.773
34017W        W 6442  38.269  12.835   0.897
34018W        W 6443  16.752  43.405  12.825
34019W        W 6444  11.458   7.601  14.273
34020W        W 6445  18.750   6.184   0.209
34021W        W 6446   6.858  11.651  11.818
34022W        W 6447  41.562  40.467   5.153
34023W        W 6448  11.622  17.231   2.591
34024W        W 6449  38.760  21.603   0.319
34025W        W 6450  35.921  41.291  13.415
34026W        W 6451  34.727  17.383   4.151
34027W        W 6452  14.157  12.482  11.244
34028W        W 6453  29.307   8.698   4.885
34029W        W 6454  27.996  11.683  13.278
34030W        W 6455  37.743  28.079   4.894
34031W        W 6456  29.927  18.241  10.124
34032W        W 6457   4.656  32.151   2.222
34033W        W 6458  14.807  38.783  12.793
34034W        W 6459  39.960  31.664  13.490
34035W        W 6460  32.378  37.595  12.520
34036W        W 6461  42.805  26.547   1.634
34037W        W 6462  28.497  17.024   2.352
34038W        W 6463  40.001   6.628   3.631
34039W        W 6464  35.430   1.982  13.439
34040W        W 6465  11.762  13.786   4.395
34041W        W 6466  24.709  31.031   0.104
34042W        W 6467  27.540  44.408   1.693
34043W        W 6468  33.919   4.001  12.563
34044W        W 6469  42.861   8.566   3.725
34045W        W 6470  21.931  43.949   2.868
34046W        W 6471  32.330  32.365  10.775
34047W        W 6472  10.579  20.289   1.929
34048W        W 6473   4.795  16.189  11.013
34049W        W 6474   1.749  39.611   0.097
34050W        W 6475  31.211   8.196   0.246
34051W        W 6476  24.490  18.980  11.659
34052W        W 6477  12.276   4.710   2.427
34053W        W 6478  44.507  40.608  13.856
34054W        W 6479   7.260  22.791   3.869
34055W        W 6480  24.994  28.068  11.197
34056W        W 6481  26.711  27.977   2.176
34057W        W 6482  25.445   0.741   1.384
34058W        W 6483  10.928  15.059  12.513
34059W        W 6484  19.360  27.155  13.130
34060W        W 6485  43.928  22.090  13.818
34061W        W 6486  44.499   9.248   0.991
34062W        W 6487  36.358   6.400  11.510
34063W        W 6488   8.401  16.266   1.639
34064W        W 6489  25.930  26.086   0.966
34065W        W 6490  27.564  16.633  14.534
34066W        W 6491  43.288  34.569  10.668
34067W        W 6492  37.927  42.983   0.791
34068W        W 6493  13.302  23.021   4.598
34069W        W 6494  43.725  24.385  14.509
34070W        W 6495  30.134  28.544  13.842
34071W        W 6496  19.771  39.288  12.385
34072W        W 6497  15.741  44.470   4.741
34073W        W 6498  42.490   1.640  12.517
34074W        W 6499  26.893   7.381   2.857
34075W        W 6500  18.914  10.135   4.679
34076W        W 6501  18.095  16.545  14.736
34077W        W 6502  30.516  42.946   2.050
34078W        W 6503   6.802  22.115   3.337
34079W        W 6504  27.079  24.626  14.841
34080W        W 6505  40.494   1.649   1.933
34081W        W 6506  25.492  27.400   2.262
34082W        W 6507   2.515  35.970   4.388
34083W        W 6508  12.383  10.598  13.010
34084W        W 6509   4.496   6.326  11.595
34085W        W 6510  25.081  13.529   1.737
34086W        W 6511   8.452   2.383  13.876
34087W        W 6512  44.396  28.345  13.769
34088W        W 6513  43.357  31.470   1.702
34089W        W 6514   8.022   2.225   2.380
34090W        W 6515  13.950  10.838   2.828
34091W        W 6516  10.237  14.364  11.977
34092W        W 6517   8.726  21.509   1.256
34093W        W 6518  23.687   1.409   1.476
34094W        W 6519  36.065  29.178  12.882
34095W        W 6520  35.393  23.554  12.560
34096W        W 6521  38.894  21.304   0.784
34097W        W 6522  29.574  36.193  11.412
34098W        W 6523  18.388   7.365  10.795
34099W        W 6524  39.593   2.989  11.148
34100W        W 6525  43.390  27.002   0.631
34101W        W 6526  20.016  14.723   0.510
34102W        W 6527  12.255   1.542   0.801
34103W        W 6528  39.906  12.137   0.903
34104W        W 6529  36.485  26.098  13.379
34105W        W 6530  12.685  29.368   4.019
34106W        W 6531  42.024   2.961  11.598
34107W        W 6532  30.701  15.410   1.118
34108W        W 6533  19.065  43.047  14.760
34109W        W 6534  30.128  10.791  14.808
34110W        W 6535  38.405   1.455   4.032
34111W        W 6536  20.819  15.657  12.122
34112W        W 6537  21.610  25.251   4.143
34113W        W 6538  21.531  14.847  13.974
34114W        W 6539   8.927  43.488  11.756
34115W        W 6540  30.524  29.851   1.190
34116W        W 6541   3.832  19.198  10.750
34117W        W 6542  36.399  44.833   1.284
34118W        W 6543  24.302  10.343   0.315
34119W        W 6544  42.430   9.773  12.046
34120W        W 6545  37.840   3.406   0.535
34121W        W 6546  44.415  39.435   4.892
34122W        W 6547  42.114  22.549  11.575
34123W        W 6548  16.657  17.938   4.213
34124W        W 6549  14.836  31.152   3.663
34125W        W 6550  16.653   7.366  13.417
34126W        W 6551  40.558  12.222   2.581
34127W        W 6552  14.882   4.560  10.787
34128W        W 6553  11.786  36.445   0.718
34129W        W 6554  43.589  24.659  10.738
34130W        W 6555  44.174  12.864  11.648
34131W        W 6556  11.125  41.922   2.917
34132W        W 6557  34.268  15.767  13.307
34133W        W 6558  17.411  24.996   1.369
34134W        W 6559  25.605  27.007   1.325
34135W        W 6560  13.621  22.063  12.380
34136W        W 6561  16.761  18.342  10.824
34137W        W 6562  18.066   0.353  10.515
34138W        W 6563  26.467  31.693  11.184
34139W        W 6564  38.128  34.384   1.875
34140W        W 6565  15.124  32.537   3.252
34141W        W 6566  41.796  34.013  14.684
34142W        W 6567  20.488  23.110  11.231
34143W        W 6568  38.391  31.059  12.019
34144W        W 6569  20.564  39.346   3.058
34145W        W 6570  17.530  39.812  13.317
34146W        W 6571  38.932  31.998  10.128
34147W        W 6572  18.838  29.591  14.355
34148W        W 6573  30.927  12.832   2.691
34149W        W 6574  30.184  27.125  10.706
34150W        W 6575  16.604   1.829   2.396
34151W        W 6576   0.168  22.165  14.568
34152W        W 6577   8.502   0.517  13.044
34153W        W 6578   7.471  36.737  11.715
34154W        W 6579   8.217  17.935  13.738
34155W        W 6580  42.990  32.425   0.659
34156W        W 6581  18.464  36.716   2.900
34157W        W 6582  40.629  19.025   1.999
34158W        W 6583  29.984   1.222  14.797
34159W        W 6584  42.386  28.466  12.450
34160W        W 6585  35.386  24.893  12.516
34161W        W 6586  14.762   9.872  13.046
34162W        W 6587  31.645   9.411   2.299
34163W        W 6588  35.417   4.561   4.710
34164W        W 6589  37.021  40.960   3.136
34165W        W 6590  19.191  39.112  14.505
34166W        W 6591  20.090  30.400   1.776
34167W        W 6592   5.884  31.806  12.628
34168W        W 6593  12.066  42.026  14.756
34169W        W 6594  17.235   1.452  14.473
34170W        W 6595  12.293  24.206  14.311
34171W        W 6596  31.900  23.807  14.828
34172W        W 6597  27.992  28.888   1.800
34173W        W 6598  13.061  27.139  11.417
34174W        W 6599  24.665  15.028  11.203
34175W        W 6600   9.947  10.178   2.684
34176W        W 6601  27.566  22.103   3.889
34177W        W 6602  44.286  30.339   4.682
34178W        W 6603  11.824  33.063   2.393
34179W        W 6604  32.328   8.673   4.547
34180W        W 6605  15.899  25.548   1.734
34181W        W 6606  42.406  23.111   0.533
34182W        W 6607   0.668  16.540   3.192
34183W        W 6608  34.710  42.795   1.767
34184W        W 6609  10.903  17.173  13.579
34185W        W 6610  43.984  29.300   1.860
34186W        W 6611   7.598  12.660  14.903
34187W        W 6612  20.575   4.450  13.451
34188W        W 6613   6.185  15.696   3.246
34189W        W 6614  41.489  25.483  12.366
34190W        W 6615   5.721  39.305  10.764
34191W        W 6616   3.910  44.777  13.288
34192W        W 6617  12.623  44.331   1.729
34193W        W 6618   1.993  25.616   2.127
34194W        W 6619  12.422  43.940   3.796
34195W        W 6620  37.263   1.680  11.212
34196W        W 6621   2.358  14.782  10.426
34197W        W 6622   4.545  34.554   1.826
34198W        W 6623  15.309  40.431   0.235
34199W        W 6624  36.877  10.381   3.825
34200W        W 6625  25.576  20.502  13.049
34201W        W 6626  31.532   8.753   9.783
34202W        W 6627  17.705  33.635   2.771
34203W        W 6628  29.515  10.204  11.728
34204W        W 6629  13.780  25.588   1.622
34205W        W 6630  44.783   6.335   0.917
34206W        W 6631  35.776  36.400  10.807
34207W        W 6632  13.996  13.279   1.902
34208W        W 6633  24.746  16.105   1.853
34209W        W 6634   9.213  39.046   4.745
34210W        W 6635  30.484  26.453  11.203
34211W        W 6636  22.156  20.560  14.328
34212W        W 6637  25.112  39.984   4.237
34213W        W 6638  21.392  35.231  12.221
34214W        W 6639  19.156  24.260   2.787
34215W        W 6640   2.488   6.227  14.783
34216W        W 6641   7.678  39.423   1.424
34217W        W 6642   6.745   6.988  11.611
34218W        W 6643  19.032  17.062   2.153
34219W        W 6644  41.768  38.552  10.552
34220W        W 6645  41.859  44.617   4.577
34221W        W 6646  30.723  20.696  12.569
34222W        W 6647  31.670  28.159  11.000
34223W        W 6648  21.260  37.378   3.254
34224W        W 6649   6.919  16.872  12.604
34225W        W 6650  24.838  36.965   2.355
34226W        W 6651  14.911  37.435   1.739
34227W        W 6652  17.798  29.877   5.045
34228W        W 6653  44.857  20.527  14.041
34229W        W 6654  32.365  43.178  11.108
34230W        W 6655  36.913  14.207  11.420
34231W        W 6656  20.636  32.403  12.176
34232W        W 6657  44.080  43.943  13.031
34233W        W 6658  21.611  23.301  14.649
34234W        W 6659  12.705  42.616  14.498
34235W        W 6660   6.710   1.512   3.529
34236W        W 6661  44.794  41.823  14.347
34237W        W 6662  30.623  31.472   4.793
34238W        W 6663  41.288  27.183  14.576
34239W        W 6664  42.801   2.926   4.439
34240W        W 6665  32.523  37.128  11.196
34241W        W 6666   2.189   0.672  11.057
34242W        W 6667  35.611  20.583  11.500
34243W        W 6668  30.865  25.209  11.920
34244W        W 6669  42.979  26.062  14.478
34245W        W 6670  19.106  19.062  10.920
34246W        W 6671  15.471  27.677  14.001
34247W        W 6672  18.131  39.667  14.068
34248W        W 6673   0.035  25.249   3.632
34249W        W 6674  24.096   6.114  10.220
34250W        W 6675  25.476  21.278  11.542
34251W        W 6676   9.645  27.704   1.765
34252W        W 6677  33.710  40.616   2.839
34253W        W 6678  26.114  32.453   0.208
34254W        W 6679  22.455   9.747  13.756
34255W        W 6680  34.321  25.659   0.853
34256W        W 6681  32.421   9.253   1.711
34257W        W 6682  29.625  23.219   2.304
34258W        W 6683   6.772  34.155   1.631
34259W        W 6684   1.296  40.283  11.722
34260W        W 6685  36.519  21.875  10.650
34261W        W 6686  37.894  13.831   1.218
34262W        W 6687  40.016   3.504  12.869
34263W        W 6688  13.206   5.249   1.249
34264W        W 6689  18.136  21.812   1.856
34265W        W 6690  14.592  14.660   0.920
34266W        W 6691   6.268  25.955  13.595
34267W        W 6692  37.617  12.104  12.218
34268W        W 6693  29.896   9.159   3.705
34269W        W 6694  17.908   0.832  14.634
34270W        W 6695  10.367  11.560  14.460
34271W        W 6696  17.096  19.111  14.720
34272W        W 6697  13.537  27.122   4.652
34273W        W 6698   3.946  17.870  12.088
34274W        W 6699  19.244  32.078  13.434
34275W        W 6700   1.293  32.102  12.025
34276W        W 6701  23.324   5.011   2.789
34277W        W 6702  23.494  18.170   1.656
34278W        W 6703  43.468   4.191  11.782
34279W        W 6704  15.166  36.429   4.690
34280W        W 6705   1.528  26.119  11.944
34281W        W 6706  17.286  17.236  12.001
34282W        W 6707  24.808  11.287  12.035
34283W        W 6708  42.743   5.268  12.501
34284W        W 6709  31.875  44.063   0.355
34285W        W 6710  16.225  17.148  12.051
34286W        W 6711   9.734   3.781  11.611
34287W        W 6712   6.395  23.452  12.632
34288W        W 6713   0.511  41.371  11.318
34289W        W 6714   6.480  44.339   1.735
34290W        W 6715  11.220  11.118  13.504
34291W        W 6716  26.981   6.335  14.769
34292W        W 6717  40.440  26.032  11.790
34293W        W 6718  40.967  26.533   5.062
34294W        W 6719  23.511  22.902   3.134
34295W        W 6720  30.864  21.216  10.710
34296W        W 6721  16.135  18.644   1.222
34297W        W 6722   5.842   9.945   1.692
34298W        W 6723  32.455  43.881   1.270
34299W        W 6724  39.386   1.350   0.926
34300W        W 6725  24.893  37.031  11.587
34301W        W 6726   9.457  40.968  14.283
34302W        W 6727  32.759   3.371  11.103
34303W        W 6728  26.172  10.110  14.751
34304W        W 6729  22.062   2.849  12.480
34305W        W 6730  44.911   4.837  14.292
34306W        W 6731   9.605  25.421   2.157
34307W        W 6732  34.772  36.795   2.727
34308W        W 6733   3.974   9.914   3.646
34309W        W 6734   6.347  29.999   4.807
34310W        W 6735  43.249  27.852  14.283
34311W        W 6736   3.776   8.875   3.780
34312W        W 6737  32.958  13.305  10.856
34313W        W 6738  18.633  24.490   5.001
34314W        W 6739  12.781  30.465   1.410
34315W        W 6740  34.950  26.477   3.207
34316W        W 6741  38.856   7.452  11.356
34317W        W 6742  23.501   3.902  13.948
34318W        W 6743  32.818  38.348  11.562
34319W        W 6744  23.112  24.639  14.600
34320W        W 6745  41.015   0.323   3.200
34321W        W 6746  14.771  22.745   3.729
34322W        W 6747  29.939  37.853   2.820
34323W        W 6748  41.045  15.071  13.830
34324W        W 6749  24.613  21.253   1.774
34325W        W 6750   1.839   6.954  10.826
34326W        W 6751  33.934  43.776  10.807
34327W        W 6752  28.557  11.942   2.651
34328W        W 6753  30.832  14.958   0.519
34329W        W 6754   8.161  13.181   0.291
34330W        W 6755   9.944  15.121   1.473
34331W        W 6756  21.203   9.210  10.245
34332W        W 6757  20.537  11.259   2.229
34333W        W 6758  17.545  10.240  14.796
34334W        W 6759   6.330  14.499  12.059
34335W        W 6760  43.168   1.760  13.278
34336W        W 6761  31.639  10.180   4.150
34337W        W 6762  31.640  12.608  12.612
34338W        W 6763  41.031  24.229   1.006
34339W        W 6764  41.944  41.264  12.831
34340W        W 6765   2.185   3.862   4.295
34341W        W 6766  29.158  24.196   3.757
34342W        W 6767   5.760  41.852  13.948
34343W        W 6768   9.723   0.072   1.194
34344W        W 6769  21.119   3.070   4.627
34345W        W 6770  20.159  40.815   4.517
34346W        W 6771   7.809  26.829  10.613
34347W        W 6772  14.184  24.110  11.272
34348W        W 6773  12.853  14.575  11.882
34349W        W 6774  16.240   9.726   3.302
34350W        W 6775   7.409  41.499   0.028
34351W        W 6776  10.478   4.010   0.262
34352W        W 6777  28.184  12.446   0.897
34353W        W 6778   5.296  32.176  10.557
34354W        W 6779  38.867   3.191  12.047
34355W        W 6780  26.093  10.259   0.605
34356W        W 6781   2.392  21.817   2.278
34357W        W 6782  35.171  37.303   0.489
34358W        W 6783  30.420  18.311  14.892
34359W        W 6784  19.534   5.820   4.154
34360W        W 6785  11.846  29.114   0.952
34361W        W 6786  29.033  22.064  12.904
34362W        W 6787   4.275  38.366   3.575
34363W        W 6788  20.940  21.667   0.886
34364W        W 6789   8.966  11.764   2.263
34365W        W 6790  18.868  31.931  12.813
34366W        W 6791  33.098  36.495   0.339
34367W        W 6792   8.620  32.079   3.317
34368W        W 6793  35.508  19.615  12.018
34369W        W 6794  36.840  35.218   4.691
34370W        W 6795   3.710   0.706   3.718
34371W        W 6796  27.688  14.394  10.379
34372W        W 6797  43.814  20.786   3.693
34373W        W 6798  13.086  18.728  13.037
34374W        W 6799   3.737  34.662   3.183
34375W        W 6800  14.844   3.687  12.867
34376W        W 6801  27.481   9.431   4.193
34377W        W 6802  16.496  34.792  11.475
34378W        W 6803  37.550  29.663   2.013
34379W        W 6804  29.489  26.083  14.441
34380W        W 6805  10.425   7.500   1.780
34381W        W 6806  23.847  27.208  12.630
34382W        W 6807  32.027  28.259  12.951
34383W        W 6808  13.050  37.380  10.816
34384W        W 6809  42.797   9.240  11.060
34385W        W 6810  28.206  40.311   3.209
34386W        W 6811  30.151   6.240  12.253
34387W        W 6812   4.285  25.095   0.040
34388W        W 6813  26.193  17.608  14.024
34389W        W 6814  23.044   8.617   2.265
34390W        W 6815  31.191  42.054   4.418
34391W        W 6816   4.428  33.063  10.682
34392W        W 6817   2.760   5.872   4.544
34393W        W 6818  42.659   1.470  14.468
34394W        W 6819  32.477  32.131  13.044
34395W        W 6820  41.019  34.991  11.889
34396W        W 6821  26.685  20.046  12.918
34397W        W 6822  23.118   4.475  14.074
34398W        W 6823  33.199  21.641  13.233
34399W        W 6824  21.217  37.404  13.649
34400W        W 6825  27.465  25.921   3.674
34401W        W 6826  22.363  30.937  11.871
34402W        W 6827  22.860  23.835  12.617
34403W        W 6828  37.539  16.228  14.252
34404W        W 6829  25.579  42.295  11.588
34405W        W 6830  29.392  10.656  14.355
34406W        W 6831  10.632   3.016   2.730
34407W        W 6832   6.565   3.676   0.003
34408W        W 6833  18.309  20.608   3.479
34409W        W 6834   6.258  10.337  11.659
34410W        W 6835  38.429  37.437   2.264
34411W        W 6836   8.357  11.760   3.553
34412W        W 6837   9.832   3.438   0.782
34413W        W 6838  35.480  32.359   0.380
34414W        W 6839  30.715  10.276   4.581
34415W        W 6840   0.990  39.066  11.058
34416W        W 6841  21.069   8.929   0.910
34417W        W 6842   1.212   5.857   4.577
34418W        W 6843  40.434  36.856   4.312
34419W        W 6844  43.713  14.602   0.797
34420W        W 6845  39.243   4.672   2.255
34421W        W 6846   4.668  40.908  10.191
34422W        W 6847   8.030   0.937  11.994
34423W        W 6848   1.956  31.788   4.510
34424W        W 6849  26.538  37.751  14.302
34425W        W 6850  29.018  40.792  13.801
34426W        W 6851   6.556  30.691   3.662
34427W        W 6852   2.670  21.471  10.125
34428W        W 6853  35.131  43.678  14.867
34429W        W 6854  32.156  23.963   3.743
34430W        W 6855  28.203  25.291   5.076
34431W        W 6856   9.497  19.729  13.878
34432W        W 6857   9.402   3.242  13.079
34433W        W 6858  29.402  18.072  14.576
34434W        W 6859  14.671  38.841  14.721
34435W        W 6860  32.403  33.307  10.471
34436W        W 6861  44.500   2.920  14.401
34437W        W 6862  27.605  18.549  14.529
34438W        W 6863  24.208   8.914  12.436
34439W        W 6864  42.778   7.015   2.687
34440W        W 6865  34.381   3.173  12.605
34441W        W 6866  31.982   7.744  10.354
34442W        W 6867  39.960  12.206   4.640
34443W        W 6868   1.374  27.814   3.156
34444W        W 6869   3.909  31.835  12.471
34445W        W 6870  26.748   0.552   0.368
34446W        W 6871   8.374  17.819   2.765
34447W        W 6872   7.098  11.616  10.821
34448W        W 6873  42.521  42.821   4.674
34449W        W 6874  21.747  29.616  14.940
34450W        W 6875  27.751  30.131   1.886
34451W        W 6876  35.049  16.205   4.888
34452W        W 6877  21.475   6.501   4.496
34453W        W 6878  22.049  21.058  10.453
34454W        W 6879  35.285  38.901   0.911
34455W        W 6880   6.862  19.848  14.968
34456W        W 6881  32.556  11.685   2.261
34457W        W 6882  35.309  36.605   4.538
34458W        W 6883  28.302  16.259   1.517
34459W        W 6884   6.925  21.739   1.745
34460W        W 6885  13.751  27.109  14.427
34461W        W 6886  26.902  35.650  12.968
34462W        W 6887  25.606  39.345  14.810
34463W        W 6888  16.014  29.503   4.452
34464W        W 6889  28.291  24.694   0.405
34465W        W 6890  33.611  37.336   5.099
34466W        W 6891  38.476  40.759   2.718
34467W        W 6892  22.548  42.611  11.048
34468W        W 6893  38.420  24.919  10.944
34469W        W 6894  21.142   8.899   3.638
34470W        W 6895   3.676  29.919  12.939
34471W        W 6896   5.202  39.020   2.178
34472W        W 6897   9.853   4.832  12.527
34473W        W 6898  16.226   2.648   3.135
34474W        W 6899  29.992  22.619  10.746
34475W        W 6900   4.665   4.340   0.354
34476W        W 6901   8.385  38.339  11.500
34477W        W 6902  30.573  18.661  10.584
34478W        W 6903   2.192  14.413   1.911
34479W        W 6904  19.379  13.979   2.831
34480W        W 6905  32.195  33.923  13.070
34481W        W 6906  25.220  41.880  13.577
34482W        W 6907   1.965  15.472   4.833
34483W        W 6908  33.108  15.353   2.886
34484W        W 6909  37.126   1.927   0.423
34485W        W 6910  13.879  40.997   2.454
34486W        W 6911  28.705  25.989   0.547
34487W        W 6912  24.715  24.116  13.125
34488W        W 6913   9.207  22.263   4.486
34489W        W 6914   4.317  35.958  11.192
34490W        W 6915   7.155  23.499   1.469
34491W        W 6916  13.612  13.180   0.182
34492W        W 6917  38.896   4.212  13.099
34493W        W 6918  44.682   5.424   1.308
34494W        W 6919  24.627  27.680  12.807
34495W        W 6920  40.407  16.000  10.508
34496W        W 6921  14.989  31.688  12.976
34497W        W 6922  43.419  37.501  14.935
34498W        W 6923  11.555  12.331   0.089
34499W        W 6924   3.415  14.791   3.779
34500W        W 6925  30.604  29.839   1.697
34501W        W 6926  19.216  20.331   1.770
34502W        W 6927  36.435  34.124   1.805
34503W        W 6928  32.134  27.326  14.997
34504W        W 6929  21.602  13.309  14.301
34505W        W 6930  40.857   8.706  13.799
34506W        W 6931  11.814  25.413  12.474
34507W        W 6932   7.538  15.233  12.933
34508W        W 6933  27.646  10.396   1.852
34509W        W 6934  31.355  30.701   2.021
34510W        W 6935   4.963  19.749   4.110
34511W        W 6936  27.009   6.019   0.790
34512W        W 6937   5.480  21.392   9.627
34513W        W 6938  14.343  35.431  12.897
34514W        W 6939  23.286  33.630   4.701
34515W        W 6940   0.469   6.134   4.151
34516W        W 6941  10.149   8.962   1.379
34517W        W 6942  31.840  29.859   0.067
34518W        W 6943  15.426  37.436   1.707
34519W        W 6944  22.277  14.548   3.347
34520W        W 6945   9.837  38.562  11.339
34521W        W 6946  31.881  31.513   4.905
34522W        W 6947  13.367  36.316  14.279
34523W        W 6948   1.432  42.044  12.925
34524W        W 6949  18.343   7.216  11.640
34525W        W 6950   3.727  11.839  13.086
34526W        W 6951  20.556  15.091  11.474
34527W        W 6952  27.538  10.645  13.286
34528W        W 6953  29.529  13.389  13.384
34529W        W 6954  20.165  35.462  10.629
34530W        W 6955  37.925  11.427  13.502
34531W        W 6956  40.400  17.363  13.265
34532W        W 6957  44.782  29.550  13.538
34533W        W 6958   8.396  44.040  12.918
34534W        W 6959   2.523  23.265   2.765
34535W        W 6960  31.879  43.264  11.241
34536W        W 6961   5.739  29.080   1.807
34537W        W 6962   6.360  39.693   1.792
34538W        W 6963  42.899   3.923  10.700
34539W        W 6964  38.600   5.478   2.285
34540W        W 6965  23.472   4.453   2.032
34541W        W 6966  40.013  44.462   3.837
34542W        W 6967  40.281  18.712  12.871
34543W        W 6968   7.811   4.293  14.212
34544W        W 6969  19.229   0.916  12.559
34545W        W 6970  42.947   2.277  10.766
34546W        W 6971   9.187  12.763   4.244
34547W        W 6972  28.714  28.996  13.576
34548W        W 6973  29.263  37.324  10.413
34549W        W 6974   6.941  40.398   0.448
34550W        W 6975  44.143  17.362  10.801
34551W        W 6976  20.225  18.200   1.647
34552W        W 6977  24.293  11.699  14.951
34553W        W 6978   6.999  41.056  13.233
34554W        W 6979  37.064  24.956  11.934
34555W        W 6980   5.200   8.619   4.003
34556W        W 6981  23.683  33.286   0.434
34557W        W 6982  13.859  33.796  14.791
34558W        W 6983  10.621  41.284  13.084
34559W        W 6984  25.899  40.850  11.568
34560W        W 6985  13.862   7.402  11.591
34561W        W 6986  25.003   7.696  10.791
34562W        W 6987  44.881  22.802  11.132
34563W        W 6988  26.972   0.006   1.349
34564W        W 6989   0.935  29.503  11.124
34565W        W 6990  34.845  37.273   3.331
34566W        W 6991  44.315   3.321   2.414
34567W        W 6992  32.689  43.922   3.905
34568W        W 6993   3.481  33.824  11.086
34569W        W 6994  14.712  38.870   0.223
34570W        W 6995  29.511  30.872   4.577
34571W        W 6996   9.405  39.042  14.811
34572W        W 6997   5.227  32.848   4.704
34573W        W 6998  24.639   8.107  13.327
34574W        W 6999  26.880  28.839  13.869
34575W        W 7000  15.809  29.951   4.271
34576W        W 7001  35.660  44.821   3.102
34577W        W 7002  13.319   0.699  13.346
34578W        W 7003  11.329   7.222  13.361
34579W        W 7004   9.993  27.423  13.802
34580W        W 7005  28.949  31.885   2.785
34581W        W 7006   4.932  11.449   3.318
34582W        W 7007  42.656  26.631   3.961
34583W        W 7008  14.845   9.907   1.608
34584W        W 7009  27.583  34.032  11.230
34585W        W 7010  30.695  31.868  10.729
34586W        W 7011  21.224  42.423  12.502
34587W        W 7012  31.396   0.690  13.612
34588W        W 7013  42.848  39.460  13.026
34589W        W 7014  30.978  22.665  10.700
34590W        W 7015  40.356  33.590  13.088
34591W        W 7016  31.573  27.008  10.604
34592W        W 7017  32.382  34.820   1.859
34593W        W 7018  17.037  25.093  12.523
34594W        W 7019   4.224  31.884   2.203
34595W        W 7020  19.628  14.549  14.884
34596W        W 7021  30.762  41.382   1.375
34597W        W 7022  14.229  26.468  13.101
34598W        W 7023  29.107  15.612   4.669
34599W        W 7024  40.030  42.419  14.975
34600W        W 7025   1.231   6.114  11.782
34601W        W 7026  30.052  41.798   0.910
34602W        W 7027  13.143  11.827  11.414
34603W        W 7028  44.347  32.092  10.770
34604W        W 7029  18.297  28.951  12.051
34605W        W 7030   1.836   1.737  11.248
34606W        W 7031   5.433   8.180   3.858
34607W        W 7032   5.811  11.207   2.841
34608W        W 7033  32.155  15.349   0.246
34609W        W 7034  10.944  43.277   0.445
34610W        W 7035  13.231  35.593   2.352
34611W        W 7036  19.530  17.636   0.104
34612W        W 7037  18.647  29.541   2.766
34613W        W 7038   3.938   7.278   4.726
34614W        W 7039  13.827  39.846  14.070
34615W        W 7040   7.144   7.704   1.876
34616W        W 7041  31.073  41.589  12.917
34617W        W 7042  33.661  32.062  12.969
34618W        W 7043  39.983  18.037   0.906
34619W        W 7044   8.143   0.234  11.514
34620W        W 7045  16.486   2.397   2.699
34621W        W 7046  40.307   9.226  12.519
34622W        W 7047  21.185  38.081   2.728
34623W        W 7048  20.172  12.412  11.967
34624W        W 7049  39.734  14.487   2.342
34625W        W 7050  15.713  11.399   1.859
34626W        W 7051  27.110   7.321   3.876
34627W        W 7052  12.737   1.468  13.288
34628W        W 7053  27.379  29.671  13.431
34629W        W 7054   5.682  14.895  14.557
34630W        W 7055  27.628   1.890   1.655
34631W        W 7056  31.813  35.377  12.451
34632W        W 7057   4.108  12.793   1.292
34633W        W 7058  16.787   0.389  12.399
34634W        W 7059  44.898  42.738   2.438
34635W        W 7060  29.673  29.194   1.164
34636W        W 7061  44.033  20.278  11.764
34637W        W 7062  22.989  10.684   0.278
34638W        W 7063   3.201  19.777   1.005
34639W        W 7064  15.974  10.585   4.941
34640W        W 7065  31.052  11.826  13.893
34641W        W 7066  30.042  12.856   2.255
34642W        W 7067  35.144  23.048  12.538
34643W        W 7068   3.477  26.379   2.664
34644W        W 7069  35.626   1.971   3.640
34645W        W 7070  30.241  22.128  13.559
34646W        W 7071  15.592  18.886  12.418
34647W        W 7072   1.369  24.171  11.402
34648W        W 7073  32.825  19.044  14.803
34649W        W 7074   8.829  19.171  10.933
34650W        W 7075  20.668  26.720   2.032
34651W        W 7076  21.530  39.132   1.985
34652W        W 7077  25.615  23.474  13.993
34653W        W 7078   8.584  18.436   0.009
34654W        W 7079  39.061  41.154  12.964
34655W        W 7080   6.034  37.379   2.953
34656W        W 7081  26.406  26.707  13.840
34657W        W 7082  31.225  18.230   5.062
34658W        W 7083   0.385  14.556   4.545
34659W        W 7084  44.546  12.257   1.928
34660W        W 7085  44.942  29.159  10.556
34661W        W 7086  36.848   3.846   3.168
34662W        W 7087  30.376  44.758  11.532
34663W        W 7088  37.031   3.844   2.297
34664W        W 7089  23.739  21.001  13.820
34665W        W 7090  33.121  11.369  14.376
34666W        W 7091  29.246  20.784   2.637
34667W        W 7092  16.320   7.659   3.436
34668W        W 7093  14.531  31.926   0.887
34669W        W 7094  41.918  29.148   2.869
34670W        W 7095  18.096  23.017  12.315
34671W        W 7096  15.687  36.060  11.600
34672W        W 7097  35.732  22.434   4.635
34673W        W 7098  33.597  27.928   1.307
34674W        W 7099   6.786  11.413   1.707
34675W        W 7100  23.001  36.017   4.556
34676W        W 7101   0.871   4.036   0.432
34677W        W 7102   3.936  42.900  13.082
34678W        W 7103  28.523  34.917  13.229
34679W        W 7104  43.221  18.570  13.770
34680W        W 7105   5.717  35.433   1.857
34681W        W 7106  38.944  13.322   4.126
34682W        W 7107  38.776  29.609  11.252
34683W        W 7108  22.797   4.161  14.437
34684W        W 7109   0.301  28.405  14.972
34685W        W 7110   9.328  22.950  13.622
34686W        W 7111  26.213   2.470  12.877
34687W        W 7112  19.327  21.216   1.929
34688W        W 7113   4.002   9.620  10.701
34689W        W 7114  38.089  13.327   0.991
34690W        W 7115  25.967   7.454   4.196
34691W        W 7116  18.982  23.543  13.962
34692W        W 7117  26.969  15.221   0.006
34693W        W 7118  21.400  37.724  13.269
34694W        W 7119   5.654   6.695  11.944
34695W        W 7120  42.007  21.055   3.360
34696W        W 7121  39.360  19.223   2.602
34697W        W 7122   5.409  39.272   2.589
34698W        W 7123   5.811  20.434   2.190
34699W        W 7124  18.623  40.730   1.743
34700W        W 7125  43.190  19.752  10.891
34701W        W 7126   9.687  32.629   2.770
34702W        W 7127  35.026  26.911   1.551
34703W        W 7128  35.679  22.587   3.267
34704W        W 7129  17.001  28.909  13.932
34705W        W 7130  19.703  26.038  12.111
34706W        W 7131  23.754  24.472  12.447
34707W        W 7132   7.772   1.969   0.897
34708W        W 7133  17.058  17.099  12.580
34709W        W 7134  18.474  41.846  14.239
34710W        W 7135  26.540  17.305  14.485
34711W        W 7136   9.811   5.249   0.355
34712W        W 7137  15.141   8.337   4.742
34713W        W 7138  36.078  27.523   4.162
34714W        W 7139  19.833   7.055  13.355
34715W        W 7140  17.575   9.297   4.505
34716W        W 7141   2.008   5.914   0.505
34717W        W 7142   8.312  28.302  14.273
34718W        W 7143  42.406  24.601   0.437
34719W        W 7144   2.279  37.066   2.322
34720W        W 7145  28.084   2.225  10.725
34721W        W 7146  41.372  22.801   0.700
34722W        W 7147  32.872  40.875  13.574
34723W        W 7148   2.002  34.535   2.794
34724W        W 7149  33.657  12.391  13.826
34725W        W 7150  10.232  19.997   1.146
34726W        W 7151   0.491  22.545   1.688
34727W        W 7152   2.770  18.855  11.157
34728W        W 7153  36.381  29.161   3.699
34729W        W 7154  15.475  25.038   2.850
34730W        W 7155  42.167  29.278   3.312
34731W        W 7156  23.222  17.713  11.114
34732W        W 7157  31.952  39.830  10.366
34733W        W 7158  22.588   7.956  11.031
34734W        W 7159   9.660  33.950  14.835
34735W        W 7160  16.935  26.682   3.320
34736W        W 7161  18.746  22.888   2.174
34737W        W 7162  42.540   3.316   2.721
34738W        W 7163  27.521  21.129  14.069
34739W        W 7164  41.165  37.737   2.767
34740W        W 7165  36.324  44.353  14.881
34741W        W 7166  16.204  12.756   2.585
34742W        W 7167  30.408  24.485  10.669
34743W        W 7168  36.211  23.369  10.588
34744W        W 7169  36.193  33.057  14.446
34745W        W 7170   7.534  31.235   4.352
34746W        W 7171  26.962  20.593   3.799
34747W        W 7172  27.019  38.345   4.158
34748W        W 7173  22.184  36.865   1.336
34749W        W 7174  37.980  31.145  10.635
34750W        W 7175   2.390   3.200  14.723
34751W        W 7176  34.364  40.144  14.800
34752W        W 7177   0.838  28.708   4.178
34753W        W 7178  15.306  20.135  11.891
34754W        W 7179  22.181  28.417  12.042
34755W        W 7180  41.258  18.792  14.436
34756W        W 7181  13.489   1.418   1.035
34757W        W 7182  40.276  35.339  11.111
34758W        W 7183  24.593  16.052   3.682
34759W        W 7184  32.381  21.996   2.640
34760W        W 7185   1.129  26.162   1.211
34761W        W 7186  34.361  23.586  12.543
34762W        W 7187   6.419   0.859  10.686
34763W        W 7188  37.577  19.757   4.853
34764W        W 7189  31.721  42.444   3.771
34765W        W 7190   4.362  24.262   3.018
34766W        W 7191  19.087   9.300   3.738
34767W        W 7192   6.459  34.916   2.483
34768W        W 7193   4.184  39.560  14.454
34769W        W 7194  42.927  42.644   2.866
34770W        W 7195   3.241  37.119  14.238
34771W        W 7196  21.298   6.817  12.981
34772W        W 7197  36.540  10.908  11.704
34773W        W 7198  41.864  23.434   0.677
34774W        W 7199  12.770  39.076  11.100
34775W        W 7200  15.300  29.141  10.767
34776W        W 7201  23.218  31.437  11.186
34777W        W 7202   9.010  42.223   4.448
34778W        W 7203  25.179  42.415   3.655
34779W        W 7204  33.504  21.488   1.796
34780W        W 7205  27.182   1.403   3.846
34781W        W 7206  19.547  35.520  12.302
34782W        W 7207   5.227  26.496  11.212
34783W        W 7208  25.006  39.628  10.809
34784W        W 7209  35.312  36.490  12.922
34785W        W 7210  43.209   6.668   2.731
34786W        W 7211  17.611   8.292  11.206
34787W        W 7212  15.134  25.230  11.146
34788W        W 7213  27.176  39.920  13.727
34789W        W 7214  22.282  23.211   3.624
34790W        W 7215   7.820  39.616   4.342
34791W        W 7216  12.248   3.404  10.511
34792W        W 7217  37.385   4.683   3.057
34793W        W 7218  43.030  17.383   4.516
34794W        W 7219  23.900  24.286   1.945
34795W        W 7220   0.960  24.704  13.879
34796W        W 7221   4.012  22.069  14.976
34797W        W 7222  17.879   4.639   4.637
34798W        W 7223  18.721  11.204   1.884
34799W        W 7224   9.192  31.913  14.179
34800W        W 7225  12.446   5.323  11.971
34801W        W 7226  17.315  43.912   2.934
34802W        W 7227  27.753   9.350  14.461
34803W        W 7228  44.758  37.154  12.124
34804W        W 7229   2.618  10.136   4.807
34805W        W 7230  42.357  21.196   1.522
34806W        W 7231  16.933  31.106   1.473
34807W        W 7232  26.021  32.834  14.785
34808W        W 7233  30.587  25.619  14.995
34809W        W 7234  21.960  18.703   3.791
34810W        W 7235   4.880  40.804   1.369
34811W        W 7236   8.988  28.454   2.447
34812W        W 7237  42.502  43.971  13.868
34813W        W 7238  25.971  43.064  12.138
34814W        W 7239  40.283   1.807   4.682
34815W        W 7240  29.727   4.199   2.901
34816W        W 7241  23.082  41.559  14.971
34817W        W 7242  36.918  20.593   0.321
34818W        W 7243   6.027  40.029  12.087
34819W        W 7244  13.461  35.506   1.850
34820W        W 7245  34.718  11.907   5.047
34821W        W 7246  43.787  12.091  11.945
34822W        W 7247   6.423  39.577   1.301
34823W        W 7248  13.720  38.818   1.584
34824W        W 7249   3.757  25.889  10.648
34825W        W 7250  17.599  21.754   0.330
34826W        W 7251  22.592  40.738  12.395
34827W        W 7252  32.665  37.973  14.449
34828W        W 7253  21.667  23.188  12.607
34829W        W 7254   0.410  22.883  13.799
34830W        W 7255  20.162  44.294   0.475
34831W        W 7256  13.650  11.665   0.475
34832W        W 7257  12.811  37.137   1.682
34833W        W 7258  22.319   6.722   2.338
34834W        W 7259  10.485  41.883   0.860
34835W        W 7260  31.492  32.404  11.486
34836W        W 7261  14.681  33.149   3.362
34837W        W 7262  19.656   1.361   3.845
34838W        W 7263  10.874  36.913  10.754
34839W        W 7264  27.936  26.504   0.621
34840W        W 7265  20.730  10.196  12.396
34841W        W 7266  30.466   7.808  11.084
34842W        W 7267   0.423  37.063   0.772
34843W        W 7268  40.669  22.059   0.619
34844W        W 7269  11.619  33.738   0.906
34845W        W 7270  10.356  21.489   0.792
34846W        W 7271  24.065   0.212  11.074
34847W        W 7272   9.062   3.679   0.394
34848W        W 7273   5.960  21.145  12.950
34849W        W 7274  24.516  40.851  13.998
34850W        W 7275  29.199   5.848  11.583
34851W        W 7276   1.198   7.218  13.406
34852W        W 7277   7.470  12.455  14.404
34853W        W 7278   5.154  19.792   3.416
34854W        W 7279  23.488  43.019  14.004
34855W        W 7280  20.106  19.083   0.225
34856W        W 7281  20.242  13.103   3.259
34857W        W 7282  37.292  20.482  10.300
34858W        W 7283  33.404   1.852  10.747
34859W        W 7284  41.921  16.840  14.061
34860W        W 7285  18.153  40.930   1.808
34861W        W 7286  22.546   0.294  11.606
34862W        W 7287  25.490  32.237  10.661
34863W        W 7288   7.676  39.157   2.283
34864W        W 7289  20.039  40.249   2.327
34865W        W 7290  22.135  37.014   0.828
34866W        W 7291  14.095  22.333  14.723
34867W        W 7292  17.368  12.588   4.313
34868W        W 7293  13.671  40.582   1.358
34869W        W 7294  41.899   2.857  14.218
34870W        W 7295   7.699  40.571  14.864
34871W        W 7296  33.425  23.194   0.858
34872W        W 7297  39.077  41.979   3.913
34873W        W 7298  44.693  24.825   3.638
34874W        W 7299  10.871  41.633  14.263
34875W        W 7300  39.756   0.234  10.228
34876W        W 7301  19.243  41.553   1.794
34877W        W 7302  14.402   3.284  12.363
34878W        W 7303  26.196   1.763  11.902
34879W        W 7304  13.112  11.457  14.846
34880W        W 7305  35.687  19.771  11.548
34881W        W 7306  15.925  23.744  13.900
34882W        W 7307  38.365  39.005   1.767
34883W        W 7308  44.024  17.705   3.241
34884W        W 7309  15.250  25.935  14.941
34885W        W 7310  27.895  10.867  13.024
34886W        W 7311  42.537  27.058  10.827
34887W        W 7312  25.259   3.416   3.422
34888W        W 7313  31.536  31.406   2.715
34889W        W 7314  27.778  26.899   2.269
34890W        W 7315  20.795  33.669   4.600
34891W        W 7316  20.644  43.183   0.868
34892W        W 7317  21.313  43.105  11.953
34893W        W 7318  34.322  19.975   4.644
34894W        W 7319  16.332  16.198   2.605
34895W        W 7320  12.954  41.985   4.407
34896W        W 7321  18.612  18.116   5.161
34897W        W 7322  43.334   8.214  13.251
34898W        W 7323  36.366   6.391  10.084
34899W        W 7324  13.424  26.865  13.695
34900W        W 7325   0.441  11.306   3.923
34901W        W 7326   2.259  40.044  14.455
34902W        W 7327   8.273   4.060   1.659
34903W        W 7328  23.181  35.506  14.900
34904W        W 7329   8.345   8.668  12.081
34905W        W 7330   5.511   1.849   0.396
34906W        W 7331  44.341  10.798   2.414
34907W        W 7332  25.550  32.951   1.214
34908W        W 7333  15.244  30.698   4.224
34909W        W 7334  35.005  41.825  13.424
34910W        W 7335  13.145  14.206  12.051
34911W        W 7336  35.692   2.777   3.182
34912W        W 7337  44.221  32.410  11.170
34913W        W 7338  13.768  36.084  12.014
34914W        W 7339  28.611  26.321   0.967
34915W        W 7340  17.129  36.892   2.391
34916W        W 7341   1.244  29.621  10.703
34917W        W 7342  24.939  40.925  12.342
34918W        W 7343  39.066  15.592   1.233
34919W        W 7344  23.789  33.500  14.973
34920W        W 7345   5.952   8.614  11.197
34921W        W 7346  24.866  22.386   1.344
34922W        W 7347  40.562  40.100   0.714
34923W        W 7348  38.809  31.148  12.978
34924W        W 7349   8.743  10.832  12.617
34925W        W 7350  19.792  32.084   5.703
34926W        W 7351  38.426  11.249  13.566
34927W        W 7352  20.583  32.369  11.681
34928W        W 7353  13.588   6.344   4.717
34929W        W 7354  39.391  26.097   2.307
34930W        W 7355   6.908   6.801   1.588
34931W        W 7356  20.512  23.014   4.188
34932W        W 7357  19.683  19.970   2.946
34933W        W 7358  24.519   9.623  13.412
34934W        W 7359  17.434  39.931   2.749
34935W        W 7360   1.364  22.935   4.107
34936W        W 7361  37.645  20.697   1.922
34937W        W 7362   5.283   7.230   1.097
34938W        W 7363   9.642  11.835  10.723
34939W        W 7364  11.741  12.413   4.235
34940W        W 7365   4.757  18.990   2.218
34941W        W 7366  27.984  21.573   4.581
34942W        W 7367   2.393  17.167   1.016
34943W        W 7368  27.086  18.120   4.708
34944W        W 7369   8.928  20.230  10.854
34945W        W 7370  25.014  33.379  11.032
34946W        W 7371   1.496  40.471   2.264
34947W        W 7372  30.194  34.333  11.513
34948W        W 7373  34.456  16.861  12.342
34949W        W 7374  44.434  34.375   4.610
34950W        W 7375  36.410  31.390  13.501
34951W        W 7376  12.584   1.291   2.693
34952W        W 7377  38.949  14.722   2.015
34953W        W 7378  25.199  34.866  11.467
34954W        W 7379   7.775   9.292   4.688
34955W        W 7380   3.237  29.120  11.037
34956W        W 7381  41.438  41.931   2.208
34957W        W 7382  24.919   9.218   5.279
34958W        W 7383  44.753  23.715   4.509
34959W        W 7384   1.466  19.091  11.874
34960W        W 7385  10.728  17.935   2.399
34961W        W 7386  22.911  17.804   1.751
34962W        W 7387  16.601  18.958   2.318
34963W        W 7388  14.162  23.617   0.821
34964W        W 7389  44.272   9.412   2.750
34965W        W 7390  18.589  25.255   2.766
34966W        W 7391  23.140  34.679   3.692
34967W        W 7392  15.135  13.640   3.372
34968W        W 7393   0.549  22.025   0.484
34969W        W 7394  30.921   4.803   3.561
34970W        W 7395  23.677  31.250  14.986
34971W        W 7396  40.959  34.533   0.018
34972W        W 7397  10.916  40.968   4.532
34973W        W 7398  33.633  25.324  12.473
34974W        W 7399  33.985  39.954  12.142
34975W        W 7400  25.117  40.495   4.253
34976W        W 7401   8.273  24.435  11.623
34977W        W 7402  15.001  21.245  10.705
34978W        W 7403   6.222  42.665  10.645
34979W        W 7404   9.888  39.252   2.923
34980W        W 7405  25.156  33.809  14.926
34981W        W 7406  22.740  13.155   1.721
34982W        W 7407  36.200  15.598   1.840
34983W        W 7408  21.703  22.079  14.037
34984W        W 7409  16.574   7.170  12.929
34985W        W 7410  42.401  42.602   1.300
34986W        W 7411  11.435   7.864  13.042
34987W        W 7412  16.219  37.552  12.026
34988W        W 7413  40.408  35.568   1.174
34989W        W 7414  19.232   4.359   3.635
34990W        W 7415  27.934  12.426  11.095
34991W        W 7416  34.418  43.471   3.729
34992W        W 7417  43.307   8.908   4.670
34993W        W 7418  40.378  44.457  11.081
34994W        W 7419   9.706  16.842  11.217
34995W        W 7420  38.246  25.414   0.692
34996W        W 7421   4.866   0.586   1.339
34997W        W 7422  38.892   2.530   0.530
34998W        W 7423   3.413  11.301   1.239
34999W        W 7424  14.743   1.396   4.405
35000W        W 7425  11.661   2.747  13.354
35001W        W 7426  31.412  13.153   0.878
35002W        W 7427  30.138  22.059   4.129
35003W        W 7428   9.394  12.873   2.687
35004W        W 7429  29.449  21.274  10.642
35005W        W 7430  40.936  44.095  12.409
35006W        W 7431  17.630  38.313  11.039
35007W        W 7432  16.768  26.649  10.596
35008W        W 7433  36.477  23.730  10.814
35009W        W 7434  31.545  40.857  11.907
35010W        W 7435  24.135  14.810   2.699
35011W        W 7436   3.029  42.351  11.610
35012W        W 7437   6.217  41.480   4.775
35013W        W 7438  34.658  43.990  12.503
35014W        W 7439  42.202  38.567  11.459
35015W        W 7440  14.324  19.635  13.424
35016W        W 7441  37.383  24.604   4.382
35017W        W 7442  29.935   5.901  13.866
35018W        W 7443  20.575   9.613   4.076
35019W        W 7444  32.735  44.122   1.634
35020W        W 7445   3.211  41.609  12.071
35021W        W 7446  12.096  38.297  12.009
35022W        W 7447   9.401  38.379  13.522
35023W        W 7448  31.900  24.507  10.500
35024W        W 7449   6.005  16.844   1.536
35025W        W 7450  29.062  31.436  10.626
35026W        W 7451  29.038  41.024   1.362
35027W        W 7452   1.715   4.040   4.072
35028W        W 7453  31.052  19.809  14.422
35029W        W 7454  12.334  26.432   0.022
35030W        W 7455  35.353  12.593  13.793
35031W        W 7456  43.470  27.088  13.693
35032W        W 7457  29.302  27.433   1.474
35033W        W 7458  19.461   6.758   0.746
35034W        W 7459  28.082  26.629   2.624
35035W        W 7460  33.551  18.077   9.792
35036W        W 7461   2.488  31.194   3.201
35037W        W 7462  30.638   4.954   0.842
35038W        W 7463  35.384   0.442  12.948
35039W        W 7464   8.286  27.308  14.379
35040W        W 7465  31.321  24.180  12.326
35041W        W 7466  33.362  39.326   4.263
35042W        W 7467  13.672   3.469  14.298
35043W        W 7468  14.725  27.513  11.699
35044W        W 7469  26.556  36.013  12.309
35045W        W 7470  15.455  22.652   9.750
35046W        W 7471   8.931  37.789   5.175
35047W        W 7472  11.846   5.637   4.824
35048W        W 7473   7.191  12.847   3.833
35049W        W 7474  11.114  15.634   2.352
35050W        W 7475   2.270  37.007   1.224
35051W        W 7476  27.548  11.053  11.048
35052W        W 7477  26.129   6.920   3.342
35053W        W 7478   9.159   9.404  10.986
35054W        W 7479  44.154  23.539   0.096
35055W        W 7480   2.554  13.319  11.638
35056W        W 7481  31.019  28.743   1.323
35057W        W 7482   9.474  26.613   5.054
35058W        W 7483  43.101  23.669  14.501
35059W        W 7484   5.921  42.462  11.586
35060W        W 7485  12.834  11.413   4.092
35061W        W 7486  15.312   9.911  14.466
35062W        W 7487  42.430  27.078   1.274
35063W        W 7488  35.513  12.822  12.446
35064W        W 7489   9.136  36.486   4.573
35065W        W 7490  15.318  39.861   1.890
35066W        W 7491   8.684  27.546  13.599
35067W        W 7492  34.516  15.316   0.392
35068W        W 7493  39.980  13.593   2.275
35069W        W 7494  30.197  25.295  10.521
35070W        W 7495  21.210  43.837   2.344
35071W        W 7496  30.570  33.964  11.545
35072W        W 7497  23.473   7.244   4.814
35073W        W 7498  28.693  41.826  14.415
35074W        W 7499   4.557  38.828  11.083
35075W        W 7500   6.714   5.099   2.174
35076W        W 7501  11.854  36.462  11.073
35077W        W 7502   0.516  13.260   4.713
35078W        W 7503  27.030  44.544  12.569
35079W        W 7504   8.759  31.224  11.255
35080W        W 7505   1.710  43.325  13.004
35081W        W 7506  11.906  37.967   0.657
35082W        W 7507   4.864  41.307  10.716
35083W        W 7508  18.857   1.339   0.429
35084W        W 7509  21.791  31.741   0.338
35085W        W 7510  36.513  38.951  10.599
35086W        W 7511   9.826   6.661   2.951
35087W        W 7512  35.215  13.300  13.498
35088W        W 7513  40.793  43.335   4.580
35089W        W 7514  30.033   2.453  10.402
35090W        W 7515  13.666   2.708   2.730
35091W        W 7516   3.167   8.826  13.039
35092W        W 7517  29.032  14.985  14.564
35093W        W 7518   2.879  22.196   4.692
35094W        W 7519   2.736  11.256  10.691
35095W        W 7520  42.359  20.922  14.223
35096W        W 7521  18.364   6.170   2.686
35097W        W 7522  16.149  34.663   4.680
35098W        W 7523  42.860  25.691   1.668
35099W        W 7524  40.894  17.509   3.395
35100W        W 7525  13.326  42.030   0.769
35101W        W 7526  10.309   2.458   4.964
35102W        W 7527   8.454  17.643  11.436
35103W        W 7528  26.636  18.794   3.767
35104W        W 7529   9.171  42.893  14.448
35105W        W 7530  41.826  12.066   0.806
35106W        W 7531   3.906  30.984   2.322
35107W        W 7532   0.372  28.433   0.927
35108W        W 7533  19.219   4.534   2.202
35109W        W 7534  35.517  10.076  11.092
35110W        W 7535  42.208  44.384  10.908
35111W        W 7536  11.348   8.077   0.451
35112W        W 7537  28.958  37.075  13.949
35113W        W 7538  35.554  36.300  13.391
35114W        W 7539  35.375  26.180   3.735
35115W        W 7540  34.289  29.763  13.830
35116W        W 7541  17.315  26.178  13.479
35117W        W 7542  16.892  19.582   4.490
35118W        W 7543  21.675   7.813   0.345
35119W        W 7544   6.223  19.768   0.734
35120W        W 7545  40.121   6.429   1.294
35121W        W 7546  28.087  28.141   0.830
35122W        W 7547  19.225  34.736  13.300
35123W        W 7548   1.238   1.568  12.079
35124W        W 7549  12.689   1.813   0.060
35125W        W 7550  11.230  11.644  13.533
35126W        W 7551  11.967  31.921  11.516
35127W        W 7552   4.321  40.122   0.793
35128W        W 7553  33.938  17.110  12.865
35129W        W 7554  10.317  43.423  11.111
35130W        W 7555   3.710  10.648   0.008
35131W        W 7556  37.018  29.687  11.142
35132W        W 7557  20.489  18.850  11.675
35133W        W 7558  35.104  10.695  14.470
35134W        W 7559  40.112  35.427   1.824
35135W        W 7560   8.172   9.740   4.061
35136W        W 7561  40.413  42.285   0.684
35137W        W 7562  25.127  15.230   2.097
35138W        W 7563  17.013   6.349  14.064
35139W        W 7564  16.229  23.015   0.738
35140W        W 7565  33.806  37.067   2.759
35141W        W 7566  44.970  25.030  12.056
35142W        W 7567  43.516  15.610   1.310
35143W        W 7568  17.516  14.653   3.289
35144W        W 7569  10.606  29.729   4.629
35145W        W 7570  34.044  19.718   5.164
35146W        W 7571  13.412  42.061  10.305
35147W        W 7572   4.737  11.288   3.783
35148W        W 7573  33.346  10.130  10.893
35149W        W 7574  26.579  37.036   2.142
35150W        W 7575  36.808   4.514  14.469
35151W        W 7576  14.347   9.732  11.762
35152W        W 7577  42.495  22.602   0.759
35153W        W 7578  17.725  11.127  14.453
35154W        W 7579   9.300  24.174   3.376
35155W        W 7580   1.982  36.574   2.943
35156W        W 7581  37.409  33.489  12.146
35157W        W 7582  20.000  11.341  13.912
35158W        W 7583  41.302   5.736   1.479
35159W        W 7584   2.982  37.990   2.814
35160W        W 7585  34.550  17.793   4.372
35161W        W 7586  24.933  35.671   0.310
35162W        W 7587  19.370   5.137  10.716
35163W        W 7588  38.088   6.752  11.590
35164W        W 7589  14.209  40.554  11.375
35165W        W 7590  19.871  38.563  12.928
35166W        W 7591   0.028  21.245   0.979
35167W        W 7592  35.511  18.571  14.763
35168W        W 7593   8.841  14.337  12.029
35169W        W 7594  32.316  36.935  14.273
35170W        W 7595  10.854   0.873   0.447
35171W        W 7596  40.427  19.224  13.438
35172W        W 7597  33.856  25.082  14.570
35173W        W 7598  31.601  42.463  13.726
35174W        W 7599   2.480   6.135  13.009
35175W        W 7600   5.438  36.386   0.693
35176W        W 7601  33.055  20.141  12.304
35177W        W 7602   5.907   4.051  11.180
35178W        W 7603   4.664  29.938   3.593
35179W        W 7604   0.736   1.225   4.534
35180W        W 7605  26.121  27.157   1.762
35181W        W 7606  20.173  29.835   0.774
35182W        W 7607   7.883   5.478   1.897
35183W        W 7608  18.420  28.266  14.830
35184W        W 7609  31.903  13.887   0.390
35185W        W 7610  23.137  32.356  11.127
35186W        W 7611  13.548  29.234   1.550
35187W        W 7612  23.963  24.578  11.006
35188W        W 7613   3.183   5.290   1.733
35189W        W 7614  12.647  24.703   3.285
35190W        W 7615  20.599   2.711   3.304
35191W        W 7616  16.705   5.802   4.705
35192W        W 7617  30.019  41.704   2.681
35193W        W 7618  20.402  30.003   9.687
35194W        W 7619  30.151  26.191   0.448
35195W        W 7620  23.644  36.073  14.142
35196W        W 7621  36.019  11.130  11.701
35197W        W 7622  40.356   2.484  11.195
35198W        W 7623  25.571  30.374  12.985
35199W        W 7624  39.984   1.444   2.030
35200W        W 7625  28.447  25.437  11.024
35201W        W 7626   2.666   9.508  13.020
35202W        W 7627   9.844  39.775   2.830
35203W        W 7628  23.588  17.197  11.521
35204W        W 7629  42.827  26.456   9.932
35205W        W 7630   6.491  15.866   4.990
35206W        W 7631  25.217  13.665  12.042
35207W        W 7632  37.884  28.643  13.846
35208W        W 7633  37.068  37.002  12.594
35209W        W 7634  31.597   8.980  11.017
35210W        W 7635  18.561  19.004   0.022
35211W        W 7636  41.748  22.041  12.996
35212W        W 7637  36.447  21.284  12.132
35213W        W 7638  18.247  32.322   9.675
35214W        W 7639   0.529  18.738  11.108
35215W        W 7640  12.226  38.728  14.393
35216W        W 7641  15.762  13.591   4.555
35217W        W 7642  35.407  15.693   2.764
35218W        W 7643  27.012  40.850   0.918
35219W        W 7644  36.381   0.827   3.839
35220W        W 7645  40.337  33.296  13.559
35221W        W 7646  23.566   5.299  14.398
35222W        W 7647  18.675   3.297  13.535
35223W        W 7648  25.044  32.864  12.567
35224W        W 7649   5.639  44.157   0.465
35225W        W 7650  24.173  37.181  10.697
35226W        W 7651  32.131   6.130  12.576
35227W        W 7652   1.387  37.154  11.176
35228W        W 7653  43.348   0.050   0.368
35229W        W 7654   5.399  23.727   3.881
35230W        W 7655  36.318  14.318   3.216
35231W        W 7656  27.353   8.707   4.106
35232W        W 7657  20.077  33.835  11.514
35233W        W 7658  11.809   8.562   4.131
35234W        W 7659  23.923  26.740  11.408
35235W        W 7660   3.925  43.665  14.787
35236W        W 7661  13.119  13.031   2.659
35237W        W 7662  16.710  25.554   3.890
35238W        W 7663   1.733  41.660  11.799
35239W        W 7664  44.522   6.599  13.360
35240W        W 7665  21.137  43.191   3.164
35241W        W 7666   1.435  29.073   0.777
35242W        W 7667  13.016  39.326  14.471
35243W        W 7668  23.651  40.150  11.753
35244W        W 7669  14.933  24.241   0.366
35245W        W 7670  35.329   9.693   2.586
35246W        W 7671  14.092   6.944   0.392
35247W        W 7672   6.416   0.763   3.094
35248W        W 7673   9.566  34.349  12.799
35249W        W 7674  24.615  33.591   2.346
35250W        W 7675  12.083  34.662  13.334
35251W        W 7676  25.019  41.051  14.728
35252W        W 7677  44.460  43.543   3.800
35253W        W 7678  26.199  35.481   0.695
35254W        W 7679  31.381  24.073   1.393
35255W        W 7680   8.308  37.912  13.905
35256W        W 7681  31.888  42.066  13.422
35257W        W 7682  39.883  35.342  12.908
35258W        W 7683  16.329   5.653   2.425
35259W        W 7684   3.792  11.186  14.307
35260W        W 7685  12.380  42.056   4.972
35261W        W 7686   2.925  35.451   2.776
35262W        W 7687   0.999  32.123   4.193
35263W        W 7688  18.339  40.087   2.176
35264W        W 7689  24.131  16.601   1.655
35265W        W 7690  23.567  22.661  14.863
35266W        W 7691   7.789  24.774  13.405
35267W        W 7692  11.810  18.115  10.646
35268W        W 7693  40.285  34.514  13.052
35269W        W 7694  15.146  14.288  12.067
35270W        W 7695  40.949  34.178  12.363
35271W        W 7696   9.467  44.231  10.945
35272W        W 7697   0.998  35.887   1.113
35273W        W 7698  12.806  37.196  13.201
35274W        W 7699  29.311   9.926  12.615
35275W        W 7700  38.385   9.217  11.034
35276W        W 7701   1.321  38.318   4.441
35277W        W 7702  11.798   9.264   1.893
35278W        W 7703   4.978   5.314  12.036
35279W        W 7704  27.632  25.348   2.998
35280W        W 7705  21.762  41.901   0.866
35281W        W 7706  11.311  17.604  14.524
35282W        W 7707  34.926  24.612   1.413
35283W        W 7708  19.040  24.704   4.584
35284W        W 7709  18.561  28.467   0.361
35285W        W 7710  24.280  29.548   3.270
35286W        W 7711  37.603  12.221  11.623
35287W        W 7712  13.340  11.404  11.661
35288W        W 7713  23.165  22.287  10.680
35289W        W 7714   5.260  32.999  14.580
35290W        W 7715  16.572  22.187  11.952
35291W        W 7716  28.096  10.198  11.139
35292W        W 7717  38.820   9.568  14.427
35293W        W 7718  20.258  25.707   3.788
35294W        W 7719   6.805  28.630   3.596
35295W        W 7720  18.041  22.180  13.764
35296W        W 7721  32.530  27.189   4.358
35297W        W 7722   8.098   3.098   2.764
35298W        W 7723  11.817  27.530  12.410
35299W        W 7724   9.442  23.277  14.529
35300W        W 7725  24.435  11.292   3.887
35301W        W 7726  18.995  30.017  13.790
35302W        W 7727  41.882  12.679  10.742
35303W        W 7728   3.104  39.497   2.641
35304W        W 7729  20.067   8.761   0.742
35305W        W 7730   7.346  33.457   3.831
35306W        W 7731  20.084  36.339   1.800
35307W        W 7732  42.545  19.079  14.246
35308W        W 7733  35.764   4.432   1.419
35309W        W 7734  16.735   7.815  11.145
35310W        W 7735  20.662  33.201   3.865
35311W        W 7736  32.145  22.297  14.946
35312W        W 7737   4.806  40.196   4.155
35313W        W 7738  38.490  22.746  11.849
35314W        W 7739  31.498   5.155  12.793
35315W        W 7740  30.092   1.932   4.400
35316W        W 7741  44.925  13.471  12.883
35317W        W 7742  16.985  40.295   1.347
35318W        W 7743   7.309  32.392  11.980
35319W        W 7744  21.016   6.167   0.824
35320W        W 7745  36.623  32.425   4.845
35321W        W 7746  12.220  17.836  14.030
35322W        W 7747   3.850  41.967   4.589
35323W        W 7748  41.833  38.887   5.265
35324W        W 7749  16.168  22.628   1.100
35325W        W 7750  19.408  10.414  12.577
35326W        W 7751   2.563  36.199   2.128
35327W        W 7752  24.098   3.455  12.929
35328W        W 7753   5.821  13.133  12.885
35329W        W 7754  26.074  10.848  10.738
35330W        W 7755  13.272   0.337  14.044
35331W        W 7756  34.221   6.408   0.139
35332W        W 7757  24.917  36.805   5.220
35333W        W 7758  27.472  14.589   1.302
35334W        W 7759  42.400  40.489  11.585
35335W        W 7760  44.100  13.322   3.228
35336W        W 7761  19.294  39.882   4.543
35337W        W 7762   5.914  42.968   3.738
35338W        W 7763  13.723  22.648   0.693
35339W        W 7764  26.466  19.068  14.889
35340W        W 7765   4.064   1.946   0.335
35341W        W 7766   6.756   2.945  11.585
35342W        W 7767   2.859  23.536   2.115
35343W        W 7768   9.155  10.022   3.295
35344W        W 7769  19.984  31.501   5.064
35345W        W 7770  22.826  42.033  14.973
35346W        W 7771  12.022  25.630  12.039
35347W        W 7772  11.876   9.170   4.646
35348W        W 7773  39.485  20.249   4.518
35349W        W 7774   1.969  35.513  14.294
35350W        W 7775  17.104  29.224   0.338
35351W        W 7776  25.976  35.905   3.772
35352W        W 7777  40.980  34.969   0.895
35353W        W 7778  26.735  40.013  12.126
35354W        W 7779  33.723  31.973  14.953
35355W        W 7780  29.692  24.407  12.083
35356W        W 7781   1.362  10.599   1.887
35357W        W 7782   5.878   1.312  12.799
35358W        W 7783  13.015   9.923  14.830
35359W        W 7784  35.154  34.151   0.555
35360W        W 7785  16.191  29.352   1.292
35361W        W 7786   0.761  42.726  12.990
35362W        W 7787  17.230   7.343  12.407
35363W        W 7788  34.548  10.748  11.918
35364W        W 7789   9.908  30.289   2.729
35365W        W 7790  27.535  28.642   1.851
35366W        W 7791  30.046  20.643   1.157
35367W        W 7792  34.622   2.282   0.690
35368W        W 7793  29.569   3.259  12.142
35369W        W 7794  28.272  11.897  11.984
35370W        W 7795  36.842   9.760  13.436
35371W        W 7796  20.967   6.948  11.894
35372W        W 7797  14.877  31.901   0.512
35373W        W 7798   9.468  14.203   4.176
35374W        W 7799  18.560   3.503  12.135
35375W        W 7800  14.874  23.726   0.427
35376W        W 7801  22.567  34.104   2.598
35377W        W 7802  41.545  19.504  14.901
35378W        W 7803  28.493   0.118   0.775
35379W        W 7804   2.430  32.467   1.691
35380W        W 7805  10.354  16.748   1.977
35381W        W 7806  24.961  12.921  13.360
35382W        W 7807   1.691  31.774   3.643
35383W        W 7808  18.615  39.831   4.034
35384W        W 7809  15.027  41.057   0.490
35385W        W 7810  36.874  24.355   4.148
35386W        W 7811   5.869  43.360   0.588
35387W        W 7812  32.466   5.273   1.760
35388W        W 7813  24.286   2.796   4.817
35389W        W 7814  41.931   5.876   2.264
35390W        W 7815  38.048  36.084  13.614
35391W        W 7816  41.484  41.607  14.942
35392W        W 7817   6.420   5.110  13.467
35393W        W 7818   1.428   1.779  13.913
35394W        W 7819  15.803  42.383   0.448
35395W        W 7820   0.051  34.425   1.659
35396W        W 7821   7.675   8.357   3.023
35397W        W 7822  22.562  15.131  12.175
35398W        W 7823  13.395   2.134  12.109
35399W        W 7824   2.991  11.794  13.361
35400W        W 7825  20.675   6.620   0.816
35401W        W 7826  20.331  21.475  14.876
35402W        W 7827   7.436  33.855   0.432
35403W        W 7828  12.840  33.969   4.782
35404W        W 7829  23.546  39.327   0.899
35405W        W 7830   9.396  25.047  13.990
35406W        W 7831  20.701  21.749  13.981
35407W        W 7832  20.745  23.736  14.227
35408W        W 7833  32.349  25.196   2.855
35409W        W 7834   8.701   8.869  13.326
35410W        W 7835  18.612   3.023  14.012
35411W        W 7836   5.304   5.771   2.490
35412W        W 7837   6.413  44.355   4.143
35413W        W 7838  14.264   3.874   2.715
35414W        W 7839  14.341  33.844   3.727
35415W        W 7840  27.953   9.377  10.916
35416W        W 7841  32.427  13.593   0.453
35417W        W 7842  28.130  39.762   5.500
35418W        W 7843  30.993  26.122   2.894
35419W        W 7844  44.470  19.197  13.903
35420W        W 7845  34.512   8.673  13.564
35421W        W 7846   0.474  43.946  13.276
35422W        W 7847  10.679  10.667  13.782
35423W        W 7848  41.109  32.571  12.346
35424W        W 7849  38.972  42.103   4.954
35425W        W 7850  43.072   8.635   1.649
35426W        W 7851  13.410  44.764   2.270
35427W        W 7852  21.648  24.883   4.533
35428W        W 7853  19.009  16.220   3.267
35429W        W 7854  24.458  35.034  13.431
35430W        W 7855  27.069  33.093  10.316
35431W        W 7856  27.954   2.063  12.448
35432W        W 7857  22.597  10.131   0.731
35433W        W 7858   0.871  36.160  14.711
35434W        W 7859  26.745  17.114   0.322
35435W        W 7860  18.549  35.335  11.636
35436W        W 7861  31.170  29.740   4.192
35437W        W 7862   2.471  13.939  10.690
35438W        W 7863  35.634   8.190   3.683
35439W        W 7864  42.762  44.295   0.013
35440W        W 7865  30.847  14.530  11.960
35441W        W 7866  30.277  32.017   1.239
35442W        W 7867   7.811   7.645   0.045
35443W        W 7868   1.885  27.053  11.714
35444W        W 7869  22.999   0.878   2.897
35445W        W 7870  37.436   8.641  14.668
35446W        W 7871  13.166  18.216  13.066
35447W        W 7872   5.759  19.437   2.198
35448W        W 7873  16.862  25.603  14.263
35449W        W 7874  34.889  37.129  14.989
35450W        W 7875  25.598  22.535  13.928
35451W        W 7876  41.573  32.101   2.949
35452W        W 7877  44.539  15.177  11.069
35453W        W 7878  12.658  41.999  13.942
35454W        W 7879  12.238   4.340   0.689
35455W        W 7880  29.408  38.663  14.401
35456W        W 7881  35.925  38.882  14.470
35457W        W 7882  25.077  40.113  13.843
35458W        W 7883  30.103  36.118   0.710
35459W        W 7884  20.715  31.599  13.773
35460W        W 7885  21.669  23.176  13.140
35461W        W 7886  11.126  28.924   3.134
35462W        W 7887  32.448  25.552  14.301
35463W        W 7888  14.349  24.079   3.293
35464W        W 7889  42.988  44.197   2.274
35465W        W 7890  18.629   5.297   4.257
35466W        W 7891  38.399   1.270  11.141
35467W        W 7892  26.284   9.778   1.838
35468W        W 7893  19.146  14.875  12.607
35469W        W 7894  33.966  31.002   3.637
35470W        W 7895  21.973  24.829   1.914
35471W        W 7896  16.794   5.745   2.699
35472W        W 7897  17.005  28.176   1.805
35473W        W 7898  14.294  14.097   3.846
35474W        W 7899  34.369  39.850  11.808
35475W        W 7900  35.972  30.191   1.568
35476W        W 7901  18.927  35.869   0.286
35477W        W 7902  32.209  14.431   4.586
35478W        W 7903  22.442   1.969  10.249
35479W        W 7904  18.140  15.334  11.552
35480W        W 7905  17.549  17.970  13.807
35481W        W 7906  23.002  28.620   1.016
35482W        W 7907  13.718   1.791   1.413
35483W        W 7908  40.930   8.299   4.718
35484W        W 7909  44.753  35.626  14.640
35485W        W 7910   3.473   3.428   1.860
35486W        W 7911  35.889  26.192   3.714
35487W        W 7912  38.310  33.042  13.086
35488W        W 7913  17.158  10.064   4.757
35489W        W 7914  17.671   6.947  14.351
35490W        W 7915   5.360  41.608  11.588
35491W        W 7916  30.957  35.473   0.232
35492W        W 7917   0.032  19.172  11.604
35493W        W 7918  40.323   0.757   3.678
35494W        W 7919  39.392   7.859  14.439
35495W        W 7920   2.493  39.239   2.331
35496W        W 7921   3.925  36.370  13.153
35497W        W 7922  36.079  17.228   3.786
35498W        W 7923   8.904  36.160  12.182
35499W        W 7924  44.765  15.596   1.019
35500W        W 7925  25.159  42.109   1.276
35501W        W 7926  42.703  18.193   3.115
35502W        W 7927  35.414   8.272   1.169
35503W        W 7928   1.258  13.802   2.273
35504W        W 7929  40.435  37.394   2.675
35505W        W 7930  18.729  21.193  12.418
35506W        W 7931  29.651  44.751   4.084
35507W        W 7932  32.516   8.365   3.261
35508W        W 7933  32.982  40.226   4.020
35509W        W 7934   6.227  22.110   2.643
35510W        W 7935   0.056  28.032  11.388
35511W        W 7936  15.649  33.159  14.520
35512W        W 7937  41.843  14.102   0.720
35513W        W 7938  41.871   5.194   0.284
35514W        W 7939   7.925  43.716   4.238
35515W        W 7940   1.318   4.295  13.436
35516W        W 7941  21.619   8.249   4.609
35517W        W 7942  28.674  15.396   4.505
35518W        W 7943  24.714  10.694  14.085
35519W        W 7944   2.746  12.757  14.356
35520W        W 7945  11.767   6.657   0.985
35521W        W 7946   3.860  25.933  12.401
35522W        W 7947  19.282  10.144   9.914
35523W        W 7948  20.227  25.459   0.069
35524W        W 7949  18.199   6.832  14.250
35525W        W 7950  16.214   9.119   4.716
35526W        W 7951  34.378   7.330  11.366
35527W        W 7952  24.067  29.686   2.793
35528W        W 7953  17.871   7.717   2.639
35529W        W 7954  31.599  38.591  10.703
35530W        W 7955  34.816  30.827  10.221
35531W        W 7956  12.432  33.840  10.531
35532W        W 7957  23.406  16.092  14.831
35533W        W 7958  10.441  22.906   2.633
35534W        W 7959  41.493  39.902   2.094
35535W        W 7960   3.845  40.904   1.282
35536W        W 7961  16.787  32.544   9.694
35537W        W 7962  24.240  18.551  13.890
35538W        W 7963   2.776  13.618  13.831
35539W        W 7964  41.339   8.287  14.644
35540W        W 7965  18.741  41.805  11.970
35541W        W 7966  22.492  31.039   0.580
35542W        W 7967   4.878  25.505  14.489
35543W        W 7968   2.310  44.627  11.581
35544W        W 7969  21.077  17.123   4.746
35545W        W 7970  41.669  17.432  11.657
35546W        W 7971  37.333   5.608  13.089
35547W        W 7972  27.165  16.877  12.652
35548W        W 7973  44.829   3.690  12.880
35549W        W 7974  33.830  26.085   0.013
35550W        W 7975  23.041   9.088  14.458
35551W        W 7976  21.024   2.337  14.609
35552W        W 7977  42.149   1.882  10.883
35553W        W 7978   5.507   9.386  10.694
35554W        W 7979   5.913   7.536  12.934
35555W        W 7980  31.992   6.963  13.976
35556W        W 7981  33.973  43.083  14.040
35557W        W 7982  44.915  19.093   2.789
35558W        W 7983   2.759  11.189   3.323
35559W        W 7984  17.503   2.800   4.459
35560W        W 7985  16.297  10.151  14.381
35561W        W 7986   5.709  23.723   2.190
35562W        W 7987  38.035  10.836   1.357
35563W        W 7988   0.318   3.890   2.672
35564W        W 7989  15.141  31.984  11.105
35565W        W 7990  12.578  43.812   0.282
35566W        W 7991  17.057   8.907  12.109
35567W        W 7992  15.483  12.150  12.877
35568W        W 7993  24.577  16.332   3.150
35569W        W 7994   9.379  36.989   4.562
35570W        W 7995  24.688  14.272   1.035
35571W        W 7996  37.280  36.434   4.059
35572W        W 7997   0.412   8.635   4.832
35573W        W 7998  42.234  21.097  14.718
35574W        W 7999  17.145  14.511   1.259
35575W        W 8000  32.628  29.998   3.415
35576W        W 8001  37.070  37.835  11.112
35577W        W 8002   5.398  13.317   2.364
35578W        W 8003  44.234  19.361  11.179
35579W        W 8004   2.483  13.551   4.523
35580W        W 8005  10.867  32.386   0.308
35581W        W 8006  24.702  15.526  11.126
35582W        W 8007  13.783   8.358   3.726
35583W        W 8008  27.305  32.596  11.565
35584W        W 8009   5.305  19.571  13.619
35585W        W 8010  38.417  38.426   2.068
35586W        W 8011  27.555  33.021  13.838
35587W        W 8012  13.626  33.242   4.527
35588W        W 8013  44.383  37.021  14.801
35589W        W 8014  13.228  11.875  12.424
35590W        W 8015  11.577   7.285  10.106
35591W        W 8016  43.924  27.580  12.534
35592W        W 8017  31.936  40.771   4.172
35593W        W 8018  36.495  23.983   4.193
35594W        W 8019  43.279  16.934   2.431
35595W        W 8020  23.998  37.113  12.059
35596W        W 8021  37.318  12.581   3.448
35597W        W 8022   0.314  33.540  10.715
35598W        W 8023  16.158   1.337  11.000
35599W        W 8024  23.643  37.066   0.449
35600W        W 8025   1.729   3.344  12.721
35601W        W 8026  31.396  27.448  14.785
35602W        W 8027  43.198  27.124  14.741
35603W        W 8028  14.601  11.032  14.956
35604W        W 8029  29.797   8.391  11.244
35605W        W 8030  10.091  28.676   0.672
35606W        W 8031  16.789  26.131   3.377
35607W        W 8032  21.289  21.424  10.004
35608W        W 8033  36.992  27.596   2.088
35609W        W 8034  28.606   9.612   1.886
35610W        W 8035  35.151   0.446  12.434
35611W        W 8036  43.446  41.345  11.708
35612W        W 8037   3.741  12.315   2.717
35613W        W 8038  18.782  21.013  13.820
35614W        W 8039  31.955  19.964  11.459
35615W        W 8040  40.284  21.975   0.240
35616W        W 8041   8.373  27.398  11.165
35617W        W 8042  38.517  23.625  14.909
35618W        W 8043  13.624  30.637   4.565
35619W        W 8044  23.671  41.963   4.518
35620W        W 8045   4.912  30.223   4.440
35621W        W 8046  39.373   4.368   1.657
35622W        W 8047  43.423  43.012   0.220
35623W        W 8048  11.937  33.484  11.559
35624W        W 8049  26.634   3.301   3.849
35625W        W 8050  31.195  17.694   0.293
35626W        W 8051  27.910  44.402  10.979
35627W        W 8052  41.258  22.151   4.604
35628W        W 8053   8.719  21.484   0.389
35629W        W 8054  16.352  27.990   2.357
35630W        W 8055   9.640  17.712   0.445
35631W        W 8056  20.625  25.351  14.348
35632W        W 8057  20.540  17.674   3.116
35633W        W 8058  13.181  29.301   4.685
35634W        W 8059   7.368   1.236   1.292
35635W        W 8060   5.690  34.943  10.703
35636W        W 8061  42.244  10.333  12.403
35637W        W 8062  41.239  27.868   2.788
35638W        W 8063   9.120  19.615  14.761
35639W        W 8064  27.270  41.584  13.036
35640W        W 8065  42.165  15.292   4.160
35641W        W 8066  27.173  23.184  14.558
35642W        W 8067  34.035   4.988  12.682
35643W        W 8068  39.387  35.154   3.575
35644W        W 8069   7.722   0.712   0.552
35645W        W 8070   3.831  15.306  12.321
35646W        W 8071  18.893   5.010   0.727
35647W        W 8072   1.790  20.652  14.464
35648W        W 8073   1.333  42.730   0.388
35649W        W 8074   1.296   5.219  13.586
35650W        W 8075  37.062  40.563  14.111
35651W        W 8076  20.346  24.127   1.261
35652W        W 8077  12.090  20.135  14.268
35653W        W 8078  27.744  35.457   2.973
35654W        W 8079   1.627   3.895   3.104
35655W        W 8080  18.854  20.227   2.976
35656W        W 8081  17.316   7.910   1.318
35657W        W 8082  23.349  39.237  12.593
35658W        W 8083   9.517  12.389   0.842
35659W        W 8084  22.212  30.954  14.439
35660W        W 8085  40.831  40.588  12.488
35661W        W 8086   8.383  24.322   3.726
35662W        W 8087  40.134  36.430   4.362
35663W        W 8088  37.583  39.961  13.038
35664W        W 8089  13.981  27.346   3.978
35665W        W 8090  12.236  20.752   3.060
35666W        W 8091  30.561   4.979  14.962
35667W        W 8092  17.145  29.160  10.890
35668W        W 8093  20.221   7.532   1.380
35669W        W 8094  24.634  27.506  13.320
35670W        W 8095  35.626   2.197   0.381
35671W        W 8096  44.374   0.272   2.379
35672W        W 8097  18.973  40.935   2.732
35673W        W 8098  11.108  23.672   1.862
35674W        W 8099  17.545  24.522   4.526
35675W        W 8100  17.934  32.418  10.059
35676W        W 8101  29.665  17.816   0.538
35677W        W 8102   9.526  12.915   1.021
35678W        W 8103  34.023  41.352   2.460
35679W        W 8104  36.076  23.663   2.607
35680W        W 8105  33.841  14.386   0.881
35681W        W 8106   2.467  34.690   1.897
35682W        W 8107  44.717  14.663  11.098
35683W        W 8108   0.711   3.258   3.195
35684W        W 8109  15.571  39.429  11.192
35685W        W 8110  17.283  10.753  14.885
35686W        W 8111   1.614   4.274  13.017
35687W        W 8112  26.693  36.135   2.223
35688W        W 8113  37.821  32.098  14.369
35689W        W 8114   2.649  29.492   2.342
35690W        W 8115   6.401  43.356   3.245
35691W        W 8116  39.041  33.893   2.892
35692W        W 8117   0.707  26.631   0.056
35693W        W 8118  28.009  38.393  11.041
35694W        W 8119   2.741  11.712   3.286
35695W        W 8120   4.754   2.151   5.258
35696W        W 8121  44.021  10.518   0.738
35697W        W 8122  24.893  24.172  10.856
35698W        W 8123   4.318  12.985   3.598
35699W        W 8124   2.398  18.090   0.069
35700W        W 8125   0.914   5.411   4.763
35701W        W 8126   7.513  15.637   1.435
35702W        W 8127   0.671   8.828  10.213
35703W        W 8128  21.014  22.893  13.905
35704W        W 8129  33.132   0.289   0.947
35705W        W 8130  10.385   6.747   2.363
35706W        W 8131   6.467   3.214   4.503
35707W        W 8132  40.900   8.366   1.372
35708W        W 8133   1.455  36.818  14.824
35709W        W 8134  29.221  31.380   4.003
35710W        W 8135  11.579  32.844  11.464
35711W        W 8136   2.758  34.085  14.070
35712W        W 8137  20.816  20.248   3.355
35713W        W 8138   1.895   5.787  14.092
35714W        W 8139  28.005  13.701  10.626
35715W        W 8140   6.392  17.350   2.700
35716W        W 8141   0.865  27.727  13.999
35717W        W 8142   9.709  16.433   3.763
35718W        W 8143  20.456  17.262  13.450
35719W        W 8144  43.259  10.387  13.324
35720W        W 8145  40.332  13.348  13.426
35721W        W 8146  24.319   8.361  10.151
35722W        W 8147  34.027  40.356   0.595
35723W        W 8148   9.493  37.904  10.589
35724W        W 8149  41.222   8.170   0.751
35725W        W 8150  26.119  44.544  12.475
35726W        W 8151   6.255  18.724  12.721
35727W        W 8152  32.612   2.364  12.434
35728W        W 8153   0.601  26.646   3.517
35729W        W 8154   7.387  17.702  11.659
35730W        W 8155  18.326  13.670   3.708
35731W        W 8156   0.618  30.926   3.666
35732W        W 8157  32.449  39.169   1.953
35733W        W 8158  32.027   5.428   2.667
35734W        W 8159  23.325  16.644   3.785
35735W        W 8160  12.582  32.061   1.243
35736W        W 8161  39.524  43.590   4.309
35737W        W 8162  29.516  13.866  12.084
35738W        W 8163   7.803   4.772  12.796
35739W        W 8164   6.828  24.465   0.589
35740W        W 8165   0.619   0.959  11.829
35741W        W 8166  29.155   4.962   2.200
35742W        W 8167  27.383  10.325   1.393
35743W        W 8168  20.560   6.825   3.119
35744W        W 8169  28.470  38.498  13.163
35745W        W 8170  30.934  29.440   0.886
35746W        W 8171  26.390  10.656  12.514
35747W        W 8172  40.885  29.834   0.769
35748W        W 8173  23.059  25.267   4.050
35749W        W 8174  42.812  36.406  10.599
35750W        W 8175  18.745  36.875   1.580
35751W        W 8176   5.278   0.239   4.598
35752W        W 8177  18.592  24.163  12.653
35753W        W 8178  27.419  38.020  10.358
35754W        W 8179  11.913  35.506   3.311
35755W        W 8180  28.185  33.327   5.522
35756W        W 8181   0.529  27.844   3.350
35757W        W 8182  24.822  42.761   4.716
35758W        W 8183  25.750  17.378   2.859
35759W        W 8184  25.183   1.938   4.514
35760W        W 8185  38.530  22.030   0.511
35761W        W 8186  27.943  12.331   1.916
35762W        W 8187  12.878  37.913   4.251
35763W        W 8188   8.847  32.143   1.846
35764W        W 8189  33.341  25.839  13.964
35765W        W 8190  35.602  42.483  10.802
35766W        W 8191  35.283  41.567  10.591
35767W        W 8192  17.790  23.355  13.478
35768W        W 8193  30.775  24.110  10.187
35769W        W 8194  11.240  31.790   3.234
35770W        W 8195  36.421  43.358   4.972
35771W        W 8196  35.984  43.327  13.394
35772W        W 8197  22.548  19.499  11.237
35773W        W 8198  33.523  21.885  12.333
35774W        W 8199   9.075  24.630   3.123
35775W        W 8200  23.581  39.717  12.694
35776W        W 8201  31.466  40.336   4.789
35777W        W 8202   6.233   6.711  14.930
35778W        W 8203  31.363  14.748   4.793
35779W        W 8204   3.638  32.653   4.632
35780W        W 8205  28.507  29.230   2.627
35781W        W 8206  35.094  32.627  11.578
35782W        W 8207   5.356  33.972   4.052
35783W        W 8208  42.257   7.452  14.532
35784W        W 8209  35.781  37.460  10.762
35785W        W 8210   3.304  12.172  14.663
35786W        W 8211  10.679  13.755  14.263
35787W        W 8212   6.330  18.770  11.680
35788W        W 8213   9.993  44.698  14.842
35789W        W 8214  30.339  31.361   2.757
35790W        W 8215  26.736  42.335   1.900
35791W        W 8216  40.564  21.298  12.872
35792W        W 8217  28.689  40.385   3.464
35793W        W 8218  31.546  33.908   4.176
35794W        W 8219  21.479  25.959  12.951
35795W        W 8220   5.419  29.574  12.116
35796W        W 8221  31.991  21.307  10.009
35797W        W 8222  13.494  12.310   4.492
35798W        W 8223  37.120   0.340   0.345
35799W        W 8224  13.159  14.029   1.716
35800W        W 8225   8.867   3.020  13.516
35801W        W 8226  31.458  16.742   2.646
35802W        W 8227   5.290  36.143  10.827
35803W        W 8228  37.949  22.002   2.310
35804W        W 8229   3.319  31.475  10.839
35805W        W 8230  44.818  30.192   4.671
35806W        W 8231  44.459  37.467   1.216
35807W        W 8232  10.828  41.732   3.800
35808W        W 8233  30.422  39.747   1.671
35809W        W 8234  33.029  42.007   2.925
35810W        W 8235  17.721  15.250  11.835
35811W        W 8236  41.073   7.306  12.720
35812W        W 8237  11.609  21.207   4.521
35813W        W 8238  30.501   3.389  14.519
35814W        W 8239  25.980  16.106  12.349
35815W        W 8240   6.609  44.653  10.383
35816W        W 8241   3.388  41.693  12.862
35817W        W 8242  22.585  41.406   3.237
35818W        W 8243  43.938  38.303   0.897
35819W        W 8244  36.744  28.040   4.566
35820W        W 8245  24.990  40.158  10.769
35821W        W 8246  19.648  15.114   4.840
35822W        W 8247   9.778  39.615   1.982
35823W        W 8248  19.691  33.051   4.571
35824W        W 8249  16.834  24.966   3.186
35825W        W 8250  38.622  26.162   0.438
35826W        W 8251  15.313  32.250  14.665
35827W        W 8252  40.653  24.331   1.341
35828W        W 8253  35.342  13.210   4.214
35829W        W 8254  25.297  14.337   2.239
35830W        W 8255  23.993  16.569   2.142
35831W        W 8256  15.313  27.424   0.405
35832W        W 8257  40.360  10.520   3.381
35833W        W 8258  35.234  36.197  14.543
35834W        W 8259  43.756  13.778   3.781
35835W        W 8260   1.709  24.933  13.518
35836W        W 8261  42.032   8.194   0.403
35837W        W 8262  41.553  20.728  13.509
35838W        W 8263  12.772   7.500  14.922
35839W        W 8264  27.078  38.794   1.938
35840W        W 8265  10.645  28.201  14.423
35841W        W 8266  25.185  21.197  11.940
35842W        W 8267   4.300  44.012  14.987
35843W        W 8268  18.471   1.305  11.533
35844W        W 8269   1.445  39.838  14.595
35845W        W 8270  29.434  29.490   2.600
35846W        W 8271  16.581  12.610  11.921
35847W        W 8272  35.346  22.241   2.197
35848W        W 8273  43.770  40.969   4.867
35849W        W 8274  38.908  42.506  12.100
35850W        W 8275  32.630  43.474   0.344
35851W        W 8276  12.438  23.764   5.375
35852W        W 8277  17.617  43.463   2.553
35853W        W 8278  27.565  19.734   3.772
35854W        W 8279   4.982  13.880  12.729
35855W        W 8280  36.385  10.405  12.650
35856W        W 8281   1.067  18.079   4.171
35857W        W 8282   6.696  39.476  14.962
35858W        W 8283  35.106  11.769   2.302
35859W        W 8284  22.597  26.606  13.352
35860W        W 8285  26.406  20.472   3.701
35861W        W 8286  28.008  43.097  13.731
35862W        W 8287   7.990  26.921   3.730
35863W        W 8288  44.392  34.935  12.563
35864W        W 8289  36.705   9.233   4.558
35865W        W 8290  10.294   2.592  14.995
35866W        W 8291  20.132  10.763  10.669
35867W        W 8292  10.850  36.108   3.644
35868W        W 8293   5.993  14.696   4.325
35869W        W 8294  42.714   4.715   1.909
35870W        W 8295   4.257  38.418  11.151
35871W        W 8296  15.338   8.160   4.249
35872W        W 8297   2.090   3.769  10.552
35873W        W 8298  32.696  44.006  14.356
35874W        W 8299   3.732   4.259   3.319
35875W        W 8300  22.668  13.638  11.112
35876W        W 8301  10.331  16.860   2.973
35877W        W 8302   8.846   2.766   3.071
35878W        W 8303  42.750  12.821  10.555
35879W        W 8304   8.970  24.118  13.757
35880W        W 8305   5.630   5.436  13.948
35881W        W 8306   8.849  16.786   2.203
35882W        W 8307  18.799  29.198   0.230
35883W        W 8308  38.337  40.644  10.902
35884W        W 8309  23.969  33.943   4.101
35885W        W 8310  39.112   7.587   2.333
35886W        W 8311  14.543  36.596  12.505
35887W        W 8312  34.563   1.452   3.909
35888W        W 8313   7.341  30.726   1.835
35889W        W 8314   6.860  31.690   3.828
35890W        W 8315  29.939  22.765   4.595
35891W        W 8316  32.113  40.027   1.827
35892W        W 8317  44.634  21.722   0.351
35893W        W 8318   5.034  28.498  14.360
35894W        W 8319  33.442  22.667  11.018
35895W        W 8320  10.565   4.212  13.377
35896W        W 8321  44.875   2.834  12.581
35897W        W 8322  14.627  19.336  12.451
35898W        W 8323  26.603  42.556  13.892
35899W        W 8324  28.742  26.564  12.827
35900W        W 8325  39.619  13.737  13.247
35901W        W 8326  34.492   5.228  13.185
35902W        W 8327  10.063  22.188   3.131
35903W        W 8328  25.534   0.691  10.669
35904W        W 8329   6.739   3.531  12.431
35905W        W 8330  18.182  14.134   3.545
35906W        W 8331  44.955  30.473  12.926
35907W        W 8332  29.025  21.397  13.678
35908W        W 8333  41.907  33.025  13.482
35909W        W 8334  43.029  29.298   1.970
35910W        W 8335   4.010  17.989  10.233
35911W        W 8336  26.784  39.855   0.715
35912W        W 8337  41.497  30.035  10.650
35913W        W 8338  29.852  41.366  11.587
35914W        W 8339  20.982  31.269   0.764
35915W        W 8340   1.446  25.253   1.349
35916W        W 8341  16.897  28.941   0.871
35917W        W 8342  13.157  32.945   2.450
35918W        W 8343  22.874   4.855  13.818
35919W        W 8344  13.517  39.396  14.617
35920W        W 8345  21.364  15.319   4.203
35921W        W 8346  21.845  41.500   2.561
35922W        W 8347  35.069  33.654   3.263
35923W        W 8348   7.749  17.592  13.484
35924W        W 8349  30.667  26.176   0.382
35925W        W 8350  26.525  26.135   4.657
35926W        W 8351   0.332  17.617  11.029
35927W        W 8352  11.904  25.624   1.375
35928W        W 8353  43.878  37.115   4.162
35929W        W 8354  33.886  40.802   0.378
35930W        W 8355  37.355  15.331  14.934
35931W        W 8356  21.981  26.700  11.140
35932W        W 8357  14.147  11.375   4.664
35933W        W 8358  37.214  23.662   4.556
35934W        W 8359  37.017  14.029   4.550
35935W        W 8360  29.969  30.397   3.300
35936W        W 8361  31.442  21.959  12.975
35937W        W 8362  38.414  34.770  12.039
35938W        W 8363  24.922  10.389  14.444
35939W        W 8364  35.426  24.725   4.584
35940W        W 8365   6.362  34.283   1.961
35941W        W 8366  28.495  26.798   4.214
35942W        W 8367   4.223  32.134  12.058
35943W        W 8368  27.646  25.632   1.740
35944W        W 8369  35.658  44.926  12.475
35945W        W 8370  30.897  16.528   3.467
35946W        W 8371  32.402   7.163  10.413
35947W        W 8372  36.928  37.788   1.708
35948W        W 8373  30.152  37.105   4.106
35949W        W 8374   1.984  29.951  14.952
35950W        W 8375  13.038  37.094   2.170
35951W        W 8376  16.096  40.992   2.098
35952W        W 8377   5.619  29.312   0.952
35953W        W 8378  41.850  37.952  12.451
35954W        W 8379   4.626   6.381  10.583
35955W        W 8380  26.150  40.484  13.052
35956W        W 8381   1.753  11.399   0.899
35957W        W 8382  40.006  29.289  13.944
35958W        W 8383  24.218   1.417  14.403
35959W        W 8384  39.343  30.561   3.278
35960W        W 8385  18.903  14.095   0.852
35961W        W 8386  16.575  36.558   1.247
35962W        W 8387   3.380  14.371   2.918
35963W        W 8388   8.660  28.164  13.410
35964W        W 8389  13.108  37.418   4.140
35965W        W 8390  43.687  24.224   4.165
35966W        W 8391  12.207  24.313   1.224
35967W        W 8392  27.458  43.463  11.062
35968W        W 8393  40.793  40.943   3.186
35969W        W 8394  26.160  12.819  14.473
35970W        W 8395   6.855  23.607   4.757
35971W        W 8396   3.405  31.288  14.630
35972W        W 8397  27.876   7.619   0.931
35973W        W 8398  17.678   2.743   2.625
35974W        W 8399  40.034  42.476  11.646
35975W        W 8400  29.365  14.531  12.942
35976W        W 8401  17.739   3.261  12.678
35977W        W 8402   2.946  27.218   3.777
35978W        W 8403  22.207  31.694   1.305
35979W        W 8404   8.507  42.276   3.727
35980W        W 8405  28.001  25.672  12.513
35981W        W 8406  18.507  38.874  11.168
35982W        W 8407  25.290   3.919   0.385
35983W        W 8408  18.476   5.443   1.402
35984W        W 8409  23.928  14.895  14.974
35985W        W 8410  15.250  35.049   4.457
35986W        W 8411   6.809  18.004   0.221
35987W        W 8412  24.621   6.270  10.459
35988W        W 8413  33.399  33.069   3.527
35989W        W 8414   3.186   3.275  13.767
35990W        W 8415   5.209  19.422   3.768
35991W        W 8416  19.978  37.787   4.305
35992W        W 8417  44.912  27.707   4.142
35993W        W 8418  20.137  32.996   0.293
35994W        W 8419  43.806  21.027   1.787
35995W        W 8420  12.021   8.373   1.519
35996W        W 8421   7.709  14.479   3.613
35997W        W 8422  32.958  44.903  14.751
35998W        W 8423  39.031  30.436  11.996
35999W        W 8424  34.464  19.764  14.246
36000W        W 8425   2.456  40.405  10.889
36001W        W 8426  34.418   4.667   1.309
36002W        W 8427   2.796  35.594   1.247
36003W        W 8428  22.179  42.293   2.175
36004W        W 8429  30.073  24.045   2.743
36005W        W 8430  18.215  42.088   4.597
36006W        W 8431  39.747  16.257   0.195
36007W        W 8432  35.012  20.357  13.757
36008W        W 8433  40.030   4.894  11.657
36009W        W 8434  36.169  28.645   4.783
36010W        W 8435  32.909  16.781   5.681
36011W        W 8436  14.678  42.706  11.248
36012W        W 8437  35.054  32.367   0.027
36013W        W 8438  11.948  25.494  13.331
36014W        W 8439  31.102  38.529  13.351
36015W        W 8440  26.743  32.184  14.950
36016W        W 8441  24.695  17.209   1.746
36017W        W 8442  30.941  18.487   0.909
36018W        W 8443  27.632  14.114   2.483
36019W        W 8444  15.558   2.922   2.663
36020W        W 8445  25.087  27.058   4.057
36021W        W 8446  23.554  14.602   2.678
36022W        W 8447  43.850  13.122   1.353
36023W        W 8448  28.527  27.897   2.237
36024W        W 8449  43.088   6.842   1.413
36025W        W 8450  43.617   9.728  11.293
36026W        W 8451  43.604   7.371  12.747
36027W        W 8452  29.712   0.843   5.075
36028W        W 8453  44.298  20.858   0.337
36029W        W 8454   0.765  29.155   2.337
36030W        W 8455  21.779  43.504   4.182
36031W        W 8456  37.177   1.165  14.882
36032W        W 8457  40.990  34.048  10.466
36033W        W 8458  24.800  38.301  12.076
36034W        W 8459  38.064  36.678   3.141
36035W        W 8460  30.087  17.745  13.105
36036W        W 8461  18.305  26.883  13.175
36037W        W 8462   2.595  39.443   3.803
36038W        W 8463  42.909  43.039  12.922
36039W        W 8464  22.278  43.362  12.208
36040W        W 8465  38.969  26.536   3.078
36041W        W 8466  40.846   1.693  11.889
36042W        W 8467  11.270  44.827  14.235
36043W        W 8468  43.194   6.379  13.569
36044W        W 8469  18.701  12.247  13.930
36045W        W 8470  35.229  43.981   4.072
36046W        W 8471   4.130  39.642  10.859
36047W        W 8472  19.081  34.642  11.096
36048W        W 8473  10.153  22.533  14.046
36049W        W 8474  12.596  25.681  14.227
36050W        W 8475  40.829   8.637  10.770
36051W        W 8476  16.634  35.995  14.809
36052W        W 8477  44.022   2.397  12.369
36053W        W 8478   4.220  41.989   0.940
36054W        W 8479  15.148  18.109  12.406
36055W        W 8480   7.816  23.131  12.212
36056W        W 8481   5.733  41.363   2.149
36057W        W 8482  13.696  18.939  12.679
36058W        W 8483  24.301  27.226   3.598
36059W        W 8484  40.135  13.971   0.966
36060W        W 8485  31.670  19.962   0.751
36061W        W 8486  27.061  42.795   3.697
36062W        W 8487  10.443   1.865  14.841
36063W        W 8488  22.626   8.838   5.273
36064W        W 8489   3.288  20.462  12.014
36065W        W 8490  21.591   2.334  12.917
36066W        W 8491  17.602   6.293  10.642
36067W        W 8492  17.537  40.565  12.073
36068W        W 8493   7.136  21.145   3.188
36069W        W 8494  31.453  14.335  12.427
36070W        W 8495  24.602   7.163   1.193
36071W        W 8496  23.518  35.167   1.283
36072W        W 8497  16.624  32.888  12.807
36073W        W 8498  21.305  24.101  14.471
36074W        W 8499  43.152  17.508   1.279
36075W        W 8500  18.346  37.285  13.498
36076W        W 8501  41.837  35.953   2.269
36077W        W 8502  26.977  43.389   4.177
36078W        W 8503  40.117  20.585  13.388
36079W        W 8504  36.697   0.269   1.209
36080W        W 8505  36.153  24.139   0.356
36081W        W 8506   1.924  41.577  14.941
36082W        W 8507   8.859  39.532  10.498
36083W        W 8508   2.946  39.800  11.720
36084W        W 8509  36.383  30.317  12.254
36085W        W 8510   9.868  19.734   1.479
36086W        W 8511   4.440  15.167   4.942
36087W        W 8512   0.203  21.661   1.265
36088W        W 8513  24.976  23.291   1.139
36089W        W 8514   4.509  40.708   0.338
36090W        W 8515   3.892  34.927  14.462
36091W        W 8516   7.939  33.871  13.126
36092W        W 8517  31.660  13.627  12.780
36093W        W 8518  34.173  23.653  12.060
36094W        W 8519   6.912  35.049   4.595
36095W        W 8520  23.397  31.653  13.426
36096W        W 8521   3.243   1.712   2.867
36097W        W 8522  26.307   3.837  11.180
36098W        W 8523  20.951  10.398   1.866
36099W        W 8524  23.261  35.307  12.892
36100W        W 8525  44.501  23.658   3.201
36101W        W 8526  30.242   3.433   2.841
36102W        W 8527  22.196   7.547  14.451
36103W        W 8528   2.051   2.036  12.062
36104W        W 8529  30.513  15.610  13.637
36105W        W 8530   3.789  23.706  14.013
36106W        W 8531  12.707   6.196  14.056
36107W        W 8532  29.764   3.265  11.214
36108W        W 8533   5.380  18.862   2.717
36109W        W 8534   9.830   6.798   4.824
36110W        W 8535  43.763  21.114   1.249
36111W        W 8536  41.752  21.446  10.227
36112W        W 8537  16.517   7.688  10.660
36113W        W 8538  44.503   9.626   0.586
36114W        W 8539  26.648   7.259   4.770
36115W        W 8540  29.219  20.790  11.423
36116W        W 8541  10.294  39.404  13.763
36117W        W 8542   6.434   1.686  11.086
36118W        W 8543   2.685   6.315   3.277
36119W        W 8544   2.868   7.989  12.950
36120W        W 8545  33.107  41.953  11.003
36121W        W 8546  16.662  24.086   3.656
36122W        W 8547  16.270  27.584   1.690
36123W        W 8548   5.479  20.340  11.174
36124W        W 8549  20.980  41.803   2.555
36125W        W 8550   0.464  27.755  12.001
36126W        W 8551  13.794   0.722   3.867
36127W        W 8552  26.634  10.940  12.870
36128W        W 8553  23.674   9.363  10.613
36129W        W 8554   3.824  29.640  10.602
36130W        W 8555   5.454   3.727   3.515
36131W        W 8556   5.567  23.213  13.465
36132W        W 8557  11.768  11.742  14.332
36133W        W 8558  40.835  43.467  10.640
36134W        W 8559   6.590  44.315   3.622
36135W        W 8560  37.735  43.914  13.347
36136W        W 8561  19.523  33.880   4.149
36137W        W 8562   3.200  21.536  12.800
36138W        W 8563  33.106   1.225   4.038
36139W        W 8564   5.470  43.715   2.408
36140W        W 8565  30.734  33.159  14.354
36141W        W 8566  44.497  24.092  13.762
36142W        W 8567  21.458  39.629  11.960
36143W        W 8568  13.125   7.298   0.411
36144W        W 8569  21.751  20.193  11.139
36145W        W 8570  14.079  41.509   2.995
36146W        W 8571   1.415  37.581  12.872
36147W        W 8572  11.751  23.545   4.621
36148W        W 8573  26.513  29.953  14.725
36149W        W 8574  44.485  28.878  12.049
36150W        W 8575  26.274   4.623   4.867
36151W        W 8576  40.535  24.890   2.336
36152W        W 8577  34.542  25.764   0.410
36153W        W 8578  42.764  17.882   1.367
36154W        W 8579  42.314  37.494   0.526
36155W        W 8580   0.315  38.062  11.568
36156W        W 8581  10.229  35.453  13.753
36157W        W 8582  32.367  28.861  14.259
36158W        W 8583  27.883  33.446  12.978
36159W        W 8584  30.971  31.904  11.251
36160W        W 8585  17.062  11.707   0.347
36161W        W 8586   1.640  26.450   3.748
36162W        W 8587  14.777  36.344  12.067
36163W        W 8588   9.676  28.091   4.774
36164W        W 8589  26.769  38.832  10.448
36165W        W 8590   2.209  10.210  11.532
36166W        W 8591   7.835  43.948   0.231
36167W        W 8592   4.411  17.797   1.793
36168W        W 8593  25.750  31.982  14.414
36169W        W 8594  28.854  24.584   4.041
36170W        W 8595  31.448  39.777  13.046
36171W        W 8596  35.764  43.114   3.306
36172W        W 8597  40.942  31.508  10.566
36173W        W 8598  21.316  19.867   0.535
36174W        W 8599  31.974   6.011  12.075
36175W        W 8600  28.746  24.140  14.932
36176W        W 8601  16.300  29.620   0.865
36177W        W 8602  29.505  14.850  11.993
36178W        W 8603  29.682  30.971   0.216
36179W        W 8604  12.236  27.683  10.820
36180W        W 8605   5.149  22.710   0.819
36181W        W 8606   7.717  28.519  14.858
36182W        W 8607  36.933  29.016   1.586
36183W        W 8608  40.791  11.232   0.501
36184W        W 8609  25.617   5.717  12.006
36185W        W 8610  31.473  34.032   4.684
36186W        W 8611  10.898  13.534   0.416
36187W        W 8612  23.244  20.991  10.988
36188W        W 8613   7.322  36.370   2.675
36189W        W 8614  27.940  19.254   0.031
36190W        W 8615   9.199  44.246  12.369
36191W        W 8616  25.490  35.314  11.566
36192W        W 8617  40.921  12.134  13.734
36193W        W 8618  13.662  16.667   2.257
36194W        W 8619  21.167  16.759   2.823
36195W        W 8620  25.065  26.214   3.747
36196W        W 8621  33.452  31.166   2.754
36197W        W 8622  32.185  13.117  13.287
36198W        W 8623   3.437  28.092  11.140
36199W        W 8624   9.190  23.133   3.201
36200W        W 8625  31.377  43.398  12.454
36201W        W 8626  38.085  31.641   2.304
36202W        W 8627  20.977  19.298  12.449
36203W        W 8628  20.200  10.579   4.667
36204W        W 8629  20.680  34.485  14.358
36205W        W 8630  28.497  42.881   1.941
36206W        W 8631  27.424  37.977   4.899
36207W        W 8632  28.468  42.079   2.123
36208W        W 8633  28.557  40.479   3.951
36209W        W 8634  10.253  25.442   3.345
36210W        W 8635  24.609  18.850  10.767
36211W        W 8636  16.510  23.158   2.736
36212W        W 8637  26.518  24.618   0.398
36213W        W 8638  21.370  24.968   2.235
36214W        W 8639  22.747   5.172  11.147
36215W        W 8640  26.069   2.438   3.054
36216W        W 8641  11.162   8.801   0.214
36217W        W 8642  27.643  24.482  13.779
36218W        W 8643   7.328  39.092   2.701
36219W        W 8644  24.690  24.540   4.660
36220W        W 8645  38.571   9.697   1.205
36221W        W 8646  43.819   8.881   2.162
36222W        W 8647   0.401  13.316   0.262
36223W        W 8648  35.642  30.625   2.300
36224W        W 8649  44.243  41.302   0.219
36225W        W 8650  27.607  19.023   4.553
36226W        W 8651  20.650  21.022  12.393
36227W        W 8652  22.274  20.251   3.802
36228W        W 8653  20.263   3.154  14.248
36229W        W 8654  34.911  22.693  11.253
36230W        W 8655  32.124  28.137   1.388
36231W        W 8656  33.903  12.053   3.689
36232W        W 8657   6.259  30.469   4.636
36233W        W 8658  39.175  14.668  10.811
36234W        W 8659  14.859  11.745   2.719
36235W        W 8660   1.448  35.470   2.340
36236W        W 8661  44.871  20.084   2.381
36237W        W 8662  14.073  16.176   1.979
36238W        W 8663  42.005  22.869  10.701
36239W        W 8664  13.895  26.996  13.907
36240W        W 8665  32.537   2.459   2.201
36241W        W 8666  13.431  37.225  11.134
36242W        W 8667   8.124  25.153  13.584
36243W        W 8668  39.274  22.425   3.020
36244W        W 8669  15.712   9.580  14.431
36245W        W 8670  22.124  44.777   0.220
36246W        W 8671  25.646  23.140   3.767
36247W        W 8672  37.596  10.408   2.240
36248W        W 8673  26.231  18.298  13.497
36249W        W 8674  30.691   6.735  10.621
36250W        W 8675  24.521  40.492   3.222
36251W        W 8676   7.850   0.391  13.214
36252W        W 8677  12.499   8.996  11.896
36253W        W 8678  31.022   7.713  11.395
36254W        W 8679  35.907   8.741  14.843
36255W        W 8680  30.174  26.115  12.015
36256W        W 8681  18.032  30.165  10.914
36257W        W 8682   6.216  12.542  10.978
36258W        W 8683  15.243  40.088   4.256
36259W        W 8684   9.909  22.652   3.292
36260W        W 8685  26.099   4.029  14.984
36261W        W 8686  21.749  15.269  10.676
36262W        W 8687  20.968  36.047   0.016
36263W        W 8688  44.956  44.312  11.129
36264W        W 8689   0.969  40.962   0.340
36265W        W 8690  35.073  18.350   4.216
36266W        W 8691  17.847   5.143   4.829
36267W        W 8692  26.937  13.241  12.966
36268W        W 8693  17.812  26.206   0.315
36269W        W 8694  39.541   5.780   2.257
36270W        W 8695   1.917  43.960  13.388
36271W        W 8696  33.375  38.877  10.718
36272W        W 8697  18.091  42.917   2.163
36273W        W 8698  39.552  26.361  14.009
36274W        W 8699   5.501  13.575  14.823
36275W        W 8700  38.082   5.081  11.755
36276W        W 8701  18.706  27.677  14.312
36277W        W 8702  22.825  23.312   4.299
36278W        W 8703  15.119   9.574   4.098
36279W        W 8704  31.081  27.978   0.398
36280W        W 8705  16.853   1.210  13.804
36281W        W 8706  10.606  41.702  11.067
36282W        W 8707  42.464  33.873  13.509
36283W        W 8708   1.988  31.942   2.297
36284W        W 8709  40.979  43.316  13.083
36285W        W 8710  30.588   8.381  13.940
36286W        W 8711  15.381   1.678   4.988
36287W        W 8712   7.789   4.980  12.276
36288W        W 8713   1.912  37.125  12.583
36289W        W 8714  28.113  40.810  11.592
36290W        W 8715  16.678  24.029   1.601
36291W        W 8716   5.312  37.015   0.240
36292W        W 8717  32.160   3.835   2.801
36293W        W 8718  36.506  44.894  11.219
36294W        W 8719   2.433   9.412   3.299
36295W        W 8720  34.114  23.249  10.891
36296W        W 8721   4.039  39.582   3.197
36297W        W 8722  22.689   8.152  10.575
36298W        W 8723  14.886  13.747  12.954
36299W        W 8724  16.291  41.059   0.778
36300W        W 8725  17.579  10.780  13.031
36301W        W 8726  25.006  41.520  11.107
36302W        W 8727  11.932  44.996  13.550
36303W        W 8728  15.944   1.260   3.193
36304W        W 8729  32.552  17.366   1.969
36305W        W 8730  11.093   7.119   3.208
36306W        W 8731  11.741  20.745   1.666
36307W        W 8732  43.340  37.341   2.196
36308W        W 8733  24.583   2.330   0.159
36309W        W 8734  32.686  34.502   0.121
36310W        W 8735  36.099  39.977  13.943
36311W        W 8736  44.077  15.095  12.900
36312W        W 8737  36.970  13.277  10.621
36313W        W 8738  29.973  20.581  10.404
36314W        W 8739   6.670   9.922   4.178
36315W        W 8740  33.632   7.788  14.189
36316W        W 8741   4.699   9.748   3.543
36317W        W 8742  35.940  26.954   1.702
36318W        W 8743   7.827   4.439  12.391
36319W        W 8744  18.721  13.105   1.813
36320W        W 8745  10.522  37.355  13.416
36321W        W 8746   0.459  40.778  11.933
36322W        W 8747   0.958  42.817   0.026
36323W        W 8748  11.178  38.793  11.966
36324W        W 8749  34.373  11.744  12.450
36325W        W 8750  33.823   7.993  13.296
36326W        W 8751   2.949  36.564  12.788
36327W        W 8752  18.885   6.267  13.392
36328W        W 8753  12.399  42.044   1.674
36329W        W 8754   8.523  15.986  13.929
36330W        W 8755  11.580  19.867  11.290
36331W        W 8756  27.160  37.950   1.411
36332W        W 8757  21.204  27.955   0.049
36333W        W 8758  44.907  13.930  13.805
36334W        W 8759  19.467  13.832  12.067
36335W        W 8760   4.656  32.640   2.387
36336W        W 8761   2.221  10.319   1.342
36337W        W 8762  24.451  31.448   0.984
36338W        W 8763  36.027  19.303   0.165
36339W        W 8764  30.394  26.699  12.038
36340W        W 8765  23.958  30.007   3.196
36341W        W 8766  32.130  26.382  11.426
36342W        W 8767   4.067  25.277   1.835
36343W        W 8768   8.375  13.173  13.402
36344W        W 8769  17.519  18.586   2.811
36345W        W 8770   8.368  26.249   0.437
36346W        W 8771  15.952  32.344   0.381
36347W        W 8772  20.608  22.584   0.450
36348W        W 8773   3.307  36.610   2.867
36349W        W 8774   3.537  12.782  14.707
36350W        W 8775  39.773   8.588   0.740
36351W        W 8776  16.074  24.947  10.726
36352W        W 8777   0.748   9.649   2.305
36353W        W 8778  30.464  23.250  13.497
36354W        W 8779  25.695   3.924   1.707
36355W        W 8780  42.972  25.238   1.894
36356W        W 8781   8.967  38.873  11.275
36357W        W 8782  17.659  27.511  13.936
36358W        W 8783  14.633  27.976  14.985
36359W        W 8784  34.328  27.686  10.994
36360W        W 8785  29.410   1.329  14.035
36361W        W 8786  24.057  12.260  12.022
36362W        W 8787   2.218  11.276  10.640
36363W        W 8788  11.946  38.300  14.454
36364W        W 8789   8.455  37.015   3.979
36365W        W 8790  40.644  14.160  11.219
36366W        W 8791  13.312  29.814   3.604
36367W        W 8792  38.898  15.215  11.531
36368W        W 8793   7.414   6.903   5.015
36369W        W 8794  23.650  34.598  14.340
36370W        W 8795  40.828  17.609  11.547
36371W        W 8796  41.108   6.907   0.859
36372W        W 8797  12.541   6.324  11.462
36373W        W 8798   1.471  33.363   0.107
36374W        W 8799  42.634   6.958  12.350
36375W        W 8800  28.215  31.567  10.300
36376W        W 8801  22.786  29.962   1.234
36377W        W 8802  20.295  33.930   0.372
36378W        W 8803  23.075   2.875  13.293
36379W        W 8804   9.522   1.267   2.895
36380W        W 8805  12.421  25.525   1.729
36381W        W 8806  17.333  16.075  14.580
36382W        W 8807  22.527  37.813   2.705
36383W        W 8808  34.853  10.613  10.656
36384W        W 8809   7.931   2.181   0.443
36385W        W 8810  18.204  37.119   0.859
36386W        W 8811  30.043  15.345  13.474
36387W        W 8812  16.556  44.556  11.764
36388W        W 8813  14.257  38.542  14.424
36389W        W 8814  30.899  16.271   0.835
36390W        W 8815  20.084  17.856   4.315
36391W        W 8816  16.199  30.207   4.013
36392W        W 8817  39.568  26.430  12.123
36393W        W 8818   5.926  29.793  12.099
36394W        W 8819  18.077  19.229   3.395
36395W        W 8820  20.273  28.809  12.152
36396W        W 8821   3.678   8.952   0.902
36397W        W 8822   8.350  40.723  12.804
36398W        W 8823  32.141  20.680   0.075
36399W        W 8824  20.208   6.918   2.516
36400W        W 8825  31.143   1.688  11.227
36401W        W 8826  19.130  14.152  11.828
36402W        W 8827  43.277   3.684   0.411
36403W        W 8828  15.158  15.841   4.270
36404W        W 8829  26.102  29.090   1.718
36405W        W 8830  17.746  12.270  13.803
36406W        W 8831  12.320  17.064   0.409
36407W        W 8832  11.562  23.430   0.810
36408W        W 8833  18.558   2.969  11.061
36409W        W 8834  11.861  29.652   3.461
36410W        W 8835   0.440  35.206   2.205
36411W        W 8836  20.628  14.274   4.937
36412W        W 8837  40.075  31.400  14.952
36413W        W 8838  39.153  40.354  10.529
36414W        W 8839  42.257  32.354  11.093
36415W        W 8840  11.923  13.272   5.104
36416W        W 8841  27.504   4.857  12.364
36417W        W 8842  35.963   1.329   0.419
36418W        W 8843   4.868   0.265  13.367
36419W        W 8844   9.813  18.295  12.483
36420W        W 8845   5.854  28.449   4.556
36421W        W 8846  14.793  35.770  11.103
36422W        W 8847   1.569  14.413  11.500
36423W        W 8848  33.117  11.764  11.828
36424W        W 8849  15.321  37.775   0.333
36425W        W 8850  24.073  37.058   0.729
36426W        W 8851  24.610  44.245   2.252
36427W        W 8852  25.592  40.499   2.810
36428W        W 8853  32.150  28.236  12.120
36429W        W 8854  23.482  30.235   3.334
36430W        W 8855  23.298  10.742   0.930
36431W        W 8856  34.090  32.090  12.658
36432W        W 8857  11.409  33.422   3.935
36433W        W 8858   2.239  38.528   3.804
36434W        W 8859   7.315  34.473  12.893
36435W        W 8860  35.046   0.920   3.110
36436W        W 8861  35.120  31.554  12.912
36437W        W 8862  33.883  37.675  12.531
36438W        W 8863  11.240  35.591   2.868
36439W        W 8864  15.871  23.006   4.350
36440W        W 8865  36.891  13.645   3.564
36441W        W 8866  17.684  33.059   1.604
36442W        W 8867  38.145  24.553  10.644
36443W        W 8868  40.556  12.274   0.421
36444W        W 8869  30.234  21.083  13.924
36445W        W 8870   5.093  16.286   4.764
36446W        W 8871  20.212  32.996   3.234
36447W        W 8872   7.413   9.586  12.455
36448W        W 8873  36.554   0.727  12.145
36449W        W 8874   3.201  16.883  12.754
36450W        W 8875  16.530  10.156   2.170
36451W        W 8876  21.525  41.774   4.628
36452W        W 8877  28.226   4.803   3.316
36453W        W 8878  25.059   0.860   2.887
36454W        W 8879  42.945  39.724   4.218
36455W        W 8880   9.943  25.514  10.992
36456W        W 8881  41.882  28.445  11.548
36457W        W 8882  42.767  14.868  12.968
36458W        W 8883  35.014   4.425  10.918
36459W        W 8884  40.918  12.743  14.457
36460W        W 8885  16.393  16.800  14.644
36461W        W 8886  16.278  22.673   2.775
36462W        W 8887  19.792   2.222   3.276
36463W        W 8888  10.204  31.632  13.352
36464W        W 8889  41.337  16.145   3.224
36465W        W 8890  25.138  12.755  12.012
36466W        W 8891  29.081  26.592   0.960
36467W        W 8892  24.003   4.366  11.065
36468W        W 8893  21.196  38.813   2.246
36469W        W 8894  13.215  35.466  12.969
36470W        W 8895  39.551  35.354  12.475
36471W        W 8896  34.069  38.601   2.255
36472W        W 8897  41.954  11.374   1.398
36473W        W 8898  31.366   0.846  13.120
36474W        W 8899   4.017  40.339  13.109
36475W        W 8900  16.827  43.677  14.797
36476W        W 8901  17.377  17.454   1.774
36477W        W 8902  16.826  15.803   4.021
36478W        W 8903  40.601  19.769  14.983
36479W        W 8904  26.961  39.813   4.347
36480W        W 8905  10.383   1.565  12.004
36481W        W 8906  34.506  17.720  11.370
36482W        W 8907  31.618  37.893  14.436
36483W        W 8908  29.393  28.267   1.794
36484W        W 8909  44.721  26.749   0.816
36485W        W 8910  17.739  17.955   3.521
36486W        W 8911   7.718  35.177   3.173
36487W        W 8912  44.318  17.861  10.815
36488W        W 8913  29.112  31.579  13.065
36489W        W 8914  11.619  13.723  14.818
36490W        W 8915  34.505  21.523  13.272
36491W        W 8916  34.665  38.582  12.087
36492W        W 8917  32.988  10.866  10.710
36493W        W 8918  24.934  43.777   1.540
36494W        W 8919  44.685  42.457   1.764
36495W        W 8920   6.748   5.318  10.880
36496W        W 8921  16.198  28.217  14.357
36497W        W 8922  35.652  33.603  13.485
36498W        W 8923  41.294  39.490  11.628
36499W        W 8924  39.600   9.951   1.662
36500W        W 8925  14.540  22.047   4.775
36501W        W 8926   5.670  15.653   3.364
36502W        W 8927  21.571  39.047   0.045
36503W        W 8928   2.824   3.651   0.339
36504W        W 8929  33.156   2.959  12.349
36505W        W 8930  43.824   5.125  12.468
36506W        W 8931  14.230   4.835   4.525
36507W        W 8932   4.719  30.135   2.751
36508W        W 8933  29.419   7.340  13.948
36509W        W 8934  40.409  31.381  13.445
36510W        W 8935  35.097   3.398  14.349
36511W        W 8936  10.294  40.846  11.889
36512W        W 8937   7.415  21.138   3.632
36513W        W 8938  19.577  23.998   1.018
36514W        W 8939  12.124  12.556  12.981
36515W        W 8940  34.426  33.612   2.364
36516W        W 8941  19.075   6.002  13.822
36517W        W 8942  43.662   0.406  13.421
36518W        W 8943  31.022   7.715   0.185
36519W        W 8944   4.624  39.099   3.564
36520W        W 8945   4.721   6.158  13.923
36521W        W 8946   9.862  18.084  10.554
36522W        W 8947  33.155  41.911  12.175
36523W        W 8948  41.034  36.386   4.395
36524W        W 8949  22.993  32.442  13.746
36525W        W 8950  36.813   6.635   0.980
36526W        W 8951  39.981   5.407  11.585
36527W        W 8952  13.723   8.126  13.791
36528W        W 8953  16.673  33.618   1.760
36529W        W 8954  31.148  13.822  11.161
36530W        W 8955  11.857   1.228   4.307
36531W        W 8956  28.309  31.067  13.024
36532W        W 8957  25.184  21.587   3.310
36533W        W 8958  15.570  20.268   1.726
36534W        W 8959  42.917   0.350   0.325
36535W        W 8960  28.717  42.980   2.390
36536W        W 8961  25.054   1.670   1.749
36537W        W 8962  33.976  14.340  14.564
36538W        W 8963  31.471  26.147   0.685
36539W        W 8964  38.067   9.218  13.356
36540W        W 8965  25.464   1.514  14.765
36541W        W 8966  36.144   2.395  13.079
36542W        W 8967  26.032  27.611   1.519
36543W        W 8968   5.234   0.107  11.490
36544W        W 8969   6.943  21.188  14.297
36545W        W 8970  15.147  31.210  12.877
36546W        W 8971  12.607  32.448  13.859
36547W        W 8972  38.518  16.939  11.133
36548W        W 8973  22.211  21.998  14.341
36549W        W 8974  20.685  16.740  11.512
36550W        W 8975  11.104  38.836  13.931
36551W        W 8976  29.153  32.839   5.054
36552W        W 8977  18.491   0.357  11.427
36553W        W 8978  39.428  24.392   1.870
36554W        W 8979   2.669  24.190  12.336
36555W        W 8980  34.615  16.239   3.674
36556W        W 8981  10.282   9.651   4.653
36557W        W 8982   5.680  10.433   9.902
36558W        W 8983  38.063  40.901   1.035
36559W        W 8984  43.314   4.861  13.132
36560W        W 8985  23.022  24.258  14.113
36561W        W 8986  12.650  24.130  12.030
36562W        W 8987  26.910   6.358   3.867
36563W        W 8988  22.795  39.386  11.608
36564W        W 8989   6.395   6.199  11.683
36565W        W 8990  43.793  16.766   1.184
36566W        W 8991  35.058  28.872  13.134
36567W        W 8992  28.693  18.998   3.693
36568W        W 8993  13.123  42.125  12.633
36569W        W 8994  24.528  16.708   0.993
36570W        W 8995  17.352  24.856   0.489
36571W        W 8996  21.764  43.011  13.152
36572W        W 8997  27.480  15.779  11.450
36573W        W 8998  29.313  20.070   1.217
36574W        W 8999  27.624  40.009   2.252
36575W        W 9000  21.062   0.808   1.022
36576W        W 9001  26.564  17.810  14.417
36577W        W 9002  37.041  16.675   4.348
36578W        W 9003  36.044  18.767  12.030
36579W        W 9004  16.985  21.777   0.017
36580W        W 9005   1.665   9.319   4.958
36581W        W 9006  35.575  13.541   1.907
36582W        W 9007  36.805  34.976   2.271
36583W        W 9008  37.094  36.545   2.736
36584W        W 9009   1.172   5.104  14.596
36585W        W 9010  43.565   0.696  12.463
36586W        W 9011  20.666   8.816  12.799
36587W        W 9012  31.688  16.533  10.686
36588W        W 9013  24.555  16.169  13.762
36589W        W 9014  30.910  39.581  13.544
36590W        W 9015  13.907  44.782   2.397
36591W        W 9016  29.221  24.913  11.213
36592W        W 9017  11.635  32.499  13.094
36593W        W 9018  41.774  29.124  10.943
36594W        W 9019  18.146  21.692  13.915
36595W        W 9020  32.903   6.396  11.905
36596W        W 9021  34.334   7.195   2.264
36597W        W 9022  28.510   4.345   4.282
36598W        W 9023  37.573  42.773  11.849
36599W        W 9024  41.730  42.275   3.189
36600W        W 9025   3.840  34.014   0.957
36601W        W 9026   2.022  35.869  11.160
36602W        W 9027  33.922  32.610   1.265
36603W        W 9028  20.497  12.660   3.350
36604W        W 9029  20.296  24.046   2.888
36605W        W 9030  30.127  41.672  10.675
36606W        W 9031  14.703  19.213  13.383
36607W        W 9032   3.309  22.713   0.029
36608W        W 9033  17.344  10.426   1.827
36609W        W 9034  22.763  19.502  12.498
36610W        W 9035  11.130   3.457   0.592
36611W        W 9036   2.561  42.738   4.887
36612W        W 9037  44.733   8.339  11.195
36613W        W 9038  11.767  23.069  11.597
36614W        W 9039  28.968  18.214  12.895
36615W        W 9040   0.173  14.364  12.895
36616W        W 9041  28.196   5.449   1.670
36617W        W 9042  11.570   2.401   1.382
36618W        W 9043   8.654  20.587  12.905
36619W        W 9044   5.138  32.528  12.516
36620W        W 9045   4.641   9.265   5.035
36621W        W 9046  39.946  24.560  12.872
36622W        W 9047  19.661  33.887  10.328
36623W        W 9048   6.672  32.206   0.262
36624W        W 9049  33.733  14.033  12.488
36625W        W 9050   3.310  12.628  12.501
36626W        W 9051  44.931  18.336   3.714
36627W        W 9052  44.948  14.822  10.653
36628W        W 9053  44.768  19.337   3.752
36629W        W 9054  29.661  37.404  10.729
36630W        W 9055   0.652  23.095  12.449
36631W        W 9056   5.682  21.677  11.596
36632W        W 9057  12.776  26.597  14.734
36633W        W 9058  23.003  12.858   3.603
36634W        W 9059  43.447  31.679  10.686
36635W        W 9060  19.822  38.549  13.884
36636W        W 9061  30.654  10.333  11.155
36637W        W 9062  20.447  37.989   1.933
36638W        W 9063  20.952  33.517  13.301
36639W        W 9064  18.003  37.803  14.483
36640W        W 9065  42.989   0.290  10.815
36641W        W 9066  11.302  29.542  12.070
36642W        W 9067  42.535  36.216  13.094
36643W        W 9068  16.293  18.517  13.817
36644W        W 9069  31.298  37.500   4.954
36645W        W 9070  31.529   2.982   2.923
36646W        W 9071  38.137  21.101   4.734
36647W        W 9072  10.861  18.473   4.729
36648W        W 9073  21.044  14.746  14.145
36649W        W 9074  43.351  14.454  13.200
36650W        W 9075  20.689  30.678  12.816
36651W        W 9076  42.580  10.928   1.920
36652W        W 9077   1.758  13.741   2.158
36653W        W 9078  42.554  11.885  12.623
36654W        W 9079  43.394  21.701   0.839
36655W        W 9080  11.156  15.796   3.261
36656W        W 9081  39.192  20.936   2.895
36657W        W 9082  34.577  12.956   0.871
36658W        W 9083  10.862  16.330   1.336
36659W        W 9084  10.187   7.500  14.313
36660W        W 9085   8.315   5.333  11.206
36661W        W 9086  16.227  35.510   3.189
36662W        W 9087  39.957  32.380  10.708
36663W        W 9088   3.807  35.281  12.191
36664W        W 9089   4.188  26.624  11.731
36665W        W 9090   4.804  35.346  10.703
36666W        W 9091   9.918  41.890   1.841
36667W        W 9092  18.431  13.359  14.282
36668W        W 9093   1.539  33.325   1.540
36669W        W 9094   8.410  19.711   0.300
36670W        W 9095  22.015   2.215  13.758
36671W        W 9096  25.541  17.003   4.578
36672W        W 9097   7.297  32.028   2.441
36673W        W 9098  39.675   8.715   4.454
36674W        W 9099  11.014  10.001   5.032
36675W        W 9100  22.200   3.161  10.787
36676W        W 9101   4.975   2.676   1.296
36677W        W 9102  42.041  14.028  11.208
36678W        W 9103  19.379   1.107  10.846
36679W        W 9104  37.434  15.711  14.088
36680W        W 9105   6.381   7.375   0.713
36681W        W 9106   5.629  27.943  13.003
36682W        W 9107  30.018  11.897   2.794
36683W        W 9108   2.962   4.272  12.360
36684W        W 9109   6.153  18.727  10.758
36685W        W 9110  15.694  31.645  13.366
36686W        W 9111  36.648  11.800  11.273
36687W        W 9112  13.343  16.067   2.285
36688W        W 9113  44.050   2.882   1.009
36689W        W 9114  16.551  10.897  12.979
36690W        W 9115  41.939   8.558   3.052
36691W        W 9116  21.601  23.606  14.186
36692W        W 9117   7.902  38.472   2.249
36693W        W 9118  40.140   8.808   4.270
36694W        W 9119  34.023   2.168  13.624
36695W        W 9120  20.909  30.234  12.638
36696W        W 9121  15.694  18.282   5.210
36697W        W 9122  36.902   1.251   0.329
36698W        W 9123   5.640   0.411   0.880
36699W        W 9124  15.769  29.310   1.852
36700W        W 9125  14.196   9.663  14.461
36701W        W 9126   8.299   1.469  12.840
36702W        W 9127  38.033  25.016   9.735
36703W        W 9128  31.619  12.594   2.394
36704W        W 9129  19.033  23.284  10.762
36705W        W 9130   4.948  25.782  11.636
36706W        W 9131   1.682   2.499  10.607
36707W        W 9132   9.891  41.581   2.277
36708W        W 9133  27.128   5.390   4.532
36709W        W 9134   4.362  24.660  12.887
36710W        W 9135   2.401  38.622   1.761
36711W        W 9136  22.534  30.000   0.763
36712W        W 9137  28.038  40.663  12.413
36713W        W 9138   2.398  11.486   2.114
36714W        W 9139  14.812  44.767   0.299
36715W        W 9140  35.421  23.195  13.580
36716W        W 9141  14.384  11.180  13.124
36717W        W 9142  18.957  23.599   1.601
36718W        W 9143  26.142   4.385  10.926
36719W        W 9144  38.644  28.439   2.807
36720W        W 9145  20.083   4.245   1.393
36721W        W 9146   4.263   7.663  14.065
36722W        W 9147  31.679  28.838  11.563
36723W        W 9148  19.625   7.944   4.170
36724W        W 9149  17.790   9.909   0.940
36725W        W 9150  34.868   5.674   4.574
36726W        W 9151  40.587   1.048   0.940
36727W        W 9152  11.092  42.962  14.519
36728W        W 9153  15.864  37.422   1.985
36729W        W 9154  15.377  32.425   4.595
36730W        W 9155  40.362  29.914   3.665
36731W        W 9156  35.902  42.911   2.472
36732W        W 9157  13.708  37.084  12.890
36733W        W 9158  31.085  10.676  11.118
36734W        W 9159   4.446  20.637  14.391
36735W        W 9160  40.990  39.758  10.701
36736W        W 9161  32.419   1.244  13.888
36737W        W 9162  23.948  27.479  13.933
36738W        W 9163  30.102  35.388   4.028
36739W        W 9164  31.013  10.257  10.311
36740W        W 9165  44.524  19.317   0.289
36741W        W 9166   6.722  28.060   4.334
36742W        W 9167   4.777  22.849  13.760
36743W        W 9168  22.466  18.652  11.447
36744W        W 9169  24.756  10.660   5.043
36745W        W 9170  16.351   3.486   1.966
36746W        W 9171  18.286   1.761   3.665
36747W        W 9172  13.354   8.319   1.952
36748W        W 9173  27.994  44.222   2.539
36749W        W 9174  11.547  40.424   3.905
36750W        W 9175  19.277  26.069   4.658
36751W        W 9176  18.309  38.264  11.632
36752W        W 9177  20.474  16.355  12.452
36753W        W 9178  30.138  33.447   3.237
36754W        W 9179   6.711  20.647  13.088
36755W        W 9180  29.347  30.236  14.820
36756W        W 9181  34.358  14.641   4.040
36757W        W 9182  42.407  24.627   4.271
36758W        W 9183  43.459  29.937  12.194
36759W        W 9184  29.040   7.915  11.218
36760W        W 9185  24.488  10.061   4.967
36761W        W 9186  24.391  35.994  14.458
36762W        W 9187  19.064   8.690  12.414
36763W        W 9188  24.241  38.384  12.593
36764W        W 9189  24.204  28.159   0.328
36765W        W 9190  39.339   0.926   3.977
36766W        W 9191   3.677   0.845   4.716
36767W        W 9192  16.206  21.545  11.952
36768W        W 9193  39.028  42.762   2.576
36769W        W 9194  43.507  41.871   1.677
36770W        W 9195   9.851  37.123   2.385
36771W        W 9196  33.027  17.498  12.498
36772W        W 9197   5.778  20.688  13.122
36773W        W 9198  31.155  26.189  11.934
36774W        W 9199  43.251  11.804   1.718
36775W        W 9200  19.006  15.296   3.302
36776W        W 9201  14.806  17.758  14.310
36777W        W 9202  25.633  33.737  14.109
36778W        W 9203  36.799   5.651  11.766
36779W        W 9204  38.948  22.614  10.190
36780W        W 9205  22.685  18.297   2.211
36781W        W 9206   1.202  41.468   4.443
36782W        W 9207  24.178  18.716   1.657
36783W        W 9208  31.303   6.878  12.125
36784W        W 9209  25.623  22.440  13.062
36785W        W 9210  39.307  38.449   3.314
36786W        W 9211  43.416  26.957   1.142
36787W        W 9212  41.788  20.112   4.419
36788W        W 9213  26.573   1.476  12.114
36789W        W 9214  29.880   8.355   0.874
36790W        W 9215  10.068   2.848   3.946
36791W        W 9216  15.748  24.444   2.917
36792W        W 9217  41.940  43.926  10.895
36793W        W 9218  13.317  32.124  10.666
36794W        W 9219  43.426   8.821   2.596
36795W        W 9220  40.937  21.117   3.663
36796W        W 9221  23.540  28.558  12.173
36797W        W 9222  18.998  20.574  13.886
36798W        W 9223  32.466  39.058  14.794
36799W        W 9224  44.922  28.460  11.170
36800W        W 9225  26.552  12.187  10.978
36801W        W 9226  11.601  22.224   3.341
36802W        W 9227  34.396  36.060   1.399
36803W        W 9228  34.066   8.736   3.335
36804W        W 9229  25.690   4.502   1.723
36805W        W 9230  33.953  16.133   0.432
36806W        W 9231  36.149  20.059  11.388
36807W        W 9232  35.858   7.661   3.506
36808W        W 9233   3.872  41.354   0.415
36809W        W 9234  31.826  38.172   4.888
36810W        W 9235  44.818  30.034   2.498
36811W        W 9236   9.097  35.640  14.488
36812W        W 9237  34.182  23.521   1.245
36813W        W 9238  24.993  38.953  14.452
36814W        W 9239  23.571  44.072   4.185
36815W        W 9240   3.096  29.412  13.633
36816W        W 9241  14.755   6.655  12.770
36817W        W 9242  10.559   1.327  12.438
36818W        W 9243  31.205  31.215  14.280
36819W        W 9244  35.465   3.267   1.512
36820W        W 9245  35.520  35.535  12.897
36821W        W 9246  35.487  38.895  10.723
36822W        W 9247   0.891  11.769  12.403
36823W        W 9248  11.271  12.085   2.797
36824W        W 9249  33.340  34.342   4.419
36825W        W 9250  38.968  35.448   3.583
36826W        W 9251  30.554  34.889   4.614
36827W        W 9252   7.626  33.498   0.796
36828W        W 9253  42.002  25.154   3.788
36829W        W 9254  18.022   9.641   0.528
36830W        W 9255  17.082  36.184   5.327
36831W        W 9256  34.271  19.907   1.141
36832W        W 9257  22.300  15.211  10.686
36833W        W 9258  21.733  20.147   3.315
36834W        W 9259  29.162   7.667  11.655
36835W        W 9260  36.539  34.056  12.390
36836W        W 9261  12.695  35.585   0.401
36837W        W 9262  24.264  42.294   3.120
36838W        W 9263  38.059  31.720  11.919
36839W        W 9264  43.605  31.071  14.958
36840W        W 9265  27.947  38.782  10.729
36841W        W 9266  19.976  40.174   1.283
36842W        W 9267   1.589  11.370  13.310
36843W        W 9268  43.458  33.688  12.980
36844W        W 9269   9.778   3.828   3.996
36845W        W 9270  38.742   8.265  13.343
36846W        W 9271  40.102  12.306  10.620
36847W        W 9272   6.988  41.736   2.884
36848W        W 9273  25.704  29.889   4.865
36849W        W 9274  32.827   6.330  11.404
36850W        W 9275  30.481   0.309   3.309
36851W        W 9276  26.935  24.208   2.632
36852W        W 9277  28.704   0.303  13.378
36853W        W 9278   6.917  11.715   0.703
36854W        W 9279  38.044  21.961   1.380
36855W        W 9280   1.013   8.976   4.078
36856W        W 9281  20.027  37.673   5.045
36857W        W 9282  30.146  15.322  11.519
36858W        W 9283  34.033  34.006   2.393
36859W        W 9284   3.411  19.605  14.066
36860W        W 9285   2.721  23.943   1.780
36861W        W 9286  29.668   6.898  13.811
36862W        W 9287  23.107  34.078  12.519
36863W        W 9288  11.211  20.305  12.068
36864W        W 9289  18.608  18.158   3.074
36865W        W 9290  25.206   4.876   2.880
36866W        W 9291   7.097  15.742  11.110
36867W        W 9292  30.678  11.978  12.461
36868W        W 9293   1.955  22.748   2.049
36869W        W 9294  31.287  16.770   1.686
36870W        W 9295   7.627  29.208   1.819
36871W        W 9296  36.760  16.249   4.495
36872W        W 9297  10.327  20.206  13.377
36873W        W 9298  24.528  32.750  14.257
36874W        W 9299  25.206   9.401  12.116
36875W        W 9300  30.355   3.690  12.031
36876W        W 9301  21.627  32.435   0.848
36877W        W 9302  40.553   9.785   1.220
36878W        W 9303  37.186  34.371  14.882
36879W        W 9304  35.604  38.379  10.702
36880W        W 9305   4.880   7.677  12.655
36881W        W 9306  44.765   1.133   3.303
36882W        W 9307   0.894  20.875   2.178
36883W        W 9308   1.808  18.978   1.746
36884W        W 9309  32.007   4.969  12.069
36885W        W 9310   6.142  18.655   2.222
36886W        W 9311  36.476  24.606   0.305
36887W        W 9312  40.451  19.824   4.627
36888W        W 9313  26.185   5.334  10.674
36889W        W 9314   6.740  39.280  11.524
36890W        W 9315   8.775  33.673   1.635
36891W        W 9316  26.466   3.346  11.090
36892W        W 9317  36.475  28.440   1.280
36893W        W 9318  32.839   9.008  14.410
36894W        W 9319  28.698  23.247   0.438
36895W        W 9320  24.368   2.045   0.843
36896W        W 9321   9.072   4.494  13.748
36897W        W 9322   4.363  36.106  10.708
36898W        W 9323   9.886  41.805  12.578
36899W        W 9324  29.541  32.986  14.421
36900W        W 9325  15.268  12.689   0.437
36901W        W 9326  21.657   9.624  14.822
36902W        W 9327  25.956  41.410  13.986
36903W        W 9328  22.783  39.380  13.900
36904W        W 9329  44.231  27.383   1.402
36905W        W 9330  41.041  22.041   0.998
36906W        W 9331  42.539  19.152  10.596
36907W        W 9332  23.930  40.779  13.282
36908W        W 9333  19.646   4.939  13.476
36909W        W 9334  40.517  21.227  10.728
36910W        W 9335  16.583  43.461  13.306
36911W        W 9336   8.753   8.156  11.143
36912W        W 9337  25.109  17.081  10.602
36913W        W 9338  30.323   2.417   0.974
36914W        W 9339  17.780  12.201   4.068
36915W        W 9340  40.335  18.484  12.427
36916W        W 9341  28.166  44.850  10.812
36917W        W 9342  17.344  20.787   3.943
36918W        W 9343  27.478  21.004   0.649
36919W        W 9344   7.705   2.477   0.831
36920W        W 9345  21.257  21.124   3.564
36921W        W 9346  41.396  42.559   4.891
36922W        W 9347  10.402  41.417  14.416
36923W        W 9348  29.166  36.535  13.427
36924W        W 9349   3.456   4.735   0.450
36925W        W 9350   3.848  18.684   2.752
36926W        W 9351  43.414   1.319  14.488
36927W        W 9352  34.844  17.986  12.552
36928W        W 9353  44.146  22.979  12.469
36929W        W 9354  32.891  22.127   0.409
36930W        W 9355  39.822  13.070  11.275
36931W        W 9356   4.850  42.337  11.683
36932W        W 9357  42.596  35.404   2.375
36933W        W 9358  39.048  42.028  12.353
36934W        W 9359   9.405  35.373  12.614
36935W        W 9360  38.744  15.678   0.829
36936W        W 9361  41.605  42.213   0.772
36937W        W 9362  29.425  23.265   3.752
36938W        W 9363  27.625  39.535   1.020
36939W        W 9364  19.207  32.942   4.650
36940W        W 9365  30.962  41.927  13.577
36941W        W 9366   6.333  36.025  11.037
36942W        W 9367  21.535  25.966   2.430
36943W        W 9368  13.123  44.581  11.105
36944W        W 9369  16.668   8.846  13.979
36945W        W 9370  35.136   2.640  13.946
36946W        W 9371   6.699  30.248  13.490
36947W        W 9372  42.833  24.536  14.487
36948W        W 9373  32.469  30.929   4.466
36949W        W 9374  33.391   1.499  14.417
36950W        W 9375  33.003  34.287   3.535
36951W        W 9376  37.854  16.786   1.890
36952W        W 9377  34.979   6.443  12.995
36953W        W 9378  30.624  31.565  13.480
36954W        W 9379   1.776  15.285   2.181
36955W        W 9380  31.004  19.249   0.396
36956W        W 9381   0.360  28.613   2.842
36957W        W 9382   3.900  26.063   3.355
36958W        W 9383  12.158  27.265  10.499
36959W        W 9384  12.702  38.046   1.246
36960W        W 9385  13.467   8.676  11.859
36961W        W 9386  34.182  18.331   3.219
36962W        W 9387  38.451  18.296   1.150
36963W        W 9388  31.842  40.255  13.946
36964W        W 9389  24.416   9.852  12.037
36965W        W 9390  43.637  26.308  11.119
36966W        W 9391  34.411  21.115  14.147
36967W        W 9392   6.867  31.743  11.853
36968W        W 9393   8.794  40.336   4.595
36969W        W 9394  10.228  43.021  10.816
36970W        W 9395  31.383  32.980  14.879
36971W        W 9396  15.012   4.852   1.321
36972W        W 9397  16.289  23.091   1.316
36973W        W 9398   9.159  18.708  12.050
36974W        W 9399  38.098   3.804  12.155
36975W        W 9400  43.405  10.707   4.308
36976W        W 9401  20.307  37.760   2.686
36977W        W 9402  26.690  16.040   3.737
36978W        W 9403  40.027  35.029   3.018
36979W        W 9404  35.589  40.935  14.864
36980W        W 9405  21.632  20.709   4.768
36981W        W 9406  34.953  37.804  10.703
36982W        W 9407  18.666   3.544  14.002
36983W        W 9408   2.767  44.264   1.421
36984W        W 9409  34.475   2.237   3.421
36985W        W 9410  28.219  27.117  10.391
36986W        W 9411  23.855  15.717   0.524
36987W        W 9412  40.464   9.926   1.720
36988W        W 9413  20.230  30.216   1.135
36989W        W 9414  25.911  34.552   3.555
36990W        W 9415   3.910  18.693  10.656
36991W        W 9416  40.978  32.430  10.661
36992W        W 9417  33.380  39.044   0.334
36993W        W 9418  39.731  10.418   1.460
36994W        W 9419  13.274  39.400  12.522
36995W        W 9420  44.510  24.569  10.661
36996W        W 9421  29.886  15.169   4.176
36997W        W 9422  33.903  12.074  11.717
36998W        W 9423  19.210  35.074   3.842
36999W        W 9424   9.523   7.534  13.562
37000W        W 9425  11.178  43.203   2.310
37001W        W 9426   2.006  12.859  11.437
37002W        W 9427  41.643   1.854  10.672
37003W        W 9428  17.441   0.697   0.419
37004W        W 9429  19.730  39.821   0.941
37005W        W 9430  35.283  30.045  14.837
37006W        W 9431  33.765  15.193  12.065
37007W        W 9432  22.799  35.421   1.196
37008W        W 9433  42.579  21.953   2.040
37009W        W 9434   7.594  22.996   1.368
37010W        W 9435  14.098  32.325  13.859
37011W        W 9436   2.209  28.233   2.395
37012W        W 9437  32.893  11.228   1.371
37013W        W 9438  34.331  44.656   1.521
37014W        W 9439   5.759   8.339  11.615
37015W        W 9440  25.105  41.397  13.415
37016W        W 9441   3.170  44.294  13.418
37017W        W 9442  10.679   3.972   1.220
37018W        W 9443  28.229  26.145  12.447
37019W        W 9444  39.924   0.044   1.861
37020W        W 9445  20.866   7.961   3.837
37021W        W 9446  42.452  31.339  12.378
37022W        W 9447  13.284  20.814  13.746
37023W        W 9448   5.579  41.470  14.273
37024W        W 9449  40.570   1.365   0.123
37025W        W 9450  13.929  16.029   3.311
37026W        W 9451   3.653   2.908   4.320
37027W        W 9452  28.578   7.091  11.138
37028W        W 9453   7.919  20.255   3.824
37029W        W 9454  40.398  35.639  10.687
37030W        W 9455   5.265  33.223  12.118
37031W        W 9456  16.854  10.228  11.906
37032W        W 9457  12.556  39.926   4.608
37033W        W 9458   5.748  25.934  11.557
37034W        W 9459  40.458  25.037   1.859
37035W        W 9460   0.221  29.215  12.213
37036W        W 9461   4.489  35.958  14.707
37037W        W 9462  11.879   2.954   0.693
37038W        W 9463  32.054   4.697  11.580
37039W        W 9464  44.290  11.640  13.021
37040W        W 9465  17.324  38.392   1.446
37041W        W 9466  22.438  17.995  10.149
37042W        W 9467   9.029  32.336  13.283
37043W        W 9468  14.706  26.708  12.348
37044W        W 9469  41.275  14.774   2.288
37045W        W 9470   8.853  28.974   0.322
37046W        W 9471  14.744  26.433   1.752
37047W        W 9472   7.838  34.928  11.149
37048W        W 9473   5.304  35.947  13.675
37049W        W 9474   6.154  19.092  14.528
37050W        W 9475  43.286  37.955   3.411
37051W        W 9476   4.668  43.361  14.282
37052W        W 9477   1.430  32.189  11.056
37053W        W 9478   4.680  22.349   1.675
37054W        W 9479  31.690  17.064   1.882
37055W        W 9480   2.947  30.998  11.501
37056W        W 9481   2.687  12.151  13.092
37057W        W 9482  24.517   7.103  11.173
37058W        W 9483   2.331   9.819  14.414
37059W        W 9484   8.762  20.697   3.243
37060W        W 9485   5.369  31.137  12.574
37061W        W 9486   0.673   6.408   0.765
37062W        W 9487  30.981   7.590   4.861
37063W        W 9488  38.619  20.792  12.097
37064W        W 9489  41.349   6.414   0.244
37065W        W 9490   4.253  39.005   4.340
37066W        W 9491  28.511  34.078   5.739
37067W        W 9492  14.593   4.575  14.849
37068W        W 9493  33.602  18.023  11.101
37069W        W 9494  37.817  27.509  12.027
37070W        W 9495  29.929  11.387   2.733
37071W        W 9496  39.810  43.782  13.301
37072W        W 9497  35.368  14.196  12.377
37073W        W 9498  25.087   7.735   2.824
37074W        W 9499   7.084  11.137  13.960
37075W        W 9500  28.136  25.122  10.732
37076W        W 9501   9.929  20.706  14.979
37077W        W 9502  11.126   7.851   0.904
37078W        W 9503  21.238   0.374  14.463
37079W        W 9504  31.218  33.553  10.192
37080W        W 9505   3.471  23.033   1.761
37081W        W 9506  23.902  34.183  12.026
37082W        W 9507   9.629  19.064  12.018
37083W        W 9508  20.265  32.401   4.649
37084W        W 9509  15.847  18.221   3.231
37085W        W 9510  41.905  28.407   3.154
37086W        W 9511  39.091  32.452   3.703
37087W        W 9512  22.784  14.328  13.018
37088W        W 9513  22.102  29.906   1.942
37089W        W 9514  30.692   8.397   0.244
37090W        W 9515  18.024  31.831   1.928
37091W        W 9516  14.016  26.071   4.207
37092W        W 9517   9.780  26.390   4.659
37093W        W 9518  29.597  31.649   4.875
37094W        W 9519  20.197  23.362  11.625
37095W        W 9520  23.760  19.494   4.053
37096W        W 9521  30.966  41.011  14.081
37097W        W 9522   3.482  27.368  13.006
37098W        W 9523  12.595  20.631   4.844
37099W        W 9524  40.880  20.737   2.422
37100W        W 9525  32.391  11.423  13.860
37101W        W 9526  39.787  26.111   3.284
37102W        W 9527   7.247  29.386  14.242
37103W        W 9528  21.391  35.505   1.714
37104W        W 9529  31.485   3.695   2.371
37105W        W 9530  17.709  18.480   3.482
37106W        W 9531  16.939  21.607   4.718
37107W        W 9532  28.457  32.356  12.541
37108W        W 9533  10.812   1.375  11.136
37109W        W 9534  22.547  16.125   4.707
37110W        W 9535  12.700   1.767   0.561
37111W        W 9536  13.723  17.084  11.598
37112W        W 9537  10.200  17.612   1.378
37113W        W 9538  38.121  41.319  12.982
37114W        W 9539  43.234  11.877  14.901
37115W        W 9540  36.876   1.340  11.087
37116W        W 9541   5.285  28.479  14.830
37117W        W 9542  34.504  12.702   3.262
37118W        W 9543  30.480  40.546   4.650
37119W        W 9544   6.680  15.540   3.344
37120W        W 9545   5.384  37.561   0.573
37121W        W 9546  38.856  28.133  12.973
37122W        W 9547  24.417  12.136  14.135
37123W        W 9548   9.362  44.717  11.054
37124W        W 9549  13.896  44.352  13.361
37125W        W 9550  26.505  19.751  14.862
37126W        W 9551  38.462  41.792   0.995
37127W        W 9552  15.779   4.656   4.564
37128W        W 9553   9.708  12.784   4.099
37129W        W 9554  20.611  12.520  11.109
37130W        W 9555  25.709  29.399   1.492
37131W        W 9556  13.637   8.376  14.955
37132W        W 9557  34.905  33.324  12.970
37133W        W 9558  38.255  32.930  10.318
37134W        W 9559  14.378  41.089  13.872
37135W        W 9560  30.222  38.874  13.435
37136W        W 9561  25.716  35.572   2.628
37137W        W 9562  24.044  33.961  14.936
37138W        W 9563  36.114  27.182   0.680
37139W        W 9564  23.589  23.180  14.883
37140W        W 9565  11.339  11.825   0.961
37141W        W 9566  15.719  26.479  12.099
37142W        W 9567  37.878  17.630   1.072
37143W        W 9568  22.560  41.534  14.944
37144W        W 9569   8.359  41.563   3.424
37145W        W 9570  37.839  35.043   3.647
37146W        W 9571  19.374   8.422   2.314
37147W        W 9572  41.013  21.934  13.402
37148W        W 9573  34.071  44.316   0.469
37149W        W 9574  22.557  12.034   2.607
37150W        W 9575  39.878  34.851  13.159
37151W        W 9576   9.819  33.558   1.231
37152W        W 9577  39.739  12.742   1.849
37153W        W 9578  25.524  39.802   3.044
37154W        W 9579   7.762   3.141   1.602
37155W        W 9580  11.906   1.867  12.511
37156W        W 9581  29.475  19.961  12.499
37157W        W 9582  42.044  40.894   3.792
37158W        W 9583  10.717  17.388   1.412
37159W        W 9584  19.668   1.002   0.636
37160W        W 9585  40.539   5.899  10.351
37161W        W 9586   5.198  19.463   4.478
37162W        W 9587  22.247  11.666   0.865
37163W        W 9588  23.327  28.489   1.417
37164W        W 9589  18.709  25.959  12.975
37165W        W 9590  29.637  33.903   1.879
37166W        W 9591  20.185   1.817   0.942
37167W        W 9592   5.825  38.451  13.416
37168W        W 9593  30.713  16.772   4.254
37169W        W 9594  35.493  29.213   3.804
37170W        W 9595  38.293  20.157  14.967
37171W        W 9596  35.838  19.922  13.875
37172W        W 9597  13.297   3.668  10.999
37173W        W 9598   9.774  18.074   2.479
37174W        W 9599  14.239  15.168   0.380
37175W        W 9600  42.231   6.428  10.684
37176W        W 9601  30.675  36.907  14.373
37177W        W 9602  17.728  33.606  11.889
37178W        W 9603   8.000   5.763   1.501
37179W        W 9604  14.705  24.239   1.394
37180W        W 9605  35.402  20.175   1.962
37181W        W 9606  19.141  33.265  11.484
37182W        W 9607  16.854  25.378  11.979
37183W        W 9608  37.849   8.413  13.965
37184W        W 9609  12.248  31.593   1.842
37185W        W 9610  39.034   4.017  13.588
37186W        W 9611  34.411  36.353  10.723
37187W        W 9612   5.902  18.588   2.682
37188W        W 9613  10.799  16.800   0.001
37189W        W 9614  13.592  21.599  14.193
37190W        W 9615  21.288  42.527   4.572
37191W        W 9616   9.366  31.128  14.967
37192W        W 9617  18.720  12.232   3.105
37193W        W 9618  12.089  40.122   3.047
37194W        W 9619  31.765  35.551   0.889
37195W        W 9620  34.747  14.716  13.489
37196W        W 9621  44.911  38.320   4.370
37197W        W 9622   5.414  23.204  11.115
37198W        W 9623  39.499  31.229   4.021
37199W        W 9624  22.728  23.868  14.333
37200W        W 9625  37.475  22.914   2.296
37201W        W 9626  31.941  28.599   1.163
37202W        W 9627  18.592  15.010  11.843
37203W        W 9628  26.146  23.978  14.993
37204W        W 9629  12.870  34.582   0.723
37205W        W 9630   2.977   6.579  11.520
37206W        W 9631  30.454   4.653  14.573
37207W        W 9632  34.618   2.765  13.947
37208W        W 9633  30.899   3.804   4.474
37209W        W 9634  40.770   0.348   1.663
37210W        W 9635  21.250   3.319   1.416
37211W        W 9636  33.757   4.729  14.774
37212W        W 9637   8.272  30.612   2.273
37213W        W 9638  15.315  11.750   1.783
37214W        W 9639  20.029  30.246  12.403
37215W        W 9640   7.462  35.995   1.373
37216W        W 9641  33.097   3.248  12.803
37217W        W 9642  28.041  30.886   5.109
37218W        W 9643  29.704  43.821   4.032
37219W        W 9644  29.667  44.950   0.725
37220W        W 9645   6.474  10.387   3.574
37221W        W 9646  33.356  21.525   0.799
37222W        W 9647  31.217  37.406   1.006
37223W        W 9648   0.925  33.771  13.408
37224W        W 9649  42.871  29.951  10.923
37225W        W 9650  10.256   2.314  13.556
37226W        W 9651   5.197  27.665   0.385
37227W        W 9652   0.718  16.810  12.452
37228W        W 9653  18.820  44.566   0.955
37229W        W 9654   4.687  13.729   9.894
37230W        W 9655  33.080   5.943  11.695
37231W        W 9656  39.949  26.076   2.372
37232W        W 9657  13.970  37.976   1.878
37233W        W 9658  33.331  41.055   2.339
37234W        W 9659  14.702  23.290  14.248
37235W        W 9660  12.511  27.465   1.165
37236W        W 9661  41.392  21.314   2.668
37237W        W 9662  20.207  35.300  13.019
37238W        W 9663  40.522  33.677  12.185
37239W        W 9664  24.190  31.152   3.885
37240W        W 9665  35.644  23.102   1.484
37241W        W 9666  30.098  14.366  14.023
37242W        W 9667  18.715  20.024  10.474
37243W        W 9668  44.528   9.313  13.473
37244W        W 9669  38.096  24.497   3.156
37245W        W 9670  22.499   9.410  11.038
37246W        W 9671   5.640  36.179   1.141
37247W        W 9672   0.976  34.554   0.858
37248W        W 9673  26.473  37.033  13.047
37249W        W 9674  17.602  16.382   2.897
37250W        W 9675  20.108  33.713  13.477
37251W        W 9676  13.861  11.774  14.000
37252W        W 9677  31.449  39.186  14.976
37253W        W 9678   4.178  32.395   2.292
37254W        W 9679  17.098  28.137  10.570
37255W        W 9680  27.257  43.886  11.895
37256W        W 9681  37.926  38.427  14.796
37257W        W 9682  15.663   4.252  12.015
37258W        W 9683  14.094  29.191  11.542
37259W        W 9684   3.974  33.634  12.220
37260W        W 9685  12.777  30.173  13.398
37261W        W 9686   5.386  31.583   3.632
37262W        W 9687  15.327  30.722  12.774
37263W        W 9688  44.520  23.036  14.386
37264W        W 9689  23.084  21.676  10.771
37265W        W 9690  13.359   0.493   3.960
37266W        W 9691  27.224  15.339   3.750
37267W        W 9692  12.354  12.890  13.905
37268W        W 9693   0.437  33.561   0.828
37269W        W 9694   6.240  29.712  14.236
37270W        W 9695  32.083  39.526   3.635
37271W        W 9696  19.052  36.623   2.307
37272W        W 9697  19.779   0.804  12.541
37273W        W 9698  42.343  37.325   3.209
37274W        W 9699  26.061  14.935  14.380
37275W        W 9700  28.371  22.884   0.313
37276W        W 9701  37.427  32.004   3.762
37277W        W 9702  31.764   4.233   3.719
37278W        W 9703  21.989  25.698   1.898
37279W        W 9704  30.569  44.207   1.626
37280W        W 9705   2.171  12.777   2.875
37281W        W 9706  33.175  28.595   1.876
37282W        W 9707  22.624  37.837   2.194
37283W        W 9708   0.074   4.151  13.673
37284W        W 9709   1.951   4.889  14.296
37285W        W 9710  14.167  37.739   2.818
37286W        W 9711   0.040  20.363   4.226
37287W        W 9712  36.130  38.809  14.957
37288W        W 9713   8.261   2.169  11.599
37289W        W 9714  24.146  21.556   0.711
37290W        W 9715  40.477   8.472   0.439
37291W        W 9716  43.870  11.236   4.620
37292W        W 9717  40.346  32.769  11.913
37293W        W 9718  18.710  12.986   3.561
37294W        W 9719  38.549  25.530  10.219
37295W        W 9720  38.573  26.644   3.672
37296W        W 9721  35.593  26.052   0.518
37297W        W 9722  11.272   7.645   3.252
37298W        W 9723   5.079  18.556   4.800
37299W        W 9724  13.681  29.430   2.194
37300W        W 9725  43.424  29.837  11.592
37301W        W 9726   5.507  10.433  13.493
37302W        W 9727  30.630  21.518   1.669
37303W        W 9728  10.087   4.335  12.484
37304W        W 9729  18.552  10.733   3.167
37305W        W 9730  17.821  37.038   3.805
37306W        W 9731  37.917  27.737   3.605
37307W        W 9732   3.333   9.700   4.139
37308W        W 9733   6.131  31.541  14.881
37309W        W 9734  30.699  30.195  11.187
37310W        W 9735   8.751  36.240   2.625
37311W        W 9736  23.005  43.229  14.092
37312W        W 9737  19.044  22.975   0.852
37313W        W 9738   1.715  40.437   2.715
37314W        W 9739  28.422   9.381   3.617
37315W        W 9740  28.398  40.551   1.025
37316W        W 9741  42.965  28.699   2.709
37317W        W 9742  23.584  29.516  13.520
37318W        W 9743   6.918   7.401  13.470
37319W        W 9744   1.490  14.858  11.750
37320W        W 9745  15.281  15.784   1.718
37321W        W 9746  16.857  20.029  10.588
37322W        W 9747  19.873  30.659   2.526
37323W        W 9748  41.946  27.150   3.998
37324W        W 9749   5.231  25.513   1.201
37325W        W 9750  11.225  10.703   2.649
37326W        W 9751  42.315  33.440   1.443
37327W        W 9752   0.183   4.251  14.547
37328W        W 9753  43.544  35.883  12.135
37329W        W 9754  22.620  35.825  10.150
37330W        W 9755  25.709   3.058  11.166
37331W        W 9756  29.199  34.975  12.003
37332W        W 9757   6.172  34.841  11.566
37333W        W 9758  23.499   8.541  10.060
37334W        W 9759  14.268   2.764  14.957
37335W        W 9760  15.276   8.251  14.801
37336W        W 9761   6.335  28.973   0.047
37337W        W 9762   3.959  41.325   3.785
37338W        W 9763   9.152  35.946  10.606
37339W        W 9764  30.329  36.782  12.509
37340W        W 9765  32.363  10.709   4.406
37341W        W 9766  30.598  37.960  14.455
37342W        W 9767   8.174   5.290   4.167
37343W        W 9768  39.467  30.306   1.754
37344W        W 9769   1.034  21.891   4.070
37345W        W 9770   7.319  17.303   2.296
37346W        W 9771   7.504  40.832  11.165
37347W        W 9772  14.866   8.907  10.716
37348W        W 9773  22.570  33.136   3.033
37349W        W 9774  41.536   8.371  10.963
37350W        W 9775  20.091  32.042   4.310
37351W        W 9776   2.825  14.627  11.662
37352W        W 9777  18.696  43.696   2.821
37353W        W 9778  31.756  43.592   0.046
37354W        W 9779  12.252  34.927   4.763
37355W        W 9780   1.960  21.365   2.165
37356W        W 9781  20.463   9.581  13.084
37357W        W 9782  36.323  20.804   1.420
37358W        W 9783  44.130  29.978   3.314
37359W        W 9784  38.856  30.918  13.439
37360W        W 9785  40.072  25.165   0.310
37361W        W 9786   4.005   8.409   3.461
37362W        W 9787   7.011  39.571  13.913
37363W        W 9788  38.613  35.175   4.991
37364W        W 9789  18.778  34.315  10.787
37365W        W 9790  34.560  10.777   3.667
37366W        W 9791  35.622  18.171   0.933
37367W        W 9792   4.920  26.335   1.522
37368W        W 9793  40.969  31.468  13.968
37369W        W 9794   9.944  27.636   0.505
37370W        W 9795  39.712  11.419   3.697
37371W        W 9796  36.773  41.930   4.580
37372W        W 9797  41.042  13.416  12.878
37373W        W 9798   4.250  34.183  13.935
37374W        W 9799  25.443  37.497   1.893
37375W        W 9800  10.195  11.952  14.040
37376W        W 9801   6.437  31.933  11.444
37377W        W 9802  37.307  21.769   0.171
37378W        W 9803  22.820   3.406   3.668
37379W        W 9804  17.642  33.946   4.066
37380W        W 9805  44.007  13.146   4.690
37381W        W 9806  40.506   3.345  12.922
37382W        W 9807  43.912  41.793   2.176
37383W        W 9808  26.636  11.339   4.328
37384W        W 9809   3.316  37.448  13.398
37385W        W 9810  35.528  37.377   0.864
37386W        W 9811  44.961  24.602   4.062
37387W        W 9812  17.057  38.128   1.890
37388W        W 9813  10.120   7.245   0.361
37389W        W 9814  39.618  34.092  11.585
37390W        W 9815  24.170  29.390  12.440
37391W        W 9816  34.733  19.582   2.795
37392W        W 9817  43.718   9.823   2.231
37393W        W 9818  35.123  19.764  14.501
37394W        W 9819  33.587  13.539   1.769
37395W        W 9820  27.471   2.252  11.566
37396W        W 9821  10.386   6.157   4.649
37397W        W 9822  28.200  29.107   4.367
37398W        W 9823  20.657  23.427  12.467
37399W        W 9824  29.252  32.424   0.229
37400W        W 9825   6.328  42.578  14.398
37401W        W 9826   7.716   9.934  11.131
37402W        W 9827  29.414  41.932   2.097
37403W        W 9828  39.116  17.666  12.635
37404W        W 9829  37.293  42.483   2.387
37405W        W 9830  26.844  13.864   2.344
37406W        W 9831  34.832  36.623  10.922
37407W        W 9832   9.955  11.244   1.960
37408W        W 9833  42.448  14.025  10.904
37409W        W 9834  22.054  44.472  14.803
37410W        W 9835  25.731   1.592   1.356
37411W        W 9836  18.551  27.148   1.182
37412W        W 9837   5.465  38.474   0.404
37413W        W 9838  19.067  16.578   1.357
37414W        W 9839  40.789  12.715   1.851
37415W        W 9840  30.138  20.069   2.276
37416W        W 9841  39.799  17.697  11.842
37417W        W 9842  40.757   0.202   0.678
37418W        W 9843  40.047  21.316  12.856
37419W        W 9844   1.362  30.701   1.787
37420W        W 9845  31.105   5.950   0.145
37421W        W 9846  33.168  32.453   0.494
37422W        W 9847  27.453  24.153   0.278
37423W        W 9848  17.134  30.745   3.242
37424W        W 9849  16.313  20.260   4.368
37425W        W 9850  41.618  25.230  10.456
37426W        W 9851  13.105   0.495   0.546
37427W        W 9852  19.171  41.895   3.208
37428W        W 9853  15.725   1.933  13.589
37429W        W 9854  17.740  23.311  12.537
37430W        W 9855  42.616  29.144   3.551
37431W        W 9856  40.831  27.278   0.617
37432W        W 9857  26.625  22.530  14.953
37433W        W 9858  16.202  37.308   0.322
37434W        W 9859  43.063   1.756  13.780
37435W        W 9860  11.852  13.459   0.222
37436W        W 9861  37.452  24.674  13.934
37437W        W 9862   1.532  36.536   1.736
37438W        W 9863  27.564  20.589  10.725
37439W        W 9864  33.092  33.932   0.767
37440W        W 9865  38.807  21.073  13.571
37441W        W 9866  33.177  24.682   1.275
37442W        W 9867  44.308  36.502   4.644
37443W        W 9868  18.598   4.033  13.061
37444W        W 9869  25.273  23.122   1.649
37445W        W 9870  27.895  28.661   3.304
37446W        W 9871  38.784  39.597   1.289
37447W        W 9872  35.644  31.138   2.503
37448W        W 9873  39.368  27.815   3.699
37449W        W 9874  16.631  16.558  12.009
37450W        W 9875  31.163   6.980  14.048
37451W        W 9876   2.331  12.930  10.712
37452W        W 9877  14.031  31.073   0.725
37453W        W 9878  13.647  12.287   2.652
37454W        W 9879   8.871  44.601  14.799
37455W        W 9880   5.360  35.497  12.404
37456W        W 9881  13.538   6.438  11.591
37457W        W 9882  27.495   5.418  11.848
37458W        W 9883  31.358  24.597   1.844
37459W        W 9884  23.964   7.954   3.804
37460W        W 9885  18.168  27.123  12.185
37461W        W 9886  25.614  32.014   1.351
37462W        W 9887  12.210   4.301  11.438
37463W        W 9888  21.564   6.933   4.195
37464W        W 9889  27.457   1.407   1.757
37465W        W 9890  25.214  27.016  14.909
37466W        W 9891  37.080   8.433   0.290
37467W        W 9892  36.179   1.267   4.160
37468W        W 9893  11.728  23.187  11.096
37469W        W 9894  41.690  13.928   0.268
37470W        W 9895   2.807  42.792  12.663
37471W        W 9896  16.281  28.656  10.642
37472W        W 9897  28.702  31.388   4.095
37473W        W 9898  26.177  39.317   4.114
37474W        W 9899  26.757  18.717  13.112
37475W        W 9900  27.756   7.261  11.605
37476W        W 9901   7.385   1.829  13.413
37477W        W 9902  37.967  30.945   3.541
37478W        W 9903   1.138   9.557  14.810
37479W        W 9904  30.690  13.099  11.577
37480W        W 9905   5.245   7.597  11.786
37481W        W 9906  26.185  34.608  14.412
37482W        W 9907   6.827   8.205   4.069
37483W        W 9908  29.878  22.108   1.890
37484W        W 9909  23.595  17.656  14.458
37485W        W 9910  12.239   7.817   0.395
37486W        W 9911  41.450   5.820  13.452
37487W        W 9912   5.165  11.173   1.099
37488W        W 9913  28.134  16.846  11.154
37489W        W 9914  10.235  23.847  13.481
37490W        W 9915  20.652   7.115   2.232
37491W        W 9916  11.595  44.087   2.323
37492W        W 9917   9.650  15.191   4.096
37493W        W 9918  21.348  13.795  10.656
37494W        W 9919  33.660  14.718   1.335
37495W        W 9920   4.426   7.409  11.964
37496W        W 9921  35.788  30.622   2.821
37497W        W 9922  38.814  14.214  12.588
37498W        W 9923  39.059  23.153   1.469
37499W        W 9924  18.733   0.877   0.221
37500W        W 9925  19.604  38.507   4.576
37501W        W 9926   3.956   6.485   2.976
37502W        W 9927  38.623  27.965  13.412
37503W        W 9928  27.446  44.265  10.696
37504W        W 9929  32.768  29.968   1.220
37505W        W 9930  27.446  36.066  10.578
37506W        W 9931  24.980  23.396   4.294
37507W        W 9932  12.418   3.766   3.242
37508W        W 9933  13.170  16.495  12.608
37509W        W 9934  15.014  43.054   4.097
37510W        W 9935  35.963  29.507  10.718
37511W        W 9936   9.069  12.763   1.842
37512W        W 9937  17.036  34.530  14.362
37513W        W 9938   5.325   6.220   1.716
37514W        W 9939   4.877  16.340  12.442
37515W        W 9940  32.931  14.217   2.669
37516W        W 9941  39.051  14.895   2.772
37517W        W 9942  25.558  12.201   1.828
37518W        W 9943   2.579  36.935  11.612
37519W        W 9944  22.201  24.390   0.056
37520W        W 9945  40.355  15.280   4.640
37521W        W 9946   2.021  31.127  12.759
37522W        W 9947  37.417  41.963  11.985
37523W        W 9948  24.149  30.926   3.385
37524W        W 9949   8.086  19.335   1.220
37525W        W 9950  27.999   1.047  10.040
37526W        W 9951  36.002   6.444  11.154
37527W        W 9952  15.117  23.885   5.421
37528W        W 9953  12.403  40.951  13.615
37529W        W 9954  38.892  19.480  14.396
37530W        W 9955  44.729  10.240  12.993
37531W        W 9956  29.611   9.673  14.993
37532W        W 9957  31.031   1.820   3.438
37533W        W 9958  32.336  25.166  12.100
37534W        W 9959  41.304  27.995  14.752
37535W        W 9960  20.294  15.056   0.207
37536W        W 9961  24.630  14.080   2.923
37537W        W 9962   1.492  25.449  13.875
37538W        W 9963   7.670  15.463   2.439
37539W        W 9964  26.163  11.236  12.053
37540W        W 9965   4.417   8.825  14.809
37541W        W 9966  28.985   2.735   0.714
37542W        W 9967  11.993  12.379  14.806
37543W        W 9968  35.813   8.611  13.552
37544W        W 9969  23.585  12.839  13.381
37545W        W 9970  34.380  16.574   1.246
37546W        W 9971  24.090  13.666  10.414
37547W        W 9972  16.772  32.533   0.949
37548W        W 9973  18.708  27.885   0.703
37549W        W 9974  17.493  27.479  11.932
37550W        W 9975  37.451  41.042  10.561
37551W        W 9976  22.056   7.871   1.752
37552W        W 9977  25.147  38.778   3.655
37553W        W 9978  18.586  30.458  11.368
37554W        W 9979   8.874  13.590   3.689
37555W        W 9980  20.561  13.366   2.917
37556W        W 9981  10.891  44.408  10.617
37557W        W 9982  43.895  16.360  10.581
37558W        W 9983  36.298  11.744   0.422
37559W        W 9984   4.503  22.545   3.256
37560W        W 9985  40.494   1.216  13.233
37561W        W 9986  15.857  30.985  10.660
37562W        W 9987  16.131  32.901  11.121
37563W        W 9988  40.517  34.699   2.348
37564W        W 9989  42.827  25.722  13.072
37565W        W 9990  30.404  13.369  14.495
37566W        W 9991  21.043  23.725   0.410
37567W        W 9992   3.756   4.850  11.120
37568W        W 9993   0.046  20.093   0.303
37569W        W 9994   6.190   3.650   4.507
37570W        W 9995  35.339  32.503   1.363
37571W        W 9996  24.737  37.536  12.360
37572W        W 9997  20.114  10.034  14.529
37573W        W 9998   5.682  21.828   2.541
37574W        W 9999  16.175  19.137   0.829
37575W        W10000  22.113  10.219  11.060
37576W        W10001  36.675  43.757  11.593
37577W        W10002  13.147  31.646  14.235
37578W        W10003  43.227  19.324   2.694
37579W        W10004  35.290  15.780   1.337
37580W        W10005  32.931  33.852  11.114
37581W        W10006  28.864  35.663   1.983
37582W        W10007  23.574  18.870   1.432
37583W        W10008   9.455   7.324  11.222
37584W        W10009  39.833  18.327   3.180
37585W        W10010  13.170   4.418  11.527
37586W        W10011   4.841   8.300   3.279
37587W        W10012  44.914  22.195   3.772
37588W        W10013  22.066  38.644  12.367
37589W        W10014  17.707  13.376   2.576
37590W        W10015   5.977  43.956   0.817
37591W        W10016  36.055  18.081   4.402
37592W        W10017  41.073  13.104  12.469
37593W        W10018   9.639  34.422   1.806
37594W        W10019  31.683  20.325   2.779
37595W        W10020  39.052  15.902  10.216
37596W        W10021  25.691  29.800  11.564
37597W        W10022   2.915  11.532   4.464
37598W        W10023  38.558  34.426  12.832
37599W        W10024  22.045   3.180   4.656
37600W        W10025  42.052  16.130  12.806
37601W        W10026  36.324  41.326   9.811
37602W        W10027  10.401  12.467   1.793
37603W        W10028  42.334  43.435  13.024
37604W        W10029  19.593  40.512   2.131
37605W        W10030   1.354  20.532  12.181
37606W        W10031  14.981   3.415   3.618
37607W        W10032  33.002   6.875  12.087
37608W        W10033  16.941  12.189   3.440
37609W        W10034  30.506  44.355  13.338
37610W        W10035  41.372  18.816   1.715
37611W        W10036  32.849  39.360  12.041
37612W        W10037  29.932  14.142  12.015
37613W        W10038  37.487   7.990  13.426
37614W        W10039  18.302   9.098   3.242
37615W        W10040  42.514  16.205  13.070
37616W        W10041   6.721  29.750   4.530
37617W        W10042  19.997   2.693   0.989
37618W        W10043  11.713   2.460   0.882
37619W        W10044  29.974   2.411  11.933
37620W        W10045  44.561  18.790   2.205
37621W        W10046   6.834   2.544  12.503
37622W        W10047  44.317  28.432   2.740
37623W        W10048  36.982  32.533   4.169
37624W        W10049  38.310  43.380   3.539
37625W        W10050  37.423  11.244  13.385
37626W        W10051  35.865  37.281  14.871
37627W        W10052   3.720  11.331   4.744
37628W        W10053  26.915  27.422  11.904
37629W        W10054  36.336  21.184  11.648
37630W        W10055  41.927  32.261   2.599
37631W        W10056  24.131  23.107  13.600
37632W        W10057  19.602  35.352  14.725
37633W        W10058   1.418  37.048   1.839
37634W        W10059  13.108   6.795   0.242
37635W        W10060  20.793  34.493  11.589
37636W        W10061  35.135   2.769   1.853
37637W        W10062  31.670  31.586  11.501
37638W        W10063  25.921  32.249   2.619
37639W        W10064  28.175   9.948  10.320
37640W        W10065   8.558   8.624  10.972
37641W        W10066  38.015  23.939  12.815
37642W        W10067  18.256  21.101  14.008
37643W        W10068  20.215  28.797   0.934
37644W        W10069  31.296  33.135  12.015
37645W        W10070  33.991  23.631  11.591
37646W        W10071  11.262  30.719   2.324
37647W        W10072  23.562  38.819   0.966
37648W        W10073  42.325  23.020   1.036
37649W        W10074  14.646  17.369   4.878
37650W        W10075   1.423  21.960   3.703
37651W        W10076  36.338  39.243  13.846
37652W        W10077  20.575  24.926   2.632
37653W        W10078   5.322  12.630  12.507
37654W        W10079  24.674  23.583   0.766
37655W        W10080  23.655  12.719  13.891
37656W        W10081  29.602   5.783   0.663
37657W        W10082  12.600  15.644  11.030
37658W        W10083  38.069  25.248  10.217
37659W        W10084  33.876  21.913  10.743
37660W        W10085   8.706  42.471  13.916
37661W        W10086  29.466  14.225  11.726
37662W        W10087  22.493  25.012  14.577
37663W        W10088  19.155  12.677   3.662
37664W        W10089  13.827  15.747  12.094
37665W        W10090  14.210  43.779   4.128
37666W        W10091  42.527  27.177  11.333
37667W        W10092   3.936   6.452   1.902
37668W        W10093   3.006   2.844  10.680
37669W        W10094  14.515  11.307  12.622
37670W        W10095  24.553   5.299   3.240
37671W        W10096  24.722   5.315   3.750
37672W        W10097  28.675  42.679  11.414
37673W        W10098  30.039  27.076   3.621
37674W        W10099  15.321  27.667   1.299
37675W        W10100  31.198  42.320   3.728
37676W        W10101  34.033  31.647   0.884
37677W        W10102  34.779  28.369  10.710
37678W        W10103  14.282  13.467   5.083
37679W        W10104  22.330  12.744  14.283
37680W        W10105  32.169  13.801  11.118
37681W        W10106  37.849  11.665   3.615
37682W        W10107  10.570  21.070  14.435
37683W        W10108   7.154   2.896  13.950
37684W        W10109  21.231   9.053   4.704
37685W        W10110  17.178   6.811  14.519
37686W        W10111  44.047  43.519  14.820
37687W        W10112  28.582  23.166  10.626
37688W        W10113  31.131  42.859   0.735
37689W        W10114  25.145  40.440   1.229
37690W        W10115  20.639  34.151   3.667
37691W        W10116  19.481  31.575  11.660
37692W        W10117  43.413  42.852   1.665
37693W        W10118  26.643  18.086  12.109
37694W        W10119  29.149   2.470   0.264
37695W        W10120  26.708   6.522  13.833
37696W        W10121  40.370  38.108  11.558
37697W        W10122   0.417  28.461   1.445
37698W        W10123   0.074   3.640  10.167
37699W        W10124  14.763  12.692   3.681
37700W        W10125   0.296  38.873   1.558
37701W        W10126  25.789  19.744  14.434
37702W        W10127   3.889  32.957   0.818
37703W        W10128  17.518   1.696   3.238
37704W        W10129  28.182  39.904   2.887
37705W        W10130  24.501  39.518  12.800
37706W        W10131  12.346   1.660  12.362
37707W        W10132  33.142  14.765  14.409
37708W        W10133  35.279  14.744  13.532
37709W        W10134   6.445   3.469  14.251
37710W        W10135   2.588  12.053  13.600
37711W        W10136  16.028  26.693  12.933
37712W        W10137  28.901  18.170  13.857
37713W        W10138   9.973  44.957  14.363
37714W        W10139  12.624  12.173   1.003
37715W        W10140  33.919  37.306   1.751
37716W        W10141   1.927  15.400   0.257
37717W        W10142  29.649  34.085   4.271
37718W        W10143  19.139  27.156   0.437
37719W        W10144  32.020  19.296   4.571
37720W        W10145   9.770  24.661  14.656
37721W        W10146  37.872  13.337  13.779
37722W        W10147  14.810  40.422   4.339
37723W        W10148  10.663  30.185  10.623
37724W        W10149  20.328   4.898  14.755
37725W        W10150  40.380  23.622  11.481
37726W        W10151  26.077   2.218   0.653
37727W        W10152  16.396  44.914   1.915
37728W        W10153  21.686   0.310   2.899
37729W        W10154  27.247  19.035   4.943
37730W        W10155  17.132  24.924   3.593
37731W        W10156  31.115   6.770   3.743
37732W        W10157  20.315  43.718  10.899
37733W        W10158  22.054  12.642   2.579
37734W        W10159  20.954  12.565   0.856
37735W        W10160  17.753  44.609  14.012
37736W        W10161  33.703   8.234   0.359
37737W        W10162  21.891  40.345  13.819
37738W        W10163   5.999  34.640   4.754
37739W        W10164  14.281   0.337  14.821
37740W        W10165  13.435  10.988  11.379
37741W        W10166   5.425  16.290   2.815
37742W        W10167   0.200  15.180   3.235
37743W        W10168  32.604  21.054   1.730
37744W        W10169  19.161  42.810   2.254
37745W        W10170  37.952  42.042   3.685
37746W        W10171  11.550  29.978   3.683
37747W        W10172  31.848   2.708  11.689
37748W        W10173   2.760   1.359   1.433
37749W        W10174   2.480  23.117  11.940
37750W        W10175  25.501  42.047   1.709
37751W        W10176  12.624  15.095   1.914
37752W        W10177  36.108  26.020  11.732
37753W        W10178  16.109  13.307   3.705
37754W        W10179  19.204  32.206   1.327
37755W        W10180  28.029  32.026  12.566
37756W        W10181  16.234  23.258  13.011
37757W        W10182   3.372  32.418  12.068
37758W        W10183  38.840  30.481   3.344
37759W        W10184   1.232  14.533   1.795
37760W        W10185  28.504   5.190   2.622
37761W        W10186  13.180  40.316  12.980
37762W        W10187  38.424  43.239  14.904
37763W        W10188  26.703   2.028  14.413
37764W        W10189   1.244  33.969  14.532
37765W        W10190  31.856   9.896  10.142
37766W        W10191  16.872  25.582   0.837
37767W        W10192   1.006   4.713   3.216
37768W        W10193   1.238   7.917   0.323
37769W        W10194  15.146  22.128  11.429
37770W        W10195  18.497  37.561   0.715
37771W        W10196  30.874   0.615   0.422
37772W        W10197  30.204  16.596   0.977
37773W        W10198  39.314  12.425   2.338
37774W        W10199  37.520  20.723   2.847
37775W        W10200   5.806  27.732   0.965
37776W        W10201  36.319  34.470   9.703
37777W        W10202   5.967  11.263  14.922
37778W        W10203  35.388  36.107  12.046
37779W        W10204  23.250  31.856   1.300
37780W        W10205  27.148  13.058   2.791
37781W        W10206  21.631  17.435   3.350
37782W        W10207  16.712  13.629  13.370
37783W        W10208   8.272  32.915  14.583
37784W        W10209  14.747  32.450  12.319
37785W        W10210  35.874  31.003  12.841
37786W        W10211   4.259  13.180   0.606
37787W        W10212  20.458  33.439  12.139
37788W        W10213  28.175   5.986   1.700
37789W        W10214  43.842  31.549  11.298
37790W        W10215   1.822   8.250   1.328
37791W        W10216  14.256  33.253  11.359
37792W        W10217  23.169  25.465  10.972
37793W        W10218   9.196   1.771  11.629
37794W        W10219   4.191  42.912   4.045
37795W        W10220  38.590  44.547   1.380
37796W        W10221  11.583  25.963   0.582
37797W        W10222  40.860  34.403   4.065
37798W        W10223  24.329  15.551  10.290
37799W        W10224  31.648   9.376  14.108
37800W        W10225  19.979  23.751   1.305
37801W        W10226  22.251   0.482  14.805
37802W        W10227   1.037  11.070   3.262
37803W        W10228  35.853  21.071   1.645
37804W        W10229  19.996   8.102  13.618
37805W        W10230  19.249  16.335   0.803
37806W        W10231  20.141  27.786  14.937
37807W        W10232  37.948   7.843   0.401
37808W        W10233  42.858   3.846  12.037
37809W        W10234   2.551  15.340  14.141
37810W        W10235  37.801   6.928   4.184
37811W        W10236  36.471  19.190   2.643
37812W        W10237  39.420  33.577  13.226
37813W        W10238  42.800  33.715  12.410
37814W        W10239  18.296  26.120   4.837
37815W        W10240  32.384   4.863  13.414
37816W        W10241  11.625  14.624  11.613
37817W        W10242  40.296   8.008  10.505
37818W        W10243   7.960  13.399   3.701
37819W        W10244  17.070  18.582  13.410
37820W        W10245  42.452  14.162  14.019
37821W        W10246   3.347   8.290   2.628
37822W        W10247  28.918   1.140  11.135
37823W        W10248  22.726  15.850  10.051
37824W        W10249  27.188   1.497   2.395
37825W        W10250  14.574  19.761  13.871
37826W        W10251  42.040   6.918   1.298
37827W        W10252  10.083   5.670  10.825
37828W        W10253  11.413   2.512  10.686
37829W        W10254   6.217   4.354   3.126
37830W        W10255  44.131  41.926   4.587
37831W        W10256  31.950   0.694  13.689
37832W        W10257  11.152  13.609   2.806
37833W        W10258  39.033  13.275   0.712
37834W        W10259  41.472  30.385   3.536
37835W        W10260  43.065  41.623  11.097
37836W        W10261  37.822  16.194   0.269
37837W        W10262  30.154  29.162   4.629
37838W        W10263   9.128  28.562  10.675
37839W        W10264  31.991   2.522  14.774
37840W        W10265  19.565  40.116  11.716
37841W        W10266   7.958  12.676   3.569
37842W        W10267  38.934  29.461  14.257
37843W        W10268  25.676  33.331   2.262
37844W        W10269  40.098  26.357  13.356
37845W        W10270   1.999  26.876   3.642
37846W        W10271  28.314  38.301  12.294
37847W        W10272   0.215  34.302   0.357
37848W        W10273  10.100  41.342  11.624
37849W        W10274  32.837   7.799  11.574
37850W        W10275  20.725  11.097   0.002
37851W        W10276  26.493   2.784   1.872
37852W        W10277   2.384  33.707   0.444
37853W        W10278  17.299  11.321   3.323
37854W        W10279   3.383  24.682   4.122
37855W        W10280  15.181  26.088   2.777
37856W        W10281   8.163  31.274   0.954
37857W        W10282  17.104  12.670  13.376
37858W        W10283  44.784  31.130   3.744
37859W        W10284   8.263  35.884  10.663
37860W        W10285  18.800  17.780  12.729
37861W        W10286   4.860   8.620  14.996
37862W        W10287  36.020  29.091   4.527
37863W        W10288  10.582  41.317  11.870
37864W        W10289  14.751  38.344  14.678
37865W        W10290  25.258   5.683   0.587
37866W        W10291  30.664  33.967   1.106
37867W        W10292   1.616  22.656   0.761
37868W        W10293  34.787  21.227   4.165
37869W        W10294  42.948  35.442   1.711
37870W        W10295  33.319  34.924  11.201
37871W        W10296  20.091  32.316  11.501
37872W        W10297   0.390  18.115   3.685
37873W        W10298  44.311  15.857   0.984
37874W        W10299  38.032  23.062   3.271
37875W        W10300  14.137  35.841  12.611
37876W        W10301   9.381   5.999   2.313
37877W        W10302  21.979   6.694   3.683
37878W        W10303  23.815  19.269  13.098
37879W        W10304  37.012  31.543  10.619
37880W        W10305  29.648  38.624   0.783
37881W        W10306   3.350  10.384  12.055
37882W        W10307  41.350  26.302  14.099
37883W        W10308   9.660  26.087   3.963
37884W        W10309   5.350  21.149   3.778
37885W        W10310  11.399  17.447  13.129
37886W        W10311  28.866  43.827  13.867
37887W        W10312  39.643   7.339  12.581
37888W        W10313  20.232  38.648   2.342
37889W        W10314  42.532  11.072   2.787
37890W        W10315  44.536  41.954   1.470
37891W        W10316  38.441  32.474  11.127
37892W        W10317  12.518   9.375   3.099
37893W        W10318  26.287  36.115   5.119
37894W        W10319   6.626  42.387  10.485
37895W        W10320  23.820   4.751   1.785
37896W        W10321  18.090   4.832  12.883
37897W        W10322  27.978  21.332  13.943
37898W        W10323  18.703  32.374  13.072
37899W        W10324  15.893  44.995   2.684
37900W        W10325   0.548  16.694   0.781
37901W        W10326   5.290   7.882  13.896
37902W        W10327  36.318  27.981  13.814
37903W        W10328  32.063   3.992   0.715
37904W        W10329   8.318  28.060   0.041
37905W        W10330  18.198  31.184  13.573
37906W        W10331  26.611  37.930  13.232
37907W        W10332  33.836  15.329  14.498
37908W        W10333   2.029  24.649   0.281
37909W        W10334   2.235  12.343   3.712
37910W        W10335  22.186  14.826   3.995
37911W        W10336  28.231   6.333   3.387
37912W        W10337   6.461  43.767   0.930
37913W        W10338  24.368  26.971   4.550
37914W        W10339  44.914   5.271  14.872
37915W        W10340  27.846  30.390  11.862
37916W        W10341   8.300   8.883   1.302
37917W        W10342   2.557  43.717  11.178
37918W        W10343  11.246  11.578   1.410
37919W        W10344  13.204  30.724  13.860
37920W        W10345  41.716  43.455  11.007
37921W        W10346  21.054  14.004   4.842
37922W        W10347  17.561  12.873  10.714
37923W        W10348  42.754  35.876  10.682
37924W        W10349  33.561  26.210  12.025
37925W        W10350  34.123  32.117   1.738
37926W        W10351   4.702  21.629  10.715
37927W        W10352  19.786  36.126   3.249
37928W        W10353   0.072  12.237   1.241
37929W        W10354  37.979  38.345   3.907
37930W        W10355  35.334  10.855  11.723
37931W        W10356  39.918  41.030  11.498
37932W        W10357  41.588  36.471   3.754
37933W        W10358  35.980  16.376   0.778
37934W        W10359  24.577  32.112  14.957
37935W        W10360  22.462  11.823   4.389
37936W        W10361  15.577   6.170  13.931
37937W        W10362  33.604  10.289   5.169
37938W        W10363  44.716  14.087  14.693
37939W        W10364  30.138  25.781  11.093
37940W        W10365  18.136  34.322   3.226
37941W        W10366  24.167   5.149   1.719
37942W        W10367  44.816   4.835  12.466
37943W        W10368   7.890   0.857   2.501
37944W        W10369  13.093   1.793  10.102
37945W        W10370   9.440   2.743  10.844
37946W        W10371  13.646   3.283   0.985
37947W        W10372  43.896  31.521   1.851
37948W        W10373  32.828  42.823  13.044
37949W        W10374   3.458  29.464  12.823
37950W        W10375  28.359  32.705  13.405
37951W        W10376  23.575   0.713   0.784
37952W        W10377  31.965  28.698   3.655
37953W        W10378   8.951  20.649  14.745
37954W        W10379  19.127  12.823   4.174
37955W        W10380   1.445   1.031  11.524
37956W        W10381  37.563   4.020   1.414
37957W        W10382  32.526   6.224   3.690
37958W        W10383  28.842  34.141  13.573
37959W        W10384  39.038  32.904  11.951
37960W        W10385  42.294  41.845  14.461
37961W        W10386  16.840   2.460  11.479
37962W        W10387   2.398  29.939  11.790
37963W        W10388  40.443   5.951  13.020
37964W        W10389   8.855  37.514   0.790
37965W        W10390  11.804   0.989  12.959
37966W        W10391   2.790  32.941   2.351
37967W        W10392   6.358  37.436  12.475
37968W        W10393  35.322  12.588  12.914
37969W        W10394   1.486   1.252   2.631
37970W        W10395  24.048  28.515   3.261
37971W        W10396  41.811  43.697   0.627
37972W        W10397  41.466   8.462  11.460
37973W        W10398  17.074  19.389  12.860
37974W        W10399   2.472  19.765   3.258
37975W        W10400  18.209   9.743  12.112
37976W        W10401  16.111  21.604   0.055
37977W        W10402  24.685  30.985  12.137
37978W        W10403  35.332  23.539   3.693
37979W        W10404   7.414  22.784   3.365
37980W        W10405   4.314  10.057   4.283
37981W        W10406  15.839  27.477  10.854
37982W        W10407  42.716   7.678   3.682
37983W        W10408  21.685  24.857   3.213
37984W        W10409  22.810   8.408  13.031
37985W        W10410  38.133  28.167   3.384
37986W        W10411   5.761   6.755  13.783
37987W        W10412  24.795  41.794   3.029
37988W        W10413   3.677   9.296   4.077
37989W        W10414  18.729  11.259   4.913
37990W        W10415   2.663  30.334  14.773
37991W        W10416  11.772  24.493   4.582
37992W        W10417  10.304  12.848   2.157
37993W        W10418  44.453  39.787  13.610
37994W        W10419  11.778  12.675  10.843
37995W        W10420   2.825  42.328  11.155
37996W        W10421   6.507   9.295   0.508
37997W        W10422   2.447  35.868   0.343
37998W        W10423  30.509  25.001   4.024
37999W        W10424  23.449   5.450   3.071
38000W        W10425  39.924  32.639   1.674
38001W        W10426  25.208   8.275  11.681
38002W        W10427  35.218  33.857   1.467
38003W        W10428  28.626  30.723   3.296
38004W        W10429  43.947  30.858  13.498
38005W        W10430  22.462   3.489   4.520
38006W        W10431  16.634  17.222   3.844
38007W        W10432  22.207  35.398   4.498
38008W        W10433   3.925  31.928  11.551
38009W        W10434  30.792  36.254  11.230
38010W        W10435   2.389   0.400   1.900
38011W        W10436  20.621  14.917  12.334
38012W        W10437  31.167   3.814  13.448
38013W        W10438  24.240   1.279   2.847
38014W        W10439  43.501  38.013   0.908
38015W        W10440  10.005  26.775  11.037
38016W        W10441  42.874  11.421   4.836
38017W        W10442  28.602  39.599  10.753
38018W        W10443  35.375  26.858   0.222
38019W        W10444   6.910   3.286  10.748
38020W        W10445   5.773  27.980   1.458
38021W        W10446  40.791  27.985  12.940
38022W        W10447  26.971  29.475   3.820
38023W        W10448  37.263  12.146  14.771
38024W        W10449  40.081  41.873  13.292
38025W        W10450   3.698  17.924  13.348
38026W        W10451  37.413   7.395  12.508
38027W        W10452   0.950   3.419   1.914
38028W        W10453  25.517  44.587   2.843
38029W        W10454  41.317  38.904   0.480
38030W        W10455  39.361   2.409  11.984
38031W        W10456  30.932   3.472  10.700
38032W        W10457  44.520   8.753   0.262
38033W        W10458  31.017  12.422  11.060
38034W        W10459  43.574  23.441   0.924
38035W        W10460   3.366   7.195   2.879
38036W        W10461  10.659  34.243   2.844
38037W        W10462  23.176  35.488  13.483
38038W        W10463  34.125  15.812   2.109
38039W        W10464  23.436  28.688  13.675
38040W        W10465  29.598  31.101   1.651
38041W        W10466  22.157  18.253  11.960
38042W        W10467  40.024  28.773  11.018
38043W        W10468  19.229  44.456  14.815
38044W        W10469  34.404  17.732  14.470
38045W        W10470  37.165  25.005   1.287
38046W        W10471  23.540  38.433   3.633
38047W        W10472  11.766  34.342  10.313
38048W        W10473  11.431  24.989  10.496
38049W        W10474   5.468  41.863  12.300
38050W        W10475  15.702  13.033  14.407
38051W        W10476  40.843  41.603   0.294
38052W        W10477  12.176   1.636   2.329
38053W        W10478  41.274  25.720  14.805
38054W        W10479  42.088  27.193  11.090
38055W        W10480   7.695   4.728   9.926
38056W        W10481  27.743  31.090   2.217
38057W        W10482   6.252  35.942   0.544
38058W        W10483  32.033   9.296   0.400
38059W        W10484  39.183  44.911  13.940
38060W        W10485   5.516  12.825  11.565
38061W        W10486   0.968   5.633   2.373
38062W        W10487  44.693  44.733  11.278
38063W        W10488  16.393   1.510  11.462
38064W        W10489  30.490  12.592   0.025
38065W        W10490  34.346  21.084   1.670
38066W        W10491  12.584  12.478   2.381
38067W        W10492  21.137  34.013   2.820
38068W        W10493  31.644  22.295  11.454
38069W        W10494  31.098  13.221  13.852
38070W        W10495  32.193  17.001   1.998
38071W        W10496  41.624  14.900  11.132
38072W        W10497  39.233  36.968   0.906
38073W        W10498  29.507  19.455   4.537
38074W        W10499   0.752   5.017  10.961
38075W        W10500   6.800  14.089   2.487
38076W        W10501  15.285  26.733   4.916
38077W        W10502  15.780  33.026  10.710
38078W        W10503  13.157  36.822  12.427
38079W        W10504  44.253  10.074  12.966
38080W        W10505   2.279   0.429  12.874
38081W        W10506   2.913  44.972   3.882
38082W        W10507  41.898  15.688  12.577
38083W        W10508  12.868  30.888   3.675
38084W        W10509  17.029  21.753   0.887
38085W        W10510  28.442  40.555   4.470
38086W        W10511  30.293  42.039  11.022
38087W        W10512  16.732  29.773  11.862
38088W        W10513  41.457  43.259   3.738
38089W        W10514  37.550  25.083   4.178
38090W        W10515  17.322   4.776   0.790
38091W        W10516  38.032  34.121  14.999
38092W        W10517  14.428  18.946  13.871
38093W        W10518   9.766  30.833   4.804
38094W        W10519   2.771   4.705  12.581
38095W        W10520  38.933   0.442  14.804
38096W        W10521  33.947   5.516   4.217
38097W        W10522  38.012  21.256   0.662
38098W        W10523  28.250  25.776  12.948
38099W        W10524  28.603  34.597   4.051
38100W        W10525  20.325   5.428   3.751
38101W        W10526  44.392   1.835   4.175
38102W        W10527   5.912   5.241   0.929
38103W        W10528  32.707  24.233  11.674
38104W        W10529  18.404  42.911   0.757
38105W        W10530  28.455   0.703   2.245
38106W        W10531  15.720   0.985   2.049
38107W        W10532   7.258  36.067  14.959
38108W        W10533  17.634  34.485   4.376
38109W        W10534  27.534  25.118   4.389
38110W        W10535   8.208  27.469  10.657
38111W        W10536  37.770  21.040  12.092
38112W        W10537  36.743   9.097   0.783
38113W        W10538   3.539  33.539  12.514
38114W        W10539  14.215  30.679   2.408
38115W        W10540  18.518  35.872  12.520
38116W        W10541  22.718   8.246   0.631
38117W        W10542  41.387   1.913  14.946
38118W        W10543   4.290   0.684   0.803
38119W        W10544  42.275  17.744   1.260
38120W        W10545  41.353   8.734  10.627
38121W        W10546  12.790  10.677   4.519
38122W        W10547  10.672   8.407   2.794
38123W        W10548  40.196  35.066  13.916
38124W        W10549  21.726   8.464  13.941
38125W        W10550  16.215  42.452   3.371
38126W        W10551  14.736  17.642   1.339
38127W        W10552   2.514  14.799   2.126
38128W        W10553  30.640  44.004   0.745
38129W        W10554   8.707  37.999   3.330
38130W        W10555  26.109  39.442  11.927
38131W        W10556  26.126  30.258  12.100
38132W        W10557  28.007  10.173   1.438
38133W        W10558  44.911  11.396  14.984
38134W        W10559  17.023  36.819   4.708
38135W        W10560   4.732  34.379  13.210
38136W        W10561   1.883  36.591  11.413
38137W        W10562  31.039  25.973  12.408
38138W        W10563  40.607  17.243   4.583
38139W        W10564  32.555  43.117   1.778
38140W        W10565  19.459  14.675   4.655
38141W        W10566   6.658  18.967  12.492
38142W        W10567  42.285  20.046  10.566
38143W        W10568  41.119  39.275   3.641
38144W        W10569  28.542  24.276   4.313
38145W        W10570   2.023  18.637   2.356
38146W        W10571  20.591   6.294  14.533
38147W        W10572  16.081  33.469  12.536
38148W        W10573  42.430  18.086  10.712
38149W        W10574  22.686  16.819   1.500
38150W        W10575  24.635  39.302  13.713
38151W        W10576  28.509   5.688   2.904
38152W        W10577  16.523  35.435  14.483
38153W        W10578  18.302   3.631  13.381
38154W        W10579   6.171  15.581   4.689
38155W        W10580   2.943   2.359   0.981
38156W        W10581  33.466  35.854  14.391
38157W        W10582  17.876   1.392  14.323
38158W        W10583  28.362  38.800   0.892
38159W        W10584   4.223  27.469  14.971
38160W        W10585  33.472  44.157  11.122
38161W        W10586  10.321  36.285   3.343
38162W        W10587  12.347  32.687   2.781
38163W        W10588  21.593  39.789   4.696
38164W        W10589  33.160   0.950   1.373
38165W        W10590   5.843  20.000  10.472
38166W        W10591  31.804  10.184   5.398
38167W        W10592  35.952   9.731  11.830
38168W        W10593  15.130  27.181   1.238
38169W        W10594  33.607  38.767  11.593
38170W        W10595  11.218   6.761   9.618
38171W        W10596  36.904  11.287   0.593
38172W        W10597  34.630  12.622  10.764
38173W        W10598  27.640  18.886   2.761
38174W        W10599  23.265   5.628   1.289
38175W        W10600  17.008   5.684  10.607
38176W        W10601   5.822   8.708   4.691
38177W        W10602  14.120   7.416  13.940
38178W        W10603  37.322  41.080  13.342
38179W        W10604  37.456  37.479  11.215
38180W        W10605  16.869  40.671  11.670
38181W        W10606   8.800  36.995  11.085
38182W        W10607  27.083  33.979  13.543
38183W        W10608  23.574  39.939  14.192
38184W        W10609  27.068  38.329   1.741
38185W        W10610   4.748  17.089   1.423
38186W        W10611  22.068  38.623   0.268
38187W        W10612  25.767   3.942   0.668
38188W        W10613  36.805  22.539  11.889
38189W        W10614   1.357   9.347   2.938
38190W        W10615  34.531   3.377   1.936
38191W        W10616  29.414  19.276   1.622
38192W        W10617  12.310  44.349  10.885
38193W        W10618  20.747  12.200   3.313
38194W        W10619  18.780  18.036  14.851
38195W        W10620   6.104  29.393   3.227
38196W        W10621  32.967  15.882   3.714
38197W        W10622  35.182  18.164  14.913
38198W        W10623   4.191  44.495   1.424
38199W        W10624  12.701   7.411   3.873
38200W        W10625  11.398  14.722  13.410
38201W        W10626   4.760  12.330   2.616
38202W        W10627  12.122   2.218  13.795
38203W        W10628  19.080  21.695   1.773
38204W        W10629   6.268  33.419  13.503
38205W        W10630  17.662  41.835   0.389
38206W        W10631  26.815  44.561   3.999
38207W        W10632  11.383  44.716   2.175
38208W        W10633   1.418  12.472   3.078
38209W        W10634   2.533  35.918  11.033
38210W        W10635  15.126  18.384  14.560
38211W        W10636  15.262  25.203   0.460
38212W        W10637  26.459  18.309  13.021
38213W        W10638   5.207  22.745   3.752
38214W        W10639   4.921  39.597  11.167
38215W        W10640  31.539  35.978   3.540
38216W        W10641   3.643  10.280   3.520
38217W        W10642  16.714  40.302  13.382
38218W        W10643  40.011  38.277  12.310
38219W        W10644  41.248  20.827  11.565
38220W        W10645  42.414  15.667  14.570
38221W        W10646  18.736   4.385   3.466
38222W        W10647  20.611  27.549   2.518
38223W        W10648   9.105  10.335   5.005
38224W        W10649  16.484   6.255   4.712
38225W        W10650   3.616  30.955   0.355
38226W        W10651  33.075  44.245   3.737
38227W        W10652  37.924  24.740   4.273
38228W        W10653   6.183   7.253   1.703
38229W        W10654   6.682  39.935   0.319
38230W        W10655  30.383  11.859   2.216
38231W        W10656  37.390  10.167   1.279
38232W        W10657  31.670  37.581  11.779
38233W        W10658  44.586  37.766  11.032
38234W        W10659  37.369  12.070   1.975
38235W        W10660   2.471   1.891  10.696
38236W        W10661  30.325   5.218   2.526
38237W        W10662  43.027  34.965   3.249
38238W        W10663  25.961  33.213   1.364
38239W        W10664   6.231  18.010  11.178
38240W        W10665   7.165  27.077   2.667
38241W        W10666   4.791  41.864  12.834
38242W        W10667  19.819  35.619  12.725
38243W        W10668  26.744  20.644   3.339
38244W        W10669  19.114  43.514  13.513
38245W        W10670  27.030  22.811   3.689
38246W        W10671  13.352  31.613  10.754
38247W        W10672  30.434  28.147   0.825
38248W        W10673  35.689  16.779  11.548
38249W        W10674   5.583  10.600   0.355
38250W        W10675  10.671   5.472  11.530
38251W        W10676  32.392  38.583   2.124
38252W        W10677   8.185  34.241  12.857
38253W        W10678   6.321   4.108   3.568
38254W        W10679  19.722  43.534  12.962
38255W        W10680  37.518  22.376   3.182
38256W        W10681   1.226  29.550  14.003
38257W        W10682  24.626   4.731  11.067
38258W        W10683   0.833  11.231  13.831
38259W        W10684   8.845  10.811   4.377
38260W        W10685  37.677  18.561   1.289
38261W        W10686  22.625   5.811   4.111
38262W        W10687  25.605  39.833   4.072
38263W        W10688  34.336  39.969   0.823
38264W        W10689  44.337  41.136   0.728
38265W        W10690  22.136   5.836   3.205
38266W        W10691  20.002  36.905  13.508
38267W        W10692  22.114  34.069  13.465
38268W        W10693  36.001   0.002   4.467
38269W        W10694   4.425  35.668   2.341
38270W        W10695  26.883  19.628  10.547
38271W        W10696  34.105   2.576   2.687
38272W        W10697  34.028  36.927  13.881
38273W        W10698   9.246  12.964  13.723
38274W        W10699  21.641  40.091   2.096
38275W        W10700  32.924   0.932   1.847
38276W        W10701   2.994  20.204  13.934
38277W        W10702  14.729  18.999   3.407
38278W        W10703  23.218  20.209   0.480
38279W        W10704   2.173   3.774   1.423
38280W        W10705  34.868  22.489  14.319
38281W        W10706   0.375  39.302  11.860
38282W        W10707  35.756  17.237   0.954
38283W        W10708  26.626  28.946  14.710
38284W        W10709  42.523   2.424   0.412
38285W        W10710  16.625  18.841  13.436
38286W        W10711  23.248  28.092  10.709
38287W        W10712   4.376  17.545  12.036
38288W        W10713   1.208  33.459   1.178
38289W        W10714  14.229  18.211   0.438
38290W        W10715  31.577   6.666  13.885
38291W        W10716  27.734  20.991   1.151
38292W        W10717  17.687   6.709  13.026
38293W        W10718  42.577  28.289   4.143
38294W        W10719  27.699  23.548  12.079
38295W        W10720   0.250   0.973  14.760
38296W        W10721  31.983  43.101   0.087
38297W        W10722  37.053   9.225   2.253
38298W        W10723  32.405  32.286   1.216
38299W        W10724  29.559  20.143  14.526
38300W        W10725  22.806  16.789  13.900
38301W        W10726  23.217  36.811   0.221
38302W        W10727  35.686  11.534   0.747
38303W        W10728  34.081  12.138  13.991
38304W        W10729  27.487  22.747  13.019
38305W        W10730  20.706  27.504  10.401
38306W        W10731  16.854  27.990  14.038
38307W        W10732   1.827  39.843  14.250
38308W        W10733  27.913  37.757  10.459
38309W        W10734  25.720  30.866   2.101
38310W        W10735  30.222  19.852  14.812
38311W        W10736   8.150   8.331   3.225
38312W        W10737  37.061  42.055   0.839
38313W        W10738  11.270  17.937  13.108
38314W        W10739  36.769  11.282   3.863
38315W        W10740  34.913  42.433   3.483
38316W        W10741  13.773  17.934  14.709
38317W        W10742   1.944  18.021   0.845
38318W        W10743  16.302  36.312   3.865
38319W        W10744  40.839  22.482   4.526
38320W        W10745   8.384   6.853   0.235
38321W        W10746  34.173  24.214   4.664
38322W        W10747   4.195  22.710  12.550
38323W        W10748  22.538  29.503   1.218
38324W        W10749   0.966  15.231  13.921
38325W        W10750  19.328  16.016   1.907
38326W        W10751  23.594   2.199   1.754
38327W        W10752  43.944  31.389   2.350
38328W        W10753  12.178  26.455   1.941
38329W        W10754  13.832  15.161   0.934
38330W        W10755   4.772  38.324  14.307
38331W        W10756  30.518  38.141   0.788
38332W        W10757  42.354  29.619  11.603
38333W        W10758   3.480  39.582   9.999
38334W        W10759   0.870  30.420  11.139
38335W        W10760  26.596  34.809  10.836
38336W        W10761  12.305  18.486  12.633
38337W        W10762  28.873  21.220  11.493
38338W        W10763  17.205  30.723   4.106
38339W        W10764  28.906  13.671  12.627
38340W        W10765  19.701  20.945   0.406
38341W        W10766  38.052  23.187  10.147
38342W        W10767  21.536  27.930  11.930
38343W        W10768  23.966  29.059   0.287
38344W        W10769  36.854   1.487  11.987
38345W        W10770  39.059  43.851   0.989
38346W        W10771  38.312  40.921   1.742
38347W        W10772   3.861   6.446   4.523
38348W        W10773  25.658  38.561   3.266
38349W        W10774  17.384  41.766   2.821
38350W        W10775  27.674  16.846   2.717
38351W        W10776  35.998  21.590  14.571
38352W        W10777  12.065   2.745   1.330
38353W        W10778   6.468  35.105   0.353
38354W        W10779  29.383  31.154  13.057
38355W        W10780   8.921  26.545  12.004
38356W        W10781   7.386  41.586   1.416
38357W        W10782  32.766  20.559  12.848
38358W        W10783  15.533  22.212  10.003
38359W        W10784  20.030  42.284   3.152
38360W        W10785  24.591   6.215  10.984
38361W        W10786  10.138  35.850  10.582
38362W        W10787  27.915  20.081   0.667
38363W        W10788  42.468  22.465   3.670
38364W        W10789  43.195   1.206  13.806
38365W        W10790  14.366  20.222  11.871
38366W        W10791  36.777   4.319  11.933
38367W        W10792  16.555   8.875   3.695
38368W        W10793  43.875  28.857  11.107
38369W        W10794  24.956  18.522   5.002
38370W        W10795  26.160  25.603   4.067
38371W        W10796   6.366  13.640   1.481
38372W        W10797  15.226  25.793  13.046
38373W        W10798  24.926  36.709   1.892
38374W        W10799  25.805   7.570   1.566
38375W        W10800  24.817   5.677   2.969
38376W        W10801  20.527   9.892   5.404
38377W        W10802  34.627  35.937  11.515
38378W        W10803  24.618  33.471   4.815
38379W        W10804   3.698   5.849  14.343
38380W        W10805   0.936  11.677   0.324
38381W        W10806  18.214  10.172   4.281
38382W        W10807   1.154  42.101   0.904
38383W        W10808  42.598  22.044   2.761
38384W        W10809   3.771   8.367   2.969
38385W        W10810  11.097  37.055  14.875
38386W        W10811   5.380  14.353   3.292
38387W        W10812  33.542  29.464  14.282
38388W        W10813   0.272  10.856   2.301
38389W        W10814   4.217  38.275   4.085
38390W        W10815   8.494  43.041   1.839
38391W        W10816   3.713  29.725  12.012
38392W        W10817  19.525  26.516  10.786
38393W        W10818   7.853  28.499  12.536
38394W        W10819  10.534  40.064  10.798
38395W        W10820  25.050  37.551  14.721
38396W        W10821  41.562  35.959   0.040
38397W        W10822  18.197  24.123  10.957
38398W        W10823   3.395  42.716   4.644
38399W        W10824  42.493   0.485   1.549
38400W        W10825  22.492   2.520  12.462
38401W        W10826  34.347  38.327   4.393
38402W        W10827   7.352  36.019   3.418
38403W        W10828  13.748  35.909   1.659
38404W        W10829  36.431  17.724  14.553
38405W        W10830  39.260   2.907  12.857
38406W        W10831  25.158  37.597   0.923
38407W        W10832   1.052  25.548   4.081
38408W        W10833  34.114  21.807  14.827
38409W        W10834   5.721  11.696  13.939
38410W        W10835  10.260  10.839  12.459
38411W        W10836  25.671  12.761   0.036
38412W        W10837  31.259  32.963  11.157
38413W        W10838  30.901  21.950  13.855
38414W        W10839  23.792  23.127  11.430
38415W        W10840  28.699  21.174  12.986
38416W        W10841  10.776  36.564   3.373
38417W        W10842  28.464  35.933  13.492
38418W        W10843   8.754  15.283  13.353
38419W        W10844  38.282  23.057  13.207
38420W        W10845  24.436  30.007   2.977
38421W        W10846  34.495  26.252   4.875
38422W        W10847  22.516   8.828   3.335
38423W        W10848  16.738  32.901   2.266
38424W        W10849   5.668   1.419   0.115
38425W        W10850  40.530  16.135   9.947
38426W        W10851  17.399  15.884  13.802
38427W        W10852  26.049  19.109   3.220
38428W        W10853  41.195   1.823   4.776
38429W        W10854   5.937   8.602  12.045
38430W        W10855   6.474  34.835   3.694
38431W        W10856  16.477  41.726  13.509
38432W        W10857  32.117  35.951  10.699
38433W        W10858  44.017  19.031  12.990
38434W        W10859  25.703  44.810  14.230
38435W        W10860  19.590  11.627   1.572
38436W        W10861  26.575   7.573   3.294
38437W        W10862  26.152  23.956   2.096
38438W        W10863  25.303  22.755   1.294
38439W        W10864  35.560  24.486  13.965
38440W        W10865  13.162  17.829   1.903
38441W        W10866   1.758  15.547  10.262
38442W        W10867  25.038  42.751   1.421
38443W        W10868   0.767  26.262   3.851
38444W        W10869  38.427  27.284  11.462
38445W        W10870  42.558  29.270   0.390
38446W        W10871  40.541  13.715   3.677
38447W        W10872  30.651   2.893  13.400
38448W        W10873   1.434  25.664   4.860
38449W        W10874  44.965   5.639  10.723
38450W        W10875  30.163  16.735  14.892
38451W        W10876   0.023  13.240   0.992
38452W        W10877  40.907  30.952   4.559
38453W        W10878  42.171  15.782  11.588
38454W        W10879  42.348  23.755  14.896
38455W        W10880  27.322  33.169   1.221
38456W        W10881  34.634  32.899  12.998
38457W        W10882  22.476  15.531   1.995
38458W        W10883   9.413  21.707   1.473
38459W        W10884  33.579  22.177  11.863
38460W        W10885  25.060  41.820  10.261
38461W        W10886  41.280  29.083  12.963
38462W        W10887   4.922  26.517  12.167
38463W        W10888   5.666  34.952  14.127
38464W        W10889  10.590  40.826   3.385
38465W        W10890  43.477  19.599   3.418
38466W        W10891  38.093  13.195  10.975
38467W        W10892  24.133  44.251   2.034
38468W        W10893  17.573  22.273  12.364
38469W        W10894  38.277  28.938  11.107
38470W        W10895  42.689  22.681   1.216
38471W        W10896   2.243  35.670  13.583
38472W        W10897  30.607   8.819   1.466
38473W        W10898  39.839  20.104  12.611
38474W        W10899  41.911  16.800   3.099
38475W        W10900   8.220   3.000  12.510
38476W        W10901  16.192  18.632   1.748
38477W        W10902  20.649  10.431  13.281
38478W        W10903  40.896  14.808  14.304
38479W        W10904   8.646  10.630  10.346
38480W        W10905  39.489  23.873   2.743
38481W        W10906   8.913  38.656  10.176
38482W        W10907  14.772   3.695  12.361
38483W        W10908  36.381   7.126  14.318
38484W        W10909  36.241   4.940   2.222
38485W        W10910  28.753  35.090   4.140
38486W        W10911  40.482  25.988   1.685
38487W        W10912  41.833  14.611  12.057
38488W        W10913  28.062   5.696   2.106
38489W        W10914  10.818  25.080   1.826
38490W        W10915  29.221  34.014   9.967
38491W        W10916  22.126   7.407  12.289
38492W        W10917  13.497  13.377   2.661
38493W        W10918  44.178  36.998   4.605
38494W        W10919  30.871  11.090   0.973
38495W        W10920  21.309  28.950  12.205
38496W        W10921  35.558  23.636  14.972
38497W        W10922  11.046  13.851   3.304
38498W        W10923   6.792  25.980   1.983
38499W        W10924  24.610  21.228  13.514
38500W        W10925  26.550  14.899   2.184
38501W        W10926  29.210  21.722   3.331
38502W        W10927  38.078  12.258  12.441
38503W        W10928  36.022  33.171   3.282
38504W        W10929  33.228  38.044   1.827
38505W        W10930  33.443  10.678   0.423
38506W        W10931  39.288  21.654  13.851
38507W        W10932  18.674  17.728   3.336
38508W        W10933  34.626  14.279   4.694
38509W        W10934  35.578   6.795   4.749
38510W        W10935   7.865  14.163  11.978
38511W        W10936   3.915  11.700  14.409
38512W        W10937  33.003  35.657  14.272
38513W        W10938  15.619  39.791   0.193
38514W        W10939  40.220  10.145   3.705
38515W        W10940  13.308  41.387  14.935
38516W        W10941  10.799  16.374   2.261
38517W        W10942  19.058  28.060  13.461
38518W        W10943  29.969   8.696  11.664
38519W        W10944  44.812   8.751  11.498
38520W        W10945  12.875  25.729  10.653
38521W        W10946   4.321  44.543   2.424
38522W        W10947  37.669  25.598   3.019
38523W        W10948  25.051   9.267  10.700
38524W        W10949  19.059  40.103   4.126
38525W        W10950  20.965  44.692  14.864
38526W        W10951  15.254  26.092  12.594
38527W        W10952   0.809   5.955  13.361
38528W        W10953  37.070   8.410  12.121
38529W        W10954  10.224  12.368   0.480
38530W        W10955  43.457   4.588  13.939
38531W        W10956  18.983   2.409  10.289
38532W        W10957  25.927  43.710   1.195
38533W        W10958   8.170  30.607   4.421
38534W        W10959  22.523   5.364   0.975
38535W        W10960  26.785  14.765  14.835
38536W        W10961  30.050   9.295   0.296
38537W        W10962  39.135  31.757  10.997
38538W        W10963  12.985  12.881  10.645
38539W        W10964  25.495  23.066   2.138
38540W        W10965  36.573  25.393   2.357
38541W        W10966  28.701  27.982  10.278
38542W        W10967   1.075  28.323  12.563
38543W        W10968  37.441   7.908  12.471
38544W        W10969   4.622  33.923  12.945
38545W        W10970  23.986  28.953  11.158
38546W        W10971  40.585   7.195  10.734
38547W        W10972  25.453   7.189  14.728
38548W        W10973  29.522  17.583  14.467
38549W        W10974  24.303   0.387  12.867
38550W        W10975   3.206  43.804   0.905
38551W        W10976   1.023   4.704  11.895
38552W        W10977  27.064  35.095  13.576
38553W        W10978   9.362  34.813   0.123
38554W        W10979  23.526  36.449  14.495
38555W        W10980  12.086  14.853   4.203
38556W        W10981  19.224   8.459   4.640
38557W        W10982  29.648  13.374   4.260
38558W        W10983  21.357  42.120   3.305
38559W        W10984  34.995  32.375   3.647
38560W        W10985   7.366  20.000   2.682
38561W        W10986  33.137  18.523   4.098
38562W        W10987  25.691  18.020  14.752
38563W        W10988  32.092   7.566   3.249
38564W        W10989  21.603   8.870  10.269
38565W        W10990  18.346  44.451   4.273
38566W        W10991  26.552  30.276  12.399
38567W        W10992  32.727   0.471  10.712
38568W        W10993  42.753  12.277  12.961
38569W        W10994   5.324  24.899   3.685
38570W        W10995  32.825  25.393  12.040
38571W        W10996  11.227  22.126   4.621
38572W        W10997   7.789  39.572  14.213
38573W        W10998  40.403   0.167  14.449
38574W        W10999   5.406  44.257   4.322
38575W        W11000  37.983  39.811  12.696
38576W        W11001  29.108  17.317  10.666
38577W        W11002  27.359  35.792   2.810
38578W        W11003  19.812   5.384  10.639
38579W        W11004  44.016   4.387   1.370
38580W        W11005   7.485  13.777   4.736
38581W        W11006  43.776   7.880  11.509
38582W        W11007  20.116   4.706   2.676
38583W        W11008  43.382  42.745  14.747
38584W        W11009  38.492   2.487   0.044
38585W        W11010  22.156   4.149   0.683
38586W        W11011  25.318  25.260   3.669
38587W        W11012  28.526  16.682   1.771
38588W        W11013  14.670  13.652   3.156
38589W        W11014  18.073   2.630  12.085
38590W        W11015  31.439  19.212  12.459
38591W        W11016  39.255  24.999  13.405
38592W        W11017   7.313  28.699  12.912
38593W        W11018  16.823  19.720   1.859
38594W        W11019   7.163  17.688   1.813
38595W        W11020  27.242  21.991  14.365
38596W        W11021   2.705  28.158  14.433
38597W        W11022   2.408  14.639   1.278
38598W        W11023  44.940  11.891  14.245
38599W        W11024  19.090   6.646  11.578
38600W        W11025  29.522  43.283   3.322
38601W        W11026  41.564  15.786  14.927
38602W        W11027  10.054  23.463   3.820
38603W        W11028  11.801  22.436   2.914
38604W        W11029  19.074  37.864   1.961
38605W        W11030   1.171  42.302   3.993
38606W        W11031  34.902  25.450  12.242
38607W        W11032  17.352   4.701  11.473
38608W        W11033   3.634  11.103   0.237
38609W        W11034  43.508  11.470   0.797
38610W        W11035  30.881  12.605  14.372
38611W        W11036  24.123   6.278  14.052
38612W        W11037   7.715   4.799  14.370
38613W        W11038  29.117  29.163   0.486
38614W        W11039  35.270  36.408  10.710
38615W        W11040  40.802  33.538  10.493
38616W        W11041  26.119   2.048  11.481
38617W        W11042   4.212   0.851   3.713
38618W        W11043  41.584  38.487  13.344
38619W        W11044  11.898  31.540   1.474
38620W        W11045  30.599  19.247  10.544
38621W        W11046  38.482  28.686   2.365
38622W        W11047  43.413  35.407   4.530
38623W        W11048  40.984  13.216   2.249
38624W        W11049  12.649  24.878  13.612
38625W        W11050   6.895  42.724   2.658
38626W        W11051  22.532  22.266  12.536
38627W        W11052  40.815  30.449   4.791
38628W        W11053  38.833   0.966  11.097
38629W        W11054  28.534  19.148  12.901
38630W        W11055  24.008  19.550   3.610
38631W        W11056  27.468  27.150   3.839
38632W        W11057  34.907  34.438  13.761
38633W        W11058   1.766   4.933   0.686
38634W        W11059   0.808   5.535   2.862
38635W        W11060  17.578  36.250   4.497
38636W        W11061   0.819   2.800   3.684
38637W        W11062  14.715  44.206  12.905
38638W        W11063   0.841  40.784   4.717
38639W        W11064  40.054  37.702  11.425
38640W        W11065  27.907  14.073   0.513
38641W        W11066  21.206  10.257   4.214
38642W        W11067   2.430   7.849   4.651
38643W        W11068   2.703  34.413  11.641
38644W        W11069  33.395  38.609  12.036
38645W        W11070  43.823  18.173  11.067
38646W        W11071   8.752  25.016   2.855
38647W        W11072   4.901  11.991  13.595
38648W        W11073  41.474  38.182   2.781
38649W        W11074   9.703  23.739  14.676
38650W        W11075   4.173  29.589  11.830
38651W        W11076  32.031   1.628  14.549
38652W        W11077  19.991   9.634   2.803
38653W        W11078  22.965  33.648  13.403
38654W        W11079  22.302  26.204  13.475
38655W        W11080  17.171  24.689  14.510
38656W        W11081  40.612  41.917   1.702
38657W        W11082  20.064  11.951  11.209
38658W        W11083  41.508  23.429  12.155
38659W        W11084  10.820  25.685  10.624
38660W        W11085  38.023   7.844  10.739
38661W        W11086  10.652   7.224   0.208
38662W        W11087  32.645  20.994  13.814
38663W        W11088  25.695  22.943  12.949
38664W        W11089  26.047  12.784  10.496
38665W        W11090  16.626   9.225   1.886
38666W        W11091  20.645   2.773  12.958
38667W        W11092  13.728  25.153   2.444
38668W        W11093  14.564  34.440  14.473
38669W        W11094  38.515  33.632  13.946
38670W        W11095   5.002   1.953   4.378
38671W        W11096  25.794  35.517  11.932
38672W        W11097  14.199  34.357   5.090
38673W        W11098  14.015  41.095   4.407
38674W        W11099   9.932  24.347   2.815
38675W        W11100  13.606  15.493  14.399
38676W        W11101  41.680  26.713  12.615
38677W        W11102  30.704  38.229  12.336
38678W        W11103  36.830  42.377  11.995
38679W        W11104  44.902  11.113  11.065
38680W        W11105  21.444  31.405  10.702
38681W        W11106  23.458  33.867  12.877
38682W        W11107  29.643  33.424   2.179
38683W        W11108   9.106   1.542   2.977
38684W        W11109  17.777  21.458   2.704
38685W        W11110  39.988  38.565   0.375
38686W        W11111   3.276  19.697   1.515
38687W        W11112  43.862  11.614  14.452
38688W        W11113  44.485  31.943  11.255
38689W        W11114  32.959   4.730  11.863
38690W        W11115  20.635  15.412   4.608
38691W        W11116   5.362  40.233   5.008
38692W        W11117   8.765  12.334   4.184
38693W        W11118  25.261   8.764   1.412
38694W        W11119   1.360   0.378  14.783
38695W        W11120  13.801  41.510   2.249
38696W        W11121  13.508  18.047  12.357
38697W        W11122  13.815  18.656  14.330
38698W        W11123   2.537  28.963  11.630
38699W        W11124  34.920  23.821  14.492
38700W        W11125   8.623  34.433  14.860
38701W        W11126   1.222  26.613   0.284
38702W        W11127  39.817  38.076  12.778
38703W        W11128  28.854  24.534  14.582
38704W        W11129  41.954  18.106   1.458
38705W        W11130  20.326   0.645  13.499
38706W        W11131  22.215  13.632   4.793
38707W        W11132  26.974  17.687  12.133
38708W        W11133   4.944  24.039   0.288
38709W        W11134  28.864  10.620  14.401
38710W        W11135  13.100  37.944  11.509
38711W        W11136  14.816  17.699   2.206
38712W        W11137  23.584  19.991   4.206
38713W        W11138  32.141  20.222  14.832
38714W        W11139  37.774   6.446  14.837
38715W        W11140   2.429   9.304   0.387
38716W        W11141  37.375  15.413  12.643
38717W        W11142  23.220  39.819  10.523
38718W        W11143  11.540  17.023   4.572
38719W        W11144   8.400  36.485   1.015
38720W        W11145   9.675   0.277   2.100
38721W        W11146  43.337   6.211  11.452
38722W        W11147  12.066  10.263   3.680
38723W        W11148  44.054  43.294  14.346
38724W        W11149   0.551   2.277  11.507
38725W        W11150   4.488  12.339  11.180
38726W        W11151   5.441  41.613   1.224
38727W        W11152  37.752  21.215   2.837
38728W        W11153  35.107  41.042   1.747
38729W        W11154  43.696  25.132  10.861
38730W        W11155  35.045  12.140  14.821
38731W        W11156  44.521  44.529   3.641
38732W        W11157   9.311  40.785  11.155
38733W        W11158  27.846  11.820  12.774
38734W        W11159  43.906  43.527  11.867
38735W        W11160  25.060  12.074  12.990
38736W        W11161  36.008  28.627   0.337
38737W        W11162  19.533  34.260   0.471
38738W        W11163   0.266  42.197  13.973
38739W        W11164  27.035   9.603   3.199
38740W        W11165  30.189  16.280  12.429
38741W        W11166  34.951  37.076  11.142
38742W        W11167  34.670   6.580  10.931
38743W        W11168  41.412  29.212  13.808
38744W        W11169  35.875  27.144   3.290
38745W        W11170   4.411  31.155   3.618
38746W        W11171  26.485  31.065   1.702
38747W        W11172  32.594  15.126  10.628
38748W        W11173  22.991  14.294   3.604
38749W        W11174   5.707   3.733  14.506
38750W        W11175   1.670  11.339  12.386
38751W        W11176  29.588  34.030  13.217
38752W        W11177   1.471  29.529  11.144
38753W        W11178  17.541  25.743   0.296
38754W        W11179  34.483  35.890   3.244
38755W        W11180  19.269  28.070  11.170
38756W        W11181  10.358  17.382   3.125
38757W        W11182  24.425  20.570   2.815
38758W        W11183  31.062   7.817  14.666
38759W        W11184  16.697  14.480   3.109
38760W        W11185  32.564  16.712  11.213
38761W        W11186  26.068  32.309   1.523
38762W        W11187   3.015  24.445   1.807
38763W        W11188  21.714   7.358  14.519
38764W        W11189  44.774  20.587   3.717
38765W        W11190  41.131  29.049   0.284
38766W        W11191  44.665   4.596   1.853
38767W        W11192  35.607   6.145   2.173
38768W        W11193  35.330  42.089  12.461
38769W        W11194  40.516  33.147  14.926
38770W        W11195  37.075  13.252   2.665
38771W        W11196   3.985   5.240  10.863
38772W        W11197  28.526  10.210   1.200
38773W        W11198  25.506  17.770  11.940
38774W        W11199  30.681  11.213  11.784
38775W        W11200  33.527   4.989  12.043
38776W        W11201  31.404  40.517   2.784
38777W        W11202  11.390   6.351  13.467
38778W        W11203  15.096  40.206   3.737
38779W        W11204  23.516  37.362  12.974
38780W        W11205  17.555  29.521   1.965
38781W        W11206  24.719   1.757   1.366
38782W        W11207  44.706  31.356  14.514
38783W        W11208  14.655  25.017   3.415
38784W        W11209  20.063  32.635   4.217
38785W        W11210  43.037  37.816  10.662
38786W        W11211  32.217  16.418   0.594
38787W        W11212  35.814  42.891  14.802
38788W        W11213  38.350  30.499   4.312
38789W        W11214  14.274  30.484   0.982
38790W        W11215  37.021  40.062  13.941
38791W        W11216  37.212  26.690  14.883
38792W        W11217  27.438  36.968  14.876
38793W        W11218  24.245   8.606   0.007
38794W        W11219  43.534  38.963  10.974
38795W        W11220  13.580  12.621   4.047
38796W        W11221  34.534  33.420  11.550
38797W        W11222   8.745  41.959   0.486
38798W        W11223  35.000  19.796  12.016
38799W        W11224  13.392   1.378  10.309
38800W        W11225  17.275   8.858  14.855
38801W        W11226  29.371  16.994   0.324
38802W        W11227  23.138   6.576  14.487
38803W        W11228  36.036  16.898   0.689
38804W        W11229  41.064   7.595  11.488
38805W        W11230   4.812  27.007   4.295
38806W        W11231  10.165  28.408  14.361
38807W        W11232  16.512  35.439   4.426
38808W        W11233  23.574  16.547  13.450
38809W        W11234  21.131  22.559   3.527
38810W        W11235  40.434  28.011  14.307
38811W        W11236  31.250  29.608  14.416
38812W        W11237  22.250   5.681   4.532
38813W        W11238   0.980  28.921   2.753
38814W        W11239  13.832   5.771  13.412
38815W        W11240  35.224  11.173  12.370
38816W        W11241  37.083  32.940   3.219
38817W        W11242  39.746  14.293  11.001
38818W        W11243   7.617  21.980  13.381
38819W        W11244  15.066  30.158  12.545
38820W        W11245  16.117  32.668   4.158
38821W        W11246  33.158  26.225  11.625
38822W        W11247  44.319   0.956  14.039
38823W        W11248  29.660  39.920   2.174
38824W        W11249  10.880   2.974  11.981
38825W        W11250   5.788  20.524   1.312
38826W        W11251  27.164  28.259  14.734
38827W        W11252  34.833  23.180  12.964
38828W        W11253   5.006  37.920  12.075
38829W        W11254  23.056   9.207   3.538
38830W        W11255  23.104  18.743   3.605
38831W        W11256   9.527  33.448  12.959
38832W        W11257  19.097  44.798  13.052
38833W        W11258  44.290  11.163  13.880
38834W        W11259  17.659  19.794   2.258
38835W        W11260  17.585  42.908   1.830
38836W        W11261   2.978  28.966  14.815
38837W        W11262  15.205  41.664  13.509
38838W        W11263  19.647  44.213   3.148
38839W        W11264  44.896  43.470  12.085
38840W        W11265  31.843  22.030  13.280
38841W        W11266   2.452  16.965   3.831
38842W        W11267  38.891   7.870  15.000
38843W        W11268  13.328  44.363  10.681
38844W        W11269  31.721  23.237   0.515
38845W        W11270  40.013  27.260   0.908
38846W        W11271  25.543  10.827  11.469
38847W        W11272   6.383  21.562   2.822
38848W        W11273  30.919  33.393   1.843
38849W        W11274   2.888  19.338  14.384
38850W        W11275  22.940  27.006   4.527
38851W        W11276   4.349  24.572   0.871
38852W        W11277  12.790   1.218   1.813
38853W        W11278  11.631  10.133   1.957
38854W        W11279  18.745   9.358  11.101
38855W        W11280  44.327  35.940   4.636
38856W        W11281  19.155  26.920   2.281
38857W        W11282  41.241   9.779  14.873
38858W        W11283  31.395  27.665  13.359
38859W        W11284   5.708  37.579  13.812
38860W        W11285  10.674  16.497   3.697
38861W        W11286  38.042  13.741   2.380
38862W        W11287   4.014  27.570  14.479
38863W        W11288   6.231  42.851   3.346
38864W        W11289   1.451  22.548  13.364
38865W        W11290  31.744   1.250  11.625
38866W        W11291  42.446  12.216  11.654
38867W        W11292  20.255   6.478  10.573
38868W        W11293  15.954   9.870   1.771
38869W        W11294  34.488  36.874  14.784
38870W        W11295  10.613  39.430   4.929
38871W        W11296  21.812   4.769   0.111
38872W        W11297  21.624  38.070  13.575
38873W        W11298  42.718  28.475  12.047
38874W        W11299  38.855  39.014   3.668
38875W        W11300  17.870  26.965  11.288
38876W        W11301  19.722  31.855   2.592
38877W        W11302  39.263   5.831   0.817
38878W        W11303  41.364  38.476   0.160
38879W        W11304  24.731  11.536  13.494
38880W        W11305  26.381   1.148   2.817
38881W        W11306  27.638  30.740   3.141
38882W        W11307   1.206   8.195   3.232
38883W        W11308  14.069  15.524  10.783
38884W        W11309  31.822   9.280   4.086
38885W        W11310   9.794   9.305   3.222
38886W        W11311  22.497  15.038   3.212
38887W        W11312  35.372   6.779   3.411
38888W        W11313   9.822  44.982   1.687
38889W        W11314   3.281   0.679  14.477
38890W        W11315  19.201  22.993   2.387
38891W        W11316  21.137  10.183   5.133
38892W        W11317  23.190  26.565   3.411
38893W        W11318  25.607   6.380   4.611
38894W        W11319  20.099  29.478   3.989
38895W        W11320  40.291   0.384   3.996
38896W        W11321  16.701  31.549   2.103
38897W        W11322  34.840  25.825   0.889
38898W        W11323  23.993  13.786  14.017
38899W        W11324  40.573  32.191   4.229
38900W        W11325  27.998  23.772   3.153
38901W        W11326  42.971  11.674  12.182
38902W        W11327  28.458  35.578   0.729
38903W        W11328  35.622  15.665  11.904
38904W        W11329  14.539  18.204  11.870
38905W        W11330  29.002  16.077  12.014
38906W        W11331   4.167  42.862  14.475
38907W        W11332  36.437  23.090   3.127
38908W        W11333  27.443   6.289   4.135
38909W        W11334  30.009  33.591  12.016
38910W        W11335  20.992  24.191  14.062
38911W        W11336  37.460   4.737  10.480
38912W        W11337   2.776  37.862   1.378
38913W        W11338  33.180  36.282  14.843
38914W        W11339  37.940  33.197   4.606
38915W        W11340   1.943  30.924  14.928
38916W        W11341  21.581   8.144   1.735
38917W        W11342  26.779  39.793  14.429
38918W        W11343   1.761  24.048  12.178
38919W        W11344  11.513  39.937   1.542
38920W        W11345  21.174   8.043   4.867
38921W        W11346   8.334   6.417   4.937
38922W        W11347   7.710  43.438   0.189
38923W        W11348  21.946  35.843   2.735
38924W        W11349   4.663  19.657   0.992
38925W        W11350  29.398  33.026  10.662
38926W        W11351   7.712  20.715   3.702
38927W        W11352  40.841  14.377   3.448
38928W        W11353  39.986  27.653  12.916
38929W        W11354  36.151  17.390   0.526
38930W        W11355  15.659  16.705   2.324
38931W        W11356  24.735  34.678  13.093
38932W        W11357  20.168  39.675   2.343
38933W        W11358  42.397   1.164  11.137
38934W        W11359  18.564  23.610   1.270
38935W        W11360  37.618  29.715  10.766
38936W        W11361   6.164  27.817  14.364
38937W        W11362  21.681  23.791  14.674
38938W        W11363  37.310  28.177   3.112
38939W        W11364  11.498  44.918  13.313
38940W        W11365  19.506  25.959  13.085
38941W        W11366  35.870  41.995   2.247
38942W        W11367  37.748  40.856  13.552
38943W        W11368  12.735  20.076  13.554
38944W        W11369  27.944  41.203  10.061
38945W        W11370  20.036   3.278  11.576
38946W        W11371   0.804  43.548  10.697
38947W        W11372  24.734  12.372   1.355
38948W        W11373   7.314  32.949  12.925
38949W        W11374  16.355   4.858  11.587
38950W        W11375  37.803  38.948   3.749
38951W        W11376  31.349  28.690  11.942
38952W        W11377  16.318  43.833   0.698
38953W        W11378  36.159  22.149  13.348
38954W        W11379  11.650  10.430   0.020
38955W        W11380  12.226  40.699  11.174
38956W        W11381  20.990  14.568   2.295
38957W        W11382  13.638  24.289  10.732
38958W        W11383  10.336  31.626   3.608
38959W        W11384  33.679  29.002   2.144
38960W        W11385  36.786   2.737  11.561
38961W        W11386  30.907  27.976   1.824
38962W        W11387  20.983   5.866  11.680
38963W        W11388  13.664   7.807  13.361
38964W        W11389  37.978  42.526  13.904
38965W        W11390  30.115   5.873  14.837
38966W        W11391  42.539  12.314   4.392
38967W        W11392   3.389  36.117  12.559
38968W        W11393  14.257   9.687  12.263
38969W        W11394  37.599   2.986   1.267
38970W        W11395   5.654  24.428  11.555
38971W        W11396  36.172  34.178   3.178
38972W        W11397   2.981  13.032  11.605
38973W        W11398  10.454  22.473   4.052
38974W        W11399  37.204   5.392   2.236
38975W        W11400  21.503  36.112  13.901
38976W        W11401  10.789  40.313   2.697
38977W        W11402  20.706  25.390  10.614
38978W        W11403   9.413   3.474   1.094
38979W        W11404  41.740   4.760  11.736
38980W        W11405  17.049  41.828   3.231
38981W        W11406   1.604  20.261   2.784
38982W        W11407  17.689  40.273  14.450
38983W        W11408  25.557  44.951   0.969
38984W        W11409   3.002  24.559  12.603
38985W        W11410  36.973  40.761   1.379
38986W        W11411  17.032  38.301   4.541
38987W        W11412  35.180  44.318  12.925
38988W        W11413  15.749  17.631   1.369
38989W        W11414  18.102  28.868   3.128
38990W        W11415  26.472   5.145   2.238
38991W        W11416  17.170  41.859  11.737
38992W        W11417  38.886  14.878   4.216
38993W        W11418  24.658  19.114  14.499
38994W        W11419  14.288  28.260   2.318
38995W        W11420  34.796  34.916   4.613
38996W        W11421  20.822  22.681   5.017
38997W        W11422  14.077   3.975   2.236
38998W        W11423   8.795  31.449   1.488
38999W        W11424  27.636   1.723   3.530
39000W        W11425   2.394   5.603  13.131
39001W        W11426  41.313  29.941   3.226
39002W        W11427  13.287   1.152   3.327
39003W        W11428   7.979   8.686   2.202
39004W        W11429   2.227  38.432  13.843
39005W        W11430   2.450   3.999   2.701
39006W        W11431  37.465  15.774  14.584
39007W        W11432  42.217  15.089   3.278
39008W        W11433  14.796  44.523  14.266
39009W        W11434  33.474  26.542   0.425
39010W        W11435  18.536  22.738   0.199
39011W        W11436  16.723  29.586  13.127
39012W        W11437  41.465  19.324  12.593
39013W        W11438   9.265  33.410  10.362
39014W        W11439  28.724  13.099   1.234
39015W        W11440   7.436   6.690  14.355
39016W        W11441  13.709  12.222  13.759
39017W        W11442   1.613  37.385   4.121
39018W        W11443  39.915   2.428  14.378
39019W        W11444  42.347  41.449  12.547
39020W        W11445  25.169  19.611  12.751
39021W        W11446   6.222  35.039   0.805
39022W        W11447  39.004  15.179  13.764
39023W        W11448  24.368  28.595  11.180
39024W        W11449  36.791   6.360  14.358
39025W        W11450  12.601  15.982   1.921
39026W        W11451  41.825  22.069  10.381
39027W        W11452  15.361  33.932   2.613
39028W        W11453  38.612   1.473  12.910
39029W        W11454  16.086   8.004  13.895
39030W        W11455  13.169  43.134   2.591
39031W        W11456  16.777   4.340  13.468
39032W        W11457   2.394  14.978   2.853
39033W        W11458  43.110   7.123  14.298
39034W        W11459  31.957  28.788  12.949
39035W        W11460   9.805  29.639   3.832
39036W        W11461  25.563  14.484  12.434
39037W        W11462  10.944  20.242   3.727
39038W        W11463  15.726  33.129   5.135
39039W        W11464  12.692  42.122  11.225
39040W        W11465   5.249   7.435  12.376
39041W        W11466  37.926   0.280   3.786
39042W        W11467   9.208  15.160   3.234
39043W        W11468  16.891  21.076  12.549
39044W        W11469  41.544  20.141  11.954
39045W        W11470  20.177  24.906  11.546
39046W        W11471  31.634   3.949  14.827
39047W        W11472  32.695   5.368   1.320
39048W        W11473   9.167  16.703   3.197
39049W        W11474  31.998  44.392  12.818
39050W        W11475  34.746  13.866   4.309
39051W        W11476   0.824  32.514  12.903
39052W        W11477   1.936  12.213   1.297
39053W        W11478   0.448   9.131   0.734
39054W        W11479   3.798  23.490   2.682
39055W        W11480  44.971  31.062   1.503
39056W        W11481   8.983  10.820  11.263
39057W        W11482  38.490  23.051  12.281
39058W        W11483  29.365  22.127   1.923
39059W        W11484  28.311  19.253   4.491
39060W        W11485   4.201  19.373   4.732
39061W        W11486  44.485   1.805  13.967
39062W        W11487  21.113  26.421   1.277
39063W        W11488  32.109  39.266   0.497
39064W        W11489  16.216   8.247  14.324
39065W        W11490   3.450  34.584  10.631
39066W        W11491   3.497   4.153  13.655
39067W        W11492  42.008  33.938  11.573
39068W        W11493  40.527   3.044   4.878
39069W        W11494  23.244  23.617  10.883
39070W        W11495   3.403  44.597   5.190
39071W        W11496   4.637  31.670   4.791
39072W        W11497  19.742  26.641   4.611
39073W        W11498  20.255  30.760  10.752
39074W        W11499   2.020  44.359   0.077
39075W        W11500   3.946  24.181  14.312
39076W        W11501   1.806  17.777  13.380
39077W        W11502  43.044  44.865   3.764
39078W        W11503  10.309  32.507   1.481
39079W        W11504  38.256  15.060  12.441
39080W        W11505  44.116  26.916   1.259
39081W        W11506  19.741  27.467   1.026
39082W        W11507  12.540  21.064  14.484
39083W        W11508  27.072  17.255  10.249
39084W        W11509  10.214  38.866  11.574
39085W        W11510  32.068  40.487  13.533
39086W        W11511   8.731  29.011   4.873
39087W        W11512   9.283  36.804  12.382
39088W        W11513  35.972  20.413  13.706
39089W        W11514   1.940   3.017  14.564
39090W        W11515   1.949  18.708   5.061
39091W        W11516  12.405  35.975   1.232
39092W        W11517  37.989  31.128   2.238
39093W        W11518   5.193  42.974  14.530
39094W        W11519  35.532  24.912   1.800
39095W        W11520   9.618  27.971   3.234
39096W        W11521  21.557  28.172  10.948
39097W        W11522  32.147  37.415  14.329
39098W        W11523  36.863   5.791  13.219
39099W        W11524  26.948  24.150  12.096
39100W        W11525  27.968  16.033   0.407
39101W        W11526   5.272  23.768  14.959
39102W        W11527  24.489  37.245  13.900
39103W        W11528  32.395   9.319  11.430
39104W        W11529  25.251  42.079   3.187
39105W        W11530  27.744  32.644   2.402
39106W        W11531   9.110  18.400   1.271
39107W        W11532   1.733   8.178   3.255
39108W        W11533   1.421   6.335   0.707
39109W        W11534  44.418  42.956  13.593
39110W        W11535  31.235  39.314   4.160
39111W        W11536  33.892  14.177   1.892
39112W        W11537  38.604  15.168   0.909
39113W        W11538  38.535   9.447  12.933
39114W        W11539  27.509  18.780  12.526
39115W        W11540  43.346   6.672   1.876
39116W        W11541  11.374  12.657   3.999
39117W        W11542  36.805   0.280  14.897
39118W        W11543  41.867  18.937  11.111
39119W        W11544  18.586  36.541   3.589
39120W        W11545   5.229  23.509   0.452
39121W        W11546  42.760  28.923   3.119
39122W        W11547   9.326  15.062   0.732
39123W        W11548  24.400  34.137  12.168
39124W        W11549   8.904  30.617  14.212
39125W        W11550  24.605   6.707  10.843
39126W        W11551  44.466   9.737   0.079
39127W        W11552   0.136   0.945   0.932
39128W        W11553  22.477  10.879   4.189
39129W        W11554  16.627  21.352   4.406
39130W        W11555   3.358  13.321  11.433
39131W        W11556   5.764  17.817   1.138
39132W        W11557  42.017  16.514   2.678
39133W        W11558  20.560  27.932   0.707
39134W        W11559   3.192  43.971  11.605
39135W        W11560   2.526  26.774  12.969
39136W        W11561  36.521  23.063   4.575
39137W        W11562   0.344   3.042  12.293
39138W        W11563   9.692  44.110  14.085
39139W        W11564   6.333  43.170  10.715
39140W        W11565  16.197   9.364   4.251
39141W        W11566  14.202  39.363   3.076
39142W        W11567   0.321  16.496   4.646
39143W        W11568  22.674  20.413   4.569
39144W        W11569  18.236  20.290   1.806
39145W        W11570  36.338  32.483   2.329
39146W        W11571  21.504   9.362   3.733
39147W        W11572   0.026  40.465  11.957
39148W        W11573   9.772   0.392  13.478
39149W        W11574  15.756  13.757  11.730
39150W        W11575  18.264  38.612  12.466
39151W        W11576  28.643  34.383   3.589
39152W        W11577  18.044   7.505  13.374
39153W        W11578  29.658  22.512   3.247
39154W        W11579  38.615  22.574  14.849
39155W        W11580  35.173   6.586  14.470
39156W        W11581  13.221  30.147   1.729
39157W        W11582  41.423  10.883  11.907
39158W        W11583  37.988   0.973  11.112
39159W        W11584   0.712   6.192   0.298
39160W        W11585  16.299  13.585   4.592
39161W        W11586   3.250  42.366   5.070
39162W        W11587  28.910  34.718  14.927
39163W        W11588   6.689  15.088  12.020
39164W        W11589  12.300  13.833   0.764
39165W        W11590   7.464  38.026   9.778
39166W        W11591   1.471   2.623   3.126
39167W        W11592  33.681  26.900   2.802
39168W        W11593  12.068   9.258  10.945
39169W        W11594  21.870  33.569   2.739
39170W        W11595  26.360  43.433  10.998
39171W        W11596   5.217  37.257  14.132
39172W        W11597  22.178  42.887  10.748
39173W        W11598  28.129  29.119  12.640
39174W        W11599  12.465   4.607  13.886
39175W        W11600  22.003  15.829  13.234
39176W        W11601  44.224  32.045   3.216
39177W        W11602  44.753  36.622   4.377
39178W        W11603  39.332   9.615  13.432
39179W        W11604  15.569  37.967  13.640
39180W        W11605  32.889  16.125   3.274
39181W        W11606  28.911  40.403   4.352
39182W        W11607  22.613  20.599  14.044
39183W        W11608  14.695   7.145   1.211
39184W        W11609  44.930  38.370   3.335
39185W        W11610  27.071  35.671  11.970
39186W        W11611  16.072  41.880   4.739
39187W        W11612  13.241  18.184   4.980
39188W        W11613  26.848  15.867  13.237
39189W        W11614   2.481  42.888   1.504
39190W        W11615  38.488   3.026  10.460
39191W        W11616   8.192  32.410  11.841
39192W        W11617   2.761  32.572  11.272
39193W        W11618  15.945   2.907   0.253
39194W        W11619  31.709  44.964   3.711
39195W        W11620  28.376  13.894   0.330
39196W        W11621  21.426  40.676  11.067
39197W        W11622   3.940  30.153   3.182
39198W        W11623  17.070  11.925  10.243
39199W        W11624  21.557  33.857   4.093
39200W        W11625  21.105  39.825  10.145
39201W        W11626  44.844  18.607   3.279
39202W        W11627  10.680  14.122   4.758
39203W        W11628  32.650   2.403   2.696
39204W        W11629  43.813  20.175  10.882
39205W        W11630  26.676  27.098  10.589
39206W        W11631   1.967  10.043   0.246
39207W        W11632  22.675  43.802  14.615
39208W        W11633   0.715  40.450   4.175
39209W        W11634  13.076  37.536  14.104
39210W        W11635  32.601  29.918   4.800
39211W        W11636  30.113  30.145  12.503
39212W        W11637  12.369  37.207   5.134
39213W        W11638  18.767   8.955   1.437
39214W        W11639  26.908  30.476  10.710
39215W        W11640  33.706  21.633  14.517
39216W        W11641  27.232  30.091   1.882
39217W        W11642  18.906   7.497  12.986
39218W        W11643   7.184  10.952   4.766
39219W        W11644  44.711  43.865   2.258
39220W        W11645  30.823  29.705  11.103
39221W        W11646  27.263   8.880   1.195
39222W        W11647  17.141   0.778  13.965
39223W        W11648  25.836  24.707   0.846
39224W        W11649  32.083  42.084  11.578
39225W        W11650  18.849  20.622   0.419
39226W        W11651  27.084  34.461  11.411
39227W        W11652  36.055  11.633  14.281
39228W        W11653  26.245  36.793  11.982
39229W        W11654  21.638   0.998  10.376
39230W        W11655  42.791  34.883  11.960
39231W        W11656  44.762  32.037   0.641
39232W        W11657  39.530  41.460   0.173
39233W        W11658  19.339  20.457  12.492
39234W        W11659  44.886  14.248  12.414
39235W        W11660  12.619  17.420   3.968
39236W        W11661  31.184  15.765   1.857
39237W        W11662  12.820   2.165   2.878
39238W        W11663  18.521   4.840   0.303
39239W        W11664  42.363  32.530  13.723
39240W        W11665   1.996   5.143  12.298
39241W        W11666  14.334  22.177   1.195
39242W        W11667   8.230  14.190   0.205
39243W        W11668  39.277  28.583   4.896
39244W        W11669  34.057  41.296  14.842
39245W        W11670  31.142  10.700  10.579
39246W        W11671   1.578  18.074   4.189
39247W        W11672  30.700  44.329  11.426
39248W        W11673   0.279  26.361   1.317
39249W        W11674  21.521  25.186  14.206
39250W        W11675  23.965  34.452   2.278
39251W        W11676  37.527  27.118   2.159
39252W        W11677  19.604   0.299   0.022
39253W        W11678   6.332  34.794   1.973
39254W        W11679  22.708   7.964  11.938
39255W        W11680  10.839   3.907   3.278
39256W        W11681  13.188  16.342  14.472
39257W        W11682  21.214  28.874   1.760
39258W        W11683  26.685   5.305  10.815
39259W        W11684  14.499  18.643  12.950
39260W        W11685  38.577  41.957  10.588
39261W        W11686   4.246  19.728   3.823
39262W        W11687  32.166  16.297  13.046
39263W        W11688  15.828   6.842   3.770
39264W        W11689   7.828  25.995   4.634
39265W        W11690  22.678  42.739  12.382
39266W        W11691  41.491  34.078   4.248
39267W        W11692  38.348  21.762  12.058
39268W        W11693  35.115  25.010  12.043
39269W        W11694   9.377  34.602   2.334
39270W        W11695  22.066  12.602   3.108
39271W        W11696  43.995  19.454   2.602
39272W        W11697  37.327  39.992   3.855
39273W        W11698   2.140  38.571  14.400
39274W        W11699   5.101  37.503  11.028
39275W        W11700  27.495  38.425  11.954
39276W        W11701  40.720  37.430   4.056
39277W        W11702  20.832  38.331  13.076
39278W        W11703   8.746   8.704   1.519
39279W        W11704  17.934   1.862   9.733
39280W        W11705   9.688  14.211   1.960
39281W        W11706  40.115   8.825  14.192
39282W        W11707  29.603  16.614  12.539
39283W        W11708  16.257  36.087   2.978
39284W        W11709  12.808  30.725   0.949
39285W        W11710  36.557  42.262  14.889
39286W        W11711  38.880   7.715   1.880
39287W        W11712  24.167  22.107   4.263
39288W        W11713  42.605  10.667   2.398
39289W        W11714  30.567  21.810   2.620
39290W        W11715  32.646   0.434  12.513
39291W        W11716  19.967  18.710   4.744
39292W        W11717  40.266  10.826  13.856
39293W        W11718  18.523  25.940   1.292
39294W        W11719   2.422  30.528   0.410
39295W        W11720   3.335  14.632  11.168
39296W        W11721   3.257  35.727   2.472
39297W        W11722  29.334  13.292   0.200
39298W        W11723   1.195   5.135   3.442
39299W        W11724  38.957  24.600   5.758
39300W        W11725  11.761   8.443   3.209
39301W        W11726  22.838  44.208  12.503
39302W        W11727  42.109  36.691  11.132
39303W        W11728   8.883  38.399  11.488
39304W        W11729  34.287  21.086   1.142
39305W        W11730  17.171  40.955  12.021
39306W        W11731  44.221  43.787   0.720
39307W        W11732  16.208  36.093   2.423
39308W        W11733   9.630  44.787  13.928
39309W        W11734   1.312  37.077  12.778
39310W        W11735   7.414  26.635   4.271
39311W        W11736  10.717   9.270   5.617
39312W        W11737  25.242  22.588  14.329
39313W        W11738  13.814  30.923  10.612
39314W        W11739  36.976   7.425   0.457
39315W        W11740   0.215  23.097   0.335
39316W        W11741   6.738   6.603   1.099
39317W        W11742  44.304  17.252   5.081
39318W        W11743  42.013   1.740  10.319
39319W        W11744  20.887   6.416   0.412
39320W        W11745   4.321  21.971  10.854
39321W        W11746  14.167   7.418  12.001
39322W        W11747  27.962   1.593  12.692
39323W        W11748  27.943  30.946  13.389
39324W        W11749   6.944  21.035   4.587
39325W        W11750  22.021  34.574  13.325
39326W        W11751  41.765   5.664  11.753
39327W        W11752  18.772  15.953  12.896
39328W        W11753  30.455  31.929  12.000
39329W        W11754   9.855  34.469  11.833
39330W        W11755  23.158  16.131  13.027
39331W        W11756  31.014   3.537  11.431
39332W        W11757  13.310   2.930  13.043
39333W        W11758  38.493  23.607   0.440
39334W        W11759  19.239  27.148   3.653
39335W        W11760  36.325   3.603  13.375
39336W        W11761  32.522  10.293   2.111
39337W        W11762  26.017  36.958  12.452
39338W        W11763  40.504   2.273  12.934
39339W        W11764  21.100   5.735  11.202
39340W        W11765  44.199  37.916   3.035
39341W        W11766  38.323  18.527   3.910
39342W        W11767  39.749  15.707  13.784
39343W        W11768  28.072  25.077  13.079
39344W        W11769   3.431   6.400  10.621
39345W        W11770  34.421  33.585   3.789
39346W        W11771  23.940   9.680   0.847
39347W        W11772  38.072  20.228  10.628
39348W        W11773  12.578   3.097  12.656
39349W        W11774  28.432  41.736   2.925
39350W        W11775   6.874  16.706   2.143
39351W        W11776  31.315  21.803  11.207
39352W        W11777  42.049  39.117  11.104
39353W        W11778   6.892  23.104  10.504
39354W        W11779  27.703   4.265  13.849
39355W        W11780  21.505  14.222   1.292
39356W        W11781   8.857  20.488   3.697
39357W        W11782  24.686  22.010   2.842
39358W        W11783   6.864  38.993   2.927
39359W        W11784  38.924   4.370   0.709
39360W        W11785  33.900  32.023  14.021
39361W        W11786  30.983  40.768  11.175
39362W        W11787   5.914  21.105  14.373
39363W        W11788   1.183  42.981  11.159
39364W        W11789  18.280  34.160  12.340
39365W        W11790  30.851  15.235   3.083
39366W        W11791  12.944  31.521   2.621
39367W        W11792  34.559  22.743   2.316
39368W        W11793  11.123  33.446  14.150
39369W        W11794  12.684   0.862  14.896
39370W        W11795  38.907   3.496   2.669
39371W        W11796  44.674  16.501   3.279
39372W        W11797  26.296   5.743  13.294
39373W        W11798   2.882  44.413   0.269
39374W        W11799  11.775   6.224   0.696
39375W        W11800  27.407  28.386  11.173
39376W        W11801  42.347  33.445  12.414
39377W        W11802  25.902  29.247  12.880
39378W        W11803  32.064  28.517  10.815
39379W        W11804   1.740  20.643  14.987
39380W        W11805  40.818   5.635  13.156
39381W        W11806  30.984  21.177   1.874
39382W        W11807   6.643  33.003  12.375
39383W        W11808   9.538  26.752   0.367
39384W        W11809  34.366  39.024  11.957
39385W        W11810   7.644   3.205  11.129
39386W        W11811  30.936   8.291  14.795
39387W        W11812  22.222  26.490  10.704
39388W        W11813  43.853  12.677  12.554
39389W        W11814  25.330  38.322  11.136
39390W        W11815  23.110  23.468  11.928
39391W        W11816  28.918  37.830   2.820
39392W        W11817  32.166  15.466  12.028
39393W        W11818  28.574  42.038   4.854
39394W        W11819  38.912  28.924   0.669
39395W        W11820   5.036  10.810   2.507
39396W        W11821   5.357  38.367   3.678
39397W        W11822  40.687  24.022   3.449
39398W        W11823  32.672  23.774   1.154
39399W        W11824  32.064  31.976   4.700
39400W        W11825  12.673   8.239   1.016
39401W        W11826  43.684   4.761   1.695
39402W        W11827  10.891  32.030   3.557
39403W        W11828   6.000  35.021  13.564
39404W        W11829  11.244  25.583   0.419
39405W        W11830  15.066  31.245   2.428
39406W        W11831  21.753  37.154   0.334
39407W        W11832  30.713  15.728  14.994
39408W        W11833  17.651  42.721   0.328
39409W        W11834   0.561  25.620   0.792
39410W        W11835  20.547  10.068  12.926
39411W        W11836  28.011  10.303   3.741
39412W        W11837  28.544  14.128  11.231
39413W        W11838  32.081  24.442   2.304
39414W        W11839  37.732  12.783  10.822
39415W        W11840  39.368   6.270  13.328
39416W        W11841   1.523  15.083  13.065
39417W        W11842  25.164  24.320   4.662
39418W        W11843   8.353   2.634   2.947
39419W        W11844  15.774   5.835   0.396
39420W        W11845   9.340  12.419   4.613
39421W        W11846  12.835  17.086   2.485
39422W        W11847  11.898  44.401  10.558
39423W        W11848  23.453   3.763  13.462
39424W        W11849  13.372  36.405  13.139
39425W        W11850  30.945  20.712   2.941
39426W        W11851  16.188   8.501  14.781
39427W        W11852  43.057   9.094   2.306
39428W        W11853  40.996  30.536  14.466
39429W        W11854  28.892  44.256   4.078
39430W        W11855   8.224   2.775  12.980
39431W        W11856  10.687   8.753  13.561
39432W        W11857  21.654  20.550  14.481
39433W        W11858   4.757  30.547  14.205
39434W        W11859  37.872  33.145   1.326
39435W        W11860  16.442   3.166  14.458
39436W        W11861   9.322  40.504  14.080
39437W        W11862  33.381   8.971   4.078
39438W        W11863   9.159   4.344   0.794
39439W        W11864   7.929  26.009  13.952
39440W        W11865  14.345  40.926   4.776
39441W        W11866  23.603   0.249   1.548
39442W        W11867   0.718   8.030   3.245
39443W        W11868  11.862  23.556   4.110
39444W        W11869  11.669  25.680  10.321
39445W        W11870   0.283  15.255  13.345
39446W        W11871   4.472   7.158  14.769
39447W        W11872  38.531  19.077  12.910
39448W        W11873  10.538   2.181   3.159
39449W        W11874   9.602  30.636   4.309
39450W        W11875   4.501  21.142  12.236
39451W        W11876  40.481  37.828  14.494
39452W        W11877  20.501   4.541   1.541
39453W        W11878  36.537  37.317   0.601
39454W        W11879  31.983  42.974  13.739
39455W        W11880  15.342  35.627   2.631
39456W        W11881  21.737  25.428   4.618
39457W        W11882  34.501  25.191   4.186
39458W        W11883  26.564  20.691   2.211
39459W        W11884   6.110  11.269  13.044
39460W        W11885  36.420  34.370  14.420
39461W        W11886  26.937  33.048  12.437
39462W        W11887  44.017   9.363  13.412
39463W        W11888  44.033  24.715  13.039
39464W        W11889  43.843   4.713  13.394
39465W        W11890  26.205   7.914   2.390
39466W        W11891   7.223  22.181   0.775
39467W        W11892  26.323  41.392  10.397
39468W        W11893  25.749  34.959   3.867
39469W        W11894  14.456  29.502   0.013
39470W        W11895  25.535  21.323   3.058
39471W        W11896  35.365   5.859   1.362
39472W        W11897  43.188   7.289   1.102
39473W        W11898  24.450  28.187   2.104
39474W        W11899  24.669   0.504  12.520
39475W        W11900  28.618   8.754   0.093
39476W        W11901  17.173  17.822  11.155
39477W        W11902  19.509  21.846  14.484
39478W        W11903  42.504   7.249   3.880
39479W        W11904  34.540  39.248   1.779
39480W        W11905  44.608   7.927  14.931
39481W        W11906  44.682  34.932   4.146
39482W        W11907   4.495  44.470  11.555
39483W        W11908  21.245  32.375  10.456
39484W        W11909   3.967  28.101  10.417
39485W        W11910   9.228  43.381  14.801
39486W        W11911  14.119   5.677   0.458
39487W        W11912   5.743  43.057   4.541
39488W        W11913  43.760   9.030  13.761
39489W        W11914   0.850  16.389  13.377
39490W        W11915  37.472  18.331  11.003
39491W        W11916  40.915  26.232   2.448
39492W        W11917  33.413  38.926  12.938
39493W        W11918   6.861   5.360  13.343
39494W        W11919  42.587  24.768  12.855
39495W        W11920  33.415  40.031  13.291
39496W        W11921  31.706   1.799   0.014
39497W        W11922   6.838  17.189   2.905
39498W        W11923   6.348   3.028   0.561
39499W        W11924  40.790  40.049  14.253
39500W        W11925   3.331  25.143  10.626
39501W        W11926  37.970  35.916  12.873
39502W        W11927   1.859  41.327  14.483
39503W        W11928  31.530  34.432  11.631
39504W        W11929  20.249  32.026  11.908
39505W        W11930   3.803  11.483   2.470
39506W        W11931  17.366  11.824  11.994
39507W        W11932  14.960   8.126  11.907
39508W        W11933  41.762   9.076  10.480
39509W        W11934   9.683  44.482  11.599
39510W        W11935  12.276   2.284  13.299
39511W        W11936  40.059   4.048   0.365
39512W        W11937  43.331  12.223   1.395
39513W        W11938  14.126  42.219   3.714
39514W        W11939  41.984  37.652   1.646
39515W        W11940  17.842   4.510   1.415
39516W        W11941  39.848  35.347   3.376
39517W        W11942  30.499  16.808   3.074
39518W        W11943  12.193  16.243   0.816
39519W        W11944  41.907  14.347   1.177
39520W        W11945  17.724   5.725   2.423
39521W        W11946  14.347   3.726  12.660
39522W        W11947  30.641  29.359   1.473
39523W        W11948  42.037  42.342  14.909
39524W        W11949   5.291   1.360   3.875
39525W        W11950  12.188  42.368  10.611
39526W        W11951  34.669   5.904  11.549
39527W        W11952  39.344  27.989   2.842
39528W        W11953  44.505   8.956  13.938
39529W        W11954  43.481  11.797   0.374
39530W        W11955  31.120  21.466   2.304
39531W        W11956  22.185  14.205   0.978
39532W        W11957  17.660  36.930   0.894
39533W        W11958   3.241   9.841   1.901
39534W        W11959   8.401  27.995   4.490
39535W        W11960   1.275  10.646  14.417
39536W        W11961  35.558  23.309  11.114
39537W        W11962   6.275  11.664  14.899
39538W        W11963  12.107  29.359   1.802
39539W        W11964   5.203  30.099   1.842
39540W        W11965  23.210  31.339   1.383
39541W        W11966  13.036  13.881   3.253
39542W        W11967   4.162   3.248   2.488
39543W        W11968  14.070  25.614  13.574
39544W        W11969  30.491   8.742  12.833
39545W        W11970   3.124  17.757  11.887
39546W        W11971   1.298  20.578  14.739
39547W        W11972   8.146  20.245  13.731
39548W        W11973  19.284  12.832   1.886
39549W        W11974   9.277  30.393  12.991
39550W        W11975  43.950  22.839  13.454
39551W        W11976  10.722   4.324  10.646
39552W        W11977  35.136   1.366  12.650
39553W        W11978  26.114  38.712   2.006
39554W        W11979  13.104  35.654  12.489
39555W        W11980  43.895  33.627   4.839
39556W        W11981  10.870  18.739  13.279
39557W        W11982  39.959  17.189  13.468
39558W        W11983  14.213   5.460  13.258
39559W        W11984  29.177   6.858  13.941
39560W        W11985  34.603  40.705   4.179
39561W        W11986  28.498   3.732   1.506
39562W        W11987  10.281   2.583  10.026
39563W        W11988  24.097  34.897  14.506
39564W        W11989  28.439  17.640  14.987
39565W        W11990  26.926   4.265  12.482
39566W        W11991   1.499  23.278  12.211
39567W        W11992  40.026  13.887  11.545
39568W        W11993   6.760  37.094  12.908
39569W        W11994  35.157  29.883   0.340
39570W        W11995  21.977   1.724   1.404
39571W        W11996  26.922  12.742   1.353
39572W        W11997  33.952  29.071  10.705
39573W        W11998  15.383  29.749  14.910
39574W        W11999  22.413  44.777  13.104
39575W        W12000  30.544   2.370  12.618
39576W        W12001  14.575  12.810   0.390
39577W        W12002  37.407  14.820   3.375
39578W        W12003   1.477  28.618  11.249
39579W        W12004   8.938  29.889   1.273
39580W        W12005  23.512  13.828   0.477
39581W        W12006  22.710  39.439   1.853
39582W        W12007   2.031  42.687   4.008
39583W        W12008  37.334   6.566  14.259
39584W        W12009  16.537  20.501  11.640
39585W        W12010  19.051  14.738   2.523
39586W        W12011  43.594  12.664   1.257
39587W        W12012  20.229  38.941   0.455
39588W        W12013   8.869  16.244  13.610
39589W        W12014   5.097  26.033  12.074
39590W        W12015  28.228  30.658  11.046
39591W        W12016  42.381  26.463   0.764
39592W        W12017  27.012  35.409   4.067
39593W        W12018  33.016  25.771  13.426
39594W        W12019  29.133  39.319   3.509
39595W        W12020  36.577  20.906  10.864
39596W        W12021  19.182   6.332   0.552
39597W        W12022  23.505  43.419   3.276
39598W        W12023   9.363  31.906   0.145
39599W        W12024  15.740  39.695  14.331
39600W        W12025  31.514  35.813   3.053
39601W        W12026   8.256  25.059   2.487
39602W        W12027  40.302  13.153   2.992
39603W        W12028   6.633   7.264   3.298
39604W        W12029   0.712  43.884   0.592
39605W        W12030   7.388  19.299   1.865
39606W        W12031   7.309  14.802   1.805
39607W        W12032  14.702  16.099  13.296
39608W        W12033  40.555  38.832   3.627
39609W        W12034  28.436  31.656   4.784
39610W        W12035  37.977  11.882  10.687
39611W        W12036  23.670  32.019   1.047
39612W        W12037   6.448  44.463  12.643
39613W        W12038  34.998  42.326  13.557
39614W        W12039  22.726  19.014  11.716
39615W        W12040  32.666  34.539  11.619
39616W        W12041   5.974  30.695  12.028
39617W        W12042  22.676  15.161   2.324
39618W        W12043  39.769  26.047   3.797
39619W        W12044  29.506   4.934  11.133
39620W        W12045  26.820  29.104   2.748
39621W        W12046  34.055  37.372  12.975
39622W        W12047  19.734  11.261   4.389
39623W        W12048  43.340  41.261   2.832
39624W        W12049  36.003  44.240  11.118
39625W        W12050   6.639  28.996  13.818
39626W        W12051  33.110  39.936   1.176
39627W        W12052  35.918  20.597  11.102
39628W        W12053  24.736  33.392   4.322
39629W        W12054   2.822  21.295   0.438
39630W        W12055  30.656   6.395   5.129
39631W        W12056  26.496  32.858  11.487
39632W        W12057   0.398  22.068  11.612
39633W        W12058   2.341  19.739  12.632
39634W        W12059  25.196   3.690   1.744
39635W        W12060   6.900  39.298  14.326
39636W        W12061  27.624   4.297   4.048
39637W        W12062  33.419  16.560  13.948
39638W        W12063  27.049  42.553  14.951
39639W        W12064   5.361  13.750   1.661
39640W        W12065  35.686  38.405   1.725
39641W        W12066  25.704  13.243   0.288
39642W        W12067  40.802  43.904  10.369
39643W        W12068  40.014  44.449  12.514
39644W        W12069  36.481   6.979   4.496
39645W        W12070  37.020  19.947   3.627
39646W        W12071  30.225  22.804   3.763
39647W        W12072  31.486   1.399   4.201
39648W        W12073  19.247   0.211   1.421
39649W        W12074   1.996  10.884  13.100
39650W        W12075  13.953  40.941  12.964
39651W        W12076   6.179  34.305   3.289
39652W        W12077  18.682  18.723   2.339
39653W        W12078   1.720  13.112   1.631
39654W        W12079  14.577  40.914   0.255
39655W        W12080  39.084  41.536   1.846
39656W        W12081   9.027   7.776   0.567
39657W        W12082  16.238  37.899  11.609
39658W        W12083  28.120  15.921   0.914
39659W        W12084  21.245   6.138   4.210
39660W        W12085  38.880   5.203   3.709
39661W        W12086  35.836   7.830  11.505
39662W        W12087  43.409  24.964   3.734
39663W        W12088  39.323  11.763   4.561
39664W        W12089   9.536   3.229   1.634
39665W        W12090  20.616   9.902  11.760
39666W        W12091  18.066  44.559  14.445
39667W        W12092  41.361   2.424  14.839
39668W        W12093   2.929   0.335  10.649
39669W        W12094  10.227  29.887   1.472
39670W        W12095  16.727  17.075  12.137
39671W        W12096   0.264  39.431  14.386
39672W        W12097   1.783  35.962  14.439
39673W        W12098  38.749  43.324   3.802
39674W        W12099   2.985  40.590   3.228
39675W        W12100   7.747  12.002  11.953
39676W        W12101  31.444  12.633   3.743
39677W        W12102  10.333   7.507  12.284
39678W        W12103  27.758  21.629  13.077
39679W        W12104  29.527  37.537   1.323
39680W        W12105  42.012  10.705   4.779
39681W        W12106  32.463  31.426   3.683
39682W        W12107  39.991  40.909   4.547
39683W        W12108  14.626  36.632   3.509
39684W        W12109  17.548  14.808  10.372
39685W        W12110  25.638   4.284  12.946
39686W        W12111  21.998   9.675   3.207
39687W        W12112  15.351  36.418  11.192
39688W        W12113  10.858  18.014  13.853
39689W        W12114   0.028  16.186  10.702
39690W        W12115  17.533  18.382   1.104
39691W        W12116  37.131  21.620   1.935
39692W        W12117   2.678  35.071  13.115
39693W        W12118  21.802  10.871  11.161
39694W        W12119  19.928  30.483  11.074
39695W        W12120  20.421  12.341   3.766
39696W        W12121  41.525  35.509   2.201
39697W        W12122  17.262  17.562  14.900
39698W        W12123  26.980  12.437  11.142
39699W        W12124  12.666  37.917  14.817
39700W        W12125   8.794  33.376   3.710
39701W        W12126  12.313  23.296   4.729
39702W        W12127  20.261  43.826  12.407
39703W        W12128   8.473  26.108  14.938
39704W        W12129  39.528  20.674  11.645
39705W        W12130   2.121  31.492  11.516
39706W        W12131   4.842   9.288   3.377
39707W        W12132  37.375  29.373   2.419
39708W        W12133  15.150  11.678   1.292
39709W        W12134  34.516  33.514   4.806
39710W        W12135   4.751  32.552   3.779
39711W        W12136   1.474  13.374  13.727
39712W        W12137   5.776  20.576  14.035
39713W        W12138   5.642  14.152  11.438
39714W        W12139  40.848  42.954  12.142
39715W        W12140  34.118   1.102   4.597
39716W        W12141  14.148  20.534   4.032
39717W        W12142  13.790  38.579   2.482
39718W        W12143   1.691  24.210   2.118
39719W        W12144   5.719   3.801   1.446
39720W        W12145  38.716  44.472  11.233
39721W        W12146  41.767  35.957  13.439
39722W        W12147  16.566  39.378   2.158
39723W        W12148  29.825  16.094   1.609
39724W        W12149  17.548  37.371   1.124
39725W        W12150  18.095  11.387   1.297
39726W        W12151  10.289  12.412  11.264
39727W        W12152  24.212  43.221  14.629
39728W        W12153  38.451  18.753   3.436
39729W        W12154  14.995  43.574   0.956
39730W        W12155  28.837  33.582   2.746
39731W        W12156   5.485  24.228   4.037
39732W        W12157  21.379  44.540  14.588
39733W        W12158  27.501   7.000   4.952
39734W        W12159   3.339  40.902   1.111
39735W        W12160  16.725  19.785  14.656
39736W        W12161  33.929   9.311  11.116
39737W        W12162   7.286  28.943   4.692
39738W        W12163   2.309  25.547   1.266
39739W        W12164   3.835  12.916  13.322
39740W        W12165  23.631  44.542  12.808
39741W        W12166  30.459  18.110  13.063
39742W        W12167  23.320  29.623  13.974
39743W        W12168  32.395  21.544   0.953
39744W        W12169   2.474   6.619  11.600
39745W        W12170  31.502  32.939  10.696
39746W        W12171  38.406  36.166   4.343
39747W        W12172  16.201  12.341  12.147
39748W        W12173  36.925  30.387  12.980
39749W        W12174  20.954   0.289  14.032
39750W        W12175  29.138  24.881   3.262
39751W        W12176  37.509  28.957  13.990
39752W        W12177  43.771   0.488   4.610
39753W        W12178  34.984  30.293   4.978
39754W        W12179  18.345   2.814  12.970
39755W        W12180  30.053  32.892   2.753
39756W        W12181   0.756  34.938   1.162
39757W        W12182  35.477  38.669   1.350
39758W        W12183   8.477  37.996   2.832
39759W        W12184  34.530  44.895   1.948
39760W        W12185  21.200  32.271   2.576
39761W        W12186   8.523  12.297  12.901
39762W        W12187  39.182   4.511  13.414
39763W        W12188   2.878  23.901  11.948
39764W        W12189  24.598   5.842   3.981
39765W        W12190  25.638  43.649   4.102
39766W        W12191   0.660   0.991   0.943
39767W        W12192  37.766  23.895   1.304
39768W        W12193  28.138  24.498  11.870
39769W        W12194  39.482  18.529  13.866
39770W        W12195   8.318   1.400   0.508
39771W        W12196  16.965  34.112  11.946
39772W        W12197   1.823  21.118  13.441
39773W        W12198  17.348   1.919  11.130
39774W        W12199   6.764   4.899  13.080
39775W        W12200  13.072  39.839  12.863
39776W        W12201   6.165  35.513  14.339
39777W        W12202  15.059   6.746   0.377
39778W        W12203  12.730  13.678  11.490
39779W        W12204  42.018  32.108  13.544
39780W        W12205  22.119   9.689   0.060
39781W        W12206  11.835  43.787  13.984
39782W        W12207  17.599   3.735   1.678
39783W        W12208   6.238  20.734  10.764
39784W        W12209  10.208  15.831   1.272
39785W        W12210  41.738   2.993   4.719
39786W        W12211  30.604  23.165  12.057
39787W        W12212  40.391   6.190   0.335
39788W        W12213   8.602  44.780  10.792
39789W        W12214  31.664   6.771   3.610
39790W        W12215  23.797  27.193   3.594
39791W        W12216  10.216  38.271   0.802
39792W        W12217  44.175  44.887   4.159
39793W        W12218  10.758  19.080  10.583
39794W        W12219   3.774  25.458  12.023
39795W        W12220  18.518  19.346   3.164
39796W        W12221  13.256  20.146   1.617
39797W        W12222  26.638  35.300  10.968
39798W        W12223   3.532  27.308  12.106
39799W        W12224  21.268  23.122   3.755
39800W        W12225   3.810   9.183   1.741
39801W        W12226   3.359  30.869   1.732
39802W        W12227  26.025  12.288   1.613
39803W        W12228  34.829  37.381  11.614
39804W        W12229   5.906  26.660   0.199
39805W        W12230   0.717   1.359  14.124
39806W        W12231  33.999  34.945  13.887
39807W        W12232  16.218  10.239  12.525
39808W        W12233   6.639  15.801  14.098
39809W        W12234  22.367  12.844   4.995
39810W        W12235  32.949  33.526   4.553
39811W        W12236  38.329  10.190  11.461
39812W        W12237   6.076  24.258   3.305
39813W        W12238  11.869   3.038  10.440
39814W        W12239  17.493  36.646  14.867
39815W        W12240  17.771  15.913   2.725
39816W        W12241  23.624  43.778  14.407
39817W        W12242  40.905  41.623  11.636
39818W        W12243  25.814  27.087   3.582
39819W        W12244  21.804   6.946  12.887
39820W        W12245  13.753  29.132  14.580
39821W        W12246   0.233  26.489  11.146
39822W        W12247  30.938  33.978   2.942
39823W        W12248  26.243  37.456   3.134
39824W        W12249  24.178  26.522   1.908
39825W        W12250   8.460  10.350  13.284
39826W        W12251  35.114  21.583   1.783
39827W        W12252  14.721   5.967  10.464
39828W        W12253  17.199   6.017  10.119
39829W        W12254  24.231  17.123   0.772
39830W        W12255   0.969  15.083  13.074
39831W        W12256  25.053  35.209  14.908
39832W        W12257   8.326  16.812   2.851
39833W        W12258  21.290  22.675   1.167
39834W        W12259  34.126   2.032   2.769
39835W        W12260  10.163  11.967   5.029
39836W        W12261  14.093   5.807  11.646
39837W        W12262  26.617  18.133  10.691
39838W        W12263   9.258   2.799  12.877
39839W        W12264  29.582  33.711  14.013
39840W        W12265   4.107  38.058  13.002
39841W        W12266  12.547   2.428  11.033
39842W        W12267  37.950  22.241  12.409
39843W        W12268   1.966  19.198  12.091
39844W        W12269   5.382  40.775   2.255
39845W        W12270  30.051  13.334  12.644
39846W        W12271  20.010   0.904   3.602
39847W        W12272   7.272   6.282   1.824
39848W        W12273  23.298   9.180   3.080
39849W        W12274  34.856  11.062  14.210
39850W        W12275   5.799  43.287   2.469
39851W        W12276   7.449   4.148   1.707
39852W        W12277  23.586  13.694   1.992
39853W        W12278  33.847  11.250  12.062
39854W        W12279  29.650  22.398  14.849
39855W        W12280  41.656  37.307   5.296
39856W        W12281  24.962   1.419   0.002
39857W        W12282  16.030   2.893   0.834
39858W        W12283  35.397   4.506   0.387
39859W        W12284   0.374  15.445   1.739
39860W        W12285  43.563  15.605   2.356
39861W        W12286  37.050  41.561  11.001
39862W        W12287   0.048   2.875  14.428
39863W        W12288  21.598  33.053   4.804
39864W        W12289  22.443  38.789   1.442
39865W        W12290  44.061  27.252  11.089
39866W        W12291  23.014  33.840   3.278
39867W        W12292  18.382  17.246  12.035
39868W        W12293  38.697  28.051   0.820
39869W        W12294  27.494  12.730  14.263
39870W        W12295   6.719  32.479   1.347
39871W        W12296  16.514   0.807   1.362
39872W        W12297   0.407   6.284  14.890
39873W        W12298  13.389  30.378  12.945
39874W        W12299   4.133   5.869  12.236
39875W        W12300  35.529   7.195  14.965
39876W        W12301  26.605  40.306  10.629
39877W        W12302  32.654  17.191   3.668
39878W        W12303  30.682  36.387  14.322
39879W        W12304  36.311  29.965  12.634
39880W        W12305  12.066  31.618  10.982
39881W        W12306  36.870  26.863   3.271
39882W        W12307  18.475   1.936  13.813
39883W        W12308  35.153  26.399   1.937
39884W        W12309  27.067  44.883   0.452
39885W        W12310  15.259   8.906   0.920
39886W        W12311  10.366  34.498   3.209
39887W        W12312  21.757   6.025   4.520
39888W        W12313  32.588  35.249  12.979
39889W        W12314  33.188  42.927  10.509
39890W        W12315   9.262  33.567  12.523
39891W        W12316   6.864   5.670  10.505
39892W        W12317   1.358  16.144  12.056
39893W        W12318  30.241  11.070  10.786
39894W        W12319  40.278  12.932   2.429
39895W        W12320  19.353  34.887   3.374
39896W        W12321  29.047   9.354  12.826
39897W        W12322  18.241   4.034   4.181
39898W        W12323  28.137  15.060   0.359
39899W        W12324   2.910  38.805  11.477
39900W        W12325  10.673  39.045  13.717
39901W        W12326  27.352   0.347  12.189
39902W        W12327   0.425  11.783   0.195
39903W        W12328   3.986   5.428   3.662
39904W        W12329  41.964  38.894  14.234
39905W        W12330  19.068  43.061   0.283
39906W        W12331  10.117  20.956   4.355
39907W        W12332  23.074   5.662  13.303
39908W        W12333  14.292   5.722  10.291
39909W        W12334  40.845   0.860  11.835
39910W        W12335  25.320  24.043   0.534
39911W        W12336   9.460  31.631   2.879
39912W        W12337  28.402  33.032  14.323
39913W        W12338  10.404  39.949  14.017
39914W        W12339   0.722  19.765   1.376
39915W        W12340  10.197  36.840   2.655
39916W        W12341  12.336   0.137  14.904
39917W        W12342  30.109  19.738   0.669
39918W        W12343   5.294  41.061  11.459
39919W        W12344   7.142  33.176   2.970
39920W        W12345  16.375   7.716   2.942
39921W        W12346  29.441  39.627   2.539
39922W        W12347  41.348  32.088  13.035
39923W        W12348   1.963   1.804  13.963
39924W        W12349   0.770  12.802  13.949
39925W        W12350  12.850   1.348  14.932
39926W        W12351  15.260   6.192   2.653
39927W        W12352  29.390  20.271   2.633
39928W        W12353  25.703  12.118   3.881
39929W        W12354  36.274  15.649  12.511
39930W        W12355  41.817   2.194  14.898
39931W        W12356  26.436  19.815   2.834
39932W        W12357   3.515  31.851   0.253
39933W        W12358  38.395  37.554  10.717
39934W        W12359  12.439   6.453   1.427
39935W        W12360  36.451  36.479   4.905
39936W        W12361   2.880  36.259   0.808
39937W        W12362  41.833  38.934  11.546
39938W        W12363   2.008  35.127   2.802
39939W        W12364  44.502   8.929   4.156
39940W        W12365  20.505  33.088  13.844
39941W        W12366  33.158  27.107  14.872
39942W        W12367  17.269  29.974   4.660
39943W        W12368  41.095  40.510  12.078
39944W        W12369  27.713  28.051   2.715
39945W        W12370  30.859   6.456   1.835
39946W        W12371  33.200  17.655   5.191
39947W        W12372  32.788  13.375   2.141
39948W        W12373  18.682   8.165  13.396
39949W        W12374  38.888  37.191  14.234
39950W        W12375  33.822   6.502  14.303
39951W        W12376  14.871   1.335   0.888
39952W        W12377  19.108  10.321   2.472
39953W        W12378   8.895  14.092   2.914
39954W        W12379  20.486  19.476  12.372
39955W        W12380  27.103  18.747   2.646
39956W        W12381   9.349   1.204  12.021
39957W        W12382  41.774  12.883  10.264
39958W        W12383   9.268  11.879   3.788
39959W        W12384  28.026   9.480   2.264
39960W        W12385  27.432  18.121   1.294
39961W        W12386  39.438  11.735   1.369
39962W        W12387  31.103  27.325  13.085
39963W        W12388  41.119  34.952   4.641
39964W        W12389  10.741  15.498   3.840
39965W        W12390  11.692  40.371   4.497
39966W        W12391  42.517  24.219   3.316
39967W        W12392  10.806  16.787  14.481
39968W        W12393  43.407  33.741  12.129
39969W        W12394  43.384  37.885   2.901
39970W        W12395  26.016   2.348   1.151
39971W        W12396  25.255  41.370   2.202
39972W        W12397  15.455  12.621   1.351
39973W        W12398   5.635  15.134   4.265
39974W        W12399  12.555  27.727   0.522
39975W        W12400  34.519  15.216  12.616
39976W        W12401  28.154  31.457   3.032
39977W        W12402  28.477  44.077  10.566
39978W        W12403  35.550   6.902  14.553
39979W        W12404  13.917  28.537   1.977
39980W        W12405  19.500  19.880  14.914
39981W        W12406  16.517  41.485  12.419
39982W        W12407  40.599   5.801   2.159
39983W        W12408  19.751  22.153  13.934
39984W        W12409  40.505  21.020   1.801
39985W        W12410  26.936  14.387  14.060
39986W        W12411  35.509   7.976  14.437
39987W        W12412   2.695  41.040   3.288
39988W        W12413  11.801   4.981  13.412
39989W        W12414   3.874   7.434   4.214
39990W        W12415  42.026  40.739   2.257
39991W        W12416  43.949  40.539   2.874
39992W        W12417  15.214   4.642   3.140
39993W        W12418  16.619  40.830  12.100
39994W        W12419  13.257  34.537  10.622
39995W        W12420  22.441  34.160   4.081
39996W        W12421  12.296   4.001   1.842
39997W        W12422  34.399  42.704   4.473
39998W        W12423   2.379  38.049   4.006
39999W        W12424  38.468  44.710  10.197
40000W        W12425  30.110  17.102  14.505
40001W        W12426  21.681  29.979   3.241
40002W        W12427   5.925  22.590  14.198
40003W        W12428  16.518   2.980   5.852
40004W        W12429  39.889   5.921  10.679
40005W        W12430   3.858   2.705   4.790
40006W        W12431  40.259   8.672   0.880
40007W        W12432   2.260  21.574   3.789
40008W        W12433   9.934  12.104   1.797
40009W        W12434  37.468  29.924   0.532
40010W        W12435  27.055  40.371  11.941
40011W        W12436  13.248  21.170  12.799
40012W        W12437  30.954  12.409   3.692
40013W        W12438  20.213   8.539   3.779
40014W        W12439  18.268  19.110   1.427
40015W        W12440  15.530  44.614   2.697
40016W        W12441  36.329  15.812  11.257
40017W        W12442  40.396  22.117  12.599
40018W        W12443  17.457   7.788   4.803
40019W        W12444  40.984  14.092   0.758
40020W        W12445   0.464  40.974  14.994
40021W        W12446   6.837  29.157   3.567
40022W        W12447  25.250  41.927   0.756
40023W        W12448  11.700   3.514  12.197
40024W        W12449  26.458  11.405   1.285
40025W        W12450  40.960  37.706  12.897
40026W        W12451   2.641  33.166  12.969
40027W        W12452  16.088  29.916  13.498
40028W        W12453  13.061   8.968  11.038
40029W        W12454  11.202  23.792   1.364
40030W        W12455  19.321  25.435   0.865
40031W        W12456  25.443  43.487  12.818
40032W        W12457  34.985  27.142  10.919
40033W        W12458  11.020  19.426   4.077
40034W        W12459  32.085  40.622   5.147
40035W        W12460   4.910  41.383  13.042
40036W        W12461  36.600   7.881   1.308
40037W        W12462  12.804  24.729   9.714
40038W        W12463  15.186  44.691   3.113
40039W        W12464  15.241  42.109   4.223
40040W        W12465   5.793  13.214   2.933
40041W        W12466  21.425  37.583   4.091
40042W        W12467  12.375  14.063  13.151
40043W        W12468  12.142  10.925  13.408
40044W        W12469  25.579  40.924  10.620
40045W        W12470   4.097  19.602   1.945
40046W        W12471  29.062  43.535   3.377
40047W        W12472  44.458  24.704   4.125
40048W        W12473  34.928  30.596   0.897
40049W        W12474  25.071  29.589  10.777
40050W        W12475   5.570  14.571   2.387
40051W        W12476  21.545   8.687   1.793
40052W        W12477   0.411  11.539   0.678
40053W        W12478  35.922  33.509  14.422
40054W        W12479   1.020  17.643   1.929
40055W        W12480  21.582   0.221  14.012
40056W        W12481  25.649   1.842   4.689
40057W        W12482  27.261  31.339  11.713
40058W        W12483   6.670  18.044   3.232
40059W        W12484  21.674  21.129   4.475
40060W        W12485   1.984   1.233  11.040
40061W        W12486  27.505  30.727   2.609
40062W        W12487   6.308  17.680  13.790
40063W        W12488  42.594  37.869   0.774
40064W        W12489  28.205   5.614  14.942
40065W        W12490  31.026  23.772  12.445
40066W        W12491  18.241   6.396   0.411
40067W        W12492   3.890  21.607  11.580
40068W        W12493  36.002  13.316  14.692
40069W        W12494  36.601  25.174   0.316
40070W        W12495  38.573   7.356   4.236
40071W        W12496  19.054  10.825   3.202
40072W        W12497  25.685  10.425   2.881
40073W        W12498   8.250  38.591   0.126
40074W        W12499  11.173   8.742  14.712
40075W        W12500   2.787  43.266  12.849
40076W        W12501   2.751  18.244   3.813
40077W        W12502  14.320  25.928   0.869
40078W        W12503  43.327  17.703  13.158
40079W        W12504  25.465  15.102   3.281
40080W        W12505  17.607   6.003   3.820
40081W        W12506  12.782  21.114   1.821
40082W        W12507  32.091  20.685  13.416
40083W        W12508  28.109  25.638   2.191
40084W        W12509  14.235   4.288  12.935
40085W        W12510  18.548   4.096  14.907
40086W        W12511   9.309  27.238  13.090
40087W        W12512   5.429  22.112  12.777
40088W        W12513  31.762  39.074  13.630
40089W        W12514  28.409  29.938   5.096
40090W        W12515  23.584  11.657   1.371
40091W        W12516   2.042  12.551   4.178
40092W        W12517  34.597  10.647  14.496
40093W        W12518  36.917  36.928   1.313
40094W        W12519  16.630  31.189  12.125
40095W        W12520  24.483  40.095   4.740
40096W        W12521  33.485  35.045  13.899
40097W        W12522   2.631  27.174   4.188
40098W        W12523   3.283   1.799  13.512
40099W        W12524   0.416   1.143   1.380
40100W        W12525  16.651  23.261   0.942
40101W        W12526  41.149  25.948   2.809
40102W        W12527  40.403  35.332   0.169
40103W        W12528   9.752  12.288   4.243
40104W        W12529   6.493   9.926   1.431
40105W        W12530  20.007  36.946  12.546
40106W        W12531   0.983  27.591   5.143
40107W        W12532  33.984  29.521  10.968
40108W        W12533  28.691  20.892  12.430
40109W        W12534  15.711   1.424   1.363
40110W        W12535  41.544  34.447   1.779
40111W        W12536   0.474   6.276   4.653
40112W        W12537  19.591  37.102   1.882
40113W        W12538  15.620  41.993   4.972
40114W        W12539  33.475  38.496   1.298
40115W        W12540  12.296  16.982  12.950
40116W        W12541  16.256  26.931   2.812
40117W        W12542  19.838  19.919   0.354
40118W        W12543  24.227  37.093   4.128
40119W        W12544   6.970   8.228  12.230
40120W        W12545  22.165  17.525  12.082
40121W        W12546  36.491  16.373   3.171
40122W        W12547  25.581  28.044  12.571
40123W        W12548  20.178  15.057   1.863
40124W        W12549  12.453  10.797  11.707
40125W        W12550  41.141  35.787   3.592
40126W        W12551   7.717  26.333  10.740
40127W        W12552   5.380   7.731   1.145
40128W        W12553  35.313  30.919  10.969
40129W        W12554  14.564  17.535  10.764
40130W        W12555  35.073  35.284   1.343
40131W        W12556   0.687  37.559  12.152
40132W        W12557  14.625   2.782   1.456
40133W        W12558   8.634   1.424  11.673
40134W        W12559  29.455  17.397   4.477
40135W        W12560  32.921   8.679  14.823
40136W        W12561  43.846  36.699   0.638
40137W        W12562  44.257  43.829   4.166
40138W        W12563  15.799  40.730  14.355
40139W        W12564  33.144  28.653   0.940
40140W        W12565  11.263  44.280  14.950
40141W        W12566   2.892  30.850   4.256
40142W        W12567  22.220  43.046   4.772
40143W        W12568  40.781  42.785   5.122
40144W        W12569  23.120   2.013   3.687
40145W        W12570  22.615  26.646   4.084
40146W        W12571  38.084   3.094  10.940
40147W        W12572   7.221  27.961  12.015
40148W        W12573  19.118  25.546   1.873
40149W        W12574  36.612   9.737  14.323
40150W        W12575  41.430  12.173   2.422
40151W        W12576  36.529   2.033   5.087
40152W        W12577  27.350  13.244   4.613
40153W        W12578  40.159  37.348  14.037
40154W        W12579  11.408  36.135  13.136
40155W        W12580   1.357  33.410   2.188
40156W        W12581   3.314  25.078  14.800
40157W        W12582   1.307   2.513   0.261
40158W        W12583  37.997   0.436  11.062
40159W        W12584  26.252  34.852  13.015
40160W        W12585  32.183  27.786  10.221
40161W        W12586  22.730  43.638  12.809
40162W        W12587  28.141   5.891   4.562
40163W        W12588  31.706  35.375  11.569
40164W        W12589   4.111   5.365  12.443
40165W        W12590  35.246  17.142   1.083
40166W        W12591  29.432  43.029   2.883
40167W        W12592  32.443  34.345   0.978
40168W        W12593  11.940  23.662  10.259
40169W        W12594  23.032  14.869   2.772
40170W        W12595  17.533   7.933   0.825
40171W        W12596  25.439  12.840   2.388
40172W        W12597  23.721   0.927  10.680
40173W        W12598  32.645  20.021   4.139
40174W        W12599  28.021  37.436   3.855
40175W        W12600  22.918  37.487   0.882
40176W        W12601   9.313  31.950   1.628
40177W        W12602  17.553   1.992   2.349
40178W        W12603  32.321  12.233  10.892
40179W        W12604  19.581  30.073  14.515
40180W        W12605  32.186  16.310   4.557
40181W        W12606   6.691  44.936  12.488
40182W        W12607  13.555  14.705   0.854
40183W        W12608   3.371  29.590   3.590
40184W        W12609  24.053  27.353   0.284
40185W        W12610  16.274  34.200  10.354
40186W        W12611  30.539  41.605  12.826
40187W        W12612   1.693  20.116  12.062
40188W        W12613  39.030  34.325  13.026
40189W        W12614  30.863  33.655  13.039
40190W        W12615   5.275  29.415  13.436
40191W        W12616   6.290  34.115   0.314
40192W        W12617  11.745  10.827   1.390
40193W        W12618   1.072   1.723  10.978
40194W        W12619  18.053   9.868  14.066
40195W        W12620  27.173  19.695   0.968
40196W        W12621  41.904   3.599  14.682
40197W        W12622  24.720  27.223   0.800
40198W        W12623  33.853   2.746   0.796
40199W        W12624  18.516  19.604   0.712
40200W        W12625  40.540  22.112  13.433
40201W        W12626  44.930  32.036   2.686
40202W        W12627  33.888   4.850   2.002
40203W        W12628  36.236  36.254   1.840
40204W        W12629   4.512  20.355  11.667
40205W        W12630   5.655  14.262   3.726
40206W        W12631   3.361  44.308   4.725
40207W        W12632  13.245   5.804   2.456
40208W        W12633  12.213   7.660  10.481
40209W        W12634  40.525  11.136   2.659
40210W        W12635   2.745  41.817  11.113
40211W        W12636  28.644  38.876  14.503
40212W        W12637  33.021  19.200   4.837
40213W        W12638  17.200  12.839  11.151
40214W        W12639  26.778  22.487   2.258
40215W        W12640   7.863  41.502   1.231
40216W        W12641  38.593  20.143   2.773
40217W        W12642  40.245  26.938   1.436
40218W        W12643   0.620  30.515  14.842
40219W        W12644  42.763  13.533  12.107
40220W        W12645  25.912  26.082   4.221
40221W        W12646   8.934  14.331   4.201
40222W        W12647  30.966   1.645   4.806
40223W        W12648  22.187  43.282  10.396
40224W        W12649  14.846  42.659  13.427
40225W        W12650  11.646  42.277   0.268
40226W        W12651   9.197  35.577   5.002
40227W        W12652  24.109  25.450   0.937
40228W        W12653  33.497   0.053   2.163
40229W        W12654  31.566   4.617   2.219
40230W        W12655  31.465  29.355  11.565
40231W        W12656  37.205  18.263   2.441
40232W        W12657  21.198  21.948  13.902
40233W        W12658  35.455  14.239   3.211
40234W        W12659  43.886  40.242  12.085
40235W        W12660   5.577  35.438  12.902
40236W        W12661   4.284   6.158   3.190
40237W        W12662  27.665   8.386  13.531
40238W        W12663   1.610  16.680  11.090
40239W        W12664  26.886  37.938   2.725
40240W        W12665  35.837  36.409   4.570
40241W        W12666  39.835  12.251  13.483
40242W        W12667  36.084   1.582   3.653
40243W        W12668  15.647   8.768   0.331
40244W        W12669  35.069  42.823  13.381
40245W        W12670  28.649  26.713  11.479
40246W        W12671  22.017   9.723   0.587
40247W        W12672  38.618  17.908  11.370
40248W        W12673  17.536  19.603  12.985
40249W        W12674  31.423  37.161  13.954
40250W        W12675  35.955  17.017  10.803
40251W        W12676  19.147  39.122   4.202
40252W        W12677  22.289  35.990   1.789
40253W        W12678   8.337  42.721  14.711
40254W        W12679   4.874  41.318   1.391
40255W        W12680  44.665  31.777   3.121
40256W        W12681   2.321  22.099   1.711
40257W        W12682  11.302  24.774   1.302
40258W        W12683  36.799  44.372   0.115
40259W        W12684  10.905  23.231  10.982
40260W        W12685  33.127  38.882   3.014
40261W        W12686  16.903  38.488   0.370
40262W        W12687   7.182  29.734  11.493
40263W        W12688  43.819  27.248   0.949
40264W        W12689  20.599  38.821   1.353
40265W        W12690  20.712  30.497  14.738
40266W        W12691  36.151  25.096  13.451
40267W        W12692   3.703  24.498  12.110
40268W        W12693  30.922   6.844   1.490
40269W        W12694   8.756  41.353   1.743
40270W        W12695   5.409  32.953  13.093
40271W        W12696  11.169  10.682   3.193
40272W        W12697  30.918  19.630   1.942
40273W        W12698  10.565  18.124   1.928
40274W        W12699  30.524  38.443   4.666
40275W        W12700  15.547   8.652   3.723
40276W        W12701  32.474  42.533  13.793
40277W        W12702  30.644  27.028   1.676
40278W        W12703   5.178  40.025   0.490
40279W        W12704   4.638  42.753   4.294
40280W        W12705  44.008  36.445   1.898
40281W        W12706  36.521  13.708  11.687
40282W        W12707  38.047  43.723   2.290
40283W        W12708  33.680  26.558   3.201
40284W        W12709  16.713  30.455   1.435
40285W        W12710  26.101  30.657   2.367
40286W        W12711  32.962  42.304   3.336
40287W        W12712   5.245   7.303  10.398
40288W        W12713  33.863  39.012  11.076
40289W        W12714  13.996   4.367   4.528
40290W        W12715  34.780  29.545   0.066
40291W        W12716  38.053  13.608   3.279
40292W        W12717  15.351  18.120  14.942
40293W        W12718  27.442  42.017   3.815
40294W        W12719  23.509  22.170  12.389
40295W        W12720  11.663  16.337  13.064
40296W        W12721  22.306  24.260   2.743
40297W        W12722  41.080  29.169  12.494
40298W        W12723  32.535   9.361   3.640
40299W        W12724  10.696   2.503   1.232
40300W        W12725  33.559  19.772  14.351
40301W        W12726   3.563  26.291   0.994
40302W        W12727  18.654  16.116  13.394
40303W        W12728   1.960   5.918  10.723
40304W        W12729   6.858  40.720   4.951
40305W        W12730  18.214  17.749  12.113
40306W        W12731  43.167  30.265   2.913
40307W        W12732   7.202  34.987  12.905
40308W        W12733   4.873   1.709   2.364
40309W        W12734  39.527   3.837  12.125
40310W        W12735  33.170  18.148  14.760
40311W        W12736  42.422  16.383   1.423
40312W        W12737  24.207  40.431   1.327
40313W        W12738   2.509  43.497   0.331
40314W        W12739   7.257   3.542  11.101
40315W        W12740  24.233   0.020  14.342
40316W        W12741  41.267   1.968   1.737
40317W        W12742  33.027  40.338   1.707
40318W        W12743  36.452   8.686  10.773
40319W        W12744  27.665  24.152  13.375
40320W        W12745  33.012  23.541  12.966
40321W        W12746  32.465   4.428   2.685
40322W        W12747  28.699  41.928   4.326
40323W        W12748  20.434  35.642   0.644
40324W        W12749  37.614   9.884  11.744
40325W        W12750   9.231  24.997  12.408
40326W        W12751  17.290  36.626   0.674
40327W        W12752  22.052  25.655  12.618
40328W        W12753  22.684   1.950  13.478
40329W        W12754   8.643  19.310   1.425
40330W        W12755  23.978  36.033  13.567
40331W        W12756   4.398  19.225   3.854
40332W        W12757  25.234  30.138   4.722
40333W        W12758   2.750  30.563  12.185
40334W        W12759  21.186  16.465   3.239
40335W        W12760  19.614  26.062  12.606
40336W        W12761   5.252  23.107  14.526
40337W        W12762  20.958  29.502  10.571
40338W        W12763  24.932  26.054   4.737
40339W        W12764  10.060  35.352   2.280
40340W        W12765  39.433  27.256   0.318
40341W        W12766   3.958  42.322   2.639
40342W        W12767  21.258  17.440   0.326
40343W        W12768  10.251  25.903  13.004
40344W        W12769  15.106  32.059   3.863
40345W        W12770  12.063   7.714  13.385
40346W        W12771  44.515  27.505   1.821
40347W        W12772  25.657  38.050   2.354
40348W        W12773  42.289  31.374   0.972
40349W        W12774  25.522  18.117   3.361
40350W        W12775  44.241  18.107   2.856
40351W        W12776   8.141  34.536   0.197
40352W        W12777  15.328  37.517  13.567
40353W        W12778  20.393  21.725  11.983
40354W        W12779  22.469   9.292   2.723
40355W        W12780  13.612   4.743  10.884
40356W        W12781  22.937  32.156  14.644
40357W        W12782  44.425   5.196   4.042
40358W        W12783  43.652  21.508   4.545
40359W        W12784  14.302   9.575   2.813
40360W        W12785  43.750   9.229   1.768
40361W        W12786   7.997  34.866   5.384
40362W        W12787  31.216   6.311   0.885
40363W        W12788  33.456  28.874   3.578
40364W        W12789  15.164   8.609  10.999
40365W        W12790  39.440  27.698  14.395
40366W        W12791  14.083  44.004  10.732
40367W        W12792  36.286  38.141  12.678
40368W        W12793  13.084  22.693  11.928
40369W        W12794  16.610  24.046  10.652
40370W        W12795  17.518  24.903  12.921
40371W        W12796   8.664  20.464   4.563
40372W        W12797  18.482  11.726   4.943
40373W        W12798  23.104  43.484   1.645
40374W        W12799  16.023  34.724   1.877
40375W        W12800  36.317   4.283   2.737
40376W        W12801  38.668  11.086  14.573
40377W        W12802  29.557  29.196  10.763
40378W        W12803  42.060  26.879  12.083
40379W        W12804   9.411  31.547   4.718
40380W        W12805  25.547  39.547  10.754
40381W        W12806  26.644  20.964  13.929
40382W        W12807  20.076  27.923  10.478
40383W        W12808  14.228  12.371   2.013
40384W        W12809   2.307   6.801   4.661
40385W        W12810  22.698  15.208  14.096
40386W        W12811  34.474  25.307  12.493
40387W        W12812  22.096  18.369   0.956
40388W        W12813   5.848   2.648   2.631
40389W        W12814  43.008  14.059   3.121
40390W        W12815   0.747  19.760  14.859
40391W        W12816  30.386  35.888   1.115
40392W        W12817  24.689   9.103  12.451
40393W        W12818   4.753   5.789   3.718
40394W        W12819  33.441  21.192   4.300
40395W        W12820  37.510  15.824  12.345
40396W        W12821  27.498  33.633   2.353
40397W        W12822  30.191   4.755  11.428
40398W        W12823  26.432  15.601   0.612
40399W        W12824  13.796  19.668   4.641
40400W        W12825  32.514  18.686  14.292
40401W        W12826  42.804   1.750   2.267
40402W        W12827   6.271  42.424  13.874
40403W        W12828  11.742   0.282   0.745
40404W        W12829  28.881  30.588  10.782
40405W        W12830   2.432  43.611  12.581
40406W        W12831   6.308  16.100   0.888
40407W        W12832  17.617   7.908   1.772
40408W        W12833  19.296   0.284  14.564
40409W        W12834  18.067  13.334   1.508
40410W        W12835  21.095  19.769  13.089
40411W        W12836  31.734  15.308  12.317
40412W        W12837  11.763  36.614   1.739
40413W        W12838  25.973  17.517  12.634
40414W        W12839  34.155  37.425  12.104
40415W        W12840   5.936   6.788  10.603
40416W        W12841  14.281   4.624  13.831
40417W        W12842   4.602  41.598  11.069
40418W        W12843  31.399  42.308   1.227
40419W        W12844   1.713  23.999  13.420
40420W        W12845   9.300  25.520  12.398
40421W        W12846  21.563  40.468  11.903
40422W        W12847  29.851  10.976  14.412
40423W        W12848   3.283  18.803  11.470
40424W        W12849  14.771  15.564  10.237
40425W        W12850  44.264  24.465   3.632
40426W        W12851  37.603  13.446   3.510
40427W        W12852   9.744  41.547   3.152
40428W        W12853  42.979  38.500  13.385
40429W        W12854  36.051  11.529  12.012
40430W        W12855   5.302  42.419   4.123
40431W        W12856  33.483  10.706   3.520
40432W        W12857   9.408  22.660   3.259
40433W        W12858   2.339  29.429   2.761
40434W        W12859  28.390   6.105   2.180
40435W        W12860  24.062   8.307  11.466
40436W        W12861   1.505   0.886   0.830
40437W        W12862   1.961  35.297   4.725
40438W        W12863  32.589   4.750  12.920
40439W        W12864  30.013  28.916   1.453
40440W        W12865  27.578  21.436   0.925
40441W        W12866  30.437   1.782   2.641
40442W        W12867   2.698   8.095  14.752
40443W        W12868  33.830  12.967  11.111
40444W        W12869  17.735   0.548   3.792
40445W        W12870  29.896  26.119   1.452
40446W        W12871  42.002   9.568   1.629
40447W        W12872  19.792  36.280  14.431
40448W        W12873   1.585  24.017   4.155
40449W        W12874   2.095   4.817   3.186
40450W        W12875  26.550  22.405  10.963
40451W        W12876  40.272  37.631   3.110
40452W        W12877   9.733  10.858  12.448
40453W        W12878  10.101  10.873   0.765
40454W        W12879   4.423  21.341   4.856
40455W        W12880  35.405  17.765   3.569
40456W        W12881  36.372  31.383   0.358
40457W        W12882  36.945  20.091   2.585
40458W        W12883  20.813  26.231   1.997
40459W        W12884   6.074  36.381   4.568
40460W        W12885   7.477   3.423  12.560
40461W        W12886   8.684  21.368   3.362
40462W        W12887  10.272  31.322  12.940
40463W        W12888   7.174  26.458  10.753
40464W        W12889  21.409   1.740  11.099
40465W        W12890   4.934  21.143   4.095
40466W        W12891   5.502  31.388  10.933
40467W        W12892  27.284  22.441   4.179
40468W        W12893  33.150   6.350  13.301
40469W        W12894   1.839  32.034   3.205
40470W        W12895   4.050  17.302  14.991
40471W        W12896   3.400  39.986   4.271
40472W        W12897  11.748  30.129  12.408
40473W        W12898  42.497  43.817   4.427
40474W        W12899  31.871  19.591  10.615
40475W        W12900  43.129  38.397   1.302
40476W        W12901  10.121  44.082  14.447
40477W        W12902   5.725  33.157  10.579
40478W        W12903  44.238   9.126  10.057
40479W        W12904  11.757  31.356   1.939
40480W        W12905  11.680   8.699   4.607
40481W        W12906   5.879  29.916  10.736
40482W        W12907   2.160  21.620   4.689
40483W        W12908  26.429   9.294  13.851
40484W        W12909  11.375  15.816  14.233
40485W        W12910  17.226  15.121  12.687
40486W        W12911  38.529  38.569  12.503
40487W        W12912  11.555  28.734   0.733
40488W        W12913  10.794  24.728   3.913
40489W        W12914  13.361  33.782   0.385
40490W        W12915  36.235   6.283  14.361
40491W        W12916  15.932  31.201  11.640
40492W        W12917  34.005   4.701   3.536
40493W        W12918   5.316   8.920   2.721
40494W        W12919  26.601  37.979   4.715
40495W        W12920  16.083  40.779  10.661
40496W        W12921  20.264   3.474   3.243
40497W        W12922  31.922   2.913   1.238
40498W        W12923  15.224   1.171   0.051
40499W        W12924  39.448  35.416  11.610
40500W        W12925  39.836   7.541   0.804
40501W        W12926   5.099  38.868   1.256
40502W        W12927  13.555  14.677  12.498
40503W        W12928  11.186  38.284  12.021
40504W        W12929  30.923  20.663   1.969
40505W        W12930   8.369  17.583   0.880
40506W        W12931  13.808  35.459   4.156
40507W        W12932  35.516  41.958   1.471
40508W        W12933  44.471  11.150   3.926
40509W        W12934  14.838  30.097  14.574
40510W        W12935   9.718   9.818  12.169
40511W        W12936  35.687  18.193   3.319
40512W        W12937  41.498  33.883  11.610
40513W        W12938  10.803  11.896  13.289
40514W        W12939  17.724  30.636   2.309
40515W        W12940  39.450  18.497   1.864
40516W        W12941  16.573  37.568   0.721
40517W        W12942  22.821   5.800  12.881
40518W        W12943  17.644  32.893  11.176
40519W        W12944  22.666  14.744  11.436
40520W        W12945  25.260  37.070   3.616
40521W        W12946  35.807  22.804   3.747
40522W        W12947   8.633  26.617   0.704
40523W        W12948  23.535  23.385   0.420
40524W        W12949  29.621  41.894   0.537
40525W        W12950  21.593  40.394  10.624
40526W        W12951  20.706  25.584  14.822
40527W        W12952  14.234   4.454   0.979
40528W        W12953  10.885  22.475  11.880
40529W        W12954   9.451   4.724   4.052
40530W        W12955  17.675   1.011  10.113
40531W        W12956   1.207  25.714  14.879
40532W        W12957  12.805   6.987  12.191
40533W        W12958  35.952  26.195   0.893
40534W        W12959  44.709   3.310   3.224
40535W        W12960   5.666   7.358   2.910
40536W        W12961   0.408  28.255  12.034
40537W        W12962   8.696   2.352  11.931
40538W        W12963  21.691  19.775   1.332
40539W        W12964  20.294   0.833   4.228
40540W        W12965  36.506  44.305   2.029
40541W        W12966  37.116  28.189   0.860
40542W        W12967   5.143  15.742   4.777
40543W        W12968  31.982  26.835  14.791
40544W        W12969  44.352  15.179   3.608
40545W        W12970  44.403  27.673   2.298
40546W        W12971   5.384  14.290  12.590
40547W        W12972  25.772  32.620   2.937
40548W        W12973  27.113  28.234   1.210
40549W        W12974  23.009  44.512   4.933
40550W        W12975  18.773  38.314   1.945
40551W        W12976  26.429  14.920   1.255
40552W        W12977  29.400   8.616  10.251
40553W        W12978  34.373  30.230   4.182
40554W        W12979  19.000   4.292  14.245
40555W        W12980  14.748  37.960   5.065
40556W        W12981  22.631  16.055  11.152
40557W        W12982  30.849  38.446   3.512
40558W        W12983  10.776  21.671  11.142
40559W        W12984  29.584  18.777   1.439
40560W        W12985  14.077  27.877  11.085
40561W        W12986  33.497  18.515   3.625
40562W        W12987  21.174  29.987  10.850
40563W        W12988  41.964  18.137   1.969
40564W        W12989  29.926  31.345  10.927
40565W        W12990  13.845  40.109  11.723
40566W        W12991  22.447  44.389  11.675
40567W        W12992  32.563  15.841  14.467
40568W        W12993  33.943  15.707   0.787
40569W        W12994  39.190  17.138  12.474
40570W        W12995  13.290  10.405  12.408
40571W        W12996  44.978  16.396  14.402
40572W        W12997  44.531  44.352   2.320
40573W        W12998  19.686  14.043  12.557
40574W        W12999  32.948  38.706  13.151
40575W        W13000  31.919  19.260   3.682
40576W        W13001  25.242  42.466   1.850
40577W        W13002   8.227   0.772  14.345
40578W        W13003   6.784  17.353  14.676
40579W        W13004  18.230  10.073   0.745
40580W        W13005   4.340  16.837   3.621
40581W        W13006  35.350  15.181  14.169
40582W        W13007  12.270  22.241  14.486
40583W        W13008   5.682   7.839  11.568
40584W        W13009  40.381  15.787   2.286
40585W        W13010  20.290  37.684  13.740
40586W        W13011  25.230   5.796  13.494
40587W        W13012  39.908  14.231   1.919
40588W        W13013  16.130  18.035   4.602
40589W        W13014   2.627  37.813  11.642
40590W        W13015  25.943   8.371  11.141
40591W        W13016  39.297  11.169   0.277
40592W        W13017  38.423  30.226   2.076
40593W        W13018  26.092  36.904  14.374
40594W        W13019   8.241  27.070   4.152
40595W        W13020  31.631   7.390   4.142
40596W        W13021  28.661  18.647   1.470
40597W        W13022   2.314  42.237  11.087
40598W        W13023  16.793  28.612  10.501
40599W        W13024  36.421  40.063   1.280
40600W        W13025  26.456   2.217   3.301
40601W        W13026  21.949   5.642  11.156
40602W        W13027  28.043  27.732  12.637
40603W        W13028  14.049  29.032   2.786
40604W        W13029  14.668   6.274  13.967
40605W        W13030  32.983   9.222   3.424
40606W        W13031   0.230  16.310   1.975
40607W        W13032  40.836  20.062   1.726
40608W        W13033  43.497  44.238   0.668
40609W        W13034  33.579  11.982  10.932
40610W        W13035  36.525   6.215  13.921
40611W        W13036  13.245  25.964  13.579
40612W        W13037  27.471  26.429   3.634
40613W        W13038  33.716  35.519  11.720
40614W        W13039   7.197  29.967   4.569
40615W        W13040  18.786  24.745   4.127
40616W        W13041  38.338  24.655  14.842
40617W        W13042   2.895  42.365  12.409
40618W        W13043  28.291  25.443  12.154
40619W        W13044  11.547   1.905   3.126
40620W        W13045   5.193  35.178  12.027
40621W        W13046  32.521  28.028  11.380
40622W        W13047  24.188  27.464   2.071
40623W        W13048   8.554   5.746   3.342
40624W        W13049  20.729  24.649  14.021
40625W        W13050   1.380  19.791  14.075
40626W        W13051  41.473  18.345   1.979
40627W        W13052   9.449   9.606  13.561
40628W        W13053  22.593  34.383  14.916
40629W        W13054  18.786  39.900   1.147
40630W        W13055  31.134  29.047   3.724
40631W        W13056  20.972  16.726  12.829
40632W        W13057  23.855   7.282   3.052
40633W        W13058  43.449  13.784  11.539
40634W        W13059   3.300  34.962   4.315
40635W        W13060   2.244  35.858   2.355
40636W        W13061  34.989  26.324   0.759
40637W        W13062  17.570  28.662  11.878
40638W        W13063  22.071  43.739  13.641
40639W        W13064  16.726  19.039  12.956
40640W        W13065  26.406  44.581   0.360
40641W        W13066  44.443  30.076  13.095
40642W        W13067  22.457  40.305  11.068
40643W        W13068  13.243   6.827  11.942
40644W        W13069  23.423   2.297  13.375
40645W        W13070  44.422  13.232   2.807
40646W        W13071  19.523  23.652   0.607
40647W        W13072  37.019  13.836   4.062
40648W        W13073   2.682  28.950   4.101
40649W        W13074  10.819  10.868  13.293
40650W        W13075  25.536   7.123  13.375
40651W        W13076  29.709  34.399  12.440
40652W        W13077  18.609  25.848  11.442
40653W        W13078  10.850   4.885   1.225
40654W        W13079  18.978  13.358  14.347
40655W        W13080  12.856  15.334   4.281
40656W        W13081  25.004  32.859  11.093
40657W        W13082  13.619  24.658   4.695
40658W        W13083  39.581   2.897   3.818
40659W        W13084  19.503   3.708   4.576
40660W        W13085  24.969  28.437  12.017
40661W        W13086  23.602   3.904   3.699
40662W        W13087  16.870  11.914   1.174
40663W        W13088   8.249  39.753   1.527
40664W        W13089  12.243   4.693   4.425
40665W        W13090  29.921  40.333   2.910
40666W        W13091  29.831  13.327   2.118
40667W        W13092  33.820  36.010  13.991
40668W        W13093   8.181  23.190  14.574
40669W        W13094  34.501  38.699  13.956
40670W        W13095   4.212  39.380  13.583
40671W        W13096   0.056  10.671   3.233
40672W        W13097   2.475   6.655  12.948
40673W        W13098  24.558  27.715   1.795
40674W        W13099  24.363  36.646  12.849
40675W        W13100  24.804  19.171  12.120
40676W        W13101  16.984  21.513  10.477
40677W        W13102   3.417  33.894   0.699
40678W        W13103  32.399  36.731  13.802
40679W        W13104  29.570   0.151  11.835
40680W        W13105   6.315  39.898  12.506
40681W        W13106  29.146   8.389  12.982
40682W        W13107  16.761   2.468  14.832
40683W        W13108  28.082  30.860  12.476
40684W        W13109  27.735  40.443  14.168
40685W        W13110  19.018  39.896   3.012
40686W        W13111  19.469  40.185   1.201
40687W        W13112  26.018  16.668  13.919
40688W        W13113  11.229  32.207  11.904
40689W        W13114   6.453  41.378   1.658
40690W        W13115  38.608   1.471  11.561
40691W        W13116  16.137   8.672  13.435
40692W        W13117  42.759   4.256   0.955
40693W        W13118  10.699  20.764   4.574
40694W        W13119   4.703  23.394   1.447
40695W        W13120   4.965  29.488  13.027
40696W        W13121  10.310  28.288  11.091
40697W        W13122  38.961   2.224   2.371
40698W        W13123   3.939  22.116   2.912
40699W        W13124   3.689  42.265   0.151
40700W        W13125  34.388  16.570   2.628
40701W        W13126  15.157  20.020   1.198
40702W        W13127  32.542  34.892   4.077
40703W        W13128  33.133  24.310  13.685
40704W        W13129  34.599  26.470  13.843
40705W        W13130  24.558  22.648  11.162
40706W        W13131   0.389   9.893  10.589
40707W        W13132  41.922  44.859  11.509
40708W        W13133   2.446  36.376   3.088
40709W        W13134  15.621  39.033   3.446
40710W        W13135  10.616  15.750  14.869
40711W        W13136  28.029  41.107  14.924
40712W        W13137  19.025  25.145  14.469
40713W        W13138  23.137  26.190  11.955
40714W        W13139   6.553   6.466  13.465
40715W        W13140  38.408   5.742   3.307
40716W        W13141  39.754  24.204  12.094
40717W        W13142  40.316  16.596  14.454
40718W        W13143  33.340  20.598   1.843
40719W        W13144  43.340  34.827   3.675
40720W        W13145   4.889  26.166  14.894
40721W        W13146  19.331  34.403  11.537
40722W        W13147  25.531  27.523  12.409
40723W        W13148   7.737   6.430  11.866
40724W        W13149   2.877  25.433   0.406
40725W        W13150  12.873  25.643  11.502
40726W        W13151  36.269  31.836  12.146
40727W        W13152  12.071   4.101  13.427
40728W        W13153   3.196   0.421   0.342
40729W        W13154  12.121  34.215  14.207
40730W        W13155  21.764   4.801  14.600
40731W        W13156   6.689  28.213  11.889
40732W        W13157  37.630  25.026  10.085
40733W        W13158  20.795  42.720  10.807
40734W        W13159  41.880  11.843  10.607
40735W        W13160  33.785  22.940   0.594
40736W        W13161  32.931  30.427   2.195
40737W        W13162  15.253  38.389  14.533
40738W        W13163  21.101  44.819   4.122
40739W        W13164   0.713  25.299   0.229
40740W        W13165  18.696  31.927   5.490
40741W        W13166  35.100  28.242   0.529
40742W        W13167  22.172  35.854  13.493
40743W        W13168  33.971  24.067   2.263
40744W        W13169   0.944  18.123  13.791
40745W        W13170   4.514  29.913  11.311
40746W        W13171   5.359  27.944   4.812
40747W        W13172   2.920  14.715   2.421
40748W        W13173   1.148  11.815   3.759
40749W        W13174   4.459   7.440  12.864
40750W        W13175   7.427  18.161   2.747
40751W        W13176   7.093  26.621   4.699
40752W        W13177   9.388  16.676   4.725
40753W        W13178  20.078  13.161   0.696
40754W        W13179  33.374  43.837  12.067
40755W        W13180  15.569  15.762  10.567
40756W        W13181  19.162  33.924  13.946
40757W        W13182  23.411  38.824   1.744
40758W        W13183  37.350  22.569   5.524
40759W        W13184  16.591  10.417   3.473
40760W        W13185  30.924  28.538   3.763
40761W        W13186  39.529  44.422   3.702
40762W        W13187  21.302  15.598  11.947
40763W        W13188  28.738   3.194   4.100
40764W        W13189  23.441   3.913   2.724
40765W        W13190  39.646  14.720   4.606
40766W        W13191   4.666  39.763  10.757
40767W        W13192   8.005  43.308  11.379
40768W        W13193   6.052  11.656   2.839
40769W        W13194  25.971  31.592  11.079
40770W        W13195   4.805   9.320  14.404
40771W        W13196  21.089  29.996   3.165
40772W        W13197  10.280   6.171   3.732
40773W        W13198  20.673  16.711  13.278
40774W        W13199   4.930   0.256   4.186
40775W        W13200  15.768  10.823   2.714
40776W        W13201  27.122  40.541   2.227
40777W        W13202  44.565  33.933  10.394
40778W        W13203   4.626  44.566  10.854
40779W        W13204  28.268  23.828   3.610
40780W        W13205  22.963  25.401  12.171
40781W        W13206  35.810  15.482  12.347
40782W        W13207  34.633   9.123  12.810
40783W        W13208  22.508   7.006  12.342
40784W        W13209  15.562  26.994  10.940
40785W        W13210  22.505  42.271   2.673
40786W        W13211  12.091  25.160   3.827
40787W        W13212  26.079  19.171   1.326
40788W        W13213  41.870  25.607   1.291
40789W        W13214  39.549  41.923  12.209
40790W        W13215   0.865  31.938   3.696
40791W        W13216  36.869  35.074   3.774
40792W        W13217  35.904  21.682  13.512
40793W        W13218  23.256  17.170   4.153
40794W        W13219   7.260  10.390  13.116
40795W        W13220  11.077  18.672   2.796
40796W        W13221   1.492  11.908  14.575
40797W        W13222  40.625  36.937  13.299
40798W        W13223  11.803   4.300  11.136
40799W        W13224  30.213  12.852  11.591
40800W        W13225  32.687  11.623  11.537
40801W        W13226   1.339  37.244   3.698
40802W        W13227  22.964   0.372   2.917
40803W        W13228  35.310   7.831  11.620
40804W        W13229  15.720  29.147  13.759
40805W        W13230   3.863  23.700  10.725
40806W        W13231  24.664  11.504   2.522
40807W        W13232   7.154  33.920   4.954
40808W        W13233  20.803   3.137  13.923
40809W        W13234   5.536  34.410   4.762
40810W        W13235   3.501   7.905   0.020
40811W        W13236  41.100  10.681   4.466
40812W        W13237  29.939   0.554   0.495
40813W        W13238  12.507  36.899   4.428
40814W        W13239  35.652   4.705   0.817
40815W        W13240  14.717  32.067  10.787
40816W        W13241  13.745  44.310   2.179
40817W        W13242   7.945   7.360   0.948
40818W        W13243  31.678   0.043  11.098
40819W        W13244  10.694   2.529   4.609
40820W        W13245  18.805  18.624  10.738
40821W        W13246   1.175   4.698  13.771
40822W        W13247  12.741  43.965   2.635
40823W        W13248  16.568  30.898   5.385
40824W        W13249  31.943  24.777  12.952
40825W        W13250  38.033   9.919  13.832
40826W        W13251  23.452   1.244  14.066
40827W        W13252  19.685  37.404   2.253
40828W        W13253  15.123  24.676   4.169
40829W        W13254  44.748  42.386   0.419
40830W        W13255   0.706  36.053   3.847
40831W        W13256  27.914  13.297   4.201
40832W        W13257  32.052  27.882  11.198
40833W        W13258  22.574   5.297  13.008
40834W        W13259  34.075  18.899   1.710
40835W        W13260   7.756  16.500   2.153
40836W        W13261  21.301  10.058   2.753
40837W        W13262  29.499  38.322  11.391
40838W        W13263  21.052  39.831  11.045
40839W        W13264  21.801  32.933   1.147
40840W        W13265  43.318  10.575  11.572
40841W        W13266  38.246   6.189   4.566
40842W        W13267   1.447  38.003   0.930
40843W        W13268  26.463  13.682   2.671
40844W        W13269   2.430  43.347  13.762
40845W        W13270  41.290  29.451  12.122
40846W        W13271  21.565  41.798  12.846
40847W        W13272  10.446   3.644  14.834
40848W        W13273   8.383  39.557   1.055
40849W        W13274  31.770  16.670   9.815
40850W        W13275  14.244  26.635   1.836
40851W        W13276  27.268   3.810   2.855
40852W        W13277   0.365  39.779   3.626
40853W        W13278  22.943  18.675   2.676
40854W        W13279  40.399  17.721  13.632
40855W        W13280  27.946  42.835  14.505
40856W        W13281  31.426  35.728   5.047
40857W        W13282  16.067  37.117   2.695
40858W        W13283  16.609   1.112  10.915
40859W        W13284  18.013  39.914  10.618
40860W        W13285  26.525  33.679  14.049
40861W        W13286  36.962  12.297   1.680
40862W        W13287   7.369  11.962  13.511
40863W        W13288  30.554  25.459  11.018
40864W        W13289  15.095   5.280   2.940
40865W        W13290  14.491  29.057  12.355
40866W        W13291   8.003  33.558  14.780
40867W        W13292  18.229  37.705  11.356
40868W        W13293  26.422  12.811   1.382
40869W        W13294  21.252  19.734  14.450
40870W        W13295  26.939  29.606  12.071
40871W        W13296   1.841  17.845   4.583
40872W        W13297  28.680   6.454   3.117
40873W        W13298  14.620   6.883  14.650
40874W        W13299   9.948   7.634  11.490
40875W        W13300   9.976  11.317  12.506
40876W        W13301  10.229  23.033   0.829
40877W        W13302  37.586   6.519   1.576
40878W        W13303  38.946  20.307   4.483
40879W        W13304  18.777  25.993  10.617
40880W        W13305   2.948  34.672  11.246
40881W        W13306  14.638  33.417  13.052
40882W        W13307  28.916  43.029   1.228
40883W        W13308  21.502  37.762  11.151
40884W        W13309   5.834  17.152  10.693
40885W        W13310  13.182  25.633  13.972
40886W        W13311  12.168  15.743   0.937
40887W        W13312  29.648  44.347   1.856
40888W        W13313   7.194  25.892  13.408
40889W        W13314  29.820  34.365   1.715
40890W        W13315  27.502  12.774   4.805
40891W        W13316   6.252   0.520  12.380
40892W        W13317  35.053  13.926   3.442
40893W        W13318   9.332  37.185  10.101
40894W        W13319  32.472  37.090  12.510
40895W        W13320   9.935  35.975   3.184
40896W        W13321  13.513  14.412   1.696
40897W        W13322   2.947  13.348   4.628
40898W        W13323  11.842  15.609  11.564
40899W        W13324  22.028  17.192   2.682
40900W        W13325  25.175  20.101   0.483
40901W        W13326  28.441  44.849  14.352
40902W        W13327  14.047   7.139  12.472
40903W        W13328  33.632  34.005  14.823
40904W        W13329  36.582  44.334  10.408
40905W        W13330  42.366   0.952   2.270
40906W        W13331  20.760  30.028  11.195
40907W        W13332  44.160  20.768   1.218
40908W        W13333  33.478  28.085  10.639
40909W        W13334   3.534  19.171   4.092
40910W        W13335  21.024  31.112   4.788
40911W        W13336  27.621   3.604  11.838
40912W        W13337  43.766  17.791   0.182
40913W        W13338   6.008  32.600  13.095
40914W        W13339  36.566  32.524   3.814
40915W        W13340  44.061  44.758   3.685
40916W        W13341   4.221  20.850   3.083
40917W        W13342  17.321   6.107   0.020
40918W        W13343  35.365  29.040  14.273
40919W        W13344  35.748  19.794   1.952
40920W        W13345   8.264  40.245   3.811
40921W        W13346  14.863  24.069   3.413
40922W        W13347   4.514   5.775   1.351
40923W        W13348  25.994  10.037   2.776
40924W        W13349   2.757   6.415  13.342
40925W        W13350   8.601  29.101  13.720
40926W        W13351  21.284  31.616   4.614
40927W        W13352  40.047  41.507  13.986
40928W        W13353  44.641  10.057  11.532
40929W        W13354  17.411  21.127   3.200
40930W        W13355   9.794  28.015   0.205
40931W        W13356   5.392  30.008  11.491
40932W        W13357  10.563  37.532  14.336
40933W        W13358  31.863   2.901   0.727
40934W        W13359  19.051  39.769  13.897
40935W        W13360  31.697  44.716  14.521
40936W        W13361  16.618   4.411  10.405
40937W        W13362   2.156  22.456   3.627
40938W        W13363  27.608  22.563  11.209
40939W        W13364  23.735  10.512   5.081
40940W        W13365  35.522  13.646  10.824
40941W        W13366  31.018  37.992   1.848
40942W        W13367  44.867   5.526   0.435
40943W        W13368  10.441  40.363   3.136
40944W        W13369  37.113  27.662   0.214
40945W        W13370  41.538  23.186   2.736
40946W        W13371  33.011  29.328   3.853
40947W        W13372  29.481  44.697  11.614
40948W        W13373  38.551  40.832   1.261
40949W        W13374   8.199  44.758   0.254
40950W        W13375  21.281  13.744   1.933
40951W        W13376   6.827  31.670  12.352
40952W        W13377  15.131  32.202  11.562
40953W        W13378  30.610  28.902   0.364
40954W        W13379  42.870   0.894   1.875
40955W        W13380  44.869  19.507   4.561
40956W        W13381  31.809  11.851   4.047
40957W        W13382  42.841  26.453  10.716
40958W        W13383  25.761  19.273   1.767
40959W        W13384   9.543  42.742   2.874
40960W        W13385   0.260  33.501  13.974
40961W        W13386  19.627  10.241   2.381
40962W        W13387  42.591  37.083  12.905
40963W        W13388  11.667   1.718   5.098
40964W        W13389  30.798  41.044  14.583
40965W        W13390  19.715  10.506   3.190
40966W        W13391  38.349  25.893   0.896
40967W        W13392  10.215  26.864  11.489
40968W        W13393  36.936  21.102  13.834
40969W        W13394  17.998   1.308  14.820
40970W        W13395  23.922  18.402  12.083
40971W        W13396  40.237  37.322   3.541
40972W        W13397   4.896   3.932   0.072
40973W        W13398  24.251   5.971  10.681
40974W        W13399  31.466  26.924  14.697
40975W        W13400  12.315  30.178   0.178
40976W        W13401  38.065  40.749  14.782
40977W        W13402  37.697  42.414   2.784
40978W        W13403   9.126  38.855  10.770
40979W        W13404  34.436  18.346   1.307
40980W        W13405   4.766  33.088   4.581
40981W        W13406  38.398  10.375  12.884
40982W        W13407   7.453  36.352   4.181
40983W        W13408  20.714  22.188   2.367
40984W        W13409  36.455   6.700  14.602
40985W        W13410  20.236  12.222   4.474
40986W        W13411   5.689  26.978   2.991
40987W        W13412  17.828  37.491  14.027
40988W        W13413  27.785   2.994   2.257
40989W        W13414  18.260  29.162  11.553
40990W        W13415  31.061  35.859  10.338
40991W        W13416  27.044  35.343   1.732
40992W        W13417   1.026  35.829   0.129
40993W        W13418  23.031   7.083   0.369
40994W        W13419   4.666  33.854   1.476
40995W        W13420  20.285  28.873  10.773
40996W        W13421   9.892  41.009   1.246
40997W        W13422   2.687  30.106   3.771
40998W        W13423  10.042  42.875   2.413
40999W        W13424  20.844  17.809  14.821
41000W        W13425   7.649  35.443   1.757
41001W        W13426  16.304  30.134   0.823
41002W        W13427  13.664  35.270  10.488
41003W        W13428   0.405  25.773  13.480
41004W        W13429  44.486  11.815   2.566
41005W        W13430  23.084  25.247   0.407
41006W        W13431  10.447  44.253  11.387
41007W        W13432  29.588  12.876  13.418
41008W        W13433   4.698   0.813   2.800
41009W        W13434   6.764  26.759  10.887
41010W        W13435  12.801  37.002  14.709
41011W        W13436  16.362  31.395   1.173
41012W        W13437  10.435   6.315  11.050
41013W        W13438  34.207  15.576  13.777
41014W        W13439  30.682  18.230   5.026
41015W        W13440   9.691  16.257  12.901
41016W        W13441  25.103  44.269   0.508
41017W        W13442  25.096  36.849  14.557
41018W        W13443  37.879   7.927   0.900
41019W        W13444  16.637   2.835   1.574
41020W        W13445  42.508  23.234  10.453
41021W        W13446  27.703  19.687   1.014
41022W        W13447  29.078  13.028  13.529
41023W        W13448   0.330  35.306  13.857
41024W        W13449   3.366  38.965   2.894
41025W        W13450  35.895  38.291  11.647
41026W        W13451  27.622  42.749  14.894
41027W        W13452   5.302  31.421  11.421
41028W        W13453  18.732  11.175   3.414
41029W        W13454  18.545   2.573  14.867
41030W        W13455  18.644  15.245  10.923
41031W        W13456  20.638  33.630  10.636
41032W        W13457  18.733  41.393   3.349
41033W        W13458  32.799   5.740  12.083
41034W        W13459  28.372   4.268  14.783
41035W        W13460   4.268  19.698   1.456
41036W        W13461  33.911  27.806  10.714
41037W        W13462  27.945  44.660  14.425
41038W        W13463  38.847   0.188   2.277
41039W        W13464  42.237  29.685   5.229
41040W        W13465  40.009   6.668  14.881
41041W        W13466  26.349   5.866  11.421
41042W        W13467  19.340  20.090   0.354
41043W        W13468  24.503  16.276   1.393
41044W        W13469  12.900  21.092   3.801
41045W        W13470  44.817   6.923   4.860
41046W        W13471   4.860  34.480  12.681
41047W        W13472  36.642  35.943   0.278
41048W        W13473  28.583  14.386   0.215
41049W        W13474  31.659  30.565  11.985
41050W        W13475  30.257  23.077  11.664
41051W        W13476   0.777  34.722   3.060
41052W        W13477   4.798   2.300  11.932
41053W        W13478   1.322   5.108  12.057
41054W        W13479  28.204   9.357  11.671
41055W        W13480  43.379  42.033  11.071
41056W        W13481  33.058  20.012  11.287
41057W        W13482  23.067   5.180  13.014
41058W        W13483   0.888  28.221  13.855
41059W        W13484   4.423  44.356   4.138
41060W        W13485  43.021   1.338   4.748
41061W        W13486  36.371   1.525  11.068
41062W        W13487  12.076   3.376  13.940
41063W        W13488  22.127  34.571   3.968
41064W        W13489  14.388  42.016   4.229
41065W        W13490  40.875  37.253  10.238
41066W        W13491  35.563  41.374  11.037
41067W        W13492  16.570   3.697   2.396
41068W        W13493   2.886   0.078  11.106
41069W        W13494  22.492   7.922   2.637
41070W        W13495   8.738   6.442   3.954
41071W        W13496  41.394  26.229  14.637
41072W        W13497   0.394  40.080  13.467
41073W        W13498  19.927   0.063  13.172
41074W        W13499  29.190   7.179   1.348
41075W        W13500  17.707  23.533  10.931
41076W        W13501  43.290  39.912   1.157
41077W        W13502  35.432   5.347  12.801
41078W        W13503  18.458  25.643   3.115
41079W        W13504  35.572  32.388   3.293
41080W        W13505   8.762  28.082   1.312
41081W        W13506  11.129  18.066   1.240
41082W        W13507  41.494  31.861  11.063
41083W        W13508  34.105  20.536  13.583
41084W        W13509  38.623  31.129   0.379
41085W        W13510  29.891   1.338   1.584
41086W        W13511  43.224  12.645   5.011
41087W        W13512   8.723   1.205   2.961
41088W        W13513  18.253  27.035   2.460
41089W        W13514  39.129  42.526  12.568
41090W        W13515  16.846  42.420   0.260
41091W        W13516  13.553  15.628  12.523
41092W        W13517  15.653   3.213   0.630
41093W        W13518  31.426  12.217  11.293
41094W        W13519  23.615  32.557   2.229
41095W        W13520   6.303  23.332  14.038
41096W        W13521  24.141   6.904   0.856
41097W        W13522  26.212   3.688   0.382
41098W        W13523   7.277  10.716   1.840
41099W        W13524  40.462  27.134  10.393
41100W        W13525  40.387  30.889  11.556
41101W        W13526  44.388  15.967  11.840
41102W        W13527  27.846  23.757  12.538
41103W        W13528   1.337  12.190   4.041
41104W        W13529   5.843  42.418  14.200
41105W        W13530  10.675  31.429  13.288
41106W        W13531  15.228   3.890   0.196
41107W        W13532   3.713  37.527   3.633
41108W        W13533  42.232   3.418  13.402
41109W        W13534  16.299   2.408  10.531
41110W        W13535  24.565  38.397   2.674
41111W        W13536  12.900  15.150  12.470
41112W        W13537  15.607  26.875  14.154
41113W        W13538  42.367  41.982   0.094
41114W        W13539  18.673  41.019  14.273
41115W        W13540  39.215   6.669  10.017
41116W        W13541  31.979  40.872   0.326
41117W        W13542  11.587   9.757  14.016
41118W        W13543   7.695  20.134  11.550
41119W        W13544  10.701  13.411   2.609
41120W        W13545  20.791  20.296  10.761
41121W        W13546   5.150  35.021  14.008
41122W        W13547  17.297  23.531  14.794
41123W        W13548  44.944  35.895  12.934
41124W        W13549  26.159  12.768   4.275
41125W        W13550  28.663  34.699  14.468
41126W        W13551   4.718  37.542  11.374
41127W        W13552  32.061  38.268   4.045
41128W        W13553  16.907  14.764  11.512
41129W        W13554   2.333  15.928   2.001
41130W        W13555  31.186   4.726  12.664
41131W        W13556   5.695  20.884   4.734
41132W        W13557  26.380  10.434  10.563
41133W        W13558  26.727  39.881   0.217
41134W        W13559  27.029  35.167  10.654
41135W        W13560   0.011  20.463   2.694
41136W        W13561   7.675  32.676  12.274
41137W        W13562   9.517  18.295   3.706
41138W        W13563   5.821  15.809   1.712
41139W        W13564  26.664   4.351  12.932
41140W        W13565  44.809  11.119   3.128
41141W        W13566   2.711  34.169  13.072
41142W        W13567  37.446  41.064   0.307
41143W        W13568   1.543  44.307  14.777
41144W        W13569  34.653  28.717  11.103
41145W        W13570  10.878   2.281  12.465
41146W        W13571  25.625  40.592  13.045
41147W        W13572  17.527  21.669  14.478
41148W        W13573  21.622  26.115  14.858
41149W        W13574  14.922   8.178   0.191
41150W        W13575  25.087  16.952   4.837
41151W        W13576  18.673  10.768  10.659
41152W        W13577   9.647  27.909   2.245
41153W        W13578   6.260  39.564  14.612
41154W        W13579  41.530  17.893   3.669
41155W        W13580  38.270  25.226   2.847
41156W        W13581   4.502  20.113  11.147
41157W        W13582  40.443  42.985   3.273
41158W        W13583  37.847   5.780  11.409
41159W        W13584   8.796  34.383  13.489
41160W        W13585   7.143  37.493  11.971
41161W        W13586   3.553   7.962  12.186
41162W        W13587  20.491  12.031  10.919
41163W        W13588  24.395  16.413   4.543
41164W        W13589  15.683   1.014   1.036
41165W        W13590  22.592  23.986  11.760
41166W        W13591  39.595  30.096   0.718
41167W        W13592   2.948  14.609  13.818
41168W        W13593  23.624  21.787   3.686
41169W        W13594  12.365  17.294  11.622
41170W        W13595   9.648  19.201  13.806
41171W        W13596  19.591  44.358  10.826
41172W        W13597  16.797  44.295  11.378
41173W        W13598   5.904  39.558  11.172
41174W        W13599  39.078  38.569   2.424
41175W        W13600  12.666  23.749  11.694
41176W        W13601  13.049  24.637  10.188
41177W        W13602  24.575  42.653   2.335
41178W        W13603  29.251  23.493  12.067
41179W        W13604   1.974  27.056   4.505
41180W        W13605  28.379  10.434  14.473
41181W        W13606  36.355  21.733  11.117
41182W        W13607  42.879  14.029   1.334
41183W        W13608   9.215  38.553  13.045
41184W        W13609  39.307  41.696  11.077
41185W        W13610  16.910  38.385  11.532
41186W        W13611  39.033  20.230   0.328
41187W        W13612  16.628  14.123  12.114
41188W        W13613  30.836   9.177  10.597
41189W        W13614   3.711  21.683   2.654
41190W        W13615  37.867  36.220  14.084
41191W        W13616  26.635  31.088   4.947
41192W        W13617  39.938  15.276  14.356
41193W        W13618   9.783  20.478  10.948
41194W        W13619   3.770  38.847   1.718
41195W        W13620  40.566  36.305   0.524
41196W        W13621  29.385  44.960   3.692
41197W        W13622   2.878  20.742  14.072
41198W        W13623  22.123   8.787   4.651
41199W        W13624   3.280  26.469  10.825
41200W        W13625  11.334   0.480   3.986
41201W        W13626  22.003  41.976  13.061
41202W        W13627  16.404   7.299   4.106
41203W        W13628   4.179  18.939  12.894
41204W        W13629  21.557   7.833  12.829
41205W        W13630   6.389  37.026   4.478
41206W        W13631  41.684  39.039   2.827
41207W        W13632   2.718  26.432  13.348
41208W        W13633  23.710  25.256   1.239
41209W        W13634   4.914  18.058   1.795
41210W        W13635   3.900   0.444   4.487
41211W        W13636  43.545   3.820  11.346
41212W        W13637   7.915  38.538  11.579
41213W        W13638  35.432  13.142  11.063
41214W        W13639  22.733   4.534   2.305
41215W        W13640  32.300  38.752   4.837
41216W        W13641  42.983  43.109  11.273
41217W        W13642  22.510  41.204  13.131
41218W        W13643   0.054  20.240  14.438
41219W        W13644  25.697   5.507  10.647
41220W        W13645   7.437  26.166  13.950
41221W        W13646  34.450  15.860   1.717
41222W        W13647  25.886  16.859   2.834
41223W        W13648  34.374  44.343   3.208
41224W        W13649  43.525  28.204   2.258
41225W        W13650   6.765  10.734   3.830
41226W        W13651   3.704   8.369  12.497
41227W        W13652  43.900   5.130   2.375
41228W        W13653   0.112   1.418  10.743
41229W        W13654  15.708  11.844   3.116
41230W        W13655  33.604  11.673  11.621
41231W        W13656  26.046  29.923   4.148
41232W        W13657  36.560  25.781   4.649
41233W        W13658  21.736   3.546  12.475
41234W        W13659  14.824  13.178  13.017
41235W        W13660  35.986  31.179   2.888
41236W        W13661  44.398  20.206   2.205
41237W        W13662   1.935  14.906   0.399
41238W        W13663  43.943  14.351  13.845
41239W        W13664  44.536  35.461   0.604
41240W        W13665  37.579   6.830   1.162
41241W        W13666  26.660  18.908   0.369
41242W        W13667  13.567  28.018   3.425
41243W        W13668  12.646  26.143   3.843
41244W        W13669  32.111   9.956   3.564
41245W        W13670  27.634  25.600   0.912
41246W        W13671  18.877  37.148   4.635
41247W        W13672  20.516   7.189  14.940
41248W        W13673  43.971   5.739  14.986
41249W        W13674  24.887  24.953  11.793
41250W        W13675  30.708  37.389  10.623
41251W        W13676  30.867  24.134   4.115
41252W        W13677  13.265  14.756   3.285
41253W        W13678   1.509  21.759  14.527
41254W        W13679  44.767   1.224  12.081
41255W        W13680  22.461  21.642   2.817
41256W        W13681  19.720  16.081  12.594
41257W        W13682  12.706  21.995  13.826
41258W        W13683  24.364   2.855  10.751
41259W        W13684  29.065  43.021   3.303
41260W        W13685  35.949  22.076  14.728
41261W        W13686   1.461  18.423  13.072
41262W        W13687  20.620  14.371  12.197
41263W        W13688  17.112   8.771   0.794
41264W        W13689  36.482  40.322  11.039
41265W        W13690  18.010  13.137  13.453
41266W        W13691  31.985   6.583  11.472
41267W        W13692  41.315  19.164   1.210
41268W        W13693  26.631  42.405   4.170
41269W        W13694   2.487  21.659   3.121
41270W        W13695   6.382  30.979  11.583
41271W        W13696   5.958   1.771  10.311
41272W        W13697  19.600  34.912  11.624
41273W        W13698   8.848  16.501   3.657
41274W        W13699  43.199  12.441   0.938
41275W        W13700  32.961  26.993   1.747
41276W        W13701  36.380   8.148   0.895
41277W        W13702  29.603  27.038   0.223
41278W        W13703   3.034   7.937  11.256
41279W        W13704  28.536  30.909  11.630
41280W        W13705  34.658  41.006   2.678
41281W        W13706  18.260  13.321   3.324
41282W        W13707  27.107  41.317  13.467
41283W        W13708  37.011  36.862  13.478
41284W        W13709  28.428   3.764  12.415
41285W        W13710  11.444  22.645  10.651
41286W        W13711  21.783  19.313   4.381
41287W        W13712  23.678   1.286   4.590
41288W        W13713   3.881  27.223  11.631
41289W        W13714  28.435   8.346   2.769
41290W        W13715  37.947  29.999   2.163
41291W        W13716  27.074   9.290  12.524
41292W        W13717  22.548  28.202  11.081
41293W        W13718   4.483   6.136  14.402
41294W        W13719  43.065  36.124  12.137
41295W        W13720  25.297  23.043  11.588
41296W        W13721  29.011  23.539  13.019
41297W        W13722  22.689  22.514  11.203
41298W        W13723   6.601   2.399   2.196
41299W        W13724   4.221   4.858   2.812
41300W        W13725   4.987  28.105  12.415
41301W        W13726  38.677  10.408  13.346
41302W        W13727  17.806  41.544   2.256
41303W        W13728  26.401  28.969   1.284
41304W        W13729  34.912   3.924   4.102
41305W        W13730  14.039  22.057   2.179
41306W        W13731  13.356   0.948   0.591
41307W        W13732  37.815  13.292  12.486
41308W        W13733  21.250  12.172  14.349
41309W        W13734   2.906  16.597   4.579
41310W        W13735  14.220  36.924   1.542
41311W        W13736  43.202  25.032  10.700
41312W        W13737  30.574  41.600  10.953
41313W        W13738   9.536  42.872   2.031
41314W        W13739  19.309  27.634   1.231
41315W        W13740  24.792  10.750   3.756
41316W        W13741  34.518   5.079   0.337
41317W        W13742  26.461  44.951   1.467
41318W        W13743  44.344  38.816   0.394
41319W        W13744  38.583  42.036   4.181
41320W        W13745   1.551  38.560  13.658
41321W        W13746  40.521   2.786  12.531
41322W        W13747   0.592  35.433  11.969
41323W        W13748  27.194  36.976   1.703
41324W        W13749  30.764  42.595  11.540
41325W        W13750   9.273  16.227   3.436
41326W        W13751  34.694  27.135  12.447
41327W        W13752  10.216  22.523   0.836
41328W        W13753   2.033  43.234   3.859
41329W        W13754  44.626  26.407   2.846
41330W        W13755   3.462  24.027   4.143
41331W        W13756   3.950  40.798   3.860
41332W        W13757  29.617  29.407   0.290
41333W        W13758  33.467   5.499   1.726
41334W        W13759  29.002   8.393  11.405
41335W        W13760  25.421  20.992  12.883
41336W        W13761   6.921  31.573   5.126
41337W        W13762  25.646  34.349  13.135
41338W        W13763  12.362  40.395   1.857
41339W        W13764  15.969   0.004   5.028
41340W        W13765  35.596   5.202  11.358
41341W        W13766  17.321  17.291   3.152
41342W        W13767  29.627  41.850  11.684
41343W        W13768  43.328  37.456  12.939
41344W        W13769   7.566  28.683  12.149
41345W        W13770  15.384   9.137  14.940
41346W        W13771  29.107   1.905   4.842
41347W        W13772  36.812  39.591  12.537
41348W        W13773  44.517  19.310  10.609
41349W        W13774   7.574   7.423   1.797
41350W        W13775  16.110  21.028  12.385
41351W        W13776   2.687  24.305   1.427
41352W        W13777  35.706  29.375  11.578
41353W        W13778  10.119  30.532  12.948
41354W        W13779  43.338   0.868  14.202
41355W        W13780  34.503  28.045  13.445
41356W        W13781  42.860  20.734   2.646
41357W        W13782  36.498  11.802   4.018
41358W        W13783   8.589  26.862   5.298
41359W        W13784  27.854  28.672  13.562
41360W        W13785  28.717   1.884  13.906
41361W        W13786  40.570  42.325   2.700
41362W        W13787  40.429   2.493  13.390
41363W        W13788   8.039  28.802  10.483
41364W        W13789   3.721  42.481  12.894
41365W        W13790  34.795  36.448   4.630
41366W        W13791  20.164  16.218  12.834
41367W        W13792  15.649  12.958  11.799
41368W        W13793  29.323   0.072   1.108
41369W        W13794   4.909  43.000   1.758
41370W        W13795  26.446   9.159   0.346
41371W        W13796  19.955  17.145   2.626
41372W        W13797  27.173  21.567   3.207
41373W        W13798  15.109   4.955  11.043
41374W        W13799  18.059  37.909   4.248
41375W        W13800   7.345  19.106  14.892
41376W        W13801  39.352  20.837  10.101
41377W        W13802  17.767  18.627   4.004
41378W        W13803  43.721  16.105   4.592
41379W        W13804   2.628  33.019   3.300
41380W        W13805  24.096  18.228   4.070
41381W        W13806  39.911  20.134  13.531
41382W        W13807  43.387  43.558  10.657
41383W        W13808  42.823   3.698   0.720
41384W        W13809   1.128  35.073  11.167
41385W        W13810  25.099  27.926  12.060
41386W        W13811  37.838  43.755  14.371
41387W        W13812  31.959  13.968  11.571
41388W        W13813  41.005   1.255  12.099
41389W        W13814   8.642  12.167   0.561
41390W        W13815  19.668  38.804  10.955
41391W        W13816   1.840   9.942  11.982
41392W        W13817  36.640   2.847   4.868
41393W        W13818  25.900  23.597   1.223
41394W        W13819   9.788  28.857   2.296
41395W        W13820  37.832  44.897  14.315
41396W        W13821   8.369  16.469  11.080
41397W        W13822   4.092  25.185  11.044
41398W        W13823   3.699  22.971   2.234
41399W        W13824  38.480  13.276   2.117
41400W        W13825  37.415  12.162   1.467
41401W        W13826   5.931  28.844  14.253
41402W        W13827  44.282  10.390  11.701
41403W        W13828  23.249  12.048  13.350
41404W        W13829  13.087  20.818   2.280
41405W        W13830  35.181   3.432  10.836
41406W        W13831  26.671  28.153  11.509
41407W        W13832   5.692  14.088   1.475
41408W        W13833  31.586   4.139  11.947
41409W        W13834  19.254  23.070  14.289
41410W        W13835  42.317  24.009   4.172
41411W        W13836   7.658  21.243   4.073
41412W        W13837   0.099   4.980  11.527
41413W        W13838  14.542   3.220   4.576
41414W        W13839  40.907  14.459  14.731
41415W        W13840  44.896  42.278  13.085
41416W        W13841   2.944   0.751  11.899
41417W        W13842   9.675  20.966   4.083
41418W        W13843  20.490   5.331   3.269
41419W        W13844  31.635  15.609   3.312
41420W        W13845  15.700  42.109  10.601
41421W        W13846  16.986   0.378  12.862
41422W        W13847  13.754   4.720   0.874
41423W        W13848   8.347  31.645   1.333
41424W        W13849  43.953   5.080  10.727
41425W        W13850   3.356  20.011   2.849
41426W        W13851  13.705  10.684   1.465
41427W        W13852  17.671  14.647   2.395
41428W        W13853  34.957   5.309  12.990
41429W        W13854   5.998  43.024   4.974
41430W        W13855  24.128  21.958  10.705
41431W        W13856  17.390  42.727  11.237
41432W        W13857  37.729  43.233  12.128
41433W        W13858  38.408   7.447   1.937
41434W        W13859  27.367  41.821  10.681
41435W        W13860  21.903  28.811  14.071
41436W        W13861  42.794  31.109   2.478
41437W        W13862  31.800   5.066   2.333
41438W        W13863  21.255  10.145  12.441
41439W        W13864  16.552  39.677  12.558
41440W        W13865  12.723   4.454  14.495
41441W        W13866  25.687  41.809   3.260
41442W        W13867  12.778   6.036   1.420
41443W        W13868  22.775  31.990   1.313
41444W        W13869  17.139   4.399   3.811
41445W        W13870  44.218  42.880  14.632
41446W        W13871  17.311  43.500   4.923
41447W        W13872  43.396  21.255  12.374
41448W        W13873  27.595  34.871  11.071
41449W        W13874  44.501   6.781  11.511
41450W        W13875  34.641  30.169   0.874
41451W        W13876  26.633  42.306   3.281
41452W        W13877  20.513  16.111   1.238
41453W        W13878  22.466  12.229  13.357
41454W        W13879   6.807  20.724   2.771
41455W        W13880  40.839  38.094   2.286
41456W        W13881   7.017   9.976   4.560
41457W        W13882  43.488  24.958  13.796
41458W        W13883  32.508   9.838   3.896
41459W        W13884  16.645  37.776   2.020
41460W        W13885   5.778   1.807   3.240
41461W        W13886  44.282  11.333  14.355
41462W        W13887  37.266  25.504  10.666
41463W        W13888   4.781  14.502   1.905
41464W        W13889  41.952  12.312  10.409
41465W        W13890  29.087  30.194   4.660
41466W        W13891  32.441  42.342   1.223
41467W        W13892   3.151  35.812   0.872
41468W        W13893  40.754  11.183  11.525
41469W        W13894  40.575  39.814   1.193
41470W        W13895  10.705  16.510  13.821
41471W        W13896  41.923  10.043   1.776
41472W        W13897  22.595  43.313   1.438
41473W        W13898  36.621   9.271  13.369
41474W        W13899  44.220  37.346  13.903
41475W        W13900  24.256  27.751  10.722
41476W        W13901   3.735  36.372  14.546
41477W        W13902  34.617  30.804   3.148
41478W        W13903  19.082  44.261  12.154
41479W        W13904  35.554  43.802  12.891
41480W        W13905  27.023  28.034  11.118
41481W        W13906  40.156  42.723   4.330
41482W        W13907   5.479  26.688  10.803
41483W        W13908  28.397   3.980   4.682
41484W        W13909  36.125  20.592   4.641
41485W        W13910   4.124  27.111   1.318
41486W        W13911  36.870  33.514  12.181
41487W        W13912   3.483  38.690  12.523
41488W        W13913   2.332  33.328   0.097
41489W        W13914  40.067   9.808   4.065
41490W        W13915  44.957  26.436  11.610
41491W        W13916  41.354  18.678  12.956
41492W        W13917   0.775  27.347  14.335
41493W        W13918  10.424   1.720   4.250
41494W        W13919  37.628  22.706  13.601
41495W        W13920  10.785  21.210   1.689
41496W        W13921   9.877  23.081  12.358
41497W        W13922  30.022  15.289  14.451
41498W        W13923  38.658  14.369  12.067
41499W        W13924  42.037  21.897  13.397
41500W        W13925  12.316  33.429   4.340
41501W        W13926  18.285   0.816  11.515
41502W        W13927  19.188   4.871  11.148
41503W        W13928  36.329  42.893  14.898
41504W        W13929  13.253  39.415  13.612
41505W        W13930  33.659   7.419  13.825
41506W        W13931  23.848  17.243  14.103
41507W        W13932  38.840   9.246  12.513
41508W        W13933  19.500   5.501   3.348
41509W        W13934  29.355  18.001   2.722
41510W        W13935   2.816  21.743  10.974
41511W        W13936  41.755   8.091  11.661
41512W        W13937  41.714  13.135  13.447
41513W        W13938  15.745  10.190  11.662
41514W        W13939  11.368  21.597   4.237
41515W        W13940  42.026  13.234   3.147
41516W        W13941  13.567  34.015  14.405
41517W        W13942  25.863   2.074   5.095
41518W        W13943  24.624  16.577   4.066
41519W        W13944  41.721  15.246   3.291
41520W        W13945  20.836  28.655  12.008
41521W        W13946  31.413  30.440  14.661
41522W        W13947  41.803   9.954  12.445
41523W        W13948  43.320   1.495  12.080
41524W        W13949  43.905  15.687  14.497
41525W        W13950   4.756  12.408  12.103
41526W        W13951  19.885  40.806   3.660
41527W        W13952  23.627   5.652  11.362
41528W        W13953  16.164   1.282   4.582
41529W        W13954  24.716  11.708  13.985
41530W        W13955  15.562  33.085   4.642
41531W        W13956  34.685   1.703   4.731
41532W        W13957  26.983  26.116  11.529
41533W        W13958  41.418  24.163   0.666
41534W        W13959  25.476  21.721   1.361
41535W        W13960  17.712  11.736   1.241
41536W        W13961  16.863  11.161   4.131
41537W        W13962  30.865  21.138   2.667
41538W        W13963  18.722  43.290  11.411
41539W        W13964  35.936   5.523   3.715
41540W        W13965  30.323  11.768  12.193
41541W        W13966  11.858  12.293  13.356
41542W        W13967  38.006   4.560  11.731
41543W        W13968  24.113  33.068  14.288
41544W        W13969   6.794  16.085   4.115
41545W        W13970  17.402  44.190  12.766
41546W        W13971  19.138  12.185   3.901
41547W        W13972   9.143  23.124   4.127
41548W        W13973  24.031   7.843   0.501
41549W        W13974  40.988  28.499  12.055
41550W        W13975   9.382  18.290   2.757
41551W        W13976  13.250  32.122  13.399
41552W        W13977  27.650  41.507  13.405
41553W        W13978  44.931   1.896   2.243
41554W        W13979  40.851  43.409  14.088
41555W        W13980  42.253   5.181  11.142
41556W        W13981  26.146  40.333   4.036
41557W        W13982   8.143  37.130  11.026
41558W        W13983   7.696   8.231   0.362
41559W        W13984  31.340  13.732  14.702
41560W        W13985   8.916  38.185   0.922
41561W        W13986  20.958  26.073  13.069
41562W        W13987   3.444  38.354   1.741
41563W        W13988  39.392  26.439   1.537
41564W        W13989  41.480  23.684   1.500
41565W        W13990  37.952   4.739   2.345
41566W        W13991   8.630  25.434   2.585
41567W        W13992  31.865  38.094   3.591
41568W        W13993  44.481   5.804  13.312
41569W        W13994  38.806  32.381   0.884
41570W        W13995  41.411  20.514  14.531
41571W        W13996  40.492  30.113   0.468
41572W        W13997  38.894  34.936  12.038
41573W        W13998   8.270  27.050   0.761
41574W        W13999  32.563  23.765  11.583
41575W        W14000  21.136  29.120  11.281
41576W        W14001  28.779  29.015  12.050
41577W        W14002   2.112  23.213   0.165
41578W        W14003  41.473  28.485  10.499
41579W        W14004  38.932  18.968   1.915
41580W        W14005  41.550   4.731  13.942
41581W        W14006  13.554  36.504  11.595
41582W        W14007  34.953  14.406   3.261
41583W        W14008   5.691  30.508   2.342
41584W        W14009  38.796   3.250  13.099
41585W        W14010  44.536   5.394  13.005
41586W        W14011  36.884  17.159   4.509
41587W        W14012  26.744   2.529   5.103
41588W        W14013  27.683   6.211  10.715
41589W        W14014   0.463  28.117  12.913
41590W        W14015  25.010   7.419   3.242
41591W        W14016  11.156  19.489  11.353
41592W        W14017  28.210  12.113  12.492
41593W        W14018  44.121  24.297  14.836
41594W        W14019  23.241  29.079   0.827
41595W        W14020  19.240  32.748  11.522
41596W        W14021   9.674  36.459   0.420
41597W        W14022   6.870  12.294   1.373
41598W        W14023   2.009  14.972   1.234
41599W        W14024  27.214   2.868  10.671
41600W        W14025  44.426  17.827   4.326
41601W        W14026   6.483   2.953  13.479
41602W        W14027   8.139  18.032  12.347
41603W        W14028  31.127  15.682   3.165
41604W        W14029   6.484  18.227  13.895
41605W        W14030  38.251  26.467   2.343
41606W        W14031  11.061  31.590  14.868
41607W        W14032  36.905  32.398   1.843
41608W        W14033  22.045  16.273  14.489
41609W        W14034  13.204   6.669  14.760
41610W        W14035  36.728  37.165   2.185
41611W        W14036  33.229  15.624  14.062
41612W        W14037  33.025  34.916  13.730
41613W        W14038  20.184  37.604   1.219
41614W        W14039  41.133  16.637   4.333
41615W        W14040  44.347  20.155   3.642
41616W        W14041  34.342  32.940   1.243
41617W        W14042  30.583   1.346  12.624
41618W        W14043   4.318  11.746  12.442
41619W        W14044  22.435  20.193  10.444
41620W        W14045  32.278  39.525  14.870
41621W        W14046  35.032   4.382   2.612
41622W        W14047  19.767  28.110   2.554
41623W        W14048  28.134  11.753  13.795
41624W        W14049   6.774  12.600   4.010
41625W        W14050  24.735  26.952  12.330
41626W        W14051  36.551  40.926  12.440
41627W        W14052  40.839  20.423   1.339
41628W        W14053   3.828  13.040   1.962
41629W        W14054  28.492  15.656  13.962
41630W        W14055  31.602  36.303   4.501
41631W        W14056   0.274  31.481   1.444
41632W        W14057  34.493  39.410  11.561
41633W        W14058   7.710  27.126   4.139
41634W        W14059  39.788  38.862  14.967
41635W        W14060  12.505  44.009   2.188
41636W        W14061  16.255  17.517   1.295
41637W        W14062   5.945  20.664   0.439
41638W        W14063   8.044  41.609  11.731
41639W        W14064  12.257  44.327   3.078
41640W        W14065  24.463   6.618  11.333
41641W        W14066   2.894  18.198  12.030
41642W        W14067  31.723  17.299  11.086
41643W        W14068  32.465  40.903   4.948
41644W        W14069   8.313  30.937   3.183
41645W        W14070  30.444  16.135   3.139
41646W        W14071   7.873  44.501  12.699
41647W        W14072  39.237   0.353   4.998
41648W        W14073  14.921  17.927  10.869
41649W        W14074   1.890  24.173  14.360
41650W        W14075  14.275  23.235  12.777
41651W        W14076  22.283  20.428  13.410
41652W        W14077  39.369   8.480   1.709
41653W        W14078   7.621  22.476   0.100
41654W        W14079  12.405  25.211   2.413
41655W        W14080  35.681  37.479   3.593
41656W        W14081  25.149  19.503   4.112
41657W        W14082   1.730  29.495   0.055
41658W        W14083  42.060  29.179  10.056
41659W        W14084   9.306  19.756  11.500
41660W        W14085  43.118  15.082  12.031
41661W        W14086  23.099  43.964   1.353
41662W        W14087  11.133  13.058   0.482
41663W        W14088  23.058   6.578   0.309
41664W        W14089  31.191   4.424   3.253
41665W        W14090   8.380  36.321   1.549
41666W        W14091  36.292  40.494   2.226
41667W        W14092   7.473  21.067   4.551
41668W        W14093  41.554  16.854  12.345
41669W        W14094   3.863   9.819   0.425
41670W        W14095  21.601  21.581   4.730
41671W        W14096  41.584   4.403   4.439
41672W        W14097   8.683  29.112  13.196
41673W        W14098   3.315  31.379   0.265
41674W        W14099  13.353   2.457   1.280
41675W        W14100  17.779  19.276   4.635
41676W        W14101  32.146  17.603  13.388
41677W        W14102  18.488  42.391   2.352
41678W        W14103  30.473   6.003   1.240
41679W        W14104  17.510  28.340  11.011
41680W        W14105  40.229  43.268   0.925
41681W        W14106  25.709  17.615   3.381
41682W        W14107  40.342   2.547   2.524
41683W        W14108  38.919   6.790   0.080
41684W        W14109  29.954  31.337  14.078
41685W        W14110  26.715  36.087  12.783
41686W        W14111  13.812  23.234  14.098
41687W        W14112  42.691  18.800  11.541
41688W        W14113  38.436  44.630  13.000
41689W        W14114   0.453  14.633  11.792
41690W        W14115  38.373   3.303   4.955
41691W        W14116  29.837  33.344  14.227
41692W        W14117  30.902   7.331   2.052
41693W        W14118  37.549  41.323   0.761
41694W        W14119  28.971  13.567  14.845
41695W        W14120  30.217  39.326  13.208
41696W        W14121   7.597  35.879  11.473
41697W        W14122  40.804   7.292  14.905
41698W        W14123   9.967  14.833   4.943
41699W        W14124  14.619   4.834   9.691
41700W        W14125  42.360   0.927  13.844
41701W        W14126  24.948  14.085  11.316
41702W        W14127  20.528   4.697   0.206
41703W        W14128  34.965  42.806   2.226
41704W        W14129   2.688   0.556  11.096
41705W        W14130  29.993  25.597   4.101
41706W        W14131  26.436  20.602  10.688
41707W        W14132   0.850  29.149   3.208
41708W        W14133  15.274  37.872  14.519
41709W        W14134  28.494   7.339  13.775
41710W        W14135   8.738  37.083  12.641
41711W        W14136  30.214  25.216   2.158
41712W        W14137  23.481  31.353   4.675
41713W        W14138   7.423  16.022  13.418
41714W        W14139  12.112  37.484  10.709
41715W        W14140  14.292  11.249  13.960
41716W        W14141   0.454  12.648   1.984
41717W        W14142  17.270  43.180   3.897
41718W        W14143  14.336  18.707   4.617
41719W        W14144  27.280  12.070   0.743
41720W        W14145  13.071  33.357   0.433
41721W        W14146  36.231   1.956   9.929
41722W        W14147  35.391  41.418  14.711
41723W        W14148  39.633  33.950  12.490
41724W        W14149  38.348  44.351   2.612
41725W        W14150   9.179  12.069  10.535
41726W        W14151   8.001   1.112   3.009
41727W        W14152  17.313  19.847   1.830
41728W        W14153  39.618  13.964   2.274
41729W        W14154  37.146   7.015  10.807
41730W        W14155  19.145  43.135  11.711
41731W        W14156   0.152  11.802  12.951
41732W        W14157  20.705  35.536  10.590
41733W        W14158  10.528  37.482   3.708
41734W        W14159   2.538  38.773   0.647
41735W        W14160  34.918   2.725  13.479
41736W        W14161   0.942  12.013   1.944
41737W        W14162   1.163   1.274   3.039
41738W        W14163  39.617  29.827  13.355
41739W        W14164  11.287   5.651  12.855
41740W        W14165  37.962  39.993  14.098
41741W        W14166  39.809  14.904   4.151
41742W        W14167  42.421   1.676  14.901
41743W        W14168  13.926  16.317  11.090
41744W        W14169   6.249  34.610   4.275
41745W        W14170  10.229  16.738   3.454
41746W        W14171  30.502  26.878   3.881
41747W        W14172  34.340  15.230  14.430
41748W        W14173  21.605  36.455  13.094
41749W        W14174  26.208  26.207  13.834
41750W        W14175  13.691  19.738  13.093
41751W        W14176  28.863  19.131   0.971
41752W        W14177  36.453  20.229  13.581
41753W        W14178   0.911  28.608  13.467
41754W        W14179  15.386  33.917  11.039
41755W        W14180  31.613  34.065  10.660
41756W        W14181  20.767  43.409  13.867
41757W        W14182  26.950  43.943   3.288
41758W        W14183  41.445  23.611  13.088
41759W        W14184   6.018   4.752  11.087
41760W        W14185  28.621  32.984   0.780
41761W        W14186  42.505  11.352  13.967
41762W        W14187   6.736  44.731  12.979
41763W        W14188  25.632  38.347   2.794
41764W        W14189  21.832   7.170   5.089
41765W        W14190  12.579  33.941   4.338
41766W        W14191   6.968  31.655  10.638
41767W        W14192  21.562   1.478   3.216
41768W        W14193  36.406  13.062  14.937
41769W        W14194  36.157   1.115  14.766
41770W        W14195   2.737  16.786  11.053
41771W        W14196  23.429  28.872  11.640
41772W        W14197   6.749  27.464  13.125
41773W        W14198  22.240  16.281   1.765
41774W        W14199  30.640  34.352  11.882
41775W        W14200  38.131  40.303   3.866
41776W        W14201  34.572   3.714   1.263
41777W        W14202  15.502   5.881  12.537
41778W        W14203   4.178  42.548   0.932
41779W        W14204  25.267  10.707   0.704
41780W        W14205  22.713   1.690   1.852
41781W        W14206  39.542  19.367  10.867
41782W        W14207   1.513   5.727   0.492
41783W        W14208  43.484   6.447  12.376
41784W        W14209  16.321  37.838   0.295
41785W        W14210  26.275   2.738  12.452
41786W        W14211  39.504  34.068  10.329
41787W        W14212  22.644  26.681   3.091
41788W        W14213  14.293  33.664  11.695
41789W        W14214  44.967   2.437   3.938
41790W        W14215  39.310  15.200   3.604
41791W        W14216  30.698  23.124  10.731
41792W        W14217  18.145  13.507  13.859
41793W        W14218  22.240  16.245   2.671
41794W        W14219  15.659  17.607   2.565
41795W        W14220  20.460  36.505   0.903
41796W        W14221  18.023  28.809  13.887
41797W        W14222  43.833   0.857  14.312
41798W        W14223  16.880   7.494   4.092
41799W        W14224  11.382  27.997   5.223
41800W        W14225  16.540  16.841  14.029
41801W        W14226  23.164  31.302   3.247
41802W        W14227   6.687  26.750   0.956
41803W        W14228   9.197   5.710  13.412
41804W        W14229  27.103  25.284   2.295
41805W        W14230  31.400  38.529  14.377
41806W        W14231  22.545   5.635  14.267
41807W        W14232  44.585  27.169  12.472
41808W        W14233  17.057   9.672   0.795
41809W        W14234  10.920   6.194   1.000
41810W        W14235  20.694  24.578   1.293
41811W        W14236   8.938   3.429  11.925
41812W        W14237   2.261  34.123   4.348
41813W        W14238  39.714  32.656  13.025
41814W        W14239  28.984  32.444   4.636
41815W        W14240  15.654  26.994   4.590
41816W        W14241   9.009  10.418  10.947
41817W        W14242   7.957  25.643   3.205
41818W        W14243  40.804  23.267  12.546
41819W        W14244  23.565  35.748  13.742
41820W        W14245  33.368  20.077   4.536
41821W        W14246   9.113  25.122   4.652
41822W        W14247  23.763  32.789   0.313
41823W        W14248   5.894   2.797   1.341
41824W        W14249  38.350  17.233  11.850
41825W        W14250  23.738  11.648  12.532
41826W        W14251  17.344  19.940   2.731
41827W        W14252  17.168   8.350   3.882
41828W        W14253   6.624  34.770  14.371
41829W        W14254  44.432  44.805   1.951
41830W        W14255  36.542  25.318  10.042
41831W        W14256   0.983  33.906   1.342
41832W        W14257  14.794  36.047  14.698
41833W        W14258  33.614   2.746  11.128
41834W        W14259   7.426  14.310  12.885
41835W        W14260  24.013  11.798   2.827
41836W        W14261  27.364   7.896   3.981
41837W        W14262  19.703  30.524   9.875
41838W        W14263  22.411  16.918  13.099
41839W        W14264  37.772  16.626  13.967
41840W        W14265  33.872   0.032  14.240
41841W        W14266   3.122  24.763  11.013
41842W        W14267  44.862  26.141   3.909
41843W        W14268  30.958  37.005   3.240
41844W        W14269  16.210  11.531   1.705
41845W        W14270  14.186  13.618   1.368
41846W        W14271  32.815   2.963   3.404
41847W        W14272  30.348  24.207  11.937
41848W        W14273   4.884  23.738  13.492
41849W        W14274  18.080  26.742   1.755
41850W        W14275  10.700  44.582   2.236
41851W        W14276  34.193   4.247  14.007
41852W        W14277  29.413  35.986   0.900
41853W        W14278  11.611  19.492   0.332
41854W        W14279  21.804  39.018  13.107
41855W        W14280  21.901  22.446  10.207
41856W        W14281   2.842  11.646   1.915
41857W        W14282  35.440  23.000  10.733
41858W        W14283  28.691  29.884  13.267
41859W        W14284  18.585   1.254   4.502
41860W        W14285  12.882  30.003   3.411
41861W        W14286  13.638  29.894  14.922
41862W        W14287  44.822  19.129  12.113
41863W        W14288   0.055  22.355  11.887
41864W        W14289  38.605   1.709   0.692
41865W        W14290   0.396   9.460   1.936
41866W        W14291  18.456  39.455   0.638
41867W        W14292  35.987  42.932   0.304
41868W        W14293  44.906   9.647  14.336
41869W        W14294  14.933   4.345  14.527
41870W        W14295   3.406  18.060  11.028
41871W        W14296  28.064   2.296   5.039
41872W        W14297  33.636   6.609   0.890
41873W        W14298  27.152   5.993  13.346
41874W        W14299  15.549  28.430  12.474
41875W        W14300  25.494  39.778  14.554
41876W        W14301  17.572   3.885  12.061
41877W        W14302  12.742  17.294  13.581
41878W        W14303  24.097   3.822   4.732
41879W        W14304  44.266   4.463  13.267
41880W        W14305  25.173  18.217   0.902
41881W        W14306  13.968  25.142  14.820
41882W        W14307  32.934  22.621   3.533
41883W        W14308  35.409   3.008  13.562
41884W        W14309  15.645   9.339  13.959
41885W        W14310  14.211  41.515  14.559
41886W        W14311  10.766  18.110  13.004
41887W        W14312  42.470  14.795  12.494
41888W        W14313  35.830   9.295  12.857
41889W        W14314  10.352  44.222  13.472
41890W        W14315  44.448  12.861   0.585
41891W        W14316  35.380  33.143  14.838
41892W        W14317  44.889  38.178  12.055
41893W        W14318  31.132  10.923  14.987
41894W        W14319  23.693  29.493  12.606
41895W        W14320   9.816   7.940   5.215
41896W        W14321  32.860  20.051  13.785
41897W        W14322  35.822  31.352   0.286
41898W        W14323  30.116  18.909  10.661
41899W        W14324  16.706  36.662   3.845
41900W        W14325   8.265  43.291   4.946
41901W        W14326  17.738  17.319   4.722
41902W        W14327  16.524  14.635  14.931
41903W        W14328  38.154  27.168  14.312
41904W        W14329  34.698   9.399  14.687
41905W        W14330  40.326   2.221  14.149
41906W        W14331  16.626  44.544   2.707
41907W        W14332  12.281  24.624   4.494
41908W        W14333  41.776  14.612   0.739
41909W        W14334  35.850  27.656   3.077
41910W        W14335  34.583  41.048  14.783
41911W        W14336  18.432  33.028   5.039
41912W        W14337  30.553   0.622  14.008
41913W        W14338  40.262  41.630   1.405
41914W        W14339  39.121   9.103  11.476
41915W        W14340  33.512  19.727   3.752
41916W        W14341  30.383   4.771   1.269
41917W        W14342  25.906   5.165   0.294
41918W        W14343   6.506  44.945  14.435
41919W        W14344  39.473  39.118   0.295
41920W        W14345  21.865  35.106  12.042
41921W        W14346  26.328   8.794   4.205
41922W        W14347  12.353  26.023  12.078
41923W        W14348   5.474   5.694  10.572
41924W        W14349  41.307   6.144  12.570
41925W        W14350  21.014  29.705   4.522
41926W        W14351  24.769  14.202   4.136
41927W        W14352   0.379  23.668  12.512
41928W        W14353  19.048  32.466  10.679
41929W        W14354  38.853  14.854   3.265
41930W        W14355  14.057  20.290   3.158
41931W        W14356  21.054  13.703   0.985
41932W        W14357  13.225  19.812   3.414
41933W        W14358  17.798   4.866  14.789
41934W        W14359   6.390   2.774  12.128
41935W        W14360  30.873  38.934   3.707
41936W        W14361  15.484   5.332   4.179
41937W        W14362  43.001  11.875   2.723
41938W        W14363  17.185  18.075  13.448
41939W        W14364  13.167  22.503   2.690
41940W        W14365  25.442  38.925  11.593
41941W        W14366  43.779   3.562  10.540
41942W        W14367  26.602   1.257  11.627
41943W        W14368  44.939   4.665   4.363
41944W        W14369  35.883  32.382  12.900
41945W        W14370  42.286  17.577  12.049
41946W        W14371   1.045  19.083   3.134
41947W        W14372  21.522  15.349   1.069
41948W        W14373  35.359  35.379  10.982
41949W        W14374   9.315  29.989  14.294
41950W        W14375  39.586  32.120  12.380
41951W        W14376  16.893  32.707   3.786
41952W        W14377  44.932  37.101   4.154
41953W        W14378  24.978  27.736   3.619
41954W        W14379   8.232   6.401   2.091
41955W        W14380   5.681   1.695  14.371
41956W        W14381  39.782   6.700  12.119
41957W        W14382  16.619  13.236  14.716
41958W        W14383  28.254  30.138   1.861
41959W        W14384   1.883   4.881   1.198
41960W        W14385  41.451  30.667  13.046
41961W        W14386  10.817  35.078   3.925
41962W        W14387  19.182  31.454   2.311
41963W        W14388  44.530  36.157  13.105
41964W        W14389  17.492  32.104  11.846
41965W        W14390  25.436  37.065  11.586
41966W        W14391  43.457  14.248  14.118
41967W        W14392  22.688   4.244  13.937
41968W        W14393   8.739  12.696  14.363
41969W        W14394  40.300  37.569  14.935
41970W        W14395   2.120  39.420   4.002
41971W        W14396  23.588  25.987   4.638
41972W        W14397  25.555  20.235  13.776
41973W        W14398   0.449  16.766   2.208
41974W        W14399  18.997  32.398   2.381
41975W        W14400   6.622  30.524  13.036
41976W        W14401  16.007  18.186  14.091
41977W        W14402  19.253  31.377   0.828
41978W        W14403  44.810  33.467   1.282
41979W        W14404  42.252  40.379  10.679
41980W        W14405  30.543  38.996   2.353
41981W        W14406  17.153  37.609   1.870
41982W        W14407  41.876  20.680   3.722
41983W        W14408   6.145  33.942  14.845
41984W        W14409  31.326  11.633  12.888
41985W        W14410   0.768  34.536  10.484
41986W        W14411  12.943  36.144  14.006
41987W        W14412  23.149  20.286  13.835
41988W        W14413  28.138  17.084   2.771
41989W        W14414  29.033  33.343   3.653
41990W        W14415   2.775  33.349   0.406
41991W        W14416  39.965  43.312  10.720
41992W        W14417   8.893  27.581   2.676
41993W        W14418  29.305  28.961  14.380
41994W        W14419  22.252  23.417  11.166
41995W        W14420  14.279  33.668   0.084
41996W        W14421  18.530  18.157  10.670
41997W        W14422  15.549  23.676  11.998
41998W        W14423  10.791   7.312   2.079
41999W        W14424   6.726  41.335  10.560
42000W        W14425  22.021  34.507   2.597
42001W        W14426  42.603  25.010   3.174
42002W        W14427  11.568   6.656  11.447
42003W        W14428   9.876  35.172  14.974
42004W        W14429  34.069  17.113   0.544
42005W        W14430   3.142  17.227  11.517
42006W        W14431  34.917  29.016  12.135
42007W        W14432  20.701  35.507   4.658
42008W        W14433  38.060  31.107  14.042
42009W        W14434  43.888  23.786   1.869
42010W        W14435  37.888  22.816   9.796
42011W        W14436  28.200  28.252   4.100
42012W        W14437  25.656  33.594  12.616
42013W        W14438  43.102   3.899  11.584
42014W        W14439  37.995   5.369  13.742
42015W        W14440  13.149  38.148   3.680
42016W        W14441  11.641   5.896  13.415
42017W        W14442   4.957  26.052   3.173
42018W        W14443  43.464  19.624   1.822
42019W        W14444  35.234  34.138   0.055
42020W        W14445  10.384   1.817  12.468
42021W        W14446  40.788  27.502   2.739
42022W        W14447  26.493  43.770  14.902
42023W        W14448  38.163   1.759   2.171
42024W        W14449   6.683   3.724   1.262
42025W        W14450  33.042  30.488   0.330
42026W        W14451  23.545   2.328   0.413
42027W        W14452  37.445  10.954   0.814
42028W        W14453  41.920  32.874  12.935
42029W        W14454   9.775   8.811  12.520
42030W        W14455  13.695  15.594  11.559
42031W        W14456   1.177   3.776  10.920
42032W        W14457  44.892   6.320  14.978
42033W        W14458  16.169  41.933   3.239
42034W        W14459  39.068  35.126   4.155
42035W        W14460  30.037  17.620  14.555
42036W        W14461  39.575  36.059  13.462
42037W        W14462  40.066  12.722  13.314
42038W        W14463   6.806  39.927   1.207
42039W        W14464  30.028   0.024   4.867
42040W        W14465  40.327  17.146  10.488
42041W        W14466  28.630   7.955  12.422
42042W        W14467  32.220   7.833   4.140
42043W        W14468  41.469  44.406  13.777
42044W        W14469  23.331  38.535  11.060
42045W        W14470  28.996   3.720  11.622
42046W        W14471  12.157  15.543  14.920
42047W        W14472  42.588   9.285   2.230
42048W        W14473  19.635   9.259   2.654
42049W        W14474  18.814  25.192   4.682
42050W        W14475  27.740   7.862   0.332
42051W        W14476  33.118   1.973  13.944
42052W        W14477  31.014  20.203   3.372
42053W        W14478   5.322  29.950  13.384
42054W        W14479  41.406  39.369   1.708
42055W        W14480  41.951  26.927  13.016
42056W        W14481  29.155  24.224  13.494
42057W        W14482  11.288   8.158  13.438
42058W        W14483  13.127   4.786   2.043
42059W        W14484  35.482  24.771   0.833
42060W        W14485  10.652   0.456   1.248
42061W        W14486  22.643  16.328  12.501
42062W        W14487  12.705  20.264  12.468
42063W        W14488   1.283   4.318   0.244
42064W        W14489  43.356  14.938  13.352
42065W        W14490   4.983   3.309   4.168
42066W        W14491  14.341  34.135  13.297
42067W        W14492  36.951  13.147  14.239
42068W        W14493   5.176  21.537   4.790
42069W        W14494  36.431  35.831  12.876
42070W        W14495  39.620   4.801  10.795
42071W        W14496   8.651  16.989   5.006
42072W        W14497  12.781  20.154  14.940
42073W        W14498   4.889   2.393   3.139
42074W        W14499  25.607  17.185  10.773
42075W        W14500  36.934  17.599   3.597
42076W        W14501  44.450  30.554  12.904
42077W        W14502  24.642  37.384  10.656
42078W        W14503   4.006  35.971   1.081
42079W        W14504  17.785  23.972  10.588
42080W        W14505  27.235   4.064  11.180
42081W        W14506  37.623   4.227   3.097
42082W        W14507   2.990  28.065   1.732
42083W        W14508  28.987  16.281  12.898
42084W        W14509  20.770   0.441  12.397
42085W        W14510  41.923  31.130  12.440
42086W        W14511  44.613  34.174  13.579
42087W        W14512   3.773  16.164  11.265
42088W        W14513  40.762  16.067   1.287
42089W        W14514   1.223  21.716   2.815
42090W        W14515  30.645  30.103   3.585
42091W        W14516  40.773   5.987  13.543
42092W        W14517  38.106   4.232   3.272
42093W        W14518  43.013  41.565  11.929
42094W        W14519  11.797  26.160  12.033
42095W        W14520   5.747  39.052   2.199
42096W        W14521  16.151  11.844  10.909
42097W        W14522  35.434  21.871  13.772
42098W        W14523   4.985   9.623   2.551
42099W        W14524  39.206  32.875   2.109
42100W        W14525  39.640  40.272  14.386
42101W        W14526  30.548  39.507  14.530
42102W        W14527  40.402  42.255  12.412
42103W        W14528  31.968  11.219  12.541
42104W        W14529  28.966  34.601   4.418
42105W        W14530  23.861  14.795   2.262
42106W        W14531  19.763  41.380   2.950
42107W        W14532  14.680  11.006  12.197
42108W        W14533  24.911  29.839   1.776
42109W        W14534  18.600  41.738   4.156
42110W        W14535   3.187   0.521  12.344
42111W        W14536  27.390   8.180   3.548
42112W        W14537  23.239   4.223   1.465
42113W        W14538   3.969  35.656  11.463
42114W        W14539  33.234  36.498   4.639
42115W        W14540  29.898  37.565   4.083
42116W        W14541  37.548  12.643   1.308
42117W        W14542  30.396  37.973  13.770
42118W        W14543   0.297  18.716   3.502
42119W        W14544  12.867  33.878   2.235
42120W        W14545  33.169  36.944  13.136
42121W        W14546  32.139  26.602   1.813
42122W        W14547   1.024  38.611   3.190
42123W        W14548  36.074   6.939   4.827
42124W        W14549  28.075  23.477  11.093
42125W        W14550  40.413   1.316  14.635
42126W        W14551  27.514  10.682  14.203
42127W        W14552   8.334  42.746   0.788
42128W        W14553  40.990  38.079  14.480
42129W        W14554   6.904  19.287  12.116
42130W        W14555  17.625  15.263   4.189
42131W        W14556  24.628  20.201   1.764
42132W        W14557   4.860  27.918   3.801
42133W        W14558  35.891  37.770   0.019
42134W        W14559  39.279  15.881  12.060
42135W        W14560  38.265   7.968   3.682
42136W        W14561  21.543  25.952  11.197
42137W        W14562  32.470  44.352  13.577
42138W        W14563  37.073   2.473   2.164
42139W        W14564   6.358  10.675   1.711
42140W        W14565  23.669   6.144  11.234
42141W        W14566  43.772  25.335   3.670
42142W        W14567  13.054  41.906  11.553
42143W        W14568  20.757  28.400   2.760
42144W        W14569  36.732  22.040   1.262
42145W        W14570  27.969  21.272  10.398
42146W        W14571  17.271  21.294  14.211
42147W        W14572  42.244  20.173   1.423
42148W        W14573   9.266   0.467  10.607
42149W        W14574  27.884  44.561  10.486
42150W        W14575  21.685  29.797   3.738
42151W        W14576  22.591  43.258   4.424
42152W        W14577  15.274  39.945  14.451
42153W        W14578  33.017  14.644  12.701
42154W        W14579   3.989  16.658   0.944
42155W        W14580  16.599  22.851  13.508
42156W        W14581   5.981  37.378  12.901
42157W        W14582  22.315   3.353   3.697
42158W        W14583  29.352  21.643   4.022
42159W        W14584  31.112  44.257   0.748
42160W        W14585  23.796  22.208  11.392
42161W        W14586   5.704  12.599  12.916
42162W        W14587  23.609  33.621   1.404
42163W        W14588  23.301  31.641   2.662
42164W        W14589   0.426   0.474   3.176
42165W        W14590  22.496  42.897   5.165
42166W        W14591  30.461   5.733  10.654
42167W        W14592  20.104  13.994  13.380
42168W        W14593  41.916  34.872  14.733
42169W        W14594  33.002  22.690   4.553
42170W        W14595  38.976  27.058   0.433
42171W        W14596  35.043  17.402  13.980
42172W        W14597  10.308  23.516  10.683
42173W        W14598  26.205  41.755  10.728
42174W        W14599   0.969  44.451   3.763
42175W        W14600   8.997  25.753   1.759
42176W        W14601   1.445  38.814   4.590
42177W        W14602   7.509  35.096   5.430
42178W        W14603   0.488  30.112  13.141
42179W        W14604  26.679   1.387   3.656
42180W        W14605  27.018  27.744  13.241
42181W        W14606  17.290  23.236  11.617
42182W        W14607   0.095  39.703  11.983
42183W        W14608   0.529  12.134  10.819
42184W        W14609  24.963  13.434  13.390
42185W        W14610  11.624  23.133  12.602
42186W        W14611  43.259  34.580  11.669
42187W        W14612  41.038  10.418   0.850
42188W        W14613   0.995  19.385  14.379
42189W        W14614  39.803  32.918   2.135
42190W        W14615  32.652  38.013  12.617
42191W        W14616  18.332  22.250   0.416
42192W        W14617  30.874  23.596  10.507
42193W        W14618   6.961   6.771   0.269
42194W        W14619  18.316   3.873  11.504
42195W        W14620   0.954  20.504   0.999
42196W        W14621   9.366   9.623  14.471
42197W        W14622  26.865  44.317  14.087
42198W        W14623   1.621  21.107  11.133
42199W        W14624  12.658  17.004   0.916
42200W        W14625  19.950  20.332  11.055
42201W        W14626  35.338   9.046   1.757
42202W        W14627  13.148  14.667  10.673
42203W        W14628  15.114   4.426   1.018
42204W        W14629   6.385  11.584  13.520
42205W        W14630  15.831  42.355  13.953
42206W        W14631  44.979  24.770  13.904
42207W        W14632   0.907  43.445   2.769
42208W        W14633  32.015  14.867   0.297
42209W        W14634  19.518  41.940   4.350
42210W        W14635  30.002  28.365   4.328
42211W        W14636  27.590  13.110  11.462
42212W        W14637  33.563  34.632  13.063
42213W        W14638  14.154  12.618   1.320
42214W        W14639   6.260  30.939   4.427
42215W        W14640   2.333  20.760   3.760
42216W        W14641  16.199  42.298   2.011
42217W        W14642  40.850  20.286   2.183
42218W        W14643  18.627  11.619   2.173
42219W        W14644   9.286  11.886  13.887
42220W        W14645   3.789  12.237   4.577
42221W        W14646  21.213   2.408   0.418
42222W        W14647   1.798  19.688  14.411
42223W        W14648  19.656  32.540   5.471
42224W        W14649   3.464  33.844   3.412
42225W        W14650  18.027   5.138   3.564
42226W        W14651   1.297  10.206  14.043
42227W        W14652   7.457   4.759   3.060
42228W        W14653  32.147  42.124   3.750
42229W        W14654  24.226   6.248  11.991
42230W        W14655  12.298   6.496  13.936
42231W        W14656   7.315  23.973   1.682
42232W        W14657  30.474  27.543   3.107
42233W        W14658  38.608  40.942   2.197
42234W        W14659  11.637   3.980  11.998
42235W        W14660  10.667  43.352   1.304
42236W        W14661   9.342  36.465   0.925
42237W        W14662  29.516  22.573  13.828
42238W        W14663  26.631   1.020  13.938
42239W        W14664  11.158  34.443   0.181
42240W        W14665  34.087  43.863  13.518
42241W        W14666  10.505  19.606   4.180
42242W        W14667   0.919  13.841  11.976
42243W        W14668  43.285   1.001   2.168
42244W        W14669  44.863   2.893  12.083
42245W        W14670  33.596  13.548   2.629
42246W        W14671  44.357  10.722  10.495
42247W        W14672  41.366  37.388  12.901
42248W        W14673  11.796  28.454  11.003
42249W        W14674  17.223  12.161  12.367
42250W        W14675  42.468  29.885   2.019
42251W        W14676  36.669  32.941  13.801
42252W        W14677  33.689  34.728  14.268
42253W        W14678  10.322  18.442  11.635
42254W        W14679  23.978  22.419   0.039
42255W        W14680   3.411  26.940  14.868
42256W        W14681  37.432  37.837   0.838
42257W        W14682  42.936   2.566   2.671
42258W        W14683   6.439  43.937  11.930
42259W        W14684   3.455  23.039   4.612
42260W        W14685  43.021  29.889  13.764
42261W        W14686   0.862   2.647  12.352
42262W        W14687  13.222  12.156  12.868
42263W        W14688  15.983  30.649   3.817
42264W        W14689  42.718   2.302   0.881
42265W        W14690  19.636  19.221   3.010
42266W        W14691  44.627  36.366   2.432
42267W        W14692  29.306  18.026  13.544
42268W        W14693  15.530  35.506   4.901
42269W        W14694  39.408  43.510   1.304
42270W        W14695  33.198  31.152   3.367
42271W        W14696  32.480  12.051  14.232
42272W        W14697   4.342   7.202   2.982
42273W        W14698  40.945  22.455  13.417
42274W        W14699   9.577  40.018  12.984
42275W        W14700  43.057   9.768   4.137
42276W        W14701   8.165   8.916  13.951
42277W        W14702   4.005  16.592  11.502
42278W        W14703  20.579  15.777   2.916
42279W        W14704  26.652  25.503  12.088
42280W        W14705  31.608  20.529  13.648
42281W        W14706  41.246  11.256   2.342
42282W        W14707  12.378  43.006   2.017
42283W        W14708  37.943  22.647  13.162
42284W        W14709  12.965  26.252   2.810
42285W        W14710  31.087  42.611  13.900
42286W        W14711  43.706  30.141   2.141
42287W        W14712  29.038  44.057   3.283
42288W        W14713   8.241  25.686   4.512
42289W        W14714   7.209  34.746  12.440
42290W        W14715  11.953  44.347  10.050
42291W        W14716  44.256   0.337  11.899
42292W        W14717  14.903   4.856   3.977
42293W        W14718  19.171  12.353   4.404
42294W        W14719  14.840   8.648   2.931
42295W        W14720  24.099  13.754  12.062
42296W        W14721  27.899  44.528   5.119
42297W        W14722   7.439  26.448  11.188
42298W        W14723  18.854  20.244   3.487
42299W        W14724  28.279  14.988  12.827
42300W        W14725  35.350  43.236  11.629
42301W        W14726  22.049  21.054  11.096
42302W        W14727  35.480  25.459  13.882
42303W        W14728  32.877  30.395  13.296
42304W        W14729  25.582  20.614  12.522
42305W        W14730  27.715  17.529   1.365
42306W        W14731  40.918  19.819   0.374
42307W        W14732  30.367  19.153   1.428
42308W        W14733  20.826   5.888   0.332
42309W        W14734  38.394  43.876   2.817
42310W        W14735   2.341  31.017   1.767
42311W        W14736  30.489  41.873  13.810
42312W        W14737  25.062   7.891  13.552
42313W        W14738  15.864  39.433  10.755
42314W        W14739  34.884  42.364   2.472
42315W        W14740  11.897   4.767  14.293
42316W        W14741  11.013   8.325   5.521
42317W        W14742  30.969  16.154  14.851
42318W        W14743  25.671  12.931  11.186
42319W        W14744  19.238  13.171  11.603
42320W        W14745  12.853  13.735   4.550
42321W        W14746   7.750  34.795   0.972
42322W        W14747  19.246  37.552  14.656
42323W        W14748  43.854   7.335   2.780
42324W        W14749  21.958   4.440   2.752
42325W        W14750  21.224  19.287  14.711
42326W        W14751  31.530  10.758  14.315
42327W        W14752  29.941  22.299  13.991
42328W        W14753   5.206  17.084  11.395
42329W        W14754   8.560  37.487   2.757
42330W        W14755  32.473  11.604  13.404
42331W        W14756  21.274  16.727  10.644
42332W        W14757  31.952   2.751  13.906
42333W        W14758   5.224   9.518   3.818
42334W        W14759  31.665  27.143   0.107
42335W        W14760   6.387  35.942  14.516
42336W        W14761  25.218  33.661  13.398
42337W        W14762  34.450  10.011   4.761
42338W        W14763  17.360  19.697  10.125
42339W        W14764   9.215  23.625  14.885
42340W        W14765  15.058  37.443  11.137
42341W        W14766   6.805  34.570   0.810
42342W        W14767  11.957  19.657   0.753
42343W        W14768  41.670  41.999  11.981
42344W        W14769  43.908  31.725   0.575
42345W        W14770  12.908  24.138   0.930
42346W        W14771  23.725  20.096   0.611
42347W        W14772  34.133  24.403   1.468
42348W        W14773  41.280  17.254  10.708
42349W        W14774  18.900  24.018   1.215
42350W        W14775  24.123  21.875  13.887
42351W        W14776  13.341  20.736   0.436
42352W        W14777  41.336   3.353   1.247
42353W        W14778  20.558  28.386   1.459
42354W        W14779  42.770   0.975  11.501
42355W        W14780  41.999  12.996  14.349
42356W        W14781  33.659  24.519   1.325
42357W        W14782   8.593  21.307   4.244
42358W        W14783  15.742  26.556   4.173
42359W        W14784  33.979  28.370  14.351
42360W        W14785  19.592  17.094  13.594
42361W        W14786  23.723   9.461   2.936
42362W        W14787  41.012  31.555   3.233
42363W        W14788  11.021  32.563  10.725
42364W        W14789  18.280   2.064   4.740
42365W        W14790  17.251  44.084   4.209
42366W        W14791   3.512  21.641   1.711
42367W        W14792  43.240  18.132  11.000
42368W        W14793  27.945  40.392   3.645
42369W        W14794  38.100  31.529  12.814
42370W        W14795  36.193   6.828   1.928
42371W        W14796  25.040   4.253  12.415
42372W        W14797   0.313  41.489  10.749
42373W        W14798  18.712  24.961   2.279
42374W        W14799  16.285  23.433  11.734
42375W        W14800  17.717  28.165   0.763
42376W        W14801   8.864  16.590   4.530
42377W        W14802  36.483  19.833  11.688
42378W        W14803   8.958  33.104   3.297
42379W        W14804  11.752  28.731   3.404
42380W        W14805   4.692  43.250  12.586
42381W        W14806  11.190  27.066   1.181
42382W        W14807  22.942  19.138  13.049
42383W        W14808   8.760   7.578  14.569
42384W        W14809  34.450  16.394  10.646
42385W        W14810  18.206  38.871  13.403
42386W        W14811   5.149   2.001  11.639
42387W        W14812  15.291  11.325   0.148
42388W        W14813  23.942  13.277   2.326
42389W        W14814   1.955  16.673  11.512
42390W        W14815   1.327  38.670  11.150
42391W        W14816   0.706  30.530  13.433
42392W        W14817  31.985  26.726   2.313
42393W        W14818  37.991  14.352  13.991
42394W        W14819  38.931  24.971   0.764
42395W        W14820  33.391  38.018   0.032
42396W        W14821  16.003   3.081   2.844
42397W        W14822  43.700  20.150  11.393
42398W        W14823  25.264  31.701   2.717
42399W        W14824  28.600   8.892  10.651
42400W        W14825  27.649   0.290  13.235
42401W        W14826  22.042  10.221   1.504
42402W        W14827  20.991  39.039  10.359
42403W        W14828  41.273   5.758  12.934
42404W        W14829  17.758   3.263   4.363
42405W        W14830  34.158  43.551  11.886
42406W        W14831  43.473  39.599  14.018
42407W        W14832  32.687  32.008   1.929
42408W        W14833  20.211  34.922   2.332
42409W        W14834  26.130  14.223   3.680
42410W        W14835  26.417  15.877   4.132
42411W        W14836  20.302  24.776   0.892
42412W        W14837   4.687   6.562   5.091
42413W        W14838   0.902   6.824  14.514
42414W        W14839  43.980  13.674   1.843
42415W        W14840  10.349  15.234  10.700
42416W        W14841  41.576  23.567  10.668
42417W        W14842  17.421  26.074  12.173
42418W        W14843  11.095   8.419  13.844
42419W        W14844  37.583  14.553  14.756
42420W        W14845  36.432  10.876  10.833
42421W        W14846  18.189  13.152   1.000
42422W        W14847   0.275  30.188  13.579
42423W        W14848  42.885  39.104   3.440
42424W        W14849  26.976  34.587  13.411
42425W        W14850  33.550   4.422   2.784
42426W        W14851  35.015  34.156   3.226
42427W        W14852  13.858  30.111  10.712
42428W        W14853  12.200  28.953  12.368
42429W        W14854  28.190   3.980  13.429
42430W        W14855  41.256   4.192  11.044
42431W        W14856   6.967  41.420   1.663
42432W        W14857  26.689   4.332  12.006
42433W        W14858  37.072  22.732   4.241
42434W        W14859  22.156  30.178   3.412
42435W        W14860   4.247  34.693   2.359
42436W        W14861   4.692  12.873  13.964
42437W        W14862  44.794  11.759  10.869
42438W        W14863   6.903  39.474   3.923
42439W        W14864  18.827  39.045  10.805
42440W        W14865  19.619  43.679   3.126
42441W        W14866  11.442  15.676  13.259
42442W        W14867  29.157  20.311  12.294
42443W        W14868  38.403   9.662   3.368
42444W        W14869   6.397  43.493  12.923
42445W        W14870  37.592  37.432  14.894
42446W        W14871  33.119   9.172  14.826
42447W        W14872  13.713  22.543   4.531
42448W        W14873  36.530  12.485   1.883
42449W        W14874  13.209   5.790   1.199
42450W        W14875   7.152  41.728   2.303
42451W        W14876  15.371   9.259   1.303
42452W        W14877  44.181  25.649   0.338
42453W        W14878  24.129  20.267  14.422
42454W        W14879  16.382  34.944  13.424
42455W        W14880  30.157   9.917   2.660
42456W        W14881  25.168  13.142  11.203
42457W        W14882  16.298  30.698   4.195
42458W        W14883  38.899   0.470  11.025
42459W        W14884   1.411  17.903  14.537
42460W        W14885  40.432  39.536  10.549
42461W        W14886  39.171  34.401  14.908
42462W        W14887  22.732  30.134  11.980
42463W        W14888  37.588  12.951   3.226
42464W        W14889   9.311  19.001   0.514
42465W        W14890   1.474  10.204  14.564
42466W        W14891  34.173  14.016   3.834
42467W        W14892   4.078  15.357  11.376
42468W        W14893  28.538  24.314  13.296
42469W        W14894  34.236  44.513  11.688
42470W        W14895  39.737  29.072   3.567
42471W        W14896  15.321  38.221  10.810
42472W        W14897  36.102  14.147   4.568
42473W        W14898  31.455  43.055   1.823
42474W        W14899   4.796  41.596   3.645
42475W        W14900  14.193   7.773  14.426
42476W        W14901  10.194  20.531   4.644
42477W        W14902  15.941  26.618   3.050
42478W        W14903  32.908   0.281   0.501
42479W        W14904  16.382  27.359  12.911
42480W        W14905  28.247  11.938   1.892
42481W        W14906  22.811  27.781  13.019
42482W        W14907  14.329   0.329  11.379
42483W        W14908  44.676  14.206   0.658
42484W        W14909  38.641  14.202  14.759
42485W        W14910  14.013   7.368   1.896
42486W        W14911  17.058  15.598   1.778
42487W        W14912  12.332  36.942   0.380
42488W        W14913  24.540   1.743  12.901
42489W        W14914  18.628  11.931  14.329
42490W        W14915  15.140  36.452  10.719
42491W        W14916   5.652  37.433   3.880
42492W        W14917  42.009  22.126   0.785
42493W        W14918  32.138   6.790   1.861
42494W        W14919  33.260   3.113   2.670
42495W        W14920  16.777  23.598   2.906
42496W        W14921  20.075  27.246  14.929
42497W        W14922   6.040  31.459   1.275
42498W        W14923   4.824   6.288   1.931
42499W        W14924  24.015  27.005  10.582
42500W        W14925  15.220  44.999  11.562
42501W        W14926  34.868  30.628  13.495
42502W        W14927  15.060  27.372  12.046
42503W        W14928  18.646   0.997  13.810
42504W        W14929   8.911   9.724   4.840
42505W        W14930  41.946  36.839  13.376
42506W        W14931  17.521   7.805  14.534
42507W        W14932  38.428  32.117  14.515
42508W        W14933  30.930   3.206   0.035
42509W        W14934  13.756  39.545  12.445
42510W        W14935  14.578   1.243  11.527
42511W        W14936  12.211  18.710  12.031
42512W        W14937  20.946  22.148   3.268
42513W        W14938  18.511  42.694   2.769
42514W        W14939   2.257  33.689   3.539
42515W        W14940  32.374  21.635  12.092
42516W        W14941  10.367  23.331   0.397
42517W        W14942  39.385  41.088  12.531
42518W        W14943  19.020   1.323   5.324
42519W        W14944  44.370  26.238   4.168
42520W        W14945  26.692  10.262  12.375
42521W        W14946  10.162  20.460   0.828
42522W        W14947   9.928   3.406   3.165
42523W        W14948  11.146  38.299  13.940
42524W        W14949  35.700  36.600   3.722
42525W        W14950  33.519  33.617  11.015
42526W        W14951  32.892  17.256  10.710
42527W        W14952  21.574  19.334  12.901
42528W        W14953   6.396  24.069   2.339
42529W        W14954  40.631   7.125   4.088
42530W        W14955  16.908  26.126   4.317
42531W        W14956  42.489  13.894  12.817
42532W        W14957  28.952  10.795   2.054
42533W        W14958  23.385  22.760   0.721
42534W        W14959   5.908  28.068  10.709
42535W        W14960  40.052   3.623   3.706
42536W        W14961  35.352  19.143   1.618
42537W        W14962  35.847  11.098   2.747
42538W        W14963  19.231  17.093  13.983
42539W        W14964  23.225  34.102  13.462
42540W        W14965   4.352  34.462  12.430
42541W        W14966  11.136  38.287   4.243
42542W        W14967  15.762  25.107   4.370
42543W        W14968   5.777  21.886   1.077
42544W        W14969  15.739  28.486   1.508
42545W        W14970  21.033  29.178   4.706
42546W        W14971  12.674  31.885   1.734
42547W        W14972  13.048  16.256   1.896
42548W        W14973   3.152  20.483  14.687
42549W        W14974   0.024  28.191   2.855
42550W        W14975  27.269   8.228   2.445
42551W        W14976   9.919  13.821  10.728
42552W        W14977   9.697  20.035   4.122
42553W        W14978   8.298  38.769   1.252
42554W        W14979  19.140  35.612  14.531
42555W        W14980  37.555  33.598   4.159
42556W        W14981   6.448  32.347  12.858
42557W        W14982   4.817  20.522  11.255
42558W        W14983  29.987  43.706  14.862
42559W        W14984   7.363   5.954  14.839
42560W        W14985  20.544   4.947  13.408
42561W        W14986  23.724  31.398   0.489
42562W        W14987   9.891  36.125   2.661
42563W        W14988  19.332  20.615   0.241
42564W        W14989  17.083  24.262  11.564
42565W        W14990  42.430  21.208   4.246
42566W        W14991  23.598  36.439   3.217
42567W        W14992  25.651   3.898   4.767
42568W        W14993   5.895  24.697  12.401
42569W        W14994  10.796   4.191   2.418
42570W        W14995  25.891  24.584  12.642
42571W        W14996  30.639   3.786  13.375
42572W        W14997   6.855   2.538  11.173
42573W        W14998  28.064   3.898  11.110
42574W        W14999  26.716  36.110   1.432
42575W        W15000   1.089  33.433  10.071
42576W        W15001  24.594  40.379   0.930
42577W        W15002  42.765  35.912  12.587
42578W        W15003  38.110  21.947  13.940
42579W        W15004  32.927  23.533  12.399
42580W        W15005  15.066  18.147  11.885
42581W        W15006  29.650  42.321   0.244
42582W        W15007  38.587  34.114   4.090
42583W        W15008  14.598  16.434   0.570
42584W        W15009  40.942  44.282   1.468
42585W        W15010  33.243  13.360   0.306
42586W        W15011   3.614   9.228  13.858
42587W        W15012  18.952  32.686   1.366
42588W        W15013  30.487   6.288   4.637
42589W        W15014  25.436   6.908   3.755
42590W        W15015  39.083  30.706  12.858
42591W        W15016   4.453  34.042  13.484
42592W        W15017  39.425  24.630   1.407
42593W        W15018   3.375  32.738   4.133
42594W        W15019  16.921  28.116  12.897
42595W        W15020   3.413  28.334  14.296
42596W        W15021  38.596   7.799  13.818
42597W        W15022  11.599  23.026  14.461
42598W        W15023   5.024  44.965   3.755
42599W        W15024  15.796  26.815   5.040
42600W        W15025   0.889  41.476   2.237
42601W        W15026  42.560  37.614  11.707
42602W        W15027   8.822  12.380  13.410
42603W        W15028  34.215  28.064  12.448
42604W        W15029   4.948   8.590  11.042
42605W        W15030  42.767  12.575  11.819
42606W        W15031  30.561  32.923  10.600
42607W        W15032  10.313   3.279   0.747
42608W        W15033  39.998  34.043  12.070
42609W        W15034  23.938  13.587  13.491
42610W        W15035  21.607   7.348   1.272
42611W        W15036  14.785   0.942   4.697
42612W        W15037  43.972  28.558  13.995
42613W        W15038  22.074   2.388  12.741
42614W        W15039  30.065  24.681   2.360
42615W        W15040   6.804  41.198  11.929
42616W        W15041  17.291   3.769  11.386
42617W        W15042  19.720   6.701   0.223
42618W        W15043  31.185   6.952  12.977
42619W        W15044  44.784  36.991   1.853
42620W        W15045   8.341  18.767  14.040
42621W        W15046   1.229  12.855   2.352
42622W        W15047   0.692   8.464  13.359
42623W        W15048   6.921  43.737  12.935
42624W        W15049   5.215  23.933  10.409
42625W        W15050  44.218   8.369   1.357
42626W        W15051   7.346  25.943  14.396
42627W        W15052  40.937  22.895   1.354
42628W        W15053  31.864  36.027   0.302
42629W        W15054  28.390  15.753  13.395
42630W        W15055  44.532  16.441   3.756
42631W        W15056  40.347  41.945   4.798
42632W        W15057  12.069  42.935  14.268
42633W        W15058  39.748   8.143   4.705
42634W        W15059  39.322  24.944   2.782
42635W        W15060  19.426  24.495   0.562
42636W        W15061  27.597  18.040  14.509
42637W        W15062  35.409  29.219  13.340
42638W        W15063  42.306   5.506   2.899
42639W        W15064  35.906  18.336   4.880
42640W        W15065  23.197   8.574  11.498
42641W        W15066  32.628  21.334  11.064
42642W        W15067   1.678  16.212  13.556
42643W        W15068  22.480  32.112  10.501
42644W        W15069  27.255   5.791   4.172
42645W        W15070  13.636   6.942  11.628
42646W        W15071  31.307  16.358  10.269
42647W        W15072  33.986  22.125   0.237
42648W        W15073  39.301  30.011  10.781
42649W        W15074  30.092  33.887   2.802
42650W        W15075  22.797  21.088   1.307
42651W        W15076  25.151  15.779  12.583
42652W        W15077  22.256   6.618  11.972
42653W        W15078   4.395  38.777  12.514
42654W        W15079  23.571  41.828  13.558
42655W        W15080  16.639   9.362  13.274
42656W        W15081  43.016   3.344  10.197
42657W        W15082  13.652  20.678   4.214
42658W        W15083   0.656  43.821  13.758
42659W        W15084  36.863  31.350   2.795
42660W        W15085  32.440   3.363   1.703
42661W        W15086  19.745   3.259   3.444
42662W        W15087  20.466  31.349   0.665
42663W        W15088  11.660  31.606   0.493
42664W        W15089  13.969  27.720   3.593
42665W        W15090   5.256  26.903  13.507
42666W        W15091   0.836  17.287  11.952
42667W        W15092  28.530  33.490  11.618
42668W        W15093   0.447  27.700  13.325
42669W        W15094   5.230  35.330   4.753
42670W        W15095  17.163  10.656   1.232
42671W        W15096   5.779  34.006  11.244
42672W        W15097  38.788   0.712  10.576
42673W        W15098  41.040  19.588   1.285
42674W        W15099   0.884  15.062  12.555
42675W        W15100  25.996   5.326  13.415
42676W        W15101  10.552  23.472  10.086
42677W        W15102  14.242  14.878  12.973
42678W        W15103  39.097  25.154  13.878
42679W        W15104  15.812  15.859  13.814
42680W        W15105   1.777  32.486   0.445
42681W        W15106  22.217   6.512   0.215
42682W        W15107  42.893  27.426  11.596
42683W        W15108  11.364   2.877   3.197
42684W        W15109  36.539  24.138  10.504
42685W        W15110  30.015  25.626  14.173
42686W        W15111  32.902  36.883   2.807
42687W        W15112  17.840   5.320   2.895
42688W        W15113   9.944   9.202   4.612
42689W        W15114  10.941   0.782  10.808
42690W        W15115  42.023  30.219  11.184
42691W        W15116  36.844  13.092   0.225
42692W        W15117  35.417  19.523   2.261
42693W        W15118  19.170   5.796  14.332
42694W        W15119   8.950  31.504  13.940
42695W        W15120  33.586   5.326   0.376
42696W        W15121   8.317  32.414   3.585
42697W        W15122  32.153  19.799  10.999
42698W        W15123  36.577  34.324  12.882
42699W        W15124  41.915  22.308  12.537
42700W        W15125  16.683  39.289   1.504
42701W        W15126   7.322  11.739   2.161
42702W        W15127  43.062  23.966  14.935
42703W        W15128  35.651  24.723  10.023
42704W        W15129  39.810  29.041   0.343
42705W        W15130  25.465  11.245   3.769
42706W        W15131  32.416  23.604  12.222
42707W        W15132  28.704  12.441   2.648
42708W        W15133  44.055  16.271  12.062
42709W        W15134  34.401   0.437  11.946
42710W        W15135  19.195  19.492  13.089
42711W        W15136  36.941  42.298   0.381
42712W        W15137   3.343   1.547   4.062
42713W        W15138  10.576  12.097  11.593
42714W        W15139   5.692  38.903   0.630
42715W        W15140   0.979  26.886  14.281
42716W        W15141  16.782  25.362  14.718
42717W        W15142  29.616   5.264   0.405
42718W        W15143  22.049   6.314   2.175
42719W        W15144  24.208  41.430  11.652
42720W        W15145  15.737   6.916  13.537
42721W        W15146  26.721   6.674  11.217
42722W        W15147  23.200   2.509  12.938
42723W        W15148   3.415  30.524  10.819
42724W        W15149  40.526  25.925   4.070
42725W        W15150  35.442  15.810   3.853
42726W        W15151  27.534  29.692   1.752
42727W        W15152   7.668  25.260  11.725
42728W        W15153   6.020  32.006   3.748
42729W        W15154  42.315  29.474  13.844
42730W        W15155   3.418  14.515   4.313
42731W        W15156  24.674  19.613  10.868
42732W        W15157  15.170  33.115  11.400
42733W        W15158  28.499  42.501   4.610
42734W        W15159  11.542  32.827   0.818
42735W        W15160  21.372  35.998  10.746
42736W        W15161  28.897  19.985   3.509
42737W        W15162  34.565  25.028  10.891
42738W        W15163   7.533  19.048  11.588
42739W        W15164  15.179   3.662  10.727
42740W        W15165   6.468  10.321  13.624
42741W        W15166  40.453  11.584  12.086
42742W        W15167   9.242  33.885   2.849
42743W        W15168  12.550  25.518  12.937
42744W        W15169  34.107  36.149   2.349
42745W        W15170  16.219  37.098  13.852
42746W        W15171  41.290  44.000   0.232
42747W        W15172   3.862  36.868  12.922
42748W        W15173  11.962  29.956   2.443
42749W        W15174  28.192  31.203  12.092
42750W        W15175  38.636  38.119   3.207
42751W        W15176   3.366   2.228   1.303
42752W        W15177  10.261  12.901  10.596
42753W        W15178  28.631  16.645   3.283
42754W        W15179  18.591   0.455   0.864
42755W        W15180  43.094  31.687   3.470
42756W        W15181  29.729   3.466   2.936
42757W        W15182  31.887  27.538  11.586
42758W        W15183  31.660   2.180  10.643
42759W        W15184  44.805  36.644  12.876
42760W        W15185  24.611  39.298  11.458
42761W        W15186  15.718  39.529   1.930
42762W        W15187  36.370   0.875  13.066
42763W        W15188  28.919  27.646   3.345
42764W        W15189  23.647  19.342  11.722
42765W        W15190   1.418  31.659  10.825
42766W        W15191  23.233  44.433   0.705
42767W        W15192  13.133  23.181  13.030
42768W        W15193  15.064  42.414   3.134
42769W        W15194   0.150  29.067  11.144
42770W        W15195   7.423  32.850  14.283
42771W        W15196  20.650  15.695  13.614
42772W        W15197  27.076  28.726   1.322
42773W        W15198  37.569  14.911   0.184
42774W        W15199  35.646  34.470   1.794
42775W        W15200   9.462  21.998  14.900
42776W        W15201  34.806  41.850   3.309
42777W        W15202   9.348  39.512   3.563
42778W        W15203  11.185  12.012   3.307
42779W        W15204  32.869  31.673   4.038
42780W        W15205  44.654  43.899  13.979
42781W        W15206  18.051  36.611   0.894
42782W        W15207  31.191  29.042   2.262
42783W        W15208  44.139  10.117   0.336
42784W        W15209   5.948  19.220  12.049
42785W        W15210   3.062   4.922   2.309
42786W        W15211  29.015  21.407   1.314
42787W        W15212   4.763  11.824  14.973
42788W        W15213  43.910  33.832  12.012
42789W        W15214  26.293   2.901   2.354
42790W        W15215  28.934   1.403  13.854
42791W        W15216  11.613   0.436  10.390
42792W        W15217   5.648  12.168  10.475
42793W        W15218  14.759  20.357  12.719
42794W        W15219  34.456  33.860   1.633
42795W        W15220  25.581  38.123  12.932
42796W        W15221   7.437  35.453   2.687
42797W        W15222   8.059  32.065   3.215
42798W        W15223  29.610  25.674  12.620
42799W        W15224  19.733  16.113  11.060
42800W        W15225   5.736  14.820   3.817
42801W        W15226  39.095  20.977   3.810
42802W        W15227   6.004  40.740  13.997
42803W        W15228  12.824  19.454  11.936
42804W        W15229   6.694  35.088  12.967
42805W        W15230  25.014  32.491  10.685
42806W        W15231  29.575  39.052  14.788
42807W        W15232  11.021   4.199   2.880
42808W        W15233  33.077  12.107   0.980
42809W        W15234  30.933  11.830   2.289
42810W        W15235  22.592  28.142  11.997
42811W        W15236  31.476  23.696  12.159
42812W        W15237  28.399  34.796  11.600
42813W        W15238   4.302  36.866   4.630
42814W        W15239  24.935  21.677   3.773
42815W        W15240  19.798   8.886  10.711
42816W        W15241  11.559  18.740   0.903
42817W        W15242  42.451  44.927  13.622
42818W        W15243   3.730  32.202  13.737
42819W        W15244  10.213  28.888   2.710
42820W        W15245  24.688  41.921  11.500
42821W        W15246   1.483   6.781  13.510
42822W        W15247  34.577  25.357  10.506
42823W        W15248  16.002  28.613  14.950
42824W        W15249   4.481  32.771  14.396
42825W        W15250   8.242   5.575  12.132
42826W        W15251  19.711  12.323  11.267
42827W        W15252  15.316  30.182   4.141
42828W        W15253   0.640  32.042  10.484
42829W        W15254  18.444  12.351   2.317
42830W        W15255  15.113  19.509   1.235
42831W        W15256  30.473  10.142   0.789
42832W        W15257   3.471  28.510  12.380
42833W        W15258  31.064  41.429  14.384
42834W        W15259  19.793  43.889   3.566
42835W        W15260  13.115  11.112  13.055
42836W        W15261  15.570  11.717   0.384
42837W        W15262  27.303   1.982   3.821
42838W        W15263  14.856   9.938   3.152
42839W        W15264  13.758  15.831  11.098
42840W        W15265  42.130   7.175   4.218
42841W        W15266   9.771  11.646   4.923
42842W        W15267  38.052  20.593   3.311
42843W        W15268  31.065   9.970   1.987
42844W        W15269  42.225   4.916   1.903
42845W        W15270  35.514  21.142   0.701
42846W        W15271  30.977  33.186  11.577
42847W        W15272  30.291  37.314  12.486
42848W        W15273  13.808  39.087   2.638
42849W        W15274  43.979  43.914   3.759
42850W        W15275  32.617  34.268  13.129
42851W        W15276  16.040  21.791  10.529
42852W        W15277   0.466  36.893  10.766
42853W        W15278   3.710  31.942   3.673
42854W        W15279  19.501  30.448   2.264
42855W        W15280  20.731  40.604   2.918
42856W        W15281  11.764   6.680  13.953
42857W        W15282   5.761  23.753  12.095
42858W        W15283  14.156  29.128  14.269
42859W        W15284  29.181  39.774  12.640
42860W        W15285  25.138  16.870  13.454
42861W        W15286  24.168  14.664   4.942
42862W        W15287  24.487  18.847  10.234
42863W        W15288  24.965  17.044   1.255
42864W        W15289  44.337  16.716   2.955
42865W        W15290  39.036  41.687  10.609
42866W        W15291  23.156  25.763   0.352
42867W        W15292  12.673  33.508   2.547
42868W        W15293   3.507  33.495   1.711
42869W        W15294  28.974   5.718  12.524
42870W        W15295  30.936   3.304  12.485
42871W        W15296  32.864   1.955   1.349
42872W        W15297  36.532  42.885  11.116
42873W        W15298   7.579  17.381   1.863
42874W        W15299  15.523  24.949   9.965
42875W        W15300   4.212  14.835   1.235
42876W        W15301  15.103  43.081   0.849
42877W        W15302  29.255  28.188   2.542
42878W        W15303  31.701  39.402   2.817
42879W        W15304   6.286  38.606   3.090
42880W        W15305  13.336  26.518   1.397
42881W        W15306  23.670  10.733   2.797
42882W        W15307  41.111  39.353  12.551
42883W        W15308   7.922  42.427   2.133
42884W        W15309  16.129  19.814   0.290
42885W        W15310  21.016  18.075  10.737
42886W        W15311   7.951  31.936  10.625
42887W        W15312  10.183  36.976   1.217
42888W        W15313   3.737  12.620   1.646
42889W        W15314  44.292  12.654   2.868
42890W        W15315  14.508  41.626  12.329
42891W        W15316  26.190  23.706   1.638
42892W        W15317   5.182  37.514   0.075
42893W        W15318  29.065  32.003   1.023
42894W        W15319  36.565  16.416   1.433
42895W        W15320  26.083  38.780   0.033
42896W        W15321   6.740  16.167  11.171
42897W        W15322   6.866  32.131   2.188
42898W        W15323  25.369   3.167   1.228
42899W        W15324  29.233  30.721   0.398
42900W        W15325  22.782   8.826   3.792
42901W        W15326  42.098  14.922   0.155
42902W        W15327  34.466  24.883   0.175
42903W        W15328   6.911   3.372   1.702
42904W        W15329  42.572  37.942  14.343
42905W        W15330  26.166   9.341   2.097
42906W        W15331  13.643  30.881   3.262
42907W        W15332  14.515  43.741  13.043
42908W        W15333  14.521  32.227  14.134
42909W        W15334  11.450  35.032  13.784
42910W        W15335  14.856  37.486   4.187
42911W        W15336  18.892   1.016  10.713
42912W        W15337  44.423  29.501   3.232
42913W        W15338   1.953  33.657   2.748
42914W        W15339  31.029  19.178   1.687
42915W        W15340   6.372  24.766   3.228
42916W        W15341   5.677  27.515   3.052
42917W        W15342   3.931  34.054   4.723
42918W        W15343  23.703  41.285   1.159
42919W        W15344  33.471  10.149   3.252
42920W        W15345  43.705  33.048   2.446
42921W        W15346  40.579   8.805  14.456
42922W        W15347  26.751  18.076   2.708
42923W        W15348  30.350  44.043   2.749
42924W        W15349   5.603  13.524   0.340
42925W        W15350  43.912   2.964   5.113
42926W        W15351  41.615   9.258   5.216
42927W        W15352   6.669  41.829   1.495
42928W        W15353  11.775  27.711   0.709
42929W        W15354  12.510   2.485   1.499
42930W        W15355  28.647  11.231   0.815
42931W        W15356  43.054   5.687  14.996
42932W        W15357   2.016   7.197   0.674
42933W        W15358  28.945  34.614  13.299
42934W        W15359  16.720  19.727  13.770
42935W        W15360  27.615  34.690   3.777
42936W        W15361   3.339  36.891  12.931
42937W        W15362   1.035  15.964   0.047
42938W        W15363  29.671  17.649  13.422
42939W        W15364  12.325   6.716  14.755
42940W        W15365  23.390  24.703  12.733
42941W        W15366  14.576  15.358  13.831
42942W        W15367  19.070  30.130   3.311
42943W        W15368  40.351  37.064  14.945
42944W        W15369  35.352  10.758  10.610
42945W        W15370  33.424  35.702   2.948
42946W        W15371   1.270  44.888   2.290
42947W        W15372   7.494   9.952   1.179
42948W        W15373  29.113  17.769   2.190
42949W        W15374  22.308  25.697   2.884
42950W        W15375  16.558   6.754  11.636
42951W        W15376  34.960  13.548  11.732
42952W        W15377  16.182  39.065  11.269
42953W        W15378  24.541  28.666  10.692
42954W        W15379   0.725  42.190   2.880
42955W        W15380   7.347  23.320   4.609
42956W        W15381  13.427  26.549   5.071
42957W        W15382  20.029   4.955  11.503
42958W        W15383   7.950  11.708   2.879
42959W        W15384  10.506  19.735  11.729
42960W        W15385  29.151   5.404   1.815
42961W        W15386  27.003   2.056  13.116
42962W        W15387  28.089   2.892   1.837
42963W        W15388  12.848  19.262   4.398
42964W        W15389  23.605  42.687  12.594
42965W        W15390  41.625  16.393  14.088
42966W        W15391  43.434  13.193   0.267
42967W        W15392  27.012  27.534  13.719
42968W        W15393  17.748  33.858  12.773
42969W        W15394  36.642  25.945  11.857
42970W        W15395  35.026  28.246  11.143
42971W        W15396   6.710  11.892  11.071
42972W        W15397  18.644  13.737   4.110
42973W        W15398  16.938  16.623  11.471
42974W        W15399   6.803  13.908   4.134
42975W        W15400  25.145  21.144   5.147
42976W        W15401  38.817  41.402   2.366
42977W        W15402   1.314  42.935   2.353
42978W        W15403  10.068  33.991  13.781
42979W        W15404   5.880  13.952  13.359
42980W        W15405  13.515   5.955   3.314
42981W        W15406  29.103  31.564  14.028
42982W        W15407   0.987  38.296  11.142
42983W        W15408   8.763  26.692  12.460
42984W        W15409  41.843  19.579  11.005
42985W        W15410  25.535  39.364   2.725
42986W        W15411   3.328  22.056   2.682
42987W        W15412   8.870  18.988   1.803
42988W        W15413  41.953  28.576   0.312
42989W        W15414  43.315  25.336  11.129
42990W        W15415   2.141  27.699  13.956
42991W        W15416  17.725  14.598  14.367
42992W        W15417  23.350  35.940  11.417
42993W        W15418  31.227  24.739  11.130
42994W        W15419  33.916  21.126  10.196
42995W        W15420  44.901  41.542   2.672
42996W        W15421  10.672  15.264  13.825
42997W        W15422  18.620  12.523  12.633
42998W        W15423  36.072  26.971   2.783
42999W        W15424  21.758  25.063  13.764
43000W        W15425  37.336  12.404  11.082
43001W        W15426   8.239  11.887   4.850
43002W        W15427   6.831  21.041   0.444
43003W        W15428  42.485  21.690   1.232
43004W        W15429  17.722  42.227   2.857
43005W        W15430  12.518  33.541   2.022
43006W        W15431  12.695  10.257  13.569
43007W        W15432  12.048  24.617   1.979
43008W        W15433  26.964  19.479   4.181
43009W        W15434  38.020  11.619  13.010
43010W        W15435  29.680  25.163  12.699
43011W        W15436  33.543  39.474  12.044
43012W        W15437   6.795  21.128  10.972
43013W        W15438  10.457   2.583   2.406
43014W        W15439  30.733  33.548  10.737
43015W        W15440   2.938  30.628  10.666
43016W        W15441  20.372  31.511  11.924
43017W        W15442  30.864  34.811   1.857
43018W        W15443   1.687   3.479  13.545
43019W        W15444  43.549  15.165   4.185
43020W        W15445   3.839   8.690   1.962
43021W        W15446  25.402  29.478  11.190
43022W        W15447  44.440  18.579   4.619
43023W        W15448  30.053  32.153   4.713
43024W        W15449  27.232   9.123   3.357
43025W        W15450   4.366  18.716  13.651
43026W        W15451   0.342   3.308  13.395
43027W        W15452  16.057   3.803  13.885
43028W        W15453  40.842  42.319  12.993
43029W        W15454  23.172  29.197  14.274
43030W        W15455  26.570  11.900  13.097
43031W        W15456  25.934  31.072   1.042
43032W        W15457  34.793   7.429  10.575
43033W        W15458  38.139  34.903   4.074
43034W        W15459  28.526  11.494  14.398
43035W        W15460  13.420  44.953   4.120
43036W        W15461  15.671  26.206   0.770
43037W        W15462  44.860   0.852   2.382
43038W        W15463  32.124   3.032  14.821
43039W        W15464   4.790   2.475   4.495
43040W        W15465  34.634  28.187   2.706
43041W        W15466   7.958  36.856  11.596
43042W        W15467   0.007  30.619   1.817
43043W        W15468  35.466  24.230   4.459
43044W        W15469  42.416  30.897   4.717
43045W        W15470  39.295   3.185   2.201
43046W        W15471  38.519  10.830   2.576
43047W        W15472  30.651  18.687   4.105
43048W        W15473  18.300  37.592   2.275
43049W        W15474   4.894  29.568  11.237
43050W        W15475  25.171  26.209  13.177
43051W        W15476  40.039  11.276  10.993
43052W        W15477   4.944  10.131  14.930
43053W        W15478  16.634   8.700   1.644
43054W        W15479   4.917  25.023   4.070
43055W        W15480   8.700  11.776   1.429
43056W        W15481   1.529  22.260  11.207
43057W        W15482   3.799  33.427   0.196
43058W        W15483  28.250  25.705  11.498
43059W        W15484  11.240  36.891  13.522
43060W        W15485  26.404  27.352  12.056
43061W        W15486  38.300   7.973  11.886
43062W        W15487  13.287  42.053   1.822
43063W        W15488  19.228   3.644   0.738
43064W        W15489   5.754  12.655  10.661
43065W        W15490   7.633  35.661  12.134
43066W        W15491  15.738  35.275   3.920
43067W        W15492  24.278  31.197  11.895
43068W        W15493  34.051  32.373   4.324
43069W        W15494  12.349  21.938   4.217
43070W        W15495  20.140  24.267  10.866
43071W        W15496  36.615  22.181  11.068
43072W        W15497  12.366  29.898   3.440
43073W        W15498  34.624  16.900  13.382
43074W        W15499  42.736   8.240  12.606
43075W        W15500  25.301  19.192  12.994
43076W        W15501  26.526  42.306  11.642
43077W        W15502  31.573  12.623  11.602
43078W        W15503  39.830  43.750   3.178
43079W        W15504  27.909  25.675   0.478
43080W        W15505  30.494   6.833  13.422
43081W        W15506   9.992   7.810  10.994
43082W        W15507  13.716  39.217  12.854
43083W        W15508  20.947  44.032   2.740
43084W        W15509   6.373  42.121   2.173
43085W        W15510  21.190  31.537  11.132
43086W        W15511  40.760  14.599   4.159
43087W        W15512  17.767  42.041  11.915
43088W        W15513  43.537  17.684   3.042
43089W        W15514  39.105  24.689   0.318
43090W        W15515  14.610  32.996  14.501
43091W        W15516   6.342   8.209  13.863
43092W        W15517   8.623  20.621  14.350
43093W        W15518  41.767  11.866   3.811
43094W        W15519  38.760  36.990   0.190
43095W        W15520   0.242  22.085   0.922
43096W        W15521  14.673  12.061   5.089
43097W        W15522  34.863  26.574  13.350
43098W        W15523  23.649  14.348  13.352
43099W        W15524  34.365  33.211  12.475
43100W        W15525  41.312  20.820   2.729
43101W        W15526  44.735  40.477  12.391
43102W        W15527   5.416   6.426  14.386
43103W        W15528  14.772  16.558   4.423
43104W        W15529   3.354  36.910  11.207
43105W        W15530  24.690  25.166   2.466
43106W        W15531   6.679  12.762  12.636
43107W        W15532  15.347  43.823  14.833
43108W        W15533  33.962  18.652  10.129
43109W        W15534  24.819  33.757  10.720
43110W        W15535   9.129  32.030  14.677
43111W        W15536  17.752  10.688  13.995
43112W        W15537  14.364   7.397  11.501
43113W        W15538   7.304  35.004   2.455
43114W        W15539  29.492  17.939  10.100
43115W        W15540   7.400  43.746  12.719
43116W        W15541  27.971   8.074  14.853
43117W        W15542  13.381  24.150   3.197
43118W        W15543  15.123  33.507   5.023
43119W        W15544  15.121  39.694   3.712
43120W        W15545  36.583  14.515   1.632
43121W        W15546  13.848  44.169   0.943
43122W        W15547  27.618   3.940  12.204
43123W        W15548  42.901  44.284  13.686
43124W        W15549  22.114  15.727   3.710
43125W        W15550  28.527  36.370   4.346
43126W        W15551  31.459  23.125  14.530
43127W        W15552  29.704  23.110  11.544
43128W        W15553  34.083  42.810  14.487
43129W        W15554  35.325  36.388   3.410
43130W        W15555   0.754  16.248   1.908
43131W        W15556  12.776   9.199   1.315
43132W        W15557  26.154   6.073   2.036
43133W        W15558  40.949  37.091   0.508
43134W        W15559  43.413  11.048   3.847
43135W        W15560   2.668  10.663   1.686
43136W        W15561  34.445  41.631  12.601
43137W        W15562  28.530  43.105  13.103
43138W        W15563  14.388  25.909  12.212
43139W        W15564   5.657   9.826   3.706
43140W        W15565   3.279  34.852   3.354
43141W        W15566  38.128  43.879   3.800
43142W        W15567  11.675  38.171  13.818
43143W        W15568  18.728   1.456   3.585
43144W        W15569  22.917  16.262   3.887
43145W        W15570  34.882   0.823  10.885
43146W        W15571  33.950   4.473  14.383
43147W        W15572  29.656   0.761   1.640
43148W        W15573  16.044  41.547   0.881
43149W        W15574  12.113  24.716   3.338
43150W        W15575   2.580  32.094   9.750
43151W        W15576  26.252  43.971   2.019
43152W        W15577  28.214  43.722  14.918
43153W        W15578  29.692  27.553   4.334
43154W        W15579  30.563  24.530  14.074
43155W        W15580   8.659  36.341  13.852
43156W        W15581  28.608  22.580   3.333
43157W        W15582   5.608   2.921  12.817
43158W        W15583  20.316   1.189  12.598
43159W        W15584  18.635  26.994   0.291
43160W        W15585  33.352  32.918   2.230
43161W        W15586  12.655   6.759  10.705
43162W        W15587   0.446  18.203  14.493
43163W        W15588  35.912  26.573   2.455
43164W        W15589  26.767   4.015   2.705
43165W        W15590  36.633   8.359  11.643
43166W        W15591   4.720  36.949   1.576
43167W        W15592  17.244  11.198  10.726
43168W        W15593  43.496  10.916  14.916
43169W        W15594  41.979  13.464  14.030
43170W        W15595  33.919  41.299   3.330
43171W        W15596   7.812  35.356  10.275
43172W        W15597  24.183  40.044  13.888
43173W        W15598  40.092  12.386   1.720
43174W        W15599  36.352  26.942   3.230
43175W        W15600  30.211  38.985  14.269
43176W        W15601  23.567  41.453  11.967
43177W        W15602  32.108  32.521   2.511
43178W        W15603  22.156   7.662  11.094
43179W        W15604   2.973  39.509   4.155
43180W        W15605  27.473  16.027   1.440
43181W        W15606  36.321  42.877   4.756
43182W        W15607  34.393  29.799   3.238
43183W        W15608  41.437  17.017  11.880
43184W        W15609   9.501  14.199  13.101
43185W        W15610  37.937  13.449  13.281
43186W        W15611  33.905  23.253   1.595
43187W        W15612   4.310  33.953   3.242
43188W        W15613  31.854  43.766  11.165
43189W        W15614   6.288  43.908  10.898
43190W        W15615   6.826  21.286  11.957
43191W        W15616  38.679  27.023  11.095
43192W        W15617  35.991  40.995  11.706
43193W        W15618  20.582   3.569   9.920
43194W        W15619   8.657  27.081  11.455
43195W        W15620  19.545  31.306   0.408
43196W        W15621  32.327  29.588  11.610
43197W        W15622  42.999  29.240   1.459
43198W        W15623  27.012  36.397  10.690
43199W        W15624   9.982  36.090  11.002
43200W        W15625  17.683   2.831  11.375
43201W        W15626   9.214  12.564  10.679
43202W        W15627  33.518  17.774  10.453
43203W        W15628  42.504  30.585   1.791
43204W        W15629  44.737  42.197  12.437
43205W        W15630  38.049  34.505  14.480
43206W        W15631   7.493   8.963   0.916
43207W        W15632  10.694  17.228  12.251
43208W        W15633   6.485   6.917   1.962
43209W        W15634  39.069  40.386   5.376
43210W        W15635   0.768   8.892   4.541
43211W        W15636  11.618  38.013   2.201
43212W        W15637   8.185  28.068   2.076
43213W        W15638  33.598  44.143   1.841
43214W        W15639  20.639  44.057  11.684
43215W        W15640  14.531  10.594   0.924
43216W        W15641  28.054  37.424   1.279
43217W        W15642  17.535  21.811   3.071
43218W        W15643  32.112  34.382   2.701
43219W        W15644  42.518  19.632   3.911
43220W        W15645  32.031  43.209  10.337
43221W        W15646  22.752  44.516  13.883
43222W        W15647   7.719  37.838   1.688
43223W        W15648   4.858   6.210  12.025
43224W        W15649  14.693  13.348  11.683
43225W        W15650  26.493   1.047  14.438
43226W        W15651  39.975   2.124  14.815
43227W        W15652  19.354  44.070  14.426
43228W        W15653  43.774  37.812   3.762
43229W        W15654   9.063  37.512   2.465
43230W        W15655  13.617  11.726   2.312
43231W        W15656  35.074  15.828  12.937
43232W        W15657   9.753  10.703  13.860
43233W        W15658   1.400  40.966  11.915
43234W        W15659  43.338  21.821   3.197
43235W        W15660  26.479  19.581  12.895
43236W        W15661   3.740  27.421  12.550
43237W        W15662  32.618  26.700   4.543
43238W        W15663   4.374  35.164  12.956
43239W        W15664  29.005  40.878  10.650
43240W        W15665   3.496  18.727  13.980
43241W        W15666  22.222   7.809  11.985
43242W        W15667  19.792  25.530   2.888
43243W        W15668  37.937   1.296   3.824
43244W        W15669  15.579  18.569   2.383
43245W        W15670  44.794   1.911  12.249
43246W        W15671  34.665  25.094   2.907
43247W        W15672  19.553   3.197  11.658
43248W        W15673  43.050  40.024  14.331
43249W        W15674  22.782  21.512   1.806
43250W        W15675  12.283  37.507   4.715
43251W        W15676  14.638  27.814  13.078
43252W        W15677  41.298  15.107  12.518
43253W        W15678  35.496  44.816   4.501
43254W        W15679  11.559   8.641   3.649
43255W        W15680   6.364   9.913   3.763
43256W        W15681   6.256  26.725  14.401
43257W        W15682  40.793  14.818   3.157
43258W        W15683  25.535  38.420  11.582
43259W        W15684   3.305  11.832   1.743
43260W        W15685  40.981  10.148   4.554
43261W        W15686  22.947   2.051  13.024
43262W        W15687  37.789   9.827   1.346
43263W        W15688  13.653  38.678  12.983
43264W        W15689  43.835  32.240   0.668
43265W        W15690  14.075  43.552   2.741
43266W        W15691  13.340  36.088   0.828
43267W        W15692  40.910  26.122   1.959
43268W        W15693   1.036  34.363   3.935
43269W        W15694  39.762  23.234  10.767
43270W        W15695  13.751  25.214  13.497
43271W        W15696  42.295  28.783   3.321
43272W        W15697   1.241  10.724   3.629
43273W        W15698   7.110  12.144   0.918
43274W        W15699  32.663  44.999  13.313
43275W        W15700   3.460  18.333  11.449
43276W        W15701  31.765  13.498   2.249
43277W        W15702  41.997  21.890   1.274
43278W        W15703  13.097   9.556   1.487
43279W        W15704  25.343   3.863  13.048
43280W        W15705  22.617  36.832  12.129
43281W        W15706  43.778   1.025   2.350
43282W        W15707  43.446  32.427   0.347
43283W        W15708  37.884   1.211  14.673
43284W        W15709  11.145  41.165   0.691
43285W        W15710  28.634  36.521  11.190
43286W        W15711  35.426  30.010  11.153
43287W        W15712  36.516  26.442   3.228
43288W        W15713  33.495  32.902  10.697
43289W        W15714  28.305  24.481   2.817
43290W        W15715  11.456  14.082   0.397
43291W        W15716   1.024  34.930  10.267
43292W        W15717  38.637  21.674   1.778
43293W        W15718  28.761   2.271   4.188
43294W        W15719  15.846   9.945  13.476
43295W        W15720  29.608  10.765   1.462
43296W        W15721  11.795  41.762   2.813
43297W        W15722  42.318  25.309  12.059
43298W        W15723  35.315  24.078  14.197
43299W        W15724  41.813  41.651  10.763
43300W        W15725  24.198  43.706   4.097
43301W        W15726  40.990   7.460  14.447
43302W        W15727  44.685  28.387   3.655
43303W        W15728   8.377  29.231   2.612
43304W        W15729   1.904   2.941   0.847
43305W        W15730  13.808   4.462   3.157
43306W        W15731   1.335   6.349  12.517
43307W        W15732   6.436  12.673   1.309
43308W        W15733  16.233   3.715  11.617
43309W        W15734  19.817   1.292  12.732
43310W        W15735  10.366  21.546   4.549
43311W        W15736  11.077  26.029   4.134
43312W        W15737  36.557  26.866  11.994
43313W        W15738  22.259  10.664  12.032
43314W        W15739  20.935  21.100  11.939
43315W        W15740   4.141  44.915   2.733
43316W        W15741   1.337  18.537  13.912
43317W        W15742  29.422   8.109  11.521
43318W        W15743   8.468  26.741   4.796
43319W        W15744  35.030  14.227   9.944
43320W        W15745  16.750  12.866   1.442
43321W        W15746  16.087   5.166   2.206
43322W        W15747  42.375  10.609  12.801
43323W        W15748  39.606  38.896   4.086
43324W        W15749   6.667  31.187   2.752
43325W        W15750  17.243  28.950   4.782
43326W        W15751  11.309  14.555   4.778
43327W        W15752  21.061  41.251   3.199
43328W        W15753  12.667   7.684  11.188
43329W        W15754  31.611  40.737  13.169
43330W        W15755   8.222  10.656   1.838
43331W        W15756  24.520  30.512   1.344
43332W        W15757  29.484  10.703   4.641
43333W        W15758   0.029  44.880   2.786
43334W        W15759   9.763  10.776   3.246
43335W        W15760  21.150  36.334   5.169
43336W        W15761   1.978  12.783  12.732
43337W        W15762   9.377  29.637  14.663
43338W        W15763  36.638  28.528  12.957
43339W        W15764  28.658  10.358  11.767
43340W        W15765  14.044  42.779  12.319
43341W        W15766  17.612   8.118  13.007
43342W        W15767  36.955  26.119   9.577
43343W        W15768  42.862  25.418  11.591
43344W        W15769  24.618  10.824  11.937
43345W        W15770   3.246  36.941   1.879
43346W        W15771  17.667  23.120   4.206
43347W        W15772  24.059  18.841   4.726
43348W        W15773   6.299  23.397   3.958
43349W        W15774  39.573  34.033   0.372
43350W        W15775  31.903  13.130  14.862
43351W        W15776  31.126  43.198  10.182
43352W        W15777  38.076  11.670   0.858
43353W        W15778  21.751  21.311  14.857
43354W        W15779  25.217  23.578   1.881
43355W        W15780  21.289  33.759  14.396
43356W        W15781   9.169  37.401  12.006
43357W        W15782  21.163  37.908   4.679
43358W        W15783  17.566   1.883  11.592
43359W        W15784  28.485   1.894  10.759
43360W        W15785  44.745  37.482  13.897
43361W        W15786   7.933   2.771  12.105
43362W        W15787  29.715  13.804  14.387
43363W        W15788  39.526  30.525  10.678
43364W        W15789   2.221  35.466   3.126
43365W        W15790  14.880  18.995  12.879
43366W        W15791  35.079  27.707   0.341
43367W        W15792   1.050  33.985  14.998
43368W        W15793  44.405  32.093  11.718
43369W        W15794  30.557  36.552  12.109
43370W        W15795  30.610   2.012   0.367
43371W        W15796  16.139   6.662   1.640
43372W        W15797  15.368  22.742  14.957
43373W        W15798  39.201   5.170   0.032
43374W        W15799  34.859  35.900  12.014
43375W        W15800  19.169  13.198   0.978
43376W        W15801  32.081  10.279   4.415
43377W        W15802  31.880  35.560  13.434
43378W        W15803   2.640  37.786  12.963
43379W        W15804  35.588  16.128  13.802
43380W        W15805  41.816  27.596  12.763
43381W        W15806  34.886   0.941   4.179
43382W        W15807   3.785  20.376  12.089
43383W        W15808  15.851  19.414   1.737
43384W        W15809  22.623   3.425  10.589
43385W        W15810  36.007  15.042   1.193
43386W        W15811  27.664   2.531  10.676
43387W        W15812  24.078  31.936   1.364
43388W        W15813  40.465   6.946   2.737
43389W        W15814  17.802   5.429  12.063
43390W        W15815  39.000  14.279   1.744
43391W        W15816  43.916  33.361   1.321
43392W        W15817  36.852  30.512   4.697
43393W        W15818  11.226  22.953   1.475
43394W        W15819  43.387   3.932   1.943
43395W        W15820  32.737  27.394   4.790
43396W        W15821  20.715   5.722   3.059
43397W        W15822  27.413  26.961   1.215
43398W        W15823   4.709   1.607  12.637
43399W        W15824  21.792  38.576  12.796
43400W        W15825   0.333  42.745  12.003
43401W        W15826  26.308  13.206   2.347
43402W        W15827  39.961   2.816   2.274
43403W        W15828  22.163  12.855  11.648
43404W        W15829  30.560  22.533   3.275
43405W        W15830   0.615  30.153  14.456
43406W        W15831   0.502  31.605  13.580
43407W        W15832  19.286   1.369  12.859
43408W        W15833  11.091   5.596   1.672
43409W        W15834  31.991  41.608   3.757
43410W        W15835  31.303  14.799  11.050
43411W        W15836  10.351  14.707   0.285
43412W        W15837  26.646   7.097   2.221
43413W        W15838  43.492  32.643  12.958
43414W        W15839  32.463  30.690  13.302
43415W        W15840  27.512   1.468  12.023
43416W        W15841  16.701  11.425   2.588
43417W        W15842  11.676  36.390   4.620
43418W        W15843  43.859  32.314   1.206
43419W        W15844   0.479  40.253  13.967
43420W        W15845  32.480  26.485  10.224
43421W        W15846  11.873  28.685  12.010
43422W        W15847   2.350  28.180  10.935
43423W        W15848  34.837  34.969  14.957
43424W        W15849   3.884  38.273  14.284
43425W        W15850  21.687   7.280   0.432
43426W        W15851   4.695  26.036  13.394
43427W        W15852  32.825  18.807   1.558
43428W        W15853  34.659  42.012  12.897
43429W        W15854  34.888  44.916  10.306
43430W        W15855  16.832  29.988   0.717
43431W        W15856  28.960   4.952  11.128
43432W        W15857  14.139   4.291  14.849
43433W        W15858  20.394  16.226   4.892
43434W        W15859  44.411  24.988   0.539
43435W        W15860  21.682  29.109   1.789
43436W        W15861  40.986   1.813   1.102
43437W        W15862  16.995  17.339  11.166
43438W        W15863   6.307  16.527  14.876
43439W        W15864  38.894  31.035  14.940
43440W        W15865  31.496  38.231   1.865
43441W        W15866  14.478   7.236   1.697
43442W        W15867   0.811  38.408   4.575
43443W        W15868  32.372  27.733   3.193
43444W        W15869   6.544  39.865   2.232
43445W        W15870  32.326  44.829   1.195
43446W        W15871   5.643  14.232   4.580
43447W        W15872  33.226  42.480   9.916
43448W        W15873  40.026  29.014   4.596
43449W        W15874  29.330   0.894  12.923
43450W        W15875  31.854  16.053   0.741
43451W        W15876  37.519  12.267   3.087
43452W        W15877  20.713   8.832  12.293
43453W        W15878  36.967   4.409  11.466
43454W        W15879  40.999  29.741  14.842
43455W        W15880  26.451  25.514  12.560
43456W        W15881   5.265  25.812  12.926
43457W        W15882   5.227   5.374  11.007
43458W        W15883  21.060   1.560   4.175
43459W        W15884  44.795  41.304  10.702
43460W        W15885  43.798  17.247  14.138
43461W        W15886   5.859  28.470  11.622
43462W        W15887  26.341  16.779   3.071
43463W        W15888  23.737  38.970  10.888
43464W        W15889  32.528  31.849   1.490
43465W        W15890   4.682  35.854   2.764
43466W        W15891  10.846   9.730  14.426
43467W        W15892  39.489  37.510   0.236
43468W        W15893  30.356  18.222   4.098
43469W        W15894  10.251  23.453  12.549
43470W        W15895   4.090  19.309  11.573
43471W        W15896  16.792   2.866  12.889
43472W        W15897   5.404  29.509  11.242
43473W        W15898  39.848  24.399   0.746
43474W        W15899  31.204  21.800   0.420
43475W        W15900  10.122  27.203   3.145
43476W        W15901   3.534   7.410   0.900
43477W        W15902  11.750  17.086   0.803
43478W        W15903  42.391  23.010  14.388
43479W        W15904  15.671  34.595  11.904
43480W        W15905  16.273  12.061   4.615
43481W        W15906  26.588  15.847   1.540
43482W        W15907  33.568  33.375   0.344
43483W        W15908  39.751  42.838  12.060
43484W        W15909  38.750  32.824   3.584
43485W        W15910   6.700  19.911   2.151
43486W        W15911  32.214  20.755  14.317
43487W        W15912   6.984  18.575  13.399
43488W        W15913  15.913  25.138   3.427
43489W        W15914  43.437   3.852   2.455
43490W        W15915   2.070   3.902  14.798
43491W        W15916  33.856  16.253   2.451
43492W        W15917   0.849  39.473   1.728
43493W        W15918  13.622  28.686  14.335
43494W        W15919  25.093  44.403  11.546
43495W        W15920  26.758  25.994   0.500
43496W        W15921  16.088  31.103   5.449
43497W        W15922  36.403   0.893   0.429
43498W        W15923   9.716  43.578   1.506
43499W        W15924  13.843   0.800  13.365
43500W        W15925   3.003   1.123   3.049
43501W        W15926   6.108  12.081  10.689
43502W        W15927  10.357   8.264  14.746
43503W        W15928   4.707  12.421  10.018
43504W        W15929  25.958  42.359   0.896
43505W        W15930   7.032  17.606  11.250
43506W        W15931  39.484  26.602   3.037
43507W        W15932   7.286  30.480  14.519
43508W        W15933  30.465  27.216  11.974
43509W        W15934  16.724  37.298  13.839
43510W        W15935  25.554   5.284  13.080
43511W        W15936   3.526  30.089  14.708
43512W        W15937  11.344  38.065  11.088
43513W        W15938   4.321  17.976  13.171
43514W        W15939  42.070  24.453  11.608
43515W        W15940  10.313  26.960   1.762
43516W        W15941  44.420  26.675   3.232
43517W        W15942  13.091  31.354   4.326
43518W        W15943   8.132  43.930   1.700
43519W        W15944  39.928  34.308   0.086
43520W        W15945  27.647  15.546   4.571
43521W        W15946  26.732   7.246  11.591
43522W        W15947   2.488  40.051  11.701
43523W        W15948  32.878  15.542   2.469
43524W        W15949   8.711  21.692  14.909
43525W        W15950  10.204  43.571   1.346
43526W        W15951  41.517  33.283  13.975
43527W        W15952  37.085  12.475  14.332
43528W        W15953  19.616   7.097   1.727
43529W        W15954  13.183  31.886  12.015
43530W        W15955  26.116  34.925  14.828
43531W        W15956  16.184  33.898   1.444
43532W        W15957  22.208   9.301  14.256
43533W        W15958  30.575  12.111   0.957
43534W        W15959  15.903  11.105  14.403
43535W        W15960  10.350   2.810   3.510
43536W        W15961  38.010  18.111   3.382
43537W        W15962  41.320  40.499   2.710
43538W        W15963  12.166  40.601  13.947
43539W        W15964  29.538  34.163  14.233
43540W        W15965  38.428  33.412   1.852
43541W        W15966  32.523  36.754  11.549
43542W        W15967   2.351  19.803   0.964
43543W        W15968   2.934  12.108   2.093
43544W        W15969   6.156  28.559   0.398
43545W        W15970  35.888   2.443   2.413
43546W        W15971   8.809  31.568   4.694
43547W        W15972  40.595  15.421  13.841
43548W        W15973  16.240  29.708   2.667
43549W        W15974  12.931  26.925   3.366
43550W        W15975  34.196  38.014   1.226
43551W        W15976  40.761   5.337  10.875
43552W        W15977  19.130  30.570  12.480
43553W        W15978   3.932  31.990  14.451
43554W        W15979  24.042  32.854   1.210
43555W        W15980  24.197  36.317  11.551
43556W        W15981  13.401  43.569  13.154
43557W        W15982   2.805  41.863   0.034
43558W        W15983  13.022  24.724  11.532
43559W        W15984  18.002   2.401   2.890
43560W        W15985  31.613  28.451   2.125
43561W        W15986  39.918  43.985   0.612
43562W        W15987  27.019   2.972   3.938
43563W        W15988  12.871  44.996   1.167
43564W        W15989  40.756   2.079   1.885
43565W        W15990  38.638  40.239   2.790
43566W        W15991  38.630  42.072  13.259
43567W        W15992  24.837  30.140  11.583
43568W        W15993  33.023  12.668   1.742
43569W        W15994  37.889   1.445   3.133
43570W        W15995   0.273  26.050   4.218
43571W        W15996  32.945   0.899   0.888
43572W        W15997  30.655  30.905  12.152
43573W        W15998  38.251  41.140  10.974
43574W        W15999   1.424  39.332  14.748
43575W        W16000   6.390   6.669  11.487
43576W        W16001  35.614  26.901  12.494
43577W        W16002   5.934   4.875   0.324
43578W        W16003   8.752   1.883  14.964
43579W        W16004  19.486   7.262   3.403
43580W        W16005  11.852  19.202  14.694
43581W        W16006   4.815  17.655   2.606
43582W        W16007  17.537   8.697  10.916
43583W        W16008  14.220  41.544   1.015
43584W        W16009  17.573  28.567  12.404
43585W        W16010  44.184  30.136  14.815
43586W        W16011   7.533  29.130  10.687
43587W        W16012  20.643   7.374   4.378
43588W        W16013  11.398   6.026  13.873
43589W        W16014  35.264  11.662   1.012
43590W        W16015  10.740  37.309   2.804
43591W        W16016   0.841  32.633  11.463
43592W        W16017   0.341  13.099  14.802
43593W        W16018  33.270   3.184  11.059
43594W        W16019  10.940  28.767   1.216
43595W        W16020  21.450  39.587  12.797
43596W        W16021   9.787  38.543  12.351
43597W        W16022  12.126  13.977  11.135
43598W        W16023  10.543  26.882  11.068
43599W        W16024  25.034   5.422  14.825
43600W        W16025  32.686   1.362   0.907
43601W        W16026  22.452  16.085   2.220
43602W        W16027  32.585   4.552  14.346
43603W        W16028  42.049   6.698  12.354
43604W        W16029  38.818  34.539  12.395
43605W        W16030  32.013  13.759  10.602
43606W        W16031  31.805  29.225  10.200
43607W        W16032  11.001  43.918  11.528
43608W        W16033  22.895   9.313   4.029
43609W        W16034  28.687  37.935   2.372
43610W        W16035  16.810  39.047   4.780
43611W        W16036   7.938  32.965   0.495
43612W        W16037   0.994  22.712  11.769
43613W        W16038  15.821  10.314   0.845
43614W        W16039   9.257   1.246  13.988
43615W        W16040  19.833  27.044   3.304
43616W        W16041  21.191   6.855  10.347
43617W        W16042  29.936  12.952   2.762
43618W        W16043   5.733  21.502   2.127
43619W        W16044  36.506   0.314   2.860
43620W        W16045  40.010  32.276  14.221
43621W        W16046  16.092  22.058  11.865
43622W        W16047  25.161  10.798  10.668
43623W        W16048   7.170  28.069  13.700
43624W        W16049  44.926  11.221   4.645
43625W        W16050  30.143   6.796   4.099
43626W        W16051  43.688  25.879   2.124
43627W        W16052  22.374  12.500   0.497
43628W        W16053  25.794  10.616   1.309
43629W        W16054  29.022  43.949  11.480
43630W        W16055  41.385  26.041   2.283
43631W        W16056  44.483  34.409   3.661
43632W        W16057  41.405  26.977  12.251
43633W        W16058  13.665  30.779   2.430
43634W        W16059   4.088  14.492   3.179
43635W        W16060  13.970   7.616   4.238
43636W        W16061  30.531  24.981  13.852
43637W        W16062  40.945   4.273   2.463
43638W        W16063   4.782   8.891   4.164
43639W        W16064  31.114  27.713  12.155
43640W        W16065  40.261   2.549   3.199
43641W        W16066  20.234   6.379  13.861
43642W        W16067  38.484  15.826  10.630
43643W        W16068  27.919   1.940   4.303
43644W        W16069  19.355  25.175   3.273
43645W        W16070  44.527  16.062  12.844
43646W        W16071  13.578  41.597  11.052
43647W        W16072  20.283  28.273  14.967
43648W        W16073  16.629   0.778  14.045
43649W        W16074  33.981  22.481  13.100
43650W        W16075  20.480  31.359   5.102
43651W        W16076  28.269   2.182   0.053
43652W        W16077  28.960  40.369   2.055
43653W        W16078  11.798   9.352  11.371
43654W        W16079  37.535  27.945   3.941
43655W        W16080   8.288   2.505  12.541
43656W        W16081  29.637   4.700  14.791
43657W        W16082   8.329  11.092  14.550
43658W        W16083  27.282  31.493   4.052
43659W        W16084  14.629   4.050  14.809
43660W        W16085  25.572  32.397   3.373
43661W        W16086  41.005  23.487   0.221
43662W        W16087  23.773  39.234   4.483
43663W        W16088  14.552  12.392  11.593
43664W        W16089  40.938  37.594   2.322
43665W        W16090   9.488   1.538   4.210
43666W        W16091   5.486  28.639  11.265
43667W        W16092   5.350   8.891   0.791
43668W        W16093  32.105  10.462  13.071
43669W        W16094   3.443  20.195  13.015
43670W        W16095   9.793  39.053   1.984
43671W        W16096  40.989  16.712   1.830
43672W        W16097  10.261  29.238  13.856
43673W        W16098  30.139  44.122   3.761
43674W        W16099  20.280   7.886   0.475
43675W        W16100  27.962  41.698   2.682
43676W        W16101  23.040  20.578   3.798
43677W        W16102   3.451   1.433  11.406
43678W        W16103   3.433  29.087  12.077
43679W        W16104  40.233   7.241  11.137
43680W        W16105   9.705  20.965   3.566
43681W        W16106  35.896  40.749  14.457
43682W        W16107  11.207   5.036  13.926
43683W        W16108  29.051  30.973  11.510
43684W        W16109   8.758   3.318   4.016
43685W        W16110   8.964   7.204  11.175
43686W        W16111  20.567   7.661  12.498
43687W        W16112   7.628  26.401  14.831
43688W        W16113  28.515  28.564  12.929
43689W        W16114  35.902   0.128  11.291
43690W        W16115   0.730   6.879   0.998
43691W        W16116   3.992  21.822   1.646
43692W        W16117  43.289   6.286   0.231
43693W        W16118  43.415  11.405  14.805
43694W        W16119  42.720  35.371   1.254
43695W        W16120  39.367  14.392  13.441
43696W        W16121  14.235  25.662   2.714
43697W        W16122  29.898   2.305   1.275
43698W        W16123  39.836   9.707   4.519
43699W        W16124  21.713  38.523  13.838
43700W        W16125  17.321  38.536   4.177
43701W        W16126  37.971  15.611  10.660
43702W        W16127  38.755  27.618  13.023
43703W        W16128  15.677  14.861  10.672
43704W        W16129  32.780   8.234  14.401
43705W        W16130   4.782   7.261  10.636
43706W        W16131  30.121  22.148   1.406
43707W        W16132   1.953  20.804  13.882
43708W        W16133   9.688  42.365  13.931
43709W        W16134   6.819  37.858   1.673
43710W        W16135  15.768  19.569  14.461
43711W        W16136  42.349  34.892   2.172
43712W        W16137  10.824  25.665   4.668
43713W        W16138  39.128  36.698   0.422
43714W        W16139   6.220  43.544  14.732
43715W        W16140  27.306  40.618   4.411
43716W        W16141  18.716  26.212  11.077
43717W        W16142  15.790  12.297   0.939
43718W        W16143  15.576   7.118  10.807
43719W        W16144  22.010  37.798  13.300
43720W        W16145   3.354  15.144   4.779
43721W        W16146  37.306   5.130  12.169
43722W        W16147  10.324  14.626   2.814
43723W        W16148   3.327  24.074   1.073
43724W        W16149  40.918   1.749   0.106
43725W        W16150  41.577  41.124   3.830
43726W        W16151  15.584  13.335   1.796
43727W        W16152  42.495  29.855  12.551
43728W        W16153  42.992  41.913  10.679
43729W        W16154   8.749  43.566  13.889
43730W        W16155   5.079  31.360   4.548
43731W        W16156  14.574  39.973   1.706
43732W        W16157  25.019  30.426  14.992
43733W        W16158   2.345  14.265  10.305
43734W        W16159  34.589  22.494   1.806
43735W        W16160  18.031  10.880   1.171
43736W        W16161   5.701   3.526   2.270
43737W        W16162  39.114  18.699   1.505
43738W        W16163  42.075  15.073  12.054
43739W        W16164   9.882  26.880   4.842
43740W        W16165   7.878   8.918   3.838
43741W        W16166  31.506  23.086  14.014
43742W        W16167  29.403  15.124   0.817
43743W        W16168  36.482  15.328   3.246
43744W        W16169   3.538   7.125   3.937
43745W        W16170  31.941  14.839   2.482
43746W        W16171  21.553   2.342   4.163
43747W        W16172  24.102  28.529   4.703
43748W        W16173  35.975   6.058  11.649
43749W        W16174  27.746   7.207  13.048
43750W        W16175  44.533   9.350  10.408
43751W        W16176  43.480  31.528  13.804
43752W        W16177  10.634  38.780   0.239
43753W        W16178  27.938  22.375  11.552
43754W        W16179   5.778  25.139  10.664
43755W        W16180  34.704  13.881  11.412
43756W        W16181  27.922   1.246  13.511
43757W        W16182  43.464  22.550  11.950
43758W        W16183  26.244   0.516   3.425
43759W        W16184   1.276   0.025   4.032
43760W        W16185   8.290  16.020   4.118
43761W        W16186  24.019  13.287  14.380
43762W        W16187  10.683  15.733   4.925
43763W        W16188  32.328  17.953  13.048
43764W        W16189  20.538  36.121   3.587
43765W        W16190  41.035  15.137  12.022
43766W        W16191   2.684  38.228  13.824
43767W        W16192   9.752  38.529   3.347
43768W        W16193  11.170   3.446  12.475
43769W        W16194  11.295  11.319  13.008
43770W        W16195  14.321  44.895  10.703
43771W        W16196  15.561  24.774   0.546
43772W        W16197  11.416   6.129  13.011
43773W        W16198  36.467  28.027  12.080
43774W        W16199  43.868  34.994  11.443
43775W        W16200  25.206  36.114  12.364
43776W        W16201  22.714   9.994  12.355
43777W        W16202   2.692  36.385   4.111
43778W        W16203   2.880   8.541  14.593
43779W        W16204  42.695  44.534   3.561
43780W        W16205  30.549   3.273   5.100
43781W        W16206   5.704  28.947   1.309
43782W        W16207   5.320  30.133   4.105
43783W        W16208  32.596   7.766   0.031
43784W        W16209  17.610  19.809  13.527
43785W        W16210  24.164  16.559  11.747
43786W        W16211  12.746  44.399   2.904
43787W        W16212   8.529   1.923   3.603
43788W        W16213  44.772   6.761  11.939
43789W        W16214   0.897   4.396   1.730
43790W        W16215  16.441  37.573   3.573
43791W        W16216  29.592  18.758  14.002
43792W        W16217  29.744  25.509  13.122
43793W        W16218  34.811  24.625   4.284
43794W        W16219  37.889  24.987  10.620
43795W        W16220  36.103  43.277  11.040
43796W        W16221  32.129  16.831   0.963
43797W        W16222  42.885  24.562   3.175
43798W        W16223  34.024  21.366   1.983
43799W        W16224  22.801   2.248   2.644
43800W        W16225   7.191  16.810  10.676
43801W        W16226   2.212  41.488  10.721
43802W        W16227  18.745   5.672   3.890
43803W        W16228  13.513  21.019  10.667
43804W        W16229  19.693  39.267  14.438
43805W        W16230   5.436   9.164  13.436
43806W        W16231  16.106  40.997  13.093
43807W        W16232  38.543  34.839  11.149
43808W        W16233  31.613  27.670   2.781
43809W        W16234   5.227   1.840  12.114
43810W        W16235  30.011   6.230  11.250
43811W        W16236  35.054  36.746   2.260
43812W        W16237  11.825  12.820   4.863
43813W        W16238   4.635  14.596   1.001
43814W        W16239  14.475   0.554  10.939
43815W        W16240   2.967  17.970   4.196
43816W        W16241  19.668   9.185  13.863
43817W        W16242  23.895  29.852   2.332
43818W        W16243   5.443  17.784  11.194
43819W        W16244   0.054  27.535  11.558
43820W        W16245  15.858   6.403  11.006
43821W        W16246   8.814   1.134  13.271
43822W        W16247  24.984   0.941   4.884
43823W        W16248  17.284  11.664   0.937
43824W        W16249  27.203  12.247  12.558
43825W        W16250   8.786  11.109   0.836
43826W        W16251  29.354  16.588   3.698
43827W        W16252  28.847   8.343  10.899
43828W        W16253  22.304  32.327   2.510
43829W        W16254  28.128  28.116   0.264
43830W        W16255  34.331  38.556  11.699
43831W        W16256  31.979  10.872  14.523
43832W        W16257  18.229  25.657  14.758
43833W        W16258   7.623  34.042  13.557
43834W        W16259  23.065  28.227   2.214
43835W        W16260  37.378  38.075  11.973
43836W        W16261  28.293  12.862   3.711
43837W        W16262  24.422  26.072   0.342
43838W        W16263  20.277  39.543   0.425
43839W        W16264  22.011  20.268  14.774
43840W        W16265  19.258  15.161   1.885
43841W        W16266  34.550   8.829   1.257
43842W        W16267   3.266  24.526  14.967
43843W        W16268  22.588   3.202   4.098
43844W        W16269   2.321  30.882  13.945
43845W        W16270  41.818  16.427  11.472
43846W        W16271   4.648  24.492  14.537
43847W        W16272  44.994  41.764  12.321
43848W        W16273   0.764  32.577   4.183
43849W        W16274  29.992   7.197  12.616
43850W        W16275  38.402   8.308  11.165
43851W        W16276  19.648   5.109   4.872
43852W        W16277   6.962  33.596  14.829
43853W        W16278  27.509  13.213  14.515
43854W        W16279  37.559  25.702  13.987
43855W        W16280  39.491  22.845  11.068
43856W        W16281  18.347  21.495  14.883
43857W        W16282  33.940  14.166  11.994
43858W        W16283   8.084  43.115  10.882
43859W        W16284  39.560   3.680  12.611
43860W        W16285   3.264  41.458  10.701
43861W        W16286   7.289   0.971   4.102
43862W        W16287  39.882  39.318  10.564
43863W        W16288   4.677  42.695   0.743
43864W        W16289  39.415  44.022   3.377
43865W        W16290  17.350   3.630   2.810
43866W        W16291   2.080  10.421  12.332
43867W        W16292  21.129  36.617   1.392
43868W        W16293  17.689  27.962   0.288
43869W        W16294  41.685   8.825  14.713
43870W        W16295  12.203  26.743   1.511
43871W        W16296   2.011  38.116   0.019
43872W        W16297  12.635  17.468   0.486
43873W        W16298  32.625  33.059  11.702
43874W        W16299  21.148  14.859  12.311
43875W        W16300  36.079  40.860  12.205
43876W        W16301  19.550  10.025   3.262
43877W        W16302  33.289  19.563   4.583
43878W        W16303   6.426  36.458  11.547
43879W        W16304  16.168   6.774  14.818
43880W        W16305   3.122  13.332   5.113
43881W        W16306   4.481  20.598   2.208
43882W        W16307  28.058  17.105  12.531
43883W        W16308  17.084  30.444   0.643
43884W        W16309  44.605  17.230   4.608
43885W        W16310  38.607   5.048   1.946
43886W        W16311  14.822  34.091  10.996
43887W        W16312  43.814   7.428  11.231
43888W        W16313  13.119  42.281   1.317
43889W        W16314  39.904  18.751  12.488
43890W        W16315   3.826  29.565   0.836
43891W        W16316  23.704  21.163  11.160
43892W        W16317  10.609  31.172   3.751
43893W        W16318  31.595  26.644   1.992
43894W        W16319  15.548  32.507   0.059
43895W        W16320  38.962  44.686   2.279
43896W        W16321   6.718   2.797   2.511
43897W        W16322  39.817  16.295  11.623
43898W        W16323  25.441  38.863  13.293
43899W        W16324  25.167  22.137   0.024
43900W        W16325  39.319  25.087  11.576
43901W        W16326   2.358  35.015   3.320
43902W        W16327  38.946  11.028   1.330
43903W        W16328   7.428  41.788   3.188
43904W        W16329  37.780  26.279  11.649
43905W        W16330  10.615  41.220  10.857
43906W        W16331  11.423   4.423  12.090
43907W        W16332   9.175  25.247  12.861
43908W        W16333   2.361  12.883   2.408
43909W        W16334  33.898  11.528   3.726
43910W        W16335  24.434   8.191  10.982
43911W        W16336  40.220  38.053  13.125
43912W        W16337  25.358  15.070  13.574
43913W        W16338  14.791  19.282  14.003
43914W        W16339  34.414  11.663   1.308
43915W        W16340  36.428  28.986  12.144
43916W        W16341   4.247  44.950  11.535
43917W        W16342  31.174  13.548  12.869
43918W        W16343   6.456  44.934  12.028
43919W        W16344  36.833  41.263  13.284
43920W        W16345  32.121  42.321  14.576
43921W        W16346  14.191  32.195  13.358
43922W        W16347   3.857  26.246  11.608
43923W        W16348  37.437   2.024   1.385
43924W        W16349   0.977  15.415   4.063
43925W        W16350  21.077  23.589   4.522
43926W        W16351   9.347  37.497   4.404
43927W        W16352  35.020  43.845  13.553
43928W        W16353  31.402  25.520   4.637
43929W        W16354   3.463  10.930  13.514
43930W        W16355  29.440  24.718  10.688
43931W        W16356  34.633   7.774  12.976
43932W        W16357  33.636  22.533  14.787
43933W        W16358  32.492  25.951  12.405
43934W        W16359  13.599  42.549   3.362
43935W        W16360  33.309   9.659  12.489
43936W        W16361  11.151  17.057   2.757
43937W        W16362  33.612  38.362  10.622
43938W        W16363  36.546   4.335  11.178
43939W        W16364  30.182  30.913   0.923
43940W        W16365   5.669  31.876  10.829
43941W        W16366   9.117   3.407   1.958
43942W        W16367   4.767  29.836  12.114
43943W        W16368  16.812  23.580  14.972
43944W        W16369  30.396   8.785   4.762
43945W        W16370   8.573   6.729  12.035
43946W        W16371  27.098  13.760  10.667
43947W        W16372  18.272  11.447  12.010
43948W        W16373   2.539  32.114  12.590
43949W        W16374  15.236   0.059   2.750
43950W        W16375  32.823   5.081  13.251
43951W        W16376  36.407  35.347  14.429
43952W        W16377  35.893  22.550  14.535
43953W        W16378  24.990  42.347  12.752
43954W        W16379  40.322  11.703  11.008
43955W        W16380  20.482  11.200  11.521
43956W        W16381  18.755  37.331  14.740
43957W        W16382  17.082  22.241  13.880
43958W        W16383   9.739  34.385  14.034
43959W        W16384   6.083  22.535  11.243
43960W        W16385   3.177  15.782   1.828
43961W        W16386  30.175   6.785   2.226
43962W        W16387  34.234  16.144   0.914
43963W        W16388   8.483   3.701  13.992
43964W        W16389   7.380  15.836   3.451
43965W        W16390   5.653   8.683   4.220
43966W        W16391  20.313  43.398  12.118
43967W        W16392  38.966   8.080   3.749
43968W        W16393  16.733   8.772   2.143
43969W        W16394   9.384   2.191  12.081
43970W        W16395  43.993  22.421   4.580
43971W        W16396  36.411  41.473   2.980
43972W        W16397  35.435   2.326   3.224
43973W        W16398  11.435  41.902  10.765
43974W        W16399   0.779  39.358   2.932
43975W        W16400   5.912  15.598   4.217
43976W        W16401  19.141   6.674  14.350
43977W        W16402  42.324  43.365   2.336
43978W        W16403  36.851  11.472  14.418
43979W        W16404  29.715  14.269   4.634
43980W        W16405  11.586  23.563  11.497
43981W        W16406  29.685  20.854  12.577
43982W        W16407  10.686  35.573  13.533
43983W        W16408   2.521  22.113  12.428
43984W        W16409  29.254  19.978  11.919
43985W        W16410   0.788  23.930  13.422
43986W        W16411  26.020   0.924  10.641
43987W        W16412  14.629  23.484  13.144
43988W        W16413   4.345  15.296  12.421
43989W        W16414   3.223  23.961   3.697
43990W        W16415  31.087  35.781   1.731
43991W        W16416  19.090  13.326  10.739
43992W        W16417  28.866  24.036   3.360
43993W        W16418  37.428  33.848  10.594
43994W        W16419  32.555  14.659  12.915
43995W        W16420  13.012  33.352  11.268
43996W        W16421  31.543  39.317  11.105
43997W        W16422  16.651  34.772  13.876
43998W        W16423  23.739  11.246  12.834
43999W        W16424  40.285  14.539   1.746
44000W        W16425   1.072   8.880  12.131
44001W        W16426   4.844  33.444   5.046
44002W        W16427   2.759  22.047   0.831
44003W        W16428  25.688  34.404   1.044
44004W        W16429  26.778  31.378  13.021
44005W        W16430  19.320  28.516  13.477
44006W        W16431  43.758  38.906   2.271
44007W        W16432   0.326  38.910  12.333
44008W        W16433  31.803  40.896  14.475
44009W        W16434   6.309   6.671   0.449
44010W        W16435  34.150   4.016  13.543
44011W        W16436  44.424  11.389  11.623
44012W        W16437  32.461  23.317  11.383
44013W        W16438  15.930  21.892  10.011
44014W        W16439  29.122   1.666  14.808
44015W        W16440  41.453  15.419   2.882
44016W        W16441  42.975  28.969  12.914
44017W        W16442  35.124  20.390  11.990
44018W        W16443  10.936  42.412   1.173
44019W        W16444   7.895  32.895   2.378
44020W        W16445   9.444  33.393  14.042
44021W        W16446  23.348  41.088  14.989
44022W        W16447  33.293  32.260  11.618
44023W        W16448   7.327  31.919  12.793
44024W        W16449   2.254  42.470   1.777
44025W        W16450  29.816  44.922   1.209
44026W        W16451   5.306   3.396  11.710
44027W        W16452   3.549  24.939   2.015
44028W        W16453  37.623  23.617  13.639
44029W        W16454  42.563  19.654  14.933
44030W        W16455  33.928  38.054   0.158
44031W        W16456  35.237   4.865  12.165
44032W        W16457   6.973  16.288   2.794
44033W        W16458  22.608  24.111  12.253
44034W        W16459  20.654  35.089  14.368
44035W        W16460  15.600  38.491  12.144
44036W        W16461  20.241  27.890   2.653
44037W        W16462  11.096  35.419   4.669
44038W        W16463   1.998  14.557  11.825
44039W        W16464  38.857  39.804   2.955
44040W        W16465   7.286  15.850  14.697
44041W        W16466  12.599   6.739  12.596
44042W        W16467  20.686   2.504   0.400
44043W        W16468   3.242   1.958   1.742
44044W        W16469   0.429  30.258   3.765
44045W        W16470  35.457  36.620  12.062
44046W        W16471   3.642  18.635  11.090
44047W        W16472   5.423  40.370  11.224
44048W        W16473  41.998  23.618  10.220
44049W        W16474  40.477   6.327   2.785
44050W        W16475   0.954   1.484  14.572
44051W        W16476  34.174  44.011  11.670
44052W        W16477  28.992  33.967  10.600
44053W        W16478  17.686  38.012   3.074
44054W        W16479  27.673  25.529   4.067
44055W        W16480  30.710  25.523  11.528
44056W        W16481  28.729   4.445  13.854
44057W        W16482  22.018  44.430   2.665
44058W        W16483  33.861   1.925   4.164
44059W        W16484  14.761  43.745   1.396
44060W        W16485  30.000   1.817   4.912
44061W        W16486   3.976  30.638  14.556
44062W        W16487  12.806  42.262  13.533
44063W        W16488   8.723  16.688  13.405
44064W        W16489  40.734  34.624   3.081
44065W        W16490  12.589  38.034  12.388
44066W        W16491   8.874  40.840   3.674
44067W        W16492  43.191  42.345   1.636
44068W        W16493  39.495   5.940   2.835
44069W        W16494  35.973   9.425   3.568
44070W        W16495   6.976  29.548  13.795
44071W        W16496  23.014  38.493   0.803
44072W        W16497  18.272  15.707   2.805
44073W        W16498  25.193  22.636   2.239
44074W        W16499  11.688  26.174  10.082
44075W        W16500  12.488  12.231  12.875
44076W        W16501  22.531  32.826   1.815
44077W        W16502  16.188  20.212   2.984
44078W        W16503  28.922  37.411   1.968
44079W        W16504  36.391  20.854  12.454
44080W        W16505  36.907  10.163   2.790
44081W        W16506  39.834  34.642   0.474
44082W        W16507   0.372  33.871  12.962
44083W        W16508  19.572  33.565   4.566
44084W        W16509  29.007  11.290  14.327
44085W        W16510  15.005  18.057  11.376
44086W        W16511  40.816   0.605  14.367
44087W        W16512  37.282  20.338  13.321
44088W        W16513   9.686   0.466   4.515
44089W        W16514  17.104  34.787  10.710
44090W        W16515   3.510  12.982   4.263
44091W        W16516   0.380   9.643   0.886
44092W        W16517  17.491  31.380  12.633
44093W        W16518  41.070  12.178  10.836
44094W        W16519  20.831  28.891   2.579
44095W        W16520  30.085  40.357   0.902
44096W        W16521  29.986  19.572   0.213
44097W        W16522  32.612  38.570   1.212
44098W        W16523   4.304  37.514  14.494
44099W        W16524  30.362   9.189  14.875
44100W        W16525  42.113   0.174   1.263
44101W        W16526  36.506   9.936   0.863
44102W        W16527   4.402  40.998   2.592
44103W        W16528   9.676  43.246   2.454
44104W        W16529  28.739  39.638  12.423
44105W        W16530  15.176  42.839  10.558
44106W        W16531  38.346   3.935   2.103
44107W        W16532  24.245  32.443  13.046
44108W        W16533  38.859  24.683  11.186
44109W        W16534  10.174   4.472  11.557
44110W        W16535  27.730  32.794  10.818
44111W        W16536   0.189  34.868   1.891
44112W        W16537   9.839  21.194  12.828
44113W        W16538   2.548  16.964   4.502
44114W        W16539  23.634  35.659  12.862
44115W        W16540  28.994  39.462   2.317
44116W        W16541  13.581  10.735  10.697
44117W        W16542   4.480  34.417  11.366
44118W        W16543  13.315  31.868   2.426
44119W        W16544  30.682  41.004   4.756
44120W        W16545  18.169  22.144  11.412
44121W        W16546  39.934  34.328   0.897
44122W        W16547  10.482  10.087   2.663
44123W        W16548  41.542   2.526  14.363
44124W        W16549   7.350  21.144   5.042
44125W        W16550  25.682  10.637  14.418
44126W        W16551   2.211  30.988   4.568
44127W        W16552   5.732  19.309   4.508
44128W        W16553   5.350  40.559   2.754
44129W        W16554  43.878  14.599  12.178
44130W        W16555  32.992  41.265   4.307
44131W        W16556  41.130  11.869   4.159
44132W        W16557  25.210   6.723   4.650
44133W        W16558  21.188  19.681   0.048
44134W        W16559   5.703  13.239   1.961
44135W        W16560   5.445   7.201   4.160
44136W        W16561  40.850   3.863   0.739
44137W        W16562  12.550  38.603   0.453
44138W        W16563   2.820  11.202  14.116
44139W        W16564  31.429   3.482  10.466
44140W        W16565  34.406  24.772  12.468
44141W        W16566  19.489  18.173  13.344
44142W        W16567   3.691  22.076  13.531
44143W        W16568   5.237   6.328  11.069
44144W        W16569   0.792  14.106  11.564
44145W        W16570   3.902   1.159  12.179
44146W        W16571  29.095   0.018  11.520
44147W        W16572   2.037  16.185   4.003
44148W        W16573  12.214   3.431   1.807
44149W        W16574  26.464  30.052   4.400
44150W        W16575  42.467  36.731   0.027
44151W        W16576   9.778   4.818  13.455
44152W        W16577  40.812  15.658   2.576
44153W        W16578  35.560  20.727  11.975
44154W        W16579  14.302  39.309   2.568
44155W        W16580  19.131   1.351   3.905
44156W        W16581  18.123   9.922   3.680
44157W        W16582  31.211  23.261   1.271
44158W        W16583  36.060  33.996  12.561
44159W        W16584  25.273   4.428  11.567
44160W        W16585   1.046  44.145   3.334
44161W        W16586  36.404   5.672  10.925
44162W        W16587  30.911  32.641   4.364
44163W        W16588  14.233  24.620  12.566
44164W        W16589   6.838  37.751   4.651
44165W        W16590   5.872   6.815  11.504
44166W        W16591  13.556  14.614  11.492
44167W        W16592   0.482   3.284   1.474
44168W        W16593   3.239  11.460   0.285
44169W        W16594  41.799  12.829   4.610
44170W        W16595  29.986  42.493   3.224
44171W        W16596   6.644  31.704   2.003
44172W        W16597  14.425  34.142   2.211
44173W        W16598  17.296   7.291  11.567
44174W        W16599  26.179  42.929  11.165
44175W        W16600  18.360   5.878  12.863
44176W        W16601  11.362  28.575  11.987
44177W        W16602  40.482  31.697  13.865
44178W        W16603  26.876  26.575  14.315
44179W        W16604  31.149  38.471  12.534
44180W        W16605  14.810   3.323  10.538
44181W        W16606  30.460   0.525  14.525
44182W        W16607   4.337   3.226   4.741
44183W        W16608  30.590  33.412   1.124
44184W        W16609  30.921  36.335  13.107
44185W        W16610  23.336  42.089  14.927
44186W        W16611  10.082  24.568   1.876
44187W        W16612  42.177  11.445   2.699
44188W        W16613  25.027  35.384   3.303
44189W        W16614  14.118   7.587   4.808
44190W        W16615  16.568  21.891   4.510
44191W        W16616   1.561   4.275  13.897
44192W        W16617  14.238   8.360   4.109
44193W        W16618  16.736  38.075   2.896
44194W        W16619  11.283  30.495   0.528
44195W        W16620  21.676  42.907  11.035
44196W        W16621  35.065   0.122  14.937
44197W        W16622  13.915  22.578   2.331
44198W        W16623  11.582  25.830   4.293
44199W        W16624  12.360  10.376  14.432
44200W        W16625  44.283  18.548  12.468
44201W        W16626  11.919  23.100   3.587
44202W        W16627  27.136  12.193  13.947
44203W        W16628  23.123  22.695   4.677
44204W        W16629   3.188   9.150  12.372
44205W        W16630  19.054  33.561  11.922
44206W        W16631   5.544  20.969  12.718
44207W        W16632  29.599  43.391  14.997
44208W        W16633   7.745  27.094  13.494
44209W        W16634  42.757   9.349   4.141
44210W        W16635  20.005  12.659   3.093
44211W        W16636   3.133  35.437   4.199
44212W        W16637  16.931  30.972   2.249
44213W        W16638  18.231  20.170  14.367
44214W        W16639  16.287  39.130  14.837
44215W        W16640   8.711  44.770   1.469
44216W        W16641   4.352  12.322  12.452
44217W        W16642  42.262  34.031   1.645
44218W        W16643  30.137  28.067  14.492
44219W        W16644  21.286  27.211  12.551
44220W        W16645  17.013  27.553  10.460
44221W        W16646  43.688  32.470  11.160
44222W        W16647   8.523  29.757   3.733
44223W        W16648  21.189   6.677   0.818
44224W        W16649  17.364  24.712  12.436
44225W        W16650  41.884  38.312   0.302
44226W        W16651   5.282  15.029  12.816
44227W        W16652  23.156  40.917   1.796
44228W        W16653  19.805  10.410  13.416
44229W        W16654   9.871  41.364   0.406
44230W        W16655  13.608  22.630  14.791
44231W        W16656  13.290  25.049  10.960
44232W        W16657   0.554  19.114   3.281
44233W        W16658  33.089  39.516  14.325
44234W        W16659   5.586  35.593  11.950
44235W        W16660  23.996  43.648   2.647
44236W        W16661  36.569  19.523  12.999
44237W        W16662   4.741  24.111  10.637
44238W        W16663  44.523  17.777   2.414
44239W        W16664  19.555  39.277  11.913
44240W        W16665  15.543   6.013   0.818
44241W        W16666  34.436  10.221   0.716
44242W        W16667  12.664  21.601   1.782
44243W        W16668   9.721  27.973   4.276
44244W        W16669   0.777  30.521   4.577
44245W        W16670   5.999  23.008  10.365
44246W        W16671  24.324  27.084  13.420
44247W        W16672  42.902  33.885  13.783
44248W        W16673  14.982  16.215   1.695
44249W        W16674  41.451  32.162  10.408
44250W        W16675   0.925  25.715  10.557
44251W        W16676   6.230  12.699   4.622
44252W        W16677   4.090   6.290  14.720
44253W        W16678  29.484  15.508  13.041
44254W        W16679  37.219  21.998   3.041
44255W        W16680   6.701  40.013  13.263
44256W        W16681  16.135  37.427  12.977
44257W        W16682  39.143  39.906  10.125
44258W        W16683  36.891  34.572   0.618
44259W        W16684  44.485   9.839  14.060
44260W        W16685  16.891  29.520  10.603
44261W        W16686  10.392  36.107   2.424
44262W        W16687  25.595  30.197  14.399
44263W        W16688  35.606  16.196   1.247
44264W        W16689  34.840  34.298  12.824
44265W        W16690   8.618  28.522   0.517
44266W        W16691  29.886  25.353  11.840
44267W        W16692  32.191  42.645   3.648
44268W        W16693  29.545  43.950  14.976
44269W        W16694  11.606  27.045   2.325
44270W        W16695  33.449  15.101  10.087
44271W        W16696  19.798  14.081   5.081
44272W        W16697   6.055   0.277  13.148
44273W        W16698  35.057  33.830   0.959
44274W        W16699  11.709  21.251   1.763
44275W        W16700  13.323  31.914   3.305
44276W        W16701  39.341  27.231   2.167
44277W        W16702  38.316  41.672  12.177
44278W        W16703  16.779  28.920   2.281
44279W        W16704  11.867   1.394  14.281
44280W        W16705  44.201  33.088  12.498
44281W        W16706  12.118   8.301   4.691
44282W        W16707  21.554   7.635   3.774
44283W        W16708  35.826  32.930  11.989
44284W        W16709  31.181  31.755   4.355
44285W        W16710  29.538  21.574  11.088
44286W        W16711   3.690  31.637   2.674
44287W        W16712   0.679  20.612  13.044
44288W        W16713  27.614  22.894   2.214
44289W        W16714  43.195  41.379   3.316
44290W        W16715   2.794   3.219   1.510
44291W        W16716  14.732  22.656  13.579
44292W        W16717  34.964  20.283  14.297
44293W        W16718  27.598   4.853  13.512
44294W        W16719  20.638  36.072   4.491
44295W        W16720   5.699  12.740   4.603
44296W        W16721   2.931  16.128  12.684
44297W        W16722  21.117   6.318   2.617
44298W        W16723  41.942  31.449  10.742
44299W        W16724   8.178   6.904   1.173
44300W        W16725  11.239  39.367  13.942
44301W        W16726  24.285  16.983  14.284
44302W        W16727  24.969  11.861  10.768
44303W        W16728  34.322  39.252   2.293
44304W        W16729  14.712   0.386  14.043
44305W        W16730  25.676   1.277  14.298
44306W        W16731  44.240  39.068   2.415
44307W        W16732  12.275   4.249   4.138
44308W        W16733  10.894   3.786   2.113
44309W        W16734  41.851  38.404  14.377
44310W        W16735   8.901  21.831   3.444
44311W        W16736  28.348   6.831   3.264
44312W        W16737  44.979  25.480  10.802
44313W        W16738  20.268   3.239   3.714
44314W        W16739  35.905  12.132   4.677
44315W        W16740  24.066   2.136   4.117
44316W        W16741  26.188  19.357   2.737
44317W        W16742  29.126  19.930  14.303
44318W        W16743  44.468  12.748  10.176
44319W        W16744  20.651  31.853   5.353
44320W        W16745   5.388   1.082   3.250
44321W        W16746  17.510  24.520   3.656
44322W        W16747   9.667  22.534   1.736
44323W        W16748  27.064  10.353  14.023
44324W        W16749  20.309  35.185  11.076
44325W        W16750  27.035  11.717  11.410
44326W        W16751  18.067  21.633  14.420
44327W        W16752   0.265  24.916  11.628
44328W        W16753  18.990  41.100   1.810
44329W        W16754   1.192  16.468   0.022
44330W        W16755  10.726  23.072   1.292
44331W        W16756  18.702  36.972   2.105
44332W        W16757   3.410  11.515  14.371
44333W        W16758  17.255  21.637  13.559
44334W        W16759  35.092  30.169  13.511
44335W        W16760   6.808  43.245  13.067
44336W        W16761   5.330  18.587  13.603
44337W        W16762  44.543  13.833  12.461
44338W        W16763  24.602  44.471   4.232
44339W        W16764   1.253  12.091  11.523
44340W        W16765  17.087  15.016   2.388
44341W        W16766  26.597   9.038  10.810
44342W        W16767  40.386  26.211  13.951
44343W        W16768  35.599  24.038  13.087
44344W        W16769  15.823  42.955  14.819
44345W        W16770  12.840  14.256  14.920
44346W        W16771  10.325  24.971   1.662
44347W        W16772  19.603  11.155   2.396
44348W        W16773  31.003  24.319  12.741
44349W        W16774   4.346   9.563   4.376
44350W        W16775  13.617  31.378   0.830
44351W        W16776   2.278  39.973  11.173
44352W        W16777  27.399  20.522  11.209
44353W        W16778  22.642   3.924   3.182
44354W        W16779   8.219  10.808  12.463
44355W        W16780  15.232  30.606   0.240
44356W        W16781  17.090   1.718   2.258
44357W        W16782  20.911  18.674   3.630
44358W        W16783  10.807  12.363   3.249
44359W        W16784  11.359   9.602  14.458
44360W        W16785  23.548  10.120  10.160
44361W        W16786   7.773  33.029   0.982
44362W        W16787  13.085  43.793   0.446
44363W        W16788  44.417   1.073   4.646
44364W        W16789  27.681   0.990  12.078
44365W        W16790  44.372  36.210   5.072
44366W        W16791  27.503   6.383  13.517
44367W        W16792  27.029  18.113  12.456
44368W        W16793  17.718  22.421  11.476
44369W        W16794  32.089  38.802  11.460
44370W        W16795  21.017  32.486   3.515
44371W        W16796   6.656  34.182   1.128
44372W        W16797  42.035  14.093   3.462
44373W        W16798   3.779  11.383  11.614
44374W        W16799  43.098  35.792   4.802
44375W        W16800  37.807  44.402  14.538
44376W        W16801  14.217  30.981  14.292
44377W        W16802  34.528  38.004   0.752
44378W        W16803  38.895  27.818   4.148
44379W        W16804  19.880  24.137  11.899
44380W        W16805  44.160  43.906  10.957
44381W        W16806   9.308  38.393   3.582
44382W        W16807  24.609  26.683   2.968
44383W        W16808  37.555  21.688   0.720
44384W        W16809  31.910  32.323  11.131
44385W        W16810  29.441  22.080  14.031
44386W        W16811  34.865  10.212  10.320
44387W        W16812  13.289  17.354  12.887
44388W        W16813  41.956  10.264   4.019
44389W        W16814  16.730  22.506   0.493
44390W        W16815   6.231   5.375   3.259
44391W        W16816  27.453  21.099  10.762
44392W        W16817  32.842  31.216  13.884
44393W        W16818  10.894  37.159  10.296
44394W        W16819  39.788  12.096  11.564
44395W        W16820  11.813  23.552   2.813
44396W        W16821  29.722  21.526   0.357
44397W        W16822  28.002  44.251   1.842
44398W        W16823  36.829  18.642  14.371
44399W        W16824  31.576   5.756  12.619
44400W        W16825  29.921  39.541  12.551
44401W        W16826  24.535  42.835   1.311
44402W        W16827  15.326  11.927   0.863
44403W        W16828  32.065  43.496   5.044
44404W        W16829  27.361  27.409  11.638
44405W        W16830  40.242  42.829  13.851
44406W        W16831  32.557  40.874  14.964
44407W        W16832  37.930   0.416   5.153
44408W        W16833  32.525  43.473   3.152
44409W        W16834   2.350  33.832  10.546
44410W        W16835  29.707  35.037  12.069
44411W        W16836  35.939   3.413   1.334
44412W        W16837  21.222  41.390   0.389
44413W        W16838  16.534  18.274   1.561
44414W        W16839   9.038   2.053  11.215
44415W        W16840  36.527  23.929   0.008
44416W        W16841  38.445  43.658   4.987
44417W        W16842  37.322  11.694   3.592
44418W        W16843  43.094  25.044   3.335
44419W        W16844  14.341  10.827   1.713
44420W        W16845   8.869  21.098  13.472
44421W        W16846  15.085  33.012  14.267
44422W        W16847   0.949   2.715  13.857
44423W        W16848  25.088  12.562   2.157
44424W        W16849  44.940  33.095  12.003
44425W        W16850  43.349  30.073  14.485
44426W        W16851  41.544  26.865   1.860
44427W        W16852  10.821  18.550  10.760
44428W        W16853  33.892  18.505   2.315
44429W        W16854   4.922  17.747  13.919
44430W        W16855  33.108  18.620   2.731
44431W        W16856  11.329  20.073   2.796
44432W        W16857  17.965   3.910  10.632
44433W        W16858   7.659  33.921  11.163
44434W        W16859   2.470  33.662   2.667
44435W        W16860   2.358  43.442   2.850
44436W        W16861  21.541  32.622  11.342
44437W        W16862  37.907   7.661  11.708
44438W        W16863  26.179   4.748   3.870
44439W        W16864  11.733  40.289   2.687
44440W        W16865  39.290   7.777   0.376
44441W        W16866  42.291  11.119   2.313
44442W        W16867  25.156   1.471   2.252
44443W        W16868  16.489  29.385  11.472
44444W        W16869  24.689  17.814  14.047
44445W        W16870   5.039  40.559  10.909
44446W        W16871  20.482  30.731  10.271
44447W        W16872  42.977  40.734  12.298
44448W        W16873  36.887   9.951   4.111
44449W        W16874  44.584  44.852  11.835
44450W        W16875  30.703  19.835  14.985
44451W        W16876  33.087  20.508  14.730
44452W        W16877  23.657  40.517   2.886
44453W        W16878  15.238   5.602   1.957
44454W        W16879   3.816  40.260   2.739
44455W        W16880  35.382  43.498   1.334
44456W        W16881   2.988  37.893  12.504
44457W        W16882  42.093  13.677   2.883
44458W        W16883  10.178  27.251  11.119
44459W        W16884   3.307  19.963  10.838
44460W        W16885  12.945  42.331  14.907
44461W        W16886  14.074  42.523   2.696
44462W        W16887   4.975  23.149  12.180
44463W        W16888   6.743  40.878   3.924
44464W        W16889  39.433  17.732   4.520
44465W        W16890  38.471   8.893  12.418
44466W        W16891   2.435  13.972   3.188
44467W        W16892  43.571  17.244   4.580
44468W        W16893  41.993  34.693  10.296
44469W        W16894   5.771   0.570  10.482
44470W        W16895  34.942  15.979   0.888
44471W        W16896   0.181  12.702   3.053
44472W        W16897  40.403  37.805   2.292
44473W        W16898   3.379  13.137  13.471
44474W        W16899   1.858  43.692   2.587
44475W        W16900  34.778   8.596   2.627
44476W        W16901  12.895  17.178   4.331
44477W        W16902  40.558   8.161   4.376
44478W        W16903  34.004   1.805  11.572
44479W        W16904  42.921  41.525  13.866
44480W        W16905   3.922   5.200   1.345
44481W        W16906   0.968   3.216  14.881
44482W        W16907   2.765  24.926   1.847
44483W        W16908  35.331  20.640   3.229
44484W        W16909  17.793  36.433   1.773
44485W        W16910  41.745  13.557   1.610
44486W        W16911  15.066   8.920  14.598
44487W        W16912   7.317  18.928  11.132
44488W        W16913  42.585  12.316  10.676
44489W        W16914  24.077  32.648   2.011
44490W        W16915  37.592  38.108   3.330
44491W        W16916  38.549  13.743   3.287
44492W        W16917   7.370   9.087  12.301
44493W        W16918  18.374  21.984   2.781
44494W        W16919  15.378  37.458   1.198
44495W        W16920  12.164   8.185   0.055
44496W        W16921  43.961  18.122  12.498
44497W        W16922  38.769  18.262  10.593
44498W        W16923  19.312   6.471  12.406
44499W        W16924   5.926  14.402   3.295
44500W        W16925  12.090   7.273   4.496
44501W        W16926   9.237  34.097  13.493
44502W        W16927  38.913  15.604  14.206
44503W        W16928   8.398   8.266   5.063
44504W        W16929  32.432  29.934  11.225
44505W        W16930   9.193  23.129  14.998
44506W        W16931  27.520   9.101   3.799
44507W        W16932   6.881  29.134   2.137
44508W        W16933  25.798  41.571   1.367
44509W        W16934  40.862  26.072  14.068
44510W        W16935  36.418  21.832  12.044
44511W        W16936  33.521  29.062  10.405
44512W        W16937  40.054   1.041   5.174
44513W        W16938  18.311  16.247  11.769
44514W        W16939  24.805  35.029   2.370
44515W        W16940  44.992  15.833  13.051
44516W        W16941  18.780  15.313   2.175
44517W        W16942  22.548  24.219  12.764
44518W        W16943  10.036  27.941  11.600
44519W        W16944   1.436  26.557  12.415
44520W        W16945  44.662  23.069  13.468
44521W        W16946   5.867   0.238   3.183
44522W        W16947   7.653  17.550   3.750
44523W        W16948   9.253  11.891   0.855
44524W        W16949  30.734  17.210   0.974
44525W        W16950  17.272  28.600  13.595
44526W        W16951  43.914   8.419  11.073
44527W        W16952  38.886  32.682  12.396
44528W        W16953  39.571   0.400   5.389
44529W        W16954  17.318  26.102   2.226
44530W        W16955  30.787   8.672  11.321
44531W        W16956   1.484   3.189   1.112
44532W        W16957   6.734   4.223  10.645
44533W        W16958  30.919  44.484  12.788
44534W        W16959  17.217  34.786   0.380
44535W        W16960  20.678   0.951  11.376
44536W        W16961  32.045  30.903  10.523
44537W        W16962  16.216  41.812  11.525
44538W        W16963   5.365  13.491   4.168
44539W        W16964  11.693  39.768   2.776
44540W        W16965  25.549  32.771  12.411
44541W        W16966  18.288  30.986   4.645
44542W        W16967   3.099  14.695   4.737
44543W        W16968  15.203   9.067   0.421
44544W        W16969  14.215  36.423  10.380
44545W        W16970  32.104   7.307   2.025
44546W        W16971  15.210  29.533   3.076
44547W        W16972  33.950   5.947  10.547
44548W        W16973   6.718  33.857  11.093
44549W        W16974  43.066  40.502   3.269
44550W        W16975  22.674   6.694  14.961
44551W        W16976   5.349  10.788   0.805
44552W        W16977  20.789  17.600  10.646
44553W        W16978  10.466  21.718  10.735
44554W        W16979  21.291  21.774   3.175
44555W        W16980  35.095   9.725   0.391
44556W        W16981  28.804  37.367  12.504
44557W        W16982  24.602   7.229   2.418
44558W        W16983   4.307   9.179   2.231
44559W        W16984  37.069  24.996  10.968
44560W        W16985  31.447  31.476  12.476
44561W        W16986  10.672  44.305  12.632
44562W        W16987  44.345  24.532   1.652
44563W        W16988   5.462   2.520   1.342
44564W        W16989  29.130  10.854   3.869
44565W        W16990  13.044  11.574  13.498
44566W        W16991  14.871  38.525   3.507
44567W        W16992  41.346  26.449  13.493
44568W        W16993  44.311  12.851   0.073
44569W        W16994  32.287  11.834   1.733
44570W        W16995   2.313  15.517   2.789
44571W        W16996  10.502  41.256   3.036
44572W        W16997  43.649  41.526   0.447
44573W        W16998   6.641  25.140  13.530
44574W        W16999   3.162  33.671  10.687
44575W        W17000  20.870  18.578  13.005
44576W        W17001  31.037  27.057   0.529
44577W        W17002  10.963  25.637  14.415
44578W        W17003  22.499   1.462   0.013
44579W        W17004  36.011  14.277   3.764
44580W        W17005  28.063   1.463   3.352
44581W        W17006  43.426  14.342  12.072
44582W        W17007  37.009   9.296   0.338
44583W        W17008  11.527  10.253   5.050
44584W        W17009  32.895  11.420  10.615
44585W        W17010  36.937  37.086   0.802
44586W        W17011  12.775  16.575  11.866
44587W        W17012  30.491  35.892  10.455
44588W        W17013  27.448  14.664   3.834
44589W        W17014  13.113  26.953   4.893
44590W        W17015  34.595  36.864  10.537
44591W        W17016  40.307  15.051   0.324
44592W        W17017  16.772  29.420  14.520
44593W        W17018  26.956  31.671  11.365
44594W        W17019  20.111  39.457   2.793
44595W        W17020  31.180   0.626   3.039
44596W        W17021  31.897  43.887  12.910
44597W        W17022  36.286   1.267   3.257
44598W        W17023  13.183  21.998   9.808
44599W        W17024  33.428  24.585   4.591
44600W        W17025  40.318  20.234   2.232
44601W        W17026  31.177   9.668  12.026
44602W        W17027  13.484  32.343  12.883
44603W        W17028  37.011  18.702   2.167
44604W        W17029  28.092  26.163  10.760
44605W        W17030   5.670  22.777  11.012
44606W        W17031  11.258  11.294   2.422
44607W        W17032  21.742   9.394   0.273
44608W        W17033  28.445  24.711  14.311
44609W        W17034  20.934  41.058   1.249
44610W        W17035  15.745  25.715  10.712
44611W        W17036  15.198   6.417   3.167
44612W        W17037  31.371  36.992  10.928
44613W        W17038  18.623  37.368   5.096
44614W        W17039   1.739  29.034   3.211
44615W        W17040  29.677  16.190  13.542
44616W        W17041  16.578  21.581   0.274
44617W        W17042   1.727  27.377  13.887
44618W        W17043  30.563  39.798   0.369
44619W        W17044  15.663  44.279   0.619
44620W        W17045  36.759   8.238   2.166
44621W        W17046  31.971  43.388   0.969
44622W        W17047  15.639  13.628   3.236
44623W        W17048  25.485  28.038   1.884
44624W        W17049   7.976  23.650   3.225
44625W        W17050  33.466  41.648  11.223
44626W        W17051  28.277  30.995   0.476
44627W        W17052  19.402  30.672  11.894
44628W        W17053   2.228  19.979  14.362
44629W        W17054  20.051  25.051   5.086
44630W        W17055  42.784  27.960   3.170
44631W        W17056  11.722  22.504  11.973
44632W        W17057  32.074  23.686  11.456
44633W        W17058  26.412  36.834   0.821
44634W        W17059  25.742  27.497  14.352
44635W        W17060  43.317  38.946   1.191
44636W        W17061  36.289  14.134  10.199
44637W        W17062  37.439  27.076  13.048
44638W        W17063  24.944  36.487   1.435
44639W        W17064  16.327  38.925  13.120
44640W        W17065   0.510  24.616   1.718
44641W        W17066  26.180  29.369  12.430
44642W        W17067  28.365  42.562   2.345
44643W        W17068  35.024  15.671  14.399
44644W        W17069  11.328  14.871  14.407
44645W        W17070  29.074  30.323  12.480
44646W        W17071  27.934   1.223   1.881
44647W        W17072  11.586  32.592   2.346
44648W        W17073  30.239  30.896  14.155
44649W        W17074  31.584   6.235  14.973
44650W        W17075  36.367  35.948  11.059
44651W        W17076  11.106  37.153   1.228
44652W        W17077  13.843   8.653   3.289
44653W        W17078  13.761  15.057  10.685
44654W        W17079  27.452  42.109   4.329
44655W        W17080  11.413  44.331  10.726
44656W        W17081  35.841  33.130  12.578
44657W        W17082  37.463   0.606  11.579
44658W        W17083  28.276  36.879   2.539
44659W        W17084  16.824  32.646  12.026
44660W        W17085  22.461  19.692   1.530
44661W        W17086  35.539  11.075  10.972
44662W        W17087  41.416  40.577  14.834
44663W        W17088  23.468  10.357  13.177
44664W        W17089  20.107  42.405   3.689
44665W        W17090  39.235  42.416  14.975
44666W        W17091  28.810  11.780  12.993
44667W        W17092  31.435   4.727   3.634
44668W        W17093  16.799  13.331   0.655
44669W        W17094  25.737  18.440   4.270
44670W        W17095  38.809   7.764   0.512
44671W        W17096  20.133   6.338  14.810
44672W        W17097  15.918  36.554  12.038
44673W        W17098  20.069  22.697  14.293
44674W        W17099  13.660  18.971  13.408
44675W        W17100   5.830   5.884  11.424
44676W        W17101  12.191  41.051  14.880
44677W        W17102  36.102   8.024   3.785
44678W        W17103  15.641  13.334  11.459
44679W        W17104   5.136   9.886  10.525
44680W        W17105  24.948   7.199  14.773
44681W        W17106  12.809  39.464   3.313
44682W        W17107  24.897  11.567   0.646
44683W        W17108  43.832  12.127   4.557
44684W        W17109  40.613  13.342  12.448
44685W        W17110  29.412  25.929   2.204
44686W        W17111  12.927  35.891   1.248
44687W        W17112   8.258  31.455   3.245
44688W        W17113  30.467   1.383  14.678
44689W        W17114  18.222  41.444   3.262
44690W        W17115  38.884  32.972  14.699
44691W        W17116  22.988  33.044   4.502
44692W        W17117   9.260  44.445  14.494
44693W        W17118  42.791  29.939   3.319
44694W        W17119   9.835  17.221   1.368
44695W        W17120  42.770  12.322   2.877
44696W        W17121  23.875   2.889   4.478
44697W        W17122   8.482  14.599   4.150
44698W        W17123  13.834  33.860   3.703
44699W        W17124  18.312  38.244  13.279
44700W        W17125  29.678  32.912   5.097
44701W        W17126  13.865  41.554  13.796
44702W        W17127  16.728  35.390  12.574
44703W        W17128   7.787  35.732   2.169
44704W        W17129  22.163  22.776   2.792
44705W        W17130  27.468  29.523  14.770
44706W        W17131  37.585  27.463  13.911
44707W        W17132  23.336  38.590   2.224
44708W        W17133   4.884  20.757  11.703
44709W        W17134  20.165  44.387  12.983
44710W        W17135  10.804  15.223   4.741
44711W        W17136  34.095   8.217   4.715
44712W        W17137   2.517   1.639  11.987
44713W        W17138  29.991  40.224  14.991
44714W        W17139  22.294  25.818  14.035
44715W        W17140  16.239  38.506   3.160
44716W        W17141  41.563  19.217  10.796
44717W        W17142  16.256  31.927  14.342
44718W        W17143  44.809  42.083   2.636
44719W        W17144  44.346  43.574  13.298
44720W        W17145  31.179  41.019  12.225
44721W        W17146  30.185   9.711   0.888
44722W        W17147   6.216  15.302   0.341
44723W        W17148   4.398  14.708  14.837
44724W        W17149  15.492   1.791  10.633
44725W        W17150  30.922  22.148  11.187
44726W        W17151  34.439  30.265   2.359
44727W        W17152   4.002   5.700   0.439
44728W        W17153  20.907   5.181   4.142
44729W        W17154  29.705  41.130  12.381
44730W        W17155  28.909  44.481  10.185
44731W        W17156  38.130  14.330  14.888
44732W        W17157   5.894   6.644  14.298
44733W        W17158   8.693   7.710   4.716
44734W        W17159  40.912  26.144  12.626
44735W        W17160  30.303   1.073   1.747
44736W        W17161  13.721  23.947   0.344
44737W        W17162   9.234   4.948   4.462
44738W        W17163   5.295  18.236   4.145
44739W        W17164  35.487   0.789   4.385
44740W        W17165   5.379  42.739  13.970
44741W        W17166  26.026   1.412   0.993
44742W        W17167   2.838  18.178  14.796
44743W        W17168  28.397  40.438  11.158
44744W        W17169  30.701   0.385  12.716
44745W        W17170  22.092   2.844   3.675
44746W        W17171   5.795  41.355   3.266
44747W        W17172  20.024  28.293  11.867
44748W        W17173  22.625  20.036   2.830
44749W        W17174  41.399  44.549   1.356
44750W        W17175  42.487  26.181   1.221
44751W        W17176  32.159  36.982  12.937
44752W        W17177  15.664  34.627  12.415
44753W        W17178  41.054  33.507  14.972
44754W        W17179  37.094  21.967  13.501
44755W        W17180  22.733  31.639  11.214
44756W        W17181  15.323   0.834   1.734
44757W        W17182  29.759  28.012  12.745
44758W        W17183  43.665  37.095  14.468
44759W        W17184  14.340  26.601   2.882
44760W        W17185  11.762   8.744   2.725
44761W        W17186   4.695  16.258   1.365
44762W        W17187  44.808   0.987   0.033
44763W        W17188  41.539  32.971   1.954
44764W        W17189   1.960  21.483   1.622
44765W        W17190  41.014  28.594  13.457
44766W        W17191  26.564  28.918   0.765
44767W        W17192  39.861  16.540  12.209
44768W        W17193  31.095  30.115   4.837
44769W        W17194  17.629   1.632  13.588
44770W        W17195  17.117  28.830  12.954
44771W        W17196  14.619  16.987   0.549
44772W        W17197  23.720   8.333   5.630
44773W        W17198   0.729  20.814  11.264
44774W        W17199  19.077  28.612   2.171
44775W        W17200  42.369  30.226  10.758
44776W        W17201  21.671   2.017  12.491
44777W        W17202  31.443  29.488   2.253
44778W        W17203  15.817  19.704   4.596
44779W        W17204   0.968   4.977  13.251
44780W        W17205  32.488  18.131  11.407
44781W        W17206  24.986  16.262  14.587
44782W        W17207  19.486  30.098   5.610
44783W        W17208   5.473  32.616   4.133
44784W        W17209  39.851   5.369   0.381
44785W        W17210   2.442  42.003   1.918
44786W        W17211  43.493  18.051   0.531
44787W        W17212  18.685   2.050   5.042
44788W        W17213  24.641  33.375   0.182
44789W        W17214  41.050  27.072   1.888
44790W        W17215   9.128  14.343  11.100
44791W        W17216  31.689  21.630   1.670
44792W        W17217  34.130   8.637  14.497
44793W        W17218  17.008  27.814   4.035
44794W        W17219  19.272  42.441  12.345
44795W        W17220  10.626  17.745  13.435
44796W        W17221  33.202  28.745   2.741
44797W        W17222  32.133  21.186  11.085
44798W        W17223  14.389  37.996  12.560
44799W        W17224   9.221  10.359   3.703
44800W        W17225  25.748   9.987   1.702
44801W        W17226  20.285  12.935   5.133
44802W        W17227  15.782  39.904  12.044
44803W        W17228  35.118   9.876   3.991
44804W        W17229  20.126  12.163   2.204
44805W        W17230  12.688   8.306  13.896
44806W        W17231  32.275  11.966  13.765
44807W        W17232  27.579   7.614   2.296
44808W        W17233  28.990  43.523   1.174
44809W        W17234  17.197  29.969  11.984
44810W        W17235   8.398   3.369  10.810
44811W        W17236   6.102  42.303  12.467
44812W        W17237   3.988   3.307   4.332
44813W        W17238  44.093  21.592   4.306
44814W        W17239  22.942  20.770  12.056
44815W        W17240  36.425  43.418   4.376
44816W        W17241  29.041  41.364  10.460
44817W        W17242  17.077  10.568  10.112
44818W        W17243   6.067  27.124   0.399
44819W        W17244  16.670  12.651   3.413
44820W        W17245   8.511  29.644  14.057
44821W        W17246  20.049  31.267  12.271
44822W        W17247  15.698   5.339   1.890
44823W        W17248  37.817  30.902   0.951
44824W        W17249  30.629  23.623   9.997
44825W        W17250  26.601   3.499   4.322
44826W        W17251  44.729  26.681  12.440
44827W        W17252  22.300  34.926  13.579
44828W        W17253  38.404  26.538   4.200
44829W        W17254   2.989  37.691   4.534
44830W        W17255   3.239  17.696  13.430
44831W        W17256  34.681  16.800   4.651
44832W        W17257   1.478  26.578  10.523
44833W        W17258  16.073  20.564   0.706
44834W        W17259  33.397  35.365   4.141
44835W        W17260  44.769   3.948  11.939
44836W        W17261  27.852  32.999   4.248
44837W        W17262   3.693  33.819   2.946
44838W        W17263  31.751   0.295  13.427
44839W        W17264  33.662  35.921  12.596
44840W        W17265  10.185  31.160  13.555
44841W        W17266  11.398  15.157   0.545
44842W        W17267  32.569  14.760   4.381
44843W        W17268   2.484  44.490  14.778
44844W        W17269  42.434  16.806   2.763
44845W        W17270  38.065  37.996  11.696
44846W        W17271  38.312  13.017   1.715
44847W        W17272  15.243  22.732   2.669
44848W        W17273  18.348  13.347  11.242
44849W        W17274  42.950  43.981  14.093
44850W        W17275  30.500   9.244   1.170
44851W        W17276  14.672  44.908  12.073
44852W        W17277  31.883  24.933   3.714
44853W        W17278  30.503  19.383   2.798
44854W        W17279  41.004  32.994  14.881
44855W        W17280  36.812  42.046   1.706
44856W        W17281  29.494   3.697  12.903
44857W        W17282  35.854  29.185   2.089
44858W        W17283  24.193  15.649   3.313
44859W        W17284  32.713  38.571   2.941
44860W        W17285  21.264  32.836   3.231
44861W        W17286  31.999  33.609   4.724
44862W        W17287  16.846  16.848   1.337
44863W        W17288  23.979  35.585   4.191
44864W        W17289   8.887   3.471  10.945
44865W        W17290  25.060  14.820  14.547
44866W        W17291  28.937  29.953   1.371
44867W        W17292  21.853  24.476   4.299
44868W        W17293  17.672  33.753  10.637
44869W        W17294  18.734   7.902  14.767
44870W        W17295   1.339  16.026   1.707
44871W        W17296  18.736   8.627   4.533
44872W        W17297  20.090  16.182  11.985
44873W        W17298  10.377  22.045   2.755
44874W        W17299   7.199  34.535   3.254
44875W        W17300  14.221  33.916   2.651
44876W        W17301  23.250   1.893   0.282
44877W        W17302   9.673  18.549  12.028
44878W        W17303  15.656  37.410   2.869
44879W        W17304  38.780  12.188   2.683
44880W        W17305  33.718  15.625  13.933
44881W        W17306   0.216  36.370   4.491
44882W        W17307   7.178  41.114   0.279
44883W        W17308  26.496  41.048  13.905
44884W        W17309  37.635  25.132   5.579
44885W        W17310  35.073  43.373  10.759
44886W        W17311  26.935  19.162   2.348
44887W        W17312  13.300   9.776  13.087
44888W        W17313  15.569   6.421   4.656
44889W        W17314   8.410  15.239   0.261
44890W        W17315  44.921  27.039  14.459
44891W        W17316  21.722  13.767   2.247
44892W        W17317  42.459  27.709   0.308
44893W        W17318  27.291   6.413  14.319
44894W        W17319  36.073   5.680   1.680
44895W        W17320   4.998  44.889   1.738
44896W        W17321   2.033  44.194   3.246
44897W        W17322   7.376  17.123  12.477
44898W        W17323  26.484  25.121   0.223
44899W        W17324  41.029   4.698  13.966
44900W        W17325  11.687  43.583  14.430
44901W        W17326  37.019   3.240   0.053
44902W        W17327  37.581  40.459   1.912
44903W        W17328  41.844  40.405   3.751
44904W        W17329  32.386  30.177   4.398
44905W        W17330  43.243  29.856   0.805
44906W        W17331  27.749  28.188  10.652
44907W        W17332  25.045  10.071  10.234
44908W        W17333  10.891   4.783   3.622
44909W        W17334  37.461  36.020  11.055
44910W        W17335  10.273  19.563  11.215
44911W        W17336   3.941  18.062   4.082
44912W        W17337   4.704  31.580   4.283
44913W        W17338  28.786  14.207   1.752
44914W        W17339  16.824  30.657   2.851
44915W        W17340  30.701  16.116  13.603
44916W        W17341   6.848   5.485   3.737
44917W        W17342   0.112   6.882   2.818
44918W        W17343  36.271  28.556  13.332
44919W        W17344  28.508  16.532  11.016
44920W        W17345  26.816  26.210   2.845
44921W        W17346  25.776  31.885   3.928
44922W        W17347   1.393  11.340  12.829
44923W        W17348  18.338  38.815   4.709
44924W        W17349  35.006  29.451   2.233
44925W        W17350  13.094  30.474  14.335
44926W        W17351  25.631  42.742  10.287
44927W        W17352  37.074  35.063  12.489
44928W        W17353  13.599  13.312   3.697
44929W        W17354  18.174  22.803  14.577
44930W        W17355  17.049  38.848   1.497
44931W        W17356  34.651   1.695  11.250
44932W        W17357   7.303  38.845  10.098
44933W        W17358  19.769  28.473  12.886
44934W        W17359  22.986  40.769   4.588
44935W        W17360  13.722  10.359   2.791
44936W        W17361  18.671  22.298   0.912
44937W        W17362  11.909  31.088  11.056
44938W        W17363  23.499   5.799  12.498
44939W        W17364  35.511  35.612   2.369
44940W        W17365  26.154   5.241   4.138
44941W        W17366  36.651  13.084  11.019
44942W        W17367  37.635  42.891  11.357
44943W        W17368  42.160  30.289  13.424
44944W        W17369  40.014  41.384  11.876
44945W        W17370  20.078  26.235  11.435
44946W        W17371   0.233   3.968   3.194
44947W        W17372  11.276  27.471   2.923
44948W        W17373  15.702  40.162   9.946
44949W        W17374   6.333   8.973  11.359
44950W        W17375  28.528  22.950  13.482
44951W        W17376  14.169  43.268  12.224
44952W        W17377  32.976  30.898   4.871
44953W        W17378  43.875  11.672  10.496
44954W        W17379  24.138  31.649  14.784
44955W        W17380  23.548  38.055  14.052
44956W        W17381   5.222  16.060  12.716
44957W        W17382  43.239  14.243   0.101
44958W        W17383  38.317  33.874  10.760
44959W        W17384   2.766  25.785   1.260
44960W        W17385  42.766  26.244  12.913
44961W        W17386  13.170   2.347   3.205
44962W        W17387  25.076  25.532  13.801
44963W        W17388  32.971  15.930   1.623
44964W        W17389  42.218  41.656   2.246
44965W        W17390  25.598  40.324   4.234
44966W        W17391  13.345  19.083   2.320
44967W        W17392  18.089  21.106   0.515
44968W        W17393   7.755  18.248  13.254
44969W        W17394  20.450   8.350  13.540
44970W        W17395  14.403  37.850   4.125
44971W        W17396   9.267  15.581   0.537
44972W        W17397   7.082  41.630   0.419
44973W        W17398   6.705  21.283   1.865
44974W        W17399   1.441  30.451   3.099
44975W        W17400  41.679   5.362  12.346
44976W        W17401  31.151  37.120  14.403
44977W        W17402  21.811  20.325  12.924
44978W        W17403  11.967  36.971   4.586
44979W        W17404  12.511   0.189   3.193
44980W        W17405  28.122  28.047   9.824
44981W        W17406  43.773   3.936   4.209
44982W        W17407   9.127  35.906  11.363
44983W        W17408  16.556  43.489   3.685
44984W        W17409  19.272   4.882   3.647
44985W        W17410  31.538   6.724  11.698
44986W        W17411  15.185   9.158   1.819
44987W        W17412  25.730  26.973  14.805
44988W        W17413   9.379   6.876  12.694
44989W        W17414  36.624  25.238   4.674
44990W        W17415  14.064  15.612   4.953
44991W        W17416  40.357  32.039   2.663
44992W        W17417  43.369  14.368  12.693
44993W        W17418  39.090   4.184  11.677
44994W        W17419   3.243  11.314   1.868
44995W        W17420  17.146  13.165  12.558
44996W        W17421  10.308  40.015   2.752
44997W        W17422  38.047  31.365   0.901
44998W        W17423  15.652  11.246  10.382
44999W        W17424  20.799   9.081   0.500
45000W        W17425   2.435  21.866  10.634
45001W        W17426   0.955  29.892  13.055
45002W        W17427  34.299   5.096  11.301
45003W        W17428  26.017  20.825   3.672
45004W        W17429  20.342   8.052   3.848
45005W        W17430   2.416   5.462  12.246
45006W        W17431  41.382  39.536   4.638
45007W        W17432  44.359  11.321  13.404
45008W        W17433  31.139   1.778   4.337
45009W        W17434  35.777  33.368  13.035
45010W        W17435   3.823  11.183   0.713
45011W        W17436  34.883  19.033  13.391
45012W        W17437  28.271  32.079   3.401
45013W        W17438  28.617   0.469  14.950
45014W        W17439  28.666  17.708   5.030
45015W        W17440  24.164  38.549   4.255
45016W        W17441  31.408  34.224  13.452
45017W        W17442   7.433  37.919   5.260
45018W        W17443  33.574  34.936   0.660
45019W        W17444  39.497  29.109  13.869
45020W        W17445  43.023   1.764   1.603
45021W        W17446   3.197   6.471  12.412
45022W        W17447  44.778  43.757   0.348
45023W        W17448   2.991   4.125   3.997
45024W        W17449  16.488  10.676   4.882
45025W        W17450  15.009  19.764  10.693
45026W        W17451  32.108  27.627  12.033
45027W        W17452  42.492  31.852  12.346
45028W        W17453  22.618  30.655  11.179
45029W        W17454   2.870  13.356  13.373
45030W        W17455   9.725  28.664  14.425
45031W        W17456   7.442  21.702   1.016
45032W        W17457   8.482  35.188  13.471
45033W        W17458   4.314  43.528  11.181
45034W        W17459  17.784  44.476  14.891
45035W        W17460  13.628  32.199  14.388
45036W        W17461  41.341   0.828  12.213
45037W        W17462  11.787  35.975  14.854
45038W        W17463  36.982  44.720   4.170
45039W        W17464  42.978  41.010  11.022
45040W        W17465   4.882  44.677   5.064
45041W        W17466  31.849  40.035  12.819
45042W        W17467  20.868   7.168  11.440
45043W        W17468  34.446  27.790  11.949
45044W        W17469  25.146  34.331   3.024
45045W        W17470  13.566   2.835   4.064
45046W        W17471  32.538   9.520   1.264
45047W        W17472  25.060  21.561  11.577
45048W        W17473   4.467   5.292   3.745
45049W        W17474  20.276  25.186  13.395
45050W        W17475  44.426  24.870  12.050
45051W        W17476   1.822   4.706   2.758
45052W        W17477   1.836  21.595   1.003
45053W        W17478  28.031  38.849  13.564
45054W        W17479   8.405  21.534   0.818
45055W        W17480  10.564  35.108   2.244
45056W        W17481  41.270   9.164  12.118
45057W        W17482   1.628  21.141   4.084
45058W        W17483   2.472  44.830   4.719
45059W        W17484  11.288   9.261  11.338
45060W        W17485  35.366  34.977  14.922
45061W        W17486  30.921  32.867  13.622
45062W        W17487  39.364  27.452  14.841
45063W        W17488  23.256  15.988   2.501
45064W        W17489  20.601   1.030   1.175
45065W        W17490  28.492  17.723   4.376
45066W        W17491   9.724   7.231  14.052
45067W        W17492  29.675  38.294   2.822
45068W        W17493   3.320  21.808  11.027
45069W        W17494  23.695  28.153   0.439
45070W        W17495  44.795  34.133  14.077
45071W        W17496  21.207  41.056   0.001
45072W        W17497  34.097  22.666   0.920
45073W        W17498  43.908   0.900   0.443
45074W        W17499  38.324  38.481  11.565
45075W        W17500  13.773  30.602  12.485
45076W        W17501  30.859   8.068  10.620
45077W        W17502  34.606   0.377  13.845
45078W        W17503  35.402  41.461   1.399
45079W        W17504  15.690   2.947   3.643
45080W        W17505   7.383  19.830   1.729
45081W        W17506  25.215  44.497   0.073
45082W        W17507  34.832  21.042   1.834
45083W        W17508  19.742  40.951   2.370
45084W        W17509   6.531  39.924  13.756
45085W        W17510  40.980  34.050   4.459
45086W        W17511  29.654  15.035   0.333
45087W        W17512   5.354  41.452   4.447
45088W        W17513  35.402  23.274   1.056
45089W        W17514  41.029   3.782   2.283
45090W        W17515   0.713  21.325  13.616
45091W        W17516  25.644  42.983  11.191
45092W        W17517  29.232  36.555   0.883
45093W        W17518  17.091   6.201  10.623
45094W        W17519  43.633  29.874   3.611
45095W        W17520  10.314   3.000   4.835
45096W        W17521  44.184  19.029   4.596
45097W        W17522  34.593  18.781  10.685
45098W        W17523  31.979  17.167  13.629
45099W        W17524  15.756  21.626   0.429
45100W        W17525  15.603  16.508   0.813
45101W        W17526   8.190  12.520   4.084
45102W        W17527  19.979  43.095  13.686
45103W        W17528   2.018  37.083   2.853
45104W        W17529  11.878  22.170  10.907
45105W        W17530  20.420  42.052   3.396
45106W        W17531  16.048  42.642  12.934
45107W        W17532  18.582  33.085  12.082
45108W        W17533   3.979  24.252  11.400
45109W        W17534  28.743  22.119   2.582
45110W        W17535  22.803  16.079   3.284
45111W        W17536  16.108  33.215  11.538
45112W        W17537  32.147  21.571   0.490
45113W        W17538  14.449  14.062  12.916
45114W        W17539   8.452   0.644  11.563
45115W        W17540  31.587   9.798  13.364
45116W        W17541  15.073  22.106   2.236
45117W        W17542  26.067   7.649  13.494
45118W        W17543  38.220  36.535  13.814
45119W        W17544  19.343  30.782   2.636
45120W        W17545  22.755  44.052  11.978
45121W        W17546   7.749  18.882  13.878
45122W        W17547  10.072   1.349  12.577
45123W        W17548  40.131  31.875  10.706
45124W        W17549  15.730  18.080   4.196
45125W        W17550  39.397  12.793  11.150
45126W        W17551   1.762   2.963  13.554
45127W        W17552  27.255   7.289  10.565
45128W        W17553  12.294  29.817   1.159
45129W        W17554  29.107  44.754   4.078
45130W        W17555  42.221   8.218   1.591
45131W        W17556   6.257  40.062   2.911
45132W        W17557  24.436  25.172   1.907
45133W        W17558   8.029  14.763  10.613
45134W        W17559  42.464  12.224  13.521
45135W        W17560  30.639  19.488  11.056
45136W        W17561  14.284   8.340   1.839
45137W        W17562  15.648  21.514   0.944
45138W        W17563  18.993  37.542   0.967
45139W        W17564   1.827  28.851   1.885
45140W        W17565  13.470   5.102   4.395
45141W        W17566  20.676  26.591  13.979
45142W        W17567  13.640  43.920  13.537
45143W        W17568  16.286   2.162   1.355
45144W        W17569   8.919  16.662   0.115
45145W        W17570  30.987   2.217   2.081
45146W        W17571  32.973   9.802  13.975
45147W        W17572  21.102  30.517  13.071
45148W        W17573  29.786  28.877  12.152
45149W        W17574   9.578  41.491  11.599
45150W        W17575  41.481   5.876   3.995
45151W        W17576  13.584  37.529  10.703
45152W        W17577   4.806  38.269   3.433
45153W        W17578   0.617  21.296   2.285
45154W        W17579   1.844   1.334  11.548
45155W        W17580  11.082  15.859   4.074
45156W        W17581  10.259   8.818   0.894
45157W        W17582  28.050  11.550   0.071
45158W        W17583  23.165  38.522   2.720
45159W        W17584  21.385  10.633   3.585
45160W        W17585  34.642  32.869   3.223
45161W        W17586  40.910  43.552   2.759
45162W        W17587  20.992   2.331   1.718
45163W        W17588  34.021  23.220   2.124
45164W        W17589  38.508   7.277  10.588
45165W        W17590  37.249  41.433  11.445
45166W        W17591   2.843  23.971  14.195
45167W        W17592   4.578  36.180   2.354
45168W        W17593  21.845  44.425  14.320
45169W        W17594  23.106  18.158  13.508
45170W        W17595  26.254  44.910  12.086
45171W        W17596  38.446   3.884   0.337
45172W        W17597   7.376  42.851   3.751
45173W        W17598  41.673  21.822   0.081
45174W        W17599  34.566  24.804   3.875
45175W        W17600  22.285  25.183   0.805
45176W        W17601  35.347  37.438  11.591
45177W        W17602  28.761  24.592   0.207
45178W        W17603  31.577  29.714  13.911
45179W        W17604  19.333  43.158  13.795
45180W        W17605  10.045  25.440   5.079
45181W        W17606  43.817   0.733  12.949
45182W        W17607   7.920  32.589   3.302
45183W        W17608  32.414  29.382   0.676
45184W        W17609  14.192  22.194   4.053
45185W        W17610  22.646  28.705   1.935
45186W        W17611  36.905   0.056   1.981
45187W        W17612   1.921  14.056  11.951
45188W        W17613  42.656  25.034  10.682
45189W        W17614  32.852  27.274  13.218
45190W        W17615  38.994   8.349   1.310
45191W        W17616  36.424  36.409   0.391
45192W        W17617  31.987  43.510   4.528
45193W        W17618  22.265  33.668   1.796
45194W        W17619   8.666  27.640  10.262
45195W        W17620  33.030  12.381  14.593
45196W        W17621  32.646  24.444  12.521
45197W        W17622  32.857  20.938  14.926
45198W        W17623  19.233   7.307   4.390
45199W        W17624  24.210  10.758  11.649
45200W        W17625  27.393  32.290   3.687
45201W        W17626  26.945   4.786   3.155
45202W        W17627  32.213  27.982   2.321
45203W        W17628  30.710   4.085  12.007
45204W        W17629  41.423  44.842  10.020
45205W        W17630  44.859  32.106  12.924
45206W        W17631   2.528  42.855  10.597
45207W        W17632  24.687  41.275   1.384
45208W        W17633  44.323   1.692  10.518
45209W        W17634  35.283  19.682   1.770
45210W        W17635   7.908  18.630  14.307
45211W        W17636  30.653  28.599  14.961
45212W        W17637  35.579  24.327   3.661
45213W        W17638  40.434  16.318  14.025
45214W        W17639  24.976  17.653   0.760
45215W        W17640   1.241  33.244  13.853
45216W        W17641  42.464  27.141  13.906
45217W        W17642  28.673  38.367   0.864
45218W        W17643   6.961  14.094  13.897
45219W        W17644  27.951  35.826  10.774
45220W        W17645  34.400   0.325  14.344
45221W        W17646  42.503  27.556   3.248
45222W        W17647  23.305  21.737  12.148
45223W        W17648   8.656  26.140   4.203
45224W        W17649  16.624  42.709  14.918
45225W        W17650  14.642  44.501  14.767
45226W        W17651  43.024  14.660  14.508
45227W        W17652   5.448  20.200  12.155
45228W        W17653  18.223   3.304   4.691
45229W        W17654  29.519  10.131  11.235
45230W        W17655  15.562  23.544  14.289
45231W        W17656  17.501  40.297   1.308
45232W        W17657  37.834  14.321  13.506
45233W        W17658  20.124  44.926   0.962
45234W        W17659  24.581  26.120   1.453
45235W        W17660  29.500  22.984   3.246
45236W        W17661  34.445   7.249   4.176
45237W        W17662  22.504   2.403   4.472
45238W        W17663  19.178  14.220  12.323
45239W        W17664  10.190  43.833  12.065
45240W        W17665   5.861  28.931   3.303
45241W        W17666  21.124   9.229  13.519
45242W        W17667  27.774   7.854   3.670
45243W        W17668  21.270  24.658  13.969
45244W        W17669  29.372  10.887   3.329
45245W        W17670  19.102  29.511   2.071
45246W        W17671  29.360  32.654  14.766
45247W        W17672  18.398  20.105   2.783
45248W        W17673  16.675  13.893  11.671
45249W        W17674  17.674  14.226   1.505
45250W        W17675  38.045  38.503  12.910
45251W        W17676  20.270   2.180  12.502
45252W        W17677  29.506  42.369   1.320
45253W        W17678  37.986  39.842  11.522
45254W        W17679  44.771  13.556  14.659
45255W        W17680  34.506  21.668   2.336
45256W        W17681  37.392   6.319   3.736
45257W        W17682  11.509   4.248   2.801
45258W        W17683  32.558  19.112  10.529
45259W        W17684  31.373  26.170  13.556
45260W        W17685  38.891  22.468  12.101
45261W        W17686  27.662  44.055   4.421
45262W        W17687  15.112   9.127  11.148
45263W        W17688  24.158   3.822  12.342
45264W        W17689  41.555  18.203  12.931
45265W        W17690   2.848  41.014  10.988
45266W        W17691  15.225  33.356  14.683
45267W        W17692   0.862   3.414   4.581
45268W        W17693   1.470  29.604  13.069
45269W        W17694   7.256   7.240   0.225
45270W        W17695  24.995  28.532  13.625
45271W        W17696  43.811  19.042   4.973
45272W        W17697  36.599  12.596   1.382
45273W        W17698  27.294  42.448  11.118
45274W        W17699   3.942  44.292   0.843
45275W        W17700  18.565  31.355  11.293
45276W        W17701  39.049   1.664   3.221
45277W        W17702  27.049   4.807  12.659
45278W        W17703  14.123  16.046  10.707
45279W        W17704   4.272  38.986   3.179
45280W        W17705  18.242   5.550   4.532
45281W        W17706  39.843   4.216  10.462
45282W        W17707   9.841   9.903  14.511
45283W        W17708  38.132   8.178  12.582
45284W        W17709  24.973  29.544  14.535
45285W        W17710   0.452   7.386  12.878
45286W        W17711  18.696  35.336  13.760
45287W        W17712  43.290  38.975  11.906
45288W        W17713  11.808  30.180   0.938
45289W        W17714   7.517  33.399   4.314
45290W        W17715  11.706   1.611   0.572
45291W        W17716  29.067  11.308  13.789
45292W        W17717  31.637   3.917  12.426
45293W        W17718   4.412  27.342  13.553
45294W        W17719  32.172   8.210   4.737
45295W        W17720  17.262  39.284  10.478
45296W        W17721  14.558  20.472  14.932
45297W        W17722  31.580  22.990   1.536
45298W        W17723  36.861  29.968  10.749
45299W        W17724  13.201  32.506   0.221
45300W        W17725   5.908  21.244  12.448
45301W        W17726  33.487   5.515  11.181
45302W        W17727  17.367  29.571   3.749
45303W        W17728  44.278   7.753   2.202
45304W        W17729  30.015  44.944  10.491
45305W        W17730   7.581  13.756  12.192
45306W        W17731  19.207  32.798   5.453
45307W        W17732   9.817  38.607  11.850
45308W        W17733  33.028  32.093   4.314
45309W        W17734  16.832  39.542  13.896
45310W        W17735  41.907  29.110  13.633
45311W        W17736  27.729   8.859  12.439
45312W        W17737  32.726  26.007   0.513
45313W        W17738  36.832  38.857  14.084
45314W        W17739  17.636  25.266   2.222
45315W        W17740  10.128   9.777   1.436
45316W        W17741  18.032  28.498   2.345
45317W        W17742  35.444  38.245  13.841
45318W        W17743  30.702  34.397  12.883
45319W        W17744  23.485  30.617  14.037
45320W        W17745  23.124   8.071   4.057
45321W        W17746  34.896  33.995  13.498
45322W        W17747  40.797  18.723  13.752
45323W        W17748  44.071  23.492   2.313
45324W        W17749  39.292   2.355  10.594
45325W        W17750  42.799  21.145  14.975
45326W        W17751  33.082  36.874   3.994
45327W        W17752  19.728  17.901  11.219
45328W        W17753  26.196  41.121  14.357
45329W        W17754   2.566  35.093   1.595
45330W        W17755  40.220  18.038  10.060
45331W        W17756  34.488  42.027  13.392
45332W        W17757  17.288  17.528  11.583
45333W        W17758  23.190  21.026  13.366
45334W        W17759  19.789  26.491  12.376
45335W        W17760  21.542  13.669   4.330
45336W        W17761  10.236   9.123   9.510
45337W        W17762  26.561  30.890  10.672
45338W        W17763  12.333  28.568   2.868
45339W        W17764  30.731   6.846   2.214
45340W        W17765   8.242  38.485   2.678
45341W        W17766  21.136  37.625   1.384
45342W        W17767  24.655  34.873   0.716
45343W        W17768  17.002  22.426  11.782
45344W        W17769  28.438  16.731   1.256
45345W        W17770  15.512  19.267  14.778
45346W        W17771  41.787  36.183   2.861
45347W        W17772  10.557  22.141   1.361
45348W        W17773  13.497  42.954   2.186
45349W        W17774   9.772  36.775   3.850
45350W        W17775  31.740   4.801  10.554
45351W        W17776  21.069   3.448  10.115
45352W        W17777  39.979  44.413  13.925
45353W        W17778  36.484   4.406   3.924
45354W        W17779  36.841  19.617   0.384
45355W        W17780  32.458  28.432   2.430
45356W        W17781  16.882  24.212   1.166
45357W        W17782  12.795  15.205  14.948
45358W        W17783  21.231  38.471   3.461
45359W        W17784  31.707   4.195  13.922
45360W        W17785  37.073  42.117  12.420
45361W        W17786   1.460  42.533  11.156
45362W        W17787   8.585  35.598  13.185
45363W        W17788  35.545  40.952   1.291
45364W        W17789  13.604  24.647  10.115
45365W        W17790   2.970  35.985   3.566
45366W        W17791   5.960   3.325   0.296
45367W        W17792  21.642   2.925   2.894
45368W        W17793   6.764  25.193   1.294
45369W        W17794  29.093  20.297  14.684
45370W        W17795   8.079  22.206   2.161
45371W        W17796   8.830  24.219   0.453
45372W        W17797  37.177  12.835  10.798
45373W        W17798  19.602  43.253  13.377
45374W        W17799  27.630  10.192  12.431
45375W        W17800   5.389  21.536  12.035
45376W        W17801   4.296  39.744  11.519
45377W        W17802  37.328  18.505  12.760
45378W        W17803  40.767  17.915  11.118
45379W        W17804  34.198  32.612   3.100
45380W        W17805   2.927  10.243  14.805
45381W        W17806  23.301  15.099   3.997
45382W        W17807  33.393  25.270  12.924
45383W        W17808   1.856   7.872  14.491
45384W        W17809  33.302   3.743   4.285
45385W        W17810  20.300  28.450   3.460
45386W        W17811  17.729   9.932   4.240
45387W        W17812   2.492  44.052   2.304
45388W        W17813  21.725   5.156  12.061
45389W        W17814  19.574  18.089   1.194
45390W        W17815   4.230  26.756   2.193
45391W        W17816  19.112  28.881   3.703
45392W        W17817  27.527  37.901   4.243
45393W        W17818  17.267  16.627  12.398
45394W        W17819  18.751  16.513   4.593
45395W        W17820  29.562  31.564  13.364
45396W        W17821   7.277  11.741  13.060
45397W        W17822   4.999  33.546  12.887
45398W        W17823  20.663  16.781  13.926
45399W        W17824   7.174  10.750   0.307
45400W        W17825   1.494   3.733  12.153
45401W        W17826  18.566  28.244  14.332
45402W        W17827   3.672  33.444   2.207
45403W        W17828  19.231  24.459  10.702
45404W        W17829   0.022  21.678  14.532
45405W        W17830  16.209  12.765  10.983
45406W        W17831   7.611  43.832  13.418
45407W        W17832   7.206   6.218  14.405
45408W        W17833  21.685  14.809   3.890
45409W        W17834   8.950   3.295   0.940
45410W        W17835  41.951  16.982  12.644
45411W        W17836   5.204   7.191   2.682
45412W        W17837   9.031  27.900  11.496
45413W        W17838  41.928  26.606  11.663
45414W        W17839  21.426  20.471   3.966
45415W        W17840   8.136  13.694   0.305
45416W        W17841   1.862  34.108   1.754
45417W        W17842  20.514  18.055  10.843
45418W        W17843  19.779  18.231   4.115
45419W        W17844  12.743  33.938  10.920
45420W        W17845  32.337  34.884   0.891
45421W        W17846  20.167  18.385  14.726
45422W        W17847  11.265  30.658  12.064
45423W        W17848   7.811  43.783  13.888
45424W        W17849  25.153  30.727   1.912
45425W        W17850  42.810  34.368   1.291
45426W        W17851   3.786  26.993   3.376
45427W        W17852   8.212  21.275   3.154
45428W        W17853   9.683   3.128   2.782
45429W        W17854  26.120   1.740  13.217
45430W        W17855  41.451  30.874   0.271
45431W        W17856   3.588  42.249  14.658
45432W        W17857  23.032  30.520   1.898
45433W        W17858  37.561  30.847  12.322
45434W        W17859  20.254  31.216  14.754
45435W        W17860  39.341  33.500   0.248
45436W        W17861  22.010  40.851   0.392
45437W        W17862   4.162  12.839  14.045
45438W        W17863  32.197  13.815  14.516
45439W        W17864  21.247  29.607  14.897
45440W        W17865   3.230   8.497  14.229
45441W        W17866  23.514  42.579   0.078
45442W        W17867  11.611   5.472  12.491
45443W        W17868  34.963  44.353  13.380
45444W        W17869  40.063  14.607   0.044
45445W        W17870  11.822  19.284   3.429
45446W        W17871  33.536  34.462   0.386
45447W        W17872  23.864  27.691  12.804
45448W        W17873  18.051  24.447   3.710
45449W        W17874   8.255  41.053   4.157
45450W        W17875  37.924  37.096  14.607
45451W        W17876  44.180  14.739   3.810
45452W        W17877  44.352  29.413  14.342
45453W        W17878  35.613  38.461   0.887
45454W        W17879  27.172   0.527   3.501
45455W        W17880  30.967  34.167   4.834
45456W        W17881  12.765  14.610   4.721
45457W        W17882  44.810   4.594  13.830
45458W        W17883  39.851  10.965  11.877
45459W        W17884  38.839  39.378  10.583
45460W        W17885  36.966  19.255   4.574
45461W        W17886   5.260  43.541  13.475
45462W        W17887  16.801  21.447   1.250
45463W        W17888   7.550  23.987  11.203
45464W        W17889  30.620  32.468   0.405
45465W        W17890  36.559  23.258  13.115
45466W        W17891   5.845  39.536   2.396
45467W        W17892  27.619   9.487   0.788
45468W        W17893  44.981  37.879   2.120
45469W        W17894  23.457  33.445  14.572
45470W        W17895  30.936  30.231   1.219
45471W        W17896  34.807  26.632  12.370
45472W        W17897  31.570  21.988   1.312
45473W        W17898   3.708  38.511   1.304
45474W        W17899  36.974  23.782   4.129
45475W        W17900  29.964  12.900  14.338
45476W        W17901   0.444  20.675   2.363
45477W        W17902  23.297  27.355   2.741
45478W        W17903  20.639   0.925   3.272
45479W        W17904  41.533  40.966   1.945
45480W        W17905  29.914  21.057  10.635
45481W        W17906  30.309  28.179  10.459
45482W        W17907  39.497   0.527  14.582
45483W        W17908   4.450  39.476   1.940
45484W        W17909  31.050  38.363   4.439
45485W        W17910  29.180   4.443  12.017
45486W        W17911  20.684  14.104   1.062
45487W        W17912   4.954   5.479   1.277
45488W        W17913  16.057  33.412  11.069
45489W        W17914  41.769  21.134   4.625
45490W        W17915   7.432  38.681  13.369
45491W        W17916  31.450  10.283  12.593
45492W        W17917  26.183  34.322   3.174
45493W        W17918  13.737  32.999  12.133
45494W        W17919   3.463  15.382  13.832
45495W        W17920  40.909  43.279   3.200
45496W        W17921   4.632  36.425  14.501
45497W        W17922  10.663  33.051  14.893
45498W        W17923  17.874  15.728   4.067
45499W        W17924  11.050  39.279   0.760
45500W        W17925  41.238  44.502   1.851
45501W        W17926  33.613  37.532   3.615
45502W        W17927  39.002  33.608   3.324
45503W        W17928  17.189  12.197  14.701
45504W        W17929  13.362  32.085  14.966
45505W        W17930   6.677  30.972  13.925
45506W        W17931  39.006  29.176  12.992
45507W        W17932  11.715  22.474   3.802
45508W        W17933  33.085  31.592   3.141
45509W        W17934  35.736  32.368  11.108
45510W        W17935  30.846  20.748  12.001
45511W        W17936  41.932   2.658   4.373
45512W        W17937  12.536  28.313   2.417
45513W        W17938   4.885  12.631  11.049
45514W        W17939  13.334  37.112  13.896
45515W        W17940  37.458  15.436  13.137
45516W        W17941   2.809  35.158   4.536
45517W        W17942   0.520  15.521   4.624
45518W        W17943  20.574   1.758   4.207
45519W        W17944   8.731  28.985   4.350
45520W        W17945   6.798  41.883   3.804
45521W        W17946  10.833   8.221   0.497
45522W        W17947  13.225   7.712  14.783
45523W        W17948   9.186  15.814   3.783
45524W        W17949   9.543  38.328   4.391
45525W        W17950  29.918  34.378  13.438
45526W        W17951  20.163  36.458   2.639
45527W        W17952  40.429   0.465  14.008
45528W        W17953  24.281  29.550  14.871
45529W        W17954   8.567  32.292  13.527
45530W        W17955  25.930  33.995  12.048
45531W        W17956  42.486  11.442   4.483
45532W        W17957  10.754   1.740   3.413
45533W        W17958  30.556  18.555  11.460
45534W        W17959  25.365   8.664   4.264
45535W        W17960  15.665   5.717  13.022
45536W        W17961   2.816  32.630  12.137
45537W        W17962   3.835   5.365  14.519
45538W        W17963  33.464  25.281   4.076
45539W        W17964  33.226  36.640  14.424
45540W        W17965   2.936  28.845   4.532
45541W        W17966   5.571  17.911   3.824
45542W        W17967  11.960  31.145   4.621
45543W        W17968  29.459   9.244  13.794
45544W        W17969  29.708   4.011   4.651
45545W        W17970   8.010  17.315  12.017
45546W        W17971   5.401  24.027  14.510
45547W        W17972   4.480  43.988  12.268
45548W        W17973   0.198  15.014   1.192
45549W        W17974  21.231  11.257  14.380
45550W        W17975  25.789  18.549  12.368
45551W        W17976  28.912   3.977   1.306
45552W        W17977  18.706   4.263  11.583
45553W        W17978  36.421  10.205   4.035
45554W        W17979  37.820   3.936   4.046
45555W        W17980   8.756   7.239   3.685
45556W        W17981  31.937  44.857  14.958
45557W        W17982  20.582  23.591   0.236
45558W        W17983  34.039   7.282   3.490
45559W        W17984  30.640   0.355  14.994
45560W        W17985  33.603  12.732   2.336
45561W        W17986  35.280  35.488   3.277
45562W        W17987  20.094  41.897   3.764
45563W        W17988  34.394  38.868  10.711
45564W        W17989  42.867  14.024  11.214
45565W        W17990   6.326  28.641   4.345
45566W        W17991  14.729  23.731   1.324
45567W        W17992  35.345  43.760  11.039
45568W        W17993  24.863  11.354  12.583
45569W        W17994  24.077  32.359   1.045
45570W        W17995  24.913   7.261   1.593
45571W        W17996  25.182   2.716  14.465
45572W        W17997  14.042   7.702  12.432
45573W        W17998  18.065   3.090  11.133
45574W        W17999  36.979  35.725   4.596
45575W        W18000  41.659  44.357  10.093
45576W        W18001   1.499  38.188   3.976
45577W        W18002  15.840   0.557  10.288
45578W        W18003  33.111  37.226  13.561
45579W        W18004   5.417  17.602  13.918
45580W        W18005  24.858  33.299   1.532
45581W        W18006  25.528  16.514   0.965
45582W        W18007  38.461  36.365  14.226
45583W        W18008  10.722  28.553  11.312
45584W        W18009   8.284  14.584   3.177
45585W        W18010  33.426  24.254  12.855
45586W        W18011  37.342  37.520  12.607
45587W        W18012  40.229  18.057  12.157
45588W        W18013   1.015   8.635   1.685
45589W        W18014  11.280   5.944   0.695
45590W        W18015  43.113  33.610   1.843
45591W        W18016  39.003  38.790   0.410
45592W        W18017  35.565   6.620  14.117
45593W        W18018   8.440  38.429   1.624
45594W        W18019  16.439  24.678  12.037
45595W        W18020  21.342  40.817  11.551
45596W        W18021  30.493   6.760  14.487
45597W        W18022   7.951  11.749   3.921
45598W        W18023  10.282  19.853  10.366
45599W        W18024  25.776  15.796  12.732
45600W        W18025   5.522  22.764   1.176
45601W        W18026  13.895   9.875   2.681
45602W        W18027  19.497  17.903   3.793
45603W        W18028   1.053  41.960  14.677
45604W        W18029  34.927   8.308  11.065
45605W        W18030  31.855  32.050  11.590
45606W        W18031  25.113  24.457   3.693
45607W        W18032  17.375   1.755   0.949
45608W        W18033  32.890  41.972  13.514
45609W        W18034  31.714  14.119  14.791
45610W        W18035  17.715   2.168   1.177
45611W        W18036   9.703  25.444  11.476
45612W        W18037  33.857  19.531  12.531
45613W        W18038  28.889  34.686  11.106
45614W        W18039  27.458   0.195   1.274
45615W        W18040  42.247   7.883  12.419
45616W        W18041   4.531  42.777  11.659
45617W        W18042   6.191  41.317   0.797
45618W        W18043   2.807  26.696   1.117
45619W        W18044  18.777  23.235   2.541
45620W        W18045  15.392  28.637  10.756
45621W        W18046  34.397  20.145  10.579
45622W        W18047   6.850  28.964  12.928
45623W        W18048  28.174  36.887   2.011
45624W        W18049   3.541  34.716   0.426
45625W        W18050  22.765   3.048   1.274
45626W        W18051  42.918  29.050  12.085
45627W        W18052  31.432  24.232  13.319
45628W        W18053   9.306  23.706  13.859
45629W        W18054  30.895  22.097  12.107
45630W        W18055  16.748  25.068  14.304
45631W        W18056  28.171   6.149   0.352
45632W        W18057  36.848  42.240  12.909
45633W        W18058  25.690  33.192  14.062
45634W        W18059  40.934   6.742   3.391
45635W        W18060  16.639  40.595  14.873
45636W        W18061  29.539  20.448   0.949
45637W        W18062  42.877  22.594   3.151
45638W        W18063  43.284  33.623   0.001
45639W        W18064   3.752  35.314  11.120
45640W        W18065  38.455  32.543  13.155
45641W        W18066  17.058  41.346  11.172
45642W        W18067  13.741   7.997   2.725
45643W        W18068  25.680  39.497   0.865
45644W        W18069  14.332  26.429  13.963
45645W        W18070  24.741  17.860  11.185
45646W        W18071  20.780  33.678  14.606
45647W        W18072  17.644  13.173  14.681
45648W        W18073  13.393  39.471  14.114
45649W        W18074  39.646  34.329   2.219
45650W        W18075  42.749  14.238   0.872
45651W        W18076  20.448  30.180  14.008
45652W        W18077   8.414  35.564  12.695
45653W        W18078  37.953  37.279   2.314
45654W        W18079   5.078   6.302  14.787
45655W        W18080   9.441   0.911   4.568
45656W        W18081   4.970  36.905  10.678
45657W        W18082  29.045  42.331  13.457
45658W        W18083  18.117  44.766   2.142
45659W        W18084  22.823  24.651  12.842
45660W        W18085  20.918  34.751   4.198
45661W        W18086  44.724  17.580  12.569
45662W        W18087   9.016  16.420   4.968
45663W        W18088  31.760  15.470   1.426
45664W        W18089  20.605  35.137   3.410
45665W        W18090  34.814  43.828  14.493
45666W        W18091   5.319  15.846   1.806
45667W        W18092  39.042  32.126  11.553
45668W        W18093  22.723  20.185   0.802
45669W        W18094  30.564  10.167  14.962
45670W        W18095  32.778  32.163  11.552
45671W        W18096  39.432  27.938  12.346
45672W        W18097  43.008  25.049  14.935
45673W        W18098   6.729  43.215  11.168
45674W        W18099  26.207   7.361  13.078
45675W        W18100  33.839  29.619   2.381
45676W        W18101  44.886  22.203  12.857
45677W        W18102   1.490   7.555  12.980
45678W        W18103  13.753  26.004  11.091
45679W        W18104  10.655  22.049   2.329
45680W        W18105  24.193  16.767  13.358
45681W        W18106  24.570  21.594  10.109
45682W        W18107  21.559   2.915  13.931
45683W        W18108  17.838  38.092  14.890
45684W        W18109  14.840   3.531  13.884
45685W        W18110  28.062  14.188   4.357
45686W        W18111  12.409  21.570  12.478
45687W        W18112  22.944  31.403  13.610
45688W        W18113   5.837  40.885  11.881
45689W        W18114  32.628  32.414   4.492
45690W        W18115  17.551  38.124  10.566
45691W        W18116  38.480  18.326  11.090
45692W        W18117   6.456   0.195  11.194
45693W        W18118   6.468  22.202  13.039
45694W        W18119  41.478  10.730   2.020
45695W        W18120  33.473  38.070   2.909
45696W        W18121  21.465  25.715   1.972
45697W        W18122  17.771  25.252  13.637
45698W        W18123  27.113   3.444   4.135
45699W        W18124  42.931   5.923  11.389
45700W        W18125  25.947  15.279  12.425
45701W        W18126  10.724   8.144  14.403
45702W        W18127   9.364   4.279  11.984
45703W        W18128  10.853   5.847   5.684
45704W        W18129  20.962  41.821   4.203
45705W        W18130   4.225  23.413   3.360
45706W        W18131  32.921  11.170  11.611
45707W        W18132  40.506  41.081   4.304
45708W        W18133  24.858  32.909   1.949
45709W        W18134  32.552  21.768  11.632
45710W        W18135  34.488  26.848   2.317
45711W        W18136  41.017  15.742   1.618
45712W        W18137  11.877  32.182   4.276
45713W        W18138  33.124  21.157   0.304
45714W        W18139  18.758   0.234   0.006
45715W        W18140   0.790  30.461   1.249
45716W        W18141  20.270  29.632  14.886
45717W        W18142  14.723   2.718   2.410
45718W        W18143  30.474  42.313   4.562
45719W        W18144   2.465  18.597   0.027
45720W        W18145  10.909  42.954  13.522
45721W        W18146  31.082  39.989   4.739
45722W        W18147  23.382  14.586   2.205
45723W        W18148  42.179  39.578   0.570
45724W        W18149  34.653  15.110  11.524
45725W        W18150  43.562  26.483   0.457
45726W        W18151  39.513  21.256  10.497
45727W        W18152  36.989   6.397   2.263
45728W        W18153  24.107   8.557  12.808
45729W        W18154   0.589  17.209   1.804
45730W        W18155  24.037   4.567   5.040
45731W        W18156  43.198  35.061  14.548
45732W        W18157   9.285  26.171  11.154
45733W        W18158  41.825  21.251  14.375
45734W        W18159   6.343  15.173  12.406
45735W        W18160  37.456   5.829  14.550
45736W        W18161  20.137  26.251   0.881
45737W        W18162  17.751  17.524  14.304
45738W        W18163  38.154  16.189  13.284
45739W        W18164  41.377  14.562  14.544
45740W        W18165  17.974  14.837  14.775
45741W        W18166   7.265  43.226  10.639
45742W        W18167   1.776  11.151  14.896
45743W        W18168  35.361  26.434  12.548
45744W        W18169  32.071  22.553  10.941
45745W        W18170   0.468  29.529  11.463
45746W        W18171  23.970  40.065  12.863
45747W        W18172  41.938   4.691   0.945
45748W        W18173  18.181   2.852  11.598
45749W        W18174  32.561  25.987  13.303
45750W        W18175   1.441  39.302  12.265
45751W        W18176  42.702  18.825  12.423
45752W        W18177   3.964  24.783  11.362
45753W        W18178   5.732  36.370   3.188
45754W        W18179  13.690  39.783   1.043
45755W        W18180  29.214  39.948  12.170
45756W        W18181  23.584  23.096  10.411
45757W        W18182  41.970  35.468   0.882
45758W        W18183  35.962   0.450   2.131
45759W        W18184   9.112  42.117   0.048
45760W        W18185  35.177  25.862   1.868
45761W        W18186  28.557   1.572  12.000
45762W        W18187  11.842  22.535   2.279
45763W        W18188  39.735  44.887   3.880
45764W        W18189  29.932   2.032  10.724
45765W        W18190  40.024  27.888  13.422
45766W        W18191  10.856  24.513   0.003
45767W        W18192  30.761  23.254   4.399
45768W        W18193   8.382  40.683   4.594
45769W        W18194  26.001  16.285   2.645
45770W        W18195   7.077  27.540  14.747
45771W        W18196  27.630  40.871  11.444
45772W        W18197  17.886  31.097   1.260
45773W        W18198  28.775  39.286  14.176
45774W        W18199   4.148   8.865  13.059
45775W        W18200   7.233   7.791  12.290
45776W        W18201  25.602  23.945  12.242
45777W        W18202  42.366   3.856   0.507
45778W        W18203  44.027   9.375   2.249
45779W        W18204   4.966  30.785   4.656
45780W        W18205   4.108  39.253   3.590
45781W        W18206   3.921  26.199   1.376
45782W        W18207  40.563  40.545   0.978
45783W        W18208   5.154  10.782  12.667
45784W        W18209   6.416  18.620  14.255
45785W        W18210  36.794  36.297  14.172
45786W        W18211  29.120   7.988   3.124
45787W        W18212  41.689  31.043   1.932
45788W        W18213   0.784  44.096  10.714
45789W        W18214  16.574  27.072  12.495
45790W        W18215  23.206  31.525   0.455
45791W        W18216  11.297  15.524   4.623
45792W        W18217  19.020   9.393   1.403
45793W        W18218  28.441  30.201   9.708
45794W        W18219  17.601  12.331  11.957
45795W        W18220  43.484  36.594   3.737
45796W        W18221  22.490  22.131  13.065
45797W        W18222   8.163   4.929   3.818
45798W        W18223  44.939  11.845   2.848
45799W        W18224  33.017  40.520  12.494
45800W        W18225  24.053   1.655   0.752
45801W        W18226  32.359  17.498  13.848
45802W        W18227  20.204  44.850  11.702
45803W        W18228   0.756   0.999  14.634
45804W        W18229  39.334  38.840   3.650
45805W        W18230   8.220  28.113   0.558
45806W        W18231  22.716  35.132  13.358
45807W        W18232  15.528  22.143   4.643
45808W        W18233  33.450   4.347  14.940
45809W        W18234  19.223  16.981   1.694
45810W        W18235  21.154  34.845   2.249
45811W        W18236  13.765  38.754  11.673
45812W        W18237  10.975  21.734  10.667
45813W        W18238  17.643  44.601  11.090
45814W        W18239  21.232   1.563   2.814
45815W        W18240  33.275  36.622   1.967
45816W        W18241   7.346  35.646  10.211
45817W        W18242   3.456  28.041   1.484
45818W        W18243   3.874  27.712  12.935
45819W        W18244   4.254   1.533   0.035
45820W        W18245  11.243   5.771  14.326
45821W        W18246   6.984   4.722   3.256
45822W        W18247  11.250   7.637  11.904
45823W        W18248  18.747   4.762   2.390
45824W        W18249   2.691  30.515   2.655
45825W        W18250  33.925  33.419  12.206
45826W        W18251  42.408  20.567  10.601
45827W        W18252  12.121   2.690  13.580
45828W        W18253  25.904  13.077  11.910
45829W        W18254   7.840  20.697   1.788
45830W        W18255  40.632   3.520  14.458
45831W        W18256  30.999   1.536  13.866
45832W        W18257  14.315   3.831  13.168
45833W        W18258   7.305  14.934  13.928
45834W        W18259  25.652  21.064   2.643
45835W        W18260   4.204   4.676  14.071
45836W        W18261  12.537  21.307   1.375
45837W        W18262  28.573  32.211  13.439
45838W        W18263  14.337  19.249   2.178
45839W        W18264  42.454   2.334   2.796
45840W        W18265  11.876   1.847  13.532
45841W        W18266   4.694  26.009   1.944
45842W        W18267  27.994  24.189  14.885
45843W        W18268  37.430  31.097  11.879
45844W        W18269  30.541  43.499   0.779
45845W        W18270  43.408  19.031  14.558
45846W        W18271  33.334  20.131  12.727
45847W        W18272  42.804   3.310   3.656
45848W        W18273  25.713  16.672   3.278
45849W        W18274   3.149   4.215   3.248
45850W        W18275  16.786   0.991   2.884
45851W        W18276  29.560  29.126   4.157
45852W        W18277  44.167   9.011   3.334
45853W        W18278  24.452   4.300   0.770
45854W        W18279  19.600   3.977   0.921
45855W        W18280  16.652  15.168   4.807
45856W        W18281   2.150  18.620  14.327
45857W        W18282  16.807   2.344  10.535
45858W        W18283   4.826   4.388   2.374
45859W        W18284  29.617  34.624   3.265
45860W        W18285  32.978  25.993  14.799
45861W        W18286   1.169  21.129  12.832
45862W        W18287   6.902   8.372   3.174
45863W        W18288  44.998   6.911  10.683
45864W        W18289  16.107  33.948   4.067
45865W        W18290  13.185  18.783  13.908
45866W        W18291   9.628  34.504   4.029
45867W        W18292   6.841  30.948   2.279
45868W        W18293  39.937  14.914  11.504
45869W        W18294  28.701  27.573   4.518
45870W        W18295  41.179  35.400   3.232
45871W        W18296  23.479  17.716  11.597
45872W        W18297  10.888  10.579  10.669
45873W        W18298  27.045  19.219  14.362
45874W        W18299  41.453   7.175  13.518
45875W        W18300  44.606  21.074  11.404
45876W        W18301  14.820  12.683   2.714
45877W        W18302  18.729   6.452  10.809
45878W        W18303  21.770  25.632  13.981
45879W        W18304  16.763  13.282  13.770
45880W        W18305   1.404  33.575  13.434
45881W        W18306   1.689  29.180  12.517
45882W        W18307   1.293  25.454  14.361
45883W        W18308  36.618  22.803  12.829
45884W        W18309  24.490  41.766  13.900
45885W        W18310   4.630   5.314  13.862
45886W        W18311  26.631  39.596  11.670
45887W        W18312  38.060   7.384   4.235
45888W        W18313  20.667  28.066   2.372
45889W        W18314  27.739  44.099  14.419
45890W        W18315  40.027   9.119   1.906
45891W        W18316  21.064  11.716  14.158
45892W        W18317  24.656  18.849  14.047
45893W        W18318  28.632   5.886  13.474
45894W        W18319  43.768   4.305  11.382
45895W        W18320  14.212  10.404  13.638
45896W        W18321  22.372  22.476  14.470
45897W        W18322   8.593   7.680  12.952
45898W        W18323  14.165  29.654  10.656
45899W        W18324  26.996  33.895  14.043
45900W        W18325  30.022   7.020  14.499
45901W        W18326  35.610  32.075   1.266
45902W        W18327  35.911  29.676   1.781
45903W        W18328  38.020  30.377   1.794
45904W        W18329  28.094  12.311  14.489
45905W        W18330  38.516   8.479   1.121
45906W        W18331  15.211   6.944   3.038
45907W        W18332   6.842  10.198  12.898
45908W        W18333  44.440  36.559  14.358
45909W        W18334   0.302  43.491  13.003
45910W        W18335  39.006  28.935  12.489
45911W        W18336   1.208   3.403  12.835
45912W        W18337  38.822  18.330  12.379
45913W        W18338  16.072   6.228  11.461
45914W        W18339  36.026  16.687   2.254
45915W        W18340  23.659  42.535  14.009
45916W        W18341   8.430   2.314  13.010
45917W        W18342   7.659  13.291  13.302
45918W        W18343  24.061   1.445   0.264
45919W        W18344  29.381   9.773   1.475
45920W        W18345  33.680  40.352  11.641
45921W        W18346  14.000  42.872   2.238
45922W        W18347  21.104  13.313   2.877
45923W        W18348  42.072  43.987  10.014
45924W        W18349   8.275  32.202   5.123
45925W        W18350  10.335  24.927   4.115
45926W        W18351  19.649  19.189  13.906
45927W        W18352  19.238  11.240   1.106
45928W        W18353   4.150   4.369   0.494
45929W        W18354  12.244  21.742  13.833
45930W        W18355   3.049  12.627  14.772
45931W        W18356   7.834  10.208   0.353
45932W        W18357  36.860  42.451  13.410
45933W        W18358  19.072   2.770  11.109
45934W        W18359  37.993  27.060  13.332
45935W        W18360  20.131  34.148   4.178
45936W        W18361  14.233   5.860   1.495
45937W        W18362  22.536  25.028  13.637
45938W        W18363  24.966  29.632   3.776
45939W        W18364   8.488  27.121   1.476
45940W        W18365  40.947  33.027  11.731
45941W        W18366   7.233  40.890   4.131
45942W        W18367  21.021   8.837  13.857
45943W        W18368  37.434  22.021  12.872
45944W        W18369   7.136  37.639   0.330
45945W        W18370   1.508   7.909  12.128
45946W        W18371  34.148  20.527  14.103
45947W        W18372  32.008  41.478   4.674
45948W        W18373  36.635  12.965   1.782
45949W        W18374  44.862  29.092   2.428
45950W        W18375  17.568  25.547  11.363
45951W        W18376  41.921  12.809   2.831
45952W        W18377  35.066  14.097   2.860
45953W        W18378  13.330  22.599  14.365
45954W        W18379  34.132   7.729   1.944
45955W        W18380  22.470  15.122  13.646
45956W        W18381  25.473   5.233  14.611
45957W        W18382  29.939  13.958   2.736
45958W        W18383  43.478  26.122  14.751
45959W        W18384  11.406  39.418   1.581
45960W        W18385  23.248  21.540  13.145
45961W        W18386  11.412  33.510  11.476
45962W        W18387  29.764  24.286   3.107
45963W        W18388  27.091  25.038  14.080
45964W        W18389  28.366  15.177   0.818
45965W        W18390  39.285  18.799   1.026
45966W        W18391   4.418  15.123  11.072
45967W        W18392  31.646   4.952   3.204
45968W        W18393  37.104  27.316   0.858
45969W        W18394  14.329  42.133   0.288
45970W        W18395  16.720  30.368  12.802
45971W        W18396  41.229  12.760   2.145
45972W        W18397  26.106  39.196   0.455
45973W        W18398   9.179  28.745   2.835
45974W        W18399   2.829   9.409   1.945
45975W        W18400  41.340  37.977  13.103
45976W        W18401  19.729  13.148   3.224
45977W        W18402  26.045  25.521  11.642
45978W        W18403  20.277  38.922  12.113
45979W        W18404  10.260  29.944   0.465
45980W        W18405  42.050   7.211   0.321
45981W        W18406  32.509  10.558  10.680
45982W        W18407   1.113  42.784  14.523
45983W        W18408  28.299  22.296  12.427
45984W        W18409  16.694  18.024  13.189
45985W        W18410   1.248  32.521   2.389
45986W        W18411  37.533  23.133   0.789
45987W        W18412  32.481   5.060  10.975
45988W        W18413  33.977  17.336   1.936
45989W        W18414   1.208  36.971  14.376
45990W        W18415  43.484  16.670  10.686
45991W        W18416  19.291  27.086   1.826
45992W        W18417   7.274  17.596  12.640
45993W        W18418   3.709  25.881   0.713
45994W        W18419   8.867  38.696   0.806
45995W        W18420  43.891  32.203   0.139
45996W        W18421  11.968  35.663   4.177
45997W        W18422  13.102  39.037  14.004
45998W        W18423  21.848  10.685  13.038
45999W        W18424   3.520   9.375  11.011
46000W        W18425  31.656  21.416  11.143
46001W        W18426   7.318  31.387   3.201
46002W        W18427  41.272  36.283   2.905
46003W        W18428  26.405  11.255   0.414
46004W        W18429  31.082   0.773   4.304
46005W        W18430  20.543  11.638   1.810
46006W        W18431  20.834  32.056   3.273
46007W        W18432   3.359  29.965   4.200
46008W        W18433  27.939   4.157  12.533
46009W        W18434   2.800  37.873  10.715
46010W        W18435  18.989   3.876   4.593
46011W        W18436  21.014  27.065   0.332
46012W        W18437   8.949  28.928   1.344
46013W        W18438  42.872  22.057   3.251
46014W        W18439  23.710  30.047   0.303
46015W        W18440  27.646  27.225  12.031
46016W        W18441  41.390  34.604   3.762
46017W        W18442  11.606  10.500   4.378
46018W        W18443  27.149  37.118  11.180
46019W        W18444  41.776   0.059   4.285
46020W        W18445   5.683  39.155  13.861
46021W        W18446  36.289   7.599  10.749
46022W        W18447  35.630  26.094  13.042
46023W        W18448   8.859  33.179   0.255
46024W        W18449  14.774   3.574   2.578
46025W        W18450  14.771   0.789   2.297
46026W        W18451   1.434  26.464   3.284
46027W        W18452  11.963  28.858   4.197
46028W        W18453  41.803  43.506  14.236
46029W        W18454  19.032   4.172   1.208
46030W        W18455  17.968  29.882   3.233
46031W        W18456  36.916  24.059  11.337
46032W        W18457  40.509  27.056   0.985
46033W        W18458  21.311  36.089   0.431
46034W        W18459  43.465  36.716  11.067
46035W        W18460   7.754  44.061   4.935
46036W        W18461  11.058  12.982  12.285
46037W        W18462  23.745  18.532   3.402
46038W        W18463  13.014   2.034   4.985
46039W        W18464  10.125  12.119  14.954
46040W        W18465  18.612  17.088   1.052
46041W        W18466  12.566  43.497  12.436
46042W        W18467   0.745  41.306  13.475
46043W        W18468   3.790  12.417  14.238
46044W        W18469  20.777  37.122  13.047
46045W        W18470  41.175  34.904   0.424
46046W        W18471   6.449  17.027  12.462
46047W        W18472  20.306  26.995   3.081
46048W        W18473  42.704   1.453   1.867
46049W        W18474  13.419  17.576   4.503
46050W        W18475   8.597  32.450   0.672
46051W        W18476  38.997  13.867  14.955
46052W        W18477  22.983  29.430   4.874
46053W        W18478  19.666  42.589  11.136
46054W        W18479  38.132  32.897   4.239
46055W        W18480  38.860  24.095   0.365
46056W        W18481   1.667  44.738   0.977
46057W        W18482  17.652  34.472   0.866
46058W        W18483  41.641  37.944  11.991
46059W        W18484  27.052  11.605  13.324
46060W        W18485  23.612  13.242  14.039
46061W        W18486  10.714  39.300  14.521
46062W        W18487  43.991  25.732   1.734
46063W        W18488   9.951  27.629   1.368
46064W        W18489  14.648  39.421   4.916
46065W        W18490  30.217  33.624   2.334
46066W        W18491  42.136  43.334   2.849
46067W        W18492  33.656   1.388  10.794
46068W        W18493  20.901  15.319  12.494
46069W        W18494  35.966  44.763  12.887
46070W        W18495  41.054  17.307   1.704
46071W        W18496   4.272  13.564   2.897
46072W        W18497  41.608  41.990   1.669
46073W        W18498  44.816   7.737   4.261
46074W        W18499   8.847  37.016  12.136
46075W        W18500  26.664  41.854  14.586
46076W        W18501  10.501  34.558  11.057
46077W        W18502  42.211  35.048   1.701
46078W        W18503  42.416  38.846   2.357
46079W        W18504  18.903   1.092  14.749
46080W        W18505   0.822  41.294   3.157
46081W        W18506  28.263  14.401   1.768
46082W        W18507  44.539  17.552   1.916
46083W        W18508  28.240  31.588   4.291
46084W        W18509  31.789  40.474   2.410
46085W        W18510  11.727   4.713   2.776
46086W        W18511  29.471  15.853  12.100
46087W        W18512  17.792  24.263   3.287
46088W        W18513   4.212  14.074   2.867
46089W        W18514  38.966  29.402   0.878
46090W        W18515  36.590  26.494   1.167
46091W        W18516  28.961  24.568  12.548
46092W        W18517  41.493   2.283   0.324
46093W        W18518  24.126  15.883  12.932
46094W        W18519  32.883  16.647   3.338
46095W        W18520  12.061  32.655   3.203
46096W        W18521  31.063  23.034   0.816
46097W        W18522  23.729  21.979   0.962
46098W        W18523  29.515  26.300  13.463
46099W        W18524  27.988  39.308  13.806
46100W        W18525  32.620  44.456   3.680
46101W        W18526  39.904  24.202   2.657
46102W        W18527  32.957  22.098  11.669
46103W        W18528  37.835   2.842  13.091
46104W        W18529  10.272  39.003   1.689
46105W        W18530  27.113   9.168  10.687
46106W        W18531  22.777  18.281  13.140
46107W        W18532  28.694  10.363  13.581
46108W        W18533  22.174  42.723   3.930
46109W        W18534  13.414  21.606  13.681
46110W        W18535  24.731  15.490   0.316
46111W        W18536   9.468  34.829  14.058
46112W        W18537   9.049  41.391   3.686
46113W        W18538  23.777  30.864   3.726
46114W        W18539  13.495  34.947  12.952
46115W        W18540   0.854  36.530  10.686
46116W        W18541  22.113   0.318   4.657
46117W        W18542  28.451  29.725   2.142
46118W        W18543  21.050  26.170   2.850
46119W        W18544  35.964  12.059   1.333
46120W        W18545  30.628  21.019   3.257
46121W        W18546  15.159  20.744   4.604
46122W        W18547  19.498  33.705  12.157
46123W        W18548  14.363  16.578  10.576
46124W        W18549  18.644  31.693   4.134
46125W        W18550  35.376  20.766   4.226
46126W        W18551  40.842   5.909  12.659
46127W        W18552  16.886   5.437  14.834
46128W        W18553   8.614  39.995   1.247
46129W        W18554  16.129   8.324   2.663
46130W        W18555  17.424  17.097  13.969
46131W        W18556   4.907  16.886  13.132
46132W        W18557  13.546  39.158   1.221
46133W        W18558  36.070  34.164   0.310
46134W        W18559  22.970  35.681   0.774
46135W        W18560  21.986  20.351   2.562
46136W        W18561  25.545  11.775  13.110
46137W        W18562  43.887  14.701   1.725
46138W        W18563  41.002   1.821  12.374
46139W        W18564  17.389  10.742  12.544
46140W        W18565  29.177  11.152   4.594
46141W        W18566  25.917  30.060   2.635
46142W        W18567   8.012  40.772  11.216
46143W        W18568   9.355  15.815   2.799
46144W        W18569  30.685  44.481   2.666
46145W        W18570  10.915   5.772  11.194
46146W        W18571  13.098  31.517   3.777
46147W        W18572  30.904  37.520  12.884
46148W        W18573  11.982   0.068   3.301
46149W        W18574  34.531  40.542   2.343
46150W        W18575  19.301  39.515   3.242
46151W        W18576  23.089  38.122   1.406
46152W        W18577  29.456  35.880  14.880
46153W        W18578   8.603  25.359   3.781
46154W        W18579  22.776  25.880  12.977
46155W        W18580  13.696  14.013  14.917
46156W        W18581  16.859  20.325   4.201
46157W        W18582  44.988   6.645  14.141
46158W        W18583  25.880  14.988  13.533
46159W        W18584  43.778  36.266  14.758
46160W        W18585  26.635  23.756   1.914
46161W        W18586   0.406  20.761  14.733
46162W        W18587  43.670   9.967  13.982
46163W        W18588   4.194  22.122   4.295
46164W        W18589  34.357  33.690  11.066
46165W        W18590  10.052  36.322  14.037
46166W        W18591  24.080  23.869  14.942
46167W        W18592  18.001   9.483  11.153
46168W        W18593  35.393   5.481   2.842
46169W        W18594  32.111  36.365   2.133
46170W        W18595  32.997  35.837  11.125
46171W        W18596  27.769   3.417  11.028
46172W        W18597  15.916  24.248  11.133
46173W        W18598   5.984  15.546  12.332
46174W        W18599  26.339  18.680  11.517
46175W        W18600  21.132   1.215   3.279
46176W        W18601  21.241  22.548  12.887
46177W        W18602  38.276  17.963   4.553
46178W        W18603  20.696  28.156  13.855
46179W        W18604  20.222  42.818   1.220
46180W        W18605  35.873  34.605   3.159
46181W        W18606   1.344   4.181   2.777
46182W        W18607   2.307  37.646   3.691
46183W        W18608  25.750  15.695   1.146
46184W        W18609  43.736   2.810   0.035
46185W        W18610  44.372   3.031  11.007
46186W        W18611  24.612   8.198   2.331
46187W        W18612   8.429  44.452   2.875
46188W        W18613  15.941  16.527   4.615
46189W        W18614  43.997  32.644  13.415
46190W        W18615  36.735   9.573  11.640
46191W        W18616  32.499  38.834  14.309
46192W        W18617   4.232   7.150  14.321
46193W        W18618  22.153  35.574  14.730
46194W        W18619  35.450  43.006   2.230
46195W        W18620   4.267  43.517  11.688
46196W        W18621  34.339  12.137   2.129
46197W        W18622  43.440  25.121   1.337
46198W        W18623  22.244   9.317   4.578
46199W        W18624  23.047   8.824   1.784
46200W        W18625  13.186  33.116   3.767
46201W        W18626  14.143  44.014   4.580
46202W        W18627  35.966   0.562   3.682
46203W        W18628   9.202   4.905   2.865
46204W        W18629   6.430  32.488   4.199
46205W        W18630  31.603  26.106  13.071
46206W        W18631  40.902  33.757   3.471
46207W        W18632  29.211   2.446  11.166
46208W        W18633   8.940  28.975  10.934
46209W        W18634  39.848   3.864  13.190
46210W        W18635  29.019  37.097   2.380
46211W        W18636  37.801  40.614  12.239
46212W        W18637  18.510  13.638  12.948
46213W        W18638   3.839  39.061  13.468
46214W        W18639  26.630  12.885  14.847
46215W        W18640  11.708  36.128  10.416
46216W        W18641  18.539  33.634   4.343
46217W        W18642  43.999  21.130   4.596
46218W        W18643  26.070  43.308   3.872
46219W        W18644  20.194   9.236  11.461
46220W        W18645  40.885  20.764   0.421
46221W        W18646  36.358  42.378   2.649
46222W        W18647  41.375  32.728  10.513
46223W        W18648  34.795  34.603   3.274
46224W        W18649  35.909  21.778   2.787
46225W        W18650  43.314  36.048  13.399
46226W        W18651   9.327   9.155   3.372
46227W        W18652   4.396   2.857   2.198
46228W        W18653  43.240  34.537  14.961
46229W        W18654   7.312  22.678  13.869
46230W        W18655  18.986  26.495  12.025
46231W        W18656   0.805  43.249   3.250
46232W        W18657  15.223  20.100  12.398
46233W        W18658   5.268  12.109   2.696
46234W        W18659  27.682  20.598   3.713
46235W        W18660  43.388  18.503  10.663
46236W        W18661  10.321  32.994   1.726
46237W        W18662   6.366  28.885  13.265
46238W        W18663   3.771  38.761  14.375
46239W        W18664  25.269  11.091  11.093
46240W        W18665  26.492  31.187  11.084
46241W        W18666   4.378  34.944   2.812
46242W        W18667  19.810  35.272   1.122
46243W        W18668  33.417  20.989   1.301
46244W        W18669  22.952   5.218   1.337
46245W        W18670  10.307  19.129  10.943
46246W        W18671  10.286  27.463   2.729
46247W        W18672   3.180  11.114  12.573
46248W        W18673  42.237  20.046   0.415
46249W        W18674  38.062   4.643  12.672
46250W        W18675  21.132  36.695  13.104
46251W        W18676  29.475  34.042   3.331
46252W        W18677  43.894  21.605   1.059
46253W        W18678  43.246  10.287  10.981
46254W        W18679  18.467  35.313   3.294
46255W        W18680  25.662  23.778   1.670
46256W        W18681  41.882  41.418  10.298
46257W        W18682  21.900  14.032  14.775
46258W        W18683   7.990  16.769  12.951
46259W        W18684   0.977  36.009  13.061
46260W        W18685  15.218   5.188   3.757
46261W        W18686   4.251  25.682   3.087
46262W        W18687  13.380  36.111   4.549
46263W        W18688  36.445  19.407   3.150
46264W        W18689  16.333  30.404  13.614
46265W        W18690  14.247  20.254  12.698
46266W        W18691  25.960  23.725   3.302
46267W        W18692  44.616  27.065  13.067
46268W        W18693  43.438  17.208   0.540
46269W        W18694   7.918  35.516  10.742
46270W        W18695  11.855  36.438   2.314
46271W        W18696  14.149   1.380   2.629
46272W        W18697  41.500  44.605  14.882
46273W        W18698   7.395   5.701  12.538
46274W        W18699  16.164   3.169   2.368
46275W        W18700  40.558  22.457   2.342
46276W        W18701  27.195  31.966  14.466
46277W        W18702  10.188  12.555   4.364
46278W        W18703  15.706  14.948  10.111
46279W        W18704   3.226  32.485  14.137
46280W        W18705  33.072  14.692   4.519
46281W        W18706  27.474  11.295   1.322
46282W        W18707  27.412  36.805   3.202
46283W        W18708  16.081  10.839  11.910
46284W        W18709  36.348  11.646   1.317
46285W        W18710   8.885  33.987   2.060
46286W        W18711  37.992   7.325  10.862
46287W        W18712  44.283  19.153   3.756
46288W        W18713  42.483  33.717  11.990
46289W        W18714   9.399  34.172   0.255
46290W        W18715  21.912  19.170  11.076
46291W        W18716  14.358  30.970   1.136
46292W        W18717  30.433  15.828  14.574
46293W        W18718  37.509  17.351  11.403
46294W        W18719   1.269  22.109   4.491
46295W        W18720  35.014  17.767  13.050
46296W        W18721  28.725  10.387  12.718
46297W        W18722  11.687   6.553   4.559
46298W        W18723  28.367  28.578  13.451
46299W        W18724   2.435   9.494   2.277
46300W        W18725  23.342  13.200  11.587
46301W        W18726  19.776   4.927   0.717
46302W        W18727  42.742   8.642   1.246
46303W        W18728  17.805  34.994  14.354
46304W        W18729  26.916  20.734   1.825
46305W        W18730  12.106  35.991   3.162
46306W        W18731  12.680   4.894  14.777
46307W        W18732  35.560  16.759   0.842
46308W        W18733   2.250  34.308   4.835
46309W        W18734  39.133  32.070  14.955
46310W        W18735  37.166  15.125  13.446
46311W        W18736   6.271  13.059   2.728
46312W        W18737  30.217  40.529   0.385
46313W        W18738  39.274  43.361   0.823
46314W        W18739   9.751  14.340   3.701
46315W        W18740  31.586   1.684  14.293
46316W        W18741  20.231  20.609  12.443
46317W        W18742  26.241  13.206   5.173
46318W        W18743   9.547  25.199   3.747
46319W        W18744  28.481   4.899  12.128
46320W        W18745  11.834  12.366   2.791
46321W        W18746   5.878  10.176   0.431
46322W        W18747  16.009  40.362   4.513
46323W        W18748  28.885  18.027  11.095
46324W        W18749  36.536   0.199  12.247
46325W        W18750  36.120  44.400  10.618
46326W        W18751  33.859  38.918   3.156
46327W        W18752  29.866   9.847  14.555
46328W        W18753   6.279  25.980  14.859
46329W        W18754   6.873  19.542   0.401
46330W        W18755  12.876  16.760  13.379
46331W        W18756  19.785  44.489   2.280
46332W        W18757   4.732   0.953   0.949
46333W        W18758   3.700  43.238  14.382
46334W        W18759   7.650  24.505  13.852
46335W        W18760  33.099  40.925  14.997
46336W        W18761  27.751  10.103   3.210
46337W        W18762  31.156   1.045   3.353
46338W        W18763  34.501  35.046  11.551
46339W        W18764  17.640  24.674  11.978
46340W        W18765  18.739  28.263  10.378
46341W        W18766  44.261  10.172  14.837
46342W        W18767  44.577  41.265   2.183
46343W        W18768   4.176  22.554   4.601
46344W        W18769  35.597  23.793  11.341
46345W        W18770   7.780   3.850  13.387
46346W        W18771   2.476  42.508   2.779
46347W        W18772   1.173   9.058  14.950
46348W        W18773  40.419  16.297   0.926
46349W        W18774   2.880  40.760   0.873
46350W        W18775   1.958  38.931   4.768
46351W        W18776  25.603   6.255  12.074
46352W        W18777   1.294   6.351   2.820
46353W        W18778  10.802  13.565  13.778
46354W        W18779  11.189  44.301   3.188
46355W        W18780  37.301  34.307   3.766
46356W        W18781  22.406  35.510  12.580
46357W        W18782  37.042   4.855  12.519
46358W        W18783  35.021  37.878  11.615
46359W        W18784  29.371  30.179  11.499
46360W        W18785   2.708   9.016  12.898
46361W        W18786  37.926  18.294  14.299
46362W        W18787  35.685   5.801  14.936
46363W        W18788  29.166  29.028   3.397
46364W        W18789  43.209  19.996   3.686
46365W        W18790  14.053  22.499   1.553
46366W        W18791  42.253  44.379   1.601
46367W        W18792  28.194  32.309  11.613
46368W        W18793   8.352  11.364   2.719
46369W        W18794   5.361  42.374  12.124
46370W        W18795  11.595  37.034   2.686
46371W        W18796  35.708  13.323  13.337
46372W        W18797  23.111  36.587   1.433
46373W        W18798  19.880  37.577  14.087
46374W        W18799  12.321  25.706   2.214
46375W        W18800   5.963   0.506   3.642
46376W        W18801  33.044  29.693   3.485
46377W        W18802  14.676  34.049   3.374
46378W        W18803  34.201   2.177  11.862
46379W        W18804   7.824  43.701  14.751
46380W        W18805  20.137  22.695  11.954
46381W        W18806  19.946   9.913   0.352
46382W        W18807   9.145  38.805  12.114
46383W        W18808  19.222  31.008   4.627
46384W        W18809   6.871  29.428   2.747
46385W        W18810  28.640  10.270   2.164
46386W        W18811  40.544  23.592  10.983
46387W        W18812  14.169  16.662  13.684
46388W        W18813  15.017  40.454   1.757
46389W        W18814   9.546   8.750  11.048
46390W        W18815   0.637  35.330  11.439
46391W        W18816  28.130  16.839   2.057
46392W        W18817  20.700  37.893   1.441
46393W        W18818  16.224   7.450  12.552
46394W        W18819  16.551   7.605   0.972
46395W        W18820  29.601   3.475   2.423
46396W        W18821  26.828   8.642   1.742
46397W        W18822  27.019   4.113   4.863
46398W        W18823   8.670  28.619   2.853
46399W        W18824   4.494  29.563  13.859
46400W        W18825   5.644  31.031   3.076
46401W        W18826   5.223  33.538   3.710
46402W        W18827  28.452  28.704   4.149
46403W        W18828  26.414   1.312  13.482
46404W        W18829  28.709  13.187  12.657
46405W        W18830  21.602  41.293  14.060
46406W        W18831  37.229  39.132   1.293
46407W        W18832  40.446  12.590  10.301
46408W        W18833  37.954  37.555  11.429
46409W        W18834  18.652  15.446   3.997
46410W        W18835  12.303  41.076   2.631
46411W        W18836  38.560   6.672  14.739
46412W        W18837  25.726   0.302   3.417
46413W        W18838  17.562  17.742   3.982
46414W        W18839  33.482  37.024  14.708
46415W        W18840  43.846  21.631  14.077
46416W        W18841  43.997  40.178   1.389
46417W        W18842  42.936  44.763   3.144
46418W        W18843  36.898  27.554  12.934
46419W        W18844  14.255  39.238   4.080
46420W        W18845   1.075   6.368   1.108
46421W        W18846  43.575   5.089  14.630
46422W        W18847  41.099  11.191  11.122
46423W        W18848  31.747   1.210   4.624
46424W        W18849  12.285  32.642  12.433
46425W        W18850  25.993  13.324   4.210
46426W        W18851  18.161  36.109   0.963
46427W        W18852   3.575  37.107  12.514
46428W        W18853  19.202  25.643   4.959
46429W        W18854   0.499   7.973  12.067
46430W        W18855  37.992   5.995   2.513
46431W        W18856  26.292  38.410  12.546
46432W        W18857  19.826  43.431   3.840
46433W        W18858  23.517  27.853   4.317
46434W        W18859  21.624  16.186  13.477
46435W        W18860  17.673  35.347  12.093
46436W        W18861   4.318  18.605   0.052
46437W        W18862   6.941  10.764   2.816
46438W        W18863   3.731  10.219  12.906
46439W        W18864  34.386  28.740  14.434
46440W        W18865  42.079  44.500   9.812
46441W        W18866  37.496  25.236   0.325
46442W        W18867  43.994   4.420   0.448
46443W        W18868  36.890  16.615  13.569
46444W        W18869  39.444   0.249  13.615
46445W        W18870  33.014  14.039   1.338
46446W        W18871  20.730  11.401  14.514
46447W        W18872  20.750  13.745   2.153
46448W        W18873  28.425   3.483   3.824
46449W        W18874   0.404  24.428  11.619
46450W        W18875  19.164   8.183  13.230
46451W        W18876  35.560  15.042   4.504
46452W        W18877   3.392  15.541   1.245
46453W        W18878  38.332  44.579   4.458
46454W        W18879   6.364  23.062  12.118
46455W        W18880  25.052  18.699   2.704
46456W        W18881   8.769  11.852  13.476
46457W        W18882  36.453  40.348  14.043
46458W        W18883  39.119  35.301  10.300
46459W        W18884  44.502   1.893   2.951
46460W        W18885  19.741  27.925  12.957
46461W        W18886  43.303   8.669   2.116
46462W        W18887  23.527  31.660   3.349
46463W        W18888  17.522  32.716  10.120
46464W        W18889   1.557  14.425  12.034
46465W        W18890  23.283  11.280  10.291
46466W        W18891  11.443  19.063  11.543
46467W        W18892  12.847  20.602   1.774
46468W        W18893   4.151  22.223   1.930
46469W        W18894   8.088  28.959  12.348
46470W        W18895  18.303   1.192   5.059
46471W        W18896  27.291  10.324   0.437
46472W        W18897  20.271  36.993   3.689
46473W        W18898   1.791  23.460   0.746
46474W        W18899  20.316   4.193   0.890
46475W        W18900   9.950  17.724   2.843
46476W        W18901  23.608  23.563   4.359
46477W        W18902  38.082  13.017  12.149
46478W        W18903  18.821  38.967   0.684
46479W        W18904  32.540  10.531   0.304
46480W        W18905  16.765   1.292   3.401
46481W        W18906   0.184  38.010   0.481
46482W        W18907  23.418   1.229   3.297
46483W        W18908  25.100   9.700   0.244
46484W        W18909  30.907  21.295   3.608
46485W        W18910   2.275   7.092   4.219
46486W        W18911  30.460  37.643   2.817
46487W        W18912  43.455   9.044  14.479
46488W        W18913   2.453   6.746   2.269
46489W        W18914  33.818   4.226  12.114
46490W        W18915  36.982  15.763  11.521
46491W        W18916  43.789  22.046   0.794
46492W        W18917  16.421  12.686   1.080
46493W        W18918  42.067  26.010  14.336
46494W        W18919   3.941  22.694  14.919
46495W        W18920  30.068   9.340  11.274
46496W        W18921   5.898   9.128  11.175
46497W        W18922  18.192   1.003   1.835
46498W        W18923   1.173  30.042   0.418
46499W        W18924  24.462  13.697  12.523
46500W        W18925  22.393  29.600  13.527
46501W        W18926  16.739  38.026   0.559
46502W        W18927   4.222   7.811  11.625
46503W        W18928  26.825  38.581  14.718
46504W        W18929  22.121  37.314   3.148
46505W        W18930  11.428  39.896  12.559
46506W        W18931  23.796  30.766   1.675
46507W        W18932  40.842  26.951  14.619
46508W        W18933   1.731   3.988  13.455
46509W        W18934  44.854  44.452  12.064
46510W        W18935  21.550  19.566  13.999
46511W        W18936  13.440  36.007  10.213
46512W        W18937  33.596  19.757  10.867
46513W        W18938  40.099  22.916   1.739
46514W        W18939   8.720  15.123  14.848
46515W        W18940  26.689  14.174   0.376
46516W        W18941  21.585  39.372  11.535
46517W        W18942  40.596  36.079  14.828
46518W        W18943  30.498   0.725  11.953
46519W        W18944  34.607  12.442   0.758
46520W        W18945  25.754  44.030   3.724
46521W        W18946   1.955  28.649  13.351
46522W        W18947  16.042   6.771   0.667
46523W        W18948  25.535  13.662  10.694
46524W        W18949  36.120  40.362   1.696
46525W        W18950  24.331   9.457   4.197
46526W        W18951  19.776   2.304  12.388
46527W        W18952  18.510  23.185  14.934
46528W        W18953  32.623  31.160  13.423
46529W        W18954  14.071  35.396   0.901
46530W        W18955  34.133  10.334  13.390
46531W        W18956  39.967  14.361   2.780
46532W        W18957  14.542  27.207  10.379
46533W        W18958  30.026  23.029   2.657
46534W        W18959  23.556  20.243   1.634
46535W        W18960  22.235  32.435  12.147
46536W        W18961  20.693  32.163   3.758
46537W        W18962  24.728  37.111   2.828
46538W        W18963  23.383  32.333  11.650
46539W        W18964  35.867  31.860   3.745
46540W        W18965  39.235  42.395   2.861
46541W        W18966   5.450  27.170   1.274
46542W        W18967  13.419  16.045   3.302
46543W        W18968  32.232  23.803  14.383
46544W        W18969  39.945  18.503   4.466
46545W        W18970  15.089  36.779   0.219
46546W        W18971  28.858  26.927   3.676
46547W        W18972  40.494  43.017   0.542
46548W        W18973  30.112  34.625   0.767
46549W        W18974  20.739  18.678  14.048
46550W        W18975  16.242   3.371   0.938
46551W        W18976   1.741   4.487   0.416
46552W        W18977  39.562  19.737   2.308
46553W        W18978  37.522   9.809   0.904
46554W        W18979   5.694  26.965   4.141
46555W        W18980  19.185   6.436   0.044
46556W        W18981  44.310   1.020   5.175
46557W        W18982  35.022  23.145  10.465
46558W        W18983  41.488  18.702   3.628
46559W        W18984  33.897   8.379   3.716
46560W        W18985   8.180   2.250  13.447
46561W        W18986  16.360  42.330  14.648
46562W        W18987  30.495   3.701  10.553
46563W        W18988  24.941  20.482   4.210
46564W        W18989  26.671  11.778   3.583
46565W        W18990  41.931   7.272  11.217
46566W        W18991  35.616  14.885   0.856
46567W        W18992  30.432  25.442   3.596
46568W        W18993  43.307  37.963   3.921
46569W        W18994  20.043  15.699  14.382
46570W        W18995  22.083   5.246  12.856
46571W        W18996  21.496   8.094  14.934
46572W        W18997  43.298  37.282   0.410
46573W        W18998  15.122  35.951   1.357
46574W        W18999   3.346   9.096   3.210
46575W        W19000   8.497  27.239  12.987
46576W        W19001   7.161  34.203   4.057
46577W        W19002  12.779   8.778   4.723
46578W        W19003  28.368  35.612  11.246
46579W        W19004  21.435  38.851   1.559
46580W        W19005   6.343  36.447   4.996
46581W        W19006  35.200  30.818   0.450
46582W        W19007  17.050  44.877  14.520
46583W        W19008  33.494  21.533   1.283
46584W        W19009  40.670  21.020   5.187
46585W        W19010   0.436  29.454   1.472
46586W        W19011   7.470  42.413   2.435
46587W        W19012  39.451  37.314  11.592
46588W        W19013  35.419  15.763  11.443
46589W        W19014  16.755   1.883  10.291
46590W        W19015  32.406  28.038   9.614
46591W        W19016  14.509  27.239   2.302
46592W        W19017  35.422  30.581  13.387
46593W        W19018  40.969  28.024   3.640
46594W        W19019  23.119   8.295  10.322
46595W        W19020  15.742  15.205   2.469
46596W        W19021  31.355  30.192   4.378
46597W        W19022  40.556   0.687  11.441
46598W        W19023   8.260  32.298   4.088
46599W        W19024   3.833   2.203   4.658
46600W        W19025  22.384   7.637  14.923
46601W        W19026   2.335  26.460  10.685
46602W        W19027  31.008  11.893   3.659
46603W        W19028  43.132  12.865  10.215
46604W        W19029  41.027  42.506  13.944
46605W        W19030  40.625  29.171   0.406
46606W        W19031   8.576  32.928   1.318
46607W        W19032  15.772  27.362  12.236
46608W        W19033  13.524  31.869   0.682
46609W        W19034  30.120  37.026   0.176
46610W        W19035   9.750  30.684  14.311
46611W        W19036  21.478  24.969  11.041
46612W        W19037  35.196  11.243   0.714
46613W        W19038  14.871  28.028  11.618
46614W        W19039  30.254  23.277   4.466
46615W        W19040  41.765  42.518  10.954
46616W        W19041   1.995  21.009   1.397
46617W        W19042  14.203  44.290  12.943
46618W        W19043   5.304  44.930  13.154
46619W        W19044  15.056  32.114   4.356
46620W        W19045  29.616  13.271   1.615
46621W        W19046   0.991  36.394  11.166
46622W        W19047   3.400  36.425  11.013
46623W        W19048   3.390  22.078   4.733
46624W        W19049  39.372  20.788   0.378
46625W        W19050   5.317   9.139   3.214
46626W        W19051  13.409  17.326  14.391
46627W        W19052  41.665  16.749  11.094
46628W        W19053  18.864  14.205  14.548
46629W        W19054  20.252   1.667  12.422
46630W        W19055  19.674  13.422   0.923
46631W        W19056  22.818  24.703   4.439
46632W        W19057   4.732  28.460   1.276
46633W        W19058  33.086  43.742   3.603
46634W        W19059  18.033  27.446  11.098
46635W        W19060  29.619  31.213   1.133
46636W        W19061   3.394  35.361   0.887
46637W        W19062  39.476  23.470  12.430
46638W        W19063  16.780  27.155   4.734
46639W        W19064  38.396   0.151   3.594
46640W        W19065  16.617   9.172  10.905
46641W        W19066   1.712   4.446   0.946
46642W        W19067  30.588  26.150   3.228
46643W        W19068  13.370  32.582   4.624
46644W        W19069  44.747  34.584   0.290
46645W        W19070   7.739  14.123   2.234
46646W        W19071   4.969  27.232   2.379
46647W        W19072  15.570  24.466   1.433
46648W        W19073  12.858  33.976   3.715
46649W        W19074  41.951  41.533   3.010
46650W        W19075  37.856  10.300  14.958
46651W        W19076  24.216  22.918   2.600
46652W        W19077  41.611  18.719   1.237
46653W        W19078  14.916  13.876  13.973
46654W        W19079  20.638  30.876  11.168
46655W        W19080   5.961  13.824  14.769
46656W        W19081  25.637  39.371   1.762
46657W        W19082  16.082  10.858  10.989
46658W        W19083  42.828  17.232   4.057
46659W        W19084  20.496   7.283   3.385
46660W        W19085   0.477  20.584   1.850
46661W        W19086  14.349  13.799  13.345
46662W        W19087  28.909  28.598   0.854
46663W        W19088  26.231  41.884  11.587
46664W        W19089  16.349  40.192   1.956
46665W        W19090  33.466  12.100   0.326
46666W        W19091  43.012  41.013   0.005
46667W        W19092  27.472  22.523   4.724
46668W        W19093  19.559  10.817  14.346
46669W        W19094  26.991  23.260  11.084
46670W        W19095   7.257  25.074   0.392
46671W        W19096  43.290  30.729  14.763
46672W        W19097  13.969  13.550  11.065
46673W        W19098  22.889  20.773  10.666
46674W        W19099  35.396  16.679   1.383
46675W        W19100   4.680  42.469   4.772
46676W        W19101   8.222   5.060  12.962
46677W        W19102  18.244  38.275   0.170
46678W        W19103  26.762  10.788  10.642
46679W        W19104  14.233  10.666  10.404
46680W        W19105  10.047  17.604  14.037
46681W        W19106  23.185  33.481   0.535
46682W        W19107  43.233  34.605  12.683
46683W        W19108  33.369  36.015   1.316
46684W        W19109  19.129  12.402   2.341
46685W        W19110  43.394   5.693   1.355
46686W        W19111   0.009  22.795   1.782
46687W        W19112  29.014   7.253   3.579
46688W        W19113  42.326  10.338  13.765
46689W        W19114   4.862  20.024  11.500
46690W        W19115  30.979   1.312   4.132
46691W        W19116  27.951  37.861   1.000
46692W        W19117  31.358  35.391  13.869
46693W        W19118   4.399   9.656   1.333
46694W        W19119  38.303  35.529   1.798
46695W        W19120  17.444  16.581  11.617
46696W        W19121  16.303  36.602  13.946
46697W        W19122   3.884  22.464  13.868
46698W        W19123  17.230   3.598   4.165
46699W        W19124  41.410  13.203  11.182
46700W        W19125  31.334  20.929   0.916
46701W        W19126  43.987  14.246   3.783
46702W        W19127  39.455  16.866  10.828
46703W        W19128  11.208   4.267   1.144
46704W        W19129   2.391  43.821  13.556
46705W        W19130  19.813  37.119  11.215
46706W        W19131   1.380  36.891  10.725
46707W        W19132   7.876   6.667   4.959
46708W        W19133  35.148  29.362  12.912
46709W        W19134   3.238  11.338  11.628
46710W        W19135  42.830   0.788  12.919
46711W        W19136  36.831  36.145  12.358
46712W        W19137   1.950  36.601  14.710
46713W        W19138   3.592  14.520   3.366
46714W        W19139  38.482  31.484  13.306
46715W        W19140  25.951   5.191  11.605
46716W        W19141  21.033   6.800  12.406
46717W        W19142  34.068  13.461   2.410
46718W        W19143  14.353  42.936  14.725
46719W        W19144  27.465  15.883   2.362
46720W        W19145  18.649   4.257   4.451
46721W        W19146  44.741   6.742   1.678
46722W        W19147   9.373  43.308  11.943
46723W        W19148  39.789  10.217  11.648
46724W        W19149  13.510  23.645   9.839
46725W        W19150  22.281   9.389  13.246
46726W        W19151  14.384   4.741   3.286
46727W        W19152   0.412   0.459  13.134
46728W        W19153  13.058  15.083  11.987
46729W        W19154   7.597  23.521  11.967
46730W        W19155   8.082  42.371   4.007
46731W        W19156  19.298  26.972   4.143
46732W        W19157  25.735  38.620  11.996
46733W        W19158  26.020  40.266   2.673
46734W        W19159   9.962  10.573   4.788
46735W        W19160  32.371  11.535   1.323
46736W        W19161  18.753  39.885  12.042
46737W        W19162  13.773  18.655   0.207
46738W        W19163  44.407   3.153  12.048
46739W        W19164  22.151   3.158  11.317
46740W        W19165   1.081  21.130  11.007
46741W        W19166  33.070  30.845  13.503
46742W        W19167   0.713  43.049   0.998
46743W        W19168  28.238  10.256   3.291
46744W        W19169  23.203   9.529   1.838
46745W        W19170  38.152  22.148  14.542
46746W        W19171  22.207  28.030   2.073
46747W        W19172  17.104  11.838  11.159
46748W        W19173   3.228  10.839  11.128
46749W        W19174   2.222  16.741  11.952
46750W        W19175   4.140   6.099  13.467
46751W        W19176  20.724  42.206  12.505
46752W        W19177  33.691   6.792  10.774
46753W        W19178  22.707  37.870  10.026
46754W        W19179  11.485   7.392  14.760
46755W        W19180  32.372   1.994   1.204
46756W        W19181  42.455  10.141  13.122
46757W        W19182  16.013  13.356  12.037
46758W        W19183  13.908   9.888  11.563
46759W        W19184   5.613  40.052  13.394
46760W        W19185   9.085  32.330  11.952
46761W        W19186  18.379  22.497   2.782
46762W        W19187   6.327  43.476   1.851
46763W        W19188  38.863   3.333  12.578
46764W        W19189  24.196  21.744  12.683
46765W        W19190  26.435  29.097   4.060
46766W        W19191  18.114  35.030   3.644
46767W        W19192  15.489  16.743   4.695
46768W        W19193  34.046  12.288  14.913
46769W        W19194  31.616   7.770  13.950
46770W        W19195  25.731  35.200  13.894
46771W        W19196  38.907  23.699   2.627
46772W        W19197  12.241  27.445  13.053
46773W        W19198   4.814   5.466  10.693
46774W        W19199  15.172  19.524  12.490
46775W        W19200  21.299  32.078   1.208
46776W        W19201  37.183  41.490   0.193
46777W        W19202  28.687   8.695   2.462
46778W        W19203   9.870  18.143   0.754
46779W        W19204  15.219  24.396   5.471
46780W        W19205  30.200  30.706  11.999
46781W        W19206   6.623   8.677   4.964
46782W        W19207  28.285  42.833   4.219
46783W        W19208  30.053  43.175  13.518
46784W        W19209  13.329  16.832   0.373
46785W        W19210  26.445  25.014   1.627
46786W        W19211  42.266  31.544   4.411
46787W        W19212  27.428  34.924   0.778
46788W        W19213   6.188   1.274   1.349
46789W        W19214  22.185  12.333   4.299
46790W        W19215   0.776  15.390  13.446
46791W        W19216   9.454  17.209   0.478
46792W        W19217   2.239  43.684   3.681
46793W        W19218  39.029  21.166   0.302
46794W        W19219  36.465  26.292   5.560
46795W        W19220  26.790   3.523   2.840
46796W        W19221  21.959   9.338   2.796
46797W        W19222   2.245  25.033  14.407
46798W        W19223  22.913  44.412   2.823
46799W        W19224  11.540  37.883  10.646
46800W        W19225  13.555  23.565  14.463
46801W        W19226  15.421  31.221  11.478
46802W        W19227  26.657   1.797   4.866
46803W        W19228  25.970  33.977   2.281
46804W        W19229  16.603  26.117  12.446
46805W        W19230  30.381  32.958   1.322
46806W        W19231  41.477  14.771   3.607
46807W        W19232  22.578  36.479   2.675
46808W        W19233   8.269   0.979  13.854
46809W        W19234  24.002  11.336   1.437
46810W        W19235  39.442  40.354   4.152
46811W        W19236  20.071  35.447  12.074
46812W        W19237  19.494  41.004   1.853
46813W        W19238  30.162  10.928  12.468
46814W        W19239  24.160  42.565  13.828
46815W        W19240  40.368   5.266   2.385
46816W        W19241  32.337  24.057  13.935
46817W        W19242  17.657  15.278   0.448
46818W        W19243  31.663  24.630  14.907
46819W        W19244  32.652  24.111   0.739
46820W        W19245  20.175  12.117  10.526
46821W        W19246  12.829   4.204   1.917
46822W        W19247   6.438   1.833   4.495
46823W        W19248  27.782  37.851  11.289
46824W        W19249   9.824   7.773   3.210
46825W        W19250  27.195  16.969  14.349
46826W        W19251  32.371   8.683  12.109
46827W        W19252  41.801  40.871  13.129
46828W        W19253  37.392  31.441  13.547
46829W        W19254  18.083  35.087  12.549
46830W        W19255  17.254   8.770   1.304
46831W        W19256  23.884  16.361   4.336
46832W        W19257  28.882  19.745  11.635
46833W        W19258   7.278  41.033  11.601
46834W        W19259  21.491  17.142  13.895
46835W        W19260  35.789  39.273  12.379
46836W        W19261   7.731  40.784   1.821
46837W        W19262   0.404  38.398   1.391
46838W        W19263  29.999  20.089  13.792
46839W        W19264  37.439   5.923  12.319
46840W        W19265  18.531   5.991  10.899
46841W        W19266   3.485  20.760   1.837
46842W        W19267  28.190  31.567  12.988
46843W        W19268  39.750  42.324  11.246
46844W        W19269  31.149  11.920   1.812
46845W        W19270  32.702  32.074  12.561
46846W        W19271   5.086  10.603  10.594
46847W        W19272   7.481  42.991   4.652
46848W        W19273  31.696   0.400  14.900
46849W        W19274   8.803  24.538  13.471
46850W        W19275   7.058  39.820   2.247
46851W        W19276  21.436  38.943  13.483
46852W        W19277  16.529  13.859  12.941
46853W        W19278  23.157  12.009   4.513
46854W        W19279  34.471  28.692   4.267
46855W        W19280  15.216  21.039  13.425
46856W        W19281  14.814  29.567  11.528
46857W        W19282  39.917   3.911  11.330
46858W        W19283  14.733   5.685  14.795
46859W        W19284  17.313  23.266   2.321
46860W        W19285   3.729  24.024   2.786
46861W        W19286  18.246  16.210   2.711
46862W        W19287   3.503  27.552  14.319
46863W        W19288  35.308  22.197   0.355
46864W        W19289  10.464   0.986  10.750
46865W        W19290  29.895  30.494  14.053
46866W        W19291  21.509  16.750   4.593
46867W        W19292  44.919  24.034   1.162
46868W        W19293  41.916  43.649   1.125
46869W        W19294  37.498  35.343  12.451
46870W        W19295   9.387  25.622   4.867
46871W        W19296  32.419  30.069  13.890
46872W        W19297  38.376  42.039   3.353
46873W        W19298  39.460  40.660  13.509
46874W        W19299  39.000   3.843   0.524
46875W        W19300  21.786  39.146   0.969
46876W        W19301  35.149  34.954   4.221
46877W        W19302   2.320  11.638   0.185
46878W        W19303  30.706   4.940  10.311
46879W        W19304  42.785  14.175   2.340
46880W        W19305  17.873  35.818   4.589
46881W        W19306  41.200  24.955   4.174
46882W        W19307   0.871  16.651   4.510
46883W        W19308  21.155  21.195   2.141
46884W        W19309  30.119  19.585  14.364
46885W        W19310  37.975  30.650  14.965
46886W        W19311   8.253  19.751  10.776
46887W        W19312   8.059   3.367  13.960
46888W        W19313  17.345  44.074   2.434
46889W        W19314  16.230   1.947   2.729
46890W        W19315  26.544  35.272  12.977
46891W        W19316  29.439   6.714  11.467
46892W        W19317  37.017  44.590   2.805
46893W        W19318  31.235  19.126   0.873
46894W        W19319  30.505   3.067   3.100
46895W        W19320   9.204   3.373   4.454
46896W        W19321  19.834  32.973  10.375
46897W        W19322   9.858   3.096  14.444
46898W        W19323   5.962  32.308  12.674
46899W        W19324  22.500  33.528  14.400
46900W        W19325  29.329   7.813  13.756
46901W        W19326  18.880  40.513  12.395
46902W        W19327  40.864  30.848   2.419
46903W        W19328  39.368  36.362  12.468
46904W        W19329  29.099   8.202  12.377
46905W        W19330  19.130  28.778   4.603
46906W        W19331  37.103  28.062  11.090
46907W        W19332  41.335  28.375   4.553
46908W        W19333  36.540   8.662  11.264
46909W        W19334  21.244   6.266  11.509
46910W        W19335   7.870  34.840  10.249
46911W        W19336  16.043   5.331   0.829
46912W        W19337  31.881  11.342   1.170
46913W        W19338  16.066   1.839  11.689
46914W        W19339  21.586  31.944  12.661
46915W        W19340  23.159  25.460  14.917
46916W        W19341  21.669   0.013  12.466
46917W        W19342  16.440  20.150   1.994
46918W        W19343  41.956  41.249  14.763
46919W        W19344  26.130  21.203   2.717
46920W        W19345  40.317  24.763   2.880
46921W        W19346   9.884  33.537  12.578
46922W        W19347   3.257  20.609   4.583
46923W        W19348   1.298  31.415   4.340
46924W        W19349  33.757  24.234   1.813
46925W        W19350  19.487   1.905   2.163
46926W        W19351  12.359  40.883  11.644
46927W        W19352  39.418  24.949   0.968
46928W        W19353  28.893   1.685  13.429
46929W        W19354   5.365  34.540  12.444
46930W        W19355  41.336  41.950  11.533
46931W        W19356   3.261  37.538  14.884
46932W        W19357  42.538  31.687  11.553
46933W        W19358  20.184  26.599   3.822
46934W        W19359  37.738  41.690  12.882
46935W        W19360   4.083   2.373  12.656
46936W        W19361  19.092  21.151   4.659
46937W        W19362  41.126  30.012   3.691
46938W        W19363  30.669  17.796   1.358
46939W        W19364  35.133  34.365   1.637
46940W        W19365  21.967  19.790  13.751
46941W        W19366  37.106  39.431   2.812
46942W        W19367  18.683  42.381  14.899
46943W        W19368  44.658  20.714   4.205
46944W        W19369  37.289   4.107  12.875
46945W        W19370  15.683  38.305   0.799
46946W        W19371  19.925   0.951   4.916
46947W        W19372   8.184   7.344   1.435
46948W        W19373  40.580  32.597   0.972
46949W        W19374  41.406  44.873   4.651
46950W        W19375   7.753  18.745  12.075
46951W        W19376  28.073  18.807  11.900
46952W        W19377   9.163  42.642   4.154
46953W        W19378  26.000  38.877   3.902
46954W        W19379  31.982  38.370   1.802
46955W        W19380  11.211  20.624   2.642
46956W        W19381  33.001  28.522  12.521
46957W        W19382   9.981  19.623   4.291
46958W        W19383  43.307  44.902  10.648
46959W        W19384  20.022  36.861   0.239
46960W        W19385  17.106   3.882   3.747
46961W        W19386   7.652   6.645  14.833
46962W        W19387   8.104  17.763   0.494
46963W        W19388  24.025  14.507   1.845
46964W        W19389  42.011  31.630  12.433
46965W        W19390  36.660  42.624  11.568
46966W        W19391   1.693   5.999  12.056
46967W        W19392  23.269  33.684   1.008
46968W        W19393  23.062  19.136  13.588
46969W        W19394  38.674  26.584  13.810
46970W        W19395  32.526  23.349  12.700
46971W        W19396   4.034  13.287  14.237
46972W        W19397   6.699  18.718  10.837
46973W        W19398  13.279   2.100   1.759
46974W        W19399  10.057  31.446   2.311
46975W        W19400  21.184  35.423   3.008
46976W        W19401  19.300  29.034  10.698
46977W        W19402  13.217  27.104   0.130
46978W        W19403  35.616  41.841  12.104
46979W        W19404  20.218  13.513  13.242
46980W        W19405  21.654  13.702  11.500
46981W        W19406  13.188  18.565   3.793
46982W        W19407  26.971  23.250  12.227
46983W        W19408  30.357  32.621   1.749
46984W        W19409  40.791  26.425   2.895
46985W        W19410  31.795  40.380  11.024
46986W        W19411  28.568  30.079   4.595
46987W        W19412  12.152  31.036   3.532
46988W        W19413  25.470  10.821   2.630
46989W        W19414  33.548  40.646  12.489
46990W        W19415   3.834  33.990  11.872
46991W        W19416  14.216  27.143  13.486
46992W        W19417   1.744  10.896   1.683
46993W        W19418  18.191   5.263   0.529
46994W        W19419  19.672  10.744  10.915
46995W        W19420   1.492   3.194  14.765
46996W        W19421  23.756   8.839  10.746
46997W        W19422  43.479  25.644   2.539
46998W        W19423  19.244  24.933   0.335
46999W        W19424  17.353   3.111   4.012
47000W        W19425  11.827  29.835   1.896
47001W        W19426  19.819   9.643  14.719
47002W        W19427  22.287  41.588  11.067
47003W        W19428  14.726  30.691   0.787
47004W        W19429   5.362  17.062   1.187
47005W        W19430  27.651  36.466   3.917
47006W        W19431  39.120  44.876  13.435
47007W        W19432  22.200  32.988  13.859
47008W        W19433  35.422   5.058   4.536
47009W        W19434  36.625  31.545   3.250
47010W        W19435  12.954  14.632   3.694
47011W        W19436  30.848  26.831  11.092
47012W        W19437  24.500   7.610   1.459
47013W        W19438  25.218  29.416  14.065
47014W        W19439  30.431  19.770   3.855
47015W        W19440  37.855  44.351  13.581
47016W        W19441  19.752  27.468  13.380
47017W        W19442  12.585   7.284  12.573
47018W        W19443   3.204  41.610   0.752
47019W        W19444  25.985  29.006  14.347
47020W        W19445  21.096   3.127  14.374
47021W        W19446  12.182  14.504   4.589
47022W        W19447  31.472  10.620   4.425
47023W        W19448  36.443  26.920  10.552
47024W        W19449   4.157  17.135  12.949
47025W        W19450  39.119  43.872  13.879
47026W        W19451  16.098  31.741   4.196
47027W        W19452  18.058  16.531  11.028
47028W        W19453   0.670  24.701   5.187
47029W        W19454  40.449   3.711   0.453
47030W        W19455   5.385  16.649  13.001
47031W        W19456  22.253   4.396   1.142
47032W        W19457  36.998  33.484   0.927
47033W        W19458  22.635  17.286   2.425
47034W        W19459   7.379  19.266   0.955
47035W        W19460  19.591  16.301  12.121
47036W        W19461  12.577  31.608  14.913
47037W        W19462  25.143  12.490   1.658
47038W        W19463   6.585  35.048   5.488
47039W        W19464  35.304  18.700  13.410
47040W        W19465  17.027   6.797  10.729
47041W        W19466   8.284  33.855  12.505
47042W        W19467  42.007  20.171  14.230
47043W        W19468   6.499  19.939  10.985
47044W        W19469   5.368  17.685   3.386
47045W        W19470  43.189  26.731   4.643
47046W        W19471  26.669  22.294  11.452
47047W        W19472  14.238   1.401  10.619
47048W        W19473  24.709  16.815   3.004
47049W        W19474  17.880  11.108   1.778
47050W        W19475  34.694  11.273   0.532
47051W        W19476  10.889  19.341  13.896
47052W        W19477  37.822   0.933   1.375
47053W        W19478  38.829  30.452  12.474
47054W        W19479  35.529   0.359  14.924
47055W        W19480  43.371   3.527   1.619
47056W        W19481  30.701  16.585   4.730
47057W        W19482  21.376  23.121   2.432
47058W        W19483  18.247  21.493   2.916
47059W        W19484  15.717  43.438   4.731
47060W        W19485  19.102   6.561   2.354
47061W        W19486   3.913   4.279   2.262
47062W        W19487  28.498   5.865   3.402
47063W        W19488  44.379   3.970  11.192
47064W        W19489  29.184  15.219   1.267
47065W        W19490  25.676   6.975   4.589
47066W        W19491   2.935  38.691   4.781
47067W        W19492  22.124  14.700  10.764
47068W        W19493  28.130   0.272   5.021
47069W        W19494  37.872  40.899  11.222
47070W        W19495  17.610  24.776  13.781
47071W        W19496   9.223  22.044   3.111
47072W        W19497  32.016   0.554   4.101
47073W        W19498  16.835  35.535   0.804
47074W        W19499  29.490  28.313   3.750
47075W        W19500  16.039  28.564  12.465
47076W        W19501  17.642  18.625   0.292
47077W        W19502  21.547  42.715  14.119
47078W        W19503  13.753  29.603  12.688
47079W        W19504   3.000  20.351   2.645
47080W        W19505  17.154  36.413   2.624
47081W        W19506   4.055  12.870  14.584
47082W        W19507   8.784   6.715   4.872
47083W        W19508  36.974  20.806  14.722
47084W        W19509  20.013  15.548   1.767
47085W        W19510  43.879  28.424  14.996
47086W        W19511   6.214  29.109   4.636
47087W        W19512  16.240  12.889  14.313
47088W        W19513  17.698  13.243   1.170
47089W        W19514  28.689  22.947  11.528
47090W        W19515  40.609   9.975  12.955
47091W        W19516  33.655   2.304  10.582
47092W        W19517  37.689   5.200   2.192
47093W        W19518  14.603   7.610  13.973
47094W        W19519  14.744  30.469  12.149
47095W        W19520  40.342   8.638  14.921
47096W        W19521  38.794  42.787   2.119
47097W        W19522   6.339  34.673  11.082
47098W        W19523  12.712  10.921   4.057
47099W        W19524  13.713  12.007  12.583
47100W        W19525  22.263  40.663  14.073
47101W        W19526  17.903  39.589  13.059
47102W        W19527   1.589  42.909  10.825
47103W        W19528   7.903  13.768   2.934
47104W        W19529  30.257   2.909  11.725
47105W        W19530  41.472  12.657   2.611
47106W        W19531  39.418  14.537   0.678
47107W        W19532  29.286  33.829   2.234
47108W        W19533  32.626  43.627   1.692
47109W        W19534  43.340   0.479   2.262
47110W        W19535  32.355  10.105  13.402
47111W        W19536  24.120  10.850   4.653
47112W        W19537  38.310   3.668   0.811
47113W        W19538  35.805  14.665  13.566
47114W        W19539   2.482  39.083  11.441
47115W        W19540   3.498  10.270   1.789
47116W        W19541  24.783  24.633   0.167
47117W        W19542  13.851  21.574  13.276
47118W        W19543  41.809  43.819   1.605
47119W        W19544  29.759  13.673  12.931
47120W        W19545  18.252  42.581  11.103
47121W        W19546  43.847   0.347   2.873
47122W        W19547  43.668   9.969  12.445
47123W        W19548   8.704  17.562  14.937
47124W        W19549  31.117  19.260  12.011
47125W        W19550   8.295  24.147  13.481
47126W        W19551  19.584  43.794  13.390
47127W        W19552  34.855  41.468   2.865
47128W        W19553  28.067  33.393   4.012
47129W        W19554  21.685  43.081   1.896
47130W        W19555  17.616  42.040   2.376
47131W        W19556  13.041   8.911   3.662
47132W        W19557  20.543  38.564  12.385
47133W        W19558  12.858  37.048   3.091
47134W        W19559   0.288  35.786  14.008
47135W        W19560  31.654  36.092  13.013
47136W        W19561  25.631  21.200   3.550
47137W        W19562  33.583  41.009  14.032
47138W        W19563  26.564  18.399   3.425
47139W        W19564  16.043  17.325  13.575
47140W        W19565  26.062  31.083  10.825
47141W        W19566  33.309  13.382   3.023
47142W        W19567  22.002  30.551  13.111
47143W        W19568  33.667  25.442   1.250
47144W        W19569   9.350  37.338   0.826
47145W        W19570  20.840  35.677   2.730
47146W        W19571   0.717  30.238   2.268
47147W        W19572  15.129  30.035   3.149
47148W        W19573   4.944  37.643  12.817
47149W        W19574   7.744  42.547   2.880
47150W        W19575  14.786  32.208   3.043
47151W        W19576   1.881  13.237  10.639
47152W        W19577   8.333  42.396  14.286
47153W        W19578  21.830  41.975   3.358
47154W        W19579   5.949  15.041  14.101
47155W        W19580  10.239  33.111   3.195
47156W        W19581  16.034   6.215  13.190
47157W        W19582   0.292  22.856  12.149
47158W        W19583  37.032  41.126  12.485
47159W        W19584   4.714  32.327  12.197
47160W        W19585  38.974  22.797  12.473
47161W        W19586  39.302   2.114   4.902
47162W        W19587  42.724  25.665  12.046
47163W        W19588  36.095  13.200   3.176
47164W        W19589  42.862  22.609  11.077
47165W        W19590   8.318   9.446  10.658
47166W        W19591   7.845   4.723  10.449
47167W        W19592   4.839   2.988   4.599
47168W        W19593  30.988   8.044   1.406
47169W        W19594  12.781  18.570  11.734
47170W        W19595  25.519  20.772   3.149
47171W        W19596  25.802  12.261   0.665
47172W        W19597  41.934   6.949   3.313
47173W        W19598  14.949   2.163   3.408
47174W        W19599  20.425   1.075   2.099
47175W        W19600   9.693   8.425  12.896
47176W        W19601  37.819  17.438  14.574
47177W        W19602  41.264  22.550  10.997
47178W        W19603  16.628  15.127   2.535
47179W        W19604  43.842  12.872   3.178
47180W        W19605  25.649  25.707   0.759
47181W        W19606  28.436   1.843   4.235
47182W        W19607  34.883  40.218   4.204
47183W        W19608  31.432  20.570   3.204
47184W        W19609  16.725  36.366   2.916
47185W        W19610  40.273  43.780  11.908
47186W        W19611  36.583  26.330   1.663
47187W        W19612  35.632  24.009  12.579
47188W        W19613  20.797  40.901  11.595
47189W        W19614   4.863  28.966  13.000
47190W        W19615   7.150  30.426   1.467
47191W        W19616  26.309  26.982  13.373
47192W        W19617   9.875   9.321  12.391
47193W        W19618  12.239  16.470  13.105
47194W        W19619   6.317  25.003   2.736
47195W        W19620  22.685  30.963  13.374
47196W        W19621  21.169   0.105   4.549
47197W        W19622  44.490  41.688   3.403
47198W        W19623   0.076  14.293  11.085
47199W        W19624   8.933  31.949  11.612
47200W        W19625  17.716  41.243  14.277
47201W        W19626  33.880  33.091   4.715
47202W        W19627  33.485  43.215   3.225
47203W        W19628   5.423  28.965  10.816
47204W        W19629  19.983  38.936   0.008
47205W        W19630   6.772  20.742  14.055
47206W        W19631   0.023  39.478   1.223
47207W        W19632  13.820  33.573   0.304
47208W        W19633  12.512  31.524  13.440
47209W        W19634  39.298  10.314  11.584
47210W        W19635   8.770   5.428   0.313
47211W        W19636  38.887  27.083   3.614
47212W        W19637  13.207  44.438  12.953
47213W        W19638  21.635  30.662   1.728
47214W        W19639   9.388  11.587  10.314
47215W        W19640  10.895   5.773   0.212
47216W        W19641  12.724  29.531   3.530
47217W        W19642   7.797  42.895   3.281
47218W        W19643   7.800   3.163   0.216
47219W        W19644  21.983  36.852  14.965
47220W        W19645  29.070  34.790   2.137
47221W        W19646  26.858   2.927  12.658
47222W        W19647   7.919  37.070   2.183
47223W        W19648  16.585   1.984  14.887
47224W        W19649  32.094   8.105   3.145
47225W        W19650   0.864   4.705   9.982
47226W        W19651   6.908  25.673  14.394
47227W        W19652   5.319   4.976   4.629
47228W        W19653  44.706  38.805  10.727
47229W        W19654   6.242  43.454  11.127
47230W        W19655  36.475  33.685   4.888
47231W        W19656   8.628  35.910  11.421
47232W        W19657  32.159  19.841  14.461
47233W        W19658  11.123   4.646  12.933
47234W        W19659  37.569   1.656   0.506
47235W        W19660   1.868   0.517   1.359
47236W        W19661  16.827   8.667   4.132
47237W        W19662  38.606  26.722  10.658
47238W        W19663  34.967   4.638  10.017
47239W        W19664  20.485  24.151  14.014
47240W        W19665   0.397  27.921   4.229
47241W        W19666  24.524  32.090   3.191
47242W        W19667  10.290   1.346   1.041
47243W        W19668  24.208  20.432   3.624
47244W        W19669  27.974  44.986  11.615
47245W        W19670  34.898   1.709  13.279
47246W        W19671  11.074  21.118  11.126
47247W        W19672   8.348  20.936  12.138
47248W        W19673  31.883  15.834   2.354
47249W        W19674   4.271  37.715  11.670
47250W        W19675  27.727   8.376   0.299
47251W        W19676  32.644  29.004   3.077
47252W        W19677   5.794  41.875   1.516
47253W        W19678  31.522  44.212  13.096
47254W        W19679  34.848  42.841  12.914
47255W        W19680   5.856  42.029   3.720
47256W        W19681  28.127  36.491   1.254
47257W        W19682  13.258  17.539   9.625
47258W        W19683  36.857  21.557   0.510
47259W        W19684  37.999  21.670   0.969
47260W        W19685  28.169  29.226   3.882
47261W        W19686  38.734  14.275   1.318
47262W        W19687  35.980  36.385  12.813
47263W        W19688  14.446  23.636   4.927
47264W        W19689  15.794  25.563   4.893
47265W        W19690  13.654   4.845  12.534
47266W        W19691  19.570  26.667   0.417
47267W        W19692  24.489  20.659  14.336
47268W        W19693  43.931  11.096   1.682
47269W        W19694   1.801  27.991   2.162
47270W        W19695   2.754  19.519   0.834
47271W        W19696  12.434  13.314  14.753
47272W        W19697  41.955  12.947  13.851
47273W        W19698  37.430  25.418   4.993
47274W        W19699  20.130   7.889  14.088
47275W        W19700  10.377  30.563   1.749
47276W        W19701  34.893  25.536   3.244
47277W        W19702   4.201  26.714   3.209
47278W        W19703  25.670   7.666   2.061
47279W        W19704  15.001  17.593  13.428
47280W        W19705  35.754  12.454   0.463
47281W        W19706   2.222   4.338   3.365
47282W        W19707  43.469   7.137   0.684
47283W        W19708  38.197  23.828  11.961
47284W        W19709  39.929  35.391  10.712
47285W        W19710  30.257   1.547  13.833
47286W        W19711  27.587  23.587   1.700
47287W        W19712  44.350  10.574   1.942
47288W        W19713   9.971  25.372   1.661
47289W        W19714  35.927  31.580  14.455
47290W        W19715   8.330   9.645   1.677
47291W        W19716  12.844   0.342   2.809
47292W        W19717  37.548  39.421   4.672
47293W        W19718  27.225   8.816  12.419
47294W        W19719  14.712   5.115  11.650
47295W        W19720  38.291  19.743   2.871
47296W        W19721  40.343  35.548  13.777
47297W        W19722  13.116  13.153  14.317
47298W        W19723  32.400   3.363  13.442
47299W        W19724   9.081  37.245  14.615
47300W        W19725  20.630  24.192   0.007
47301W        W19726   3.901  24.244   4.626
47302W        W19727  27.872   2.180  14.710
47303W        W19728  32.183  32.595   3.207
47304W        W19729  43.817  21.578  12.924
47305W        W19730  35.356  22.544   3.654
47306W        W19731  44.803  12.947   4.264
47307W        W19732  26.602   2.980   4.238
47308W        W19733  10.752  22.291   0.908
47309W        W19734  32.163  10.311  10.048
47310W        W19735   0.687  37.746   3.202
47311W        W19736  44.937  29.569   2.674
47312W        W19737  35.001  33.647   2.338
47313W        W19738  10.302  18.005  14.775
47314W        W19739  11.836  17.587   1.688
47315W        W19740   1.759  33.113  12.396
47316W        W19741  14.100  31.036  12.353
47317W        W19742  20.663  16.177   2.614
47318W        W19743   5.278  34.063   3.566
47319W        W19744  19.172  20.936  11.198
47320W        W19745  31.241  21.301   4.034
47321W        W19746  35.632  37.956   4.354
47322W        W19747  21.189  28.330  13.504
47323W        W19748   8.513  40.004   0.717
47324W        W19749   4.328  42.267  11.645
47325W        W19750  10.419   1.046  12.949
47326W        W19751  18.221   8.295  10.459
47327W        W19752  23.047  25.180   1.439
47328W        W19753  33.569  16.338  10.482
47329W        W19754   2.734  17.708   3.816
47330W        W19755   9.415  26.499  12.033
47331W        W19756  26.428  36.304  11.909
47332W        W19757   4.386  28.072  10.722
47333W        W19758  28.518   6.017  14.946
47334W        W19759  44.762  26.600  10.198
47335W        W19760   2.877  16.189   1.666
47336W        W19761   3.951  23.610  12.645
47337W        W19762  26.639  39.302  14.322
47338W        W19763  22.768  44.883   1.672
47339W        W19764   2.829  23.564  14.853
47340W        W19765  32.479  15.629   4.965
47341W        W19766   6.843  15.748  12.886
47342W        W19767  25.543   3.842  11.637
47343W        W19768  18.517  13.569   1.438
47344W        W19769  23.191   9.243   9.963
47345W        W19770   9.607  37.698  13.971
47346W        W19771   5.262  11.773   0.255
47347W        W19772  10.446   6.145  14.604
47348W        W19773  37.080  25.001   0.479
47349W        W19774  36.015  34.324   0.854
47350W        W19775  36.460  10.138   3.038
47351W        W19776  35.615  37.033   3.260
47352W        W19777  43.294  37.797   0.487
47353W        W19778  33.763  10.130  14.349
47354W        W19779  26.383  27.577  12.528
47355W        W19780  26.210  34.509   4.500
47356W        W19781  36.415   2.278  12.254
47357W        W19782  34.384  18.238   4.599
47358W        W19783  22.707  30.260   0.217
47359W        W19784  40.062  33.158  14.006
47360W        W19785  35.420  21.156  13.936
47361W        W19786  36.636  32.336   2.747
47362W        W19787   1.185  36.110  14.301
47363W        W19788   0.448  11.838   2.696
47364W        W19789  43.348  26.070  11.531
47365W        W19790  39.480  29.926   1.225
47366W        W19791  11.700  39.380   2.410
47367W        W19792  14.594  39.007   3.225
47368W        W19793  27.512  44.883  11.046
47369W        W19794  17.116  38.844  13.339
47370W        W19795   4.305   9.125   4.094
47371W        W19796  40.830  15.570   2.071
47372W        W19797   5.775  42.890   1.525
47373W        W19798   7.033   9.219   1.973
47374W        W19799  31.088  14.902  13.834
47375W        W19800  36.738   5.710   3.372
47376W        W19801  34.062   2.737   4.585
47377W        W19802  25.268   7.218   4.829
47378W        W19803  38.874  16.334  12.087
47379W        W19804  10.993  20.832   0.756
47380W        W19805  19.796  10.652   3.799
47381W        W19806   7.900  29.926  12.938
47382W        W19807  27.685  38.976   2.207
47383W        W19808   0.327  41.815  11.139
47384W        W19809  18.252  31.561   3.752
47385W        W19810  36.428  31.604  11.702
47386W        W19811   0.675  38.718  10.063
47387W        W19812  19.980   4.193   2.725
47388W        W19813  15.930  30.083  12.026
47389W        W19814  33.870  26.933   0.904
47390W        W19815  12.100   9.709  13.987
47391W        W19816   3.960   1.224   2.968
47392W        W19817  39.903  21.461  11.190
47393W        W19818  23.041  16.688   4.217
47394W        W19819  39.145  12.935  13.856
47395W        W19820  32.946  23.418  11.427
47396W        W19821  20.594  22.606   1.351
47397W        W19822  20.661  44.410  10.758
47398W        W19823  30.868  18.706   4.996
47399W        W19824  33.370  31.131   4.624
47400W        W19825  41.351  10.773   2.502
47401W        W19826  29.908  24.697  14.304
47402W        W19827  20.235  38.084   0.038
47403W        W19828  16.577   4.468   3.222
47404W        W19829   4.907   5.858   2.186
47405W        W19830  35.218  24.754   2.785
47406W        W19831   0.775  44.171  14.457
47407W        W19832  26.931  13.128   1.808
47408W        W19833  38.375  21.864  12.951
47409W        W19834  41.428  21.590   3.785
47410W        W19835  20.801  11.609  10.806
47411W        W19836  31.618  24.697   2.302
47412W        W19837  10.856  31.474  12.798
47413W        W19838  38.309  22.065  11.501
47414W        W19839  24.169  35.326  13.072
47415W        W19840  38.541  36.000   0.071
47416W        W19841  32.936  44.547  13.393
47417W        W19842   7.895   4.412   1.766
47418W        W19843  11.388   8.866   4.079
47419W        W19844  12.115   8.260  11.796
47420W        W19845  39.273  38.448  14.332
47421W        W19846   8.948  21.795   1.640
47422W        W19847  27.970  32.604  10.316
47423W        W19848  29.757   2.873  11.826
47424W        W19849  37.620   8.904   0.832
47425W        W19850  43.304  18.789   0.903
47426W        W19851  17.113   7.280  13.982
47427W        W19852  26.219   4.166   2.784
47428W        W19853  16.166  23.622  10.242
47429W        W19854  30.196   6.378   0.879
47430W        W19855   3.931  12.720   2.919
47431W        W19856  23.520  38.842  12.316
47432W        W19857  29.595  25.730   1.735
47433W        W19858  11.346  28.362  12.507
47434W        W19859  15.103  38.787   3.910
47435W        W19860  44.996   3.350   4.284
47436W        W19861  19.093  26.139  13.827
47437W        W19862  37.399  38.210  11.263
47438W        W19863  21.296  24.684   2.926
47439W        W19864  14.757  22.887   5.149
47440W        W19865  41.580   8.059   4.280
47441W        W19866  31.591  26.193  14.367
47442W        W19867  33.489  24.146   0.444
47443W        W19868  33.514  36.908   4.279
47444W        W19869  42.491  37.113  11.599
47445W        W19870  38.916  25.329  14.590
47446W        W19871  33.266  14.534  14.859
47447W        W19872   7.003  44.377   0.003
47448W        W19873  26.662  30.796   0.586
47449W        W19874  25.667  24.498  13.992
47450W        W19875  24.937  14.826  11.650
47451W        W19876  27.444  23.080  12.095
47452W        W19877  23.936  42.892  10.991
47453W        W19878  34.960  29.840  12.756
47454W        W19879  38.601   9.154   4.236
47455W        W19880  38.320   5.458   1.811
47456W        W19881  34.725  34.083  14.961
47457W        W19882  17.786  22.197   3.872
47458W        W19883   5.174   4.984  14.303
47459W        W19884   8.713   1.357   4.668
47460W        W19885   8.201  26.222  13.561
47461W        W19886  26.167  14.555   3.249
47462W        W19887  40.856  24.317  11.972
47463W        W19888  10.289   9.367   1.099
47464W        W19889  36.459  43.886   1.691
47465W        W19890  32.570  34.893  14.392
47466W        W19891  36.482   2.204   3.384
47467W        W19892   2.975  13.619  11.638
47468W        W19893  35.019  24.481  13.321
47469W        W19894  15.248  40.004   0.493
47470W        W19895   1.348  15.219  10.254
47471W        W19896  44.064  16.345  10.055
47472W        W19897   9.356  35.310  14.192
47473W        W19898  22.467  34.453  12.616
47474W        W19899  43.376  22.633  13.437
47475W        W19900   2.477   1.733   1.223
47476W        W19901  31.000  12.029  14.493
47477W        W19902  24.962  38.715  13.077
47478W        W19903   3.551   4.835   4.965
47479W        W19904  22.549   1.352   0.530
47480W        W19905  13.760  28.608   3.554
47481W        W19906  29.289  13.855   2.292
47482W        W19907  32.905  33.807   0.293
47483W        W19908  26.045  30.047  13.602
47484W        W19909  19.991  32.577   1.311
47485W        W19910   3.883  30.448   0.993
47486W        W19911  31.929  37.482  11.358
47487W        W19912  12.577  15.104   0.739
47488W        W19913  41.610   0.959   1.367
47489W        W19914   1.026  31.008  12.537
47490W        W19915   1.299  11.180   4.048
47491W        W19916  34.225  34.113  14.810
47492W        W19917  30.998  33.357   5.210
47493W        W19918  18.780  22.001   4.748
47494W        W19919  37.157  44.648  11.705
47495W        W19920  27.460  27.499  10.743
47496W        W19921  28.669  44.955   1.934
47497W        W19922  31.472  34.722  13.548
47498W        W19923  16.477  42.276  13.750
47499W        W19924  36.310  44.743  10.231
47500W        W19925  26.965  24.780  12.715
47501W        W19926   9.061  26.813   1.018
47502W        W19927  33.379  24.591   1.777
47503W        W19928   5.448  25.116   3.238
47504W        W19929   0.442  31.939  11.525
47505W        W19930  43.535   9.439   0.449
47506W        W19931   1.089  19.888  11.141
47507W        W19932   9.284  40.026   2.839
47508W        W19933  18.032   4.558  12.357
47509W        W19934  31.612  32.911   2.774
47510W        W19935  14.705   3.460   0.468
47511W        W19936  13.676  39.932  13.584
47512W        W19937  11.408  21.918  14.255
47513W        W19938  26.195   3.313   9.996
47514W        W19939  20.688  33.132  10.534
47515W        W19940  15.379  43.033  11.033
47516W        W19941   5.320  18.563  11.614
47517W        W19942   6.373  15.772  13.105
47518W        W19943  34.007  19.346   1.467
47519W        W19944  21.620  14.783  10.844
47520W        W19945  21.547  32.510   1.360
47521W        W19946  38.027  12.203   0.683
47522W        W19947  17.589  11.809  12.444
47523W        W19948  20.077   6.878  13.871
47524W        W19949   1.741   1.342  13.855
47525W        W19950   1.752  25.181   2.853
47526W        W19951  37.377  25.678  14.571
47527W        W19952  10.640  35.869   1.810
47528W        W19953  10.715  31.901   4.771
47529W        W19954   9.184  40.825  10.626
47530W        W19955  15.192  44.400   0.398
47531W        W19956  41.720   5.388  11.030
47532W        W19957  42.070  41.348  11.113
47533W        W19958  34.624  40.105   2.638
47534W        W19959  24.136  27.946  13.968
47535W        W19960  41.883  34.076   0.829
47536W        W19961  33.305   3.453  10.216
47537W        W19962  27.640  38.078  10.827
47538W        W19963  14.053  20.096  13.175
47539W        W19964  28.914  40.397  11.471
47540W        W19965  25.493  11.297   2.871
47541W        W19966  15.382  12.622  11.524
47542W        W19967  38.010   8.712  12.276
47543W        W19968  33.958   1.435  12.882
47544W        W19969  32.142  30.020  12.551
47545W        W19970   6.359   6.953   5.133
47546W        W19971  21.594  31.656  10.293
47547W        W19972  35.795  18.444  14.321
47548W        W19973   3.488  41.117  13.886
47549W        W19974   5.964  32.180   0.921
47550W        W19975  30.462  36.277  10.818
47551W        W19976   3.221  11.837   1.192
47552W        W19977   6.859  32.842  11.068
47553W        W19978  12.274  41.968  12.101
47554W        W19979  38.342  25.440   0.190
47555W        W19980  19.721   5.773   0.252
47556W        W19981   1.881  16.486   3.609
47557W        W19982  35.050  20.825   3.660
47558W        W19983  22.084   0.253  14.265
47559W        W19984   7.825   5.688  10.135
47560W        W19985  29.358  21.781   1.290
47561W        W19986  42.121  17.130  10.266
47562W        W19987   4.405  24.061   2.037
47563W        W19988  18.708  29.577  13.848
47564W        W19989  40.398   6.164  10.770
47565W        W19990  10.478   5.852   5.112
47566W        W19991  22.790   4.405   3.252
47567W        W19992  20.918  11.685   1.419
47568W        W19993   8.324  34.143   3.521
47569W        W19994   7.697  31.609   1.824
47570W        W19995  11.220   4.361  11.484
47571W        W19996  38.039  37.472   0.391
47572W        W19997  21.738  41.314   0.408
47573W        W19998   4.470  22.187  11.731
47574W        W19999  31.000  15.546  11.885
47575W        W20000  36.003  24.781   0.912
47576W        W20001  38.284  42.779   2.274
47577W        W20002  14.760   0.842   0.949
47578W        W20003  11.743  24.347  10.931
47579W        W20004  19.744   5.339  14.862
47580W        W20005  23.124   9.574  13.607
47581W        W20006  39.009  28.152   1.994
47582W        W20007  43.968  43.500   1.846
47583W        W20008   9.354  36.454  10.596
47584W        W20009  27.974  21.703   0.724
47585W        W20010  40.215   4.410   1.200
47586W        W20011  15.715  26.624  10.590
47587W        W20012   9.762  26.623   4.189
47588W        W20013   5.661  15.838   0.318
47589W        W20014  26.343  32.850  13.065
47590W        W20015   7.765  36.845   0.370
47591W        W20016  39.911  23.624   3.538
47592W        W20017  26.650  23.549   1.420
47593W        W20018  29.692  22.909   0.473
47594W        W20019   0.943   6.644  12.711
47595W        W20020  28.560  19.556  14.291
47596W        W20021  39.569  43.975  11.377
47597W        W20022  44.468  38.023   4.546
47598W        W20023   4.698   4.884   2.458
47599W        W20024  14.586   7.842   3.714
47600W        W20025  36.620  39.032   2.277
47601W        W20026  27.609  39.746   1.507
47602W        W20027  13.626  13.851  12.378
47603W        W20028  21.645  22.783  14.632
47604W        W20029  33.490  30.841   3.649
47605W        W20030  10.631   0.451   0.235
47606W        W20031  38.695  25.617  12.512
47607W        W20032   3.946   6.242  11.872
47608W        W20033  24.713  20.253   4.608
47609W        W20034  38.925  27.714  14.923
47610W        W20035  33.739  17.041   0.958
47611W        W20036   0.312   3.479   1.026
47612W        W20037  10.193  16.444   4.677
47613W        W20038  36.026   9.773   0.784
47614W        W20039  43.670   5.289   1.171
47615W        W20040  31.500   0.867  10.779
47616W        W20041  22.206  16.788  12.399
47617W        W20042   6.454   7.841  11.084
47618W        W20043  42.946   2.211   5.011
47619W        W20044  41.559  43.838   9.959
47620W        W20045  38.038  38.862  13.286
47621W        W20046  23.705  20.928   3.507
47622W        W20047  41.011  26.715   4.158
47623W        W20048   3.240   4.946   4.059
47624W        W20049   9.627  32.005   5.111
47625W        W20050   1.234  40.788   0.763
47626W        W20051  28.137  26.450   0.055
47627W        W20052   4.293  15.794  10.664
47628W        W20053  16.122  37.960   3.683
47629W        W20054  23.869   6.422   1.481
47630W        W20055   4.417  43.723   4.573
47631W        W20056  25.271  37.894   3.788
47632W        W20057   7.187  35.338  14.269
47633W        W20058   1.006  16.752   3.506
47634W        W20059  29.908  44.977   3.596
47635W        W20060  35.272  19.576  12.507
47636W        W20061  20.793  39.923  10.598
47637W        W20062  31.195   9.142   0.266
47638W        W20063  36.328  40.928   3.678
47639W        W20064   2.783  14.386  13.345
47640W        W20065  35.101  22.609   0.575
47641W        W20066   1.726  32.460   4.135
47642W        W20067  34.324  10.804  14.067
47643W        W20068  34.325  32.996   0.718
47644W        W20069  37.593  38.972   2.214
47645W        W20070  34.993  40.584  11.135
47646W        W20071  28.668  18.016   2.264
47647W        W20072  33.995  44.029   4.602
47648W        W20073   7.627  26.174   4.195
47649W        W20074  14.488  35.642   1.848
47650W        W20075  13.399  13.741   4.555
47651W        W20076   0.805  40.632   2.567
47652W        W20077  30.107  14.595   3.842
47653W        W20078  20.539   7.808   3.441
47654W        W20079  15.618  31.594  11.157
47655W        W20080   2.485  38.898   4.629
47656W        W20081  25.993   7.098   0.719
47657W        W20082  32.360  17.394   3.306
47658W        W20083  29.097  37.886  14.681
47659W        W20084  22.597  19.047  12.204
47660W        W20085  11.562   7.680  13.527
47661W        W20086  39.926  29.405  13.430
47662W        W20087  13.793  28.362  13.887
47663W        W20088   7.907  34.294   1.015
47664W        W20089  30.003   8.672   4.407
47665W        W20090   4.736   5.351   3.318
47666W        W20091  40.704  32.445  13.081
47667W        W20092  36.118   9.204  12.457
47668W        W20093  35.409  32.657   3.715
47669W        W20094  30.603  28.932   3.616
47670W        W20095  29.112  29.564  10.715
47671W        W20096  35.891  41.081  14.052
47672W        W20097   6.424  25.376  12.000
47673W        W20098  11.589   2.421   3.215
47674W        W20099  22.050  14.217  11.012
47675W        W20100  33.008  35.861   1.697
47676W        W20101  18.265   3.304   2.523
47677W        W20102  29.901  18.602   2.242
47678W        W20103  12.020  11.123   4.525
47679W        W20104   1.781   8.588   4.535
47680W        W20105  40.598  20.662   0.908
47681W        W20106   8.380   9.191  14.355
47682W        W20107  36.641  35.502  10.949
47683W        W20108  12.163  16.259   1.870
47684W        W20109  26.393  35.953   0.569
47685W        W20110  31.376  18.999  13.793
47686W        W20111  29.759  15.712   2.560
47687W        W20112  37.986  34.560  10.906
47688W        W20113  17.271  23.700  14.307
47689W        W20114  12.302  37.311  12.985
47690W        W20115   0.992  19.476   4.150
47691W        W20116  44.483   8.030  12.019
47692W        W20117  17.660  16.157  14.148
47693W        W20118   0.370  22.830   2.641
47694W        W20119   7.387  24.553  11.161
47695W        W20120  35.905   1.329  13.917
47696W        W20121   2.404  32.559   2.583
47697W        W20122   0.585  44.297   5.108
47698W        W20123   6.171  18.316  13.035
47699W        W20124  36.069   8.769  12.722
47700W        W20125  41.333  24.699   1.368
47701W        W20126  26.359  21.634  10.765
47702W        W20127  39.062  20.111  11.116
47703W        W20128  32.264   4.327   3.652
47704W        W20129   5.366  27.984   0.012
47705W        W20130   4.391  36.569  14.042
47706W        W20131  22.133  43.097   4.275
47707W        W20132  27.906   6.779  11.498
47708W        W20133  30.606  37.705  12.429
47709W        W20134  30.925  30.638  12.567
47710W        W20135  23.031   6.809  11.464
47711W        W20136  14.726  42.336   1.876
47712W        W20137  39.906  18.547   0.941
47713W        W20138  41.968  29.131   4.794
47714W        W20139  35.586  15.099  10.721
47715W        W20140  26.453   7.775  12.851
47716W        W20141  31.192  23.162  10.653
47717W        W20142  28.667  15.794  14.917
47718W        W20143  11.546  19.452  14.374
47719W        W20144  25.321  37.926   2.795
47720W        W20145  13.669  35.846   2.188
47721W        W20146  17.682  40.459  11.537
47722W        W20147   2.248  10.834   1.384
47723W        W20148  28.149  15.896  14.940
47724W        W20149  17.336  44.547  10.598
47725W        W20150  29.642  42.883   4.572
47726W        W20151  10.733  38.853  13.238
47727W        W20152  21.716  43.971   4.744
47728W        W20153   3.000   3.636   1.748
47729W        W20154  26.058   4.906   1.030
47730W        W20155  40.084  42.042   3.740
47731W        W20156  28.570  21.383  12.519
47732W        W20157   4.268  10.081  14.402
47733W        W20158   1.126  44.376  12.507
47734W        W20159  25.754  42.480   1.872
47735W        W20160   6.812  14.843  11.598
47736W        W20161  14.847  27.648   0.356
47737W        W20162   1.240  17.154   3.302
47738W        W20163  17.622  25.369  10.344
47739W        W20164  14.471   7.423  14.743
47740W        W20165  35.402  30.942  14.713
47741W        W20166   3.338  40.827  13.358
47742W        W20167  19.243  32.377  13.844
47743W        W20168  21.122  16.789   1.968
47744W        W20169  31.721  11.659   2.635
47745W        W20170  21.074  42.864   0.877
47746W        W20171   6.841  18.505   1.836
47747W        W20172   1.939  41.601  14.044
47748W        W20173  37.545  39.619   0.336
47749W        W20174  15.669  36.953   4.891
47750W        W20175   3.897  16.600  13.999
47751W        W20176  40.025  37.090   4.546
47752W        W20177   5.371  42.483  14.443
47753W        W20178  35.546  44.843  14.939
47754W        W20179  25.568  13.116  10.723
47755W        W20180  41.797  14.732   3.223
47756W        W20181  42.279  35.860  13.465
47757W        W20182  43.035  24.476  14.968
47758W        W20183  14.357   8.583   3.133
47759W        W20184  17.989   6.496   4.879
47760W        W20185  20.701   2.094  11.635
47761W        W20186  28.631  41.516  10.751
47762W        W20187   6.864  36.396   5.048
47763W        W20188  38.365  34.033   4.554
47764W        W20189   0.656   7.492   3.193
47765W        W20190  34.442   2.982  13.499
47766W        W20191  19.297  31.769  13.033
47767W        W20192  11.176  21.083  13.539
47768W        W20193  38.332  43.280   0.753
47769W        W20194   4.332  28.877   0.988
47770W        W20195  36.881  25.800   0.777
47771W        W20196  22.018  11.157   3.749
47772W        W20197   8.887  28.948  10.399
47773W        W20198  22.629  20.357  10.906
47774W        W20199  43.313  10.588  14.193
47775W        W20200   0.498  15.692  13.083
47776W        W20201  16.717   4.677   3.667
47777W        W20202  26.437   0.913   3.709
47778W        W20203  30.955  24.620   0.882
47779W        W20204   6.269  17.461   0.780
47780W        W20205  34.005  26.045   0.966
47781W        W20206  33.453  27.108   1.908
47782W        W20207   1.403  12.104   2.714
47783W        W20208  19.174  16.205  13.441
47784W        W20209  32.152  39.902   2.846
47785W        W20210   9.712  20.102   3.177
47786W        W20211  16.104   5.013   2.866
47787W        W20212  27.202  17.141   2.608
47788W        W20213  44.798  34.612  13.753
47789W        W20214  34.835  41.104   0.734
47790W        W20215  15.740  39.537   3.494
47791W        W20216  12.579  38.433  12.064
47792W        W20217  15.178   1.000   4.370
47793W        W20218   8.196  22.262   1.130
47794W        W20219  13.226  26.548  14.981
47795W        W20220  16.703  23.520   0.483
47796W        W20221  32.919  13.338   0.744
47797W        W20222  41.922  44.176   1.236
47798W        W20223  10.829  32.054  14.912
47799W        W20224  15.778  33.744   2.228
47800W        W20225  26.507   4.910  13.755
47801W        W20226  33.586  17.699   2.810
47802W        W20227   9.751   6.212  12.395
47803W        W20228   8.269  27.858  10.998
47804W        W20229  36.045  15.020   4.321
47805W        W20230  24.179  19.988  12.062
47806W        W20231  22.097   5.911   4.099
47807W        W20232  30.882  42.517  13.002
47808W        W20233  18.063  25.701  10.706
47809W        W20234  36.351   3.181   2.259
47810W        W20235  13.167  28.915   1.353
47811W        W20236  17.875  29.550  10.759
47812W        W20237  26.539  35.357   1.439
47813W        W20238  38.020   0.435   1.321
47814W        W20239  23.588  28.622   4.629
47815W        W20240  41.299   6.425   4.716
47816W        W20241  23.201  31.543  14.899
47817W        W20242  21.656  18.315  11.773
47818W        W20243   8.193   8.514   3.727
47819W        W20244  39.513  15.817   1.093
47820W        W20245  44.457   6.465   3.218
47821W        W20246  13.681  11.804  14.501
47822W        W20247  16.865   7.150   0.785
47823W        W20248  36.986  12.325   3.789
47824W        W20249  25.045  33.067   2.827
47825W        W20250   2.522  15.800   0.010
47826W        W20251  40.793  34.849   1.947
47827W        W20252  44.717  14.328  10.693
47828W        W20253  16.285  14.102   4.539
47829W        W20254  31.475  20.846   4.154
47830W        W20255  41.014   6.811   1.348
47831W        W20256   6.376  43.280   0.777
47832W        W20257  28.528   2.808   3.179
47833W        W20258   0.896  41.112  11.957
47834W        W20259   7.856  21.866  12.236
47835W        W20260  34.861  25.876  11.969
47836W        W20261   5.798  35.463  13.371
47837W        W20262  29.135  15.982   1.777
47838W        W20263  32.986  12.640  12.893
47839W        W20264   5.384  11.282  13.389
47840W        W20265   2.433  27.548   0.241
47841W        W20266   1.862  33.157   2.915
47842W        W20267  15.552  17.854  12.540
47843W        W20268  18.133  33.759   1.442
47844W        W20269  13.727  15.720  13.949
47845W        W20270  19.687   4.902   4.002
47846W        W20271  35.063  39.967  12.566
47847W        W20272  20.120  20.724   4.511
47848W        W20273  15.093  29.463  14.261
47849W        W20274   1.909   3.350  10.784
47850W        W20275  27.269  20.410  13.465
47851W        W20276  13.798  26.609   4.723
47852W        W20277  35.467  30.077  12.099
47853W        W20278  11.132  36.470   3.005
47854W        W20279  36.143  19.914   1.412
47855W        W20280  16.308  40.570   2.325
47856W        W20281  29.273  44.418  14.564
47857W        W20282  26.117   2.561  11.625
47858W        W20283  37.450  42.850   3.724
47859W        W20284  37.094   3.230  13.918
47860W        W20285  39.352   4.326  10.864
47861W        W20286   2.018  32.873   4.246
47862W        W20287  14.756   0.207  11.633
47863W        W20288   7.989   9.789   4.534
47864W        W20289  16.668  31.848   5.472
47865W        W20290   7.322  23.096   1.790
47866W        W20291  16.694  42.994  12.508
47867W        W20292  33.910  15.658  12.950
47868W        W20293   6.135   8.717   4.074
47869W        W20294  11.615  24.559   1.694
47870W        W20295  19.493  39.406   4.455
47871W        W20296  20.203  23.115   4.611
47872W        W20297  30.979   8.640  13.070
47873W        W20298  40.045  33.062  13.148
47874W        W20299   8.133  21.592  13.735
47875W        W20300  10.167  25.116  11.213
47876W        W20301  29.372  25.067   2.527
47877W        W20302  31.366   0.388   1.202
47878W        W20303  44.873   1.033   4.270
47879W        W20304  16.740  34.592   0.212
47880W        W20305  33.868  25.580   3.228
47881W        W20306  37.434  44.291   1.838
47882W        W20307  15.118  31.972  12.022
47883W        W20308  32.642  13.676  14.252
47884W        W20309  16.730  28.450  13.775
47885W        W20310   0.093  27.061   4.003
47886W        W20311   4.922  28.944   3.702
47887W        W20312  35.078  30.331  12.608
47888W        W20313   9.764  11.632   1.639
47889W        W20314  15.174  20.597  12.520
47890W        W20315  13.233  38.324   1.706
47891W        W20316  33.568  13.297  14.346
47892W        W20317   3.352  36.122  10.239
47893W        W20318  44.553  29.169   0.894
47894W        W20319  12.643  12.273   4.231
47895W        W20320   8.367   1.717  14.279
47896W        W20321  33.327   6.362  11.594
47897W        W20322  35.959   5.420  12.853
47898W        W20323  16.069  42.129  13.101
47899W        W20324  36.450  24.561   1.820
47900W        W20325  19.460  33.012   0.681
47901W        W20326  30.392  40.919   2.416
47902W        W20327  38.897  31.637  12.440
47903W        W20328  38.951  29.362   4.155
47904W        W20329  21.333  22.482   2.597
47905W        W20330  25.584  12.215   3.386
47906W        W20331  17.383  32.214  12.366
47907W        W20332  10.660  15.856   2.238
47908W        W20333  37.011  15.991  10.502
47909W        W20334  34.834   7.851   0.765
47910W        W20335  27.975  37.926   3.699
47911W        W20336  44.420  41.722  12.508
47912W        W20337  44.514   9.879   2.870
47913W        W20338  43.003  28.740  11.638
47914W        W20339  33.878  44.762   2.400
47915W        W20340   0.353  32.842  12.865
47916W        W20341  35.611  11.763   2.344
47917W        W20342   8.409  24.063   2.320
47918W        W20343  35.613  13.068   3.698
47919W        W20344   8.293   6.903   4.786
47920W        W20345  11.421   4.940   4.172
47921W        W20346   6.285  28.118   5.132
47922W        W20347  19.595  39.822   1.530
47923W        W20348  11.326   3.919   0.713
47924W        W20349  12.987  32.078   0.902
47925W        W20350  37.296  16.232   0.283
47926W        W20351  39.311  18.832   2.243
47927W        W20352  39.434   8.613   3.245
47928W        W20353  19.748  13.274   1.436
47929W        W20354  31.122  28.907   3.218
47930W        W20355  32.785   8.361   1.511
47931W        W20356  18.469  28.526  11.204
47932W        W20357  41.590  22.240   2.102
47933W        W20358  33.997  29.560   0.016
47934W        W20359  15.804   2.333   1.426
47935W        W20360   1.357   5.274  13.072
47936W        W20361   9.708  43.710   2.235
47937W        W20362  26.399   2.277   3.852
47938W        W20363  22.070  39.576   4.729
47939W        W20364  32.733  43.952  13.390
47940W        W20365  36.531  33.703  11.555
47941W        W20366  21.183  20.007   4.143
47942W        W20367  40.306  14.495   4.800
47943W        W20368  14.212  25.577  11.854
47944W        W20369  31.592  36.463   1.857
47945W        W20370  28.008  27.047  12.331
47946W        W20371  17.676  38.304   1.952
47947W        W20372  17.320  42.255   4.334
47948W        W20373  36.340  24.093  14.529
47949W        W20374   1.185   1.611   0.396
47950W        W20375  17.660  32.541   1.715
47951W        W20376   4.750  20.556   3.305
47952W        W20377  39.047  20.447   3.706
47953W        W20378  31.507  29.484   4.935
47954W        W20379  10.942  17.544   2.719
47955W        W20380  28.525  19.311  11.601
47956W        W20381  23.156  22.391   2.705
47957W        W20382  12.148  23.878  10.693
47958W        W20383  26.956  26.119   0.033
47959W        W20384  38.886  22.477   2.219
47960W        W20385  16.255  30.233   2.612
47961W        W20386  36.170  14.625  11.202
47962W        W20387  34.127   9.160  11.557
47963W        W20388  26.785   0.433   4.655
47964W        W20389  35.099  34.553  14.809
47965W        W20390  32.547   1.192  14.897
47966W        W20391  41.390  19.970   3.568
47967W        W20392  41.611   7.692   2.742
47968W        W20393  22.435  19.889  11.657
47969W        W20394  23.023   6.860  10.946
47970W        W20395   5.234  34.143  14.333
47971W        W20396   6.876   8.374  14.587
47972W        W20397  39.896  41.903   5.020
47973W        W20398  33.484   2.408   0.633
47974W        W20399  23.199  19.321   1.891
47975W        W20400   4.315  14.084  12.125
47976W        W20401  10.688  16.998  14.022
47977W        W20402  23.736   5.639   0.901
47978W        W20403  16.791  31.653  11.182
47979W        W20404  40.815  13.615  13.345
47980W        W20405  18.444  12.516   3.499
47981W        W20406   8.760  30.232   3.716
47982W        W20407  24.515  24.569  11.664
47983W        W20408  32.666   1.600  11.162
47984W        W20409  21.290  32.568   1.803
47985W        W20410  29.984  35.525  13.947
47986W        W20411  44.023  19.254  10.714
47987W        W20412  42.262  27.540  12.176
47988W        W20413  43.428  27.627  10.606
47989W        W20414   2.271  37.492   0.999
47990W        W20415   7.874   1.827   2.733
47991W        W20416  30.692  22.114  14.428
47992W        W20417  33.335  40.493  11.203
47993W        W20418  36.641  11.947   4.928
47994W        W20419  15.886  44.863  12.481
47995W        W20420  18.552  17.289   0.450
47996W        W20421  15.291   7.638  13.393
47997W        W20422  13.989   4.360  10.959
47998W        W20423  38.530  33.434   3.439
47999W        W20424  31.691  26.705   0.676
48000W        W20425  31.658   5.539  13.116
48001W        W20426  30.832  18.611  11.042
48002W        W20427   1.626  21.732  11.887
48003W        W20428  21.519  44.741  11.196
48004W        W20429   6.462  20.635   0.453
48005W        W20430  15.322  19.955  11.052
48006W        W20431  21.611   1.111   4.983
48007W        W20432   7.146  23.108   3.068
48008W        W20433  18.017   3.993   1.420
48009W        W20434   2.501  15.794  10.092
48010W        W20435  37.106  23.646  13.659
48011W        W20436  27.459   4.880  10.498
48012W        W20437  27.109  32.886   2.835
48013W        W20438  31.883  15.338  11.109
48014W        W20439  22.331   3.518   1.881
48015W        W20440  20.996   6.003  12.158
48016W        W20441   2.835  13.134  10.669
48017W        W20442   7.903   0.382   2.797
48018W        W20443   8.717  37.508  12.261
48019W        W20444  39.749  24.336  11.160
48020W        W20445  31.927  16.196  14.014
48021W        W20446  26.640  18.675  11.984
48022W        W20447  18.745  15.312  10.419
48023W        W20448  11.656  29.882  10.973
48024W        W20449  42.302  14.291  14.897
48025W        W20450  27.473  16.949   0.505
48026W        W20451  22.563  35.812  11.933
48027W        W20452  13.576  42.065   1.414
48028W        W20453  10.119   4.823  10.206
48029W        W20454  31.045  36.635  13.504
48030W        W20455  11.880  33.126   4.257
48031W        W20456  31.764  32.721   4.155
48032W        W20457  33.384   7.478   1.893
48033W        W20458  15.409  23.165  11.916
48034W        W20459   1.328   1.889   2.435
48035W        W20460  20.151   7.225  11.991
48036W        W20461  15.829  12.404   1.893
48037W        W20462   7.976  15.848  13.408
48038W        W20463  29.199   6.395  11.853
48039W        W20464  13.093  44.517   1.316
48040W        W20465   9.788  19.614   3.367
48041W        W20466  27.154  16.477   3.348
48042W        W20467   5.450  17.067  10.353
48043W        W20468  32.361  33.476   9.937
48044W        W20469   1.041  19.092  10.645
48045W        W20470  23.120  28.383  11.907
48046W        W20471  26.791  21.094   0.504
48047W        W20472  15.756  36.371   2.977
48048W        W20473  31.849  23.738  13.041
48049W        W20474  26.693  13.690  12.978
48050W        W20475  35.077   3.303   0.732
48051W        W20476  19.245  31.852  11.286
48052W        W20477  28.997  33.942   3.118
48053W        W20478   9.189   6.940   3.701
48054W        W20479  44.065  17.994   2.382
48055W        W20480  24.951  37.426  13.791
48056W        W20481  32.546  25.136   0.125
48057W        W20482   5.228  20.763  10.983
48058W        W20483  42.446   4.930   3.311
48059W        W20484  19.720  39.366   3.531
48060W        W20485  43.030  38.410   4.581
48061W        W20486  23.118  26.684  10.758
48062W        W20487  42.956  23.091   2.986
48063W        W20488  39.567   8.253   4.208
48064W        W20489   6.648  35.304  14.316
48065W        W20490   2.697  17.191   4.931
48066W        W20491  41.498  29.437  12.603
48067W        W20492  24.202  22.216   0.970
48068W        W20493  21.449  19.083  12.469
48069W        W20494  27.550   8.993   4.499
48070W        W20495   4.810  36.010   4.980
48071W        W20496   8.314  19.305   2.716
48072W        W20497  22.492   1.471  13.484
48073W        W20498  32.459  11.574   0.483
48074W        W20499  33.569  14.174   5.165
48075W        W20500  10.597  31.650  12.390
48076W        W20501  19.667  44.957  11.880
48077W        W20502   7.353  20.226   4.597
48078W        W20503   6.201  36.395   0.304
48079W        W20504  34.012  19.589  11.642
48080W        W20505  18.280   5.255   0.027
48081W        W20506  13.586   4.382   3.697
48082W        W20507  31.090  17.815  12.283
48083W        W20508  32.381  14.900   0.954
48084W        W20509  36.339  29.863  10.774
48085W        W20510  42.896  37.524   1.469
48086W        W20511  43.490  29.139   1.812
48087W        W20512  44.283  15.869  10.001
48088W        W20513  29.678  28.577   2.845
48089W        W20514   4.417  18.153   3.645
48090W        W20515  40.445   0.694  13.328
48091W        W20516  39.465  17.569  14.021
48092W        W20517  32.617   7.697  11.124
48093W        W20518   8.585  14.374   0.530
48094W        W20519  21.873  30.580  12.367
48095W        W20520  42.719  29.493  11.237
48096W        W20521  26.195  26.477   4.399
48097W        W20522  38.026  22.536  11.189
48098W        W20523   8.856  15.901  14.582
48099W        W20524  24.218   8.405   3.637
48100W        W20525  32.376   5.772   1.257
48101W        W20526  34.869  34.396  11.957
48102W        W20527  44.322  35.212   3.329
48103W        W20528   1.252  36.485   4.394
48104W        W20529   6.871   9.224  11.327
48105W        W20530  33.580  39.800   4.036
48106W        W20531  21.640  38.121  14.602
48107W        W20532   8.401  34.696  13.367
48108W        W20533   8.766  17.741   4.601
48109W        W20534  39.330  10.260   0.326
48110W        W20535  17.500  10.429  10.990
48111W        W20536  40.809  28.221  12.462
48112W        W20537  10.208  27.467   1.801
48113W        W20538  36.012  16.636  13.022
48114W        W20539  26.708  37.482   2.921
48115W        W20540  23.688  22.190  14.668
48116W        W20541   3.324  14.785  11.676
48117W        W20542   5.774  38.227  10.719
48118W        W20543  40.252  40.154   4.159
48119W        W20544  29.069  13.055   3.250
48120W        W20545  37.889  10.827  14.899
48121W        W20546   7.470  24.019  13.824
48122W        W20547   5.246  26.304   3.960
48123W        W20548  16.028  43.563   1.549
48124W        W20549   9.695  32.395   0.264
48125W        W20550  20.778  26.716   3.802
48126W        W20551  19.720  31.233   4.693
48127W        W20552   2.804   1.461   4.188
48128W        W20553  32.189   6.481   5.270
48129W        W20554  21.241  33.107  13.117
48130W        W20555  31.954  17.011  10.680
48131W        W20556  43.909   3.048  10.661
48132W        W20557  14.111  22.190  11.663
48133W        W20558  31.488  11.371  10.680
48134W        W20559  18.985   4.326  13.218
48135W        W20560  28.929   7.292  14.118
48136W        W20561   6.683  14.128  14.312
48137W        W20562  20.319  29.014   0.472
48138W        W20563   1.781  26.841  13.123
48139W        W20564  39.228  39.793   2.578
48140W        W20565  39.066  37.265   0.514
48141W        W20566  23.432  28.449   0.099
48142W        W20567  42.378  15.373   2.892
48143W        W20568   3.812   7.872   2.923
48144W        W20569  41.528  10.701  10.558
48145W        W20570  27.605  22.465   0.729
48146W        W20571   1.415  10.515   0.883
48147W        W20572  13.705  21.395  10.339
48148W        W20573  37.574   7.496  11.131
48149W        W20574  36.401   0.596  13.523
48150W        W20575  22.890  38.958   1.746
48151W        W20576  17.481   4.784   0.260
48152W        W20577  10.223  16.412  11.201
48153W        W20578  18.907  37.908   2.971
48154W        W20579  12.681   0.597  13.163
48155W        W20580  28.050   7.414   2.282
48156W        W20581   9.448  12.374   1.771
48157W        W20582  14.678  44.263   0.241
48158W        W20583   7.130  41.903   1.792
48159W        W20584  25.348  39.794   0.037
48160W        W20585  22.663  44.222   3.711
48161W        W20586  36.891  20.281   0.733
48162W        W20587  30.602   8.756   3.301
48163W        W20588  15.758  11.535  11.991
48164W        W20589  21.039  36.923  12.664
48165W        W20590   0.386  30.043  12.233
48166W        W20591  40.723   9.742   3.698
48167W        W20592  21.773  39.858  13.103
48168W        W20593  17.196  33.790  10.854
48169W        W20594  15.622   6.505   0.805
48170W        W20595  33.946  26.490  12.315
48171W        W20596  15.041  38.089   2.834
48172W        W20597  12.630  18.596   1.726
48173W        W20598  16.781  14.350  13.897
48174W        W20599  23.009   1.527  11.931
48175W        W20600  29.395  24.684  13.420
48176W        W20601  29.003   0.349   3.278
48177W        W20602  44.178  18.129   4.681
48178W        W20603  42.765  40.400   2.837
48179W        W20604  26.617  38.396  10.173
48180W        W20605   3.996  21.699   3.209
48181W        W20606  12.717  44.072  14.204
48182W        W20607  31.176  39.459  11.427
48183W        W20608  15.077   2.755   4.268
48184W        W20609   3.203  33.721   2.065
48185W        W20610  18.319   7.929   0.159
48186W        W20611  10.458  33.465   4.242
48187W        W20612  11.297  44.456  13.406
48188W        W20613   5.672   4.939  13.018
48189W        W20614   9.388  36.886   0.300
48190W        W20615   1.408  42.277  12.467
48191W        W20616   1.831  33.020  11.331
48192W        W20617  35.519   5.766  12.506
48193W        W20618  21.479   5.836  12.445
48194W        W20619  26.103  30.703   4.676
48195W        W20620  15.141  37.831   3.712
48196W        W20621   7.239  41.845  12.925
48197W        W20622  41.560   8.414   0.440
48198W        W20623  24.621  20.169  14.291
48199W        W20624  27.039  19.199  14.955
48200W        W20625  38.268  31.892  14.066
48201W        W20626  33.073   8.129  11.248
48202W        W20627  27.444  30.092  10.007
48203W        W20628  34.567  18.772   1.836
48204W        W20629  14.805   3.218   5.050
48205W        W20630  36.056  34.624  10.790
48206W        W20631  22.001  40.523   3.264
48207W        W20632   7.566  11.425   3.822
48208W        W20633  23.762  30.595   4.175
48209W        W20634   0.392  22.582   0.458
48210W        W20635  42.586   9.137  11.536
48211W        W20636  25.477  38.380   3.755
48212W        W20637  16.557  29.367   2.398
48213W        W20638  18.865  31.467  14.045
48214W        W20639  18.065  13.080  10.445
48215W        W20640   3.258   9.630  13.268
48216W        W20641  13.412  26.765  13.185
48217W        W20642  20.777   6.937  14.446
48218W        W20643  35.894  33.393  11.148
48219W        W20644   8.172  29.070   4.129
48220W        W20645   2.908  19.682  10.658
48221W        W20646   1.743   6.741  14.954
48222W        W20647  32.939  34.584   4.201
48223W        W20648  23.010  36.950  14.758
48224W        W20649  18.803   6.157   4.628
48225W        W20650  31.866   8.919  13.831
48226W        W20651   8.904  37.512   1.956
48227W        W20652  32.135  18.104   1.667
48228W        W20653  27.942  41.513  12.980
48229W        W20654   4.462   0.979   2.341
48230W        W20655  16.742  20.292  14.780
48231W        W20656   2.725   2.018  11.176
48232W        W20657  34.682  13.121  10.631
48233W        W20658  28.235   9.967   2.325
48234W        W20659  44.528   6.789   2.134
48235W        W20660  25.693  28.072  10.678
48236W        W20661   2.982   9.558  11.614
48237W        W20662  27.860   5.461   4.439
48238W        W20663  34.778  37.301   4.267
48239W        W20664  21.708   1.791   2.829
48240W        W20665  12.762   1.342  14.350
48241W        W20666  30.617  10.097   2.820
48242W        W20667  30.117   9.625   1.815
48243W        W20668  44.899  24.999  14.963
48244W        W20669  30.492  12.378   4.009
48245W        W20670   7.078  38.426  10.406
48246W        W20671   0.907  13.540  11.569
48247W        W20672  28.210  31.732  14.832
48248W        W20673  17.167  38.602  11.106
48249W        W20674  30.966  26.138   0.834
48250W        W20675  16.213  21.664   2.722
48251W        W20676  31.792   7.057  11.400
48252W        W20677  26.593  38.795  10.936
48253W        W20678  11.677  24.001  10.561
48254W        W20679  40.876   2.866   2.401
48255W        W20680  11.707  16.644   3.280
48256W        W20681  27.864  30.968   4.147
48257W        W20682  26.576  38.317  10.685
48258W        W20683   5.903  18.266  14.928
48259W        W20684  37.485   1.864   3.986
48260W        W20685  12.874  16.133  11.139
48261W        W20686  12.848  12.783   4.837
48262W        W20687  41.384  16.815   1.005
48263W        W20688  38.593   3.881  11.411
48264W        W20689  35.073   1.049  11.805
48265W        W20690  43.411  15.825  13.173
48266W        W20691  26.915  21.689   2.742
48267W        W20692  25.632  33.339  10.058
48268W        W20693  21.978  31.879  14.468
48269W        W20694  14.351  41.060  14.760
48270W        W20695  23.680  21.743  11.181
48271W        W20696  34.170  16.094   3.898
48272W        W20697   7.976  36.909   2.794
48273W        W20698  16.032  29.546  13.903
48274W        W20699  21.354   4.599   2.360
48275W        W20700  33.507  17.731  14.518
48276W        W20701   7.336  38.661   0.325
48277W        W20702  28.628  15.205  10.717
48278W        W20703  39.169   6.833   0.936
48279W        W20704  24.142  31.830  11.038
48280W        W20705  26.043  27.562  11.721
48281W        W20706  27.998  33.698   1.081
48282W        W20707   9.184   5.346   3.145
48283W        W20708  24.371  30.894  14.334
48284W        W20709  21.484  17.167  13.386
48285W        W20710  19.230  35.459  13.824
48286W        W20711  35.700  10.270  13.945
48287W        W20712  36.017  25.031  10.975
48288W        W20713   4.735   5.239  14.370
48289W        W20714   1.152  43.571   4.139
48290W        W20715  19.695  25.216   1.146
48291W        W20716  27.874   8.763   4.096
48292W        W20717  26.412  29.660  11.107
48293W        W20718   0.981  14.567  11.673
48294W        W20719  36.007  39.024  10.700
48295W        W20720  26.952  14.041   1.866
48296W        W20721   1.098  38.868   2.269
48297W        W20722  19.075  10.212   0.077
48298W        W20723   7.774   6.226  11.389
48299W        W20724  42.350   2.456  13.225
48300W        W20725   2.289  22.839   1.087
48301W        W20726  11.122  41.257   4.922
48302W        W20727  26.753  20.472  13.900
48303W        W20728  11.843  30.593   5.142
48304W        W20729  28.116  31.896   3.861
48305W        W20730   9.730  21.248  11.935
48306W        W20731  27.932   7.212   4.302
48307W        W20732   6.924   6.657  12.425
48308W        W20733  40.548  39.539   1.648
48309W        W20734  17.487  26.180  14.453
48310W        W20735  22.326  20.261  12.915
48311W        W20736  33.694   8.481  13.519
48312W        W20737  32.198  25.563  11.496
48313W        W20738  12.913  28.709   4.589
48314W        W20739  25.040  28.517  13.096
48315W        W20740  15.277  31.419  14.827
48316W        W20741  44.302  18.093  13.721
48317W        W20742  37.777  22.130  11.425
48318W        W20743  15.008  29.375   3.925
48319W        W20744  12.339   3.901   0.367
48320W        W20745   6.643  20.233  13.943
48321W        W20746   2.509  12.605  12.880
48322W        W20747  13.387  38.127  11.896
48323W        W20748  19.119  34.648  14.210
48324W        W20749  44.331  32.625   4.534
48325W        W20750  28.820  25.949   0.046
48326W        W20751  27.935  37.017  13.955
48327W        W20752   4.805  30.342  12.044
48328W        W20753   6.285  30.543   4.101
48329W        W20754  41.387   5.521  11.424
48330W        W20755  10.852  40.040   0.984
48331W        W20756  36.098  24.270   3.744
48332W        W20757  44.761  10.742   3.851
48333W        W20758  19.612  17.670   4.227
48334W        W20759   3.468  17.456  12.637
48335W        W20760  32.241  37.191   0.980
48336W        W20761  18.249  19.634   2.833
48337W        W20762  32.820   5.906   2.380
48338W        W20763   9.321   9.111  14.499
48339W        W20764   8.212  19.219  14.816
48340W        W20765  27.033  25.528  13.875
48341W        W20766  14.148  41.241  12.340
48342W        W20767  40.401  39.304   4.142
48343W        W20768  35.582  37.926   3.334
48344W        W20769   3.170   0.642  13.630
48345W        W20770  16.730   2.249   0.309
48346W        W20771   2.988  11.728  11.420
48347W        W20772   2.575   5.843   1.370
48348W        W20773  19.237  39.423   1.628
48349W        W20774  25.997  30.984  13.446
48350W        W20775  24.173  40.208   2.894
48351W        W20776  11.081  35.185  11.073
48352W        W20777   8.414  40.348  12.452
48353W        W20778  33.184  16.378  10.118
48354W        W20779  30.442   5.840  13.986
48355W        W20780  29.622  21.021  11.087
48356W        W20781   3.720  19.351  12.055
48357W        W20782  17.737  24.447  14.727
48358W        W20783  21.993  28.163   4.216
48359W        W20784   5.429  17.864   2.892
48360W        W20785  32.368  25.201   3.788
48361W        W20786  19.615  21.269  12.290
48362W        W20787   3.475  36.109   3.790
48363W        W20788  44.005  30.569   0.675
48364W        W20789  38.395  13.756   1.078
48365W        W20790  37.663   4.444  13.489
48366W        W20791   7.085  36.851   0.961
48367W        W20792  40.038   4.156   4.637
48368W        W20793  13.566  34.942   1.239
48369W        W20794  14.942   0.260   0.413
48370W        W20795   9.193  26.101   3.139
48371W        W20796  16.794   6.366   0.422
48372W        W20797  39.258  23.946  13.364
48373W        W20798  27.406   4.470   2.260
48374W        W20799   3.306  12.565   4.512
48375W        W20800  30.915  28.083  12.465
48376W        W20801  34.464  22.947  11.160
48377W        W20802  26.277  22.691   1.379
48378W        W20803  42.702  17.182   4.988
48379W        W20804  25.414  37.173  13.801
48380W        W20805   4.048  32.032   2.672
48381W        W20806  25.675  28.652   0.890
48382W        W20807  41.464  12.727  13.808
48383W        W20808   6.363  31.964  12.456
48384W        W20809  41.901  31.423   3.073
48385W        W20810   7.042  22.463  11.240
48386W        W20811  34.117   9.807  13.053
48387W        W20812  15.320   6.306   4.150
48388W        W20813  37.865  21.693  14.395
48389W        W20814  33.460  41.201  11.644
48390W        W20815  27.585  12.748   0.408
48391W        W20816  34.666  23.722  12.133
48392W        W20817  33.418  20.883   3.396
48393W        W20818  17.110   4.914   3.888
48394W        W20819  21.063  39.095   1.325
48395W        W20820  13.674  31.128   0.338
48396W        W20821  25.192   4.795   2.358
48397W        W20822  21.730  13.833  11.003
48398W        W20823  11.844  38.894   3.710
48399W        W20824  13.161   7.611   3.724
48400W        W20825  24.251  17.975  12.906
48401W        W20826  31.188   4.549  13.120
48402W        W20827  34.908  28.490  14.244
48403W        W20828  26.144  35.434  12.329
48404W        W20829  11.127  16.287  14.064
48405W        W20830  14.750  39.815  12.188
48406W        W20831  11.570  22.175  10.392
48407W        W20832  43.430  31.835  11.562
48408W        W20833  44.497  15.870   2.392
48409W        W20834  41.963  17.068  12.057
48410W        W20835   8.893  19.607  12.149
48411W        W20836  25.002   8.970   1.809
48412W        W20837  29.938  19.292  11.660
48413W        W20838  11.314   8.937   2.509
48414W        W20839  43.846   6.171   2.412
48415W        W20840   8.003  43.720   2.786
48416W        W20841  21.570  24.351   3.236
48417W        W20842   3.605   3.653  11.233
48418W        W20843  22.333   2.442   0.806
48419W        W20844  10.148  44.725  13.943
48420W        W20845   8.670  16.014  12.665
48421W        W20846   4.820  16.605   1.827
48422W        W20847   8.261  30.153   3.534
48423W        W20848  15.561  16.644   2.828
48424W        W20849   4.243  25.196  12.992
48425W        W20850   8.819  39.485  13.865
48426W        W20851  12.729  19.561  13.782
48427W        W20852   8.882  11.224  13.342
48428W        W20853   5.672   3.066   1.727
48429W        W20854  21.545  19.579  11.632
48430W        W20855   4.588  22.500  14.322
48431W        W20856  29.567  32.844   0.209
48432W        W20857  10.245  35.325   0.350
48433W        W20858  19.880  17.805   1.556
48434W        W20859  23.669  20.793  13.323
48435W        W20860  37.387  18.560  13.295
48436W        W20861   6.246  28.907   3.634
48437W        W20862   2.473  42.485  13.301
48438W        W20863  17.990  13.580  12.879
48439W        W20864  43.801  43.483  13.060
48440W        W20865  39.299  39.887   3.206
48441W        W20866   6.634  16.228   1.444
48442W        W20867  39.109  11.232  12.191
48443W        W20868  14.409   8.250  14.345
48444W        W20869  22.107  25.276   0.338
48445W        W20870  37.088   3.627   2.749
48446W        W20871  22.978  34.314  12.035
48447W        W20872   8.951  11.474  13.822
48448W        W20873  20.347  32.082   3.360
48449W        W20874  20.932  31.592   4.993
48450W        W20875  22.124  28.998  13.264
48451W        W20876   8.231  42.639   4.999
48452W        W20877  22.147  11.975   5.210
48453W        W20878  44.580  39.876  14.423
48454W        W20879  16.517  16.075   4.337
48455W        W20880   0.709  14.292   3.168
48456W        W20881  23.160   6.767   4.876
48457W        W20882  35.956  16.283   3.803
48458W        W20883  36.860  19.676  10.823
48459W        W20884  26.028  18.224  11.430
48460W        W20885  44.456  25.172  13.213
48461W        W20886  31.602   2.367  14.012
48462W        W20887   9.626  28.390  10.749
48463W        W20888  43.514  18.662   2.193
48464W        W20889   5.980  42.584  12.895
48465W        W20890  43.974  22.427  11.914
48466W        W20891   6.291  32.606   1.041
48467W        W20892   1.983  37.511   0.549
48468W        W20893  23.659  15.151  12.044
48469W        W20894  18.225  11.866   1.465
48470W        W20895  15.222  34.009  12.516
48471W        W20896  19.680   6.335  11.617
48472W        W20897  33.867  44.851  10.772
48473W        W20898  22.084  12.976   3.454
48474W        W20899   9.482  39.814   2.381
48475W        W20900   0.502  19.089  10.714
48476W        W20901  31.559  28.641   3.064
48477W        W20902  34.076   3.605   2.452
48478W        W20903  34.977  35.395  12.068
48479W        W20904  44.361  38.326   4.129
48480W        W20905  32.880  10.865  11.202
48481W        W20906  40.519  20.476   1.813
48482W        W20907  24.609  29.523   0.844
48483W        W20908   6.395  28.483   3.865
48484W        W20909  34.236  40.975   3.635
48485W        W20910  23.058   7.849   2.736
48486W        W20911  24.116   4.051  11.896
48487W        W20912  28.693  21.784  14.464
48488W        W20913  30.551   5.794  12.674
48489W        W20914  41.415  18.686   3.124
48490W        W20915  31.937  16.354   2.315
48491W        W20916  29.932  24.829   2.914
48492W        W20917  26.678  30.048  10.903
48493W        W20918  24.195  13.784  10.912
48494W        W20919  25.259   1.857  13.840
48495W        W20920   9.758  26.347   1.621
48496W        W20921  10.092  13.474   3.573
48497W        W20922  37.020  14.837   0.880
48498W        W20923  21.449   4.437   2.844
48499W        W20924  10.365   6.812   0.183
48500W        W20925  18.035  12.660   2.195
48501W        W20926  25.590  20.097  12.293
48502W        W20927  19.883  19.196  14.390
48503W        W20928  28.548   3.001   0.676
48504W        W20929  31.930   3.775   0.252
48505W        W20930   4.312  10.744  11.950
48506W        W20931   7.619  24.491   1.148
48507W        W20932  16.572  12.973   1.899
48508W        W20933  15.053  25.127   2.544
48509W        W20934  32.600  11.459  14.808
48510W        W20935   5.428  26.452   5.116
48511W        W20936  21.646  14.552  13.507
48512W        W20937  42.087  39.327   1.046
48513W        W20938  14.751  24.601   1.787
48514W        W20939  19.334  25.772   2.855
48515W        W20940  26.104  35.945  10.540
48516W        W20941   7.982  32.626   1.916
48517W        W20942  21.369  22.146  12.067
48518W        W20943  30.809  10.129  14.413
48519W        W20944  16.531   1.459  14.902
48520W        W20945  22.620  34.038  12.296
48521W        W20946  22.373  35.455  11.602
48522W        W20947  37.806  42.187  12.914
48523W        W20948  40.303  19.691  11.603
48524W        W20949  29.163  14.848  14.082
48525W        W20950  26.588  39.408   1.942
48526W        W20951  21.982  19.665  11.936
48527W        W20952  29.275  30.294  11.995
48528W        W20953  39.448   3.388  10.826
48529W        W20954   4.989  12.432   1.389
48530W        W20955  33.824  10.220  12.979
48531W        W20956  36.104  39.438   1.617
48532W        W20957  14.219  12.181  14.870
48533W        W20958  33.473  24.175   2.297
48534W        W20959  21.655  15.588  14.902
48535W        W20960   8.859   0.593   3.752
48536W        W20961  31.011   3.049  13.051
48537W        W20962  15.257   7.584  11.098
48538W        W20963  31.623  33.354  11.009
48539W        W20964  39.938  17.667  13.317
48540W        W20965  39.287   9.232   0.302
48541W        W20966   9.953  40.732  14.234
48542W        W20967  11.771  44.010  11.531
48543W        W20968   5.608   1.334  11.604
48544W        W20969  42.263  30.065   4.402
48545W        W20970   1.112  20.971   5.179
48546W        W20971  34.077  28.223   1.241
48547W        W20972   7.254  33.164  11.006
48548W        W20973   0.864  42.399   2.096
48549W        W20974  40.460  16.753  11.669
48550W        W20975  14.730  12.293  12.482
48551W        W20976  19.262   6.375   4.397
48552W        W20977  11.916  33.281   5.084
48553W        W20978  30.835   7.834   1.855
48554W        W20979  11.741  36.313   3.746
48555W        W20980  30.055  32.024  11.292
48556W        W20981  42.034   0.305  14.799
48557W        W20982  36.620  27.699   1.659
48558W        W20983  30.825  25.043   2.821
48559W        W20984  19.330  23.043  12.029
48560W        W20985  22.454   5.317   1.481
48561W        W20986   5.434  41.104  12.377
48562W        W20987  20.036   8.337  13.117
48563W        W20988   5.507   5.226  11.991
48564W        W20989   7.708  14.525  11.483
48565W        W20990  43.120  23.422   2.181
48566W        W20991  17.221   0.790  10.134
48567W        W20992  17.589  44.984  10.453
48568W        W20993  25.676   6.715   2.486
48569W        W20994  10.309  14.321  13.790
48570W        W20995   6.208   6.951   3.458
48571W        W20996  17.916  15.596   3.163
48572W        W20997  40.268  10.073  14.909
48573W        W20998  30.405  39.648  11.173
48574W        W20999  38.935  34.691  13.991
48575W        W21000  44.827   1.789   3.776
48576W        W21001  20.975  12.570  14.149
48577W        W21002  15.804  38.095  12.448
48578W        W21003   1.232  14.090   0.874
48579W        W21004  15.614  22.957   4.810
48580W        W21005  11.010  16.802  10.604
48581W        W21006  31.359  44.327   1.222
48582W        W21007  10.858   7.908  11.673
48583W        W21008  38.914   7.614  10.682
48584W        W21009  20.320  39.817  14.989
48585W        W21010   2.377  33.136  12.510
48586W        W21011  36.143  44.841   3.277
48587W        W21012   4.325  26.671   4.944
48588W        W21013  15.598   6.081  14.951
48589W        W21014  14.067  14.716  11.595
48590W        W21015  30.404  38.528  14.607
48591W        W21016  43.768  44.002   1.922
48592W        W21017  19.161  28.912   1.243
48593W        W21018  42.473  33.641  14.003
48594W        W21019  13.333  10.915  11.910
48595W        W21020  28.442  10.859   4.440
48596W        W21021  19.674  35.068   4.101
48597W        W21022  20.231  26.581  12.668
48598W        W21023  16.582  19.131  11.622
48599W        W21024  42.887  37.879  12.515
48600W        W21025   6.608  21.476   2.337
48601W        W21026  30.976  44.984   1.686
48602W        W21027  28.422   4.432   0.746
48603W        W21028  33.186  28.613   4.595
48604W        W21029  12.925  19.850  11.545
48605W        W21030  32.043  14.852   4.358
48606W        W21031  36.240   6.321  14.909
48607W        W21032  15.589  26.712   0.614
48608W        W21033  18.248   7.309   3.353
48609W        W21034  41.674   0.647  14.605
48610W        W21035  29.133   1.751   0.668
48611W        W21036  27.640  33.925  10.148
48612W        W21037  21.207   3.190  13.565
48613W        W21038  25.480  39.901   0.526
48614W        W21039  24.000   5.109  10.559
48615W        W21040   7.453  21.581   2.015
48616W        W21041  18.554  22.235   3.216
48617W        W21042  29.687  31.605   1.483
48618W        W21043  44.369   5.597   0.781
48619W        W21044   4.652  20.052   1.358
48620W        W21045  36.477  38.093  12.196
48621W        W21046  24.759  33.472  13.266
48622W        W21047  25.239  21.638   1.843
48623W        W21048   3.018  19.871  13.414
48624W        W21049  40.410   4.666  12.549
48625W        W21050  13.298  39.502   4.535
48626W        W21051  15.081  30.546  14.446
48627W        W21052  23.972   5.833   2.669
48628W        W21053  37.584   5.433  11.129
48629W        W21054  24.661   5.412  12.098
48630W        W21055  43.434  29.115  11.046
48631W        W21056   3.830   0.898   0.789
48632W        W21057  27.924   0.162  11.119
48633W        W21058  24.278  29.168  11.806
48634W        W21059  37.266  19.053  13.367
48635W        W21060  44.474  18.793  12.918
48636W        W21061  20.039   6.220  10.985
48637W        W21062  21.536  29.489   0.840
48638W        W21063  33.597   5.871  11.544
48639W        W21064  27.642  10.119  13.994
48640W        W21065  19.589  22.291   4.249
48641W        W21066  44.959   9.353   0.746
48642W        W21067   4.333  26.854   4.135
48643W        W21068   9.182  29.613   0.131
48644W        W21069   0.440  44.977  12.941
48645W        W21070   9.235  13.273   4.112
48646W        W21071  27.534  42.856  10.691
48647W        W21072  26.989  42.492   4.569
48648W        W21073  14.875  15.147   0.695
48649W        W21074  40.837  35.379  14.556
48650W        W21075  19.003  30.463   2.367
48651W        W21076  25.689  25.663   1.759
48652W        W21077   4.944  35.227  13.462
48653W        W21078  25.725  30.505  13.486
48654W        W21079  16.664  38.753  12.490
48655W        W21080  15.889  30.907   0.350
48656W        W21081  12.634  30.646  13.167
48657W        W21082   2.960  44.622  13.879
48658W        W21083   4.644  40.944  12.179
48659W        W21084  17.187  31.527   4.957
48660W        W21085  38.083  19.489   2.265
48661W        W21086  20.283  41.066  12.041
48662W        W21087   2.141  27.197   4.025
48663W        W21088  42.745  31.614  13.406
48664W        W21089  13.235   5.644  13.304
48665W        W21090   0.258  24.788   4.901
48666W        W21091   9.787  14.863   3.670
48667W        W21092  44.325  11.461   1.652
48668W        W21093  42.082  19.138  14.474
48669W        W21094  20.483  17.065   1.355
48670W        W21095  16.339   6.033  12.311
48671W        W21096  10.609   5.736  13.455
48672W        W21097  10.785   8.458   5.071
48673W        W21098   1.044   9.769   2.838
48674W        W21099  13.329  44.099  11.168
48675W        W21100  40.995  36.334   4.925
48676W        W21101  27.970  26.652   3.120
48677W        W21102  27.132  33.538  14.431
48678W        W21103   0.903   4.951   4.493
48679W        W21104  15.905  19.103  11.093
48680W        W21105  21.363   0.531  11.106
48681W        W21106  17.307  32.106   1.459
48682W        W21107   4.872   3.658   2.807
48683W        W21108  44.167  31.640  13.413
48684W        W21109  12.572   5.101   3.203
48685W        W21110  21.070  39.642   4.227
48686W        W21111  33.509  43.506   3.816
48687W        W21112  25.652  42.015   0.304
48688W        W21113  23.649  16.169  10.546
48689W        W21114  44.953   9.843  13.781
48690W        W21115  39.516  13.870   0.051
48691W        W21116  43.992   5.343   3.802
48692W        W21117  19.113  11.450  13.832
48693W        W21118  40.844  36.548   1.304
48694W        W21119  18.852  44.074   0.833
48695W        W21120  27.103  41.536   2.218
48696W        W21121  11.237  12.878   2.298
48697W        W21122  10.589  23.822  14.229
48698W        W21123   8.625  19.716   3.943
48699W        W21124  31.166  26.500  11.422
48700W        W21125  38.915  11.573  10.638
48701W        W21126  30.980  35.590  11.967
48702W        W21127  41.601  29.560   4.061
48703W        W21128   0.733  19.845   2.259
48704W        W21129  18.174   5.948   2.228
48705W        W21130   2.336  17.787   1.123
48706W        W21131  30.535  22.623   0.332
48707W        W21132  19.335  25.113   2.354
48708W        W21133  24.631  41.994  10.501
48709W        W21134  13.131  15.849  10.799
48710W        W21135  21.330   8.437   5.150
48711W        W21136  22.001  26.839   0.167
48712W        W21137   0.452   8.418   3.659
48713W        W21138   0.597  39.367  13.970
48714W        W21139  41.553  37.242  12.413
48715W        W21140  38.969  15.307   0.219
48716W        W21141  41.531   2.354   4.549
48717W        W21142  16.537  17.339   0.468
48718W        W21143  10.906  23.845  10.080
48719W        W21144  44.287   0.532   0.458
48720W        W21145   9.581  24.132  11.157
48721W        W21146  18.867  34.874   3.196
48722W        W21147  10.241  12.067   4.520
48723W        W21148  31.387  33.382   2.779
48724W        W21149  20.779  23.941   0.988
48725W        W21150  23.242   0.685  11.318
48726W        W21151  29.986  14.840  10.724
48727W        W21152  27.484  27.719  13.437
48728W        W21153  25.990   3.111   5.200
48729W        W21154  43.481  34.666   3.213
48730W        W21155  20.501  11.925   0.467
48731W        W21156  21.540  35.047   4.653
48732W        W21157  41.947   3.246   3.572
48733W        W21158  42.567  33.048   2.349
48734W        W21159  32.954  42.056   3.963
48735W        W21160  35.507  42.302  12.898
48736W        W21161  19.874   2.876  14.033
48737W        W21162  36.988  31.942   0.883
48738W        W21163  38.630   2.149   1.454
48739W        W21164  37.014  40.334   2.795
48740W        W21165  40.007  17.257  11.957
48741W        W21166   8.883  40.899   0.980
48742W        W21167  19.495   1.082   2.219
48743W        W21168  40.630  37.907   2.759
48744W        W21169  38.926  24.529   1.244
48745W        W21170  14.589  19.716  12.032
48746W        W21171  35.840  13.121   2.197
48747W        W21172  10.857  24.200   1.411
48748W        W21173   3.560  36.667  13.429
48749W        W21174  29.018  20.447  11.807
48750W        W21175  19.738  23.258  14.380
48751W        W21176   1.274  38.953   1.309
48752W        W21177  33.370  16.792   1.278
48753W        W21178  20.166   6.979   0.251
48754W        W21179  16.859  28.016   2.283
48755W        W21180  41.805  14.859  11.617
48756W        W21181  15.933  40.863   2.571
48757W        W21182   6.916  31.325  11.036
48758W        W21183   6.932   3.411   4.714
48759W        W21184   7.890  21.342  12.086
48760W        W21185  22.709  22.189  13.543
48761W        W21186  18.750  35.783   3.368
48762W        W21187  27.712  40.913   0.320
48763W        W21188  11.485  18.343  10.279
48764W        W21189  16.810   8.357   0.876
48765W        W21190  22.475  35.885  13.924
48766W        W21191  42.542   5.402  10.714
48767W        W21192  10.327  38.605   1.200
48768W        W21193  13.312  12.091   3.742
48769W        W21194   6.771  21.897   0.355
48770W        W21195   3.848  38.753   0.847
48771W        W21196  10.187  26.194   1.323
48772W        W21197  34.488  18.439   2.244
48773W        W21198  22.470   0.665   3.768
48774W        W21199  41.002  23.195  11.197
48775W        W21200  42.771  16.846   2.161
48776W        W21201  22.714  32.388   4.240
48777W        W21202  29.865  20.201   4.536
48778W        W21203   4.259  16.521  11.957
48779W        W21204  18.976  43.613  10.897
48780W        W21205  17.367  40.249   2.237
48781W        W21206  25.912  15.618   0.662
48782W        W21207  16.809  38.974  12.946
48783W        W21208  30.731  21.268  13.794
48784W        W21209   3.417   9.610   3.207
48785W        W21210   0.330   5.031  11.982
48786W        W21211  23.217   0.337  12.165
48787W        W21212  15.670  34.849   4.184
48788W        W21213  26.477   4.905  10.519
48789W        W21214  21.683   0.767   2.685
48790W        W21215  10.105  26.575  13.494
48791W        W21216   7.623  14.643   2.188
48792W        W21217  12.606  11.275  11.479
48793W        W21218  35.653  37.667  11.199
48794W        W21219  13.835   6.475   0.386
48795W        W21220  24.036  17.160   2.902
48796W        W21221  15.280  21.632  13.206
48797W        W21222  13.640  28.168  14.591
48798W        W21223  40.923   0.127  14.469
48799W        W21224  17.533   6.249  12.816
48800W        W21225  25.192  21.686  12.586
48801W        W21226  27.178   0.795  10.144
48802W        W21227  24.938  28.474   2.185
48803W        W21228   8.594  25.061  14.417
48804W        W21229  16.663   0.866  12.552
48805W        W21230  25.903   4.436  14.642
48806W        W21231  12.279  15.845  11.432
48807W        W21232   7.233  21.504  11.705
48808W        W21233  17.002   2.886   5.657
48809W        W21234   6.944   3.779  11.987
48810W        W21235  11.945  27.005   3.299
48811W        W21236  14.081  32.814  10.472
48812W        W21237  37.298  29.988  12.888
48813W        W21238  31.891  30.570  14.814
48814W        W21239  10.279  26.482   0.873
48815W        W21240  24.460  33.191  12.398
48816W        W21241  30.546   8.806   2.004
48817W        W21242   5.618  32.013   3.434
48818W        W21243  21.582  29.877  13.558
48819W        W21244   8.401  37.014  11.837
48820W        W21245   7.657  23.010   4.088
48821W        W21246  33.527  12.039   5.019
48822W        W21247  10.141  25.192  13.313
48823W        W21248  36.078  23.874  10.501
48824W        W21249  17.065  36.844   2.900
48825W        W21250  34.882   1.099  11.332
48826W        W21251  43.437  11.597   2.582
48827W        W21252  21.199  40.952   0.804
48828W        W21253  39.810  30.485  14.498
48829W        W21254  15.320   7.180   0.279
48830W        W21255   4.857  30.314  13.372
48831W        W21256  28.930   0.317  11.146
48832W        W21257  19.181  35.897  12.969
48833W        W21258  22.203  43.928   4.952
48834W        W21259  30.598  25.618  12.395
48835W        W21260  30.883  35.063   0.657
48836W        W21261   1.334  25.627   3.501
48837W        W21262  39.884  42.994   0.659
48838W        W21263  42.289  33.385   0.570
48839W        W21264  29.469  11.814  11.580
48840W        W21265  18.546  20.316   0.108
48841W        W21266  43.978  37.950   2.135
48842W        W21267  35.490  44.282   1.955
48843W        W21268  26.483  11.849   3.090
48844W        W21269  30.612  30.090  13.861
48845W        W21270   2.528   3.674  14.906
48846W        W21271  42.735  17.708   0.374
48847W        W21272  17.859  31.450  13.229
48848W        W21273  21.089   2.753   2.150
48849W        W21274   2.935  30.472   2.137
48850W        W21275  37.872  30.204  10.740
48851W        W21276  40.890  31.395  12.088
48852W        W21277   5.410  24.150   2.260
48853W        W21278  10.257  30.073  12.772
48854W        W21279  20.725   3.714   3.267
48855W        W21280  40.493  24.452   3.255
48856W        W21281  40.734  20.706  14.903
48857W        W21282  43.950  24.094   2.849
48858W        W21283  31.337   4.586  14.065
48859W        W21284  35.796  34.982   1.769
48860W        W21285   1.910  21.194  11.605
48861W        W21286  43.166   7.872  14.807
48862W        W21287   2.002  12.272   4.608
48863W        W21288   5.960  25.086   1.862
48864W        W21289  24.495  18.063   2.160
48865W        W21290  40.930   2.150  14.777
48866W        W21291  42.411  24.221  11.248
48867W        W21292  11.670  43.535  12.245
48868W        W21293  19.841  30.920   1.353
48869W        W21294  21.645   0.023   4.749
48870W        W21295   7.319   8.054   3.250
48871W        W21296  19.182  28.658  13.969
48872W        W21297  32.366  12.974   4.495
48873W        W21298  40.604   3.234  13.999
48874W        W21299  13.157   7.264   4.123
48875W        W21300  44.767   0.231  11.188
48876W        W21301  35.884   0.220  13.126
48877W        W21302  21.649   1.975  10.718
48878W        W21303  11.643   1.405   2.999
48879W        W21304  26.907  10.420  14.497
48880W        W21305  36.278  12.687  12.011
48881W        W21306  44.620  36.389  13.596
48882W        W21307  35.200  40.166   1.252
48883W        W21308  15.228   0.764  11.178
48884W        W21309  44.556  32.822  11.112
48885W        W21310  42.406  44.991  11.621
48886W        W21311  38.927  41.964  10.168
48887W        W21312  36.170  39.569  11.938
48888W        W21313   3.314  25.178  12.047
48889W        W21314   1.433  44.723  13.932
48890W        W21315  41.281  18.294   3.865
48891W        W21316   4.600   7.627  14.925
48892W        W21317   4.333   3.444   3.425
48893W        W21318  30.007   6.248   2.355
48894W        W21319  10.484   9.234   0.343
48895W        W21320  33.387  23.661   2.197
48896W        W21321   8.904  33.350   1.226
48897W        W21322  17.547  40.428  14.921
48898W        W21323  24.048  42.551   0.256
48899W        W21324  37.870  33.695   4.570
48900W        W21325  44.614  32.925  10.322
48901W        W21326   8.290   4.983   1.502
48902W        W21327  34.431  42.373   2.751
48903W        W21328   5.336  24.926  14.011
48904W        W21329  10.904  42.524  11.925
48905W        W21330   7.330  36.064   0.475
48906W        W21331  34.847  34.940   2.754
48907W        W21332   6.923  29.930   1.302
48908W        W21333  16.621  20.834  13.539
48909W        W21334   7.761  12.782   2.128
48910W        W21335  13.799  40.841   4.822
48911W        W21336  13.045  17.830   0.510
48912W        W21337  12.356  20.824  11.055
48913W        W21338  15.961  34.040  11.821
48914W        W21339  39.418   2.564  14.308
48915W        W21340  24.976  29.021  13.815
48916W        W21341  27.212  34.929   3.992
48917W        W21342  22.731   9.225   1.808
48918W        W21343   6.212  34.986   5.111
48919W        W21344  13.060  12.524   0.408
48920W        W21345  42.917   2.224   1.374
48921W        W21346  10.645   9.453  11.941
48922W        W21347   3.872  16.067  14.761
48923W        W21348  35.550  19.529   3.827
48924W        W21349  28.929  41.890   2.242
48925W        W21350  11.879  17.178   4.179
48926W        W21351  22.838  11.377  10.537
48927W        W21352  22.630  26.464   2.107
48928W        W21353  33.876  33.049  13.621
48929W        W21354  20.850  18.209  11.208
48930W        W21355  13.386   8.240  13.410
48931W        W21356   7.829  39.271  12.113
48932W        W21357  12.341  32.901   4.170
48933W        W21358  17.107  41.518   1.642
48934W        W21359  39.896  16.754   0.264
48935W        W21360  15.366  21.059   0.993
48936W        W21361  14.748  31.570   1.391
48937W        W21362  18.540   2.854   0.286
48938W        W21363  14.447  36.176   2.764
48939W        W21364  38.950   8.805  10.660
48940W        W21365  35.600   3.510   0.519
48941W        W21366  23.562  26.568  10.044
48942W        W21367  32.455  40.956  11.945
48943W        W21368  13.660  29.609  14.404
48944W        W21369   7.556  23.438  11.146
48945W        W21370  41.798  36.260  12.554
48946W        W21371  16.724  15.282   3.762
48947W        W21372  28.692   3.999  13.322
48948W        W21373  38.884   3.473   5.076
48949W        W21374  12.051  21.241   3.060
48950W        W21375  34.904   5.261   0.681
48951W        W21376  34.906   9.236   0.436
48952W        W21377  28.010  17.995   4.297
48953W        W21378  20.631  25.096   1.195
48954W        W21379   2.214  12.415   2.260
48955W        W21380   1.274   3.766   4.201
48956W        W21381  32.316  33.354  11.992
48957W        W21382   6.287  28.049   3.588
48958W        W21383  29.163   7.662  12.438
48959W        W21384  20.128  20.213  14.404
48960W        W21385  22.230  26.605   2.669
48961W        W21386   4.967  22.923  11.258
48962W        W21387  28.410  33.887   1.336
48963W        W21388   6.385  28.601  14.051
48964W        W21389  29.502   0.667  14.349
48965W        W21390   0.202   3.195   1.903
48966W        W21391  38.567  12.858   4.717
48967W        W21392   9.266  44.492   3.799
48968W        W21393  39.845  10.436  14.965
48969W        W21394  23.863  25.360   3.439
48970W        W21395  31.105  37.146  13.550
48971W        W21396  24.923  43.458  11.484
48972W        W21397  26.772   3.093   0.031
48973W        W21398   7.979   4.085  11.084
48974W        W21399   4.473   7.491   0.457
48975W        W21400  38.460  44.725   3.329
48976W        W21401   1.793   0.477  13.570
48977W        W21402  19.219   5.881   2.755
48978W        W21403  18.279  33.822   0.413
48979W        W21404  30.134  19.231   0.584
48980W        W21405  36.341   2.286   2.886
48981W        W21406  35.484  13.361   4.768
48982W        W21407  16.645  39.698   3.403
48983W        W21408   5.674   7.311   2.398
48984W        W21409  12.752  31.963  13.597
48985W        W21410  30.889   8.033   4.569
48986W        W21411  39.833  19.568  10.444
48987W        W21412  23.926   8.732   4.511
48988W        W21413  31.006  23.177   1.737
48989W        W21414   5.207  21.212  13.079
48990W        W21415  41.994  32.594  12.414
48991W        W21416  38.493  36.831  10.964
48992W        W21417   6.250  19.289  12.481
48993W        W21418  30.151  40.984  11.389
48994W        W21419  22.781  30.420  13.565
48995W        W21420  14.485  17.788   4.574
48996W        W21421  30.009   0.994   3.532
48997W        W21422  24.004   5.534  14.748
48998W        W21423   4.463  15.664   0.965
48999W        W21424  24.924  14.557   4.538
49000W        W21425   9.884   6.148   3.075
49001W        W21426  39.411  13.297   4.688
49002W        W21427  30.933   7.383   0.655
49003W        W21428  30.280  37.896   4.046
49004W        W21429  29.871  35.543  12.033
49005W        W21430  14.343  14.760   1.807
49006W        W21431  44.520   0.002   3.812
49007W        W21432   4.712  30.103   0.540
49008W        W21433  19.703  36.647  13.173
49009W        W21434  11.149   1.002   3.312
49010W        W21435  26.573  11.567  13.522
49011W        W21436  44.685  15.564   3.711
49012W        W21437  17.027  27.734   3.170
49013W        W21438  37.058  29.012  10.525
49014W        W21439  28.013  22.698  14.988
49015W        W21440   0.428  29.089  13.084
49016W        W21441  26.099  28.710   3.161
49017W        W21442  23.102  14.835   1.856
49018W        W21443  44.428   4.752   4.313
49019W        W21444  35.094  35.921  10.295
49020W        W21445  16.624  16.641   2.691
49021W        W21446  33.438  17.020  11.182
49022W        W21447  42.435  36.509   2.767
49023W        W21448  34.886  39.351   0.286
49024W        W21449  34.394  38.647  11.192
49025W        W21450  34.953  11.208  14.696
49026W        W21451  12.657  19.340   0.358
49027W        W21452   1.852  34.575   0.162
49028W        W21453  26.648   9.133   1.901
49029W        W21454  28.631  27.965  10.860
49030W        W21455  27.485  36.507  11.637
49031W        W21456  34.364   1.896  14.528
49032W        W21457  21.817   7.303  13.534
49033W        W21458  15.758  23.297  10.301
49034W        W21459   2.250  39.880  13.964
49035W        W21460  22.666  34.934  13.998
49036W        W21461  33.312  13.143  11.213
49037W        W21462  25.473   5.083   3.326
49038W        W21463  44.347  42.551   3.645
49039W        W21464  28.092  13.940  11.088
49040W        W21465   3.051  24.693   3.688
49041W        W21466   0.742  39.100   1.334
49042W        W21467  35.101  17.567   1.443
49043W        W21468  26.202   0.175  11.116
49044W        W21469  44.925  35.656  11.180
49045W        W21470  34.874   7.246   4.492
49046W        W21471  14.644  40.297  13.039
49047W        W21472  26.903  16.672   1.295
49048W        W21473  24.994  31.001  12.584
49049W        W21474  27.462   5.484   0.149
49050W        W21475  14.625  27.421   4.195
49051W        W21476  12.315  37.400   3.123
49052W        W21477  18.523  38.711   1.672
49053W        W21478  17.675  40.884  10.549
49054W        W21479  12.506  39.253  13.118
49055W        W21480  19.982  33.863  14.914
49056W        W21481  15.029  10.715   0.903
49057W        W21482  10.168   5.813  13.146
49058W        W21483   8.225  15.602  12.560
49059W        W21484  15.800  18.649  13.991
49060W        W21485  24.518   0.012  11.184
49061W        W21486  37.032  38.111   3.243
49062W        W21487   8.209  37.988  10.505
49063W        W21488  38.843  16.345   3.271
49064W        W21489  21.841  10.028  11.433
49065W        W21490  31.894  20.350  14.397
49066W        W21491   4.344  14.896  11.561
49067W        W21492  22.140   8.013   0.493
49068W        W21493   4.589  34.551   3.643
49069W        W21494  11.935  26.640  13.548
49070W        W21495  39.432  27.664   4.590
49071W        W21496   0.738  13.835  14.444
49072W        W21497   8.292  24.653  13.573
49073W        W21498   4.963  21.476   2.302
49074W        W21499  26.205  21.175  12.060
49075W        W21500  10.782   3.055   0.681
49076W        W21501  20.201   6.822   3.510
49077W        W21502  40.580  10.104   2.619
49078W        W21503  14.565   5.161  13.026
49079W        W21504  41.645  17.587  13.938
49080W        W21505  19.576  29.346   2.276
49081W        W21506  40.937  14.259   2.459
49082W        W21507   7.184   3.842  11.519
49083W        W21508   5.990   3.391   4.104
49084W        W21509  24.874  12.299  11.082
49085W        W21510  25.095  21.143   1.942
49086W        W21511   5.021   8.290  14.609
49087W        W21512  40.640  21.214   2.258
49088W        W21513   7.311   2.322   4.141
49089W        W21514  35.803  16.784   3.813
49090W        W21515   7.244  39.081   3.643
49091W        W21516  33.949  28.997   1.676
49092W        W21517  33.644  42.552   3.836
49093W        W21518  25.672   8.749  14.533
49094W        W21519  32.952   5.658   1.690
49095W        W21520  13.273  14.624   0.300
49096W        W21521   2.249  29.484  14.050
49097W        W21522  35.844   7.324   4.532
49098W        W21523  25.620  33.397   0.986
49099W        W21524  20.158  36.104   0.759
49100W        W21525  21.668  30.370  14.136
49101W        W21526  34.091  29.911  12.519
49102W        W21527  21.117  23.201   1.893
49103W        W21528  22.156  38.842  11.099
49104W        W21529  13.328  21.107   4.117
49105W        W21530   7.237  31.029  13.468
49106W        W21531  22.050  10.937  13.515
49107W        W21532   0.539  24.726  12.606
49108W        W21533   6.947   2.359  12.963
49109W        W21534  27.197   3.436  14.925
49110W        W21535  11.727  12.636  11.772
49111W        W21536  33.425   5.162  13.365
49112W        W21537   8.693  19.994  14.867
49113W        W21538  29.416  24.443  11.137
49114W        W21539   0.812   4.500   2.691
49115W        W21540   7.837  39.793  12.113
49116W        W21541  18.139  13.224   2.311
49117W        W21542  29.994  18.219  12.368
49118W        W21543   9.804  43.296   1.926
49119W        W21544   0.755  25.062   1.800
49120W        W21545  28.186  41.118   1.874
49121W        W21546  42.214  34.179  11.976
49122W        W21547  21.648  28.413   3.014
49123W        W21548  14.355  15.351  14.872
49124W        W21549  24.202  33.253   5.059
49125W        W21550  25.611  24.135  14.929
49126W        W21551  34.648  30.691   1.799
49127W        W21552  37.324   2.321   0.936
49128W        W21553  35.873  27.965  14.376
49129W        W21554  11.607  17.366  14.888
49130W        W21555  22.104   3.472  14.461
49131W        W21556  40.412  14.308  10.433
49132W        W21557   4.395   6.886  10.569
49133W        W21558  21.724  26.660   2.495
49134W        W21559  36.973   7.130  12.625
49135W        W21560  13.098  15.651   3.348
49136W        W21561  40.744   3.371  10.772
49137W        W21562  39.020  33.081  11.477
49138W        W21563  11.888  40.264  12.461
49139W        W21564  41.641  22.540  12.907
49140W        W21565  25.385  44.935   0.336
49141W        W21566  31.819   3.369  10.096
49142W        W21567  14.426  33.605   5.095
49143W        W21568  25.100  38.048  14.995
49144W        W21569  21.774   2.758  11.993
49145W        W21570  16.116  29.555   3.140
49146W        W21571   5.874  13.636   1.673
49147W        W21572  11.098  26.113   2.667
49148W        W21573   3.973  34.548   4.552
49149W        W21574   6.351  15.224   3.037
49150W        W21575  18.960  10.864   4.178
49151W        W21576  17.378  44.829   2.851
49152W        W21577  40.962  33.886  11.816
49153W        W21578   9.833  10.198  11.324
49154W        W21579  26.230  10.384  11.985
49155W        W21580   0.516  11.749   2.174
49156W        W21581  21.992  15.156  13.864
49157W        W21582  36.592  36.875  10.669
49158W        W21583  30.548   1.155  13.131
49159W        W21584  14.156  17.151   4.983
49160W        W21585  30.136  41.908  12.989
49161W        W21586  33.903   6.641   2.685
49162W        W21587  36.681  40.586   4.797
49163W        W21588  15.568  26.928   3.227
49164W        W21589   9.682   7.190   4.516
49165W        W21590  42.513  30.322   1.342
49166W        W21591  32.570  33.855   1.956
49167W        W21592  14.811   8.964  13.501
49168W        W21593  29.145  14.296   1.394
49169W        W21594  11.195  14.967   1.479
49170W        W21595  32.087  32.546   4.533
49171W        W21596  24.648   9.102  14.790
49172W        W21597   8.194  23.535  10.459
49173W        W21598   1.512   6.305   4.723
49174W        W21599  12.816  39.594  11.030
49175W        W21600  18.549   3.327   1.520
49176W        W21601  12.728  10.425   2.343
49177W        W21602   9.266  26.530  11.529
49178W        W21603  33.165   5.621   4.740
49179W        W21604  24.725   4.837   1.309
49180W        W21605  42.031  31.024  14.507
49181W        W21606  15.241  23.856   0.102
49182W        W21607  29.906  35.050   2.230
49183W        W21608   4.146  35.670  14.438
49184W        W21609  26.501  37.183  10.681
49185W        W21610  43.361  42.298  10.627
49186W        W21611  43.364  41.864  13.433
49187W        W21612  30.454   1.591   4.165
49188W        W21613  33.099  39.475   0.846
49189W        W21614  27.012   2.028  11.566
49190W        W21615  16.625   8.253  14.669
49191W        W21616   0.158  23.194  12.529
49192W        W21617  40.220  25.262   3.636
49193W        W21618  12.806  43.256   0.792
49194W        W21619  23.492  13.019  12.035
49195W        W21620  18.758  19.978  11.990
49196W        W21621   6.294  16.695   0.807
49197W        W21622  11.889  25.242   3.334
49198W        W21623  12.862   3.761   0.828
49199W        W21624  35.961  27.982   3.939
49200W        W21625  34.019  10.847  10.644
49201W        W21626   8.359  23.508   2.257
49202W        W21627  29.868  11.310  12.608
49203W        W21628   9.719  21.752  14.082
49204W        W21629   8.031  39.949   3.476
49205W        W21630  33.962  18.558  13.716
49206W        W21631  26.965  40.231   1.816
49207W        W21632   9.848   8.245  13.358
49208W        W21633   2.471  10.665  11.676
49209W        W21634  21.047  27.084   4.677
49210W        W21635  41.817   1.220   0.959
49211W        W21636  35.387  12.243  11.999
49212W        W21637  40.586  40.383  12.101
49213W        W21638   4.187  40.618   0.761
49214W        W21639  38.476   1.060   3.700
49215W        W21640   2.502  30.163   1.394
49216W        W21641  19.920  30.507  11.964
49217W        W21642   4.697  26.661  11.736
49218W        W21643   9.851   6.164  13.445
49219W        W21644  42.036  34.425  14.507
49220W        W21645   9.326  35.499  13.144
49221W        W21646  15.266  34.379   1.313
49222W        W21647  43.228  21.575   0.371
49223W        W21648  23.263  27.183   3.595
49224W        W21649  19.624  15.847   2.536
49225W        W21650  22.233  27.328  11.914
49226W        W21651  15.343  20.732   0.359
49227W        W21652   8.724  23.376  14.958
49228W        W21653  29.145  16.043  11.152
49229W        W21654  14.312   8.378   3.604
49230W        W21655  11.432  18.911  12.429
49231W        W21656  33.986  38.361   3.130
49232W        W21657   1.628   9.745  14.781
49233W        W21658   9.889  23.304   1.942
49234W        W21659   5.259  18.510  10.723
49235W        W21660  18.306  13.781  12.487
49236W        W21661   6.640  24.454  11.941
49237W        W21662  13.231  23.880   1.255
49238W        W21663   8.689  35.838   2.296
49239W        W21664   7.980  34.147   2.129
49240W        W21665  34.570  40.339  14.294
49241W        W21666   3.237  25.678   3.935
49242W        W21667  24.626  36.752   4.138
49243W        W21668  28.055  17.778   3.576
49244W        W21669  42.203  28.416  11.957
49245W        W21670  31.097  38.528   1.920
49246W        W21671  43.907  40.112   0.471
49247W        W21672  15.773   8.295  13.071
49248W        W21673  24.689  37.516   0.703
49249W        W21674  33.997  11.864   0.842
49250W        W21675  28.705  10.839  11.437
49251W        W21676   8.231  10.492  10.673
49252W        W21677   7.863   1.689   0.362
49253W        W21678   0.868  16.061  12.935
49254W        W21679  33.456  34.464   3.333
49255W        W21680   4.375  40.935   4.167
49256W        W21681   4.876  28.599   1.728
49257W        W21682  35.016  38.293   3.301
49258W        W21683   2.767  26.272  10.476
49259W        W21684  28.892   4.693   4.389
49260W        W21685  44.342  33.681   1.317
49261W        W21686  25.051  27.445  13.014
49262W        W21687  39.483  12.290   3.719
49263W        W21688   3.460  11.119   2.284
49264W        W21689  32.551   2.203   4.326
49265W        W21690  13.665  22.123   9.648
49266W        W21691  18.849  16.350  13.838
49267W        W21692  14.839   2.815   4.732
49268W        W21693  42.238  13.118  14.905
49269W        W21694   1.437  34.440  14.382
49270W        W21695   2.238  18.176   2.428
49271W        W21696  40.555  19.508   1.218
49272W        W21697  15.913  13.170   3.223
49273W        W21698  17.567  32.562   3.229
49274W        W21699  23.349  22.772  10.773
49275W        W21700  27.407  33.081   4.521
49276W        W21701  39.254  26.191   3.351
49277W        W21702  20.776   1.197  12.896
49278W        W21703   1.452   8.196  14.478
49279W        W21704   0.454  19.531  12.345
49280W        W21705  28.407  33.029   4.141
49281W        W21706  30.990  16.578   2.088
49282W        W21707  44.812  36.201   1.721
49283W        W21708  12.322  42.559   1.682
49284W        W21709   1.139  29.222   0.341
49285W        W21710  32.888  15.566  10.687
49286W        W21711  14.344  30.574   4.179
49287W        W21712  19.670   2.318   2.390
49288W        W21713  10.400   3.190   3.173
49289W        W21714   8.818  40.510  14.244
49290W        W21715  39.429  18.004  12.431
49291W        W21716  34.553   7.768   4.166
49292W        W21717  35.396  39.714  13.969
49293W        W21718  37.952   6.704  12.098
49294W        W21719  29.153  34.888   3.284
49295W        W21720   1.898  38.810  12.945
49296W        W21721   3.002  41.814  11.571
49297W        W21722   4.181  37.880   0.224
49298W        W21723  35.352  30.069  13.938
49299W        W21724   2.514  36.472  13.058
49300W        W21725  28.418  19.979   0.548
49301W        W21726   4.220  32.324  13.010
49302W        W21727  26.738  23.806  11.672
49303W        W21728  32.507  37.642  11.192
49304W        W21729  39.563   8.975   2.889
49305W        W21730  41.096   4.301   4.600
49306W        W21731  34.858  12.228  10.479
49307W        W21732  31.093  16.592  12.737
49308W        W21733  35.361  36.349   1.865
49309W        W21734  24.118   6.854  10.947
49310W        W21735   2.499  13.023  13.212
49311W        W21736  33.195   7.627  13.918
49312W        W21737  22.952  44.852   4.543
49313W        W21738  24.656  41.816   1.401
49314W        W21739  41.626   6.037   3.132
49315W        W21740  43.441  19.517  13.575
49316W        W21741  44.941  24.522  11.397
49317W        W21742  38.592  36.877   3.252
49318W        W21743  23.135  35.003  11.472
49319W        W21744   4.333  34.833   5.014
49320W        W21745   6.322  32.395  10.586
49321W        W21746  23.210   0.372   0.700
49322W        W21747  19.830  42.324  11.545
49323W        W21748  43.291  35.951   1.822
49324W        W21749   2.104  26.964   2.336
49325W        W21750  15.167  42.551  11.513
49326W        W21751  25.634  19.542  10.087
49327W        W21752  35.358   8.722   0.915
49328W        W21753  23.349  19.256  13.996
49329W        W21754  14.073  35.307   2.744
49330W        W21755  40.473  36.559  11.621
49331W        W21756  33.597  15.816  14.416
49332W        W21757  44.742  26.329   5.033
49333W        W21758   8.813   1.391  12.845
49334W        W21759  23.729  12.392   3.324
49335W        W21760  11.101   1.772  10.736
49336W        W21761  19.058  34.057   0.238
49337W        W21762  11.608   4.735  11.290
49338W        W21763  37.684   1.927  12.486
49339W        W21764   8.844  40.481  12.729
49340W        W21765  10.228   0.350   0.918
49341W        W21766  39.531  28.724   2.927
49342W        W21767  28.696  17.493   2.287
49343W        W21768   6.342   2.510   0.718
49344W        W21769  19.181  11.137   2.744
49345W        W21770  26.411  13.357   3.242
49346W        W21771  41.794  30.703  11.187
49347W        W21772  12.165  14.275   2.840
49348W        W21773  13.769   1.858  12.272
49349W        W21774  42.957  14.278  13.975
49350W        W21775  43.331  26.024   4.167
49351W        W21776  19.888  30.008  12.853
49352W        W21777  25.684  40.399  13.883
49353W        W21778   7.721  37.418   3.743
49354W        W21779  41.848   0.391   3.068
49355W        W21780  26.387  37.311  13.515
49356W        W21781   2.401   0.133   0.610
49357W        W21782  44.500  39.351  13.871
49358W        W21783   8.639   0.584   4.232
49359W        W21784   6.878  32.157  12.176
49360W        W21785  38.419   6.745   3.330
49361W        W21786  22.785  44.988  10.784
49362W        W21787  22.575  36.439   3.195
49363W        W21788  20.145  15.076  12.585
49364W        W21789  24.093  43.950  12.906
49365W        W21790  31.570  16.536   4.272
49366W        W21791  33.610  20.718  14.474
49367W        W21792   3.129   0.212  13.342
49368W        W21793  39.222  38.323   1.061
49369W        W21794   5.162  32.063  13.040
49370W        W21795  30.713  34.127   1.629
49371W        W21796   3.213  31.360   1.724
49372W        W21797   2.981  34.181   1.319
49373W        W21798  42.817  30.700  13.602
49374W        W21799   3.814  29.055  12.867
49375W        W21800  30.677  35.292   2.418
49376W        W21801   9.356   6.429   1.443
49377W        W21802  17.302  22.734  11.508
49378W        W21803  44.801  43.569  10.639
49379W        W21804  11.707  18.906  11.959
49380W        W21805  29.563   2.928  14.457
49381W        W21806  24.466  20.826  13.821
49382W        W21807  40.908   9.166  13.542
49383W        W21808  18.097  31.693  14.412
49384W        W21809  28.180  19.651   2.341
49385W        W21810   6.666   6.408   0.074
49386W        W21811  38.439  33.559  11.695
49387W        W21812  24.255  16.849   4.806
49388W        W21813   6.807  28.094   0.719
49389W        W21814   0.867  39.930  13.350
49390W        W21815   7.877  40.806  13.694
49391W        W21816  23.205  19.552  10.569
49392W        W21817  31.548  12.218   4.922
49393W        W21818  26.041   4.749   4.373
49394W        W21819  40.823   3.899  10.810
49395W        W21820  17.586   3.659  13.989
49396W        W21821  10.865   1.813   2.452
49397W        W21822  30.891  25.632   0.876
49398W        W21823  44.034  34.206   3.823
49399W        W21824  41.333   4.310  12.840
49400W        W21825  31.847  11.864  11.500
49401W        W21826  14.150  33.567  13.218
49402W        W21827  36.068  24.523   0.022
49403W        W21828   5.646  20.677   3.765
49404W        W21829  28.710  33.532  10.579
49405W        W21830  41.833   9.921   4.872
49406W        W21831  17.678  33.097  12.015
49407W        W21832  16.543  35.635   1.240
49408W        W21833  22.753  29.498  14.964
49409W        W21834  39.167   1.189   3.108
49410W        W21835  30.851   1.430   3.158
49411W        W21836  26.171  18.897  12.518
49412W        W21837  10.184  27.350   4.574
49413W        W21838   1.269  11.705   1.201
49414W        W21839  11.739  39.335  14.816
49415W        W21840  11.124  24.648  13.563
49416W        W21841   0.450  33.583  13.398
49417W        W21842  30.096  37.024  11.515
49418W        W21843   3.735   0.788   1.815
49419W        W21844  13.605  23.482  11.113
49420W        W21845  30.585  32.906   2.704
49421W        W21846  24.474  11.367   0.324
49422W        W21847  44.388   8.412   2.713
49423W        W21848   3.648  20.240  14.512
49424W        W21849  18.569  30.047   1.412
49425W        W21850  28.545  44.457  11.943
49426W        W21851  15.278  31.801   2.304
49427W        W21852  34.057  18.342  11.085
49428W        W21853  30.975  17.703   2.509
49429W        W21854  38.565   1.240   1.522
49430W        W21855  17.734   7.195   1.239
49431W        W21856  13.999  32.883   4.605
49432W        W21857  41.957   2.200   1.324
49433W        W21858  26.950  23.737   2.342
49434W        W21859  15.619   3.430  11.483
49435W        W21860  11.896  12.903  12.663
49436W        W21861   7.944   2.854   3.205
49437W        W21862  11.433   4.220   4.418
49438W        W21863  20.234  21.294  10.174
49439W        W21864  44.745  20.039  14.824
49440W        W21865   6.092   5.252  11.249
49441W        W21866   3.258   1.031   1.710
49442W        W21867  13.336   1.576  14.971
49443W        W21868  43.157  31.820   2.374
49444W        W21869  41.343   9.800   1.950
49445W        W21870  21.093  38.580  10.625
49446W        W21871   7.686  37.056  13.404
49447W        W21872  28.147   8.760   2.583
49448W        W21873   9.798  15.746  13.946
49449W        W21874  17.275  26.477  12.524
49450W        W21875  22.638  18.067   0.796
49451W        W21876  17.135  18.540  11.645
49452W        W21877   4.197  43.977   1.389
49453W        W21878   1.990  29.595  12.923
49454W        W21879   8.429   0.813   3.217
49455W        W21880  31.049  11.427   1.885
49456W        W21881  30.487  39.743  13.320
49457W        W21882  15.754  13.671  12.929
49458W        W21883  27.673  43.279   1.469
49459W        W21884   6.330  43.994  14.964
49460W        W21885   9.102  31.421   4.306
49461W        W21886   7.254  15.746   1.930
49462W        W21887  41.066  37.314   1.905
49463W        W21888  12.148  20.824  11.929
49464W        W21889  30.394  16.981   4.616
49465W        W21890  28.015   8.487  14.336
49466W        W21891  37.140  33.052  12.050
49467W        W21892  38.856  23.464  10.195
49468W        W21893  31.290  38.942   1.304
49469W        W21894   9.428  11.856  14.484
49470W        W21895   6.435   3.870   3.120
49471W        W21896  17.969   4.827  10.554
49472W        W21897  14.601  38.960  10.709
49473W        W21898  44.414   4.291  11.614
49474W        W21899  39.842  10.739   4.272
49475W        W21900  36.180  29.593  11.592
49476W        W21901  19.801  22.205   2.366
49477W        W21902  26.945  24.667  13.551
49478W        W21903  26.609  24.118   0.199
49479W        W21904  14.689  30.008  12.969
49480W        W21905  39.296  40.080  10.992
49481W        W21906   5.272  22.783  14.958
49482W        W21907   1.488  33.564  12.498
49483W        W21908  17.108  16.806   0.894
49484W        W21909   1.866   2.951   1.379
49485W        W21910  43.337  30.818  12.492
49486W        W21911  26.454  43.735  10.220
49487W        W21912   3.164  38.982   1.479
49488W        W21913  36.380  19.548  14.845
49489W        W21914  14.177   9.578   3.563
49490W        W21915  35.473   0.467   1.376
49491W        W21916  27.968  21.012  13.494
49492W        W21917  35.597  36.054  12.938
49493W        W21918  28.249  38.032  13.106
49494W        W21919  35.419  12.013  11.068
49495W        W21920   4.309  44.851   0.308
49496W        W21921  34.803  18.053  10.597
49497W        W21922  25.667  33.926  13.417
49498W        W21923  20.487   6.765  12.669
49499W        W21924  35.121   4.147   4.544
49500W        W21925  42.766   3.046  14.807
49501W        W21926  24.133   3.431  10.600
49502W        W21927  35.399   2.496  13.507
49503W        W21928  36.988   5.135  13.866
49504W        W21929  29.871  11.772  12.396
49505W        W21930  32.093  29.471   2.947
49506W        W21931   7.955  36.479  14.685
49507W        W21932  39.519  28.191   2.404
49508W        W21933   0.585  11.277   0.264
49509W        W21934  20.753  20.509  13.567
49510W        W21935   5.747  40.908  12.911
49511W        W21936  17.061  44.465   4.965
49512W        W21937  38.961  17.656  14.105
49513W        W21938  13.144   9.634   4.200
49514W        W21939   9.223   2.033  14.838
49515W        W21940  14.174  33.451   3.328
49516W        W21941  17.316   3.275   3.208
49517W        W21942  33.789  17.140  13.865
49518W        W21943  37.991   3.445  10.593
49519W        W21944  32.860  43.444  12.467
49520W        W21945  22.441  22.938  14.217
49521W        W21946  43.756  20.705  11.681
49522W        W21947  33.830   6.816   2.220
49523W        W21948  41.043  13.915  12.991
49524W        W21949  37.549  10.941   2.678
49525W        W21950   9.247  26.512   0.004
49526W        W21951  39.554  41.965   0.789
49527W        W21952  12.632  40.497   4.027
49528W        W21953  35.117  18.642   1.832
49529W        W21954  18.677  38.890   1.195
49530W        W21955  37.371  10.304   5.130
49531W        W21956  35.518  16.186  13.258
49532W        W21957  23.766  31.988  14.388
49533W        W21958  32.823  36.865   1.846
49534W        W21959  18.082  26.784   1.129
49535W        W21960   7.324  35.706  12.569
49536W        W21961  27.549  18.335  11.651
49537W        W21962  40.488   2.196  11.625
49538W        W21963   2.046  17.622   3.184
49539W        W21964   9.101  30.504   4.296
49540W        W21965  34.389  42.785   4.996
49541W        W21966   3.210   3.789   4.625
49542W        W21967  41.288  35.298   1.222
49543W        W21968  28.338  27.445  13.940
49544W        W21969  33.917  33.190  10.532
49545W        W21970  33.560  21.140  13.888
49546W        W21971  33.510  27.701  11.975
49547W        W21972   3.362  39.445   4.482
49548W        W21973   3.723  14.610   1.078
49549W        W21974  15.771   3.381   0.130
49550W        W21975  15.108  17.584  12.625
49551W        W21976  20.260  44.274   2.301
49552W        W21977  40.570  40.494   2.841
49553W        W21978  40.121  10.901  10.642
49554W        W21979  13.666  25.769  13.276
49555W        W21980  14.977  17.612   4.519
49556W        W21981  30.682  44.839  13.450
49557W        W21982  16.276  11.839   1.308
49558W        W21983  18.420  19.200  14.462
49559W        W21984   7.714   0.436   4.723
49560W        W21985  23.127   0.835  14.472
49561W        W21986  35.190   2.472  10.783
49562W        W21987  34.360  28.023   0.689
49563W        W21988   2.042  24.511   3.865
49564W        W21989   0.749  33.459   1.502
49565W        W21990  40.932  36.788  11.631
49566W        W21991   5.100  31.005   1.525
49567W        W21992  43.039  42.694   4.670
49568W        W21993   4.425  37.014  12.039
49569W        W21994   7.343  42.908  13.703
49570W        W21995   0.873  19.284  13.293
49571W        W21996  29.953  16.262  13.957
49572W        W21997  23.832  14.131  10.674
49573W        W21998  14.224  23.289  13.802
49574W        W21999  26.906  38.869  11.600
49575W        W22000  27.944  30.604  13.790
49576W        W22001  14.624  22.708  11.992
49577W        W22002  22.405   4.670  13.887
49578W        W22003  10.751  42.252   4.410
49579W        W22004  28.726  11.866   1.750
49580W        W22005  14.195  16.210  14.298
49581W        W22006  22.171   4.466  12.422
49582W        W22007  15.196  41.277   3.807
49583W        W22008  38.442  14.714   2.128
49584W        W22009  18.163  19.336  12.230
49585W        W22010  14.059  42.662  13.818
49586W        W22011  12.381  33.142  12.446
49587W        W22012  41.923  33.683  12.578
49588W        W22013  19.776  14.569   4.160
49589W        W22014  14.033  38.544  11.300
49590W        W22015  12.089  16.269   0.307
49591W        W22016  33.885  38.419  13.844
49592W        W22017  15.689  20.050  13.108
49593W        W22018   6.588   9.666   0.882
49594W        W22019  27.033  12.163   4.051
49595W        W22020  42.007  26.157   1.449
49596W        W22021  35.671   5.340  13.749
49597W        W22022  10.300  20.964  13.998
49598W        W22023  35.629  23.527  13.031
49599W        W22024   3.430  17.189  10.570
49600W        W22025  35.575  22.217   2.936
49601W        W22026  12.650  28.920  11.046
49602W        W22027  32.408  10.612  11.188
49603W        W22028  26.097  42.323   2.748
49604W        W22029  26.710  42.845  12.430
49605W        W22030  28.935  39.680  11.422
49606W        W22031   1.506  14.735   3.179
49607W        W22032  15.768  37.617  11.581
49608W        W22033  30.189   4.482  12.933
49609W        W22034   7.422   5.432   2.715
49610W        W22035  42.072  41.494   1.767
49611W        W22036  18.535  37.514   4.586
49612W        W22037   1.861  12.208  13.941
49613W        W22038  25.640  43.821   3.226
49614W        W22039  33.688   2.900   4.950
49615W        W22040  13.220  41.867   3.945
49616W        W22041   5.325  35.416  11.565
49617W        W22042  27.728  16.207  12.929
49618W        W22043  26.468  44.236  11.074
49619W        W22044  43.855   7.281  13.560
49620W        W22045  31.825  29.716  11.668
49621W        W22046   6.124  35.868  10.559
49622W        W22047   3.726  17.659  10.981
49623W        W22048   0.842  28.161  14.829
49624W        W22049  11.717   4.930  14.752
49625W        W22050  36.540   2.687  12.543
49626W        W22051  18.719  43.909  10.576
49627W        W22052  15.312  39.442   2.708
49628W        W22053  38.582  19.762  12.598
49629W        W22054  41.441  44.917  10.756
49630W        W22055   1.343  21.016  12.330
49631W        W22056  11.748   5.142   0.250
49632W        W22057  28.744   9.336   2.651
49633W        W22058   4.347  39.153   4.841
49634W        W22059  11.549   6.205   3.133
49635W        W22060   5.920   8.513  12.953
49636W        W22061  14.232  10.667  11.968
49637W        W22062  25.919   8.642  10.647
49638W        W22063  42.242  11.066  11.150
49639W        W22064  11.806  16.465   3.757
49640W        W22065   1.081  35.446  11.628
49641W        W22066  27.496  39.057  14.286
49642W        W22067   4.768   6.118  12.516
49643W        W22068   7.203  22.353   4.619
49644W        W22069  22.678  37.383   1.926
49645W        W22070  33.984  39.433  12.900
49646W        W22071  33.655  26.876  12.542
49647W        W22072  22.477  28.570   1.034
49648W        W22073   5.907   1.246  14.255
49649W        W22074   6.776  30.103  12.663
49650W        W22075  30.923  37.434   2.932
49651W        W22076  39.455  40.389   3.129
49652W        W22077  14.097  38.943   3.381
49653W        W22078   2.698   3.908  12.067
49654W        W22079   7.277  33.154   5.189
49655W        W22080   0.456  35.929   4.350
49656W        W22081  42.262  35.864   0.432
49657W        W22082  32.713   7.937   4.171
49658W        W22083   1.352   0.918  12.918
49659W        W22084  39.380  22.713  11.920
49660W        W22085  33.318  17.729  12.002
49661W        W22086  30.363  10.393  14.539
49662W        W22087   8.698  38.523  14.855
49663W        W22088  11.050   8.841  11.149
49664W        W22089   7.583  20.066  12.436
49665W        W22090  10.356  12.975   9.844
49666W        W22091  11.540  43.156   3.211
49667W        W22092  38.521  16.605   4.126
49668W        W22093  25.914  39.893  10.640
49669W        W22094  37.367  38.499   2.097
49670W        W22095  31.073  37.455  12.382
49671W        W22096  42.002   9.435  12.539
49672W        W22097  41.782   4.931   3.786
49673W        W22098  33.624  40.238   0.915
49674W        W22099  37.046   0.369   1.599
49675W        W22100  42.033  41.860   3.412
49676W        W22101  11.900  16.609   4.556
49677W        W22102  15.273  41.836  10.754
49678W        W22103  38.976   8.090   2.300
49679W        W22104  33.941  23.660  10.643
49680W        W22105  25.946   0.438   4.364
49681W        W22106  26.866  15.516   3.405
49682W        W22107   5.146  24.562   2.110
49683W        W22108  44.904  41.317   0.917
49684W        W22109  37.024   9.762  13.922
49685W        W22110  25.600  18.630   0.411
49686W        W22111  31.574  29.149  14.043
49687W        W22112  41.936  13.929  10.327
49688W        W22113  15.727   3.696   4.992
49689W        W22114  39.917   0.503  10.661
49690W        W22115  18.644  24.359  13.663
49691W        W22116  19.727   6.687   2.620
49692W        W22117  11.335  39.263  12.134
49693W        W22118   4.733   9.188   1.934
49694W        W22119  42.879   9.428   2.664
49695W        W22120  23.705  33.411   0.930
49696W        W22121  22.184  12.493  12.855
49697W        W22122  33.998  39.496   0.282
49698W        W22123  35.001   9.239   3.286
49699W        W22124  22.944  22.046   1.280
49700W        W22125  28.424   9.823   4.608
49701W        W22126  33.351   5.718  13.838
49702W        W22127  26.902  22.649   0.898
49703W        W22128   3.735  41.631  13.466
49704W        W22129  10.447  44.756   0.139
49705W        W22130   8.187   8.925  12.530
49706W        W22131   0.843  10.278   2.803
49707W        W22132  10.489   4.213  10.135
49708W        W22133  34.809  21.710   0.708
49709W        W22134  27.408  10.877   2.141
49710W        W22135  26.669  38.509   0.978
49711W        W22136  36.906  11.787  14.842
49712W        W22137  27.802  16.309   1.705
49713W        W22138  19.501  17.662  13.468
49714W        W22139   1.297  31.580   0.278
49715W        W22140  19.549  35.056  13.868
49716W        W22141   3.817   4.229   3.864
49717W        W22142  37.714  23.197   5.428
49718W        W22143  12.989  14.852   2.864
49719W        W22144  17.718   7.116   3.787
49720W        W22145   9.087  10.423  14.666
49721W        W22146  32.430  24.179   1.394
49722W        W22147  27.957  22.499  12.973
49723W        W22148   8.110   6.457  10.664
49724W        W22149  27.482   4.289   0.714
49725W        W22150  21.664  27.010  13.386
49726W        W22151   3.927   1.120   2.433
49727W        W22152  16.137   9.930  13.946
49728W        W22153  20.165  20.303   2.116
49729W        W22154  38.859   4.658   3.240
49730W        W22155  12.134   3.205  13.435
49731W        W22156  32.911  35.972   2.611
49732W        W22157   6.968  42.026  12.479
49733W        W22158  31.984   9.153   1.309
49734W        W22159  34.261  12.426  11.639
49735W        W22160  35.521   4.567   2.671
49736W        W22161  33.825  31.936  13.522
49737W        W22162  29.524  43.314  11.098
49738W        W22163  44.097  34.158  13.553
49739W        W22164  41.019  24.698  12.863
49740W        W22165  20.588  29.665   3.263
49741W        W22166  34.897  24.980  13.324
49742W        W22167  28.494   7.230  12.007
49743W        W22168  44.346  24.556   0.251
49744W        W22169  19.770  33.457  14.369
49745W        W22170  42.201  16.606  14.504
49746W        W22171  37.550  12.235   0.970
49747W        W22172  28.671  12.244   0.976
49748W        W22173  32.633  20.684  13.371
49749W        W22174  32.322  38.027  12.082
49750W        W22175  15.708  40.484   3.105
49751W        W22176  12.697  14.589  10.917
49752W        W22177  41.822   7.410  14.818
49753W        W22178  28.258  38.871   4.596
49754W        W22179  23.576  10.370  14.189
49755W        W22180   6.788  25.250   2.714
49756W        W22181   5.803  30.577   3.887
49757W        W22182  19.744  37.159  13.133
49758W        W22183  39.374  37.539  13.417
49759W        W22184  21.542  39.459   4.296
49760W        W22185  39.931   6.832  11.057
49761W        W22186  32.058  44.709   2.392
49762W        W22187   5.428   6.897  10.664
49763W        W22188  37.388  20.197   0.883
49764W        W22189   0.289  25.014   4.032
49765W        W22190  33.294  40.900   3.721
49766W        W22191  24.769  38.313  13.866
49767W        W22192  14.014  12.820   3.111
49768W        W22193  32.049  43.418  12.059
49769W        W22194   2.768  13.053  14.775
49770W        W22195   9.793  34.564   4.530
49771W        W22196   7.580  30.599   3.734
49772W        W22197  26.423  15.657  13.064
49773W        W22198   3.271  23.435   3.896
49774W        W22199  40.056  10.110  11.197
49775W        W22200  43.919  34.941   3.223
49776W        W22201   0.253  19.336  11.150
49777W        W22202  19.098  34.051   1.874
49778W        W22203  12.271  36.680   0.837
49779W        W22204  30.111  19.367  10.392
49780W        W22205   7.942   8.781   5.122
49781W        W22206  28.096  17.292  13.029
49782W        W22207  10.146  23.965  14.001
49783W        W22208   7.793  10.272  11.522
49784W        W22209  43.927   7.447   1.760
49785W        W22210  13.875  41.918  14.403
49786W        W22211  22.757  21.303   3.443
49787W        W22212  44.978   0.847   1.416
49788W        W22213  26.637  42.070   0.633
49789W        W22214  25.454  11.110  14.395
49790W        W22215  19.289  30.098   4.756
49791W        W22216   4.704  10.351  14.499
49792W        W22217  34.938  43.279   2.417
49793W        W22218  44.431  40.263   4.573
49794W        W22219  21.624   9.921   1.170
49795W        W22220  42.200  18.854  11.655
49796W        W22221  44.450  11.155  14.805
49797W        W22222  13.489  24.935  14.875
49798W        W22223  15.687  16.934  10.160
49799W        W22224   9.095   2.370   3.261
49800W        W22225   5.683  24.599   2.119
49801W        W22226  37.351  21.262  12.431
49802W        W22227   0.622   6.285  11.888
49803W        W22228  42.736  25.175   2.704
49804W        W22229  36.576   2.874   1.928
49805W        W22230   2.493  25.582   2.303
49806W        W22231   2.282  23.113  13.351
49807W        W22232   1.435   0.637  11.935
49808W        W22233  19.155  23.557  13.455
49809W        W22234   6.053  13.257   1.285
49810W        W22235  20.237  21.504  13.897
49811W        W22236  24.690   4.763   2.304
49812W        W22237  19.797   0.897   4.087
49813W        W22238   6.238  30.932  13.614
49814W        W22239   2.550   9.291  14.330
49815W        W22240  35.252  10.198   2.444
49816W        W22241   4.948   5.424  13.429
49817W        W22242  14.497  40.484   1.776
49818W        W22243  18.018  34.843   0.886
49819W        W22244  21.171  16.971   0.583
49820W        W22245   3.715   6.348  13.801
49821W        W22246  16.773  31.328   3.746
49822W        W22247  36.343  36.738  11.120
49823W        W22248   9.698  35.948  12.375
49824W        W22249  44.948  16.020   0.724
49825W        W22250   0.769   1.333  12.150
49826W        W22251   4.183  29.157   3.176
49827W        W22252  35.466  25.521  11.523
49828W        W22253  21.834  27.069   0.799
49829W        W22254  41.563  19.576   2.409
49830W        W22255  41.197  36.855   0.901
49831W        W22256  12.779  30.367  13.937
49832W        W22257  42.172  24.233  14.013
49833W        W22258   4.014  13.651  13.843
49834W        W22259  33.690  13.567  11.168
49835W        W22260  36.013  10.090   1.216
49836W        W22261   4.425  41.218  11.393
49837W        W22262  44.916  26.072  12.579
49838W        W22263  27.184  13.579   0.314
49839W        W22264  21.711  18.024   2.048
49840W        W22265  42.401   1.056   1.769
49841W        W22266  18.152  28.113  11.212
49842W        W22267  29.870  18.752  10.213
49843W        W22268   0.840   9.743   1.774
49844W        W22269  41.156  38.463  13.069
49845W        W22270  22.279  26.179   4.244
49846W        W22271  33.568  35.118  12.935
49847W        W22272  35.512  22.574   4.142
49848W        W22273  27.565  22.673  14.329
49849W        W22274  44.352  11.276   4.847
49850W        W22275  28.478  25.506  13.554
49851W        W22276  40.208  24.726   0.567
49852W        W22277  33.362   2.018  14.404
49853W        W22278   5.937  25.627  12.002
49854W        W22279   1.235  24.265   2.802
49855W        W22280  31.044  30.066  13.447
49856W        W22281  21.805  40.040   2.970
49857W        W22282   8.202  34.763  12.902
49858W        W22283  35.889  18.561   1.170
49859W        W22284  26.656  26.532   4.157
49860W        W22285  17.078  32.235  10.631
49861W        W22286  17.560  24.752   2.322
49862W        W22287  19.953  30.165  14.176
49863W        W22288  23.127  21.114   3.131
49864W        W22289   9.959  42.834  11.208
49865W        W22290  32.175  39.343  13.888
49866W        W22291  35.753  29.627  12.055
49867W        W22292   7.847  26.084  14.465
49868W        W22293  24.512  19.395   3.657
49869W        W22294  16.636  19.674  12.836
49870W        W22295  30.967  36.443  10.728
49871W        W22296  41.908  22.158  14.741
49872W        W22297  16.600  18.776   1.410
49873W        W22298  26.045  26.016  11.502
49874W        W22299  23.229  17.515   1.414
49875W        W22300  41.471  28.362  13.499
49876W        W22301  24.676  22.117  14.749
49877W        W22302  23.349  29.690   0.517
49878W        W22303  14.086   6.873   1.718
49879W        W22304  11.804  40.960   1.396
49880W        W22305  15.304  20.069   0.700
49881W        W22306  37.545   7.203   0.782
49882W        W22307  20.764   0.663  12.885
49883W        W22308   3.407  11.685   3.644
49884W        W22309  24.978   1.580   4.212
49885W        W22310  26.152  11.515   4.215
49886W        W22311  12.082   1.629   4.019
49887W        W22312  26.551  43.226   0.825
49888W        W22313   6.936  20.189  12.927
49889W        W22314  34.640  23.455  11.158
49890W        W22315  16.253  29.188  11.859
49891W        W22316  22.982  34.034  11.611
49892W        W22317  10.290  43.122   4.995
49893W        W22318  11.093  20.758  12.892
49894W        W22319  10.593   1.871   1.313
49895W        W22320  42.892   3.398   4.609
49896W        W22321  16.774  26.565  12.663
49897W        W22322  42.707   3.613   4.132
49898W        W22323  27.713   4.254  11.194
49899W        W22324  13.580  19.686   1.680
49900W        W22325  38.657  27.408   0.231
49901W        W22326   3.310   0.013   2.280
49902W        W22327  11.702  40.713  12.332
49903W        W22328  14.307  23.278   1.173
49904W        W22329  38.562  30.802  11.612
49905W        W22330  27.345  35.997  14.547
49906W        W22331  18.038  26.688  10.810
49907W        W22332  43.015  39.422   2.632
49908W        W22333  27.246   5.060  14.964
49909W        W22334   0.842  34.892   4.027
49910W        W22335  24.935  14.712   2.321
49911W        W22336   7.155  15.334  12.013
49912W        W22337  28.534  44.890   3.291
49913W        W22338  15.145  40.751   2.302
49914W        W22339  44.871   0.172  14.508
49915W        W22340  31.067  43.804   4.107
49916W        W22341   2.093   0.993   1.833
49917W        W22342  32.672  22.617  14.849
49918W        W22343  43.915   5.657   2.390
49919W        W22344   8.377  25.231  14.850
49920W        W22345  11.405  12.716   4.524
49921W        W22346  19.274  33.160   1.193
49922W        W22347  43.087  35.317   0.240
49923W        W22348  20.459  34.336  12.927
49924W        W22349  28.485  21.697   2.763
49925W        W22350  18.515  20.977   0.223
49926W        W22351  11.792  44.264   0.963
49927W        W22352  14.812  31.175  13.450
49928W        W22353   3.323  18.596  12.386
49929W        W22354   6.810  24.574  12.857
49930W        W22355  39.903   0.319  12.289
49931W        W22356   5.759  38.770  10.736
49932W        W22357  37.715  19.322  14.998
49933W        W22358   5.664  28.441   1.209
49934W        W22359  29.053  39.220   3.997
49935W        W22360   9.894  37.291   0.896
49936W        W22361  29.006  23.660   1.234
49937W        W22362  23.473  44.189  12.467
49938W        W22363   2.357  35.577   1.508
49939W        W22364  38.213  33.977  13.609
49940W        W22365  19.428  43.253   2.427
49941W        W22366   4.987  31.509  12.430
49942W        W22367  20.540  36.147  12.859
49943W        W22368   6.832  29.820  12.029
49944W        W22369   9.901  41.328   3.982
49945W        W22370  35.474   9.446  14.316
49946W        W22371   8.359  19.132   1.819
49947W        W22372  42.460   1.257   3.228
49948W        W22373  24.899  21.812  11.168
49949W        W22374  37.809  24.534  13.417
49950W        W22375  39.627  33.934   4.306
49951W        W22376  41.496  20.258   1.003
49952W        W22377   2.547  25.912  11.951
49953W        W22378  20.764  18.805  12.555
49954W        W22379  36.713  37.443  13.391
49955W        W22380  44.183  39.025  13.098
49956W        W22381  41.429  19.483   3.673
49957W        W22382   1.753  25.082   0.442
49958W        W22383   1.095  30.444  11.985
49959W        W22384  24.288  10.756   1.222
49960W        W22385   5.267  31.567   0.868
49961W        W22386   3.350  18.537  11.890
49962W        W22387  31.244  15.724  13.619
49963W        W22388  14.791   5.903  13.268
49964W        W22389  21.269  16.021  11.633
49965W        W22390  38.836  37.539   4.581
49966W        W22391  26.492   0.333   0.750
49967W        W22392  14.792  16.098  10.477
49968W        W22393   0.709  35.501  14.139
49969W        W22394  42.253  10.386   9.884
49970W        W22395   9.314   0.158   0.377
49971W        W22396  18.579  33.157   4.140
49972W        W22397  21.568  39.172   2.497
49973W        W22398  14.351   3.980  11.064
49974W        W22399  17.931  30.357   0.846
49975W        W22400  13.927  23.936  13.352
49976W        W22401   5.353  24.664  10.761
49977W        W22402   3.797  21.558   1.251
49978W        W22403  16.261  10.430  11.657
49979W        W22404  15.863   7.618  12.050
49980W        W22405  19.698  27.405  14.289
49981W        W22406  21.560  42.562   1.941
49982W        W22407  21.611   2.409   3.611
49983W        W22408  30.522  29.998   4.073
49984W        W22409   3.877  36.187   0.068
49985W        W22410  28.609   6.902  12.401
49986W        W22411  26.691   3.749  13.284
49987W        W22412  13.614  41.428   0.357
49988W        W22413  11.393  30.175  11.299
49989W        W22414  43.086  13.558   1.353
49990W        W22415  33.064  44.229  11.951
49991W        W22416   4.797  32.536   1.858
49992W        W22417  39.898  10.511   2.445
49993W        W22418  37.096   6.752   3.691
49994W        W22419  29.564  27.473   2.355
49995W        W22420  16.771  12.178   4.763
49996W        W22421  31.836  29.292  13.016
49997W        W22422  25.676  36.918   2.620
49998W        W22423  24.549  35.661  13.033
49999W        W22424  44.473  42.016  13.618
50000W        W22425  36.726  38.780   4.212
50001W        W22426  19.562  20.778  13.056
50002W        W22427  23.419   6.806  13.981
50003W        W22428  17.638  27.254   1.171
50004W        W22429  36.762  17.236  13.022
50005W        W22430  37.990  44.575  10.072
50006W        W22431  30.105  11.586  10.431
50007W        W22432  36.670   7.137   0.963
50008W        W22433   3.980   7.668  12.133
50009W        W22434   5.236  39.549  10.755
50010W        W22435   9.387   8.907   5.100
50011W        W22436  29.632  25.877   4.723
50012W        W22437   9.945   7.864   2.249
50013W        W22438  25.991  41.336  14.926
50014W        W22439  24.008  24.712   3.224
50015W        W22440  41.056   2.967  11.638
50016W        W22441   4.018   6.426   0.876
50017W        W22442  43.391  41.753   0.825
50018W        W22443   0.489  17.308   2.766
50019W        W22444   1.300  42.401  14.946
50020W        W22445   5.398  13.485  13.982
50021W        W22446   8.827  29.948  12.948
50022W        W22447  34.447  26.953  13.879
50023W        W22448  43.826   4.864  12.906
50024W        W22449  29.051  17.861   3.125
50025W        W22450  35.847  42.201  14.391
50026W        W22451  32.941  22.786   1.253
50027W        W22452  36.944  25.736   4.244
50028W        W22453  21.696  20.100  11.919
50029W        W22454  27.668  31.872  14.763
50030W        W22455   3.317  13.237  10.416
50031W        W22456  28.185  35.038   0.373
50032W        W22457  14.923  40.003   2.225
50033W        W22458   9.148  37.515  10.623
50034W        W22459   4.399   3.335   1.039
50035W        W22460  38.112  25.748  10.928
50036W        W22461  23.230   4.120   3.176
50037W        W22462  12.133  10.385   0.235
50038W        W22463   2.366  32.220   5.260
50039W        W22464  32.433  21.627   4.842
50040W        W22465  16.794  20.928   1.093
50041W        W22466   6.942  43.922   3.595
50042W        W22467  17.130  26.774  12.959
50043W        W22468  40.209  41.222  12.659
50044W        W22469   2.917  23.281  11.019
50045W        W22470   5.473  13.103  14.988
50046W        W22471  43.682  31.025   1.719
50047W        W22472   7.229  26.805   0.996
50048W        W22473   1.948  11.308  11.943
50049W        W22474  17.136   8.157  14.547
50050W        W22475   7.524  14.640   1.328
50051W        W22476  28.486  24.955   1.652
50052W        W22477  36.120  31.507   4.438
50053W        W22478  37.936  25.541  14.878
50054W        W22479   4.346  34.660  14.549
50055W        W22480  43.431  32.298   1.903
50056W        W22481  30.550   0.307  12.236
50057W        W22482   6.453  28.133   0.307
50058W        W22483  40.541  43.332  11.960
50059W        W22484  28.594  22.116   3.085
50060W        W22485   6.496  20.789  13.627
50061W        W22486   6.375   8.128  10.657
50062W        W22487  17.597  38.264   4.513
50063W        W22488  37.421   2.934  14.960
50064W        W22489  11.790  41.517   3.327
50065W        W22490  42.572  38.640   3.681
50066W        W22491  33.469  35.883   4.190
50067W        W22492  23.125  10.833  12.368
50068W        W22493  13.486  28.020   0.517
50069W        W22494  24.268  44.744  12.549
50070W        W22495  18.100  35.570  12.339
50071W        W22496  29.692  13.085  12.386
50072W        W22497  18.550   6.878   4.149
50073W        W22498  39.289  19.960   3.238
50074W        W22499  16.614  15.107   1.657
50075W        W22500  33.114  19.695  14.087
50076W        W22501  20.108  26.020   4.553
50077W        W22502  43.033  40.534  14.514
50078W        W22503  40.937  23.828   4.708
50079W        W22504   0.323  17.407   0.004
50080W        W22505  20.560  37.528   3.778
50081W        W22506  28.020   7.238  13.970
50082W        W22507  22.677   3.474  10.059
50083W        W22508  41.408  34.472   2.813
50084W        W22509  38.359   9.634  10.659
50085W        W22510  19.599  33.996  11.345
50086W        W22511  19.747  44.482   1.205
50087W        W22512  13.586  35.322  13.316
50088W        W22513  30.421  16.681  14.437
50089W        W22514  34.588   6.712   2.779
50090W        W22515   4.317   3.674   4.483
50091W        W22516  11.820  31.543   4.298
50092W        W22517  11.285  37.501  10.193
50093W        W22518  40.455  39.930  13.878
50094W        W22519   7.965   5.823   0.047
50095W        W22520  30.629  19.789  13.567
50096W        W22521  25.233   4.685   3.696
50097W        W22522   4.059  13.821   1.101
50098W        W22523  31.605  40.577  11.485
50099W        W22524  34.172  10.611   1.414
50100W        W22525   5.195  13.807  10.546
50101W        W22526   2.566   9.692   4.096
50102W        W22527  42.330   1.179   3.730
50103W        W22528   6.833   0.054   3.256
50104W        W22529  19.116  43.912   1.332
50105W        W22530  26.827  16.811   2.317
50106W        W22531  41.993   5.854  13.424
50107W        W22532  43.949  42.990  10.734
50108W        W22533   1.009  30.831  13.914
50109W        W22534  38.734  36.904   0.725
50110W        W22535   9.342  37.179  14.031
50111W        W22536   6.024   4.652   4.562
50112W        W22537  10.788  39.973   3.118
50113W        W22538   3.197  23.122   3.123
50114W        W22539  24.930  23.451  12.457
50115W        W22540  24.148  35.068   4.033
50116W        W22541  15.640   6.418  13.481
50117W        W22542  16.273  23.737   1.742
50118W        W22543  16.729  26.161  13.939
50119W        W22544  19.543  25.058  14.365
50120W        W22545  33.167  43.023  12.634
50121W        W22546  21.518  28.603   0.867
50122W        W22547  10.381  26.415  10.245
50123W        W22548   1.968  39.209   2.392
50124W        W22549  19.029  33.039   3.256
50125W        W22550  32.866  30.998   0.549
50126W        W22551  23.004  31.104   0.746
50127W        W22552  24.647   5.095  12.542
50128W        W22553  10.339  39.075   4.588
50129W        W22554   2.210  29.272   1.417
50130W        W22555  12.305   9.901   0.278
50131W        W22556  21.972   2.307  13.256
50132W        W22557   0.571  14.216  12.036
50133W        W22558  14.863  23.987   4.094
50134W        W22559   9.978  12.253  12.421
50135W        W22560  12.832  39.899   1.267
50136W        W22561  30.712  12.105   4.750
50137W        W22562  23.754  35.116  12.895
50138W        W22563  35.452  38.820   4.043
50139W        W22564  12.699  31.495  12.446
50140W        W22565  44.563  11.337   0.835
50141W        W22566  22.489   9.741  14.277
50142W        W22567  27.625  11.902  13.911
50143W        W22568  25.176  37.883   4.706
50144W        W22569  30.662   0.709   1.687
50145W        W22570  21.158  41.009  12.010
50146W        W22571  39.438  10.576   4.020
50147W        W22572   9.572  18.595  14.968
50148W        W22573   8.692   7.150   4.595
50149W        W22574  29.743  23.722   3.725
50150W        W22575  16.670  37.539   1.328
50151W        W22576   0.889   7.301   3.613
50152W        W22577  17.149   0.231   0.974
50153W        W22578  42.551  24.589  14.051
50154W        W22579  30.942  42.568  12.068
50155W        W22580  17.555  17.106  13.444
50156W        W22581  39.589  27.699  13.221
50157W        W22582  34.726   9.597  11.430
50158W        W22583  10.129   8.724   4.628
50159W        W22584  28.183  42.391  14.487
50160W        W22585  30.625  25.154  12.777
50161W        W22586   0.979   4.642   1.293
50162W        W22587  22.583  43.257  11.476
50163W        W22588  11.911   8.994  12.966
50164W        W22589  37.967  35.921   4.625
50165W        W22590   9.859  19.247   2.767
50166W        W22591  40.189  41.785   2.266
50167W        W22592   4.701   8.716   2.165
50168W        W22593  23.093  30.105  13.280
50169W        W22594  23.936  13.853   3.128
50170W        W22595  20.271  11.379  12.029
50171W        W22596  30.598  32.957   3.692
50172W        W22597   7.718   4.573   0.913
50173W        W22598  43.919  29.082   3.811
50174W        W22599  27.968  16.016  14.321
50175W        W22600   3.323  35.581   1.975
50176W        W22601  29.938  37.358  13.315
50177W        W22602  18.219   0.492   1.787
50178W        W22603  37.446  41.607   2.211
50179W        W22604  27.947  15.601   4.165
50180W        W22605  33.170   7.988   1.673
50181W        W22606   1.805   9.890  14.301
50182W        W22607  35.098  37.566  11.160
50183W        W22608  36.299  25.954  10.885
50184W        W22609  39.453  28.578  13.737
50185W        W22610  10.243  16.893  10.090
50186W        W22611  19.759  12.967   2.738
50187W        W22612  39.927  32.439  12.052
50188W        W22613  44.215  37.325   0.271
50189W        W22614  31.839  12.817  10.494
50190W        W22615   8.143  19.326  12.449
50191W        W22616   3.016  13.859   3.873
50192W        W22617  36.660  11.277  13.962
50193W        W22618   8.640   8.683  13.814
50194W        W22619  28.985  10.838   0.727
50195W        W22620  17.394  43.729  12.430
50196W        W22621   8.448   4.273  14.770
50197W        W22622  27.120  42.094  13.058
50198W        W22623  14.155  43.177  13.707
50199W        W22624  43.704  39.411  13.451
50200W        W22625  14.723  35.829  14.238
50201W        W22626  33.598   4.605  10.466
50202W        W22627  33.936  21.313   4.538
50203W        W22628  44.309  39.854   2.173
50204W        W22629  31.979   9.803   4.626
50205W        W22630  37.801  25.055  11.476
50206W        W22631   8.123  31.577  11.635
50207W        W22632   9.207  10.876  12.387
50208W        W22633  18.820  39.507   0.254
50209W        W22634  34.699  40.042   0.436
50210W        W22635   7.824  11.663  14.808
50211W        W22636  38.273   4.867  10.919
50212W        W22637  31.627  28.339  12.265
50213W        W22638  30.777  33.678  14.329
50214W        W22639  33.539  27.471  10.631
50215W        W22640  29.050  26.047   0.923
50216W        W22641   3.850  30.636   2.981
50217W        W22642  15.832  31.515  14.743
50218W        W22643  20.112  31.951   0.176
50219W        W22644  25.749  43.912  14.372
50220W        W22645  20.340  41.762  11.086
50221W        W22646  24.355  21.639  14.809
50222W        W22647  25.306   5.894   2.861
50223W        W22648  10.295  30.057  12.268
50224W        W22649  14.170  36.426   5.169
50225W        W22650  30.605  32.669  14.457
50226W        W22651  35.083  20.408   1.030
50227W        W22652   1.417  13.504  10.503
50228W        W22653   7.914  39.332   0.470
50229W        W22654  42.344   7.729  13.364
50230W        W22655  24.517  24.545  13.307
50231W        W22656  19.073  16.834  12.583
50232W        W22657   1.434  22.986   3.224
50233W        W22658  19.203  38.627   4.253
50234W        W22659  27.526  34.363   0.412
50235W        W22660  43.324  43.903   1.644
50236W        W22661  34.047   0.059   4.670
50237W        W22662  26.394  11.142   2.340
50238W        W22663  42.413  28.061  11.016
50239W        W22664  20.540   5.821  14.780
50240W        W22665  22.758  13.835   9.841
50241W        W22666  20.684  21.248   2.409
50242W        W22667  29.066   4.070  13.962
50243W        W22668  33.896  12.160   4.640
50244W        W22669  15.673  43.215   1.367
50245W        W22670  41.524  36.373   4.255
50246W        W22671  42.393  16.965   1.772
50247W        W22672  11.202  12.795   0.041
50248W        W22673  39.807  24.169  12.601
50249W        W22674  25.686  14.049   0.801
50250W        W22675  21.131  36.175  11.695
50251W        W22676   6.352  40.994   4.660
50252W        W22677   6.415  22.152   3.665
50253W        W22678  34.620  14.798   4.487
50254W        W22679  14.542   3.118   3.677
50255W        W22680   9.593  16.088  12.403
50256W        W22681  19.523  12.502   4.008
50257W        W22682  25.934  25.422  11.121
50258W        W22683  43.487  29.575  14.439
50259W        W22684  16.025  37.064  11.968
50260W        W22685  40.715  44.308   4.581
50261W        W22686  20.702  44.429   1.934
50262W        W22687  32.422   5.302  12.655
50263W        W22688  20.326  21.160   1.603
50264W        W22689   4.353  27.190  14.482
50265W        W22690  44.532   0.933  12.483
50266W        W22691  38.558  10.945   0.759
50267W        W22692  37.954   7.788  13.531
50268W        W22693  21.115  15.716  13.838
50269W        W22694  32.402  25.180  13.787
50270W        W22695   8.675  31.528   0.954
50271W        W22696   8.524  41.940  14.496
50272W        W22697  16.781  35.496   3.981
50273W        W22698  43.049  20.136  13.375
50274W        W22699  39.261  27.430   3.345
50275W        W22700  24.407  12.752  10.557
50276W        W22701   1.385  36.590  13.593
50277W        W22702   6.341  11.750  12.580
50278W        W22703  37.636  22.497  12.778
50279W        W22704  12.551  37.389  10.942
50280W        W22705   6.690  26.229   0.059
50281W        W22706  12.807  21.804   2.246
50282W        W22707  13.088  24.243  13.872
50283W        W22708  35.887  36.613   2.751
50284W        W22709  28.483  44.089   1.815
50285W        W22710  41.869  18.520   2.912
50286W        W22711  18.216  19.031   0.902
50287W        W22712   1.236  20.288  10.735
50288W        W22713  44.658  30.800  10.518
50289W        W22714  28.071  11.938   1.071
50290W        W22715  33.885  10.852   1.763
50291W        W22716  10.292   3.498   4.633
50292W        W22717  25.938  26.586  14.035
50293W        W22718  11.182  38.060  12.480
50294W        W22719   3.381   6.902  13.827
50295W        W22720  33.859   0.240   2.613
50296W        W22721  20.433  26.505  11.691
50297W        W22722   6.756   6.763   3.286
50298W        W22723  38.321  19.659   1.481
50299W        W22724  11.364  32.873  10.994
50300W        W22725  33.945  14.301  11.468
50301W        W22726  39.528  44.504   2.295
50302W        W22727   1.819  25.651   2.623
50303W        W22728   4.876  41.335  13.984
50304W        W22729  20.579  21.212   0.521
50305W        W22730  40.325  39.642   0.771
50306W        W22731  42.202  38.066   1.885
50307W        W22732  26.420   6.902  12.900
50308W        W22733  42.234  37.236   0.044
50309W        W22734  22.635   0.851  10.676
50310W        W22735  19.478  26.434  11.878
50311W        W22736  11.671  26.580   3.177
50312W        W22737   8.401   6.886  11.548
50313W        W22738  41.567  17.300   2.424
50314W        W22739  37.421  30.490  13.641
50315W        W22740  35.320  25.253  13.397
50316W        W22741   9.115  35.546   0.413
50317W        W22742  26.039  32.977   4.219
50318W        W22743  37.095   9.287  13.560
50319W        W22744  22.126  11.869  11.446
50320W        W22745   5.802  34.106  10.736
50321W        W22746  42.258  12.793  10.406
50322W        W22747  24.447  20.644  14.877
50323W        W22748  11.905   2.881   3.171
50324W        W22749  21.257   0.859   0.487
50325W        W22750  19.967   2.394   1.774
50326W        W22751  28.072   9.438  10.410
50327W        W22752  42.531  18.718   2.491
50328W        W22753  43.171  29.742  14.909
50329W        W22754  14.108  11.391  13.513
50330W        W22755  20.337  19.580   0.433
50331W        W22756   6.486  11.380   4.900
50332W        W22757  14.045  10.811  13.937
50333W        W22758   8.843  30.235  14.549
50334W        W22759  13.821  16.129   0.970
50335W        W22760  44.414  15.871   2.922
50336W        W22761   7.860  23.279  10.768
50337W        W22762  34.997  38.966   3.845
50338W        W22763  14.682  16.293   3.762
50339W        W22764  11.243  42.159   2.214
50340W        W22765   8.035   1.344   2.507
50341W        W22766  20.264  29.782  14.339
50342W        W22767  32.231  43.782  14.435
50343W        W22768  31.096  17.643  12.776
50344W        W22769  18.817  28.133   2.332
50345W        W22770   7.261   7.594  11.473
50346W        W22771  14.700  36.386   4.492
50347W        W22772  18.070   3.840  13.818
50348W        W22773  29.502  44.227  11.390
50349W        W22774  11.629  37.456  14.292
50350W        W22775   6.654  34.021  14.921
50351W        W22776  39.407  17.329  11.040
50352W        W22777  31.259  35.627  10.802
50353W        W22778  44.039  22.309  11.196
50354W        W22779  14.780  28.827  11.998
50355W        W22780  30.168  17.790   3.219
50356W        W22781  28.138  39.562  12.468
50357W        W22782   3.724  14.787   2.952
50358W        W22783  13.548  22.245   2.152
50359W        W22784  11.880   6.270  10.671
50360W        W22785  39.454  12.269   4.548
50361W        W22786  17.620  41.285   2.701
50362W        W22787  35.114  30.565  14.983
50363W        W22788   9.684  36.671   2.615
50364W        W22789  18.573   1.739  13.322
50365W        W22790   6.759   3.492  11.200
50366W        W22791  23.571   7.879  11.894
50367W        W22792  29.956  15.848  10.627
50368W        W22793  25.108  23.968  12.592
50369W        W22794  44.457  15.812  13.297
50370W        W22795  30.236  13.854  14.384
50371W        W22796   9.886  11.231   3.011
50372W        W22797  37.089  44.013  14.820
50373W        W22798   8.653  25.036  13.486
50374W        W22799   0.866  44.247   0.936
50375W        W22800   1.296  30.219   3.537
50376W        W22801   9.749  28.721   1.759
50377W        W22802  44.922  30.147   1.531
50378W        W22803   8.151  10.599   0.479
50379W        W22804  43.216  22.203  11.227
50380W        W22805  14.603  38.488  12.037
50381W        W22806  34.668  18.193   3.093
50382W        W22807  17.149   2.217  14.016
50383W        W22808  38.883  44.953   1.816
50384W        W22809  25.480  38.831   2.680
50385W        W22810   1.488  29.091   4.502
50386W        W22811  24.280  16.803   3.724
50387W        W22812  31.585  16.219  11.917
50388W        W22813  19.597  24.724  14.756
50389W        W22814   8.368  12.021   4.050
50390W        W22815  16.252  21.346   3.651
50391W        W22816  35.908  29.550   2.845
50392W        W22817  38.360  32.901  10.867
50393W        W22818  27.267  20.689   3.371
50394W        W22819  40.405   1.802   3.767
50395W        W22820  20.206   6.981  11.433
50396W        W22821   5.928  11.612  11.758
50397W        W22822  24.712  28.988  11.537
50398W        W22823  16.276  19.330  13.069
50399W        W22824   4.060   9.145   2.680
50400W        W22825  32.112  14.231  10.837
50401W        W22826   6.287   0.989  13.544
50402W        W22827  44.387  21.108  12.406
50403W        W22828  13.269  40.035   1.595
50404W        W22829   0.497   2.781   3.268
50405W        W22830  35.791  43.878   2.373
50406W        W22831  19.827   0.766  13.402
50407W        W22832  32.674   4.697   0.965
50408W        W22833  11.637  38.541   0.402
50409W        W22834  39.829  22.223   0.450
50410W        W22835  10.601  37.050  14.730
50411W        W22836   8.773  41.529  11.208
50412W        W22837   8.580  41.346   0.916
50413W        W22838  30.859  43.096  12.040
50414W        W22839  18.665  19.026   4.668
50415W        W22840   8.388  13.077  12.614
50416W        W22841   3.185   1.435   2.405
50417W        W22842   0.025  18.840  11.163
50418W        W22843  13.649  31.881  12.590
50419W        W22844  30.406  29.797  12.060
50420W        W22845  22.043   1.670  12.395
50421W        W22846   7.081  25.989   3.115
50422W        W22847  33.149  10.735  12.534
50423W        W22848  15.508  29.267   3.853
50424W        W22849  35.305  16.327   0.848
50425W        W22850  12.767  36.242  11.898
50426W        W22851  16.533  20.756   4.236
50427W        W22852  28.065  18.352  14.391
50428W        W22853   9.198  21.784  12.972
50429W        W22854  34.538  21.440  11.196
50430W        W22855  38.073   2.508   2.971
50431W        W22856  28.542  21.284   0.700
50432W        W22857  16.560  29.504  10.989
50433W        W22858   4.454  28.565  12.930
50434W        W22859  26.562  42.493   0.272
50435W        W22860  10.361  22.654   3.570
50436W        W22861  10.280  41.942  13.445
50437W        W22862   4.984  23.210   3.676
50438W        W22863   7.161   8.953  12.759
50439W        W22864  19.635  32.019  13.892
50440W        W22865   5.767  12.726  13.850
50441W        W22866   6.889   2.443  13.843
50442W        W22867  19.754  30.228   3.899
50443W        W22868   7.230   9.697  13.770
50444W        W22869  28.950  32.746   4.204
50445W        W22870  16.228  13.054   4.564
50446W        W22871   1.479  32.895   0.325
50447W        W22872   6.347  11.375   4.370
50448W        W22873  19.564  28.507   1.263
50449W        W22874  17.661  14.673   1.246
50450W        W22875  41.244  34.319  11.569
50451W        W22876  34.949   2.025   2.330
50452W        W22877  32.218  41.250   1.252
50453W        W22878  40.308  43.690  13.378
50454W        W22879  23.769  38.065   2.656
50455W        W22880  41.825   8.265  14.470
50456W        W22881  36.361  38.716  13.946
50457W        W22882  16.747   9.612  14.580
50458W        W22883  21.119  20.520   1.310
50459W        W22884  35.371  11.725  13.964
50460W        W22885   0.261  27.011   2.114
50461W        W22886  15.853   0.358   3.378
50462W        W22887  32.639  22.106  14.956
50463W        W22888  18.818  43.927   4.747
50464W        W22889  11.762  35.055  14.289
50465W        W22890  23.435  28.576   2.328
50466W        W22891  15.676  27.363  13.507
50467W        W22892   3.547  21.593   0.783
50468W        W22893  15.058  29.608   2.237
50469W        W22894  22.784   1.508  11.447
50470W        W22895   5.966  25.587   1.693
50471W        W22896  13.974  35.358  12.506
50472W        W22897  36.625  28.251  12.518
50473W        W22898   6.842  14.837  13.672
50474W        W22899  16.125   6.376   3.741
50475W        W22900  14.631  24.876   2.347
50476W        W22901  21.732  10.111  11.921
50477W        W22902  17.986  20.805   3.846
50478W        W22903   5.780   5.077   2.389
50479W        W22904  13.797  27.453   1.698
50480W        W22905  35.585  16.013  12.284
50481W        W22906   3.938   5.427   0.014
50482W        W22907   3.934   8.766  14.495
50483W        W22908  18.548   0.918   2.221
50484W        W22909  42.316  43.775   4.955
50485W        W22910   3.726  23.518   4.147
50486W        W22911  32.053  16.272  12.503
50487W        W22912  27.691  36.928  14.420
50488W        W22913  11.597  39.877   4.667
50489W        W22914   2.863  10.227  12.382
50490W        W22915  37.088  36.482  12.681
50491W        W22916   0.322  25.580  11.193
50492W        W22917  30.729  13.753   3.631
50493W        W22918   0.204  15.814   1.188
50494W        W22919  27.180  33.340   2.079
50495W        W22920  24.151   4.055   2.500
50496W        W22921  26.222  44.571   3.218
50497W        W22922   2.796  16.489   2.401
50498W        W22923  25.150  13.095  12.437
50499W        W22924  25.548  26.735  11.408
50500W        W22925  22.609  12.644  11.556
50501W        W22926  20.654  18.782   3.182
50502W        W22927  40.823  12.580   0.929
50503W        W22928  44.569  13.759   0.443
50504W        W22929  20.619   4.021  12.169
50505W        W22930  23.538  29.215   4.600
50506W        W22931  25.616  34.196  13.842
50507W        W22932  21.008  15.593  10.739
50508W        W22933  33.408  44.531   2.281
50509W        W22934  19.141  15.281  10.746
50510W        W22935  22.010  16.154   1.328
50511W        W22936  42.148   0.933  10.690
50512W        W22937  10.770  43.570   0.834
50513W        W22938  14.717   9.815   0.298
50514W        W22939  14.156  34.553   0.008
50515W        W22940  43.757  12.746   4.924
50516W        W22941  32.098  30.991  13.485
50517W        W22942  23.760  17.294  12.018
50518W        W22943  20.031  40.449  10.522
50519W        W22944   3.910  37.764   4.608
50520W        W22945  15.690  28.694  12.899
50521W        W22946   7.316   6.465  13.897
50522W        W22947  36.234  37.616  10.993
50523W        W22948  16.962  36.840   1.514
50524W        W22949  10.761  37.827   2.742
50525W        W22950  33.518   4.431  12.905
50526W        W22951  10.287   5.413   2.559
50527W        W22952  21.187  23.760   3.145
50528W        W22953   2.340   2.325   0.225
50529W        W22954  29.945  25.112   3.365
50530W        W22955   9.939  22.937   2.830
50531W        W22956  21.576  28.367   2.480
50532W        W22957  34.402  34.565   2.927
50533W        W22958  39.161  39.425   3.729
50534W        W22959  12.840  24.207  11.531
50535W        W22960  12.226  35.882   1.719
50536W        W22961  40.891   4.401  12.514
50537W        W22962   5.213   1.433   4.379
50538W        W22963  24.156  36.587   2.827
50539W        W22964  16.994   5.513   3.145
50540W        W22965  35.533  39.360   0.735
50541W        W22966   0.495  44.451   1.753
50542W        W22967   3.443   8.601   0.290
50543W        W22968  43.100  28.448  14.591
50544W        W22969  27.727  16.223  13.920
50545W        W22970  32.072  39.606  12.949
50546W        W22971  25.127  42.852   4.044
50547W        W22972   8.744   6.748   3.554
50548W        W22973   4.924  25.022   2.095
50549W        W22974  12.134  44.305   4.067
50550W        W22975  27.975  32.894  12.024
50551W        W22976  32.420  24.205  12.992
50552W        W22977  25.163  23.727  12.097
50553W        W22978  28.581  30.996   3.738
50554W        W22979  25.594  44.275  11.621
50555W        W22980  20.297  26.559   2.357
50556W        W22981   8.608   5.140  14.862
50557W        W22982   0.546  33.055   4.233
50558W        W22983   3.221  44.191  12.892
50559W        W22984  18.195  31.274  10.915
50560W        W22985  12.662  11.223   2.777
50561W        W22986  35.874  16.646   1.220
50562W        W22987  21.627  44.049  12.929
50563W        W22988  40.306  15.352  13.400
50564W        W22989  32.974  14.112   4.354
50565W        W22990  44.346  28.455  10.661
50566W        W22991  41.835  29.996  14.217
50567W        W22992   9.510  28.423   2.471
50568W        W22993  30.382  28.037   1.880
50569W        W22994  22.274   4.023   1.919
50570W        W22995  12.972  28.639   1.837
50571W        W22996  19.879  31.501  14.979
50572W        W22997   4.771   8.291   0.469
50573W        W22998  15.145  12.122   4.848
50574W        W22999  39.574  33.110   1.718
50575W        W23000  11.904   9.716   2.726
50576W        W23001   9.024  42.941   1.945
50577W        W23002  25.425  32.919   3.192
50578W        W23003  28.318  12.850  14.874
50579W        W23004  20.800   6.734   1.318
50580W        W23005   6.710  27.611   0.478
50581W        W23006  26.242   5.262   2.782
50582W        W23007  38.064  31.091   0.261
50583W        W23008   2.630   4.832  10.278
50584W        W23009  19.574  15.549  10.714
50585W        W23010   2.428  13.164  12.173
50586W        W23011  37.922  20.616   4.798
50587W        W23012  44.473   8.927   4.991
50588W        W23013  18.836  39.870  14.775
50589W        W23014  18.183   2.029   1.953
50590W        W23015  15.635  26.698   2.644
50591W        W23016  14.654  12.816  10.930
50592W        W23017  38.435  20.140   4.670
50593W        W23018  20.190   6.420   2.696
50594W        W23019  12.361  12.201   1.960
50595W        W23020  44.363  11.844  14.379
50596W        W23021  30.870   5.239   3.855
50597W        W23022  17.610  23.184   3.629
50598W        W23023  41.757  20.286  11.518
50599W        W23024  33.017  15.532   4.276
50600W        W23025  26.952  16.342  12.038
50601W        W23026   8.276  29.986   0.014
50602W        W23027  26.552  32.053   4.941
50603W        W23028  34.078  10.191   2.366
50604W        W23029   5.551  16.602   1.396
50605W        W23030  25.974  40.828   4.056
50606W        W23031   1.901  42.292   2.177
50607W        W23032  43.528  31.825   2.018
50608W        W23033  27.112  19.969   3.972
50609W        W23034  25.704   2.783  10.695
50610W        W23035   2.761  10.513   4.477
50611W        W23036   1.036  30.902  11.182
50612W        W23037   9.331  44.407   0.926
50613W        W23038  14.264  15.141  13.450
50614W        W23039  28.062  42.345   4.373
50615W        W23040  39.887  15.529   2.396
50616W        W23041  43.223  37.526  11.091
50617W        W23042   8.249  17.185  11.553
50618W        W23043  11.906  18.546   0.551
50619W        W23044  25.150   6.692  11.003
50620W        W23045  25.724  23.779  11.576
50621W        W23046  19.631  33.706  13.895
50622W        W23047  16.681  12.762   2.362
50623W        W23048  33.609  10.821  11.913
50624W        W23049  14.970  39.643  13.856
50625W        W23050  34.068   8.679  12.029
50626W        W23051   3.817  10.420  12.451
50627W        W23052  40.698  31.999   4.690
50628W        W23053   1.195   3.266   2.354
50629W        W23054   7.215  16.279   3.765
50630W        W23055  38.811   7.321  12.897
50631W        W23056   9.328  32.430  14.081
50632W        W23057  33.522  20.203   4.058
50633W        W23058  33.012  41.968  11.516
50634W        W23059  40.447  11.303  13.787
50635W        W23060   0.579   8.892  12.017
50636W        W23061  23.574  19.209  12.209
50637W        W23062  41.514  33.506   1.803
50638W        W23063  22.033  19.966  13.239
50639W        W23064  24.900  14.062  11.960
50640W        W23065   7.570  35.368  12.913
50641W        W23066  28.609   0.550  12.076
50642W        W23067  28.289  15.094  13.947
50643W        W23068   9.504  43.676   2.724
50644W        W23069  21.001   9.438  10.663
50645W        W23070  40.953  43.296  10.185
50646W        W23071  15.624   6.639  10.539
50647W        W23072  33.363  39.792  10.792
50648W        W23073   0.373   3.374   2.801
50649W        W23074  34.570  30.151  12.542
50650W        W23075  14.230  16.668   3.147
50651W        W23076   4.891  27.936   4.609
50652W        W23077  35.933  17.761  14.898
50653W        W23078   4.245  43.962  12.734
50654W        W23079  13.012  11.381  12.634
50655W        W23080   4.029   6.404  11.403
50656W        W23081   1.771  43.433  10.789
50657W        W23082  24.598   3.915  13.641
50658W        W23083  16.014  23.905   2.168
50659W        W23084  12.890  17.546   0.936
50660W        W23085  14.702  36.900  11.555
50661W        W23086  34.337   3.829   1.763
50662W        W23087  21.576   3.694   1.257
50663W        W23088   2.543  24.078   0.951
50664W        W23089   3.797  19.483  11.179
50665W        W23090  16.277  36.499  13.453
50666W        W23091  37.611  29.465   4.223
50667W        W23092   6.902  13.763  14.935
50668W        W23093   2.488   3.148   1.940
50669W        W23094   8.411   3.096   3.199
50670W        W23095  19.723  34.504  13.349
50671W        W23096  10.994  43.389  11.444
50672W        W23097  31.775   4.449  11.179
50673W        W23098  15.651  40.299  12.898
50674W        W23099  34.344  30.631   2.724
50675W        W23100  35.229  10.242  10.692
50676W        W23101   1.106  16.593   0.796
50677W        W23102  22.031  31.988   1.718
50678W        W23103  29.144  41.833   0.770
50679W        W23104  40.343  24.952  12.663
50680W        W23105  16.708  40.458  11.093
50681W        W23106  40.310  33.973   0.010
50682W        W23107  25.137  43.283   1.426
50683W        W23108  36.140  34.467  14.864
50684W        W23109  33.389  15.356   2.112
50685W        W23110   5.649  42.508   3.712
50686W        W23111  10.892  27.721   0.922
50687W        W23112  36.702  32.107   2.270
50688W        W23113  36.200  41.895  11.307
50689W        W23114  28.230  20.603   2.286
50690W        W23115  38.582   9.793  12.147
50691W        W23116   3.365   4.356  10.630
50692W        W23117   5.732  27.076   4.650
50693W        W23118  32.945  18.349   4.632
50694W        W23119  24.290  18.590   3.360
50695W        W23120   9.889  26.511   3.147
50696W        W23121  19.575  32.394   3.131
50697W        W23122  24.527  22.664  12.246
50698W        W23123  16.009  13.167  13.582
50699W        W23124  17.899   5.244   1.503
50700W        W23125   6.780  39.942  12.757
50701W        W23126  27.920  40.895   1.453
50702W        W23127   0.485  22.759  11.005
50703W        W23128  38.020  24.004   3.332
50704W        W23129  32.574  16.248   1.123
50705W        W23130   7.271  38.088   3.877
50706W        W23131  39.058   7.790   1.394
50707W        W23132  17.275  22.092   1.392
50708W        W23133  38.135  17.258   3.835
50709W        W23134  33.629  40.490  14.184
50710W        W23135   6.863  38.510   0.480
50711W        W23136   4.323  18.943  10.816
50712W        W23137  40.395  33.417   2.570
50713W        W23138  13.827   5.646   1.737
50714W        W23139  40.352  12.922   0.907
50715W        W23140  44.235  26.548   2.521
50716W        W23141  43.347  32.562  13.841
50717W        W23142   7.197  42.983  14.517
50718W        W23143  35.100  35.400   2.803
50719W        W23144  24.125  11.792   1.223
50720W        W23145   8.210  35.588  12.124
50721W        W23146  23.479   6.792   1.684
50722W        W23147  33.368  11.336   4.604
50723W        W23148  27.179  40.363  13.431
50724W        W23149  19.380   0.382  11.063
50725W        W23150  36.100  11.826   0.885
50726W        W23151   5.407  28.072  10.643
50727W        W23152  13.819  10.462   0.894
50728W        W23153  21.285   4.139  13.210
50729W        W23154  34.008  20.007   3.371
50730W        W23155  22.235  22.401  10.994
50731W        W23156  38.511  43.000  10.548
50732W        W23157  15.795   0.752   0.608
50733W        W23158  26.027  35.108   1.015
50734W        W23159  39.824  10.348   2.930
50735W        W23160  23.603  33.960   2.772
50736W        W23161  20.324  13.445   2.415
50737W        W23162  39.950   1.355  12.467
50738W        W23163  30.433  28.642   0.775
50739W        W23164  36.809  15.057   1.302
50740W        W23165   9.721  39.276   3.875
50741W        W23166  17.149  42.761   3.058
50742W        W23167   9.170   2.461  12.460
50743W        W23168  25.133  17.061  13.950
50744W        W23169  16.534  12.742  14.700
50745W        W23170  34.189  43.898   4.136
50746W        W23171  24.085  22.332  14.106
50747W        W23172  22.812   4.884  14.825
50748W        W23173  16.088  31.643   0.818
50749W        W23174   5.308   2.614  11.051
50750W        W23175  23.804  14.280   2.337
50751W        W23176  18.262   4.378  10.627
50752W        W23177  40.966   6.386   0.920
50753W        W23178  18.625   9.869   3.032
50754W        W23179  40.755  23.586  14.408
50755W        W23180  33.595   7.408   4.093
50756W        W23181   5.659   2.332   3.903
50757W        W23182   7.282  43.355   1.274
50758W        W23183   0.087  42.869   4.395
50759W        W23184  32.721   7.834  13.986
50760W        W23185  39.436  20.725  13.125
50761W        W23186   2.800  22.578  14.928
50762W        W23187  41.903  26.443   1.869
50763W        W23188   4.795  42.277   4.218
50764W        W23189  41.240  43.472   0.941
50765W        W23190  32.581  43.922  12.472
50766W        W23191  10.154  32.442   4.219
50767W        W23192  25.682  31.332   2.308
50768W        W23193   2.392  33.228   4.229
50769W        W23194  23.006  11.473  14.625
50770W        W23195  36.448  43.115   0.380
50771W        W23196   0.428   0.033  10.773
50772W        W23197  29.145  39.113  14.491
50773W        W23198  23.757  33.226  13.427
50774W        W23199  17.171  33.025  10.967
50775W        W23200  30.903  23.260   3.899
50776W        W23201   1.191  41.552  13.594
50777W        W23202  38.116  17.068  14.807
50778W        W23203  25.521  13.819   3.578
50779W        W23204  13.696  21.538  12.329
50780W        W23205  13.149   1.735  10.607
50781W        W23206  20.198  21.291   2.643
50782W        W23207   9.084  27.434   3.173
50783W        W23208   1.282   9.770  14.354
50784W        W23209  20.850  40.715  12.557
50785W        W23210   3.186   3.831  12.166
50786W        W23211  39.031  14.433   2.992
50787W        W23212   3.237  33.148  14.792
50788W        W23213   1.449  13.210  10.941
50789W        W23214  30.701  26.227  10.577
50790W        W23215   3.081  14.624   3.329
50791W        W23216  32.547   4.837  11.439
50792W        W23217  32.060  14.427   2.208
50793W        W23218  26.637  31.691   9.729
50794W        W23219   9.248  16.795   4.227
50795W        W23220   0.701  21.693   3.677
50796W        W23221  26.705  12.364  14.798
50797W        W23222   3.007  36.093  11.157
50798W        W23223  11.179   0.339  10.723
50799W        W23224   0.159  30.709   3.713
50800W        W23225  27.186  42.458   4.082
50801W        W23226  25.704  24.515   3.379
50802W        W23227  14.067  25.618   4.931
50803W        W23228   8.320  41.035  13.782
50804W        W23229  30.993  36.109  13.553
50805W        W23230  37.810  33.120   2.365
50806W        W23231  12.286  32.550  13.464
50807W        W23232  41.283  12.125   3.725
50808W        W23233  25.006   7.841   1.459
50809W        W23234  23.226  37.100   1.423
50810W        W23235  16.502  12.606   3.903
50811W        W23236  31.920   3.532  12.231
50812W        W23237  40.288  18.562  11.539
50813W        W23238   0.046  24.135  14.395
50814W        W23239  19.676  16.051  13.541
50815W        W23240  33.044  31.897  11.927
50816W        W23241  24.569  28.957   4.099
50817W        W23242   1.376  38.788  13.011
50818W        W23243  33.475  12.445  12.808
50819W        W23244   9.200  36.463   1.957
50820W        W23245  27.000  33.614  10.641
50821W        W23246   8.323  33.618   3.590
50822W        W23247   2.027  43.282   3.337
50823W        W23248  33.833  36.299  13.366
50824W        W23249  40.315  14.310   4.309
50825W        W23250   1.745  22.128   0.825
50826W        W23251  39.243  14.695  14.732
50827W        W23252  36.670  30.730  14.078
50828W        W23253  23.030  29.550   1.448
50829W        W23254  31.603  21.772  11.650
50830W        W23255  17.189  15.042   0.387
50831W        W23256  40.549  11.807   3.303
50832W        W23257  43.256   9.388   4.892
50833W        W23258  34.847  42.978  13.842
50834W        W23259  24.164   7.305   4.087
50835W        W23260   7.660  34.210   3.367
50836W        W23261  13.517  42.922  10.697
50837W        W23262  14.641  24.475   4.186
50838W        W23263   3.968  40.343  13.921
50839W        W23264  31.114  35.175  11.050
50840W        W23265   1.364  13.404  11.404
50841W        W23266  13.618  36.603  13.902
50842W        W23267  13.263  37.860   1.436
50843W        W23268   5.690   0.616   4.520
50844W        W23269   8.163   8.391  13.860
50845W        W23270  15.084  16.960  14.579
50846W        W23271  37.521  27.708  12.420
50847W        W23272  20.038  42.214  11.091
50848W        W23273  32.823  26.506   2.755
50849W        W23274  29.987  26.396  13.974
50850W        W23275  18.477  10.413   4.784
50851W        W23276  35.040  13.174   0.937
50852W        W23277  23.840  25.960   3.231
50853W        W23278  40.012   0.147   5.495
50854W        W23279  32.229   2.496   3.996
50855W        W23280  31.522  26.134   3.352
50856W        W23281   2.727  14.943  10.800
50857W        W23282  34.108   3.639   3.802
50858W        W23283   8.406   6.295   3.094
50859W        W23284  24.290  35.622   3.740
50860W        W23285  19.003  37.129  12.543
50861W        W23286  42.375  44.914   0.847
50862W        W23287   2.648  17.714  12.078
50863W        W23288  39.352  34.817  11.031
50864W        W23289  18.566  28.175  13.455
50865W        W23290  36.881  38.349  11.355
50866W        W23291  30.443  10.034   4.957
50867W        W23292  12.150  35.692   0.729
50868W        W23293  19.735  14.371   2.869
50869W        W23294   6.563  13.820   0.334
50870W        W23295   0.391  29.171   1.914
50871W        W23296  24.690  10.314  11.988
50872W        W23297  33.327  42.237  13.486
50873W        W23298  15.061  15.699  10.660
50874W        W23299  29.700   1.387  13.140
50875W        W23300   0.914   5.462   0.961
50876W        W23301  31.358  13.675   3.114
50877W        W23302  39.760  30.396   4.373
50878W        W23303   7.746  13.829   0.661
50879W        W23304  34.342  13.533  14.609
50880W        W23305  35.346   8.664  13.839
50881W        W23306  38.871   4.685   3.773
50882W        W23307   4.244  23.294  11.100
50883W        W23308  31.194  39.347  12.792
50884W        W23309  10.657  42.953  10.545
50885W        W23310  41.963   4.680   0.412
50886W        W23311  33.350  12.891  12.031
50887W        W23312  15.318  42.111   3.513
50888W        W23313  29.493   3.323  11.648
50889W        W23314  34.413  42.258   1.838
50890W        W23315  23.542  22.633  12.145
50891W        W23316  33.393  32.912   4.818
50892W        W23317  21.075  12.162  13.853
50893W        W23318  29.203  37.329   2.818
50894W        W23319  33.169  43.811   1.668
50895W        W23320  11.672  30.580  14.041
50896W        W23321  26.698  39.197  11.280
50897W        W23322   2.152  10.875   2.697
50898W        W23323  24.176  38.458  13.469
50899W        W23324  31.844   6.690  14.838
50900W        W23325  17.159  19.678   2.305
50901W        W23326  30.147  11.562  10.934
50902W        W23327   1.196  14.185   3.069
50903W        W23328  21.279  24.169   2.831
50904W        W23329  21.058  34.409   3.464
50905W        W23330  21.283   6.311  12.450
50906W        W23331   0.880  14.020  12.472
50907W        W23332  21.354  18.306  11.116
50908W        W23333  17.290  36.455   1.637
50909W        W23334  31.638  10.185   3.634
50910W        W23335  14.417  21.166   1.264
50911W        W23336   3.312  10.239  10.629
50912W        W23337  28.352  23.502   4.356
50913W        W23338  21.958   1.247  14.518
50914W        W23339  31.840  19.331   0.026
50915W        W23340   2.626  16.810   2.788
50916W        W23341  10.873   4.784  14.245
50917W        W23342   5.450  44.773  11.870
50918W        W23343  36.652   0.933   3.397
50919W        W23344  16.725   3.471  14.783
50920W        W23345  37.233  25.708   1.766
50921W        W23346  31.488  41.234  13.068
50922W        W23347  14.323  29.640  12.403
50923W        W23348   1.253  37.012   3.240
50924W        W23349  41.343  21.621   0.431
50925W        W23350   0.475  37.273  12.911
50926W        W23351  30.067  13.028   1.732
50927W        W23352  29.915  32.166   9.813
50928W        W23353  44.925   0.940  10.682
50929W        W23354  40.917  28.653   3.423
50930W        W23355   9.121  37.402   0.336
50931W        W23356  21.959  26.549   1.645
50932W        W23357  13.862  14.760  11.120
50933W        W23358  36.911  10.232  12.585
50934W        W23359  13.096  23.252   4.162
50935W        W23360  20.589  16.382  11.127
50936W        W23361   4.116  17.606   0.875
50937W        W23362  11.297  11.127   2.930
50938W        W23363  39.852   6.895   4.129
50939W        W23364  22.736   6.266  14.327
50940W        W23365  35.431  14.370   1.458
50941W        W23366  31.056   7.876   0.655
50942W        W23367  14.945   7.673  12.366
50943W        W23368   2.809  19.706  12.410
50944W        W23369  29.537  11.777   3.150
50945W        W23370  21.111  41.301  11.564
50946W        W23371  37.419  30.195   3.994
50947W        W23372   0.366  35.086  12.580
50948W        W23373  43.970  30.179   3.822
50949W        W23374  36.837   4.235  13.702
50950W        W23375  31.355  24.600  14.448
50951W        W23376   2.656  39.527  11.040
50952W        W23377   8.179  13.068   3.292
50953W        W23378  26.069   5.785   1.225
50954W        W23379   2.732  40.371   4.131
50955W        W23380  26.900  30.365   5.285
50956W        W23381  43.938   1.540  12.546
50957W        W23382  11.243  14.397  14.254
50958W        W23383  11.553  13.763   3.405
50959W        W23384  38.877   3.503  13.584
50960W        W23385  23.759  17.825  12.061
50961W        W23386  31.435  17.606  14.816
50962W        W23387  29.421  33.657   4.464
50963W        W23388  43.758  17.220   3.317
50964W        W23389  39.427   9.348   4.550
50965W        W23390   2.302  26.588  14.369
50966W        W23391  27.439  41.297  11.675
50967W        W23392  32.064  39.536   1.949
50968W        W23393  22.330  41.373   2.741
50969W        W23394   2.751  42.377   1.638
50970W        W23395  17.103  27.175   1.336
50971W        W23396   1.698  12.194  13.203
50972W        W23397  36.429  35.147   3.459
50973W        W23398  19.532  37.242   2.709
50974W        W23399  22.651  27.697   4.913
50975W        W23400   5.909  27.266   2.189
50976W        W23401  23.696  31.653   4.314
50977W        W23402   3.293  27.647   3.551
50978W        W23403   0.134  15.014  11.927
50979W        W23404  25.661  26.506   1.192
50980W        W23405  42.871  37.327   1.957
50981W        W23406  42.008  19.621   1.696
50982W        W23407  34.860   7.761  11.891
50983W        W23408  27.199  11.090   0.870
50984W        W23409  14.337  36.755  11.216
50985W        W23410   7.315  28.526  13.487
50986W        W23411  22.265   1.988   1.876
50987W        W23412  29.965   9.255   0.983
50988W        W23413  14.059  20.473  13.541
50989W        W23414  25.732  14.097  14.087
50990W        W23415  20.788  30.596  10.670
50991W        W23416   3.480  17.126   4.199
50992W        W23417  41.393  24.999  12.592
50993W        W23418  25.414  23.001  14.014
50994W        W23419  27.040  37.416   4.258
50995W        W23420  28.734  13.076   3.845
50996W        W23421   4.333   6.205   2.681
50997W        W23422  19.834  36.841   1.129
50998W        W23423  44.285  18.515  11.625
50999W        W23424   3.778  36.441   4.288
51000W        W23425   0.271  36.999  11.608
51001W        W23426  36.103   4.963   0.720
51002W        W23427   3.882   6.988   2.885
51003W        W23428  15.095   7.622   1.834
51004W        W23429  30.723  29.591  13.794
51005W        W23430  31.535  44.785  12.007
51006W        W23431   7.759  32.586   2.806
51007W        W23432   8.629  13.661   0.962
51008W        W23433   7.714   1.194  11.663
51009W        W23434  29.450  42.413   4.746
51010W        W23435  17.987  20.860  12.484
51011W        W23436  11.296  27.671  13.274
51012W        W23437   9.106  19.202   0.076
51013W        W23438  28.614  11.653   1.181
51014W        W23439  43.183  14.278   2.697
51015W        W23440  23.637  39.162   1.371
51016W        W23441  27.393  43.260  12.451
51017W        W23442  22.531  31.911   5.094
51018W        W23443   0.914  21.518   0.932
51019W        W23444  42.290  43.463   1.438
51020W        W23445  17.049  33.189   0.585
51021W        W23446  21.156  24.572  12.324
51022W        W23447   5.323  12.242  13.286
51023W        W23448  25.863  20.763   1.279
51024W        W23449  17.082  10.307   2.266
51025W        W23450  40.970   4.391  10.669
51026W        W23451  23.749  36.518   4.639
51027W        W23452  27.592   7.405   0.141
51028W        W23453   3.405   3.976   1.829
51029W        W23454  40.806   4.244  13.935
51030W        W23455  12.886  43.097  13.902
51031W        W23456  31.058  32.100  14.668
51032W        W23457   8.851  27.624   2.118
51033W        W23458  33.455  14.721  12.943
51034W        W23459  20.111   9.342   2.400
51035W        W23460   1.429  13.157  14.691
51036W        W23461   5.377  18.007  10.725
51037W        W23462  44.001  40.425  11.138
51038W        W23463  37.826  19.063   2.327
51039W        W23464   9.216   9.118   4.193
51040W        W23465  39.514  15.722  14.731
51041W        W23466  36.470   5.253  12.649
51042W        W23467   9.201  14.308  13.518
51043W        W23468  38.102  17.629  10.671
51044W        W23469  30.122   2.825   1.804
51045W        W23470  43.433  31.379   2.236
51046W        W23471  36.097   1.542  12.594
51047W        W23472  30.621  27.387   2.635
51048W        W23473   5.749  35.130   3.860
51049W        W23474   2.500  33.382   1.907
51050W        W23475  18.759  27.492   1.876
51051W        W23476   8.571  15.272  12.361
51052W        W23477  17.968  31.098   2.345
51053W        W23478   1.559  36.920  11.638
51054W        W23479  26.928  36.930   2.505
51055W        W23480  30.058   3.386   3.335
51056W        W23481  39.298  43.089  11.412
51057W        W23482   7.286   6.907  10.292
51058W        W23483   2.179  21.114  12.082
51059W        W23484   9.329  28.487   1.999
51060W        W23485  17.062  22.050  12.322
51061W        W23486  34.471  34.714   0.798
51062W        W23487   9.771  11.737   3.324
51063W        W23488  31.511  32.178   0.405
51064W        W23489  33.509   8.343  11.097
51065W        W23490   3.115  36.731   0.860
51066W        W23491  26.204   6.750  14.808
51067W        W23492  38.918  29.873  11.664
51068W        W23493  42.076  37.063  12.924
51069W        W23494  33.013  19.490   3.734
51070W        W23495   1.674  34.426  11.994
51071W        W23496   0.944  21.009   0.917
51072W        W23497  10.514  13.925  10.209
51073W        W23498  32.705  35.142   0.466
51074W        W23499  42.505  17.635   4.811
51075W        W23500  14.634  41.559   3.638
51076W        W23501  35.859  10.445   0.323
51077W        W23502  19.587  18.224  13.866
51078W        W23503  34.683  42.845   4.070
51079W        W23504  11.251  42.637   0.277
51080W        W23505  36.036  16.788  14.808
51081W        W23506  35.456  24.284  13.509
51082W        W23507  25.039  20.842   2.377
51083W        W23508  43.407   1.455  10.820
51084W        W23509  44.072  20.705  13.950
51085W        W23510   8.473  28.461   2.349
51086W        W23511  26.276  34.976  12.522
51087W        W23512   5.648  14.373   2.861
51088W        W23513  40.376  34.048   0.919
51089W        W23514  30.129   7.447   4.887
51090W        W23515  13.521   9.468   0.900
51091W        W23516  10.760  23.007  13.304
51092W        W23517   1.403  23.257   2.778
51093W        W23518  38.878   0.801   3.243
51094W        W23519  41.417   0.301   3.935
51095W        W23520   6.978  21.703   0.784
51096W        W23521  26.064  33.903  13.845
51097W        W23522  21.494   8.290  14.436
51098W        W23523  21.481  24.558   0.305
51099W        W23524   6.380  29.176  12.838
51100W        W23525  41.256  11.307  11.625
51101W        W23526  27.710  39.878  12.878
51102W        W23527   9.668  11.289   0.059
51103W        W23528  42.876   8.289  11.694
51104W        W23529  22.274   5.420  13.407
51105W        W23530  16.253   2.032   0.283
51106W        W23531  30.827  44.967  13.933
51107W        W23532  42.437   2.906  13.503
51108W        W23533  37.104   7.454   0.960
51109W        W23534  41.029  36.586   0.430
51110W        W23535   1.350  15.423  11.590
51111W        W23536  12.607  22.082   1.852
51112W        W23537   7.272  28.184  13.019
51113W        W23538   4.644   3.028  14.945
51114W        W23539  27.161  20.000  11.227
51115W        W23540  28.548  34.493   2.210
51116W        W23541   1.295  29.683   1.819
51117W        W23542  31.837   6.408   4.727
51118W        W23543  32.972  18.035   4.231
51119W        W23544  16.095   6.149  13.738
51120W        W23545  28.538  24.510   1.927
51121W        W23546  34.927  35.670   3.671
51122W        W23547   1.146  27.914  14.421
51123W        W23548  41.558  30.871   2.842
51124W        W23549  36.039  30.074   4.156
51125W        W23550  35.561   3.831  14.001
51126W        W23551   6.493  36.388   2.184
51127W        W23552   6.858  24.460   4.129
51128W        W23553  19.634  19.758  11.394
51129W        W23554   5.929  13.365   2.452
51130W        W23555   1.069   3.246   3.589
51131W        W23556  27.168  44.904  12.917
51132W        W23557  20.498  22.116   1.197
51133W        W23558  22.130  25.691  13.565
51134W        W23559  29.985  26.243   4.751
51135W        W23560  13.085   2.829  13.502
51136W        W23561   6.295  14.780   3.325
51137W        W23562  21.072  24.958   1.416
51138W        W23563  38.607  11.662  13.826
51139W        W23564  35.639   9.814   2.162
51140W        W23565  30.414  15.911  14.037
51141W        W23566  25.133  39.983   1.494
51142W        W23567   1.997   3.303  13.185
51143W        W23568  42.052  11.553  13.225
51144W        W23569  35.079  24.604   2.270
51145W        W23570  44.455   5.481   3.589
51146W        W23571   3.910  35.901  13.469
51147W        W23572  11.053  17.914   4.649
51148W        W23573  40.208  38.039   1.297
51149W        W23574   6.838   0.771   0.228
51150W        W23575  13.864  41.395  11.486
51151W        W23576   8.618  39.970  12.063
51152W        W23577  11.388  17.474  11.141
51153W        W23578  37.501  25.190  14.007
51154W        W23579  20.113   0.934   3.092
51155W        W23580  15.849   3.228   1.238
51156W        W23581  22.438  34.926  10.094
51157W        W23582  32.954   1.500   0.025
51158W        W23583  17.784  32.699   9.657
51159W        W23584  41.870  20.802   0.317
51160W        W23585   9.132  11.403   1.895
51161W        W23586  25.159   8.922   0.944
51162W        W23587  38.301   1.595   3.542
51163W        W23588  39.904   0.331   3.665
51164W        W23589  26.594  13.324  11.476
51165W        W23590   7.345  35.452  10.697
51166W        W23591  23.116  41.370   3.308
51167W        W23592  34.028  34.724  10.587
51168W        W23593   4.689  24.439   0.475
51169W        W23594   7.165  19.571  10.413
51170W        W23595   0.474  38.019   2.205
51171W        W23596   1.663  28.609  12.925
51172W        W23597  12.810  36.527  14.465
51173W        W23598  12.251  31.535  14.290
51174W        W23599  13.733  23.102  14.590
51175W        W23600  32.378  29.449  13.582
51176W        W23601  37.467  12.216   4.627
51177W        W23602  17.312  21.564   1.266
51178W        W23603  10.868  16.621   1.807
51179W        W23604  13.035  44.358  11.541
51180W        W23605  26.624   0.925   1.453
51181W        W23606   0.957  30.091  14.959
51182W        W23607   0.233  34.301   1.199
51183W        W23608  17.624  33.618  13.234
51184W        W23609  12.815   8.327  12.531
51185W        W23610   2.954  19.028   0.789
51186W        W23611  16.707   9.619   2.228
51187W        W23612   1.785  23.152   4.309
51188W        W23613  30.260  41.292   1.347
51189W        W23614  15.052  37.420  12.598
51190W        W23615  26.077  42.832   0.667
51191W        W23616   4.969  31.207   2.334
51192W        W23617   4.936  44.727  11.713
51193W        W23618   9.375  13.808   0.245
51194W        W23619  23.755  16.736   2.946
51195W        W23620  21.827  20.039  14.337
51196W        W23621  16.819  33.418   2.230
51197W        W23622   8.911  33.371   4.595
51198W        W23623  31.910  18.802   4.682
51199W        W23624  21.053   2.075   4.276
51200W        W23625  40.549   5.949  11.208
51201W        W23626  36.060  15.132   2.095
51202W        W23627  25.821   3.922  12.106
51203W        W23628   6.184  17.149  12.945
51204W        W23629   2.335   1.880   4.926
51205W        W23630  39.280  20.590  13.978
51206W        W23631  37.977  36.583   0.351
51207W        W23632  41.980  18.542   3.684
51208W        W23633  29.099  30.906   3.775
51209W        W23634  37.962  27.255   3.858
51210W        W23635  29.945  21.255   0.805
51211W        W23636  16.798   0.533  10.250
51212W        W23637  14.987  25.048  14.785
51213W        W23638  32.533  14.655  11.542
51214W        W23639   7.825  14.836   1.723
51215W        W23640  12.332  22.454  10.801
51216W        W23641  21.242  24.266  13.620
51217W        W23642   4.946  42.236   3.205
51218W        W23643  34.597  39.447  14.342
51219W        W23644  35.054  25.442  11.234
51220W        W23645  16.228   9.344   0.974
51221W        W23646  38.341  40.819   0.224
51222W        W23647  11.788  16.076   1.553
51223W        W23648  12.252  44.435   0.765
51224W        W23649  15.652  41.900   4.439
51225W        W23650   8.866  35.165   3.163
51226W        W23651  33.692  30.921  12.561
51227W        W23652  25.410   6.914  13.856
51228W        W23653  10.779  34.107   2.359
51229W        W23654  38.912  37.844  13.557
51230W        W23655  44.265  34.859  13.050
51231W        W23656  18.338  43.945  12.565
51232W        W23657  44.304  19.010  13.436
51233W        W23658  19.184   4.093  11.645
51234W        W23659  37.840  26.773  11.757
51235W        W23660  39.151  31.231   0.335
51236W        W23661  11.802  22.629  12.993
51237W        W23662  36.445  14.086  11.111
51238W        W23663  28.672   1.238   3.599
51239W        W23664  16.885   7.771   2.953
51240W        W23665   7.357   0.823  11.715
51241W        W23666  12.818  30.566  12.084
51242W        W23667  42.853  30.202   1.837
51243W        W23668  38.341  33.148   2.275
51244W        W23669  23.970   8.553  14.270
51245W        W23670  27.656   8.116   2.136
51246W        W23671   0.753  24.573   3.526
51247W        W23672  11.788  21.668  11.075
51248W        W23673  22.088  18.213  12.463
51249W        W23674  40.572   5.319   1.909
51250W        W23675  28.190  17.728   1.229
51251W        W23676  25.200  25.566   1.937
51252W        W23677  13.610  17.066   1.849
51253W        W23678  44.870  38.319   0.778
51254W        W23679   8.185  44.460  13.131
51255W        W23680   7.072  42.873   1.263
51256W        W23681  38.976   1.614   0.230
51257W        W23682  20.724  20.940   5.264
51258W        W23683  31.990   9.964  13.093
51259W        W23684  30.189   5.753   2.423
51260W        W23685  42.904  41.331  12.409
51261W        W23686   3.404  26.173   3.223
51262W        W23687  41.135   8.779   4.669
51263W        W23688  12.884   9.045   0.381
51264W        W23689  21.604  36.290   1.323
51265W        W23690  23.764  12.606  14.869
51266W        W23691   0.364  39.888   1.766
51267W        W23692  44.755  31.901  14.628
51268W        W23693  44.545   2.442  12.403
51269W        W23694  36.012  25.832   5.313
51270W        W23695   5.796  21.060   0.876
51271W        W23696  23.923  12.777  10.401
51272W        W23697  44.447  40.556   4.980
51273W        W23698  14.833  19.220  11.974
51274W        W23699  24.766  43.902   0.672
51275W        W23700  28.943  38.116  10.648
51276W        W23701  23.921  22.631   4.280
51277W        W23702  14.025  23.537  11.958
51278W        W23703  33.497  13.297  10.763
51279W        W23704  16.706  40.261   3.244
51280W        W23705  34.206  11.345   0.362
51281W        W23706  13.227  23.483  13.514
51282W        W23707   3.846  21.847  12.492
51283W        W23708  43.832  16.681  11.889
51284W        W23709  44.733  19.288  11.168
51285W        W23710   7.476  30.519   3.221
51286W        W23711  38.578  17.266   2.468
51287W        W23712  32.163   9.453  14.893
51288W        W23713  17.970   3.746   4.602
51289W        W23714  35.561   6.386   4.290
51290W        W23715  43.701  16.709  12.993
51291W        W23716  25.350  34.273   2.473
51292W        W23717  14.559   9.903   3.570
51293W        W23718  26.775  41.528   1.509
51294W        W23719  32.497  36.053   1.891
51295W        W23720  21.639  13.341   0.347
51296W        W23721   0.851  16.509  14.234
51297W        W23722  22.649  14.069   1.710
51298W        W23723  41.838  26.457  14.166
51299W        W23724  31.373  15.298  11.039
51300W        W23725  12.281  33.792   3.948
51301W        W23726  23.207  28.419  11.413
51302W        W23727  44.801  30.242  11.536
51303W        W23728  12.666   8.477   2.317
51304W        W23729  28.680  36.694   2.279
51305W        W23730   2.715   9.276  14.907
51306W        W23731  31.864  25.335   4.698
51307W        W23732  15.669  27.054   1.028
51308W        W23733  26.153  24.540  10.776
51309W        W23734  35.998   5.939  11.132
51310W        W23735  15.737  37.099  10.717
51311W        W23736  31.331  37.327   1.944
51312W        W23737  41.951  18.244  14.586
51313W        W23738  23.715  28.481   3.673
51314W        W23739  15.046  40.013   1.484
51315W        W23740  38.989   7.712  12.615
51316W        W23741   8.875  33.451  11.550
51317W        W23742  42.730  19.170   2.683
51318W        W23743  16.780   6.890   0.318
51319W        W23744  10.267  27.570  12.052
51320W        W23745   8.646  24.538  13.981
51321W        W23746  40.572  37.536  12.585
51322W        W23747   4.682  39.814   4.478
51323W        W23748   6.393  13.086  14.941
51324W        W23749  25.256  30.307   0.748
51325W        W23750   1.432  44.309   2.414
51326W        W23751  19.290   2.271  11.645
51327W        W23752  13.960  31.666  11.308
51328W        W23753   4.510  33.464   3.193
51329W        W23754   9.941  28.636  11.089
51330W        W23755  32.345   9.038  10.473
51331W        W23756  44.231  16.338   2.244
51332W        W23757  24.079  40.652   1.848
51333W        W23758  39.128  39.399   1.615
51334W        W23759  42.346  35.828  11.003
51335W        W23760  26.765  32.710  14.883
51336W        W23761  21.209  20.468  11.239
51337W        W23762  11.401  22.100   2.819
51338W        W23763  33.958   9.874  10.445
51339W        W23764  41.263  25.617   0.941
51340W        W23765  40.864  16.446  11.612
51341W        W23766  32.394  20.254  10.984
51342W        W23767   1.483   0.321  10.642
51343W        W23768  25.795   5.276  11.088
51344W        W23769  33.501  38.429  12.932
51345W        W23770  25.611   2.442   0.813
51346W        W23771   8.663  38.057  14.637
51347W        W23772   9.884   3.018  10.478
51348W        W23773   0.369  23.199   1.710
51349W        W23774  23.456  33.922   4.162
51350W        W23775   7.356   0.417   2.616
51351W        W23776  16.313  19.671  13.451
51352W        W23777   7.649   4.275  13.680
51353W        W23778  28.961  36.607  11.591
51354W        W23779  18.213  44.801  14.888
51355W        W23780  26.732  15.130   3.723
51356W        W23781  19.636  37.832  12.584
51357W        W23782  28.513   0.048   0.241
51358W        W23783  43.713  15.802  11.177
51359W        W23784  43.398  42.723   3.652
51360W        W23785  17.615  36.505  11.548
51361W        W23786  20.234  15.990  11.211
51362W        W23787  38.184  40.262  10.595
51363W        W23788  26.825  16.851   3.225
51364W        W23789  21.546  12.867  11.132
51365W        W23790  23.168  12.097  12.097
51366W        W23791  17.169  13.044   0.384
51367W        W23792   1.034  10.706   0.426
51368W        W23793   1.762   7.169  12.587
51369W        W23794  16.544  20.209   0.255
51370W        W23795  26.796  32.473   2.795
51371W        W23796  14.142  28.308   4.191
51372W        W23797  20.548  36.412  11.537
51373W        W23798  37.183   1.812   0.962
51374W        W23799  35.667  28.682   1.976
51375W        W23800  35.931   0.504  11.644
51376W        W23801  38.898  24.050   3.327
51377W        W23802  28.477  16.654  14.343
51378W        W23803  12.069  40.590   4.819
51379W        W23804   1.067  31.884  12.433
51380W        W23805  36.958  23.114  12.403
51381W        W23806  42.353  10.059  11.500
51382W        W23807  11.539  16.594  10.689
51383W        W23808   1.995   1.390  13.394
51384W        W23809  30.706  10.069   3.742
51385W        W23810  41.416  30.832   4.569
51386W        W23811  37.118  22.572  10.178
51387W        W23812   0.265  44.510  14.803
51388W        W23813  13.742   6.190   0.836
51389W        W23814  26.170  24.636   1.828
51390W        W23815  12.885  31.438  11.968
51391W        W23816   4.257  25.880   1.106
51392W        W23817  34.139  10.828   3.354
51393W        W23818   0.344  13.546   0.709
51394W        W23819  13.263  35.806  13.769
51395W        W23820  21.024  31.767   0.910
51396W        W23821  22.480  21.967   4.199
51397W        W23822  16.367  28.367   4.830
51398W        W23823  10.775  17.779  14.786
51399W        W23824   7.913  44.164  11.050
51400W        W23825  12.517  37.962   2.259
51401W        W23826  31.424  22.249   3.732
51402W        W23827  18.793  25.629   4.080
51403W        W23828  42.398  17.837   2.812
51404W        W23829  42.748  37.970   1.750
51405W        W23830  25.009  42.514  14.375
51406W        W23831  40.028   1.764   1.186
51407W        W23832  25.032  27.565   1.033
51408W        W23833  29.875  43.086   1.422
51409W        W23834  43.333  16.580   1.427
51410W        W23835  36.563   8.009   3.582
51411W        W23836  15.120  22.788  12.148
51412W        W23837  31.926  30.620   3.665
51413W        W23838  15.272   8.695  13.533
51414W        W23839  14.756   9.464   1.942
51415W        W23840  35.099  12.665   2.426
51416W        W23841  20.244  20.712   1.295
51417W        W23842  40.806  21.620   1.961
51418W        W23843  38.466  19.146  14.467
51419W        W23844  37.304  10.668   4.521
51420W        W23845  18.114  10.363   1.167
51421W        W23846  31.042  19.282   4.620
51422W        W23847  36.818  23.711   0.762
51423W        W23848  18.981  44.941   3.667
51424W        W23849  24.085  29.552   4.538
51425W        W23850  24.604  31.303   0.524
51426W        W23851  16.579  13.473   1.775
51427W        W23852   8.746  16.250  11.994
51428W        W23853  13.902  39.364  14.259
51429W        W23854  31.113   5.048   0.023
51430W        W23855  34.428  18.207  11.560
51431W        W23856  17.119  25.978   1.031
51432W        W23857  27.687   0.175  10.624
51433W        W23858   1.760  31.753  11.765
51434W        W23859   6.711  36.310  14.320
51435W        W23860  39.428  30.832   1.683
51436W        W23861  13.610  27.342   3.629
51437W        W23862  34.920  19.146   1.913
51438W        W23863  42.354  29.865   1.469
51439W        W23864  26.602  27.399  14.887
51440W        W23865  11.271  38.946   1.760
51441W        W23866  21.215   7.829  10.372
51442W        W23867  39.315  38.017   4.542
51443W        W23868  31.341  43.979   2.895
51444W        W23869   0.965  15.241   2.780
51445W        W23870  24.039  29.176   2.846
51446W        W23871  36.584  24.671  11.833
51447W        W23872   1.873   2.470   3.386
51448W        W23873  28.401  33.527  13.891
51449W        W23874  28.350   3.957   3.066
51450W        W23875  17.514  19.999   0.431
51451W        W23876  14.712  32.871  12.044
51452W        W23877  26.830  37.865   1.835
51453W        W23878  15.581  35.420   4.397
51454W        W23879   5.257  40.116   1.004
51455W        W23880  18.049  39.593  12.300
51456W        W23881  35.657  31.462  12.914
51457W        W23882   9.142  36.459   0.454
51458W        W23883  37.588  19.653  12.092
51459W        W23884  37.376  36.070   1.326
51460W        W23885   2.945  14.147   3.059
51461W        W23886  27.636  42.309  12.405
51462W        W23887  36.906  43.312   4.170
51463W        W23888  10.206  39.917  11.218
51464W        W23889  34.388   6.791  13.530
51465W        W23890  23.963  35.892   0.575
51466W        W23891   1.219  34.554  12.453
51467W        W23892  13.895   8.207  14.281
51468W        W23893  30.085   8.703  10.785
51469W        W23894  30.670  44.730  14.391
51470W        W23895  28.617  23.526   3.352
51471W        W23896  20.194  44.446  13.856
51472W        W23897  14.556   0.724  11.578
51473W        W23898   1.189   7.294   3.171
51474W        W23899  39.762  28.444  12.524
51475W        W23900  38.770  41.382  12.109
51476W        W23901  30.883  44.795  11.522
51477W        W23902  36.287  10.712  13.132
51478W        W23903  28.415  15.292   1.753
51479W        W23904  31.712  34.179   2.444
51480W        W23905  32.332   5.804   2.476
51481W        W23906   2.261  17.733   2.692
51482W        W23907  31.631  38.993   4.111
51483W        W23908  41.398  16.745  10.663
51484W        W23909  15.526   9.824   0.765
51485W        W23910  41.805  12.296  11.357
51486W        W23911   9.275  13.532  13.777
51487W        W23912   1.504  35.167  11.510
51488W        W23913  34.231  30.962   2.319
51489W        W23914  31.149  32.661  12.188
51490W        W23915  20.436   9.428   1.432
51491W        W23916   1.879   7.474  10.837
51492W        W23917  19.961  13.772   0.451
51493W        W23918   2.612   8.518   9.950
51494W        W23919   6.396  14.811   4.769
51495W        W23920  10.809   7.198  13.505
51496W        W23921  39.633  14.116   0.914
51497W        W23922  15.593   9.746   2.727
51498W        W23923  44.810  15.070  13.530
51499W        W23924  17.767  30.934   1.868
51500W        W23925  22.277  27.011  14.708
51501W        W23926  13.648   0.556  12.953
51502W        W23927  40.465  32.583  10.641
51503W        W23928  23.458   9.925  13.850
51504W        W23929  44.959   4.935   2.873
51505W        W23930   2.640  43.415  13.310
51506W        W23931  16.348  43.497  11.670
51507W        W23932  34.409  12.051   4.578
51508W        W23933  42.930  29.340  12.546
51509W        W23934   6.796  22.638   4.528
51510W        W23935   3.511  30.385   1.681
51511W        W23936  22.099  34.136  11.104
51512W        W23937   3.964  33.186  13.836
51513W        W23938  15.117  11.010   3.906
51514W        W23939  36.198   4.812  11.872
51515W        W23940  24.893  19.558  11.358
51516W        W23941  35.102  32.488   0.896
51517W        W23942  41.839  38.878  12.486
51518W        W23943  33.427  28.136   1.750
51519W        W23944  32.023   9.444   3.645
51520W        W23945  30.710   6.357   0.865
51521W        W23946  21.820  36.412  12.621
51522W        W23947  31.047  31.334   1.415
51523W        W23948   7.940  17.119   3.743
51524W        W23949  37.328  43.556   3.175
51525W        W23950   8.641  15.307  13.859
51526W        W23951  34.583  23.531   2.792
51527W        W23952  30.668  41.791   3.589
51528W        W23953  10.267   6.481   0.557
51529W        W23954  24.304  42.853   4.684
51530W        W23955  30.459  39.135   3.933
51531W        W23956  10.220  19.779   2.428
51532W        W23957  32.519   7.098   3.885
51533W        W23958  27.704  36.530  12.144
51534W        W23959   6.956  44.299   1.019
51535W        W23960  39.013  43.342  13.953
51536W        W23961  33.113   4.751  12.970
51537W        W23962  16.508  39.912  11.136
51538W        W23963  17.612  24.748   3.211
51539W        W23964  43.097  12.424  10.545
51540W        W23965  22.504  31.901   0.893
51541W        W23966   8.428  33.626  11.338
51542W        W23967  29.487   7.442  10.084
51543W        W23968   7.191   1.852   4.028
51544W        W23969  24.016   2.827  12.490
51545W        W23970   8.180  36.503   0.384
51546W        W23971  13.665  29.803   2.559
51547W        W23972  32.453  27.683  14.810
51548W        W23973  37.902   3.376  12.387
51549W        W23974   6.338   2.646   0.196
51550W        W23975  26.901  32.619  11.228
51551W        W23976  20.528  29.138   3.347
51552W        W23977  16.784  23.742  11.046
51553W        W23978  35.118  36.918  10.642
51554W        W23979  39.852  36.406  11.872
51555W        W23980  38.774  20.202  13.492
51556W        W23981   7.219  22.475  14.779
51557W        W23982  11.329  21.690  12.526
51558W        W23983  32.169  18.795  13.634
51559W        W23984  31.406  39.818  11.081
51560W        W23985   8.662  37.505  13.921
51561W        W23986  40.578  27.356  12.455
51562W        W23987  21.017  11.132  11.573
51563W        W23988   1.229  25.188   2.805
51564W        W23989  11.184  20.202  11.327
51565W        W23990  24.503  34.419   0.494
51566W        W23991  23.464  19.073   4.082
51567W        W23992   1.452  23.236  14.400
51568W        W23993  37.638  37.659   2.233
51569W        W23994  18.701  29.681   5.406
51570W        W23995  39.027  13.308  12.988
51571W        W23996   9.684  23.321  14.991
51572W        W23997  39.526   9.674   4.105
51573W        W23998  24.800  19.294  13.118
51574W        W23999  36.507  30.613  13.207
51575W        W24000  26.532  37.035   3.183
51576W        W24001   2.297  39.043  12.672
51577W        W24002  13.082  10.842   3.225
51578W        W24003  40.610  16.202  12.435
51579W        W24004  27.579   9.895   1.640
51580W        W24005  24.866  26.565  12.987
51581W        W24006  40.426  14.836  12.301
51582W        W24007  17.698  38.968   4.046
51583W        W24008  17.830  44.447  12.591
51584W        W24009  11.810  39.809  11.157
51585W        W24010  16.553  23.972   2.180
51586W        W24011   2.289  23.322  14.707
51587W        W24012  18.673   9.676  12.368
51588W        W24013  17.513   1.129   1.348
51589W        W24014  27.666   4.214   2.791
51590W        W24015   8.824   3.701  11.520
51591W        W24016  37.022  23.814   0.286
51592W        W24017   4.668  15.784  12.140
51593W        W24018  38.196  41.625   0.418
51594W        W24019  23.745  38.905   2.248
51595W        W24020  21.077  22.697   4.013
51596W        W24021   1.293  18.598  11.663
51597W        W24022  42.195  14.075  11.974
51598W        W24023  23.863  17.725   2.875
51599W        W24024  30.261  18.700  12.969
51600W        W24025  12.695  25.981   2.471
51601W        W24026  42.375  12.367  12.617
51602W        W24027  35.314  16.082  11.852
51603W        W24028  29.869   1.694   0.754
51604W        W24029  15.962  39.874   2.873
51605W        W24030   2.338  36.329   2.567
51606W        W24031  23.553  40.787  12.570
51607W        W24032  20.136   1.495  10.683
51608W        W24033  39.014   5.907   0.351
51609W        W24034  27.976  15.580  13.996
51610W        W24035   4.241  34.155  14.679
51611W        W24036  43.326  17.515  10.751
51612W        W24037  39.787  13.844   0.488
51613W        W24038   9.236  17.308   2.510
51614W        W24039  13.710  14.383   0.396
51615W        W24040  30.404   3.284   1.772
51616W        W24041  23.475  30.330   1.594
51617W        W24042  34.257  29.447   4.690
51618W        W24043  18.034  11.746   3.636
51619W        W24044  21.755  15.676  12.159
51620W        W24045   6.016   9.829  14.272
51621W        W24046  22.092  23.720  14.324
51622W        W24047   2.753  37.232   4.583
51623W        W24048  13.441  44.513  14.300
51624W        W24049  24.540  22.028  14.182
51625W        W24050  27.092  25.579  14.882
51626W        W24051  33.595  22.090  13.313
51627W        W24052  37.164  20.788  13.124
51628W        W24053  25.250  12.647  11.073
51629W        W24054   8.641  21.580  11.235
51630W        W24055  27.468  12.388   4.332
51631W        W24056  10.180  12.717  14.787
51632W        W24057  14.635  43.880  11.969
51633W        W24058  11.790  27.578  13.946
51634W        W24059  38.407  28.570   4.272
51635W        W24060  33.462  21.236   9.973
51636W        W24061  17.786  44.735   1.685
51637W        W24062  35.402   4.500  13.399
51638W        W24063  41.894  20.721  14.391
51639W        W24064   7.353   8.786   3.801
51640W        W24065   6.347   3.784  11.193
51641W        W24066  24.524   0.827   1.177
51642W        W24067  18.314  23.911   2.733
51643W        W24068  14.661   5.157  12.530
51644W        W24069  41.179  13.893   0.312
51645W        W24070  25.292   5.409   4.294
51646W        W24071  33.500   2.778  13.420
51647W        W24072  11.756  33.101  11.868
51648W        W24073  20.648  33.975  13.333
51649W        W24074  22.866  31.145   0.236
51650W        W24075  16.395  14.691  11.139
51651W        W24076   3.524   5.409  10.727
51652W        W24077  39.824  41.466  13.509
51653W        W24078   8.142   0.789  13.377
51654W        W24079   7.213  27.658  12.808
51655W        W24080  32.082  34.596   4.584
51656W        W24081  11.095  43.477   4.140
51657W        W24082  24.726  36.329  13.760
51658W        W24083  36.575  28.481  14.366
51659W        W24084  39.103  38.937   3.183
51660W        W24085   3.965  17.511  12.452
51661W        W24086  27.273   7.489   1.074
51662W        W24087  37.343   1.446   3.162
51663W        W24088  36.986  19.176   2.699
51664W        W24089  39.519   5.927  12.971
51665W        W24090  10.866   6.412  11.905
51666W        W24091   4.661   0.145   1.100
51667W        W24092   4.924  13.199   4.199
51668W        W24093   1.326  17.879   2.303
51669W        W24094  30.711  17.376  10.195
51670W        W24095  41.134   6.031   1.890
51671W        W24096  13.102  25.948  12.813
51672W        W24097  29.517   9.240   0.711
51673W        W24098  12.544  30.566  10.609
51674W        W24099  36.665   9.562   2.279
51675W        W24100  12.806   3.625   4.264
51676W        W24101  30.641   7.584  12.427
51677W        W24102  42.242  26.325  12.962
51678W        W24103  18.562   0.210  13.371
51679W        W24104   8.260  40.027   2.737
51680W        W24105  19.048  25.027  12.930
51681W        W24106   4.181  15.776  14.442
51682W        W24107  14.334  37.860  13.079
51683W        W24108   3.736  14.849  13.444
51684W        W24109  18.178  12.443   1.748
51685W        W24110  30.864  22.231   0.511
51686W        W24111  12.042  21.163  14.457
51687W        W24112  19.889  32.064   2.152
51688W        W24113  31.458  10.893   4.876
51689W        W24114  23.077  16.062  10.412
51690W        W24115  27.884  29.650   3.727
51691W        W24116  19.359  21.639  13.533
51692W        W24117  21.999   3.990   0.192
51693W        W24118  24.708  40.879   2.951
51694W        W24119   4.474  19.264   1.777
51695W        W24120  31.397  25.074   1.460
51696W        W24121  16.319   3.244   1.453
51697W        W24122  40.085  30.995   2.727
51698W        W24123  22.322  21.259   1.437
51699W        W24124   9.249  36.397   1.436
51700W        W24125  32.794  29.056   0.862
51701W        W24126  36.543  21.181   0.713
51702W        W24127  19.198  34.067  11.904
51703W        W24128   6.907   5.630   4.326
51704W        W24129  42.024   1.538   4.901
51705W        W24130  24.753  37.939   2.898
51706W        W24131   9.319   7.354   2.732
51707W        W24132  41.246  44.943   5.154
51708W        W24133  41.704  12.603   5.090
51709W        W24134  10.116  37.342  13.112
51710W        W24135   9.358   1.057   2.185
51711W        W24136  44.261   6.133  11.923
51712W        W24137   3.460  31.898   4.551
51713W        W24138  20.451  20.271  11.181
51714W        W24139  35.930  31.140   3.696
51715W        W24140  25.548  30.849   3.151
51716W        W24141   1.831  44.411   4.130
51717W        W24142  13.754  16.624   0.022
51718W        W24143  13.061  38.042  12.891
51719W        W24144   7.786   5.445  11.957
51720W        W24145  23.820  43.340   4.096
51721W        W24146   6.538  33.784   4.925
51722W        W24147  21.034  41.260  10.675
51723W        W24148  14.667  23.127  12.337
51724W        W24149  12.386  31.602   1.342
51725W        W24150   9.368   5.434   4.600
51726W        W24151  17.369  33.097  12.419
51727W        W24152  26.921  42.384   0.942
51728W        W24153   7.241  17.101  14.475
51729W        W24154  30.622  10.759   1.441
51730W        W24155   6.623  32.582  14.028
51731W        W24156  16.300  17.309  14.055
51732W        W24157  26.611  14.840   3.301
51733W        W24158  17.909  25.081   1.371
51734W        W24159  37.770  24.694  14.868
51735W        W24160  14.052  38.315  13.080
51736W        W24161   4.373  20.650   1.309
51737W        W24162  23.502  40.118   4.637
51738W        W24163  14.671   8.865  11.211
51739W        W24164  41.420  33.639   3.632
51740W        W24165  32.509   9.585  14.527
51741W        W24166  21.426  36.854   4.731
51742W        W24167  26.993   0.861  13.229
51743W        W24168  41.686  36.902   0.973
51744W        W24169   0.818  33.502   4.227
51745W        W24170  36.441  28.101   4.107
51746W        W24171  26.202  22.328   3.542
51747W        W24172   2.823  32.701   4.660
51748W        W24173   0.198  25.983   3.205
51749W        W24174  33.698   5.054   3.311
51750W        W24175  20.742  12.895   2.952
51751W        W24176  13.756  11.264  11.939
51752W        W24177  29.589   0.385  14.777
51753W        W24178  36.889  23.521  11.571
51754W        W24179  19.118  35.548  11.038
51755W        W24180  31.080   1.831   1.733
51756W        W24181  41.527  26.933   4.736
51757W        W24182  28.608   4.719  14.916
51758W        W24183  31.625  19.057  11.999
51759W        W24184  30.618  15.931  11.752
51760W        W24185  33.594  32.916  14.467
51761W        W24186  28.700  19.363   2.171
51762W        W24187  39.572  19.143  13.060
51763W        W24188  34.709  35.913  10.648
51764W        W24189   3.800  40.971  11.231
51765W        W24190  23.696  22.170  11.904
51766W        W24191   5.757  36.003   9.582
51767W        W24192  19.257  36.126  14.324
51768W        W24193  34.959   6.896  14.852
51769W        W24194  15.375  24.764   2.240
51770W        W24195  36.567   3.738  12.385
51771W        W24196  44.682  18.115   0.855
51772W        W24197  22.139  43.183  11.739
51773W        W24198  13.201   1.745  13.396
51774W        W24199  34.595   9.857   0.373
51775W        W24200   8.227  34.560  12.435
51776W        W24201  20.807   5.415   1.952
51777W        W24202  12.495  40.813   3.620
51778W        W24203  42.524  25.563   4.040
51779W        W24204   3.975  31.862   4.711
51780W        W24205  18.272   2.498   4.500
51781W        W24206  25.359  29.602   4.608
51782W        W24207  12.724  34.621  13.894
51783W        W24208  28.609  23.649   0.801
51784W        W24209  32.075  22.118  10.672
51785W        W24210  11.535   1.301   3.505
51786W        W24211  29.055  37.030  13.432
51787W        W24212   8.882  36.683  10.654
51788W        W24213  21.681  17.362  12.952
51789W        W24214  36.082  37.999   3.088
51790W        W24215  39.819  32.570  12.529
51791W        W24216  41.061  43.157   1.792
51792W        W24217  22.659  19.370   4.825
51793W        W24218  31.964  41.266  10.503
51794W        W24219   6.107  42.926   0.326
51795W        W24220   9.667  42.199   0.846
51796W        W24221  15.693  24.660   4.077
51797W        W24222   4.358   8.491   0.228
51798W        W24223  24.552  23.118  13.907
51799W        W24224  42.564  32.647   4.071
51800W        W24225   6.408  34.337  13.449
51801W        W24226  16.249  16.580   0.126
51802W        W24227  31.370  21.285  14.933
51803W        W24228  25.009  24.924   3.911
51804W        W24229  14.102  22.638  11.914
51805W        W24230  22.168  31.635   3.439
51806W        W24231  31.216  17.368   1.105
51807W        W24232  17.506  17.421  11.145
51808W        W24233  26.044  27.165  12.537
51809W        W24234   1.458   3.565   1.911
51810W        W24235  19.350  10.334  14.266
51811W        W24236  25.009  25.249   4.852
51812W        W24237   4.224  21.597  10.491
51813W        W24238  41.545   6.232  13.982
51814W        W24239   0.304  13.730   4.794
51815W        W24240  34.908  18.900  11.133
51816W        W24241  34.644  11.294  11.157
51817W        W24242  19.168  16.300  14.453
51818W        W24243  37.355  32.948  13.374
51819W        W24244  37.075   9.976  14.376
51820W        W24245  29.659  34.347   3.716
51821W        W24246  37.442  21.625   3.332
51822W        W24247   4.561   0.468   3.626
51823W        W24248  24.918   8.419   4.258
51824W        W24249  26.513   4.450   9.908
51825W        W24250  24.491  37.819   4.929
51826W        W24251  10.116  40.046  13.566
51827W        W24252  42.001  16.182  13.806
51828W        W24253   9.276  19.904   2.409
51829W        W24254  26.710   2.728   0.872
51830W        W24255  15.069   7.783  11.544
51831W        W24256  40.588   0.001   4.118
51832W        W24257   1.705  40.488   0.438
51833W        W24258  30.746  22.617  11.966
51834W        W24259  19.170  43.932   1.851
51835W        W24260  17.117  36.735   0.209
51836W        W24261   2.006  44.977   2.860
51837W        W24262  19.166   4.682   1.187
51838W        W24263   6.942  44.710  11.247
51839W        W24264  30.435  44.300  12.815
51840W        W24265  41.521  42.979   2.357
51841W        W24266  26.708  22.878  10.913
51842W        W24267  18.797   6.452  14.695
51843W        W24268  15.767  20.228   3.507
51844W        W24269  40.247  26.830   4.113
51845W        W24270  42.297  44.038   2.820
51846W        W24271  32.560  41.005  14.053
51847W        W24272  27.129   2.030  12.592
51848W        W24273  11.362  42.340  12.927
51849W        W24274  34.270  15.630   4.375
51850W        W24275  14.698  44.250   1.216
51851W        W24276   6.604  22.920   1.170
51852W        W24277  34.387  35.946  11.061
51853W        W24278  39.071  28.382  13.403
51854W        W24279  32.885  29.428   0.414
51855W        W24280  10.683  23.435  11.453
51856W        W24281  27.447  17.554  11.423
51857W        W24282  22.959   6.817   2.859
51858W        W24283   7.806  24.375   4.262
51859W        W24284  37.228  23.958   4.992
51860W        W24285  30.263   4.429  13.828
51861W        W24286  15.635  18.700   3.444
51862W        W24287  34.570   0.393  11.431
51863W        W24288  32.563  20.592   0.902
51864W        W24289  18.010  17.194   0.302
51865W        W24290  12.315  24.609   9.612
51866W        W24291  12.822  32.319  11.817
51867W        W24292  43.884  44.340  14.319
51868W        W24293  25.659  27.688   4.171
51869W        W24294  13.097  44.107   5.084
51870W        W24295  24.904  14.235  12.917
51871W        W24296  38.008  18.320  12.015
51872W        W24297  23.566  41.892   4.019
51873W        W24298  22.314  16.592  13.868
51874W        W24299   2.456  28.524   3.818
51875W        W24300  12.153  36.903   1.909
51876W        W24301   9.795   5.508  14.486
51877W        W24302  19.688  20.047  14.132
51878W        W24303  37.098   3.641  14.703
51879W        W24304  10.351  13.563   4.006
51880W        W24305  16.214  19.114   1.936
51881W        W24306  35.841  28.145  12.899
51882W        W24307   9.870  14.657   1.754
51883W        W24308  19.846   8.661   2.283
51884W        W24309  14.723   1.198  10.704
51885W        W24310  44.772  16.675  12.352
51886W        W24311  33.339   5.901   1.437
51887W        W24312  35.010  20.002  11.159
51888W        W24313  11.073   3.187   2.926
51889W        W24314   5.160  19.662   2.920
51890W        W24315  42.413  37.075   1.824
51891W        W24316  35.092   3.728  13.284
51892W        W24317   1.306  44.801   1.392
51893W        W24318   5.355  25.623  11.353
51894W        W24319  36.445  32.414  13.048
51895W        W24320  39.743  20.825  14.015
51896W        W24321  28.728  11.202   2.259
51897W        W24322   5.919   8.081  12.059
51898W        W24323  27.504   2.272  12.319
51899W        W24324  42.325   0.533   3.867
51900W        W24325   3.838  14.581   2.059
51901W        W24326   4.633  18.846  12.066
51902W        W24327  27.077  36.050   4.543
51903W        W24328  11.325  30.062  13.356
51904W        W24329  15.736  35.948  10.033
51905W        W24330  44.837   7.242  12.621
51906W        W24331  34.065  39.360  10.333
51907W        W24332  16.509   2.917   1.062
51908W        W24333   4.012  27.471  12.094
51909W        W24334  10.884  36.051  12.002
51910W        W24335  34.827  12.618   2.872
51911W        W24336  14.624   1.992  14.798
51912W        W24337  24.602   6.914  14.528
51913W        W24338  19.870  29.238   1.831
51914W        W24339  14.801  38.866   0.731
51915W        W24340  34.820  29.964   2.168
51916W        W24341  23.467  24.019   0.288
51917W        W24342  11.422  33.001   2.713
51918W        W24343  34.973  11.700   0.560
51919W        W24344  44.865  22.265   1.777
51920W        W24345   9.965  41.785   0.796
51921W        W24346  13.146  24.595   0.370
51922W        W24347  25.967  14.843   2.806
51923W        W24348  10.114  21.651  13.008
51924W        W24349  16.237   2.357  11.957
51925W        W24350   7.347  21.180  11.005
51926W        W24351  14.084  20.617   2.151
51927W        W24352   8.493  34.632   4.017
51928W        W24353  27.056   4.538   0.892
51929W        W24354  23.618  41.643  11.502
51930W        W24355  36.509   2.777  12.017
51931W        W24356  23.666  39.573  11.652
51932W        W24357  25.989  44.536   4.483
51933W        W24358  39.345  36.058   0.555
51934W        W24359   3.238  11.685  10.972
51935W        W24360  19.300  31.622   1.819
51936W        W24361  18.718  10.610   2.253
51937W        W24362   6.406  28.671  12.790
51938W        W24363   9.778  10.236  12.919
51939W        W24364  33.796  42.228   0.210
51940W        W24365   0.005   0.422  10.747
51941W        W24366   5.763  41.951   2.785
51942W        W24367  18.979  33.135  10.168
51943W        W24368  39.916   5.475  12.431
51944W        W24369  30.418   7.405   3.570
51945W        W24370  24.024  16.294  13.512
51946W        W24371  36.835   2.630   0.953
51947W        W24372  10.885   6.277  13.444
51948W        W24373  18.950  21.471   3.483
51949W        W24374  12.553  31.736  11.189
51950W        W24375  26.535  12.640  13.455
51951W        W24376  10.855  33.915  14.477
51952W        W24377  44.485  38.386  13.838
51953W        W24378  30.241  34.843   1.231
51954W        W24379  26.872  33.445   1.266
51955W        W24380  39.857  31.123   3.214
51956W        W24381  28.119  34.334  11.516
51957W        W24382  33.026  31.809   2.691
51958W        W24383  41.427   5.977   2.304
51959W        W24384  36.471  29.329  10.622
51960W        W24385   6.087  16.488   2.156
51961W        W24386  16.199   8.130   3.657
51962W        W24387   5.949  17.125  12.490
51963W        W24388  44.250  38.824  12.637
51964W        W24389  15.645  24.192  13.862
51965W        W24390  18.436  11.695   0.089
51966W        W24391   9.756   5.056   1.240
51967W        W24392   1.824  38.992  12.466
51968W        W24393  16.775   1.220  14.325
51969W        W24394  20.809  43.220  12.058
51970W        W24395  13.102   6.902  10.931
51971W        W24396  18.054  25.699  11.648
51972W        W24397  12.110  16.027  14.797
51973W        W24398  37.489   7.615  10.174
51974W        W24399   7.403  12.057   4.141
51975W        W24400  25.029   8.156  14.915
51976W        W24401  30.415  43.257   1.211
51977W        W24402  15.150  28.864  11.175
51978W        W24403  23.632  10.823  12.565
51979W        W24404  43.127  25.784  13.848
51980W        W24405   3.314  11.227   0.734
51981W        W24406  18.756   7.624   5.042
51982W        W24407  14.166  17.612  13.891
51983W        W24408  42.492  13.334   0.902
51984W        W24409  10.201  26.378  14.931
51985W        W24410  43.057  34.559  14.484
51986W        W24411  12.958   1.207   5.039
51987W        W24412  41.670  34.885   2.909
51988W        W24413  38.589  43.671  13.823
51989W        W24414  34.035  37.309  13.515
51990W        W24415  29.590  38.446   1.294
51991W        W24416  44.543   2.453   0.059
51992W        W24417  42.946  39.523   3.128
51993W        W24418  13.155  18.826   2.810
51994W        W24419  29.428  29.978   9.997
51995W        W24420  42.184  29.629   0.322
51996W        W24421  37.489  21.558   4.368
51997W        W24422  16.630   5.237  11.823
51998W        W24423   0.862  22.663   2.722
51999W        W24424  26.556  42.530  10.738
52000W        W24425  36.951  26.698   1.693
52001W        W24426  24.029   9.908   0.375
52002W        W24427  13.745  16.838   4.887
52003W        W24428  26.160  26.044  14.605
52004W        W24429  29.671  16.104  11.702
52005W        W24430   7.122  42.040   1.275
52006W        W24431  33.098  30.826  14.052
52007W        W24432  18.346  37.865   1.389
52008W        W24433   5.890  32.063   1.898
52009W        W24434   6.793  22.709  13.875
52010W        W24435  19.696  36.562   3.718
52011W        W24436   4.422  42.881  10.495
52012W        W24437  27.153   3.470   1.645
52013W        W24438  37.397   6.389  11.522
52014W        W24439  38.795  42.337  13.954
52015W        W24440  29.578  33.060  13.882
52016W        W24441  34.001  32.110  10.560
52017W        W24442  36.213  35.105   4.601
52018W        W24443  21.570  36.007   1.762
52019W        W24444  29.656   4.554   3.748
52020W        W24445  41.940  17.442  12.436
52021W        W24446  35.355  20.924   0.276
52022W        W24447   4.675  42.525  11.227
52023W        W24448  27.537  34.004   5.573
52024W        W24449   8.458  36.422  14.697
52025W        W24450  34.819   4.062  11.249
52026W        W24451  28.141   8.362  11.916
52027W        W24452  36.082  42.721   3.313
52028W        W24453  24.014  27.668   3.602
52029W        W24454   2.825  14.336   0.266
52030W        W24455  14.893  31.845  13.837
52031W        W24456  24.065  42.614  14.744
52032W        W24457   1.070  39.537  14.387
52033W        W24458   9.318  13.901  11.247
52034W        W24459  39.778   2.792   3.302
52035W        W24460  26.040  13.842   4.331
52036W        W24461  28.006  43.924   0.334
52037W        W24462  23.164  32.635   2.664
52038W        W24463  37.628  40.401   3.663
52039W        W24464  19.712  22.520   3.753
52040W        W24465   1.243  23.214  11.659
52041W        W24466  44.375  15.266  12.422
52042W        W24467   9.159  33.474   1.909
52043W        W24468  31.635   1.481  12.520
52044W        W24469   2.927   3.774  13.999
52045W        W24470   9.277  42.526  12.830
52046W        W24471  16.656   1.373  12.403
52047W        W24472   7.361  13.598  11.704
52048W        W24473   6.670  13.410   1.814
52049W        W24474  30.720   4.857   4.494
52050W        W24475  40.220  44.966  12.515
52051W        W24476  39.843  16.100  14.649
52052W        W24477  13.387  15.666  13.534
52053W        W24478  11.326   0.366  13.508
52054W        W24479  31.041  29.207   0.411
52055W        W24480  19.795   0.457   3.727
52056W        W24481  23.431  40.015   1.609
52057W        W24482  31.377  17.132   3.188
52058W        W24483  20.988  21.597   3.556
52059W        W24484  43.386  36.518  13.606
52060W        W24485   6.742  25.515  10.761
52061W        W24486  10.846  26.978  12.461
52062W        W24487  11.547  30.490  13.554
52063W        W24488  37.876  42.349   4.136
52064W        W24489  19.785   5.656   2.812
52065W        W24490  40.449  28.013   4.398
52066W        W24491  18.132   3.016   1.330
52067W        W24492   9.098   2.556  11.178
52068W        W24493  30.305  34.139   2.344
52069W        W24494   7.499   7.564   3.334
52070W        W24495  39.959  23.962   0.447
52071W        W24496  34.062  31.603   1.435
52072W        W24497   6.702  10.339   2.597
52073W        W24498  38.860  28.237  14.896
52074W        W24499  26.890  28.524  11.165
52075W        W24500  18.589  44.877  12.957
52076W        W24501   3.143  14.197   4.635
52077W        W24502  36.564  35.987   4.205
52078W        W24503  21.615  37.710   5.074
52079W        W24504   2.413  41.314   1.316
52080W        W24505  39.893  27.481   0.434
52081W        W24506  17.741  13.863   2.763
52082W        W24507  26.825  36.443  12.409
52083W        W24508  25.192   2.247  12.886
52084W        W24509  38.702  29.496   1.735
52085W        W24510  31.680  23.122   4.297
52086W        W24511  32.379  41.842  14.975
52087W        W24512   6.384   0.764   4.125
52088W        W24513  32.567   0.386   3.390
52089W        W24514  32.371  17.074  14.984
52090W        W24515  28.664  37.383   4.494
52091W        W24516  25.027  37.430  10.292
52092W        W24517   5.319   7.409   4.596
52093W        W24518  44.300  12.936  12.485
52094W        W24519  37.941  43.071  14.765
52095W        W24520  44.316  25.787  14.316
52096W        W24521  21.672  30.130   4.155
52097W        W24522  37.950  26.245   4.139
52098W        W24523  19.292   4.676   0.675
52099W        W24524  27.496   1.356  14.346
52100W        W24525  31.168  36.139  12.698
52101W        W24526  16.231  12.206  12.622
52102W        W24527  33.826  13.309  14.805
52103W        W24528  11.165  39.399  13.065
52104W        W24529  36.278  31.172  11.143
52105W        W24530  10.660  30.201   3.819
52106W        W24531  30.058   8.811   0.671
52107W        W24532  27.492   7.721  11.707
52108W        W24533   2.976  39.339   2.084
52109W        W24534  23.011  16.037  11.502
52110W        W24535   0.358   2.948   3.876
52111W        W24536  36.085  43.886  14.971
52112W        W24537  20.287  41.501  12.758
52113W        W24538  20.486  19.624   0.936
52114W        W24539   3.313   5.077  11.108
52115W        W24540  26.010   4.988  13.836
52116W        W24541   6.173  37.918  11.589
52117W        W24542  33.657  20.483  14.970
52118W        W24543  28.521  33.181   2.877
52119W        W24544  25.525  17.144   3.524
52120W        W24545  21.262  26.127   1.738
52121W        W24546  31.079  32.062   2.680
52122W        W24547  11.488  40.438   0.424
52123W        W24548   4.378  21.145  10.697
52124W        W24549  20.927  27.074  14.081
52125W        W24550  30.661   0.340   4.698
52126W        W24551  31.226  28.182  12.000
52127W        W24552  30.457  42.466   0.855
52128W        W24553  33.569  35.385  11.225
52129W        W24554  25.601  24.653  14.870
52130W        W24555  36.333  30.677   4.700
52131W        W24556  14.441  22.998   0.180
52132W        W24557  24.940  42.972  13.593
52133W        W24558  15.864  37.472   1.442
52134W        W24559  14.829  34.960   0.643
52135W        W24560   7.337  37.019  12.138
52136W        W24561   5.826  29.210   2.837
52137W        W24562  25.022  32.222   0.290
52138W        W24563  29.946  13.829  12.450
52139W        W24564   5.480  21.660   0.681
52140W        W24565  11.763  22.637  14.064
52141W        W24566  19.590  28.170  10.695
52142W        W24567  19.689  24.648  12.625
52143W        W24568  24.743  27.987   1.188
52144W        W24569  42.778   3.907   4.566
52145W        W24570   1.420  14.284   2.197
52146W        W24571  35.313  28.418   3.282
52147W        W24572   4.724  41.282   0.892
52148W        W24573  24.978  20.816  12.573
52149W        W24574  40.291  12.495  11.114
52150W        W24575   2.748   9.961   2.752
52151W        W24576  36.109  10.899   0.365
52152W        W24577  18.283  40.768   1.272
52153W        W24578   3.640  28.530   1.425
52154W        W24579   9.125  44.938  13.853
52155W        W24580  40.223  32.604  11.108
52156W        W24581  18.072   6.919  10.808
52157W        W24582  14.550  44.988  14.411
52158W        W24583   3.356  33.299  10.988
52159W        W24584   0.475  31.281  12.038
52160W        W24585   4.520  38.924   2.730
52161W        W24586  36.912  22.099   2.037
52162W        W24587  42.319  38.374   3.215
52163W        W24588  24.650  18.630   1.247
52164W        W24589  19.764   1.915   3.731
52165W        W24590  33.884  44.495   3.269
52166W        W24591  34.878   2.887  12.983
52167W        W24592   0.864  24.368   4.386
52168W        W24593  38.240  23.558  11.486
52169W        W24594   2.288  44.599  10.653
52170W        W24595   8.631  37.314   9.783
52171W        W24596  30.514  17.307  14.929
52172W        W24597  11.825  19.812  12.095
52173W        W24598   7.483  43.925  12.176
52174W        W24599  33.803  24.495  11.619
52175W        W24600  18.238  16.292   0.565
52176W        W24601  43.577   4.416  12.979
52177W        W24602  24.620  43.060  13.192
52178W        W24603  32.922  29.538   1.927
52179W        W24604  42.303  27.146   2.259
52180W        W24605  17.103  41.713  12.656
52181W        W24606  19.468  33.050  10.001
52182W        W24607  17.341  42.734   1.213
52183W        W24608  31.381   5.416   3.258
52184W        W24609   2.363  41.902  11.989
52185W        W24610   4.975  10.186  11.260
52186W        W24611   1.834   0.289  14.990
52187W        W24612  43.827  35.039   4.438
52188W        W24613  35.366  35.555   0.389
52189W        W24614  11.120  13.593  12.288
52190W        W24615  31.581  15.016  13.675
52191W        W24616  40.038  12.648  13.840
52192W        W24617  40.294  41.715  12.472
52193W        W24618  20.999  16.121   1.366
52194W        W24619  44.686  28.555   1.814
52195W        W24620  28.238   6.394   2.844
52196W        W24621  24.159  12.269   3.065
52197W        W24622  26.468  39.639  13.562
52198W        W24623  38.379   8.905  14.856
52199W        W24624  32.001  25.409   0.884
52200W        W24625  34.918  39.353   4.178
52201W        W24626  38.170   4.295  13.515
52202W        W24627  19.097  20.997  14.344
52203W        W24628  35.917  12.190   2.357
52204W        W24629  36.217  27.022   4.654
52205W        W24630  11.295   4.850  13.428
52206W        W24631  20.113   8.796   3.319
52207W        W24632  23.660  14.723   4.102
52208W        W24633  39.314  25.819   3.730
52209W        W24634   0.282   4.641  12.342
52210W        W24635  30.637  15.161   4.553
52211W        W24636  36.868  35.497   4.124
52212W        W24637  17.027  11.328  11.169
52213W        W24638  23.748  21.189   2.502
52214W        W24639  31.572  14.617   4.344
52215W        W24640  43.481  40.641  13.957
52216W        W24641   5.234  12.218  12.230
52217W        W24642   3.335  18.711   0.569
52218W        W24643  43.448  27.927  13.465
52219W        W24644   8.331  44.311   4.609
52220W        W24645  38.502   9.505   1.986
52221W        W24646  39.308  27.021  12.656
52222W        W24647  36.952  25.791  14.899
52223W        W24648  39.538  19.992   1.670
52224W        W24649  28.502  27.209   2.769
52225W        W24650  15.129  23.662   2.796
52226W        W24651   3.263  44.303   1.938
52227W        W24652  30.896  11.415   0.179
52228W        W24653   3.269   3.887   0.449
52229W        W24654  23.578  15.370   4.344
52230W        W24655  38.589  14.222   0.833
52231W        W24656  31.057  42.423  14.473
52232W        W24657  34.207   1.330   0.872
52233W        W24658  25.111  33.723   4.625
52234W        W24659  26.642  32.882   3.714
52235W        W24660  13.688  44.481   3.184
52236W        W24661   2.341  26.587  12.526
52237W        W24662  10.253  35.343  13.194
52238W        W24663  11.291  13.734  13.074
52239W        W24664  37.052  27.630  11.584
52240W        W24665  36.996  25.715   2.242
52241W        W24666   7.214  35.893   2.920
52242W        W24667  23.563  42.875   0.485
52243W        W24668  33.094  30.607   4.467
52244W        W24669  38.324  18.498   0.700
52245W        W24670  27.784  12.163   0.697
52246W        W24671  21.600   6.015   2.636
52247W        W24672  17.272  43.553  13.810
52248W        W24673   7.824  31.541  10.946
52249W        W24674   9.174  11.621  10.775
52250W        W24675  20.857  38.878   4.649
52251W        W24676  36.928  30.654  13.510
52252W        W24677  21.262  18.357  12.124
52253W        W24678   6.412  16.458   2.808
52254W        W24679  37.159  26.424  11.126
52255W        W24680   2.484  41.536  13.154
52256W        W24681  30.690  33.427   3.881
52257W        W24682  37.030  34.023  10.919
52258W        W24683  15.633  43.768   1.332
52259W        W24684  22.514  31.402  12.435
52260W        W24685   1.396  22.480  13.889
52261W        W24686  28.615   8.403  12.163
52262W        W24687  14.874  22.206  13.322
52263W        W24688  14.775  39.255  14.447
52264W        W24689   2.410   3.308   0.263
52265W        W24690   3.839   6.354  14.291
52266W        W24691  17.239  23.362   4.031
52267W        W24692  16.704  20.223  12.845
52268W        W24693  38.328  15.319   4.849
52269W        W24694  30.900  29.046  14.913
52270W        W24695  40.997  14.606   0.762
52271W        W24696  28.869  37.805   3.656
52272W        W24697  32.893   1.765  11.584
52273W        W24698  25.570  28.421  12.976
52274W        W24699  36.072  18.458   1.651
52275W        W24700  23.799  38.377  14.851
52276W        W24701  11.724   1.427  12.737
52277W        W24702   5.713  14.693  10.385
52278W        W24703  44.289  31.871   1.735
52279W        W24704  44.908  31.329   2.422
52280W        W24705  43.282  39.096   2.016
52281W        W24706   4.734  44.964   0.584
52282W        W24707  15.714  35.866  11.114
52283W        W24708  43.413  44.851  14.839
52284W        W24709  22.150  44.521   0.668
52285W        W24710  35.642  14.057   1.827
52286W        W24711  24.001  35.405   3.107
52287W        W24712  24.183  11.677  11.171
52288W        W24713  41.996   0.837  14.222
52289W        W24714  40.777  30.356   0.825
52290W        W24715  26.804  33.499   3.743
52291W        W24716  15.700  15.833  12.364
52292W        W24717  42.384   3.636   4.738
52293W        W24718   3.959  11.227   1.223
52294W        W24719  41.945  15.886  10.639
52295W        W24720  35.497  32.098   4.577
52296W        W24721  43.336  15.329  14.906
52297W        W24722  25.013  16.344   3.830
52298W        W24723  44.772   5.333  12.561
52299W        W24724   9.126  28.551   0.503
52300W        W24725  27.719  25.653  11.556
52301W        W24726   0.274  18.614  10.676
52302W        W24727   3.933  33.973  10.302
52303W        W24728  37.800  17.183   1.317
52304W        W24729  26.633  19.284   3.644
52305W        W24730  38.903  24.914  10.725
52306W        W24731  14.826   8.171  12.427
52307W        W24732  16.307  12.158   0.912
52308W        W24733  41.570  21.735   4.456
52309W        W24734  19.056   2.017   0.006
52310W        W24735   3.996  10.358   3.127
52311W        W24736  39.017  24.437  10.451
52312W        W24737  31.708  44.412  14.931
52313W        W24738  38.608  43.496  10.572
52314W        W24739  35.625  27.251   2.262
52315W        W24740  43.929  18.723   4.239
52316W        W24741   1.480  32.984  14.274
52317W        W24742  28.109  36.399   3.601
52318W        W24743  24.980  32.374  12.382
52319W        W24744  42.877  19.284   4.531
52320W        W24745  23.618  25.135  12.962
52321W        W24746   9.202  11.315   0.309
52322W        W24747  44.009  29.624   2.933
52323W        W24748  28.352   8.978  13.598
52324W        W24749  38.092  41.570   2.798
52325W        W24750  40.052  11.762   3.197
52326W        W24751  37.667  18.758  11.187
52327W        W24752   5.366  23.068  13.995
52328W        W24753  19.352  29.851   2.980
52329W        W24754  36.013   2.399  10.999
52330W        W24755  32.813   8.467   2.853
52331W        W24756   9.259  26.162   0.936
52332W        W24757  33.543  24.767   4.102
52333W        W24758  11.645  28.574   3.908
52334W        W24759  20.239  14.822  13.021
52335W        W24760  34.521  43.238   3.091
52336W        W24761  22.741  44.099  11.104
52337W        W24762  23.521  17.280   2.176
52338W        W24763  34.645  31.323   3.243
52339W        W24764  29.343  34.454  14.860
52340W        W24765  44.208   0.301   0.012
52341W        W24766  38.558  20.622  12.588
52342W        W24767  19.861   4.455   0.942
52343W        W24768   7.222  25.795  12.897
52344W        W24769   4.526  16.708   1.168
52345W        W24770  39.297  11.419   2.211
52346W        W24771  33.901  42.319   1.668
52347W        W24772  32.645  18.099  14.807
52348W        W24773  36.495  12.240  11.928
52349W        W24774  13.681  36.641  10.969
52350W        W24775  12.078  37.989  10.697
52351W        W24776  10.555  34.521  13.008
52352W        W24777  20.553  28.673  13.843
52353W        W24778  32.124   2.041  14.830
52354W        W24779  29.481  31.243  14.811
52355W        W24780   3.848  14.606   0.353
52356W        W24781   7.830  31.179  11.812
52357W        W24782  38.612  24.532   0.253
52358W        W24783  11.653  17.439   3.510
52359W        W24784  22.517  35.030  10.642
52360W        W24785   0.703  41.440   0.359
52361W        W24786  32.807  35.601   3.544
52362W        W24787  31.819  33.823  14.335
52363W        W24788  38.049   4.642   4.902
52364W        W24789  23.028  22.652   3.204
52365W        W24790  25.491  13.216   3.316
52366W        W24791  12.308  41.092   1.257
52367W        W24792   8.764  30.367   2.190
52368W        W24793  13.489  35.659  11.887
52369W        W24794   6.391   8.341   0.867
52370W        W24795   7.834   9.398   3.659
52371W        W24796   8.250   6.724  10.265
52372W        W24797  28.689  21.004  11.063
52373W        W24798  36.389  11.012  14.906
52374W        W24799  28.615  15.316  13.574
52375W        W24800  41.754  25.559  14.743
52376W        W24801  31.530  19.073  10.702
52377W        W24802  14.793  39.821  14.311
52378W        W24803  30.061  29.682   0.348
52379W        W24804  26.056  27.718   4.741
52380W        W24805  35.632  35.572  14.051
52381W        W24806  32.670  40.017   1.439
52382W        W24807  21.043  40.330  10.839
52383W        W24808  41.212  44.029   5.066
52384W        W24809  16.087  28.122  13.412
52385W        W24810  34.194   0.062  11.114
52386W        W24811   0.146  32.334   0.408
52387W        W24812  10.164  15.953  14.342
52388W        W24813  28.188  29.238   2.173
52389W        W24814  28.653  23.741   0.284
52390W        W24815  37.034  37.601  14.324
52391W        W24816  42.479  24.947   3.877
52392W        W24817  33.382  19.816  10.393
52393W        W24818  23.315  42.470  10.618
52394W        W24819  24.315   0.484   1.867
52395W        W24820  42.874  37.989  13.410
52396W        W24821   6.228  31.899   4.205
52397W        W24822  42.134   0.940   4.168
52398W        W24823  28.015  42.240  14.000
52399W        W24824  13.322   2.210  10.452
52400W        W24825   6.870  35.509  13.875
52401W        W24826  33.998  12.715   0.222
52402W        W24827  31.929   6.086  10.274
52403W        W24828  25.610  15.573   1.656
52404W        W24829  16.262  10.815  14.972
52405W        W24830  37.147  11.723  12.954
52406W        W24831   2.799  41.428   2.004
52407W        W24832  40.502  12.758  13.619
52408W        W24833  13.656  39.001   3.708
52409W        W24834  22.281  32.791   3.305
52410W        W24835  14.251  33.580  12.197
52411W        W24836  37.346  23.610  12.351
52412W        W24837  26.023   4.944   2.454
52413W        W24838  22.345   7.307  13.403
52414W        W24839   0.755  43.128   1.875
52415W        W24840   2.667  31.668   3.118
52416W        W24841  22.713  15.538   3.282
52417W        W24842  44.902  15.900  11.645
52418W        W24843  22.093  14.822  13.440
52419W        W24844   4.048  13.122  10.310
52420W        W24845  36.648   1.031   4.267
52421W        W24846  33.522  11.114   2.814
52422W        W24847  35.871  14.559   3.327
52423W        W24848  15.580  41.851   3.900
52424W        W24849   6.379  13.884   4.901
52425W        W24850   7.734  31.605  12.454
52426W        W24851  24.112  21.707   3.261
52427W        W24852   3.668   2.229   1.932
52428W        W24853  24.390  24.199   1.818
52429W        W24854  27.710   1.985   4.783
52430W        W24855  27.342  30.537  14.793
52431W        W24856  23.936  23.987  12.473
52432W        W24857  10.337  12.076   1.450
52433W        W24858  15.099  16.708   2.591
52434W        W24859  39.518  41.927  14.873
52435W        W24860  30.970  11.107   4.138
52436W        W24861  30.524  39.077   4.765
52437W        W24862  37.634  27.906  13.236
52438W        W24863  31.579  37.510  12.277
52439W        W24864  41.880  12.052  13.348
52440W        W24865   1.796  12.751   4.627
52441W        W24866   6.355  24.493  14.212
52442W        W24867  31.360  13.302   4.763
52443W        W24868  14.676   4.373  14.081
52444W        W24869  27.478  14.699   4.345
52445W        W24870  26.883  25.190   1.406
52446W        W24871  34.912  38.902   3.326
52447W        W24872  37.592  34.610  13.625
52448W        W24873   0.419   1.092  10.455
52449W        W24874   0.259  21.521  11.945
52450W        W24875  41.925  23.675  11.064
52451W        W24876  42.083  40.359  11.172
52452W        W24877   8.190  40.214  11.179
52453W        W24878  28.519  16.020  11.016
52454W        W24879  19.637   4.299   0.506
52455W        W24880  31.971   3.583   3.235
52456W        W24881  25.781  17.261   0.547
52457W        W24882  34.575   8.240   1.012
52458W        W24883  37.068  39.959  13.075
52459W        W24884  40.414   5.663  12.508
52460W        W24885  31.747  37.335   0.972
52461W        W24886  18.938  15.941   0.945
52462W        W24887  31.086  35.891   3.801
52463W        W24888  35.258  17.739   2.215
52464W        W24889  30.600  29.773  14.287
52465W        W24890  20.348  21.489  11.531
52466W        W24891  19.650  18.081   2.345
52467W        W24892  12.868  41.515   3.827
52468W        W24893   2.784  14.288   1.183
52469W        W24894  34.027  43.087  12.044
52470W        W24895  15.984  35.327   0.427
52471W        W24896  29.386  40.431   4.606
52472W        W24897  23.165  41.582   1.818
52473W        W24898  11.755  14.291  12.057
52474W        W24899  18.186  42.957   0.299
52475W        W24900  44.778  14.830  13.981
52476W        W24901  41.945  33.215   1.132
52477W        W24902   1.943  41.053  14.924
52478W        W24903  36.592  27.170   0.904
52479W        W24904   1.677  11.921   0.926
52480W        W24905   0.714  31.604  14.436
52481W        W24906  15.214  16.725  11.486
52482W        W24907  29.766  31.823  10.896
52483W        W24908   8.345  15.773  14.434
52484W        W24909  26.189  37.480  13.057
52485W        W24910  36.489  37.459   4.064
52486W        W24911  28.291   9.383  14.427
52487W        W24912  16.176  20.116  12.855
52488W        W24913  21.135  35.886   0.925
52489W        W24914   5.154  37.130  14.678
52490W        W24915  30.061  32.517   1.356
52491W        W24916   5.864  38.939   1.674
52492W        W24917   4.797   8.667  10.547
52493W        W24918  12.882   9.694  14.370
52494W        W24919  31.679  41.238   4.256
52495W        W24920  28.074  31.805  10.745
52496W        W24921   5.148  35.549   1.218
52497W        W24922  34.491  21.747  12.819
52498W        W24923  44.882  43.757   4.730
52499W        W24924  42.912   4.480   1.406
52500W        W24925  43.522  35.613   0.887
52501W        W24926  42.712  20.581  13.385
52502W        W24927  10.398   2.457  10.553
52503W        W24928  19.089  34.864  11.591
52504W        W24929   3.005   1.457   1.888
52505W        W24930  32.162   2.308   3.509
52506W        W24931  39.222   7.890   0.890
52507W        W24932  34.392  42.746  12.132
52508W        W24933  41.581  22.622   3.395
52509W        W24934   9.081   8.359   1.306
52510W        W24935  16.731   6.287   0.945
52511W        W24936   1.353  15.064  10.748
52512W        W24937   4.887  13.189   2.340
52513W        W24938  10.172  40.522   3.996
52514W        W24939  25.673  25.620   4.331
52515W        W24940  36.833  13.484  12.607
52516W        W24941   2.290   7.604   1.779
52517W        W24942  44.474  43.511   1.924
52518W        W24943  37.647  41.267   3.705
52519W        W24944  14.028   0.213   2.103
52520W        W24945  31.349  20.765  14.974
52521W        W24946  13.784   4.727  13.025
52522W        W24947  36.959  23.802   1.793
52523W        W24948  18.815  36.807  14.759
52524W        W24949   9.952  29.407  13.297
52525W        W24950   8.409   3.524   2.770
52526W        W24951   3.803  13.399   4.140
52527W        W24952   1.669   1.318   3.127
52528W        W24953  17.161  39.273   1.237
52529W        W24954  12.289  36.208  14.923
52530W        W24955   3.161  20.358  13.463
52531W        W24956   0.710  31.942   9.946
52532W        W24957   8.756  39.607  12.865
52533W        W24958  19.202  16.181   2.392
52534W        W24959  44.803  34.973  11.011
52535W        W24960   8.329  23.655  14.277
52536W        W24961  37.313  31.434  11.525
52537W        W24962  31.408   0.410   4.061
52538W        W24963  31.050  33.094   4.099
52539W        W24964   8.303  15.816   0.886
52540W        W24965  28.146  10.920   0.921
52541W        W24966   3.944  19.759  13.339
52542W        W24967   5.450  17.125   4.929
52543W        W24968  18.680   1.540   4.996
52544W        W24969   3.942   1.720  12.182
52545W        W24970   2.536  33.080  14.196
52546W        W24971  26.574  19.253  12.503
52547W        W24972  32.206  13.164   2.800
52548W        W24973  37.886  16.865  12.519
52549W        W24974  14.611  31.967  12.169
52550W        W24975  39.351  16.456   0.522
52551W        W24976   7.541  26.994  13.978
52552W        W24977  28.134  18.212   3.838
52553W        W24978  42.461  21.309   3.373
52554W        W24979   4.461  41.442   4.496
52555W        W24980  28.524  20.463   0.314
52556W        W24981   7.266  13.762   4.271
52557W        W24982  19.150  16.168  12.402
52558W        W24983   3.743  27.599  11.260
52559W        W24984  33.671  10.675   3.044
52560W        W24985  31.372   8.116   2.748
52561W        W24986   6.673  35.949   1.896
52562W        W24987  21.411   0.921   1.832
52563W        W24988  35.475  24.741  13.256
52564W        W24989  20.679  16.276  12.932
52565W        W24990  17.083  37.679   4.510
52566W        W24991  12.321  37.063  13.436
52567W        W24992  26.121  19.452  14.696
52568W        W24993   0.370  35.096   0.013
52569W        W24994   9.927   7.961   0.882
52570W        W24995  16.272   5.857   4.392
52571W        W24996  24.573  10.340   5.406
52572W        W24997  23.120  15.652  14.028
52573W        W24998  27.937   0.471   2.160
52574W        W24999  37.857  37.972  12.179
52575W        W25000  31.607  19.680  12.624
52576W        W25001  40.994  28.481   1.341
52577W        W25002  39.961   9.171  12.889
52578W        W25003   2.819  19.137  12.997
52579W        W25004  39.980  35.362  11.546
52580W        W25005  21.773  29.139  10.677
52581W        W25006  30.158  12.223  13.120
52582W        W25007  25.434  35.233  10.719
52583W        W25008  24.546  41.569   0.945
52584W        W25009  29.650  23.119  14.113
52585W        W25010   7.812  43.059  12.902
52586W        W25011   8.901  38.936  14.601
52587W        W25012   8.919  35.779  11.822
52588W        W25013  32.411  16.361   3.289
52589W        W25014  12.875   9.233   1.834
52590W        W25015  12.155  41.948  13.826
52591W        W25016  40.072   1.679  12.857
52592W        W25017  25.029  31.480   3.568
52593W        W25018  43.942   0.682  10.833
52594W        W25019  18.530  37.839   1.879
52595W        W25020  24.443   8.158  12.781
52596W        W25021  26.578  43.929  13.510
52597W        W25022  27.883   6.636   3.130
52598W        W25023  36.974  38.166   3.754
52599W        W25024  13.311  10.866   4.535
52600W        W25025  26.217  11.527   3.410
52601W        W25026  27.644  11.178   4.615
52602W        W25027  36.944  30.360   4.184
52603W        W25028  11.770   9.798  13.047
52604W        W25029   6.204   2.303  11.926
52605W        W25030  44.073  34.620  14.412
52606W        W25031  21.141  30.811  14.484
52607W        W25032   1.147   4.747  12.399
52608W        W25033   2.845   2.303   1.960
52609W        W25034  39.479  33.818   1.275
52610W        W25035   7.617  11.298  12.994
52611W        W25036   2.412   7.823   3.698
52612W        W25037  33.757   2.201  14.063
52613W        W25038  24.484  34.217  13.113
52614W        W25039  15.736  25.654  11.225
52615W        W25040  11.227  12.256   4.308
52616W        W25041  24.000   3.087   4.006
52617W        W25042   1.070  26.426   1.923
52618W        W25043  27.589  41.117  13.046
52619W        W25044  19.124  23.690  11.072
52620W        W25045  42.436   6.822   3.585
52621W        W25046  30.827   1.826  10.763
52622W        W25047   8.912  42.026  14.104
52623W        W25048  11.388   0.315   2.734
52624W        W25049   7.144  13.307   4.061
52625W        W25050   1.804  29.890   1.791
52626W        W25051   4.360  19.257  13.282
52627W        W25052  30.459   9.724  13.552
52628W        W25053   8.287   4.385   3.195
52629W        W25054   0.446  38.067  13.620
52630W        W25055  11.222  33.328   0.758
52631W        W25056  22.247  33.994   0.278
52632W        W25057   8.683   5.570   4.085
52633W        W25058  27.583  24.790  10.640
52634W        W25059  44.872  30.482  14.284
52635W        W25060   9.692  10.336   3.490
52636W        W25061  23.566  13.323   0.361
52637W        W25062   6.789   8.063  14.156
52638W        W25063  18.069  37.997  10.947
52639W        W25064  32.422  31.943   3.153
52640W        W25065  31.940  11.305  11.601
52641W        W25066  40.805  25.662  13.572
52642W        W25067   3.634  32.523   0.931
52643W        W25068  44.923  39.906   3.887
52644W        W25069  20.279  40.382   2.784
52645W        W25070   2.206  26.329   4.987
52646W        W25071  29.688  27.466  14.251
52647W        W25072   9.032  28.952  12.805
52648W        W25073   4.703  19.302  10.764
52649W        W25074   1.374   3.025  11.512
52650W        W25075   2.443  10.634  13.075
52651W        W25076  34.643  22.111  10.580
52652W        W25077  42.528   9.562  14.291
52653W        W25078   0.731  29.545  13.769
52654W        W25079  26.689   3.020   2.857
52655W        W25080  35.628  22.659   2.339
52656W        W25081   9.817  21.229  13.950
52657W        W25082  17.700  27.862  11.166
52658W        W25083  10.668  17.124   4.524
52659W        W25084  36.055   0.079   1.740
52660W        W25085  27.446  17.698   0.959
52661W        W25086  32.278  22.426  13.929
52662W        W25087  10.217  40.432  14.767
52663W        W25088  22.185  10.365  11.587
52664W        W25089   7.162  27.503   1.787
52665W        W25090   6.431   0.813   1.191
52666W        W25091  17.241  27.014  11.982
52667W        W25092  43.252  40.228   0.750
52668W        W25093  40.457   7.188   4.816
52669W        W25094  19.633  27.141  13.766
52670W        W25095  14.093  14.128  13.647
52671W        W25096   1.792  10.383   1.699
52672W        W25097  36.966  26.250  11.590
52673W        W25098  27.596  12.209  14.317
52674W        W25099  39.483  33.661  10.677
52675W        W25100   3.341  18.297   0.196
52676W        W25101  40.096   4.519   3.248
52677W        W25102   1.450  44.308   3.734
52678W        W25103   4.444  44.759  14.407
52679W        W25104  36.482  15.318   2.351
52680W        W25105  36.941  36.731   0.420
52681W        W25106   5.208   6.127   4.560
52682W        W25107  30.604  20.064  14.516
52683W        W25108  16.399  24.471  14.714
52684W        W25109  44.142  35.427  11.429
52685W        W25110  40.974  12.418  12.879
52686W        W25111  35.894  19.979   4.104
52687W        W25112  35.561  37.466   4.107
52688W        W25113  38.169  31.890  13.530
52689W        W25114  26.862   4.832   0.420
52690W        W25115   7.259  36.457   2.154
52691W        W25116  32.997  13.699   1.744
52692W        W25117  17.600  22.169   4.855
52693W        W25118  40.331   6.335   4.469
52694W        W25119  10.089  25.427  12.848
52695W        W25120   5.889  10.376  10.894
52696W        W25121  11.717  44.411   3.797
52697W        W25122  11.381  41.819   3.334
52698W        W25123  11.505  23.072   4.529
52699W        W25124  41.538  35.117  11.969
52700W        W25125  13.886  35.446   3.207
52701W        W25126   6.432  35.342   3.671
52702W        W25127  44.440  16.285  12.379
52703W        W25128  40.527  13.978   4.651
52704W        W25129   5.346  18.984  12.448
52705W        W25130  35.440   3.326  13.134
52706W        W25131  10.357  35.029  12.379
52707W        W25132  43.040  13.225   4.616
52708W        W25133  14.097  19.334  12.560
52709W        W25134  28.549  14.512  11.643
52710W        W25135   9.443   3.724  11.099
52711W        W25136  19.305   2.901   1.886
52712W        W25137  29.507  31.461  14.348
52713W        W25138  20.607  18.668  11.220
52714W        W25139  30.557   5.025  11.130
52715W        W25140  24.567  27.505   0.331
52716W        W25141   6.328  16.830   0.321
52717W        W25142   3.728  43.211   3.157
52718W        W25143   3.046  19.317   1.203
52719W        W25144  42.771  43.475  13.986
52720W        W25145  27.492  23.627   2.257
52721W        W25146  33.619   9.159   4.488
52722W        W25147   3.315   2.011  14.895
52723W        W25148   1.225   3.858  14.993
52724W        W25149   7.629   2.303  10.396
52725W        W25150  30.238  13.954   3.701
52726W        W25151   4.993  14.114  14.370
52727W        W25152  20.249  43.468  13.925
52728W        W25153  28.971  43.311   0.139
52729W        W25154  21.272  37.304   5.015
52730W        W25155  23.783  16.660   4.748
52731W        W25156  35.555  35.828   0.904
52732W        W25157  29.437  24.673   2.865
52733W        W25158   9.671  28.186  11.879
52734W        W25159  22.015   0.818   3.603
52735W        W25160  34.906   2.915  11.566
52736W        W25161  44.363   9.663  10.002
52737W        W25162   3.440  35.860   3.331
52738W        W25163  26.246  41.799   0.831
52739W        W25164   4.746   0.795  11.425
52740W        W25165  12.252  25.124  14.868
52741W        W25166  25.669  26.187  13.329
52742W        W25167   7.411  12.257   4.639
52743W        W25168  15.721   7.321  10.350
52744W        W25169  40.701   4.879   2.243
52745W        W25170   5.458  31.157  13.090
52746W        W25171   5.664  28.707   0.697
52747W        W25172  27.061  35.156  13.051
52748W        W25173   0.408  25.571   3.457
52749W        W25174  37.450  27.427   4.855
52750W        W25175  15.828  36.861  12.454
52751W        W25176   3.607  33.496  13.019
52752W        W25177   9.036  24.604   4.571
52753W        W25178  40.910  19.580   4.662
52754W        W25179  12.213  19.619   3.299
52755W        W25180  14.316  23.427  11.542
52756W        W25181  13.329  23.648   3.388
52757W        W25182  16.614  24.276   0.729
52758W        W25183   3.917  22.118   4.765
52759W        W25184   9.285  17.107  11.440
52760W        W25185   2.532  25.769  12.848
52761W        W25186  20.566  14.700   2.597
52762W        W25187  22.164  17.398   3.724
52763W        W25188  35.223  41.516   1.915
52764W        W25189  41.012  16.184   2.746
52765W        W25190  33.930  19.370  11.143
52766W        W25191  27.432  44.013  12.945
52767W        W25192  28.975   3.682  13.039
52768W        W25193   2.861  10.666   2.203
52769W        W25194  20.975  24.091   2.375
52770W        W25195  31.342  32.423  14.981
52771W        W25196  20.614   9.688  12.595
52772W        W25197   5.082  11.262  12.923
52773W        W25198   9.921  34.301   0.871
52774W        W25199  42.935  23.552  12.179
52775W        W25200  28.159   5.408  12.898
52776W        W25201  34.513  15.423  14.886
52777W        W25202  13.149   7.311   1.456
52778W        W25203  33.844  28.224   2.864
52779W        W25204   0.088  13.487   3.311
52780W        W25205  24.550  22.200  12.036
52781W        W25206   6.752   4.822   2.606
52782W        W25207  11.207   0.707  12.084
52783W        W25208   5.540  19.803   1.881
52784W        W25209  30.149  31.547  13.191
52785W        W25210  41.311  14.707  11.935
52786W        W25211  31.528   3.112   1.522
52787W        W25212  27.370  18.553   3.071
52788W        W25213  25.438   6.899  12.897
52789W        W25214  42.904   4.098   4.100
52790W        W25215  22.589  10.284  11.259
52791W        W25216  38.597  22.107  11.058
52792W        W25217  35.612  26.132   1.904
52793W        W25218  17.420  23.655   3.673
52794W        W25219  27.121  23.469  12.936
52795W        W25220   1.980  40.332  14.101
52796W        W25221  39.079  11.544   4.078
52797W        W25222  30.090  33.489   1.867
52798W        W25223  42.052  26.701   2.297
52799W        W25224  33.974  43.391   2.410
52800W        W25225  22.851  17.540   4.892
52801W        W25226  15.691  35.071   0.079
52802W        W25227  24.951   0.753   3.877
52803W        W25228  16.562  41.246  12.868
52804W        W25229   9.343  30.646  11.622
52805W        W25230  16.117  33.443   4.935
52806W        W25231  20.825  15.848   0.039
52807W        W25232  10.458  39.093  11.174
52808W        W25233  42.054  10.715   4.259
52809W        W25234   1.452  41.639  14.577
52810W        W25235  38.549   8.384   3.599
52811W        W25236  13.162  42.452   3.118
52812W        W25237   2.983  15.276   2.120
52813W        W25238  27.152  29.354  13.087
52814W        W25239  41.277  19.617  13.011
52815W        W25240  26.238  15.343  13.431
52816W        W25241  29.495  43.286   1.962
52817W        W25242  37.510  35.502  13.928
52818W        W25243  11.336  25.656   4.729
52819W        W25244   2.296  33.229  11.167
52820W        W25245  19.091   1.769   9.479
52821W        W25246  28.234  19.184  10.703
52822W        W25247   9.818  13.737   2.270
52823W        W25248   7.791  20.423   1.353
52824W        W25249  41.999  21.493   3.105
52825W        W25250  15.660  19.295   0.721
52826W        W25251  44.094  43.703  11.426
52827W        W25252  12.680  36.837   3.693
52828W        W25253  25.523  20.296   3.390
52829W        W25254  14.506  40.727  14.361
52830W        W25255  43.392  16.153   4.191
52831W        W25256  38.393  18.373  12.640
52832W        W25257  24.447   6.953   2.825
52833W        W25258  44.788  12.704   2.667
52834W        W25259   5.286  28.704  11.755
52835W        W25260  43.017   2.868  10.669
52836W        W25261  22.541  16.566   3.343
52837W        W25262  35.379  12.543  11.193
52838W        W25263  29.444  12.060  11.065
52839W        W25264  37.474  19.266   0.972
52840W        W25265  36.889  12.327   4.675
52841W        W25266  38.502   3.485  10.689
52842W        W25267  12.972  37.027   4.647
52843W        W25268  15.592  24.266   2.357
52844W        W25269  11.322  11.868  14.065
52845W        W25270  30.427  44.671  10.619
52846W        W25271  13.576  13.111   3.206
52847W        W25272  12.334  13.868   3.701
52848W        W25273   4.000  29.924   4.067
52849W        W25274  12.659  30.676   2.347
52850W        W25275  31.435  22.997  13.506
52851W        W25276  13.629  37.515  12.608
52852W        W25277  36.890  32.136   0.363
52853W        W25278  41.517  22.910  12.059
52854W        W25279   8.928   2.761  11.616
52855W        W25280  22.664  26.466  10.303
52856W        W25281  28.901  41.063  12.857
52857W        W25282  38.366  41.821  11.157
52858W        W25283   7.305  21.824  13.000
52859W        W25284  15.201   0.113   5.418
52860W        W25285  17.219  44.857  13.493
52861W        W25286  32.575   7.684   2.225
52862W        W25287  28.841  26.738   0.345
52863W        W25288  21.580  27.755  13.002
52864W        W25289   4.335  13.512   3.408
52865W        W25290  27.334  30.445   3.985
52866W        W25291   2.381  29.326   0.893
52867W        W25292  14.476  33.331   2.887
52868W        W25293  30.879  32.986   3.127
52869W        W25294   9.575  39.091   1.258
52870W        W25295  39.870  22.484  11.184
52871W        W25296  20.243  35.037   2.853
52872W        W25297   8.168  29.624   0.412
52873W        W25298  35.165   1.798   4.605
52874W        W25299  33.583   0.103   4.923
52875W        W25300  22.857  27.048  13.348
52876W        W25301  19.204  43.458   1.550
52877W        W25302  32.967  42.899  11.197
52878W        W25303  14.262  43.895   1.172
52879W        W25304  44.793   0.972  11.616
52880W        W25305  34.140  24.135  11.501
52881W        W25306  37.905  19.779   0.707
52882W        W25307  15.688  44.262  13.065
52883W        W25308  25.504   5.374  13.588
52884W        W25309  36.328  16.825   0.268
52885W        W25310  12.209  29.318   4.209
52886W        W25311  40.938  42.330   4.747
52887W        W25312  25.216  33.863  12.483
52888W        W25313  38.141  13.163  12.863
52889W        W25314  21.168   5.793   3.822
52890W        W25315  42.584  44.359  10.580
52891W        W25316   5.710  19.686   0.817
52892W        W25317  41.396  22.965  14.823
52893W        W25318  17.273  34.070  12.450
52894W        W25319   9.947   1.806   4.453
52895W        W25320   2.447  37.905   2.687
52896W        W25321  33.876   6.527   4.047
52897W        W25322  34.582   0.495   3.523
52898W        W25323  26.994  22.174  11.034
52899W        W25324  26.024  41.382  11.694
52900W        W25325   2.885  16.280  11.260
52901W        W25326  14.567  38.400  10.616
52902W        W25327  25.458  35.970  13.394
52903W        W25328  41.513  17.416   4.561
52904W        W25329  34.451  26.164  11.966
52905W        W25330  40.228  24.689  10.678
52906W        W25331  27.242  21.419  11.114
52907W        W25332  25.022   3.750  12.539
52908W        W25333   7.253  32.975   2.427
52909W        W25334   0.811  17.531   2.397
52910W        W25335  18.868  22.352  12.033
52911W        W25336  20.673  22.479  14.937
52912W        W25337  32.346   2.975  12.566
52913W        W25338  15.255   3.591  13.559
52914W        W25339  36.353  28.388  10.924
52915W        W25340   3.273  29.535  11.813
52916W        W25341  28.167  20.618   4.561
52917W        W25342  31.884  33.073  14.923
52918W        W25343  24.611  38.007   0.245
52919W        W25344   2.600  26.916   2.548
52920W        W25345  36.511  40.528   2.728
52921W        W25346  33.853  14.678  11.808
52922W        W25347   1.352  23.054  14.873
52923W        W25348  40.907   2.679  13.466
52924W        W25349  31.147  29.449  12.006
52925W        W25350  25.153  15.212   4.558
52926W        W25351   4.661  44.267  12.844
52927W        W25352  22.151  17.222   2.163
52928W        W25353  15.544  40.447   3.613
52929W        W25354   2.722  12.695   2.801
52930W        W25355  31.157  24.961   2.398
52931W        W25356   7.077  24.047   3.200
52932W        W25357  13.775  14.332   2.844
52933W        W25358  14.348  11.277   4.172
52934W        W25359  36.608  31.643   4.307
52935W        W25360  37.030  34.582  13.613
52936W        W25361  44.728   8.475   1.345
52937W        W25362  11.573  37.330   3.673
52938W        W25363  30.926  20.682  10.662
52939W        W25364  21.749  41.195   2.154
52940W        W25365   0.495  17.703   1.989
52941W        W25366   1.087  23.522  14.763
52942W        W25367   8.926  31.426  10.822
52943W        W25368  36.047   8.961  11.333
52944W        W25369   1.842  26.977   0.306
52945W        W25370  18.216  44.996   1.656
52946W        W25371  24.512  40.724  12.524
52947W        W25372   7.962  33.624   4.164
52948W        W25373  39.749  36.431  13.805
52949W        W25374  14.674  43.847   3.929
52950W        W25375   1.492  42.262   1.288
52951W        W25376   8.031  17.999   2.358
52952W        W25377  38.881  28.262   5.048
52953W        W25378  35.679   6.754  13.617
52954W        W25379   4.712  43.852  11.186
52955W        W25380   8.175  42.367  12.393
52956W        W25381  21.511   9.078   2.759
52957W        W25382  17.230  34.321   3.077
52958W        W25383  42.571  38.363  14.980
52959W        W25384   5.903   7.456  14.992
52960W        W25385  13.716  37.450   4.609
52961W        W25386  13.076  39.577   4.067
52962W        W25387   5.366  22.050  11.435
52963W        W25388  14.552  14.516   4.111
52964W        W25389  17.621  18.139  12.900
52965W        W25390  28.086  44.109  11.381
52966W        W25391  13.725   3.863   2.638
52967W        W25392  26.145  30.118  13.100
52968W        W25393  16.180  15.314  14.473
52969W        W25394   9.330  17.276   3.605
52970W        W25395  14.530   7.903  14.938
52971W        W25396  29.114  37.375  14.484
52972W        W25397  25.554  10.420  13.911
52973W        W25398  16.206  19.302  14.404
52974W        W25399  30.158  16.094  11.943
52975W        W25400  38.011  39.349  13.537
52976W        W25401  10.193  17.765  10.779
52977W        W25402   3.039  44.371   3.348
52978W        W25403  20.011  22.740  12.454
52979W        W25404  31.051  43.547  12.816
52980W        W25405  18.702   3.790   4.133
52981W        W25406   5.951   5.893  10.473
52982W        W25407  24.108  34.157   3.634
52983W        W25408  13.074  16.053  14.061
52984W        W25409  20.199   4.926  12.967
52985W        W25410  15.310  31.714  11.604
52986W        W25411  25.587  37.369  10.722
52987W        W25412  26.255  10.206  12.908
52988W        W25413   4.213  30.530   2.207
52989W        W25414   3.296  11.694   2.259
52990W        W25415  14.719  23.572  12.608
52991W        W25416  22.794  42.358   3.907
52992W        W25417  19.718  25.626  14.928
52993W        W25418  29.217  32.354   3.699
52994W        W25419  24.722  13.695  14.867
52995W        W25420  28.968  33.361  13.784
52996W        W25421  28.090  33.543   4.540
52997W        W25422  32.950  38.668   0.293
52998W        W25423  41.276  42.326   1.877
52999W        W25424  44.170   5.228   4.989
53000W        W25425   7.187   1.569   2.262
53001W        W25426  13.714  43.674   0.908
53002W        W25427   5.233   2.556  12.882
53003W        W25428   6.699   7.251  14.410
53004W        W25429   5.993  23.090   3.699
53005W        W25430  21.698   9.387  10.270
53006W        W25431   0.470   2.381  13.400
53007W        W25432  14.599  15.581   0.629
53008W        W25433   6.190  38.501  10.540
53009W        W25434   1.561   0.448   4.045
53010W        W25435  11.529  38.036  12.873
53011W        W25436  29.660   8.830   1.016
53012W        W25437  30.878  35.632  11.185
53013W        W25438   9.119  35.544   2.315
53014W        W25439  27.100  12.512  13.541
53015W        W25440   6.426  39.378   4.148
53016W        W25441  14.513  42.548   3.866
53017W        W25442  44.932   2.506   4.456
53018W        W25443  34.826  22.233  11.058
53019W        W25444   4.554  18.956  14.101
53020W        W25445  30.010  17.773  14.052
53021W        W25446   4.713  15.449   4.594
53022W        W25447   2.171  35.052  14.474
53023W        W25448  22.773  26.096  14.355
53024W        W25449  26.525  33.915   2.230
53025W        W25450  36.450   7.619   0.851
53026W        W25451  24.545  18.522   2.417
53027W        W25452  19.248  19.107  11.903
53028W        W25453  33.905   8.207  12.134
53029W        W25454  29.311  33.793   1.475
53030W        W25455   9.740  12.650   0.042
53031W        W25456  17.641  21.539  13.942
53032W        W25457  33.449  26.045  13.498
53033W        W25458  10.594  24.981  11.491
53034W        W25459  27.633  38.972   3.737
53035W        W25460  18.563  38.462  14.266
53036W        W25461  16.518  25.631  13.386
53037W        W25462  41.517  19.830  12.613
53038W        W25463   7.059   9.197  11.886
53039W        W25464  42.490  29.111  14.432
53040W        W25465   6.888  36.615   2.455
53041W        W25466  16.460   4.675  14.377
53042W        W25467  32.245  37.321  10.415
53043W        W25468  21.613  38.862  11.621
53044W        W25469   0.833  39.202   4.755
53045W        W25470  28.658  29.061   4.617
53046W        W25471  43.791  25.097   4.125
53047W        W25472  29.196  29.951   0.911
53048W        W25473  23.744   1.623  14.398
53049W        W25474   1.865   1.045   0.464
53050W        W25475   5.407  30.145   3.172
53051W        W25476  28.671  12.051   3.639
53052W        W25477   2.676  21.515  12.777
53053W        W25478  29.651  14.228   1.366
53054W        W25479  11.559   5.354   1.782
53055W        W25480  11.516   8.202   5.382
53056W        W25481  22.216  10.742   4.635
53057W        W25482  17.738  40.294  11.060
53058W        W25483   5.363  36.075  11.755
53059W        W25484  38.805  25.973   3.092
53060W        W25485   3.675   3.362   5.254
53061W        W25486  29.442  22.743   3.705
53062W        W25487  16.078   1.917   0.731
53063W        W25488   5.846  31.666  14.424
53064W        W25489  14.277   1.708  14.534
53065W        W25490   1.304   7.716   1.819
53066W        W25491  20.088   1.289   0.438
53067W        W25492  21.088  23.076  10.640
53068W        W25493  44.425  28.909  12.935
53069W        W25494  42.231   2.255   4.250
53070W        W25495  36.034  41.705  14.348
53071W        W25496  27.634  25.443   2.225
53072W        W25497   8.411  15.211   2.259
53073W        W25498   7.441  36.556   0.677
53074W        W25499  36.006   7.505   1.527
53075W        W25500  29.428  44.572   1.291
53076W        W25501   3.442  25.179   3.235
53077W        W25502   2.268  15.838   1.500
53078W        W25503  14.059   0.495   0.304
53079W        W25504  11.476   0.841  11.639
53080W        W25505  42.860  11.313  13.538
53081W        W25506  32.985  18.584   3.598
53082W        W25507   6.588  14.405   2.836
53083W        W25508  25.247  39.963   0.988
53084W        W25509  38.595  31.612  12.837
53085W        W25510  15.850  43.299   2.222
53086W        W25511  41.356  31.502   0.645
53087W        W25512  26.023  24.109   2.574
53088W        W25513  31.659  27.875  12.038
53089W        W25514  18.869  34.666   0.503
53090W        W25515   2.759  37.419   0.082
53091W        W25516   4.367   7.545   4.773
53092W        W25517  32.936   3.717  14.346
53093W        W25518  29.489  26.796  13.318
53094W        W25519  13.200  22.540   1.251
53095W        W25520  33.450  44.705   1.770
53096W        W25521  19.679  17.314  14.066
53097W        W25522  37.978  12.079   3.271
53098W        W25523  36.680  38.378  14.226
53099W        W25524  39.646  30.080  14.176
53100W        W25525  43.420  39.008  13.290
53101W        W25526  22.615  11.055   0.327
53102W        W25527  18.697   9.816   0.780
53103W        W25528   2.229  38.547  12.512
53104W        W25529  29.943  25.698  12.222
53105W        W25530  26.834  18.552   1.636
53106W        W25531  26.174  43.030  11.660
53107W        W25532  15.808   2.822   2.216
53108W        W25533  37.246  38.789  13.710
53109W        W25534  32.347  12.937   0.003
53110W        W25535  12.166  17.532   1.299
53111W        W25536   3.291  23.808  13.949
53112W        W25537  36.094  25.898  13.119
53113W        W25538  37.155   0.841   0.607
53114W        W25539  16.560  38.503  12.022
53115W        W25540  19.849  37.588   3.079
53116W        W25541   0.782  40.402  13.549
53117W        W25542  31.721  13.743  14.336
53118W        W25543  39.073  38.913  10.427
53119W        W25544  38.383  27.554  11.031
53120W        W25545  22.031  42.535  11.125
53121W        W25546   2.687  22.261  10.357
53122W        W25547  24.264  39.406   4.529
53123W        W25548  36.359  29.511   4.769
53124W        W25549  23.518  42.790  13.504
53125W        W25550  22.283   1.002  13.929
53126W        W25551   4.510  21.842   1.771
53127W        W25552  39.663  31.222  14.012
53128W        W25553  36.367  38.621  11.945
53129W        W25554  34.499  34.462   4.661
53130W        W25555  20.126  22.504  13.794
53131W        W25556   2.276  25.574  10.813
53132W        W25557  18.744  40.267   4.905
53133W        W25558  24.067  24.929  14.861
53134W        W25559  19.232  32.240   5.568
53135W        W25560   0.329  44.363   0.776
53136W        W25561  23.124  26.809   0.318
53137W        W25562   5.442   7.739   4.203
53138W        W25563  44.898  33.147  12.878
53139W        W25564  40.403  41.742  11.004
53140W        W25565  33.906   8.499  10.782
53141W        W25566  22.337  30.476  12.155
53142W        W25567   2.442   5.322  11.016
53143W        W25568  26.475  39.327  12.710
53144W        W25569   0.886   8.389   4.586
53145W        W25570  32.147  20.254   4.977
53146W        W25571  19.647   9.678  13.841
53147W        W25572  10.424  20.587  12.460
53148W        W25573  29.093  17.030  14.872
53149W        W25574   9.380  12.154   1.291
53150W        W25575  38.420  16.723   0.993
53151W        W25576  40.277  29.659   2.721
53152W        W25577  37.533   9.095   3.874
53153W        W25578  28.169  29.194   0.310
53154W        W25579  11.984   0.789   5.023
53155W        W25580  15.725  32.025  14.988
53156W        W25581  22.519   4.945   5.017
53157W        W25582  20.870  38.971   3.322
53158W        W25583   5.159  19.920  14.565
53159W        W25584  23.503  28.618  14.176
53160W        W25585  35.393  20.644  13.336
53161W        W25586  27.640  15.254   3.035
53162W        W25587  32.975  39.264   3.317
53163W        W25588   7.287  21.581   3.922
53164W        W25589  41.240  12.800   0.671
53165W        W25590  33.974  13.860   0.407
53166W        W25591  35.026   5.788  14.188
53167W        W25592  28.654  24.027   1.723
53168W        W25593  36.919  43.576   1.738
53169W        W25594  31.982   0.043   4.139
53170W        W25595  19.736   7.945   1.329
53171W        W25596  23.113   5.701   4.872
53172W        W25597   7.791  39.043  11.667
53173W        W25598   3.017   9.828  13.963
53174W        W25599   9.871  17.115   4.120
53175W        W25600  20.130  10.211   4.097
53176W        W25601  13.691  21.814  11.921
53177W        W25602   4.221  28.579   1.406
53178W        W25603  13.677  40.325   4.621
53179W        W25604  40.566  19.745  12.470
53180W        W25605   1.429  17.893  13.024
53181W        W25606  15.122  10.835  14.866
53182W        W25607  35.439  11.113  13.378
53183W        W25608  40.027   7.243   4.522
53184W        W25609  26.193  21.961   1.829
53185W        W25610  42.065  28.151   4.104
53186W        W25611  44.687  29.019  13.398
53187W        W25612  44.285  27.174   3.197
53188W        W25613  41.371  39.378  10.706
53189W        W25614  27.983   9.740   4.184
53190W        W25615  41.808  17.125   1.073
53191W        W25616  43.209   3.956   0.966
53192W        W25617  35.600  22.672  12.407
53193W        W25618  14.146  13.098  14.334
53194W        W25619   7.691  24.221   2.912
53195W        W25620  22.809  18.596  11.071
53196W        W25621  32.612   8.131   1.949
53197W        W25622   5.944  32.924   3.628
53198W        W25623  13.212   2.449   2.640
53199W        W25624  29.559  28.001   5.001
53200W        W25625  26.741   2.506  12.960
53201W        W25626  27.754   0.848   3.365
53202W        W25627   9.274  27.193   2.739
53203W        W25628  21.149  34.046  11.555
53204W        W25629   2.310  40.578  10.423
53205W        W25630  40.391  26.925  11.453
53206W        W25631  29.186   9.727  13.133
53207W        W25632  10.825   9.124  12.320
53208W        W25633  42.760  24.225   0.359
53209W        W25634  13.803  20.572   1.335
53210W        W25635  35.086   7.877   1.251
53211W        W25636  30.689  38.250   4.072
53212W        W25637  25.749   0.418   1.968
53213W        W25638  40.860  39.052   4.038
53214W        W25639  15.907   5.065   4.258
53215W        W25640  16.234  43.361  12.548
53216W        W25641  13.716  38.509  10.490
53217W        W25642  18.222  36.926  12.058
53218W        W25643  36.006   6.946  11.322
53219W        W25644  23.563   3.436  10.913
53220W        W25645  26.083  40.390  14.897
53221W        W25646  20.789   4.206  13.061
53222W        W25647  15.726  37.150   3.304
53223W        W25648   8.667   5.397   2.218
53224W        W25649  40.803  44.912   2.339
53225W        W25650  38.295  30.059   2.564
53226W        W25651  11.838  14.944   0.290
53227W        W25652  15.422  40.958  14.074
53228W        W25653  37.915  24.176  11.370
53229W        W25654  28.825  42.767   4.194
53230W        W25655  41.403  30.598  10.561
53231W        W25656   1.722  42.262   4.076
53232W        W25657  10.059  41.817   4.239
53233W        W25658   9.180  42.865   3.344
53234W        W25659  31.060  24.317  11.498
53235W        W25660   7.193  28.990   2.518
53236W        W25661  38.912  13.816  13.811
53237W        W25662  44.292  41.234  12.441
53238W        W25663  16.784   3.845   1.455
53239W        W25664  32.333   2.469  14.373
53240W        W25665  42.629   7.364   1.919
53241W        W25666  44.502  40.504  11.044
53242W        W25667  40.761  25.943   3.178
53243W        W25668  28.833  40.396  13.451
53244W        W25669   0.241   1.005   3.798
53245W        W25670  21.705  37.069   3.291
53246W        W25671  28.064  11.877   2.846
53247W        W25672  10.381  36.150   0.721
53248W        W25673   5.850  30.050   0.453
53249W        W25674  34.958  15.145   1.877
53250W        W25675  27.990   8.895   2.069
53251W        W25676  38.471   1.833   4.998
53252W        W25677  22.740   8.942  14.874
53253W        W25678  15.669  20.018  11.430
53254W        W25679  22.926   7.909   3.578
53255W        W25680  37.083   6.081  11.762
53256W        W25681   0.754  44.397   0.448
53257W        W25682   7.410   3.895   0.043
53258W        W25683   6.644  10.704   1.226
53259W        W25684  11.194  13.282  10.618
53260W        W25685  21.636  21.120  13.550
53261W        W25686   7.266  18.674   2.100
53262W        W25687  27.197  36.603  12.070
53263W        W25688  43.435  43.647  12.445
53264W        W25689  25.305   1.761   3.866
53265W        W25690  40.432  34.552   0.975
53266W        W25691  17.351  37.629  10.022
53267W        W25692   1.771  37.878  11.463
53268W        W25693  12.320  34.466  11.537
53269W        W25694  42.455  36.816   4.086
53270W        W25695  24.616   4.585  12.402
53271W        W25696  39.903  18.801   4.035
53272W        W25697  43.854  10.572   1.715
53273W        W25698  34.053   2.366   3.166
53274W        W25699  40.841  16.664  13.270
53275W        W25700   9.302  32.224  10.632
53276W        W25701  44.985  26.998  13.416
53277W        W25702  30.599  23.703   2.331
53278W        W25703   3.230  42.937  13.512
53279W        W25704  41.333  23.789   1.017
53280W        W25705   8.892   8.660  12.873
53281W        W25706  28.192   9.821  10.805
53282W        W25707  12.038  41.292  11.987
53283W        W25708  21.845  27.565  13.406
53284W        W25709  19.285   4.210  10.714
53285W        W25710  32.021  36.898   0.172
53286W        W25711  24.541  27.641   3.362
53287W        W25712  22.815  44.740  14.349
53288W        W25713  41.183   5.937   4.781
53289W        W25714  33.370  27.440   1.064
53290W        W25715  23.616  42.223  12.371
53291W        W25716  26.744   8.241   0.349
53292W        W25717  21.585   0.965   4.454
53293W        W25718  39.946  32.413   2.142
53294W        W25719  40.038  27.789   0.856
53295W        W25720  32.401   2.733  13.036
53296W        W25721  12.343  40.015   1.461
53297W        W25722  27.247  30.626  14.302
53298W        W25723   9.685   0.424  14.328
53299W        W25724  43.695   6.609   1.514
53300W        W25725   6.351  15.109  13.692
53301W        W25726   1.440   0.736  12.434
53302W        W25727  26.976   2.421  11.958
53303W        W25728   4.191  12.250   2.022
53304W        W25729  17.988   4.175  11.878
53305W        W25730  41.226  24.513   0.321
53306W        W25731  26.593  42.050   3.752
53307W        W25732  43.569  40.363   3.210
53308W        W25733   8.678  13.406   0.020
53309W        W25734  28.488  33.669   0.857
53310W        W25735  17.060  19.191   2.414
53311W        W25736  24.541  26.397   3.833
53312W        W25737   4.928  40.000   3.609
53313W        W25738  36.360   0.728   1.930
53314W        W25739  15.015  18.544   3.588
53315W        W25740   5.816   1.325   3.075
53316W        W25741  33.541   9.295   2.657
53317W        W25742   2.906   1.336   0.786
53318W        W25743   6.410  24.521   0.902
53319W        W25744  10.872  42.685  11.060
53320W        W25745   1.495  35.929  13.000
53321W        W25746  28.246  31.048   2.209
53322W        W25747  23.870  27.927  14.449
53323W        W25748  21.930   4.966  13.264
53324W        W25749  15.791  21.242   1.937
53325W        W25750  41.777  22.027  13.833
53326W        W25751  26.927  35.283  11.627
53327W        W25752  20.932  21.214  12.816
53328W        W25753   4.946  40.478  10.322
53329W        W25754  42.387  32.225   3.853
53330W        W25755  37.360  36.835   0.920
53331W        W25756   3.757  18.641  13.142
53332W        W25757   3.870   6.754  14.611
53333W        W25758   4.199  43.183   4.906
53334W        W25759  17.672  30.690  13.032
53335W        W25760   7.124  44.743   0.377
53336W        W25761  34.060  36.161  12.343
53337W        W25762  35.102   3.590  14.839
53338W        W25763  22.015   8.653  11.144
53339W        W25764  42.480  17.294   3.621
53340W        W25765   8.596  24.218   0.928
53341W        W25766  35.532  32.252  12.527
53342W        W25767  10.925  27.561   4.098
53343W        W25768  34.583   0.758   0.459
53344W        W25769  38.055  43.984   9.812
53345W        W25770  40.494  42.272  14.786
53346W        W25771  34.316  16.195  12.342
53347W        W25772  15.902   0.066   0.487
53348W        W25773  26.941  41.614  13.872
53349W        W25774  36.086  18.034  12.534
53350W        W25775  35.492  42.991   1.305
53351W        W25776  11.258   7.878  14.664
53352W        W25777  10.486  35.305   3.591
53353W        W25778  12.380  43.675   1.413
53354W        W25779  37.034  40.482   0.946
53355W        W25780   0.495   9.252  10.447
53356W        W25781   4.390  29.602   3.847
53357W        W25782  36.896  27.380   3.188
53358W        W25783  31.138  12.545  11.920
53359W        W25784  32.497  39.480   3.242
53360W        W25785   1.806   0.028   3.863
53361W        W25786  10.437  44.761  13.521
53362W        W25787  41.314  27.797  13.881
53363W        W25788  21.142  22.148   0.750
53364W        W25789   4.705  32.446  13.521
53365W        W25790  39.890  19.241  13.543
53366W        W25791  14.096  13.335  13.422
53367W        W25792   0.452  23.916  10.653
53368W        W25793  11.240  15.299   1.920
53369W        W25794  37.868  19.880   3.708
53370W        W25795   2.536  19.286   1.298
53371W        W25796  18.097   5.386  13.810
53372W        W25797  17.163  25.034  13.992
53373W        W25798  37.881  29.120   1.212
53374W        W25799  26.686   0.455   3.735
53375W        W25800  36.621   5.227   3.236
53376W        W25801  12.557  20.791   2.185
53377W        W25802  17.880  34.123   1.163
53378W        W25803  38.362  32.451  10.604
53379W        W25804  28.826   8.804  11.136
53380W        W25805   7.210  43.087  11.359
53381W        W25806   5.693  43.248  13.483
53382W        W25807  24.732  30.766   4.533
53383W        W25808  36.862   0.480   4.608
53384W        W25809  42.295  15.333   0.468
53385W        W25810   3.630  15.596  14.986
53386W        W25811  19.747   3.828   1.421
53387W        W25812  39.915  35.348  14.975
53388W        W25813  18.060   2.285  13.972
53389W        W25814  35.859  35.125  12.949
53390W        W25815   9.736  20.606  13.565
53391W        W25816  39.630  33.711  11.940
53392W        W25817  14.175  38.600   4.682
53393W        W25818  34.319  40.736  10.531
53394W        W25819  41.339  29.915   1.091
53395W        W25820  12.761  28.300  12.359
53396W        W25821  43.938  27.956   4.999
53397W        W25822  27.505  27.468  13.891
53398W        W25823  31.420   6.334   4.299
53399W        W25824   0.836  17.089  12.880
53400W        W25825  28.663  41.487   0.222
53401W        W25826  21.810  21.332   1.324
53402W        W25827  44.439  36.970  13.008
53403W        W25828   0.154  27.131  11.216
53404W        W25829   0.978   6.578   3.879
53405W        W25830  27.245   2.295   1.681
53406W        W25831   4.439  13.643   1.412
53407W        W25832  44.696  10.340   4.591
53408W        W25833  23.073  41.718   2.894
53409W        W25834  19.111  10.223   0.939
53410W        W25835  16.164   1.734   3.193
53411W        W25836  10.215   1.057   5.265
53412W        W25837  16.684   8.288  10.968
53413W        W25838   5.936  21.736   4.570
53414W        W25839  19.596  23.798  13.592
53415W        W25840  22.080   7.204   4.595
53416W        W25841  17.703  11.296   2.641
53417W        W25842   8.755   3.216  10.470
53418W        W25843  13.933  28.670  10.713
53419W        W25844  37.127   2.183  13.003
53420W        W25845  27.579  31.621   2.305
53421W        W25846  21.923  32.443  11.654
53422W        W25847  14.386  10.875  13.547
53423W        W25848  37.202   3.963  11.600
53424W        W25849  29.596  35.525  11.189
53425W        W25850  13.217  27.358  13.730
53426W        W25851   8.201  22.497   3.736
53427W        W25852  16.138  23.901  11.537
53428W        W25853  10.558  30.662  14.928
53429W        W25854   7.026  33.063  11.508
53430W        W25855  11.151  23.112  12.393
53431W        W25856  11.378  17.362   1.798
53432W        W25857  23.543  15.375  14.269
53433W        W25858  27.710  21.598   3.202
53434W        W25859  36.017   5.012   3.757
53435W        W25860  44.031  20.563  12.613
53436W        W25861  26.716  39.461   1.050
53437W        W25862  30.616  38.395  10.634
53438W        W25863  42.247  14.863  12.951
53439W        W25864   5.102  23.164   2.327
53440W        W25865  40.444   3.498   2.717
53441W        W25866  12.199  19.242   0.988
53442W        W25867  26.627  43.037   2.684
53443W        W25868   9.858  37.740  12.917
53444W        W25869  32.036  19.229  11.665
53445W        W25870   3.197  44.267   2.836
53446W        W25871  38.794  18.609  12.881
53447W        W25872  36.614   8.136  12.099
53448W        W25873  39.957  39.120   2.366
53449W        W25874  32.661  22.241  12.669
53450W        W25875   5.860   4.859  10.574
53451W        W25876  39.936  42.072  12.574
53452W        W25877  22.002   3.520   2.844
53453W        W25878  33.530  39.928   1.476
53454W        W25879  20.571  36.094   1.836
53455W        W25880  42.464   6.902  10.637
53456W        W25881   6.963   5.885   4.768
53457W        W25882  10.607   9.308   2.656
53458W        W25883  18.505  15.599   0.933
53459W        W25884  36.028  24.235   1.692
53460W        W25885  13.578   2.259  13.942
53461W        W25886  33.951   2.270  12.306
53462W        W25887  10.444   6.991   1.895
53463W        W25888  36.893  14.231  10.912
53464W        W25889  36.064  29.218   1.197
53465W        W25890   6.410  13.603  14.896
53466W        W25891   1.209   7.923   4.080
53467W        W25892  33.918  37.876  12.039
53468W        W25893  31.822   1.752   2.320
53469W        W25894  33.041  27.109   2.243
53470W        W25895  43.510  34.710  13.128
53471W        W25896   7.643  16.708  14.461
53472W        W25897  26.972  23.645  14.365
53473W        W25898  14.752   2.328  11.609
53474W        W25899  19.264  39.370   3.747
53475W        W25900  31.769  17.918  11.078
53476W        W25901  23.400  14.154   1.318
53477W        W25902  30.127  43.908   2.298
53478W        W25903   8.344  15.496  11.178
53479W        W25904  33.664  18.610   1.844
53480W        W25905  39.792  27.729  14.819
53481W        W25906   9.881  26.891   0.790
53482W        W25907   6.192  21.779  11.601
53483W        W25908   5.472  14.073   2.481
53484W        W25909  37.956  12.598  14.321
53485W        W25910  10.559  13.735   0.716
53486W        W25911  13.359  26.669  11.478
53487W        W25912  13.608   6.309   3.697
53488W        W25913  14.227  11.382   1.717
53489W        W25914  32.600  33.922   3.645
53490W        W25915   3.163  18.663  14.408
53491W        W25916  21.385  22.741   0.658
53492W        W25917  28.469  12.844   0.375
53493W        W25918   2.054  23.994   3.945
53494W        W25919  41.575  10.195  14.737
53495W        W25920  24.912  21.528   2.747
53496W        W25921   0.238  17.575   0.492
53497W        W25922  39.960   7.308   1.289
53498W        W25923   3.173  26.171  13.446
53499W        W25924  40.004  32.889   0.343
53500W        W25925  41.018  28.671   2.907
53501W        W25926  16.008  35.403  11.045
53502W        W25927   8.698   4.279   3.844
53503W        W25928  40.389  18.016  12.640
53504W        W25929   2.332   5.361   4.446
53505W        W25930  22.820   1.071  11.142
53506W        W25931  28.717   0.392   4.720
53507W        W25932  19.618  28.032  11.641
53508W        W25933  15.255   6.802   4.006
53509W        W25934   5.406  18.330   1.725
53510W        W25935   5.420  39.343  11.194
53511W        W25936  19.653  41.851  12.293
53512W        W25937  35.749  41.294  12.928
53513W        W25938  20.625  44.901   0.168
53514W        W25939  32.607  43.424  14.327
53515W        W25940  23.282  18.102  14.001
53516W        W25941  22.361  44.862   1.377
53517W        W25942  27.380  33.120  14.302
53518W        W25943  24.043  23.536   4.078
53519W        W25944  29.712  34.112  14.719
53520W        W25945  14.574  27.117   1.260
53521W        W25946  31.577  30.998  12.618
53522W        W25947   3.359  29.121  11.535
53523W        W25948  13.781  21.585   2.239
53524W        W25949  14.649   8.331   2.232
53525W        W25950   4.267  32.988   3.095
53526W        W25951   2.047  22.132  11.177
53527W        W25952   6.716   1.073   1.839
53528W        W25953  20.065  44.548   0.024
53529W        W25954  27.166  28.032   0.201
53530W        W25955   3.909  42.920  14.020
53531W        W25956  29.098  36.128  11.675
53532W        W25957  43.526   0.418  14.432
53533W        W25958  10.723  32.038  12.026
53534W        W25959  19.075  22.485  13.381
53535W        W25960   0.340   9.975   3.452
53536W        W25961  41.802  30.931  10.720
53537W        W25962  42.529   7.082  11.861
53538W        W25963  37.555  24.398  14.369
53539W        W25964  27.107  10.362  13.156
53540W        W25965  20.639   6.650   2.646
53541W        W25966  38.616  18.817  12.456
53542W        W25967   5.892   4.388  13.082
53543W        W25968   3.410   8.117   0.465
53544W        W25969   3.553  19.791   1.969
53545W        W25970  10.464  22.517  11.588
53546W        W25971   4.093  38.888   1.302
53547W        W25972  10.029  30.424   4.502
53548W        W25973  40.984  40.091  11.101
53549W        W25974  37.673  23.016   3.754
53550W        W25975  39.299   5.951  12.020
53551W        W25976   1.800  42.578   0.034
53552W        W25977  21.480   5.353  11.200
53553W        W25978  38.515  41.711   4.585
53554W        W25979  43.839  12.634   2.291
53555W        W25980  34.983  28.562   2.902
53556W        W25981   7.203  21.761  13.812
53557W        W25982  39.486  24.623  12.008
53558W        W25983  15.352  13.192   2.247
53559W        W25984  42.493   9.319   0.268
53560W        W25985  23.621  40.375  13.095
53561W        W25986  27.552  17.243  12.745
53562W        W25987  29.702   1.727  12.049
53563W        W25988   4.701  33.919   2.893
53564W        W25989  21.793  14.805  14.405
53565W        W25990  10.507  22.569  13.221
53566W        W25991  29.020  18.526   0.727
53567W        W25992   1.448  27.090   1.100
53568W        W25993  11.989  22.148  14.059
53569W        W25994  32.906   2.264  11.651
53570W        W25995  41.145  13.344   2.765
53571W        W25996  22.462   0.369  10.655
53572W        W25997  25.111  44.414   4.358
53573W        W25998  29.441  40.121   5.032
53574W        W25999  24.971  20.566   0.574
53575W        W26000  37.928  27.225   1.354
53576W        W26001  27.092  43.909  13.758
53577W        W26002  18.591   2.075  14.775
53578W        W26003  42.024   5.209  11.972
53579W        W26004  14.832  30.478  14.922
53580W        W26005  33.818  41.776   3.805
53581W        W26006  35.514   3.358   1.014
53582W        W26007  25.285  15.842  10.353
53583W        W26008  16.236   2.845  10.798
53584W        W26009  21.771   3.908   1.951
53585W        W26010   8.386  24.690   0.003
53586W        W26011  23.604   4.799   4.313
53587W        W26012  13.751  20.247   4.624
53588W        W26013   5.401  28.738   4.391
53589W        W26014   4.870  22.248   0.507
53590W        W26015  44.577   6.320  11.172
53591W        W26016  21.078  39.755  12.417
53592W        W26017   0.273  39.450  13.326
53593W        W26018  16.960  37.521  14.764
53594W        W26019   9.762  15.656   0.261
53595W        W26020  35.110   3.366  12.032
53596W        W26021  39.141  37.504   1.710
53597W        W26022  16.553  32.523  12.456
53598W        W26023  29.752  35.481  10.686
53599W        W26024   2.476  29.116   4.548
53600W        W26025  12.572   5.602  10.514
53601W        W26026  20.449  16.610  11.992
53602W        W26027  41.383  34.635  12.019
53603W        W26028  18.810   5.039  13.848
53604W        W26029  33.109  28.975  13.624
53605W        W26030  26.953   4.851  10.734
53606W        W26031  38.687  16.318  14.418
53607W        W26032   6.270  23.102   0.833
53608W        W26033  28.929  17.347   3.183
53609W        W26034   9.640   2.381  11.684
53610W        W26035   4.111   6.140  10.525
53611W        W26036  18.506   5.276   3.647
53612W        W26037  25.190  18.742  11.475
53613W        W26038  38.817  44.581   4.666
53614W        W26039  30.005  40.378   3.407
53615W        W26040  14.249  39.748  12.402
53616W        W26041  20.638  27.601   1.512
53617W        W26042  34.292  25.274   3.738
53618W        W26043  44.927  13.148   0.467
53619W        W26044  19.716   5.660   4.677
53620W        W26045  12.232  26.211   2.408
53621W        W26046   9.642  16.720   1.358
53622W        W26047  11.179  35.983  11.428
53623W        W26048  29.614  20.472  11.567
53624W        W26049  37.497  34.967   1.730
53625W        W26050  20.044  14.349   3.688
53626W        W26051   2.858  16.094  12.185
53627W        W26052   0.474   0.868   0.237
53628W        W26053   7.641  27.223   1.847
53629W        W26054  11.315  28.439   4.456
53630W        W26055  32.479  25.257  11.217
53631W        W26056  43.330  13.668  13.388
53632W        W26057  33.816  13.315   3.173
53633W        W26058  44.309  26.562  14.789
53634W        W26059   9.799  13.125   2.906
53635W        W26060   0.394  14.343   0.283
53636W        W26061  30.033   5.198   3.232
53637W        W26062  14.841  21.821  14.447
53638W        W26063   8.399  36.202  11.077
53639W        W26064  21.305  21.492  14.712
53640W        W26065  38.853  24.733  10.059
53641W        W26066  40.350  40.918  10.550
53642W        W26067  34.659  28.738  13.446
53643W        W26068  17.628  23.688   3.205
53644W        W26069   4.797   1.444   0.752
53645W        W26070  43.193  13.428   4.172
53646W        W26071  25.512  41.004  12.399
53647W        W26072  34.164  14.871  12.176
53648W        W26073   0.719  42.374   4.302
53649W        W26074  20.016  11.949  14.547
53650W        W26075   7.500  42.292  13.075
53651W        W26076  17.886  20.064   2.695
53652W        W26077   1.347  24.050  10.411
53653W        W26078  41.347   6.032  11.662
53654W        W26079  13.981  34.790   2.777
53655W        W26080  43.031  28.539  14.078
53656W        W26081   7.711   8.486   5.485
53657W        W26082   5.348  23.273   0.005
53658W        W26083  24.442   5.427   0.014
53659W        W26084   5.140   0.408   1.767
53660W        W26085  37.395   0.692  12.099
53661W        W26086  35.788  11.363  12.528
53662W        W26087  40.982  38.640  14.523
53663W        W26088  42.688   6.451   4.421
53664W        W26089   6.632   2.644   4.214
53665W        W26090   6.232   2.721  11.204
53666W        W26091  22.201  18.893   1.016
53667W        W26092  25.500   4.860  11.118
53668W        W26093   9.646  37.156   5.123
53669W        W26094  35.532   0.757   4.905
53670W        W26095  13.941   3.367  12.602
53671W        W26096  43.833  14.149   2.043
53672W        W26097   6.898  23.935   2.347
53673W        W26098  19.715  25.543  14.381
53674W        W26099  24.691  18.786   1.763
53675W        W26100  29.417   7.147  14.954
53676W        W26101  40.564  25.391   2.228
53677W        W26102  11.294   1.159   0.892
53678W        W26103  37.484   9.132  14.509
53679W        W26104  31.420   5.850   4.128
53680W        W26105  19.192  41.852   1.356
53681W        W26106   9.202   6.664  14.471
53682W        W26107  37.515  16.622   4.114
53683W        W26108  38.546  30.784   2.988
53684W        W26109   0.773   7.166   0.237
53685W        W26110  39.781  42.385   9.831
53686W        W26111  40.795  19.952   2.825
53687W        W26112  33.523  28.486  14.553
53688W        W26113  34.424   6.824   3.248
53689W        W26114  23.239  41.341  10.696
53690W        W26115   5.787  40.727  11.389
53691W        W26116  44.685  30.131   0.007
53692W        W26117   8.728  14.367   3.325
53693W        W26118  29.017  25.433   2.663
53694W        W26119  12.219  32.106  11.056
53695W        W26120  23.179  13.875   1.720
53696W        W26121   8.435  16.708  11.594
53697W        W26122  21.669   8.919   2.270
53698W        W26123  36.514  36.361  12.929
53699W        W26124  30.407  23.532   1.816
53700W        W26125  18.100   7.687   2.140
53701W        W26126   9.235  13.356  12.808
53702W        W26127  36.589  19.270  10.647
53703W        W26128  16.825  10.439   4.577
53704W        W26129  44.512  44.995   2.837
53705W        W26130   7.987  41.656   2.686
53706W        W26131  20.297  37.367  12.411
53707W        W26132  16.622  18.835  12.500
53708W        W26133  12.689  40.731   2.730
53709W        W26134  22.011   8.889  14.030
53710W        W26135  41.822   8.620  11.827
53711W        W26136  25.510  19.092  10.776
53712W        W26137  16.675   0.515   3.736
53713W        W26138   8.811   0.943  14.040
53714W        W26139  34.557  35.807   4.017
53715W        W26140  33.161  12.889  10.606
53716W        W26141   7.925   2.433  13.913
53717W        W26142  42.562   5.624  11.172
53718W        W26143  31.495   1.718  13.014
53719W        W26144  12.931  29.365  14.012
53720W        W26145   0.709  23.021  13.392
53721W        W26146   3.504  22.579  13.514
53722W        W26147  10.731  37.163   4.095
53723W        W26148  25.470   0.455  12.110
53724W        W26149  38.813  43.005  13.598
53725W        W26150   3.725  39.771  14.377
53726W        W26151  19.245   7.160  14.463
53727W        W26152   6.524   9.816  14.335
53728W        W26153  43.222  25.975  12.866
53729W        W26154  37.935   0.357   0.791
53730W        W26155   6.799  41.452  12.933
53731W        W26156  30.009  28.678   4.766
53732W        W26157  35.456  28.692  11.723
53733W        W26158   4.725  25.016   1.248
53734W        W26159  27.103   2.709   4.365
53735W        W26160  27.523  30.937   4.932
53736W        W26161  15.659  43.666  14.437
53737W        W26162   0.279   8.392   0.382
53738W        W26163  19.932  18.310   3.609
53739W        W26164   1.451  30.541  14.377
53740W        W26165  42.452  40.801   1.955
53741W        W26166  18.468  23.021  11.424
53742W        W26167  39.496   8.695   1.237
53743W        W26168  19.328  43.964  10.625
53744W        W26169  16.680  18.101   2.039
53745W        W26170  31.554  30.426  13.356
53746W        W26171  22.509  21.066   1.919
53747W        W26172  21.242  27.780  14.542
53748W        W26173  17.697   4.363   1.891
53749W        W26174  22.297  44.269   0.238
53750W        W26175  27.872  16.797   4.801
53751W        W26176  15.870  25.194  11.463
53752W        W26177  44.347  33.974  13.101
53753W        W26178  38.863   9.623   3.701
53754W        W26179  23.155  19.573  14.350
53755W        W26180  34.780  31.322   0.462
53756W        W26181  35.389  35.083  13.157
53757W        W26182  42.426  15.970   1.750
53758W        W26183   8.951  20.213  14.445
53759W        W26184  35.363  17.506   0.722
53760W        W26185  16.412   1.622   5.428
53761W        W26186  40.914  32.966  10.722
53762W        W26187  34.494  39.863  12.312
53763W        W26188  31.147  43.500   1.827
53764W        W26189   6.336  16.200   3.270
53765W        W26190  36.796   6.525   2.751
53766W        W26191  28.474  10.657  13.983
53767W        W26192  14.225  10.122   0.973
53768W        W26193  37.089  24.873  12.960
53769W        W26194  40.114  19.750   0.764
53770W        W26195  40.919   0.902   2.848
53771W        W26196   2.162  11.840   3.786
53772W        W26197  26.563  33.100  14.005
53773W        W26198  31.056   5.194  14.517
53774W        W26199  18.305  27.024   0.718
53775W        W26200  40.132   3.564  14.621
53776W        W26201  26.534   7.331  12.576
53777W        W26202  35.408  33.148   4.576
53778W        W26203   9.094   5.625  10.668
53779W        W26204  40.271  28.351  12.539
53780W        W26205  37.442  34.362  10.541
53781W        W26206  31.961  16.711  12.837
53782W        W26207  38.893  36.774   2.772
53783W        W26208  44.213  24.507  14.357
53784W        W26209   3.664  25.112  13.327
53785W        W26210  44.042  40.374   2.282
53786W        W26211  31.600  16.330   3.776
53787W        W26212   3.829  23.959   0.312
53788W        W26213  28.038  26.650  10.223
53789W        W26214  21.714  24.549  13.706
53790W        W26215  17.213   0.455   2.736
53791W        W26216   0.181  31.560  14.523
53792W        W26217  27.674  22.950  13.890
53793W        W26218  31.897   8.003  11.856
53794W        W26219  22.130  29.596   1.526
53795W        W26220  23.077  21.562   0.420
53796W        W26221  16.042  37.576   4.531
53797W        W26222  12.241  19.112   3.190
53798W        W26223  23.541  24.992  10.403
53799W        W26224  38.818   1.459   2.782
53800W        W26225  23.911   6.250  12.513
53801W        W26226  35.445  19.500   0.768
53802W        W26227   3.349  35.000   2.821
53803W        W26228  32.047  39.858  12.393
53804W        W26229  20.574  33.618   0.775
53805W        W26230  31.901  13.333   3.221
53806W        W26231  26.158  25.071  12.457
53807W        W26232  12.809  27.377  14.051
53808W        W26233  26.975  12.218   1.683
53809W        W26234  14.097  23.550   4.089
53810W        W26235  36.614  15.678  10.319
53811W        W26236  20.185   2.248   1.241
53812W        W26237  44.271  12.168  13.012
53813W        W26238  20.575   8.737   0.851
53814W        W26239  14.587   9.511   3.234
53815W        W26240   5.430  36.403   2.196
53816W        W26241  25.636  13.793   4.706
53817W        W26242   7.846  39.411   4.863
53818W        W26243   2.762   5.863  14.507
53819W        W26244  23.136  14.317  13.402
53820W        W26245  18.655  30.540  12.817
53821W        W26246   0.026   9.912   2.791
53822W        W26247  14.742  17.046  10.639
53823W        W26248  32.322  16.049   2.136
53824W        W26249  36.354  39.248   0.265
53825W        W26250  12.802  14.859   0.333
53826W        W26251   8.342  33.285   3.965
53827W        W26252  40.601   3.801   3.329
53828W        W26253  36.375  15.208  14.015
53829W        W26254  40.455  25.190   4.965
53830W        W26255   5.120  34.954  14.978
53831W        W26256  24.404  18.565   0.762
53832W        W26257  30.986  42.082   1.856
53833W        W26258  34.845   9.924   0.858
53834W        W26259  37.573  36.562  12.936
53835W        W26260  34.809  33.981   4.562
53836W        W26261  13.882  37.951   4.602
53837W        W26262  16.868   9.371  12.826
53838W        W26263  41.217  19.069   3.850
53839W        W26264  23.571  42.521  14.582
53840W        W26265  17.817  22.585  10.695
53841W        W26266  32.074   4.085   3.240
53842W        W26267  21.284  17.724   2.935
53843W        W26268  14.560  42.284   1.344
53844W        W26269  29.882   2.485   2.780
53845W        W26270  35.722  43.836   4.022
53846W        W26271   3.468  44.841  14.699
53847W        W26272  29.919  41.853   2.179
53848W        W26273  22.562  25.576  12.609
53849W        W26274  44.849  33.920  14.989
53850W        W26275   8.074  27.210   0.291
53851W        W26276   7.381  34.827   4.586
53852W        W26277  35.088  40.675   4.029
53853W        W26278  12.875   9.687  12.440
53854W        W26279  40.043   1.948   0.704
53855W        W26280  23.585  21.108  14.742
53856W        W26281  26.113  15.814  11.540
53857W        W26282   0.704  14.782  14.033
53858W        W26283  13.401  17.840  12.830
53859W        W26284   6.894  40.386   0.959
53860W        W26285  12.639  15.015  11.693
53861W        W26286  10.607  37.893   1.753
53862W        W26287   0.807  12.773  12.083
53863W        W26288  13.192  34.828  13.906
53864W        W26289  25.809  13.182   2.395
53865W        W26290  10.729  11.697  13.773
53866W        W26291  20.732  14.130  13.927
53867W        W26292  39.418   5.399  14.579
53868W        W26293  14.392  29.591  12.950
53869W        W26294  33.509  13.675   0.003
53870W        W26295  24.180  12.591  11.434
53871W        W26296   6.974  42.948   4.583
53872W        W26297  30.588  15.902   0.975
53873W        W26298  42.516  35.000  13.855
53874W        W26299  40.825   5.933  11.679
53875W        W26300  14.679   4.145  12.697
53876W        W26301  36.029  44.554   1.888
53877W        W26302  24.702  25.109   0.351
53878W        W26303  36.352  41.796   1.770
53879W        W26304  10.121  42.362  12.338
53880W        W26305  43.904  36.429   4.953
53881W        W26306  18.142  30.548  10.126
53882W        W26307   3.268  26.747   2.344
53883W        W26308  25.256  24.446   0.212
53884W        W26309  25.074  38.233  12.996
53885W        W26310  34.628  41.496  14.078
53886W        W26311  37.944  21.178   3.354
53887W        W26312  34.357   8.681   0.786
53888W        W26313  22.065  20.204   2.081
53889W        W26314  15.102  17.594   2.742
53890W        W26315  21.262   4.698   4.620
53891W        W26316  31.602  31.981   4.131
53892W        W26317  16.195  15.842  14.447
53893W        W26318  27.125  32.439   0.202
53894W        W26319  41.225  23.086  13.873
53895W        W26320  13.014  29.181  11.434
53896W        W26321  16.659  23.616  14.406
53897W        W26322  38.283   8.673   4.339
53898W        W26323   4.984  26.007  11.011
53899W        W26324   5.982  34.658   3.836
53900W        W26325  40.715   2.884   3.415
53901W        W26326  25.693  34.774  10.724
53902W        W26327  41.579  44.567   9.619
53903W        W26328  37.789  29.943   1.661
53904W        W26329  17.706   6.180   3.348
53905W        W26330  29.139  30.212   0.438
53906W        W26331   4.203  11.416  14.055
53907W        W26332  16.417  26.423   3.164
53908W        W26333  10.642  12.759   4.540
53909W        W26334  16.820  13.597   0.073
53910W        W26335  34.965   8.892  10.624
53911W        W26336  27.546  25.176  11.267
53912W        W26337  12.196  31.270   3.061
53913W        W26338  37.017   1.869   3.086
53914W        W26339  38.976   1.239   1.213
53915W        W26340   0.773  37.892  11.396
53916W        W26341  14.279  35.820  11.256
53917W        W26342   7.098  37.566  14.463
53918W        W26343  38.845   5.119  12.101
53919W        W26344  26.757  31.677   0.055
53920W        W26345  21.554   3.954   4.667
53921W        W26346   8.333  41.394   2.344
53922W        W26347   4.468  39.599   2.446
53923W        W26348   0.923  44.797  13.883
53924W        W26349  27.589  39.442   4.482
53925W        W26350  37.976  12.623   3.678
53926W        W26351  41.943  23.030   0.345
53927W        W26352  12.282  17.009   1.339
53928W        W26353  36.776  20.853   5.044
53929W        W26354  17.571   3.763   0.226
53930W        W26355  35.943  23.669   4.989
53931W        W26356  25.600   8.973   2.684
53932W        W26357   1.922  41.039   3.922
53933W        W26358  41.053  33.902  14.068
53934W        W26359  12.785  41.080  12.001
53935W        W26360  43.931  15.612   2.830
53936W        W26361  11.022  28.619   0.719
53937W        W26362  10.426  26.237  12.596
53938W        W26363  19.828  21.461  11.428
53939W        W26364  41.529  36.034   1.407
53940W        W26365  16.621  39.867  10.638
53941W        W26366  15.703  32.628  14.569
53942W        W26367  29.531  28.475   4.814
53943W        W26368  43.780  27.002   3.189
53944W        W26369  18.018  19.208  13.078
53945W        W26370  10.158  23.516  14.305
53946W        W26371  17.311  40.861  11.499
53947W        W26372   8.696  37.900  11.411
53948W        W26373  17.156  42.093   1.524
53949W        W26374  39.404   4.653  11.625
53950W        W26375  32.538   9.383   2.591
53951W        W26376   6.896   5.427   1.806
53952W        W26377  10.424  15.301   5.069
53953W        W26378  38.020  26.422   1.815
53954W        W26379  39.342  41.454  12.148
53955W        W26380  17.242  19.421   2.830
53956W        W26381   8.240  20.444  12.012
53957W        W26382  41.498   9.107   3.850
53958W        W26383  26.395   0.316  14.841
53959W        W26384  43.805  22.792   0.383
53960W        W26385  37.090  40.442   3.681
53961W        W26386  10.281  43.425  14.504
53962W        W26387  10.691  19.485  10.888
53963W        W26388  18.112  20.208   3.740
53964W        W26389  39.645   6.661   1.170
53965W        W26390  15.317   9.685   3.218
53966W        W26391  28.986   3.726  10.785
53967W        W26392   4.329  23.506   0.819
53968W        W26393  38.007  29.031   0.706
53969W        W26394  36.384  30.103   1.929
53970W        W26395  18.285  31.201  12.312
53971W        W26396  34.522  24.618   4.724
53972W        W26397  12.016  24.250  13.887
53973W        W26398  44.412  20.849  12.871
53974W        W26399  41.935  25.886  11.559
53975W        W26400   3.160  22.135   2.188
53976W        W26401  36.637   6.544   3.664
53977W        W26402  37.926  34.562  10.392
53978W        W26403  42.252  18.753  12.681
53979W        W26404  36.364   4.389  11.643
53980W        W26405  42.285  32.912   0.239
53981W        W26406  38.881  23.193   4.388
53982W        W26407   2.815  31.341  13.407
53983W        W26408  16.689  18.504  12.117
53984W        W26409  39.832   9.637  13.815
53985W        W26410  35.025  23.459  13.354
53986W        W26411   6.165   4.816   0.785
53987W        W26412  36.328  21.151  14.316
53988W        W26413  38.073   2.203  11.484
53989W        W26414  13.616  37.507   1.708
53990W        W26415  18.376  20.062   4.185
53991W        W26416  44.368  44.341  12.146
53992W        W26417  28.719   8.837   1.110
53993W        W26418  23.798  27.109  11.092
53994W        W26419  26.678  23.212   3.634
53995W        W26420  19.740  35.504  13.715
53996W        W26421  24.261  32.884  12.779
53997W        W26422  35.460   8.146  11.229
53998W        W26423  39.306  21.017   0.860
53999W        W26424   1.261  26.358   4.091
54000W        W26425  12.635  13.791  14.878
54001W        W26426   7.777   8.443   1.788
54002W        W26427   5.535  37.852  12.064
54003W        W26428   8.659  28.621  12.974
54004W        W26429  10.593  29.453  10.446
54005W        W26430  26.984  13.256  10.687
54006W        W26431  35.595  36.094   1.418
54007W        W26432  32.646  16.471   4.771
54008W        W26433  38.575   5.994  12.842
54009W        W26434  35.412  25.735   2.333
54010W        W26435  43.375  19.556  11.729
54011W        W26436  23.116  17.501   2.429
54012W        W26437   4.663  13.636  14.424
54013W        W26438   4.095  37.000  12.449
54014W        W26439   7.869  37.576  11.123
54015W        W26440  28.173  28.966   2.923
54016W        W26441  39.943  33.042  11.160
54017W        W26442  21.759  28.609   1.747
54018W        W26443  22.678  37.336  12.053
54019W        W26444  36.267  43.021   2.106
54020W        W26445  36.664  35.794  14.315
54021W        W26446  33.308  22.606  11.876
54022W        W26447  25.752  18.373   2.955
54023W        W26448  18.620  20.109   4.822
54024W        W26449   6.679  35.266   5.011
54025W        W26450  38.064  24.567  14.418
54026W        W26451  44.819  11.735  11.807
54027W        W26452  11.735   7.131   1.204
54028W        W26453  29.686  37.457   0.812
54029W        W26454  43.557  17.678   1.775
54030W        W26455   5.847   9.270   3.097
54031W        W26456  42.034  38.117  11.077
54032W        W26457   1.415  14.552  10.804
54033W        W26458  18.669  13.104   0.773
54034W        W26459  10.825  36.725  12.740
54035W        W26460  23.731  13.856   1.031
54036W        W26461   0.315  42.172   3.679
54037W        W26462  18.558  35.097   2.829
54038W        W26463  38.183  15.317  12.003
54039W        W26464  15.115  44.253  14.599
54040W        W26465  25.980  23.324   0.764
54041W        W26466   1.080   7.392   2.166
54042W        W26467   7.239  31.464  12.572
54043W        W26468   9.603  13.973  13.549
54044W        W26469   8.620  42.412  11.469
54045W        W26470  29.760  11.294  10.737
54046W        W26471  14.586  12.528  14.923
54047W        W26472   3.358  21.123  13.093
54048W        W26473  29.091   9.232  11.988
54049W        W26474  16.638   8.053   3.333
54050W        W26475  33.885  44.992   4.179
54051W        W26476  30.809  17.973   4.186
54052W        W26477  12.874   7.980   2.412
54053W        W26478  35.865  31.100   1.652
54054W        W26479  11.946  31.018  13.886
54055W        W26480  40.359  32.094  12.882
54056W        W26481  41.495  12.831   1.130
54057W        W26482  15.216  31.922   0.880
54058W        W26483   1.896  15.511  10.776
54059W        W26484   6.879  14.561  12.050
54060W        W26485  15.031  40.938   2.792
54061W        W26486  35.032   2.305   1.036
54062W        W26487  35.250   6.903   4.353
54063W        W26488   1.898  17.632   4.130
54064W        W26489   6.416  12.562   2.657
54065W        W26490  38.897  21.743   3.248
54066W        W26491  10.001   9.137   0.157
54067W        W26492  12.182  32.213  14.427
54068W        W26493  22.755  11.821   0.010
54069W        W26494   2.190  36.856  12.928
54070W        W26495  44.353  36.185  14.008
54071W        W26496  20.546  39.011  11.357
54072W        W26497  21.429  10.149   4.722
54073W        W26498   4.368  22.510  10.767
54074W        W26499  33.294  28.033  14.713
54075W        W26500  10.560  11.120   0.655
54076W        W26501  24.781  44.011   3.513
54077W        W26502   6.704  37.786  10.651
54078W        W26503  28.325  38.364   3.301
54079W        W26504   2.984  13.760   0.349
54080W        W26505  26.036  38.403   4.611
54081W        W26506  25.392  19.692   4.556
54082W        W26507  32.399  11.236   3.659
54083W        W26508   4.748  12.914  12.990
54084W        W26509  43.298  33.097   0.026
54085W        W26510  40.005  11.717   0.542
54086W        W26511   1.798  37.771  14.061
54087W        W26512  35.713  13.537   1.409
54088W        W26513  22.504  21.686  14.673
54089W        W26514   4.736  41.770   4.140
54090W        W26515  26.449  16.738   0.941
54091W        W26516   3.998  23.427  13.630
54092W        W26517   2.828  11.193   1.012
54093W        W26518  35.664  37.038  14.410
54094W        W26519  30.225  28.703  10.403
54095W        W26520  12.643  27.110  13.058
54096W        W26521   6.055  19.585   2.630
54097W        W26522  29.883  22.388   3.710
54098W        W26523  36.502  34.868  14.251
54099W        W26524   0.554  16.119  10.578
54100W        W26525  10.684  35.006   3.004
54101W        W26526  32.927  18.515  12.591
54102W        W26527  30.920   6.416  12.069
54103W        W26528  15.353  33.471   2.395
54104W        W26529   7.581  38.573   3.525
54105W        W26530   8.941  31.645   1.948
54106W        W26531  42.673  31.106  12.846
54107W        W26532  42.913   2.628   1.720
54108W        W26533  21.252  25.566  13.974
54109W        W26534  18.199  10.416  11.990
54110W        W26535   9.099   7.773  12.866
54111W        W26536  20.048  35.637  11.089
54112W        W26537   6.446  33.522  14.022
54113W        W26538  42.848  14.371  13.066
54114W        W26539  14.915  22.971  14.979
54115W        W26540  28.908   4.831  13.045
54116W        W26541  15.187  34.050   4.143
54117W        W26542  37.999  34.034  11.141
54118W        W26543  15.524  12.708  14.789
54119W        W26544  18.352   0.344  10.930
54120W        W26545  23.759  30.134  10.454
54121W        W26546  44.421  41.637   0.767
54122W        W26547   7.496  43.923  11.210
54123W        W26548   6.212  38.248   2.668
54124W        W26549  17.018  10.634  14.422
54125W        W26550   3.184  18.071  12.472
54126W        W26551  40.620   0.347  14.897
54127W        W26552  39.762  42.369   1.950
54128W        W26553   6.334  23.834   1.361
54129W        W26554  27.773  31.306  11.615
54130W        W26555  15.204   4.125   3.123
54131W        W26556  27.208   1.659  10.731
54132W        W26557  43.321  30.233  14.978
54133W        W26558  11.747  23.506  10.698
54134W        W26559  37.730  39.134   4.241
54135W        W26560  13.852  33.946  12.074
54136W        W26561   0.070  10.380   3.659
54137W        W26562  11.653  26.181   3.540
54138W        W26563  23.735  11.315  13.343
54139W        W26564  35.068  35.060   0.414
54140W        W26565  29.981  22.543  14.457
54141W        W26566   2.356   3.476  11.031
54142W        W26567  26.949  26.924  11.001
54143W        W26568  37.162  40.982   0.754
54144W        W26569  25.143   6.426  12.934
54145W        W26570  13.128  14.630  12.863
54146W        W26571  43.247  18.132   5.213
54147W        W26572  36.926   9.274   3.206
54148W        W26573  22.179  14.835   1.612
54149W        W26574  28.898  28.486  14.813
54150W        W26575  18.902   8.669   5.016
54151W        W26576   7.294  34.349  14.544
54152W        W26577  40.962  10.886   2.854
54153W        W26578  16.040  19.320   3.425
54154W        W26579  24.448   9.744   0.844
54155W        W26580   3.716  20.243  10.729
54156W        W26581  32.562  14.876  11.093
54157W        W26582  30.456  31.077   3.177
54158W        W26583  38.633  31.956  14.978
54159W        W26584   3.536  16.648  10.601
54160W        W26585  21.068  29.737   0.746
54161W        W26586  38.904  38.841  13.605
54162W        W26587  39.556   2.823   1.936
54163W        W26588  22.322  26.258   3.355
54164W        W26589  37.281  13.089   1.168
54165W        W26590   6.870  38.320  14.494
54166W        W26591   1.261   5.725  13.463
54167W        W26592   4.219   6.765  14.981
54168W        W26593  18.703  11.691   1.655
54169W        W26594   2.612  23.171   0.176
54170W        W26595   6.262  15.906   2.786
54171W        W26596  10.372  20.885   1.651
54172W        W26597  28.293   6.839  12.791
54173W        W26598  40.797   0.723   0.274
54174W        W26599  40.053  43.431   0.436
54175W        W26600  42.988  17.366  12.310
54176W        W26601  38.861   4.202  14.046
54177W        W26602  23.853  19.220  14.115
54178W        W26603  39.270   4.057  14.316
54179W        W26604  36.468  33.229  11.374
54180W        W26605  37.298  22.194  11.632
54181W        W26606  17.673  30.439  13.494
54182W        W26607  16.068  11.744   2.153
54183W        W26608  36.838  35.008   0.912
54184W        W26609  36.922   4.804   3.256
54185W        W26610  15.530   4.809   1.450
54186W        W26611  26.605  11.814   4.121
54187W        W26612  44.268  17.682  11.625
54188W        W26613  11.392  12.833   0.904
54189W        W26614   0.732   3.729  14.883
54190W        W26615  37.405  19.392  11.643
54191W        W26616  31.525  11.618   4.713
54192W        W26617  33.629  31.587  13.945
54193W        W26618  14.555  16.836   1.040
54194W        W26619  22.586  39.365   0.809
54195W        W26620   5.189   6.412  12.589
54196W        W26621  12.240   8.986   2.837
54197W        W26622  10.912  15.637   2.838
54198W        W26623  32.979  24.234   0.366
54199W        W26624   6.758  18.062  11.248
54200W        W26625  16.393   3.429   2.803
54201W        W26626  23.966   0.863   3.640
54202W        W26627  13.652  25.504  11.149
54203W        W26628  26.398  32.753   5.545
54204W        W26629  33.343  38.022   3.844
54205W        W26630  10.742  34.544  14.023
54206W        W26631  44.062  17.771   1.880
54207W        W26632  40.119  29.891  13.477
54208W        W26633  41.882  28.663   2.695
54209W        W26634   8.218  28.932   2.202
54210W        W26635  26.457  37.620  12.087
54211W        W26636  27.224  41.842  13.500
54212W        W26637   2.276  34.143   3.836
54213W        W26638  13.134  37.957  13.818
54214W        W26639  40.475  21.540   0.466
54215W        W26640  41.372  40.585   4.637
54216W        W26641   1.354  13.078  14.163
54217W        W26642   9.848  40.481   2.273
54218W        W26643  31.622   8.466  10.988
54219W        W26644  34.982  10.055  11.580
54220W        W26645  30.870  11.075  14.053
54221W        W26646  18.063   0.076   0.310
54222W        W26647   6.405  18.797   1.804
54223W        W26648  34.510  21.382   0.428
54224W        W26649  17.692   3.380  12.200
54225W        W26650  28.880  39.545   3.127
54226W        W26651  33.179  17.210   3.650
54227W        W26652  26.910  30.869  12.986
54228W        W26653  32.236  43.975   1.775
54229W        W26654  11.299  11.863   0.033
54230W        W26655  40.471  44.419   0.018
54231W        W26656  20.144   0.735   1.306
54232W        W26657  42.242  40.341   1.877
54233W        W26658  13.437  31.612   0.241
54234W        W26659  29.594  10.222   1.315
54235W        W26660  27.418   1.249  14.862
54236W        W26661  32.380  10.813   4.913
54237W        W26662  28.856  16.652   3.745
54238W        W26663  29.108  35.129   0.254
54239W        W26664   5.084  36.343  12.137
54240W        W26665  37.876  43.879   3.165
54241W        W26666  17.147  24.501  14.009
54242W        W26667  21.184  44.458   1.726
54243W        W26668   8.363  40.362  14.467
54244W        W26669  14.013  42.987  10.574
54245W        W26670  39.880  18.382  11.305
54246W        W26671   3.250   4.030  11.068
54247W        W26672   1.367   4.514  14.758
54248W        W26673  35.582  33.484  10.740
54249W        W26674   0.365  28.610  13.509
54250W        W26675  18.213  10.193   1.891
54251W        W26676   3.355  23.581   1.289
54252W        W26677  39.086   5.311  11.695
54253W        W26678  21.024  13.658  12.838
54254W        W26679   7.028  15.533   1.359
54255W        W26680  10.809  20.738   1.891
54256W        W26681  25.744  12.210   2.337
54257W        W26682  35.657  41.722  13.768
54258W        W26683  23.719  23.354   1.869
54259W        W26684  26.693  13.773  12.019
54260W        W26685   5.720  25.423  14.847
54261W        W26686  36.106  17.302  14.597
54262W        W26687   4.486   6.493   0.638
54263W        W26688  33.652  43.551   0.133
54264W        W26689  22.624  15.680  13.884
54265W        W26690  39.052  16.580   2.327
54266W        W26691  17.832  43.467   2.088
54267W        W26692  30.218  10.221   3.602
54268W        W26693   0.903  31.679   3.223
54269W        W26694   6.503  42.961   2.907
54270W        W26695  29.536  16.888   4.628
54271W        W26696  33.867  19.992   0.769
54272W        W26697  11.545  12.549  11.299
54273W        W26698  10.363  15.369   3.378
54274W        W26699  38.038   2.231  10.951
54275W        W26700  19.029  38.131   4.269
54276W        W26701  27.391  16.610  11.925
54277W        W26702  15.940  24.649  12.074
54278W        W26703  18.030   6.835   4.157
54279W        W26704   5.119  33.596  10.088
54280W        W26705  22.445  25.510  13.130
54281W        W26706  15.765  30.067  14.720
54282W        W26707  13.599  34.928   4.513
54283W        W26708   4.724  29.245   4.086
54284W        W26709  24.740   3.316  12.358
54285W        W26710  40.272  41.959   4.263
54286W        W26711  28.504  11.125   1.311
54287W        W26712   0.201  25.097  12.519
54288W        W26713  30.077  21.179  12.530
54289W        W26714  26.176   2.823  13.892
54290W        W26715  17.150   9.926   0.250
54291W        W26716  27.367  22.914   0.928
54292W        W26717  27.675  15.746  10.960
54293W        W26718   6.800  42.826  13.785
54294W        W26719   2.811  20.180   4.416
54295W        W26720   9.061  28.700   3.651
54296W        W26721   5.422   9.682   1.193
54297W        W26722  26.544  11.880   2.574
54298W        W26723  16.285  31.517  11.899
54299W        W26724  14.007  30.488   1.984
54300W        W26725  36.614  44.455  13.425
54301W        W26726  17.278   2.352   4.492
54302W        W26727  30.035  39.088  11.643
54303W        W26728  42.933  25.261   1.370
54304W        W26729  22.761  26.149   1.659
54305W        W26730  17.778  18.124   4.241
54306W        W26731  20.893  18.281  12.519
54307W        W26732  43.212  40.893  13.121
54308W        W26733  23.218  30.032  10.570
54309W        W26734  37.513   8.726  10.568
54310W        W26735  39.450   8.473   2.689
54311W        W26736  40.780  42.160   9.559
54312W        W26737  15.330  12.528   2.659
54313W        W26738  13.035  22.789  13.971
54314W        W26739  14.185  21.044  11.938
54315W        W26740  39.464  30.373   3.729
54316W        W26741  29.751   4.397  13.860
54317W        W26742  16.227   3.764   4.189
54318W        W26743  38.442   9.704  11.155
54319W        W26744   9.428  36.270   9.686
54320W        W26745  22.019  11.559  12.816
54321W        W26746  10.190  28.289  12.630
54322W        W26747  32.494  15.866   5.433
54323W        W26748  33.417  24.186   3.152
54324W        W26749  30.127  28.103  13.556
54325W        W26750  43.012  30.669   1.640
54326W        W26751   3.639   5.155  12.490
54327W        W26752  41.001  14.295  14.257
54328W        W26753   9.893   6.808   2.207
54329W        W26754  39.635  38.353   0.721
54330W        W26755  32.741   1.933  12.055
54331W        W26756  13.834  16.842   0.475
54332W        W26757  31.189  26.246   0.261
54333W        W26758  18.780   2.310   3.171
54334W        W26759  40.756  11.365   2.214
54335W        W26760  21.982  35.338   3.288
54336W        W26761  12.058   6.797  12.603
54337W        W26762  36.124  19.839  14.483
54338W        W26763  40.083  20.208  14.506
54339W        W26764  43.466   4.059  13.780
54340W        W26765  24.586  11.235   1.732
54341W        W26766  12.355  21.204  10.719
54342W        W26767  10.601  20.095  12.605
54343W        W26768  14.959  33.059  14.991
54344W        W26769   3.041  29.620   2.746
54345W        W26770   4.527  12.852   4.130
54346W        W26771   7.804  31.370   2.410
54347W        W26772  27.137  25.198   3.162
54348W        W26773  39.088  29.902   1.718
54349W        W26774  17.067  17.610   4.250
54350W        W26775  38.822  19.698   2.873
54351W        W26776  44.347  44.827  10.458
54352W        W26777   5.248  39.289  13.592
54353W        W26778  32.506   3.859  11.677
54354W        W26779  30.030  38.130  12.979
54355W        W26780   8.670  44.482  11.458
54356W        W26781  22.664  18.323  10.645
54357W        W26782  40.532   5.235  14.894
54358W        W26783  19.463  36.484   0.883
54359W        W26784  27.418  35.162   2.665
54360W        W26785  22.654  43.549  11.897
54361W        W26786  39.425  38.285   3.822
54362W        W26787   6.579  35.566   4.614
54363W        W26788   1.301  42.400  13.833
54364W        W26789   7.905  15.701  10.794
54365W        W26790  18.562  13.380  12.177
54366W        W26791  42.749   9.243   0.934
54367W        W26792  44.850   3.746   2.901
54368W        W26793  18.619  14.239   4.498
54369W        W26794  19.422  19.462  14.315
54370W        W26795  14.736  10.879   1.364
54371W        W26796  20.027   2.434  13.788
54372W        W26797  35.441   3.438   2.457
54373W        W26798  39.792   4.133  13.994
54374W        W26799  32.712   2.290  12.931
54375W        W26800  44.862  38.296  10.709
54376W        W26801   7.492  27.828  14.006
54377W        W26802   3.258  33.012   4.541
54378W        W26803   2.065   8.584   3.212
54379W        W26804  31.438  20.584   3.712
54380W        W26805  34.973  27.423   1.681
54381W        W26806  19.167  12.308   2.856
54382W        W26807  16.383  13.615  10.452
54383W        W26808  24.288  14.179   2.540
54384W        W26809   7.269  36.836   4.416
54385W        W26810   4.897  26.040   4.598
54386W        W26811  18.760   1.294   3.106
54387W        W26812  22.193  15.870  12.357
54388W        W26813  30.995  11.332  11.351
54389W        W26814   5.259   3.737   4.008
54390W        W26815  34.586  36.435   2.406
54391W        W26816  39.503  27.427   1.705
54392W        W26817  16.791  20.608  14.380
54393W        W26818  20.617  20.527   1.900
54394W        W26819  18.851   7.641   4.521
54395W        W26820  38.056  24.626  11.607
54396W        W26821  32.836  30.995  14.982
54397W        W26822  26.536   2.361   0.442
54398W        W26823  11.729  19.923  13.063
54399W        W26824  15.011  10.403   2.345
54400W        W26825  21.736  10.903   2.119
54401W        W26826  26.157  11.444   1.693
54402W        W26827  35.977  22.187   1.994
54403W        W26828  39.469  25.446  13.640
54404W        W26829  28.007  16.321  11.180
54405W        W26830  44.739  38.802   3.137
54406W        W26831   6.739  27.273  11.873
54407W        W26832  11.171  16.791  13.838
54408W        W26833  30.047  38.279   1.051
54409W        W26834  11.157  39.358   2.585
54410W        W26835   6.159  20.674   3.691
54411W        W26836   2.570  40.422  11.387
54412W        W26837  40.498  34.127  11.943
54413W        W26838   5.386  24.781  14.940
54414W        W26839  21.869   4.731   2.335
54415W        W26840  30.507  10.116  11.613
54416W        W26841   8.925  37.608   4.682
54417W        W26842  40.105  30.096  10.776
54418W        W26843  42.488  13.897   2.651
54419W        W26844  30.654  35.536   2.875
54420W        W26845  22.451  21.410   4.138
54421W        W26846  14.313   8.207  12.462
54422W        W26847  18.199  34.172  14.623
54423W        W26848  23.071  15.202  13.063
54424W        W26849  13.115  18.365  12.136
54425W        W26850  43.703  37.912  11.904
54426W        W26851   6.329   2.813   1.700
54427W        W26852  19.550  21.311  14.370
54428W        W26853   6.213  12.754  12.962
54429W        W26854   7.664  42.528   4.725
54430W        W26855  30.097  17.614  11.159
54431W        W26856   4.303  28.658  13.804
54432W        W26857   3.918  16.491   3.681
54433W        W26858   8.764  33.683   0.256
54434W        W26859  26.979  37.444  10.646
54435W        W26860  10.243   7.338  12.773
54436W        W26861  10.749   5.015  11.308
54437W        W26862  27.146  11.708  13.838
54438W        W26863  28.152  29.634   2.557
54439W        W26864   1.525  44.448   4.631
54440W        W26865  13.312  35.838   3.247
54441W        W26866  22.675  38.485  13.060
54442W        W26867  36.347  21.039  12.959
54443W        W26868  43.582  26.995  13.200
54444W        W26869  41.288  12.705  14.825
54445W        W26870   3.518  41.886   1.393
54446W        W26871  25.578  16.236  12.027
54447W        W26872   9.884  18.592  10.707
54448W        W26873  22.439  13.649   3.378
54449W        W26874  44.393  24.266   2.669
54450W        W26875  24.628  44.063  13.020
54451W        W26876   9.526   6.211  14.421
54452W        W26877   5.825  11.725   3.787
54453W        W26878  25.149  43.105  11.125
54454W        W26879  32.595  37.363   3.142
54455W        W26880  37.410  31.118   2.812
54456W        W26881  43.531  42.499  13.271
54457W        W26882  34.469  15.435  11.099
54458W        W26883  22.914  24.035  13.087
54459W        W26884  31.908  28.065   1.911
54460W        W26885   9.556  30.592   3.382
54461W        W26886  31.211  25.965   4.257
54462W        W26887  28.346  27.674  11.613
54463W        W26888  27.236  32.045   2.172
54464W        W26889  11.080   9.798  13.982
54465W        W26890  23.042  13.849  13.621
54466W        W26891   8.576   8.733  14.509
54467W        W26892  24.970   8.179  12.675
54468W        W26893  40.346  19.507  13.848
54469W        W26894   7.288   0.168   1.190
54470W        W26895  43.053  39.689   0.713
54471W        W26896  16.723  15.100  13.394
54472W        W26897  26.464  32.541  13.495
54473W        W26898  24.572  25.048   4.699
54474W        W26899  17.978  25.945   2.794
54475W        W26900  33.341   0.925  10.835
54476W        W26901  16.565  17.733   3.749
54477W        W26902  17.179  29.742   0.281
54478W        W26903   5.767  11.076  14.400
54479W        W26904  41.431   6.175   1.158
54480W        W26905  42.864  22.577   4.163
54481W        W26906  32.866  15.086   2.223
54482W        W26907   5.211  37.606  14.499
54483W        W26908  29.607  32.006   3.983
54484W        W26909   7.736  10.406   0.835
54485W        W26910  14.578  21.573  10.687
54486W        W26911   4.776  29.874  10.844
54487W        W26912  14.808  38.963  11.831
54488W        W26913  25.349  35.436   4.062
54489W        W26914  23.049  31.358  12.582
54490W        W26915   5.905   1.789   2.182
54491W        W26916  12.684  15.784  12.933
54492W        W26917  30.759   2.545   2.864
54493W        W26918  13.565  29.438  12.242
54494W        W26919  40.408  24.561  11.921
54495W        W26920  25.512  44.150   4.169
54496W        W26921  21.579  25.657  13.514
54497W        W26922  28.005  31.806  11.507
54498W        W26923  23.068   2.896   1.936
54499W        W26924  20.331  25.173   2.217
54500W        W26925  12.275  20.786  13.829
54501W        W26926  25.181  18.700   1.169
54502W        W26927  36.147  35.958   0.406
54503W        W26928  14.926  41.421  11.534
54504W        W26929   5.987  24.589   1.699
54505W        W26930  22.774  39.404   1.337
54506W        W26931  23.006   3.854  14.088
54507W        W26932   8.917  22.686   3.286
54508W        W26933  24.751  21.250  14.025
54509W        W26934  13.974  34.082  12.959
54510W        W26935  33.772  31.418   2.415
54511W        W26936  33.455   0.790  12.531
54512W        W26937   4.866  33.902   3.882
54513W        W26938  15.196  18.888   3.215
54514W        W26939  17.232  26.593  14.230
54515W        W26940  44.879  41.859   0.431
54516W        W26941  44.183  24.990   3.761
54517W        W26942  12.427  11.209   1.668
54518W        W26943  41.722  35.001   3.777
54519W        W26944  36.644  17.624   1.762
54520W        W26945  12.385   3.658  13.590
54521W        W26946   9.818  14.099  11.870
54522W        W26947  37.317   7.202  14.334
54523W        W26948  36.893  41.603  14.355
54524W        W26949  16.943   1.024   4.243
54525W        W26950  36.952  42.753   3.296
54526W        W26951  14.323  11.148  11.175
54527W        W26952  10.851  25.184  10.508
54528W        W26953  25.912  29.033  10.753
54529W        W26954   9.922  42.826  13.773
54530W        W26955  14.824  21.070   2.883
54531W        W26956  25.785  20.402  11.519
54532W        W26957  20.982  21.276   1.613
54533W        W26958   0.896  24.686  12.998
54534W        W26959  16.811  44.790  13.818
54535W        W26960  28.007  25.653  10.765
54536W        W26961   2.245  23.220   1.470
54537W        W26962  43.894   5.796   1.422
54538W        W26963   3.281  35.989   1.680
54539W        W26964  23.829   4.247  11.524
54540W        W26965  32.033  33.793   3.725
54541W        W26966  12.829   8.977  10.566
54542W        W26967  19.640   7.714  14.968
54543W        W26968  19.339  30.382   1.038
54544W        W26969  20.639  34.317  13.748
54545W        W26970  13.033  18.572   1.403
54546W        W26971   3.927  26.956  12.058
54547W        W26972  32.426   8.603  10.766
54548W        W26973  20.989  16.718  11.087
54549W        W26974  40.535  24.256   3.888
54550W        W26975  23.888  29.459  12.011
54551W        W26976  33.365  11.226  11.334
54552W        W26977  23.056  17.359   0.168
54553W        W26978  19.901  17.477   4.643
54554W        W26979  41.361  30.738   1.657
54555W        W26980   9.810  37.927  14.440
54556W        W26981  37.107  21.687  12.622
54557W        W26982  10.902   8.242   3.721
54558W        W26983  42.480  27.205   0.298
54559W        W26984  14.507  23.526   2.221
54560W        W26985  12.229  11.321  12.949
54561W        W26986  22.556  31.926   3.221
54562W        W26987  14.340  17.499   3.719
54563W        W26988  17.376  24.209  14.418
54564W        W26989   6.749  28.104   3.825
54565W        W26990  18.983  15.454   0.751
54566W        W26991  19.579  28.120   0.479
54567W        W26992  19.996  20.851  12.023
54568W        W26993   2.256   4.196  11.885
54569W        W26994  44.699  34.913   1.002
54570W        W26995  33.824  39.050   2.284
54571W        W26996  27.559  38.795   1.748
54572W        W26997  23.469  33.074  14.970
54573W        W26998   8.874  43.704   1.288
54574W        W26999  15.696  37.438   0.436
54575W        W27000   0.244   7.768   0.945
54576W        W27001  38.882  32.619   3.118
54577W        W27002  20.701  41.771   3.743
54578W        W27003   7.440  22.016  14.844
54579W        W27004  18.317  39.483  10.576
54580W        W27005  16.045  32.149   0.850
54581W        W27006  43.410  18.525   2.696
54582W        W27007  43.519  24.826   2.727
54583W        W27008   2.956  42.900  11.001
54584W        W27009  39.803   7.138   1.859
54585W        W27010  32.544  40.453  13.278
54586W        W27011  35.092  19.950   1.299
54587W        W27012   3.697   5.672  12.478
54588W        W27013  24.046  25.999   0.717
54589W        W27014   9.088  37.588  11.543
54590W        W27015   7.093  39.861  11.812
54591W        W27016  43.051  34.448  11.134
54592W        W27017  10.208  30.590   2.244
54593W        W27018  12.132  33.973  11.509
54594W        W27019  34.952  28.592   0.168
54595W        W27020  10.599  30.565  11.484
54596W        W27021  40.606  37.594  14.053
54597W        W27022  43.668   4.099   0.779
54598W        W27023  19.574  10.252  12.106
54599W        W27024  40.267   6.358  14.281
54600W        W27025   4.713  29.142  10.347
54601W        W27026  16.006  30.049   3.015
54602W        W27027  39.503   9.738   0.330
54603W        W27028  35.534  40.024  13.417
54604W        W27029  44.235  28.987  10.764
54605W        W27030  15.685  20.639   2.251
54606W        W27031  20.679   3.948  13.491
54607W        W27032   7.979  20.782  11.444
54608W        W27033  18.324  32.182   4.168
54609W        W27034  21.866   9.299  12.908
54610W        W27035   9.403  19.247   4.226
54611W        W27036  25.473  34.274   0.037
54612W        W27037  18.035  28.279   2.818
54613W        W27038  21.984  14.403   3.759
54614W        W27039  26.978  15.175  12.542
54615W        W27040  11.734  18.105   2.855
54616W        W27041  31.080  27.963  11.557
54617W        W27042  10.829  14.581   1.691
54618W        W27043  33.545   8.394   1.632
54619W        W27044  33.446  38.098  12.037
54620W        W27045  39.359  10.675  11.955
54621W        W27046  37.348  39.101   3.439
54622W        W27047  42.765  22.230  10.289
54623W        W27048   8.221  25.929  11.516
54624W        W27049  42.203   2.310   0.854
54625W        W27050  15.731  15.333  14.734
54626W        W27051  39.646  34.060   1.746
54627W        W27052  22.442  30.502   5.038
54628W        W27053  43.102   0.414  14.012
54629W        W27054   0.425   4.706   1.662
54630W        W27055   5.172   8.099  12.611
54631W        W27056   2.385  35.458   3.667
54632W        W27057  24.588  21.426  11.356
54633W        W27058   7.901  40.093   4.186
54634W        W27059   0.449  28.252  14.498
54635W        W27060  35.268  17.705  13.641
54636W        W27061  16.570  37.769   2.527
54637W        W27062  33.567   2.216  11.084
54638W        W27063  10.425  25.036   2.176
54639W        W27064  24.763  43.250  13.994
54640W        W27065  44.024  15.292  11.127
54641W        W27066  10.676  35.906  10.648
54642W        W27067  44.751  18.655  10.713
54643W        W27068  13.895  22.520   0.185
54644W        W27069   2.305   3.180  12.256
54645W        W27070  22.747  12.234   1.338
54646W        W27071  20.165  18.499   3.126
54647W        W27072   0.941  19.634  12.415
54648W        W27073  44.464   4.457  12.504
54649W        W27074  30.142   9.471  14.342
54650W        W27075  44.698  36.082  14.392
54651W        W27076  25.395  31.653   0.887
54652W        W27077  30.481  36.806  10.770
54653W        W27078  32.461  39.512   2.320
54654W        W27079  25.648  31.063  11.833
54655W        W27080  42.852   8.149  13.961
54656W        W27081  29.961  31.848   0.762
54657W        W27082   4.762   8.119  11.682
54658W        W27083   3.886   0.304  14.949
54659W        W27084  27.144  22.688  14.826
54660W        W27085  25.541  41.550   1.835
54661W        W27086  20.320  23.809  12.482
54662W        W27087  43.853  37.426  13.016
54663W        W27088  38.781  37.372   3.175
54664W        W27089  41.572  41.677   0.796
54665W        W27090  40.989  40.874  14.797
54666W        W27091  12.390  25.403   4.529
54667W        W27092  33.638   8.765  14.443
54668W        W27093  20.887  43.455  13.324
54669W        W27094  20.169  24.198   0.250
54670W        W27095  43.573  43.932  13.024
54671W        W27096  36.512   1.307   3.745
54672W        W27097   2.860  37.620  11.223
54673W        W27098  44.851  26.114   1.688
54674W        W27099  14.681  25.557  11.662
54675W        W27100  36.535  22.804  12.300
54676W        W27101  19.448  25.569  11.829
54677W        W27102  14.300  38.102   4.845
54678W        W27103  13.871   1.780   2.326
54679W        W27104  12.270  30.468  13.485
54680W        W27105  20.392  28.601  11.690
54681W        W27106  36.560  41.508   2.495
54682W        W27107  38.382  26.952   1.172
54683W        W27108  26.672  44.339   3.144
54684W        W27109  20.290   0.505   3.348
54685W        W27110   1.493  12.290   4.527
54686W        W27111   7.945   6.681  14.425
54687W        W27112  41.362  12.370   0.927
54688W        W27113   2.008  32.007  10.822
54689W        W27114  39.090  22.143  14.321
54690W        W27115  37.726  29.920  14.278
54691W        W27116  30.902  18.704   2.273
54692W        W27117   1.080   6.742  13.202
54693W        W27118   1.320  25.967   4.438
54694W        W27119  35.814  30.009  10.765
54695W        W27120  21.222   2.686  12.237
54696W        W27121  27.660   4.422  10.710
54697W        W27122   6.275  24.079   1.819
54698W        W27123   9.877  40.474  12.032
54699W        W27124  18.620   8.176  13.905
54700W        W27125  41.797  30.354  13.819
54701W        W27126  36.076  38.322  13.132
54702W        W27127  40.771   8.896   2.325
54703W        W27128   7.251  33.826   4.397
54704W        W27129  32.018   0.118  14.525
54705W        W27130   5.605  35.710   5.171
54706W        W27131  27.274   0.427   4.523
54707W        W27132  43.782  33.635   0.898
54708W        W27133  21.206  34.022  12.592
54709W        W27134  31.877  30.177   1.510
54710W        W27135  31.996   2.966   1.750
54711W        W27136  42.473  34.932  10.476
54712W        W27137  25.762  10.861  14.924
54713W        W27138  44.668  30.602   4.401
54714W        W27139  43.864   8.252   3.335
54715W        W27140  13.640  41.342   3.240
54716W        W27141  38.788  30.075   2.412
54717W        W27142  20.352  17.772  14.230
54718W        W27143  43.063  37.630   0.936
54719W        W27144  44.210  38.784  11.630
54720W        W27145   4.533   4.174   1.456
54721W        W27146  11.383   6.729   2.322
54722W        W27147  20.092  18.668   0.962
54723W        W27148  33.173  25.099  12.494
54724W        W27149  30.526  26.141  14.479
54725W        W27150   1.399  33.348  12.031
54726W        W27151  11.178   1.510   3.191
54727W        W27152  14.479  15.792   2.060
54728W        W27153  44.770  40.480   1.730
54729W        W27154  41.872  29.426  14.952
54730W        W27155  11.299  31.788  12.861
54731W        W27156  30.083  30.862  11.027
54732W        W27157  14.228  35.785   4.091
54733W        W27158   6.325  15.571   0.813
54734W        W27159  30.051  25.714   0.198
54735W        W27160  25.276   5.855   0.086
54736W        W27161   5.336  21.124   4.436
54737W        W27162  30.238   3.408  11.406
54738W        W27163   7.870  12.216   1.216
54739W        W27164  11.253   0.511   4.488
54740W        W27165   2.304   2.192  11.613
54741W        W27166  44.983   4.590   4.928
54742W        W27167   2.431  38.358  10.791
54743W        W27168   5.773  39.275  11.578
54744W        W27169  39.708  25.983  13.352
54745W        W27170  41.131  19.042   2.900
54746W        W27171   2.819   7.113   2.118
54747W        W27172   7.376  35.131   0.824
54748W        W27173  34.160   9.130   4.376
54749W        W27174  13.251  22.421  10.674
54750W        W27175  20.603  39.342   2.036
54751W        W27176  17.732  43.796   4.249
54752W        W27177  26.503  43.489   4.060
54753W        W27178   0.494   0.404  12.623
54754W        W27179   9.678  44.307   0.370
54755W        W27180  31.495  10.604   3.897
54756W        W27181  19.284  28.751  13.004
54757W        W27182  43.334  26.574  13.406
54758W        W27183  24.593  33.838   3.618
54759W        W27184  41.979  44.959   0.370
54760W        W27185  30.701  25.934  13.893
54761W        W27186  37.861  18.598  10.742
54762W        W27187  18.851  41.041  12.406
54763W        W27188  41.862   7.505   0.716
54764W        W27189  33.279  24.336  11.601
54765W        W27190  20.497  21.920   3.447
54766W        W27191   0.189  35.566  14.919
54767W        W27192  28.817  41.011   3.204
54768W        W27193  18.156  36.454  12.256
54769W        W27194  36.385  11.268  14.440
54770W        W27195  33.978   9.333   4.816
54771W        W27196  23.700  18.783  14.977
54772W        W27197  13.301  38.385   2.251
54773W        W27198   2.434  23.570  12.175
54774W        W27199  10.889  31.097  14.766
54775W        W27200   5.778  35.155  12.535
54776W        W27201   3.228  24.742   2.385
54777W        W27202  35.139  11.306   4.018
54778W        W27203  16.286  11.766  12.859
54779W        W27204  38.501  17.297  13.282
54780W        W27205  15.249  32.678   0.883
54781W        W27206  28.926  36.470  14.751
54782W        W27207  23.205  24.410   0.059
54783W        W27208  44.307  16.776  13.080
54784W        W27209  35.104  42.058   1.186
54785W        W27210   5.807  43.867  14.800
54786W        W27211  38.903   7.206   1.743
54787W        W27212  20.798   1.851   2.806
54788W        W27213   6.768  42.240   2.800
54789W        W27214  35.074  22.673   1.874
54790W        W27215  36.268  29.630   3.875
54791W        W27216  27.924  36.293  10.549
54792W        W27217  41.523  18.190  11.937
54793W        W27218  10.310  27.781  12.525
54794W        W27219  16.464  39.602  14.833
54795W        W27220  32.460  33.017   3.578
54796W        W27221  17.869  37.548  12.989
54797W        W27222  30.093  30.614   2.269
54798W        W27223   0.807   7.225  11.205
54799W        W27224  38.492   2.124   0.406
54800W        W27225  31.698  28.635   0.305
54801W        W27226  16.696  13.819   0.539
54802W        W27227  19.567  42.191  12.665
54803W        W27228  22.540  29.662  11.004
54804W        W27229  27.141  22.553  11.465
54805W        W27230  18.313  16.837  14.354
54806W        W27231  18.535  25.151  14.235
54807W        W27232  29.089   6.135   4.364
54808W        W27233  39.427  18.257   1.267
54809W        W27234  25.228  24.187  13.117
54810W        W27235  33.527   8.774   0.324
54811W        W27236  43.427  19.591   3.931
54812W        W27237  40.267  39.985   1.573
54813W        W27238  38.931  24.773  12.505
54814W        W27239  39.879  17.269   0.278
54815W        W27240   6.017  23.072  12.605
54816W        W27241  13.197  18.086   1.447
54817W        W27242  26.390  44.912  13.534
54818W        W27243   8.213   5.790  13.581
54819W        W27244  16.234  24.177   3.377
54820W        W27245  33.381  41.315  13.002
54821W        W27246  37.319   3.862   1.848
54822W        W27247  23.968   6.963   0.356
54823W        W27248  11.591   0.747   0.941
54824W        W27249  24.435  17.115  14.771
54825W        W27250  28.324  11.719  12.873
54826W        W27251  18.993   9.053   0.625
54827W        W27252  32.995  27.905   2.758
54828W        W27253  26.037  22.430   1.781
54829W        W27254  42.489  44.249   2.371
54830W        W27255  13.046  28.598  13.505
54831W        W27256  23.224  36.509   4.600
54832W        W27257  39.509   6.529   0.676
54833W        W27258  38.002   3.299   3.317
54834W        W27259  24.473  34.527   2.411
54835W        W27260  26.432  21.120  10.687
54836W        W27261  39.361   2.213  13.508
54837W        W27262  32.330  42.069  14.012
54838W        W27263  42.584  18.746   0.117
54839W        W27264  32.408   5.386   3.134
54840W        W27265   9.915  16.543   2.250
54841W        W27266  14.518  22.674   4.173
54842W        W27267  41.612  26.279  11.439
54843W        W27268  36.949  17.839   2.108
54844W        W27269  42.397  27.814   2.806
54845W        W27270  26.596  42.529   2.790
54846W        W27271  27.277  33.383   3.566
54847W        W27272   6.376  25.058   3.651
54848W        W27273  43.010  35.027  13.924
54849W        W27274  21.246  37.025   0.456
54850W        W27275   7.227  29.481  11.928
54851W        W27276   0.942  16.569   2.244
54852W        W27277  16.898  13.807   1.484
54853W        W27278  14.053  15.699  12.599
54854W        W27279  42.118  25.098  10.566
54855W        W27280   6.276  20.226  10.636
54856W        W27281  29.484  35.997   4.578
54857W        W27282   1.048  18.905   2.341
54858W        W27283  22.498  18.560  13.495
54859W        W27284   5.684  12.299  14.943
54860W        W27285  20.539  11.051   4.381
54861W        W27286   3.525  40.938   0.224
54862W        W27287  19.258  36.937  13.061
54863W        W27288  24.238  34.119  12.671
54864W        W27289  21.782  20.102   3.823
54865W        W27290  17.847  17.640  12.960
54866W        W27291  32.012  18.785   0.880
54867W        W27292  12.520  28.635  12.648
54868W        W27293  25.423  24.261  13.598
54869W        W27294  18.233   6.050   4.700
54870W        W27295  44.011   1.761   2.823
54871W        W27296  23.607  32.647   1.715
54872W        W27297  19.325  40.499  14.505
54873W        W27298  33.378  31.012  12.153
54874W        W27299   0.753   4.935   4.998
54875W        W27300  19.108  23.967  10.637
54876W        W27301  24.645  15.812   3.127
54877W        W27302  19.034  23.585   0.470
54878W        W27303   9.702  13.421   0.367
54879W        W27304  11.761  41.372  13.136
54880W        W27305   7.477  44.369   0.192
54881W        W27306  39.955  18.283  14.460
54882W        W27307  29.665   4.265  12.049
54883W        W27308  25.235  26.136   2.664
54884W        W27309  18.816  26.963   4.361
54885W        W27310  43.852  38.561   2.711
54886W        W27311  33.450  11.538  12.619
54887W        W27312  16.730   8.879  12.993
54888W        W27313  21.248   1.483   3.708
54889W        W27314  29.914   3.229   0.858
54890W        W27315   6.951  25.195  14.962
54891W        W27316   6.678  39.506  13.497
54892W        W27317   8.167   3.225  12.040
54893W        W27318  43.921  38.958  13.563
54894W        W27319  16.424  18.647  14.803
54895W        W27320  43.536  38.477  11.125
54896W        W27321  41.660  12.514   2.014
54897W        W27322  25.322  12.605  12.514
54898W        W27323   4.458  33.039   3.575
54899W        W27324  11.453   8.095  12.564
54900W        W27325  12.801  21.825   3.132
54901W        W27326   9.302  22.818   0.431
54902W        W27327  25.656  28.445   1.583
54903W        W27328  40.808  32.299  14.528
54904W        W27329  34.896  34.076  10.602
54905W        W27330  17.920  27.973  13.912
54906W        W27331   1.936  28.565   3.772
54907W        W27332   8.089  38.739   1.834
54908W        W27333  27.538   3.491   3.830
54909W        W27334  23.136  18.895   0.917
54910W        W27335  39.708  28.269  12.033
54911W        W27336  30.825  34.971  12.977
54912W        W27337  41.929   1.853   2.683
54913W        W27338  10.197  15.224   4.167
54914W        W27339   4.434  42.765   2.825
54915W        W27340  14.204  19.664  12.929
54916W        W27341  18.235  37.862   2.721
54917W        W27342   2.865  20.048  14.838
54918W        W27343  14.849  10.225  14.186
54919W        W27344  32.882  36.335  12.546
54920W        W27345  18.786  39.049   2.626
54921W        W27346  32.507  36.542   2.680
54922W        W27347   3.990  41.925   2.287
54923W        W27348  17.798  39.006  13.104
54924W        W27349  27.341  29.344  11.170
54925W        W27350   9.226   5.024   3.572
54926W        W27351  28.144  29.829   5.569
54927W        W27352   5.770  18.383  13.441
54928W        W27353   0.363  38.676   0.233
54929W        W27354  40.119  42.702  12.507
54930W        W27355   5.012  20.983  12.663
54931W        W27356  17.246  25.161   1.826
54932W        W27357  35.450   4.889   1.333
54933W        W27358  18.012   9.212   1.782
54934W        W27359   8.528  25.987   1.916
54935W        W27360  36.565   4.339   0.502
54936W        W27361  20.191  39.529  14.521
54937W        W27362  39.280  19.237  12.644
54938W        W27363  27.468  12.137  12.975
54939W        W27364  17.769  36.580  13.105
54940W        W27365  18.658   3.253   4.188
54941W        W27366  35.632  10.754   4.174
54942W        W27367   6.435   0.320   3.851
54943W        W27368   1.029  18.983   4.241
54944W        W27369  34.452  33.497  12.047
54945W        W27370  34.898  29.169  10.665
54946W        W27371   1.995   1.942   0.324
54947W        W27372   5.767   3.192   4.525
54948W        W27373  23.513  27.557  14.222
54949W        W27374  32.880  44.812   0.279
54950W        W27375   2.926  44.052   4.630
54951W        W27376  18.703  42.942   4.565
54952W        W27377  21.728  42.254   4.659
54953W        W27378  38.256  33.882   1.792
54954W        W27379  26.891   9.903  14.344
54955W        W27380  41.863  37.361   3.638
54956W        W27381  22.732   4.670  11.077
54957W        W27382  17.801  14.625   4.721
54958W        W27383   9.137  42.644   0.020
54959W        W27384  26.687  36.212  14.195
54960W        W27385   8.450   1.220  14.272
54961W        W27386  16.652   1.365  10.114
54962W        W27387   6.824  41.055   3.436
54963W        W27388  29.480  26.559  14.997
54964W        W27389  35.049  23.641   4.133
54965W        W27390   0.347  29.696   3.697
54966W        W27391  38.739  11.566  12.053
54967W        W27392   3.726  41.440   3.324
54968W        W27393   7.842  22.812   0.913
54969W        W27394  26.879  10.749  11.517
54970W        W27395  42.756  26.712  13.839
54971W        W27396   4.874   8.607  11.869
54972W        W27397  22.558  38.770  12.106
54973W        W27398  32.065  34.557   2.218
54974W        W27399  28.216  37.913  14.468
54975W        W27400  17.805  24.033   2.825
54976W        W27401  27.658   6.111  13.947
54977W        W27402  13.849   5.951   2.412
54978W        W27403  22.315  28.575   4.202
54979W        W27404   5.906  44.495   0.796
54980W        W27405  26.647  34.598   0.421
54981W        W27406  44.232  43.324  12.845
54982W        W27407  30.126  12.640   4.255
54983W        W27408   0.216   1.895  11.423
54984W        W27409  16.564  28.454   2.237
54985W        W27410  44.447  40.505  11.927
54986W        W27411  17.489  32.163   4.788
54987W        W27412  38.739  39.061   1.321
54988W        W27413  27.934  41.402  14.519
54989W        W27414  21.105  22.192   1.790
54990W        W27415   0.424  36.585  13.417
54991W        W27416   3.297  20.507   3.750
54992W        W27417  34.611  37.102  14.296
54993W        W27418   8.287  20.698  13.963
54994W        W27419  41.773   8.886  13.869
54995W        W27420  24.616  25.755  13.899
54996W        W27421  22.721   9.413  10.114
54997W        W27422   4.107  16.543  10.682
54998W        W27423  39.063  22.566  13.463
54999W        W27424  28.985  12.095   1.367
55000W        W27425  44.445  41.009  10.980
55001W        W27426  22.967  38.242   0.325
55002W        W27427  32.430  24.528   0.973
55003W        W27428  27.096  41.426  10.898
55004W        W27429  26.996  33.955   3.203
55005W        W27430  26.462  12.576  11.303
55006W        W27431  28.156  29.599  10.800
55007W        W27432   7.415  27.239   0.770
55008W        W27433  14.114  39.550  12.851
55009W        W27434  14.005  43.784  13.072
55010W        W27435   5.542  21.217   2.923
55011W        W27436   3.760  32.880   2.942
55012W        W27437  41.849  24.098  11.958
55013W        W27438  31.899  18.876  12.415
55014W        W27439   7.740  39.953   1.429
55015W        W27440  32.385  22.851   3.827
55016W        W27441  34.480  27.951   3.681
55017W        W27442   1.066   7.780   3.572
55018W        W27443  26.648  32.003   3.672
55019W        W27444  12.601  31.349   3.611
55020W        W27445   6.157  42.366  11.132
55021W        W27446  17.686  41.401  13.516
55022W        W27447  16.691  19.199  13.842
55023W        W27448  40.357  35.623  14.742
55024W        W27449  28.574  37.650   1.320
55025W        W27450  23.719  10.260  10.986
55026W        W27451   9.180  27.607  13.418
55027W        W27452  13.568  24.062  13.815
55028W        W27453  36.267  12.409  14.673
55029W        W27454  36.926  12.234   0.197
55030W        W27455  37.354  29.193  12.619
55031W        W27456  12.224  27.206  14.387
55032W        W27457  13.815  36.081   3.943
55033W        W27458  31.933  19.355  11.173
55034W        W27459  35.052  25.495  10.719
55035W        W27460  36.638  19.078   1.623
55036W        W27461  34.600  12.123  13.968
55037W        W27462   8.403  44.361   1.625
55038W        W27463  24.711  28.918   4.606
55039W        W27464  41.366  15.377   2.348
55040W        W27465   9.339   6.835   2.797
55041W        W27466  19.633   5.270   4.353
55042W        W27467  13.109  27.186   1.628
55043W        W27468  36.451  25.667   2.792
55044W        W27469   8.276   8.463   9.788
55045W        W27470  35.573   0.294   2.419
55046W        W27471   0.621  44.839   2.056
55047W        W27472  24.028  20.294  14.937
55048W        W27473  29.471  36.133  14.434
55049W        W27474  19.001  23.027  14.953
55050W        W27475  39.263  14.771   0.243
55051W        W27476  36.910  11.289   0.066
55052W        W27477   6.888  24.534  10.952
55053W        W27478  28.587  32.674   2.761
55054W        W27479  22.016  26.065   3.803
55055W        W27480  15.303  19.292  14.263
55056W        W27481  30.449   7.168  10.444
55057W        W27482   6.366  14.380   5.049
55058W        W27483  18.327   2.473  12.591
55059W        W27484  20.161  36.330   4.525
55060W        W27485  22.083   1.179   0.370
55061W        W27486  23.703  23.099   4.132
55062W        W27487  43.558  24.732  13.333
55063W        W27488  43.147  25.080  13.417
55064W        W27489  37.623   6.795   3.717
55065W        W27490   7.641   3.721  10.779
55066W        W27491  38.055  24.545   0.287
55067W        W27492   0.935  37.836  10.908
55068W        W27493  10.411   1.727  11.047
55069W        W27494  33.244  24.053   1.841
55070W        W27495  31.420  16.605  11.561
55071W        W27496  11.882   2.031   1.563
55072W        W27497  27.586  40.752  14.839
55073W        W27498   9.786  25.154  12.112
55074W        W27499  36.624  44.392   1.530
55075W        W27500   5.007  28.463  11.364
55076W        W27501  26.976   7.101   0.839
55077W        W27502  40.228  44.911   3.741
55078W        W27503   1.494   2.966   3.505
55079W        W27504   1.421  26.059   2.122
55080W        W27505   6.060  35.009   3.438
55081W        W27506   4.375  27.159  10.678
55082W        W27507  21.322   8.771  13.375
55083W        W27508  25.997  11.318  11.570
55084W        W27509   9.687   2.217  14.721
55085W        W27510  25.685  37.545   2.353
55086W        W27511   0.911  22.136  12.939
55087W        W27512  20.251   2.827   0.481
55088W        W27513  27.058  38.987  13.995
55089W        W27514  27.402  39.462  12.938
55090W        W27515   2.465  40.604   2.389
55091W        W27516  13.480  28.787   1.789
55092W        W27517  22.070  26.050   1.474
55093W        W27518  37.393  39.620   3.297
55094W        W27519  27.158  11.433  10.990
55095W        W27520  16.754  29.421   1.034
55096W        W27521  22.472  36.894  14.808
55097W        W27522  22.781  33.637  10.710
55098W        W27523   6.156  37.554  13.514
55099W        W27524  14.137  36.003   2.013
55100W        W27525  18.042  38.338   2.838
55101W        W27526  30.743   2.770  11.870
55102W        W27527   2.427  18.199   1.472
55103W        W27528   8.744  10.125  14.958
55104W        W27529  14.169  33.964  12.499
55105W        W27530  12.852  27.638  11.620
55106W        W27531  38.495   8.806   3.875
55107W        W27532   1.458  32.051   2.275
55108W        W27533  37.184  22.449   2.339
55109W        W27534  15.880  40.497  11.483
55110W        W27535  31.009  34.404   3.528
55111W        W27536  29.207  41.056  11.725
55112W        W27537  43.380   8.421   3.409
55113W        W27538  32.735  19.986   2.217
55114W        W27539   1.927  23.498  11.461
55115W        W27540   6.829  35.650   3.795
55116W        W27541  20.084  43.076   1.660
55117W        W27542  23.310  10.274   9.716
55118W        W27543  22.253  17.143   0.320
55119W        W27544  43.154   5.289   1.138
55120W        W27545  22.618  35.074   2.968
55121W        W27546  13.574  26.043   4.860
55122W        W27547  17.697  43.702   0.262
55123W        W27548  25.286   3.184  13.954
55124W        W27549  22.512  39.937   4.789
55125W        W27550  11.154  41.349  13.929
55126W        W27551  16.901  43.510   4.055
55127W        W27552  40.469  33.956  10.490
55128W        W27553   0.835  19.675  12.924
55129W        W27554  24.851  28.753  12.457
55130W        W27555  31.610  25.061   1.930
55131W        W27556  44.289  27.993   3.601
55132W        W27557  21.992  36.397   3.901
55133W        W27558  28.561  34.027   2.849
55134W        W27559   2.848  35.307  14.399
55135W        W27560  20.693  39.336   4.494
55136W        W27561  40.014  15.635   0.909
55137W        W27562   5.648  35.986  13.256
55138W        W27563  13.034  24.038  10.635
55139W        W27564  18.203   3.506   1.152
55140W        W27565  42.978  27.056   2.413
55141W        W27566  29.024   1.376   2.608
55142W        W27567  44.226  12.353   0.609
55143W        W27568  25.500  22.938   0.493
55144W        W27569  22.736  32.369   0.929
55145W        W27570  36.273  16.538  12.564
55146W        W27571   4.721  29.027   3.227
55147W        W27572   5.896  27.393   1.358
55148W        W27573  30.658  43.496  14.863
55149W        W27574   8.067   3.704   3.850
55150W        W27575   6.051  15.683  13.505
55151W        W27576  23.259   2.020  13.776
55152W        W27577  13.761  40.480   2.368
55153W        W27578  34.639  15.866  13.714
55154W        W27579   5.129  22.120   1.688
55155W        W27580  10.248  36.610   3.719
55156W        W27581   0.416  19.797  14.407
55157W        W27582  42.865   6.185   0.739
55158W        W27583  25.663  19.491  11.097
55159W        W27584  11.283  31.094   1.914
55160W        W27585   6.914  28.699  11.496
55161W        W27586  32.067  42.546  13.482
55162W        W27587   7.209  27.053  14.934
55163W        W27588  23.925  30.135   1.766
55164W        W27589   1.964  34.477  11.134
55165W        W27590  20.895   9.745  12.176
55166W        W27591  18.359  38.729   2.634
55167W        W27592  15.503  27.392  11.804
55168W        W27593  44.633   0.475  13.267
55169W        W27594  16.538  39.767   1.208
55170W        W27595  44.290  28.639  13.348
55171W        W27596  17.159  20.265   3.129
55172W        W27597  12.722  21.558  10.659
55173W        W27598  26.929  21.309  12.780
55174W        W27599   1.893  18.040  14.391
55175W        W27600  18.138  38.363   4.521
55176W        W27601   9.085  25.721   0.062
55177W        W27602  41.938  29.067   0.973
55178W        W27603   6.506  18.098   1.437
55179W        W27604   8.484  30.619   3.542
55180W        W27605  31.690  12.694   3.282
55181W        W27606  36.890  23.037   4.967
55182W        W27607  21.110   6.668   4.161
55183W        W27608  38.549  34.078   2.704
55184W        W27609  34.705   8.797  11.067
55185W        W27610   2.818  31.922   2.305
55186W        W27611  16.560  42.656  12.135
55187W        W27612  39.721   8.055   0.813
55188W        W27613  36.582  37.938  11.224
55189W        W27614  35.513   1.354   4.690
55190W        W27615  44.428  41.083  14.797
55191W        W27616  40.785  32.935  12.191
55192W        W27617  26.608  17.006  11.552
55193W        W27618  17.012  31.477   9.913
55194W        W27619  24.610  30.923   3.125
55195W        W27620  37.878   0.202   4.304
55196W        W27621  38.405   7.003  12.802
55197W        W27622  14.288   5.911  13.028
55198W        W27623  22.276  18.653   1.918
55199W        W27624  31.625  37.053  12.896
55200W        W27625  17.230  40.019   1.743
55201W        W27626   7.322  20.001  11.953
55202W        W27627  13.108  29.528  13.500
55203W        W27628  22.996  31.857  12.413
55204W        W27629  20.741   3.660  13.926
55205W        W27630  16.185  26.505   2.051
55206W        W27631  29.521  21.762  11.576
55207W        W27632  17.524  26.581  12.079
55208W        W27633  31.631   3.889  11.489
55209W        W27634   8.688  23.773  10.439
55210W        W27635  33.422  35.516   1.495
55211W        W27636  14.064  11.410   0.281
55212W        W27637   6.610  23.730   2.713
55213W        W27638  39.910  25.606  10.747
55214W        W27639   3.853  27.114   0.748
55215W        W27640  33.597  19.531  11.948
55216W        W27641  24.016  42.935  12.344
55217W        W27642  14.288  22.949   1.567
55218W        W27643   8.881   7.684   3.911
55219W        W27644  30.934  19.870   3.785
55220W        W27645  21.751  43.557  11.708
55221W        W27646  30.785  30.467  10.744
55222W        W27647  27.421  33.633  13.858
55223W        W27648  36.029  28.907  13.983
55224W        W27649  13.728  44.374  11.008
55225W        W27650  24.804  43.284   4.638
55226W        W27651   3.403  33.683   3.992
55227W        W27652  16.669  16.043   0.753
55228W        W27653   8.459  34.248   2.275
55229W        W27654  15.632  32.537   4.125
55230W        W27655  35.353  11.216   2.741
55231W        W27656  24.082  11.123   0.931
55232W        W27657  18.502  12.699  11.670
55233W        W27658   5.408  24.999   2.286
55234W        W27659  32.073  40.499  13.006
55235W        W27660   6.762  30.203   0.406
55236W        W27661  29.026  35.633   0.432
55237W        W27662   9.490   5.179   1.689
55238W        W27663  35.654  32.957  11.147
55239W        W27664  11.283  26.422   0.835
55240W        W27665  21.213  36.362  14.404
55241W        W27666  31.859   7.310  14.347
55242W        W27667  14.663   2.366   2.011
55243W        W27668  41.914  23.626  14.650
55244W        W27669  12.118  42.757   2.409
55245W        W27670  40.305  11.457   0.929
55246W        W27671   5.886  35.445  10.740
55247W        W27672  44.157  29.043   3.343
55248W        W27673  11.147  43.624   3.655
55249W        W27674  32.320  40.845   3.815
55250W        W27675  22.441   8.395  12.079
55251W        W27676  30.113  40.515   1.426
55252W        W27677  23.261  29.062   2.169
55253W        W27678   0.758  38.116  14.426
55254W        W27679  20.326  30.106  10.165
55255W        W27680  33.905  44.937   1.373
55256W        W27681  39.989  37.954  11.892
55257W        W27682  28.972   5.781   2.486
55258W        W27683  37.912   0.741  10.653
55259W        W27684  38.817   6.972  13.593
55260W        W27685   5.876  28.584   1.669
55261W        W27686   8.869  20.137   1.181
55262W        W27687  27.038  29.888   3.470
55263W        W27688  19.110  33.423   9.727
55264W        W27689   6.609  10.716  10.633
55265W        W27690  19.597  20.716   3.648
55266W        W27691  39.037  27.458  12.621
55267W        W27692  35.835  15.747   1.429
55268W        W27693   9.209   6.879   0.691
55269W        W27694  23.445  17.716   1.896
55270W        W27695  38.911  12.162   3.738
55271W        W27696  42.394  40.629   0.358
55272W        W27697  43.383  19.616  14.562
55273W        W27698  44.434  44.753  12.584
55274W        W27699  39.127  29.887   0.760
55275W        W27700  40.613  12.527  14.978
55276W        W27701   3.449  30.874  13.839
55277W        W27702   9.191   8.731  13.315
55278W        W27703  35.866  34.674  12.082
55279W        W27704  29.676   5.854   2.261
55280W        W27705   5.887  24.173   2.439
55281W        W27706  11.604  23.116  13.114
55282W        W27707  29.149  37.093  12.922
55283W        W27708  33.601  21.332   3.186
55284W        W27709  33.834  17.206  13.353
55285W        W27710   2.807   2.290   3.917
55286W        W27711  27.938  16.162   2.946
55287W        W27712  43.850  17.402  10.360
55288W        W27713   2.235   7.779   2.253
55289W        W27714  17.771  28.734  14.868
55290W        W27715  12.127  13.748  14.795
55291W        W27716  38.534  15.239   4.305
55292W        W27717  32.081  23.909  10.961
55293W        W27718  28.753  23.903  11.278
55294W        W27719  21.658  42.300   1.259
55295W        W27720  35.852  15.858  12.718
55296W        W27721  43.039  39.567  11.548
55297W        W27722  18.746  35.985   1.780
55298W        W27723  13.197  25.595   3.323
55299W        W27724  20.662  27.197   3.963
55300W        W27725  34.510   3.791   2.792
55301W        W27726  10.064  25.956   2.594
55302W        W27727  12.612  13.136   3.727
55303W        W27728  28.332  13.133   2.030
55304W        W27729  24.719  41.947  14.981
55305W        W27730  41.330  11.599   3.756
55306W        W27731  11.774  22.607  12.481
55307W        W27732  29.504  38.937   1.889
55308W        W27733  28.953  38.433  14.534
55309W        W27734  30.435  23.161   3.457
55310W        W27735  42.383   3.731  14.474
55311W        W27736  11.163   9.748  11.453
55312W        W27737   4.999  33.063   3.733
55313W        W27738  22.550  19.843  10.799
55314W        W27739   4.689   8.643  13.965
55315W        W27740   1.749   7.883   0.458
55316W        W27741   8.679  28.624  14.451
55317W        W27742  12.735  25.598  13.713
55318W        W27743   5.676  15.062   2.259
55319W        W27744   3.991   4.161  13.406
55320W        W27745  43.776  36.289  13.350
55321W        W27746  38.522  36.952  13.360
55322W        W27747  26.896  44.881  10.408
55323W        W27748  17.188   7.969   3.315
55324W        W27749   1.921  16.327   4.508
55325W        W27750  44.774  43.309  13.439
55326W        W27751  26.855  22.541  10.552
55327W        W27752  10.997  10.221   2.629
55328W        W27753  19.562   2.944   1.128
55329W        W27754  15.373  28.204  14.843
55330W        W27755  26.536  44.029  13.004
55331W        W27756  35.827  25.604  11.857
55332W        W27757  42.554   2.197  11.145
55333W        W27758  31.316  44.860   1.302
55334W        W27759  14.586  27.613  13.565
55335W        W27760  14.136   9.025   2.950
55336W        W27761   1.997  24.944  13.942
55337W        W27762  23.463  37.601  11.107
55338W        W27763   4.625  27.578  11.477
55339W        W27764   9.330  39.455  12.069
55340W        W27765  21.167  36.910  14.547
55341W        W27766   9.979  19.731   2.899
55342W        W27767  16.836   6.979   4.110
55343W        W27768  35.018  41.989  12.049
55344W        W27769   9.240  30.042   3.645
55345W        W27770  38.803  31.233   4.628
55346W        W27771  21.803  11.083  10.690
55347W        W27772  23.123  34.675  10.790
55348W        W27773  10.192  23.959  14.550
55349W        W27774   1.992  42.674   2.708
55350W        W27775  20.871  29.711  12.730
55351W        W27776  14.148  10.005   3.276
55352W        W27777  11.127   7.663   1.869
55353W        W27778  27.001  37.481  14.333
55354W        W27779  13.820  19.185   3.416
55355W        W27780  26.421  12.798   3.747
55356W        W27781  24.027  25.470  10.901
55357W        W27782  12.847  30.915  14.188
55358W        W27783  22.976  30.462   3.329
55359W        W27784  14.919  10.403   1.457
55360W        W27785  16.815  19.267   1.378
55361W        W27786  39.791  26.262  12.931
55362W        W27787  14.761   9.906  11.527
55363W        W27788  32.092   3.361   0.764
55364W        W27789  14.344  11.898   1.798
55365W        W27790  13.850  32.413   4.830
55366W        W27791  23.085   6.876   3.365
55367W        W27792  36.016   0.990  14.285
55368W        W27793  39.354  39.467  10.539
55369W        W27794   5.707  10.147  14.569
55370W        W27795   9.247   4.161  14.356
55371W        W27796  36.136  40.568  11.348
55372W        W27797  39.801  25.541   0.087
55373W        W27798  33.095  40.638   2.126
55374W        W27799  28.580  26.290  14.239
55375W        W27800  22.160  31.076  14.971
55376W        W27801  42.130   3.155  10.363
55377W        W27802  31.455  43.950   3.774
55378W        W27803  35.813  33.950   3.674
55379W        W27804  42.988  11.368  14.468
55380W        W27805  12.336   0.699  11.290
55381W        W27806   6.968  21.755  12.081
55382W        W27807  10.266  21.502  13.991
55383W        W27808  24.072   8.584  12.032
55384W        W27809  40.299   6.197  13.457
55385W        W27810  35.136  21.514  11.691
55386W        W27811  11.240  24.718   2.604
55387W        W27812  42.298  31.050  10.594
55388W        W27813  16.037   9.275   2.729
55389W        W27814  34.637  19.085   3.677
55390W        W27815  17.597  41.405   0.691
55391W        W27816  40.066  34.571   1.358
55392W        W27817  14.520  24.270  10.945
55393W        W27818  40.230  34.065  14.481
55394W        W27819  29.449  28.488  14.214
55395W        W27820  28.672  33.597  12.583
55396W        W27821  33.940  26.852   2.322
55397W        W27822  15.272  29.005  12.043
55398W        W27823  36.394   6.555  10.597
55399W        W27824  25.187  21.353  11.104
55400W        W27825  12.203  33.129   2.034
55401W        W27826  40.276  38.560  10.848
55402W        W27827  36.108  37.079  13.992
55403W        W27828   2.527  29.154  10.644
55404W        W27829  11.197  29.239  13.802
55405W        W27830  20.515   0.788  10.910
55406W        W27831   4.211  36.535   2.844
55407W        W27832  10.770  20.755   3.823
55408W        W27833  21.152  15.201  13.917
55409W        W27834  42.830  37.288   3.707
55410W        W27835   5.795  42.413   1.275
55411W        W27836  27.649  24.695  12.000
55412W        W27837  25.128  17.206  12.504
55413W        W27838  32.127  41.788   3.281
55414W        W27839  18.147  17.902   3.109
55415W        W27840  14.547  25.853  14.712
55416W        W27841  12.160   2.374   1.848
55417W        W27842  40.866  15.499  11.065
55418W        W27843  28.668  34.379  11.477
55419W        W27844  35.347  29.901   2.189
55420W        W27845  24.110  42.010  12.369
55421W        W27846  43.316  44.844  13.893
55422W        W27847  29.192  40.099  13.036
55423W        W27848  23.145  37.954   0.890
55424W        W27849  18.344  35.414   4.547
55425W        W27850   2.485  43.364   0.855
55426W        W27851   0.775  38.848  12.602
55427W        W27852  30.943  15.028  11.918
55428W        W27853  40.044  21.307   0.267
55429W        W27854  33.898  40.958  14.462
55430W        W27855  31.032  40.279  14.279
55431W        W27856  17.833  39.362  13.531
55432W        W27857  10.419  44.405   4.582
55433W        W27858   8.628  32.847   3.757
55434W        W27859  14.081  22.069  12.151
55435W        W27860  13.295  18.491   4.569
55436W        W27861   9.828  24.936   0.918
55437W        W27862   8.283   2.045   1.970
55438W        W27863  12.712  24.525   0.649
55439W        W27864   9.347  39.517   4.581
55440W        W27865  17.297  22.136  11.409
55441W        W27866  23.144   1.142   2.215
55442W        W27867   8.313  40.958   0.244
55443W        W27868   1.266  31.426   0.986
55444W        W27869   1.833  17.330   4.611
55445W        W27870   8.430  13.498  13.823
55446W        W27871   7.805  33.554  13.526
55447W        W27872  35.140  23.562  11.253
55448W        W27873  16.685  32.042   9.863
55449W        W27874  14.693  41.847  13.362
55450W        W27875   3.663   5.425  11.221
55451W        W27876  30.837   5.254   4.822
55452W        W27877  43.328   6.284  10.929
55453W        W27878  24.210  32.019  11.505
55454W        W27879   9.369   9.064  10.637
55455W        W27880  34.156  26.261  11.353
55456W        W27881  20.701  29.980  12.237
55457W        W27882  34.710  26.222   0.223
55458W        W27883  18.778  43.920  12.854
55459W        W27884  29.934  23.899  12.008
55460W        W27885  42.822  18.584  12.879
55461W        W27886   3.778  27.989  14.339
55462W        W27887  32.331  37.447   4.986
55463W        W27888   5.430  44.493   2.612
55464W        W27889  39.888  40.477   3.398
55465W        W27890  30.415  15.395   4.150
55466W        W27891  21.247  25.709   0.746
55467W        W27892   5.906   4.370  13.605
55468W        W27893  31.820   1.504   0.451
55469W        W27894   5.292   6.354  13.094
55470W        W27895   3.765  38.000   1.510
55471W        W27896   9.489  29.288  11.083
55472W        W27897  25.722   1.224  12.428
55473W        W27898  17.640   2.879   9.910
55474W        W27899  38.681  23.949  10.218
55475W        W27900   9.819  43.835   3.990
55476W        W27901  11.797  24.967   0.789
55477W        W27902  13.209  34.055  10.737
55478W        W27903  30.665  31.390  11.430
55479W        W27904  37.401  40.308  12.640
55480W        W27905  37.425  38.388  14.959
55481W        W27906  15.489  41.461  12.471
55482W        W27907  33.541  39.264   4.768
55483W        W27908   8.841  10.377   4.047
55484W        W27909  14.133  42.081  10.642
55485W        W27910  22.559  36.990  13.097
55486W        W27911   4.018  30.153  14.794
55487W        W27912  10.367  42.364  14.575
55488W        W27913  30.268   6.225  12.760
55489W        W27914  38.952  12.322  11.392
55490W        W27915   0.978   6.295   4.763
55491W        W27916  21.496  27.584   2.432
55492W        W27917  13.228  32.506   2.167
55493W        W27918  26.066   6.901   4.245
55494W        W27919  41.143  43.858  11.511
55495W        W27920  19.111   8.877  13.796
55496W        W27921  27.945  41.328  11.869
55497W        W27922   7.179  37.757   1.134
55498W        W27923   6.940  39.513  13.040
55499W        W27924   6.236  23.799   4.248
55500W        W27925   5.412  16.714   4.615
55501W        W27926  23.180  38.481  14.868
55502W        W27927  30.144  42.150  13.495
55503W        W27928   4.998  27.232  13.943
55504W        W27929  21.720  15.040   2.110
55505W        W27930  21.915  28.575   3.884
55506W        W27931  38.370  43.936   4.265
55507W        W27932  34.489  38.913  12.435
55508W        W27933   8.485  22.345   4.184
55509W        W27934  11.898  39.139   3.248
55510W        W27935  19.319  23.178  13.783
55511W        W27936  32.783   9.023  12.186
55512W        W27937  18.050   1.703  11.544
55513W        W27938   9.229  41.868  11.468
55514W        W27939  20.145  42.807  10.210
55515W        W27940   7.788  22.249  11.914
55516W        W27941  33.924  11.244  14.469
55517W        W27942  39.399  44.335  12.626
55518W        W27943  19.995  26.446  10.978
55519W        W27944   6.674  42.235  13.366
55520W        W27945  30.501  39.954   3.983
55521W        W27946  42.597  13.663   2.212
55522W        W27947  37.513   8.652  11.983
55523W        W27948  33.178  41.033  12.479
55524W        W27949  26.746  43.982  14.495
55525W        W27950  31.166  28.404  13.774
55526W        W27951   7.786  16.784   3.096
55527W        W27952  22.237   9.230   3.210
55528W        W27953  32.682  34.841  12.016
55529W        W27954  10.111  42.714   4.181
55530W        W27955  27.211  27.666  14.237
55531W        W27956  17.741  28.381  11.481
55532W        W27957  23.702  32.616  14.837
55533W        W27958   2.772   4.092   1.700
55534W        W27959  27.901  12.499   3.318
55535W        W27960  21.307  38.788  11.210
55536W        W27961   5.625  24.239  13.579
55537W        W27962  13.332  44.414  11.940
55538W        W27963   8.668  10.045   1.611
55539W        W27964  29.527  21.067   0.050
55540W        W27965  31.949  12.831   3.757
55541W        W27966  37.487  11.225  10.773
55542W        W27967   3.365  42.981   1.177
55543W        W27968  28.616   6.584   5.078
55544W        W27969  15.531   4.591   0.652
55545W        W27970  26.658  33.968  10.835
55546W        W27971  26.107  39.060  11.036
55547W        W27972   6.306  29.409   0.342
55548W        W27973  19.516  38.465   3.071
55549W        W27974  40.274  44.455  14.486
55550W        W27975  25.056  44.538   0.946
55551W        W27976  10.614  30.696  14.404
55552W        W27977  19.556  22.434   1.314
55553W        W27978  44.028   7.108  12.647
55554W        W27979   5.802  14.657  11.387
55555W        W27980  23.240  16.467  11.647
55556W        W27981  19.143  37.095  14.442
55557W        W27982  31.541   4.476   4.121
55558W        W27983  16.335  29.157   2.822
55559W        W27984  28.712  14.740   2.946
55560W        W27985  44.991  27.027   0.438
55561W        W27986  37.124  11.735   2.295
55562W        W27987  38.143  39.489   1.885
55563W        W27988  14.586  21.946   9.844
55564W        W27989  15.943  19.299   4.170
55565W        W27990  39.353  10.123   3.118
55566W        W27991  37.056   7.614  11.717
55567W        W27992  11.367   8.313   4.009
55568W        W27993   0.363   9.259   1.244
55569W        W27994  21.758  44.472   4.216
55570W        W27995  28.025  37.655  13.425
55571W        W27996  23.552   9.681  12.375
55572W        W27997   4.213  23.005   4.014
55573W        W27998  36.276  33.422  14.832
55574W        W27999  28.103  34.855  11.176
55575W        W28000  26.012  34.477  11.878
55576W        W28001   9.440   3.966   3.600
55577W        W28002  35.948  25.562  10.945
55578W        W28003  39.220  11.288   3.625
55579W        W28004  39.106  11.773  13.936
55580W        W28005  44.984  11.947   1.851
55581W        W28006  10.900  24.926   2.308
55582W        W28007  39.452  38.808  12.065
55583W        W28008  42.858   7.844  10.780
55584W        W28009  32.142  33.372  14.269
55585W        W28010   7.258   8.594   0.383
55586W        W28011  25.746  32.814  11.817
55587W        W28012   6.745  21.107  11.484
55588W        W28013  10.553   9.667  13.972
55589W        W28014  16.053   6.431   4.531
55590W        W28015  31.478  15.548  11.490
55591W        W28016  37.288   6.299  14.683
55592W        W28017  24.907  18.394  13.556
55593W        W28018   9.226  14.814  10.937
55594W        W28019  30.460   4.257  12.494
55595W        W28020  27.514  38.143   1.061
55596W        W28021  21.364  26.265  11.593
55597W        W28022  12.726  22.817  11.483
55598W        W28023  40.268   6.724  13.430
55599W        W28024  27.970  37.363  12.050
55600W        W28025   3.480   4.304  12.377
55601W        W28026  11.299  43.360  11.887
55602W        W28027   2.503  37.945   0.921
55603W        W28028  10.771  33.385  14.521
55604W        W28029  44.243  44.731   0.868
55605W        W28030  19.495  36.316  13.506
55606W        W28031  36.478  35.541   4.469
55607W        W28032  37.507  23.129  14.780
55608W        W28033   8.031   3.685   2.426
55609W        W28034  19.031  20.809   1.888
55610W        W28035  42.976  31.925  14.110
55611W        W28036  28.633  25.115  11.958
55612W        W28037  29.224  15.386  14.289
55613W        W28038  40.574  25.209   1.386
55614W        W28039   9.382   8.326  13.553
55615W        W28040  28.400  26.953  11.078
55616W        W28041  22.275   0.380  12.039
55617W        W28042  22.723  40.274  13.130
55618W        W28043  15.130  22.531   5.102
55619W        W28044  11.563  26.449  14.514
55620W        W28045  41.211  17.706   2.211
55621W        W28046  18.368   1.064  14.540
55622W        W28047  16.596  24.766   0.527
55623W        W28048   5.740  33.261  12.380
55624W        W28049  40.913   3.850   4.792
55625W        W28050  23.556  31.026   0.816
55626W        W28051  23.576  36.855  11.823
55627W        W28052  20.544   2.337  13.891
55628W        W28053  13.426  21.180   2.690
55629W        W28054  40.844  12.104  13.245
55630W        W28055  20.060  17.227  12.840
55631W        W28056  39.909  30.225  12.636
55632W        W28057  18.278  12.156   3.856
55633W        W28058  11.779   3.218  14.349
55634W        W28059  18.757  39.348  13.971
55635W        W28060  10.824   6.377   4.545
55636W        W28061  33.874  35.120   4.852
55637W        W28062   6.949  44.759  11.985
55638W        W28063   8.762  26.602  11.532
55639W        W28064  12.693   6.991   1.473
55640W        W28065  40.231  15.743  12.867
55641W        W28066  36.468  30.874  13.644
55642W        W28067  11.739  29.092  10.269
55643W        W28068  35.835  23.104  13.288
55644W        W28069  30.992  28.563   2.244
55645W        W28070   2.561  37.049   4.141
55646W        W28071  17.011  27.664   4.931
55647W        W28072  37.675   2.482   1.333
55648W        W28073   3.409   3.360   2.915
55649W        W28074  24.819   6.281   1.141
55650W        W28075  36.595  39.863   0.330
55651W        W28076  44.644  36.029   1.290
55652W        W28077  35.838  15.587  11.125
55653W        W28078  41.101  28.397  12.978
55654W        W28079   4.845  10.172  14.020
55655W        W28080  15.194  38.914  14.477
55656W        W28081  29.582  38.000  14.895
55657W        W28082   8.403  21.326   4.729
55658W        W28083  29.575  10.740  11.582
55659W        W28084   2.458  13.070   0.474
55660W        W28085  39.568  37.429   0.758
55661W        W28086   6.091  17.288   0.313
55662W        W28087   6.022  14.556   1.464
55663W        W28088  31.389   2.628  10.735
55664W        W28089  35.376   2.951  10.645
55665W        W28090  10.293  32.056  14.676
55666W        W28091   6.395  22.955  11.180
55667W        W28092  34.506   6.425  13.168
55668W        W28093  25.264  13.227  13.759
55669W        W28094   1.727  39.863   0.957
55670W        W28095  38.689  40.255  10.774
55671W        W28096   9.815  25.474   4.594
55672W        W28097  23.255  10.790  13.962
55673W        W28098  15.155  26.613   2.445
55674W        W28099   9.734  16.340  11.123
55675W        W28100  22.727  28.943   0.705
55676W        W28101  22.269  26.490  12.927
55677W        W28102  41.047  30.640   3.779
55678W        W28103  19.911  30.426  13.254
55679W        W28104  15.561  23.949   2.875
55680W        W28105   5.164   9.908   0.806
55681W        W28106  29.984  15.993  14.786
55682W        W28107  16.652  11.733   3.397
55683W        W28108  20.066  34.732   4.328
55684W        W28109   5.328  42.026   3.784
55685W        W28110  28.547  18.347  12.625
55686W        W28111  30.390  38.618   3.257
55687W        W28112   9.629  15.643   2.143
55688W        W28113   7.383  37.221   4.096
55689W        W28114  21.115  28.081  10.679
55690W        W28115  26.500   0.675  10.711
55691W        W28116   2.023  33.983  11.361
55692W        W28117  11.625  10.492   3.370
55693W        W28118  30.599  17.186   1.755
55694W        W28119   2.365  33.017   2.836
55695W        W28120  38.792  10.187   2.874
55696W        W28121  40.998  40.665   1.264
55697W        W28122   8.056  30.150   0.464
55698W        W28123   8.390  33.650  10.811
55699W        W28124  39.567  10.390  13.536
55700W        W28125   3.310  40.054  12.763
55701W        W28126  21.563   4.237  14.974
55702W        W28127  26.263  29.967  10.604
55703W        W28128  19.097  39.973   1.599
55704W        W28129  21.615  13.706   3.315
55705W        W28130  28.212  14.815  13.483
55706W        W28131  43.513  25.243  14.794
55707W        W28132  35.316  29.673  11.752
55708W        W28133  43.713  44.386   3.780
55709W        W28134  20.132  34.848  11.686
55710W        W28135  29.915  23.165  12.567
55711W        W28136  12.839  44.990  11.362
55712W        W28137  44.872  42.301   1.312
55713W        W28138   6.483  11.187   1.349
55714W        W28139  17.112  20.526   1.155
55715W        W28140   1.956  20.651   2.799
55716W        W28141  10.207  38.037  13.394
55717W        W28142  10.241  36.934   2.082
55718W        W28143  24.138  32.599  14.560
55719W        W28144  44.925  27.557  12.491
55720W        W28145  18.333   8.841  11.988
55721W        W28146   4.306  41.424   3.402
55722W        W28147  42.289  41.411  11.588
55723W        W28148  10.578  43.956  10.661
55724W        W28149   4.311   7.379  10.396
55725W        W28150  17.275  10.301  10.508
55726W        W28151   2.927   4.459   2.090
55727W        W28152   8.620  19.618   2.404
55728W        W28153   8.429  22.147  14.854
55729W        W28154   7.055   4.960  11.144
55730W        W28155  26.432   2.875   0.426
55731W        W28156  21.093  32.386  13.476
55732W        W28157  25.567  36.189  13.858
55733W        W28158  34.611  43.050  12.507
55734W        W28159  14.867  42.206  14.358
55735W        W28160   0.218  33.187   4.625
55736W        W28161  26.187   0.373   3.906
55737W        W28162  16.832  43.911   0.713
55738W        W28163  25.302  38.615   1.459
55739W        W28164   9.638  28.541   0.314
55740W        W28165  23.001  21.747  13.531
55741W        W28166  25.062  31.868  14.893
55742W        W28167  41.426  26.557  11.040
55743W        W28168  40.535  35.280   1.605
55744W        W28169   3.419   8.708  11.606
55745W        W28170  32.506  32.846   2.172
55746W        W28171   1.920  12.702   3.335
55747W        W28172  35.499  22.385  13.790
55748W        W28173   0.940  22.748  10.723
55749W        W28174  34.915   5.676  13.371
55750W        W28175  17.701  30.082   5.523
55751W        W28176  10.829   3.482  12.091
55752W        W28177   8.457  22.418  11.458
55753W        W28178  31.635  39.042  11.543
55754W        W28179  33.367  30.752   5.220
55755W        W28180  14.838   0.503   1.881
55756W        W28181  40.676  16.734  13.802
55757W        W28182  15.457  22.287  14.064
55758W        W28183  17.274  14.167  12.310
55759W        W28184  25.570  36.694   4.617
55760W        W28185  12.219  42.440  14.423
55761W        W28186   0.987  10.925  11.844
55762W        W28187  38.388  27.168   1.648
55763W        W28188  12.432   0.815   1.856
55764W        W28189   8.855  15.393   1.393
55765W        W28190  31.835  44.820   2.864
55766W        W28191  37.267  39.408  11.671
55767W        W28192  42.376  21.627  11.314
55768W        W28193   1.324  14.693   3.688
55769W        W28194  27.715   8.951   3.339
55770W        W28195  29.393  38.519   2.324
55771W        W28196  24.468  28.196   2.629
55772W        W28197  13.566  39.064  13.346
55773W        W28198  20.344  36.205   4.063
55774W        W28199  32.946  25.637   0.187
55775W        W28200  32.853  25.360  12.874
55776W        W28201  17.945  21.218   0.026
55777W        W28202  20.546  22.116   2.981
55778W        W28203  42.858  11.665   0.795
55779W        W28204   2.760  13.801   2.365
55780W        W28205  17.141   6.006  11.894
55781W        W28206  18.312   3.186   3.049
55782W        W28207  34.559   7.841   1.381
55783W        W28208  25.491  13.476  12.577
55784W        W28209   7.886   9.437   1.809
55785W        W28210  14.254  41.588   1.992
55786W        W28211  26.171  15.651  14.808
55787W        W28212  36.384  20.134   4.571
55788W        W28213  28.113  39.566   0.849
55789W        W28214  24.882  29.454  11.241
55790W        W28215  26.729  27.221   2.658
55791W        W28216  44.021  10.760  11.899
55792W        W28217   0.097  14.865  12.726
55793W        W28218   2.993  44.120   2.349
55794W        W28219  23.541  29.566   0.983
55795W        W28220  36.455  42.063   1.307
55796W        W28221   1.122  31.872   5.067
55797W        W28222  25.652  25.976   3.389
55798W        W28223   6.679  17.758   3.807
55799W        W28224  25.457  29.196  12.049
55800W        W28225   6.677  29.495  10.683
55801W        W28226  17.379  20.298   4.120
55802W        W28227  33.303  26.192   3.304
55803W        W28228  19.263   1.755  13.985
55804W        W28229   0.309  23.355  12.051
55805W        W28230  16.691  27.670  13.649
55806W        W28231   5.051  14.266   2.260
55807W        W28232   6.300  20.623  14.916
55808W        W28233  19.186  19.061   0.560
55809W        W28234   4.699   4.154  14.070
55810W        W28235   8.252  17.136  14.135
55811W        W28236   5.303  14.344   1.758
55812W        W28237   5.720   0.253  13.540
55813W        W28238  27.845  21.866  11.591
55814W        W28239  29.985  11.028   1.207
55815W        W28240  29.232  32.117   3.201
55816W        W28241  19.011  11.774   4.209
55817W        W28242  15.171  21.730  10.600
55818W        W28243  15.097  38.664  12.202
55819W        W28244  40.299  15.247  12.582
55820W        W28245  33.325  33.557  14.918
55821W        W28246   9.766  43.344  10.640
55822W        W28247  37.968   7.983   4.904
55823W        W28248  41.112  35.939  14.721
55824W        W28249  31.434  15.217  14.695
55825W        W28250  31.504  23.706   2.192
55826W        W28251  12.385  10.361   1.302
55827W        W28252  19.515  16.787  13.132
55828W        W28253  38.949  39.665  12.957
55829W        W28254   6.264   7.264  12.496
55830W        W28255  30.064   6.374   3.351
55831W        W28256  11.130   0.063   3.716
55832W        W28257   6.609  36.000  13.359
55833W        W28258  35.365   4.422  11.400
55834W        W28259  31.074  11.351   3.637
55835W        W28260  29.384  30.623   1.744
55836W        W28261  11.636  20.986  11.974
55837W        W28262  10.334  18.281   3.763
55838W        W28263   4.071  14.483  12.345
55839W        W28264  30.610  20.474  11.023
55840W        W28265   6.909  44.701   1.813
55841W        W28266   9.441  11.336  13.776
55842W        W28267  31.339  32.487   2.689
55843W        W28268  22.262  33.611   3.071
55844W        W28269  32.702  18.217   3.319
55845W        W28270  22.157  42.724   0.284
55846W        W28271   5.986  21.818  14.745
55847W        W28272  15.154  40.280  13.036
55848W        W28273  21.978  29.629  10.641
55849W        W28274  35.496  19.515  14.802
55850W        W28275  43.387  28.952   2.881
55851W        W28276  38.131  34.379   4.173
55852W        W28277   9.244  42.554   1.667
55853W        W28278   9.280  26.044  13.911
55854W        W28279  42.591   4.895  13.977
55855W        W28280  30.490  31.919   4.534
55856W        W28281  41.936   7.739  11.989
55857W        W28282  10.251  29.934  11.781
55858W        W28283  22.216  41.431   2.180
55859W        W28284  27.664  38.555   0.767
55860W        W28285  27.679  29.557   1.283
55861W        W28286  43.352  24.532   3.419
55862W        W28287  32.570  21.714   3.674
55863W        W28288  28.498  24.420   1.406
55864W        W28289  31.714  27.997   2.382
55865W        W28290  40.785   8.112   3.804
55866W        W28291  44.482  28.043  12.011
55867W        W28292  36.468  13.119   4.152
55868W        W28293  33.632  29.025   4.040
55869W        W28294  13.151  19.034  13.447
55870W        W28295  28.488  37.170   1.412
55871W        W28296  18.798  19.949   3.890
55872W        W28297  28.372  30.360   0.944
55873W        W28298  40.460  26.304  14.465
55874W        W28299  22.142  28.279  14.276
55875W        W28300  20.100   5.463  11.486
55876W        W28301  41.282  15.374  10.771
55877W        W28302  20.591   1.971   0.390
55878W        W28303  36.883  18.868   1.188
55879W        W28304  38.096  13.674  11.517
55880W        W28305   6.736  38.556  12.712
55881W        W28306  39.360   5.434  13.863
55882W        W28307  10.754   1.517   4.613
55883W        W28308  19.039  25.180   4.221
55884W        W28309   7.952  21.264   4.490
55885W        W28310  10.784  20.557  14.456
55886W        W28311  35.630   8.532   4.093
55887W        W28312  42.037  44.501  14.325
55888W        W28313  37.644  28.246   3.517
55889W        W28314  22.127  36.355   2.898
55890W        W28315  25.569  37.924  11.461
55891W        W28316  11.268  11.053  12.471
55892W        W28317  41.032  36.107   1.488
55893W        W28318   4.140  23.196  12.381
55894W        W28319  23.324  12.384  12.499
55895W        W28320   9.336  15.507  13.832
55896W        W28321  19.081  22.164   1.230
55897W        W28322   3.750  37.568  12.119
55898W        W28323  15.401   5.587  12.119
55899W        W28324  10.696  38.360  11.767
55900W        W28325  40.854  38.225  11.670
55901W        W28326  19.226  20.949  12.544
55902W        W28327   9.084  16.845   0.628
55903W        W28328  11.002  40.854  13.874
55904W        W28329  42.513  39.893   1.799
55905W        W28330  27.935  28.348  11.106
55906W        W28331  20.070  15.899   2.134
55907W        W28332  10.269   2.345   1.957
55908W        W28333  42.335   8.460  10.699
55909W        W28334   3.746  43.402  10.594
55910W        W28335  43.571  33.428  13.466
55911W        W28336  34.629   8.410  11.879
55912W        W28337  15.416  12.225   3.894
55913W        W28338   6.299  27.978   0.784
55914W        W28339  40.955  20.305   0.127
55915W        W28340  12.289  17.835   1.729
55916W        W28341  26.738  10.382  11.889
55917W        W28342  14.171   7.324   1.290
55918W        W28343  13.346  13.625  14.261
55919W        W28344  44.530  24.193   4.496
55920W        W28345   6.872  30.998  11.447
55921W        W28346  22.951  18.555  11.564
55922W        W28347  19.118  35.568  10.522
55923W        W28348  15.825   1.558  11.312
55924W        W28349  32.053   1.596   4.835
55925W        W28350  42.893  23.024  10.755
55926W        W28351  11.762  33.710   1.398
55927W        W28352  43.020  23.081   1.283
55928W        W28353  14.819  15.565  14.716
55929W        W28354  30.164  37.559  10.677
55930W        W28355   5.701  15.679  10.533
55931W        W28356  28.672  38.578  14.951
55932W        W28357  38.744  26.233  14.925
55933W        W28358  22.598  37.460   3.729
55934W        W28359  23.587  12.200  13.828
55935W        W28360   1.940  11.159  11.076
55936W        W28361  38.019  29.511   3.905
55937W        W28362  13.042   6.026  12.206
55938W        W28363   8.764  41.076   0.502
55939W        W28364  13.282  38.788   1.889
55940W        W28365  39.032  18.607  14.102
55941W        W28366  41.026  42.947  14.236
55942W        W28367  14.762  20.549  11.461
55943W        W28368  36.614  44.388  12.862
55944W        W28369  38.367  17.180   0.297
55945W        W28370  13.987   5.250   2.856
55946W        W28371  32.954  35.082   4.351
55947W        W28372  14.687  12.819   5.109
55948W        W28373  38.480  35.363  11.224
55949W        W28374  14.127  27.952  12.973
55950W        W28375  41.316   4.765   4.708
55951W        W28376  27.574  41.748   2.344
55952W        W28377  44.732  25.233   1.891
55953W        W28378  34.123  25.293   2.854
55954W        W28379  26.985  27.325   4.365
55955W        W28380  27.528   5.883  12.592
55956W        W28381  27.402   1.139  13.441
55957W        W28382  12.774   8.865  11.462
55958W        W28383  29.663  15.601   1.813
55959W        W28384  36.062  32.106   1.014
55960W        W28385  26.736  16.076   1.979
55961W        W28386  14.711   3.990   0.327
55962W        W28387   2.332  23.528   0.507
55963W        W28388   4.952  36.795   3.128
55964W        W28389  43.488  26.942  11.977
55965W        W28390  13.872  18.501  13.492
55966W        W28391   7.652  26.031   1.325
55967W        W28392  42.253  38.021  14.775
55968W        W28393  22.001  11.672   3.637
55969W        W28394  10.171  32.386  11.873
55970W        W28395   7.920  32.325  13.883
55971W        W28396  11.690  27.964   2.371
55972W        W28397  20.845  18.651   1.433
55973W        W28398  28.193   6.374   4.846
55974W        W28399   6.399  30.077   4.282
55975W        W28400  30.493  32.791  13.957
55976W        W28401  34.657  39.996  13.312
55977W        W28402  23.090  29.627  14.542
55978W        W28403  12.122   9.673  11.581
55979W        W28404   5.194   4.458   4.612
55980W        W28405  36.095   8.767  12.193
55981W        W28406  33.858   8.865  14.915
55982W        W28407   2.565  23.054  12.885
55983W        W28408  29.536  12.080   2.729
55984W        W28409   3.312  15.024   4.232
55985W        W28410  22.671  33.155   1.397
55986W        W28411  17.073  28.509   2.188
55987W        W28412  41.328  38.492   4.514
55988W        W28413  23.022  43.235  11.731
55989W        W28414  10.350  34.010   0.160
55990W        W28415  19.656  42.339  13.586
55991W        W28416   8.316  28.249   2.781
55992W        W28417  35.933  40.060   2.393
55993W        W28418  43.886   6.181  12.588
55994W        W28419  11.086  17.037  11.162
55995W        W28420  41.325  37.092   4.918
55996W        W28421  30.595  17.389   3.667
55997W        W28422   6.578   6.922   4.654
55998W        W28423  31.871  44.600   0.396
55999W        W28424   8.688  13.842   3.298
56000W        W28425  14.200  19.121   0.779
56001W        W28426   4.672   8.962  10.091
56002W        W28427  30.584  20.425   0.688
56003W        W28428  22.038  12.112   1.763
56004W        W28429  32.211  44.983   3.249
56005W        W28430  32.724  24.035   1.812
56006W        W28431  20.481  24.195   4.663
56007W        W28432  37.296  22.866   4.688
56008W        W28433  23.049   1.505  13.766
56009W        W28434  21.374   6.511   0.337
56010W        W28435  34.863  43.854  10.769
56011W        W28436   7.208  11.786   4.558
56012W        W28437  28.596   2.300   2.299
56013W        W28438   2.015  44.197   2.379
56014W        W28439   6.418  38.206  14.187
56015W        W28440  16.751   6.860  11.175
56016W        W28441  35.027   8.169  14.403
56017W        W28442   0.270  12.814   0.229
56018W        W28443  25.256  32.996   2.336
56019W        W28444  12.610  39.289  10.662
56020W        W28445  25.158  36.520   0.956
56021W        W28446   8.446  15.240   4.504
56022W        W28447  11.905  39.886   2.327
56023W        W28448  23.784   5.843   3.136
56024W        W28449  10.160   4.931  12.960
56025W        W28450  24.242   3.787   0.979
56026W        W28451  15.666  40.022   3.340
56027W        W28452  29.063   9.130   4.681
56028W        W28453  21.950  34.434   3.115
56029W        W28454  25.690  39.072  12.877
56030W        W28455  41.763  39.747   4.381
56031W        W28456  36.020  40.859   1.938
56032W        W28457  31.622   7.281   4.649
56033W        W28458  24.431   0.984  13.405
56034W        W28459  12.692  35.082   0.881
56035W        W28460  27.065  32.325   9.793
56036W        W28461  18.053  24.194   2.391
56037W        W28462  26.783  31.664  12.582
56038W        W28463  27.511  17.204   4.276
56039W        W28464   8.658   9.600  11.043
56040W        W28465  44.612  11.748   4.813
56041W        W28466   3.833  31.422   0.261
56042W        W28467  42.861   5.311  14.267
56043W        W28468  27.066  24.720   3.378
56044W        W28469   6.773   8.188   1.432
56045W        W28470  33.808   6.125   2.658
56046W        W28471   7.340   1.909  10.586
56047W        W28472   0.457   5.909  11.562
56048W        W28473  30.816  25.176  10.440
56049W        W28474   1.687   9.009   3.695
56050W        W28475  34.298  26.673  13.465
56051W        W28476  41.763  13.737   4.196
56052W        W28477   2.422   1.516   0.732
56053W        W28478  38.005  33.958   2.677
56054W        W28479   1.695  36.552   4.098
56055W        W28480  24.293  22.956   0.375
56056W        W28481  42.199  43.710   3.225
56057W        W28482  42.929  42.876  14.973
56058W        W28483   4.047   1.929   1.225
56059W        W28484  26.314  33.655   3.843
56060W        W28485   8.994   6.360  11.015
56061W        W28486  43.082  19.191   0.661
56062W        W28487  26.243  22.010  13.862
56063W        W28488  16.294  39.444   3.074
56064W        W28489  40.665   7.166  12.461
56065W        W28490  35.376  38.378  11.602
56066W        W28491   4.221  31.995   1.357
56067W        W28492  25.129  40.793   2.163
56068W        W28493  15.780   7.792   0.405
56069W        W28494   9.625  32.036  13.894
56070W        W28495   6.286  13.147  13.508
56071W        W28496   8.356  24.703  12.096
56072W        W28497   1.783  31.107   2.677
56073W        W28498  11.936   2.551  10.665
56074W        W28499  18.652  17.291   2.429
56075W        W28500   1.172  11.268  11.493
56076W        W28501  39.997  44.785   1.244
56077W        W28502   6.358   7.409   4.255
56078W        W28503  11.657   5.276   4.522
56079W        W28504  33.862  13.560   4.644
56080W        W28505  41.534  27.511   2.545
56081W        W28506  32.566   1.044  12.461
56082W        W28507  37.908  27.009  12.799
56083W        W28508   6.482  34.665  11.955
56084W        W28509  10.049  29.861   4.664
56085W        W28510   7.341  30.877   0.350
56086W        W28511  16.694  36.493   2.424
56087W        W28512  15.820  11.771   4.579
56088W        W28513  23.036  33.791  12.077
56089W        W28514   0.663  20.076  12.531
56090W        W28515  19.878  25.228   3.290
56091W        W28516  34.022  18.031   1.293
56092W        W28517  24.777  35.985  12.075
56093W        W28518  21.664  29.900  11.593
56094W        W28519  19.549  44.247   1.648
56095W        W28520  15.623   0.747   5.047
56096W        W28521  16.104  34.849  14.860
56097W        W28522  11.860  31.915  14.713
56098W        W28523  25.991  31.539   3.387
56099W        W28524  40.586   8.955   4.094
56100W        W28525   2.845  23.536   3.080
56101W        W28526  19.056  41.289  13.592
56102W        W28527  44.861  11.205  13.111
56103W        W28528  34.129  18.157  10.214
56104W        W28529  33.420   3.341   1.808
56105W        W28530   6.175   6.894  13.461
56106W        W28531  29.600  44.036  13.506
56107W        W28532  27.914  26.630  10.718
56108W        W28533  37.078   2.656  11.127
56109W        W28534   4.220  12.329   0.992
56110W        W28535  42.510   1.068  13.260
56111W        W28536  18.508  20.671  11.202
56112W        W28537  31.200  39.045  13.216
56113W        W28538  29.678  32.665  12.793
56114W        W28539  21.970  11.197   1.742
56115W        W28540  43.312  20.749  11.009
56116W        W28541  10.773  14.669   4.077
56117W        W28542  28.679   5.855   3.909
56118W        W28543  28.120  39.387   0.351
56119W        W28544  10.431  35.782   0.373
56120W        W28545   9.618  25.211  13.170
56121W        W28546   2.608  28.960   1.194
56122W        W28547  39.613  26.052   1.279
56123W        W28548   1.556   5.163  11.251
56124W        W28549  24.927  11.495   0.125
56125W        W28550  40.057  33.693   4.166
56126W        W28551  27.496   5.001   4.573
56127W        W28552  25.979  40.271  12.097
56128W        W28553  29.115   3.573  13.867
56129W        W28554   5.921  22.215   4.752
56130W        W28555  22.388  31.964   9.950
56131W        W28556  33.695  44.861   0.887
56132W        W28557  11.605  25.189   1.269
56133W        W28558   5.499  21.397   1.136
56134W        W28559  24.800  22.977  11.497
56135W        W28560  30.646  39.948   2.366
56136W        W28561   4.882   8.801  14.466
56137W        W28562  13.977  19.872  11.210
56138W        W28563  21.827  30.950   1.330
56139W        W28564   7.746  22.381  14.599
56140W        W28565   3.202  28.045  13.513
56141W        W28566  43.951   7.866   1.311
56142W        W28567   0.445   2.979   1.066
56143W        W28568  31.889  30.147  13.908
56144W        W28569  34.424  18.167  14.221
56145W        W28570  11.675  36.908   2.176
56146W        W28571  40.916  41.048  11.550
56147W        W28572  17.313  44.653  12.501
56148W        W28573  40.859   6.258   2.253
56149W        W28574  38.966  35.629   4.119
56150W        W28575  40.980  43.482   3.688
56151W        W28576  42.265   8.772   2.054
56152W        W28577  20.750  13.071  14.995
56153W        W28578  37.085  12.113   3.337
56154W        W28579  32.160  24.918   1.869
56155W        W28580  43.841   0.298   3.741
56156W        W28581  23.062  28.565  10.448
56157W        W28582  32.511  18.696   3.792
56158W        W28583   3.947  39.787   3.652
56159W        W28584  21.410  26.957  13.843
56160W        W28585  34.123   3.454   3.278
56161W        W28586  28.114  17.827  14.359
56162W        W28587   4.485   7.737  13.608
56163W        W28588  25.401  10.305  11.516
56164W        W28589  16.808  22.431  10.731
56165W        W28590   0.975  40.889  12.805
56166W        W28591   5.790  14.271   1.965
56167W        W28592   8.278   8.970   3.497
56168W        W28593  32.022   6.956   4.048
56169W        W28594  37.084  25.008   4.879
56170W        W28595  38.736  44.833  12.433
56171W        W28596  26.487  43.777  12.106
56172W        W28597  12.058  22.123   0.377
56173W        W28598  29.635   8.195   3.140
56174W        W28599   1.750  26.198   4.227
56175W        W28600   0.046  30.445   3.269
56176W        W28601   3.667  27.698  11.769
56177W        W28602  24.507   0.546   0.128
56178W        W28603   5.259  29.993   4.855
56179W        W28604  36.183  18.175   0.988
56180W        W28605  27.522  10.209  14.987
56181W        W28606  36.030  26.340  10.350
56182W        W28607  40.347  24.938   4.115
56183W        W28608  32.263  26.435   3.263
56184W        W28609  37.809   0.471   3.301
56185W        W28610  20.169  34.628  13.627
56186W        W28611  13.371  44.881   3.234
56187W        W28612  41.733   2.378  11.425
56188W        W28613  23.045  27.565  12.429
56189W        W28614  16.134  39.505   4.316
56190W        W28615  30.073  38.885  14.757
56191W        W28616  22.593  14.602   0.827
56192W        W28617  33.114  13.814  14.496
56193W        W28618  42.763  38.908   1.969
56194W        W28619  33.091  43.307  13.046
56195W        W28620  33.363  41.732  13.527
56196W        W28621   1.493  27.645   1.783
56197W        W28622  40.449  33.113  12.844
56198W        W28623  11.736   0.790   4.561
56199W        W28624  37.939  42.475   0.995
56200W        W28625  24.137  39.059  12.918
56201W        W28626  23.464  17.097   1.166
56202W        W28627  35.518  29.983   1.204
56203W        W28628  43.561   5.844  11.077
56204W        W28629   5.599  10.756  10.628
56205W        W28630  40.696  37.037  12.472
56206W        W28631  16.652   0.500   4.631
56207W        W28632   6.254  19.832  13.877
56208W        W28633   1.780  15.755  11.582
56209W        W28634  16.736   5.679   3.610
56210W        W28635   9.865  15.752   2.670
56211W        W28636  19.726  21.494   2.788
56212W        W28637  40.930  20.029  14.659
56213W        W28638   7.779   4.197   0.572
56214W        W28639  42.436   0.190   0.354
56215W        W28640  19.795  26.139   1.290
56216W        W28641   7.581  17.159  10.753
56217W        W28642  28.371  24.700  12.877
56218W        W28643  18.139  40.930  14.270
56219W        W28644  10.261  24.020  12.529
56220W        W28645  34.110  32.524   0.698
56221W        W28646  29.335   4.700   4.125
56222W        W28647  39.466   2.269  14.718
56223W        W28648  27.011   2.895  14.056
56224W        W28649  33.708  42.997   4.134
56225W        W28650  37.745  38.393   4.363
56226W        W28651   1.601  32.404   1.413
56227W        W28652  13.328  44.838   1.678
56228W        W28653  26.772  18.707   4.249
56229W        W28654   8.877   6.149   2.937
56230W        W28655   9.373  36.299   0.010
56231W        W28656  30.879  38.537  11.558
56232W        W28657  24.625  44.776  12.179
56233W        W28658  17.853  12.247   3.553
56234W        W28659  26.189  37.485   3.654
56235W        W28660   3.692  33.452   1.233
56236W        W28661   2.270  10.816  14.373
56237W        W28662  31.673   0.481   2.618
56238W        W28663   7.352  24.699   2.296
56239W        W28664  16.849  17.216   2.969
56240W        W28665  28.908  13.837  10.552
56241W        W28666  12.217  28.706  10.878
56242W        W28667  25.420  37.673  13.781
56243W        W28668   6.198  29.042   5.145
56244W        W28669   2.460   0.149  11.417
56245W        W28670  27.572  17.971  13.625
56246W        W28671  21.988  14.612  13.936
56247W        W28672  44.792  16.620  11.487
56248W        W28673  32.912  18.143  10.557
56249W        W28674  39.274   8.946  13.967
56250W        W28675  44.913  41.310   4.641
56251W        W28676   4.428  17.544   1.294
56252W        W28677  32.787  12.813   2.589
56253W        W28678  31.858   7.179  12.571
56254W        W28679   9.864   4.935  11.630
56255W        W28680  31.940   5.992  13.907
56256W        W28681  25.677  20.195   2.900
56257W        W28682  25.176  39.174  12.957
56258W        W28683  16.741  39.293   4.324
56259W        W28684   6.693  33.491  10.704
56260W        W28685  12.555  17.967   0.379
56261W        W28686   8.237  16.265   4.589
56262W        W28687   9.248  15.089  14.858
56263W        W28688  26.065  22.438  14.116
56264W        W28689  15.117  31.431  12.082
56265W        W28690   8.133  32.187  14.964
56266W        W28691  33.917  14.155   4.671
56267W        W28692  42.672   3.302  14.357
56268W        W28693  12.642  27.023   1.430
56269W        W28694   1.469  22.643   1.840
56270W        W28695  23.402   8.692   4.572
56271W        W28696  23.166  16.974   1.579
56272W        W28697  40.071  35.109   1.387
56273W        W28698  42.575  44.031  11.509
56274W        W28699  26.732  17.582   4.521
56275W        W28700  26.973  44.505   2.450
56276W        W28701  41.845  35.671  11.173
56277W        W28702  17.534  43.414   1.660
56278W        W28703   8.885  26.225   0.227
56279W        W28704  24.107   0.436   1.321
56280W        W28705  23.994   9.926   3.624
56281W        W28706  19.050   5.771   1.835
56282W        W28707   8.716  31.386   2.352
56283W        W28708  24.554   8.243   0.849
56284W        W28709   5.217  15.752   2.318
56285W        W28710   5.755  31.576   4.931
56286W        W28711  19.982  27.125  11.848
56287W        W28712  16.695  26.084   4.786
56288W        W28713  31.280  12.282  14.108
56289W        W28714  23.570   3.184   0.830
56290W        W28715  30.600  23.501  11.620
56291W        W28716  43.887  10.531  10.367
56292W        W28717  33.913  40.788   0.899
56293W        W28718  34.496  23.929   5.164
56294W        W28719  31.530  38.944   2.323
56295W        W28720  12.206  22.594   2.652
56296W        W28721  17.135  20.637   4.945
56297W        W28722  33.195  30.396  11.019
56298W        W28723   5.448  23.667   3.059
56299W        W28724  25.690  26.488   4.616
56300W        W28725  17.553  11.203  11.593
56301W        W28726   0.535  36.212  11.291
56302W        W28727  28.009  11.216   3.742
56303W        W28728  12.341  25.038   1.920
56304W        W28729  29.210  36.090  12.963
56305W        W28730  34.113   2.947   1.745
56306W        W28731  33.474  24.489   0.836
56307W        W28732   5.945   5.817   4.644
56308W        W28733  31.039  32.665  13.170
56309W        W28734  16.113  37.032  13.328
56310W        W28735  41.016  44.980  10.429
56311W        W28736   3.190   2.024   4.683
56312W        W28737   9.227  30.157   3.133
56313W        W28738  38.953   5.436  14.319
56314W        W28739  41.663  35.014  11.111
56315W        W28740  27.391  44.750  13.363
56316W        W28741  42.812  38.815  12.611
56317W        W28742  15.819   0.509   1.819
56318W        W28743  44.217   5.736   4.843
56319W        W28744   0.448  35.120   3.215
56320W        W28745  29.268   3.374  11.148
56321W        W28746  35.310  44.289  13.751
56322W        W28747   8.915  19.172  12.764
56323W        W28748  22.492  23.923   2.406
56324W        W28749  19.603  17.034   4.746
56325W        W28750  36.622  30.822   1.213
56326W        W28751  32.529  38.324   3.366
56327W        W28752  23.842   8.725   3.756
56328W        W28753  41.501  13.246  13.934
56329W        W28754  16.985   1.375   4.699
56330W        W28755  17.485  34.993  11.607
56331W        W28756   7.155   4.950  13.989
56332W        W28757  31.748  35.069  13.255
56333W        W28758  11.660   2.960  10.899
56334W        W28759  30.429  19.572   4.324
56335W        W28760   7.713  25.630  13.050
56336W        W28761  15.423   2.972   0.202
56337W        W28762   7.350   3.090   4.612
56338W        W28763   0.796  31.378   1.295
56339W        W28764  37.099  29.473   0.429
56340W        W28765  42.730   9.984  14.002
56341W        W28766  10.284  35.662  14.292
56342W        W28767  44.486  32.107  12.562
56343W        W28768  10.462  42.767   0.933
56344W        W28769   6.356  13.060   0.879
56345W        W28770  18.661  19.061  10.539
56346W        W28771  25.541   3.808  10.762
56347W        W28772   0.251   7.696   2.370
56348W        W28773  35.536   7.231  12.234
56349W        W28774  40.013  31.898   2.207
56350W        W28775  38.842   3.783   2.256
56351W        W28776  38.107   7.961  13.995
56352W        W28777  18.274  25.221   4.689
56353W        W28778  29.062  23.617   3.599
56354W        W28779  11.637  29.517  11.686
56355W        W28780  27.582   1.178   2.265
56356W        W28781  13.073   7.266   4.643
56357W        W28782  36.976  37.775   4.088
56358W        W28783  23.857  43.193  11.426
56359W        W28784  41.368  43.899  12.619
56360W        W28785  24.747  30.331   1.841
56361W        W28786  26.222  20.006   3.809
56362W        W28787  26.020  32.379  13.827
56363W        W28788  33.568  27.632  14.472
56364W        W28789   5.790  25.522   3.176
56365W        W28790  15.845  26.006   2.434
56366W        W28791  31.450   8.111   3.633
56367W        W28792  10.035   6.152   0.896
56368W        W28793   3.860  18.247  11.753
56369W        W28794   0.154  31.869   5.002
56370W        W28795  16.824   1.212  11.457
56371W        W28796  21.610   9.623  11.622
56372W        W28797   2.656  24.945   4.637
56373W        W28798   7.380   8.365  14.925
56374W        W28799  28.028  29.397   1.674
56375W        W28800   0.769  24.449  13.458
56376W        W28801   1.516  32.044   0.295
56377W        W28802   9.414   8.056   0.924
56378W        W28803  34.592   9.657  12.892
56379W        W28804  34.030  12.438   2.377
56380W        W28805  18.519  30.897  11.061
56381W        W28806  33.422  29.386  12.509
56382W        W28807   9.543  18.484   9.943
56383W        W28808  38.537  19.069  12.024
56384W        W28809   1.228  19.218  12.319
56385W        W28810  12.798  24.025  12.509
56386W        W28811  29.950  29.426   0.773
56387W        W28812  42.543  23.124   4.250
56388W        W28813  39.065   8.236   4.222
56389W        W28814   6.584  19.011   3.310
56390W        W28815  42.953  26.136   1.912
56391W        W28816  32.620  24.543  14.989
56392W        W28817  34.878  17.708  14.956
56393W        W28818  22.779  43.078   1.858
56394W        W28819   2.840  18.468  12.490
56395W        W28820  34.937  30.445   3.341
56396W        W28821  21.717   1.277   2.742
56397W        W28822  36.517  10.516  14.879
56398W        W28823  14.336   1.234   4.709
56399W        W28824  20.395  11.535   1.320
56400W        W28825   5.440   6.654   3.422
56401W        W28826   0.524  21.261   1.213
56402W        W28827  21.077  10.005  14.423
56403W        W28828   9.167  37.846   3.470
56404W        W28829  16.710   9.940   4.514
56405W        W28830  24.625  34.406   4.356
56406W        W28831   5.211   4.166  14.728
56407W        W28832  16.617  32.745   4.210
56408W        W28833  20.785  19.537  14.518
56409W        W28834  15.228  26.611   2.957
56410W        W28835  19.622   7.251   0.777
56411W        W28836   5.492  18.223   0.857
56412W        W28837   6.399  29.940  10.717
56413W        W28838  20.659  31.022   1.553
56414W        W28839   3.834  22.411  12.051
56415W        W28840  10.549   9.271  14.319
56416W        W28841  42.479  34.152  13.971
56417W        W28842  11.690  34.024   4.809
56418W        W28843  33.644  41.494   1.804
56419W        W28844   3.172   6.124  14.275
56420W        W28845  14.763  22.634  12.507
56421W        W28846  23.750  39.618   2.808
56422W        W28847   0.892  42.778   4.615
56423W        W28848  33.552   2.869  14.797
56424W        W28849  27.348  22.997  11.317
56425W        W28850  19.327   7.792  12.934
56426W        W28851  17.147  14.571   2.133
56427W        W28852  37.608  27.179   0.800
56428W        W28853  23.979  20.244   3.208
56429W        W28854   3.400   8.063   4.535
56430W        W28855  14.176  17.828  11.689
56431W        W28856   0.467  34.482  14.399
56432W        W28857  38.956  21.025   2.444
56433W        W28858  19.114  37.371   0.488
56434W        W28859  31.371   3.770  14.388
56435W        W28860  35.867  30.908  12.029
56436W        W28861  15.679  38.649  14.389
56437W        W28862  32.313  15.138   2.276
56438W        W28863   5.985  32.396  12.165
56439W        W28864  20.737  20.804  10.585
56440W        W28865  14.674  31.754  11.187
56441W        W28866  28.187  26.221  13.821
56442W        W28867  13.296  21.660  11.083
56443W        W28868  44.235   7.334   3.665
56444W        W28869  39.473  37.091   1.803
56445W        W28870  20.750  33.642   3.110
56446W        W28871   1.506   3.152   2.790
56447W        W28872   5.877  12.906  13.331
56448W        W28873  19.815   6.153   1.941
56449W        W28874  22.940  36.129   2.816
56450W        W28875  15.743  16.268   5.014
56451W        W28876  15.126  10.118  11.033
56452W        W28877   0.873  28.264   0.742
56453W        W28878   2.442  27.447   3.676
56454W        W28879   5.886  37.064  10.193
56455W        W28880  38.807  40.430   0.011
56456W        W28881   1.358  43.604  14.506
56457W        W28882  16.686  19.228   3.631
56458W        W28883  41.246  38.020  14.939
56459W        W28884   0.937  24.202  13.987
56460W        W28885   9.883  25.643  13.327
56461W        W28886   7.578  23.056   2.269
56462W        W28887   5.287  44.345  14.503
56463W        W28888   1.743  14.147   1.800
56464W        W28889  15.369  12.151   4.386
56465W        W28890  31.605  29.076   3.361
56466W        W28891   5.452  39.521  12.018
56467W        W28892  40.218   6.398  12.106
56468W        W28893  20.241  20.048   1.170
56469W        W28894  39.428   7.893  11.335
56470W        W28895  40.474  24.527  12.934
56471W        W28896  39.027  33.455   4.204
56472W        W28897  32.485  20.841  12.432
56473W        W28898  38.490  23.725   5.340
56474W        W28899   4.134  29.699   3.411
56475W        W28900  18.215   2.991   4.269
56476W        W28901   2.978   6.788  14.480
56477W        W28902  40.225  33.582   1.039
56478W        W28903  11.059  44.546  12.387
56479W        W28904  33.848  13.854  13.817
56480W        W28905   8.534   3.768   2.301
56481W        W28906   2.482  31.132   4.162
56482W        W28907  38.386  36.620   2.738
56483W        W28908  11.611  37.754  12.443
56484W        W28909  13.259  15.128   4.569
56485W        W28910  26.248  26.537   2.375
56486W        W28911   6.707  17.381  11.568
56487W        W28912  43.273  25.074   0.552
56488W        W28913  23.198  35.692   2.654
56489W        W28914   4.305   3.889   0.381
56490W        W28915   4.591  31.465  14.945
56491W        W28916  37.658   8.369  12.410
56492W        W28917   8.610  33.911  14.818
56493W        W28918   6.138  44.669   4.520
56494W        W28919  40.048  26.034  12.561
56495W        W28920  15.110   1.419   4.022
56496W        W28921   0.811  24.434   3.038
56497W        W28922  29.942  23.787  14.053
56498W        W28923  39.313  31.199   4.498
56499W        W28924   3.972   8.162  11.959
56500W        W28925  19.043  30.503   0.570
56501W        W28926  31.209  44.365  11.519
56502W        W28927  42.447  43.509  10.708
56503W        W28928  36.332   7.757  11.221
56504W        W28929   3.581  15.088  11.348
56505W        W28930  20.448  20.257  13.982
56506W        W28931  19.056  40.439   1.364
56507W        W28932   6.740  36.082  11.428
56508W        W28933  34.283  28.495   3.646
56509W        W28934  42.177  13.094   4.233
56510W        W28935  37.960   7.685   1.855
56511W        W28936  17.663   5.957   1.001
56512W        W28937  16.271  39.549   2.574
56513W        W28938  21.281   2.653  14.299
56514W        W28939   8.800  22.973  12.944
56515W        W28940  13.712  21.523   3.602
56516W        W28941   6.983  12.793   0.066
56517W        W28942  26.868  37.935  10.307
56518W        W28943  44.470  42.223   3.259
56519W        W28944   5.766  35.501   9.725
56520W        W28945   1.448   9.678   2.541
56521W        W28946   5.827  17.781  10.874
56522W        W28947  38.780  33.609  10.881
56523W        W28948   2.339  22.673  11.121
56524W        W28949   4.323  26.058  11.492
56525W        W28950  22.786   2.419  11.100
56526W        W28951  35.925  33.683  13.908
56527W        W28952   3.349   3.398   0.294
56528W        W28953  42.926  31.995   0.366
56529W        W28954  16.347  24.530   3.769
56530W        W28955   8.467  35.425  10.696
56531W        W28956  10.811  22.762  12.855
56532W        W28957  20.999  23.536   1.294
56533W        W28958  12.401  13.436  13.885
56534W        W28959  29.436  20.443   4.372
56535W        W28960  17.459  18.779   0.760
56536W        W28961  35.014  44.335   0.553
56537W        W28962   4.825  33.443   2.767
56538W        W28963  12.202  39.988  12.148
56539W        W28964  33.091  35.072   0.820
56540W        W28965  14.832  12.351  11.039
56541W        W28966  29.618   6.914   1.259
56542W        W28967  41.435   6.807   3.146
56543W        W28968   6.111  38.306   3.462
56544W        W28969  29.505  12.467   4.551
56545W        W28970  20.484  14.337  13.440
56546W        W28971  34.538  43.666  11.544
56547W        W28972  13.436  33.681  10.436
56548W        W28973  23.806  11.556   0.909
56549W        W28974  15.161  38.906   1.436
56550W        W28975  29.432  11.870   1.654
56551W        W28976   0.687  32.841  12.462
56552W        W28977  10.727  36.196   0.277
56553W        W28978   3.901   4.061   2.745
56554W        W28979  43.017  40.957  10.495
56555W        W28980  17.263  28.215  11.499
56556W        W28981  28.595  36.600  14.321
56557W        W28982   6.504   6.293  11.169
56558W        W28983  43.091  32.552  13.394
56559W        W28984  18.258   1.767   5.198
56560W        W28985  34.505   8.667  13.036
56561W        W28986  27.063  38.007  14.409
56562W        W28987  27.035  20.432  13.001
56563W        W28988  42.363   7.333   3.395
56564W        W28989  34.136  40.418  13.504
56565W        W28990   2.974   9.823  12.729
56566W        W28991  41.788  40.332   2.497
56567W        W28992   4.199  32.807   2.609
56568W        W28993   1.487  26.935  10.885
56569W        W28994  29.606  12.368  14.939
56570W        W28995  10.789   7.346   3.607
56571W        W28996  16.068  24.616   1.479
56572W        W28997  21.073   6.271   1.307
56573W        W28998  21.216  31.235   2.245
56574W        W28999  10.455  42.958  11.293
56575W        W29000  41.489  15.929   2.742
56576W        W29001  44.320  28.034   4.583
56577W        W29002  36.471  13.879   4.847
56578W        W29003  21.686   0.506   3.368
56579W        W29004  33.673  17.486  11.149
56580W        W29005  16.508   8.794  12.532
56581W        W29006  35.828   4.275  10.489
56582W        W29007   8.789   9.733   0.338
56583W        W29008  26.132  18.143   4.123
56584W        W29009   0.305  38.612   0.740
56585W        W29010  20.264  39.751   3.223
56586W        W29011  35.088   9.857  13.273
56587W        W29012   6.378  22.580   0.864
56588W        W29013   9.817  22.731   4.820
56589W        W29014  29.950  26.049   3.830
56590W        W29015   3.723  10.865   4.464
56591W        W29016   4.824  19.067   3.603
56592W        W29017  34.540   5.150  14.555
56593W        W29018  17.592   3.729   3.300
56594W        W29019   1.199   7.937  13.909
56595W        W29020  34.024  13.620   1.331
56596W        W29021  13.323   5.383  10.609
56597W        W29022  33.591  40.112   4.899
56598W        W29023  33.471  21.525   4.680
56599W        W29024  31.754   5.361  11.518
56600W        W29025   7.732  19.012   0.257
56601W        W29026  13.557  13.256   4.650
56602W        W29027  11.183  17.716   3.654
56603W        W29028  29.743  12.113  13.929
56604W        W29029   6.126  34.511   2.408
56605W        W29030  17.446  40.845   2.954
56606W        W29031  17.132   8.719   1.812
56607W        W29032  13.672  22.321  11.914
56608W        W29033  20.983   0.048   2.712
56609W        W29034  24.620  24.178   2.803
56610W        W29035  41.906  22.388   2.635
56611W        W29036  14.251  21.231   4.648
56612W        W29037  30.545  29.183  14.051
56613W        W29038  33.218   1.333  10.514
56614W        W29039  33.071  16.068   1.132
56615W        W29040  16.665  34.124   0.016
56616W        W29041  35.258  28.024   1.068
56617W        W29042   7.383   3.539   4.942
56618W        W29043   6.051  24.586  11.927
56619W        W29044  44.895  30.826  12.544
56620W        W29045  29.710  19.772  14.839
56621W        W29046  33.700  12.612   4.504
56622W        W29047  19.650  14.243  14.124
56623W        W29048  36.453  15.058  11.709
56624W        W29049  15.809  14.745   4.158
56625W        W29050  15.140  32.616   4.179
56626W        W29051  36.606  24.630  12.364
56627W        W29052  28.633  37.049  11.150
56628W        W29053  40.863  34.107   3.098
56629W        W29054  10.738   3.559   4.169
56630W        W29055  16.340   3.267   4.045
56631W        W29056  13.225  28.879   2.251
56632W        W29057   2.613  16.679   0.916
56633W        W29058  20.513  29.638   4.247
56634W        W29059  10.980   2.630  11.605
56635W        W29060  38.082   7.793   1.365
56636W        W29061   3.873   4.977   1.852
56637W        W29062  34.629   4.245   4.398
56638W        W29063   0.864  30.172  10.696
56639W        W29064  33.482  36.400   4.191
56640W        W29065   7.757   6.004   1.929
56641W        W29066  41.820  22.974   0.908
56642W        W29067  11.624   1.342   2.461
56643W        W29068  18.201   1.980   0.392
56644W        W29069  35.061  40.435   0.798
56645W        W29070   1.938  44.701   2.340
56646W        W29071  17.266   8.192  14.037
56647W        W29072   5.422  22.305  14.875
56648W        W29073  41.773  31.660  13.549
56649W        W29074   2.316  27.098  14.497
56650W        W29075  22.019  42.416  14.865
56651W        W29076  34.877   8.764   1.700
56652W        W29077   4.378  17.856   4.993
56653W        W29078  21.071  30.756   0.838
56654W        W29079  34.313   4.744   4.204
56655W        W29080  30.442   0.831   4.603
56656W        W29081  14.052  13.183   4.718
56657W        W29082  30.725  38.046  13.369
56658W        W29083   3.381  41.891  10.940
56659W        W29084  15.639  29.378  14.255
56660W        W29085   0.339   2.247  12.922
56661W        W29086  19.100   7.920   2.331
56662W        W29087  29.618  37.330  12.874
56663W        W29088   1.762  43.923  14.310
56664W        W29089   7.349  31.539   3.741
56665W        W29090  31.488  41.355   4.715
56666W        W29091  28.161  15.710   4.632
56667W        W29092   2.780  26.482   2.126
56668W        W29093  17.263  31.497   3.732
56669W        W29094  44.882  32.632  12.924
56670W        W29095   8.887   9.388  14.377
56671W        W29096   2.605  24.705   2.431
56672W        W29097   0.644   3.881  12.129
56673W        W29098  41.553  19.217  14.453
56674W        W29099  17.697   2.454   2.177
56675W        W29100  10.474   1.062  13.832
56676W        W29101  44.721  32.932  14.839
56677W        W29102  17.973  30.652  14.780
56678W        W29103  33.067  20.651   1.007
56679W        W29104  44.754  21.520   2.187
56680W        W29105  19.822  38.067   0.541
56681W        W29106  38.840  44.684  14.296
56682W        W29107  34.279   3.730   0.786
56683W        W29108   2.728  35.826  12.186
56684W        W29109  17.863  21.971   2.683
56685W        W29110  43.602   1.358   2.736
56686W        W29111  36.108  28.738   2.277
56687W        W29112  10.625  19.821   1.686
56688W        W29113  38.632  42.304   3.718
56689W        W29114   3.935  16.002   1.880
56690W        W29115   9.040  24.662   4.054
56691W        W29116  30.178   9.967  12.300
56692W        W29117  32.598   3.198   4.272
56693W        W29118  25.905  27.056   2.259
56694W        W29119  12.974  26.192   4.392
56695W        W29120   2.736   9.364  12.502
56696W        W29121  32.893  32.175  13.423
56697W        W29122  30.745  21.767   2.117
56698W        W29123  41.868  39.462   3.084
56699W        W29124  40.230  24.043   2.085
56700W        W29125  13.834  25.586   4.143
56701W        W29126  44.020  41.195  13.291
56702W        W29127  40.822  23.112  14.225
56703W        W29128  25.724  34.638  13.562
56704W        W29129  30.499  15.388  11.896
56705W        W29130  29.262  32.492  10.806
56706W        W29131   0.514  30.979  12.469
56707W        W29132  12.414  28.766   0.351
56708W        W29133  42.271   8.408  12.497
56709W        W29134   5.943  28.896  12.928
56710W        W29135   6.836   4.831  10.671
56711W        W29136  33.726  25.396  10.852
56712W        W29137  19.082  36.590  11.985
56713W        W29138  37.858   3.782   3.223
56714W        W29139  38.624  44.399   0.469
56715W        W29140  31.174  25.126   0.986
56716W        W29141   5.872  25.030   3.888
56717W        W29142  28.463   7.984   0.034
56718W        W29143  10.423   1.819   1.888
56719W        W29144  12.318  22.833   2.211
56720W        W29145  29.930  15.764  13.767
56721W        W29146  20.917  17.668   3.784
56722W        W29147   2.955  21.077  12.782
56723W        W29148  43.719  36.953  12.202
56724W        W29149   2.514  29.560   0.432
56725W        W29150  32.572   3.781   1.437
56726W        W29151   1.156  32.538   2.890
56727W        W29152   2.452   7.176  12.948
56728W        W29153  31.362  14.521  14.043
56729W        W29154   2.265  13.773  11.638
56730W        W29155  16.577   3.844  13.409
56731W        W29156  27.519  35.589   2.385
56732W        W29157  13.748   7.699  12.863
56733W        W29158   8.205   3.988  14.358
56734W        W29159  37.910  39.368   2.352
56735W        W29160   1.967   2.771  14.018
56736W        W29161  17.648  44.532  10.174
56737W        W29162   1.647   8.942   2.780
56738W        W29163  36.336   0.634  12.601
56739W        W29164  19.609   5.259   0.344
56740W        W29165  15.589  18.854   0.454
56741W        W29166  32.439  26.227  11.042
56742W        W29167  21.697  30.150   1.731
56743W        W29168   2.767   2.310   2.457
56744W        W29169  35.063   5.818   2.649
56745W        W29170   4.410  14.123   4.269
56746W        W29171  42.793  16.391  13.884
56747W        W29172   9.890  31.608  13.789
56748W        W29173  41.169  27.159  11.178
56749W        W29174  44.326   5.606   1.664
56750W        W29175   5.144   9.656   4.299
56751W        W29176  35.332  18.138   1.378
56752W        W29177  22.349  10.378   1.888
56753W        W29178  28.422  10.692  12.408
56754W        W29179  12.901  30.171   2.930
56755W        W29180  34.998  22.956  13.405
56756W        W29181  16.963  39.726  14.822
56757W        W29182   5.716   8.526   1.338
56758W        W29183  14.338  34.961   0.786
56759W        W29184  35.939  39.903   1.408
56760W        W29185  40.990  43.442  12.184
56761W        W29186   1.432  24.975  14.590
56762W        W29187   8.399  40.434   1.018
56763W        W29188  21.617  26.645   3.024
56764W        W29189  15.677   1.269   5.074
56765W        W29190  41.543  30.162   1.902
56766W        W29191  13.291  10.051  14.379
56767W        W29192  42.706   2.773   3.466
56768W        W29193  37.463  16.859   4.585
56769W        W29194  34.340  27.940  13.951
56770W        W29195  31.141  28.462  10.599
56771W        W29196  43.330  22.706   3.401
56772W        W29197  14.043  35.966   2.528
56773W        W29198   8.890   3.978  11.983
56774W        W29199  40.675  38.451  11.196
56775W        W29200  16.279  14.334   5.340
56776W        W29201  26.105  22.151   4.029
56777W        W29202   8.246   9.707   2.656
56778W        W29203  23.051  13.869   2.648
56779W        W29204  11.120  26.613   3.300
56780W        W29205   9.103  40.906  12.930
56781W        W29206   5.218   6.860   4.462
56782W        W29207  41.602  10.820   4.488
56783W        W29208  38.603   9.786  11.636
56784W        W29209  23.038  19.093   4.558
56785W        W29210   5.891  23.233  10.832
56786W        W29211  37.442  17.573   1.367
56787W        W29212   4.702  13.327   3.744
56788W        W29213  13.646  32.752   2.424
56789W        W29214  19.312   0.856  11.637
56790W        W29215  10.111   1.331   1.955
56791W        W29216  11.132  23.337   0.479
56792W        W29217  36.094   5.074  13.832
56793W        W29218  15.770   8.358   4.425
56794W        W29219  24.070  20.818   4.631
56795W        W29220  29.977  16.870   3.250
56796W        W29221  35.991  11.795   1.760
56797W        W29222   4.923  34.050   4.373
56798W        W29223  15.085  11.193   1.110
56799W        W29224   1.922  18.524   3.307
56800W        W29225  40.283  31.553  14.459
56801W        W29226   4.254   4.825  14.583
56802W        W29227  10.888  12.820   4.064
56803W        W29228  35.491  23.502   9.875
56804W        W29229  43.664  21.950  11.249
56805W        W29230   2.499  30.660   3.182
56806W        W29231   3.747  17.140  10.980
56807W        W29232   4.696  28.153   3.334
56808W        W29233  38.860   0.640   0.450
56809W        W29234  43.396  14.900   1.836
56810W        W29235  34.818   6.260   2.739
56811W        W29236  19.985  26.205  12.926
56812W        W29237  31.962  39.757   4.124
56813W        W29238  44.622  12.249   2.805
56814W        W29239  38.518  12.965  11.163
56815W        W29240  23.273  13.288  10.670
56816W        W29241  22.078   0.757  12.379
56817W        W29242  12.671   7.665  11.684
56818W        W29243  42.453  26.199   1.782
56819W        W29244  19.343  32.844  12.389
56820W        W29245  35.123  32.371   2.756
56821W        W29246  35.227  26.628   1.159
56822W        W29247  43.729  42.266   2.328
56823W        W29248  31.656  22.530  13.392
56824W        W29249   3.961   3.782   4.118
56825W        W29250   8.064  36.632   3.246
56826W        W29251  23.963   4.142   0.710
56827W        W29252   8.722   0.400   0.731
56828W        W29253  25.445   1.982  12.519
56829W        W29254   0.220  19.789   1.239
56830W        W29255  42.217  11.156  12.054
56831W        W29256  10.201  40.513   2.679
56832W        W29257  11.860  36.528   3.266
56833W        W29258  28.014  37.357   3.333
56834W        W29259  15.752  19.031  14.355
56835W        W29260  12.935  23.634  13.134
56836W        W29261  43.305  16.801   3.304
56837W        W29262  38.806  19.288  13.519
56838W        W29263  24.159  23.123   4.352
56839W        W29264  11.243  16.054   2.820
56840W        W29265  25.185   2.785  11.378
56841W        W29266  34.298  20.215   1.690
56842W        W29267  43.241  19.049  11.149
56843W        W29268  19.137   4.788  13.471
56844W        W29269  25.502  18.152   0.199
56845W        W29270  18.356  11.658   2.606
56846W        W29271  40.129  38.479  12.811
56847W        W29272  36.223  38.295  11.080
56848W        W29273  42.098  11.694  12.712
56849W        W29274  20.192   3.355   0.316
56850W        W29275  20.738  14.315   1.917
56851W        W29276  44.742   9.434   3.719
56852W        W29277  19.036  25.621  12.151
56853W        W29278   9.906  44.885  13.487
56854W        W29279  23.953   3.750  13.361
56855W        W29280   1.838  14.814   4.046
56856W        W29281  31.728  42.924  11.601
56857W        W29282  40.859  18.370  14.412
56858W        W29283   3.280  25.639   4.473
56859W        W29284  31.470  18.020  10.666
56860W        W29285  29.594  21.000  13.109
56861W        W29286   8.197  37.909   5.773
56862W        W29287  33.912   6.968  13.454
56863W        W29288  23.277  43.866   3.439
56864W        W29289   0.153  36.950   3.143
56865W        W29290  11.559  18.048  14.330
56866W        W29291  38.031   1.199   4.320
56867W        W29292   5.058  15.713  13.261
56868W        W29293  36.049  44.739  11.008
56869W        W29294  40.271  18.712  10.646
56870W        W29295   8.890  26.796  13.745
56871W        W29296  43.699  11.665   4.316
56872W        W29297  11.847   3.510  10.190
56873W        W29298   5.468  36.959   3.826
56874W        W29299  29.800   1.177   0.695
56875W        W29300  11.735   0.161  12.341
56876W        W29301  32.431  31.570  10.906
56877W        W29302  39.015  40.871  13.397
56878W        W29303   5.128  25.961   2.686
56879W        W29304  13.132  30.825   4.539
56880W        W29305  20.781  27.956  14.738
56881W        W29306  17.179  20.572  14.807
56882W        W29307  11.348  37.537  11.160
56883W        W29308  29.056  37.474  12.044
56884W        W29309  41.850  15.757  13.106
56885W        W29310  11.141  38.014   1.933
56886W        W29311   5.657  35.639   1.147
56887W        W29312  10.794  43.962  13.793
56888W        W29313  20.316  24.927   3.214
56889W        W29314   5.730  44.293  11.983
56890W        W29315  25.399  18.555  13.537
56891W        W29316  22.199  19.476   0.237
56892W        W29317  35.881  43.763  11.886
56893W        W29318   5.770  24.142   1.888
56894W        W29319  34.032  41.920   0.634
56895W        W29320  16.161  41.298  10.653
56896W        W29321  28.004  25.703   3.171
56897W        W29322   1.520   4.628  12.071
56898W        W29323  26.091  42.475   0.028
56899W        W29324   9.578  41.705   4.114
56900W        W29325  33.605  38.372   2.187
56901W        W29326  39.000   8.204  14.394
56902W        W29327  40.851  37.211  12.920
56903W        W29328  18.198  33.062   2.278
56904W        W29329   9.320  44.875  14.921
56905W        W29330  29.425  15.678  13.560
56906W        W29331  10.677   5.964   4.245
56907W        W29332  36.129  34.373   3.674
56908W        W29333   0.199  17.313  11.664
56909W        W29334  40.828  10.666  14.520
56910W        W29335  39.089  14.730  11.445
56911W        W29336  17.782  28.215   3.818
56912W        W29337  23.260  10.662   3.706
56913W        W29338  35.775  29.404   0.824
56914W        W29339  14.219   2.197  10.947
56915W        W29340  22.987  32.644  11.588
56916W        W29341   4.911  13.756  11.325
56917W        W29342  26.041  30.841   3.692
56918W        W29343  10.568  16.820  12.957
56919W        W29344  36.532  33.510   1.147
56920W        W29345  39.885  29.608  11.897
56921W        W29346  32.059  19.515  13.131
56922W        W29347   9.152   7.654   1.823
56923W        W29348  39.405  39.414  13.098
56924W        W29349  16.789  31.431   4.650
56925W        W29350  20.164  26.562   1.308
56926W        W29351  10.796   5.521   3.967
56927W        W29352  36.909  33.986   0.811
56928W        W29353  21.171  25.869  10.400
56929W        W29354  42.789  17.662  13.014
56930W        W29355  18.455  15.559  13.841
56931W        W29356   0.824   4.199  11.773
56932W        W29357  33.985  28.646   3.190
56933W        W29358  27.474   0.294  12.720
56934W        W29359  25.225  24.061   4.183
56935W        W29360  28.158  35.172   1.944
56936W        W29361  44.939  43.302   0.164
56937W        W29362  37.305  26.426  10.540
56938W        W29363  17.022  39.858   3.086
56939W        W29364  28.528  39.618   1.150
56940W        W29365  38.007   2.910  12.131
56941W        W29366  35.546  13.944   3.672
56942W        W29367   1.358  37.745   3.783
56943W        W29368  20.957  29.596  12.038
56944W        W29369  12.222   4.681   2.931
56945W        W29370  16.711   2.297   2.207
56946W        W29371   6.917  31.365   1.349
56947W        W29372  37.289  34.561  12.553
56948W        W29373  24.757  32.867   0.200
56949W        W29374  37.081   1.405  13.438
56950W        W29375   4.275  18.058   1.331
56951W        W29376  41.229  27.953  12.681
56952W        W29377  33.800  29.949  14.742
56953W        W29378  16.640   4.771  13.051
56954W        W29379   8.377  15.747   4.554
56955W        W29380  29.225  13.625   4.111
56956W        W29381  39.831   5.471  14.256
56957W        W29382  17.123  32.586   0.558
56958W        W29383  34.405  27.570  11.493
56959W        W29384  21.097  15.998  12.814
56960W        W29385  33.141  37.584   2.307
56961W        W29386  18.074  11.776   4.149
56962W        W29387  25.937  21.795  10.448
56963W        W29388  16.589   7.940  14.088
56964W        W29389  18.796  24.257  13.178
56965W        W29390  19.432  28.489   3.576
56966W        W29391   1.379  44.184  13.357
56967W        W29392   7.282  40.885   0.758
56968W        W29393  39.985  44.254  14.910
56969W        W29394  29.262  18.991   0.672
56970W        W29395  16.307  26.105   0.423
56971W        W29396   1.242  35.907   2.102
56972W        W29397  25.608   4.144  13.784
56973W        W29398  35.594  18.104  12.400
56974W        W29399  20.336  36.018  11.269
56975W        W29400  12.179  35.862  11.521
56976W        W29401  10.345   4.858   1.378
56977W        W29402  33.891  18.797   4.551
56978W        W29403  20.414  30.007   1.574
56979W        W29404  35.177   8.900  12.427
56980W        W29405  19.558   3.315  13.603
56981W        W29406  18.797  35.052  12.020
56982W        W29407  26.405   2.260   4.824
56983W        W29408   1.597  12.674  13.073
56984W        W29409  18.227   8.260  14.493
56985W        W29410   1.282  18.550   4.451
56986W        W29411  39.311  27.685   2.423
56987W        W29412  26.023  40.974  13.109
56988W        W29413  41.805   8.376  14.969
56989W        W29414  20.512  31.393   2.695
56990W        W29415  23.074  42.604   4.276
56991W        W29416  40.459  26.472  12.066
56992W        W29417  15.812  33.659  12.144
56993W        W29418  32.776   6.280   0.689
56994W        W29419  16.570  38.972  10.947
56995W        W29420  37.905  35.496  11.942
56996W        W29421  12.599  34.821   4.372
56997W        W29422  27.084  37.994  10.776
56998W        W29423  22.026   5.142  13.781
56999W        W29424  42.823  44.467   4.057
57000W        W29425   8.129   9.461  13.030
57001W        W29426  19.968  26.573  11.895
57002W        W29427  13.601  37.823  11.552
57003W        W29428  35.066  39.615  14.874
57004W        W29429  35.908  31.651  12.482
57005W        W29430  26.046  19.014   0.811
57006W        W29431  44.943  17.431  12.094
57007W        W29432   1.703   7.255  13.400
57008W        W29433  35.919  15.881  11.550
57009W        W29434  35.959  38.273   1.281
57010W        W29435  23.696  21.084  10.171
57011W        W29436  23.526  22.439   0.314
57012W        W29437  32.476   3.999  11.161
57013W        W29438  31.437   3.603  13.076
57014W        W29439  16.835   0.213   1.917
57015W        W29440  19.227   5.295  13.334
57016W        W29441  14.627  13.270   0.181
57017W        W29442   4.368  41.721  11.514
57018W        W29443   1.221   1.053  11.066
57019W        W29444  32.970   7.409  13.445
57020W        W29445  28.738  38.696   4.473
57021W        W29446   5.088  36.724   2.487
57022W        W29447  33.447  14.166  13.787
57023W        W29448  10.661  39.869  12.104
57024W        W29449  38.688  35.976  11.691
57025W        W29450  17.700  20.579  12.845
57026W        W29451  18.301  31.446   2.129
57027W        W29452  40.279  36.293  14.459
57028W        W29453  23.763  12.339   0.390
57029W        W29454  27.297  10.656  10.700
57030W        W29455  37.994  36.564  12.159
57031W        W29456  34.886   2.475   1.500
57032W        W29457  39.418  20.037  12.864
57033W        W29458  28.372   0.038   4.611
57034W        W29459  26.585  12.711   4.568
57035W        W29460  33.990  24.490  12.608
57036W        W29461   3.852  17.656   4.998
57037W        W29462  14.852  14.204  13.197
57038W        W29463  29.995   2.858  12.729
57039W        W29464  32.639  18.361  13.000
57040W        W29465  40.782  14.046  12.004
57041W        W29466  16.342  23.645   2.644
57042W        W29467  17.880  42.857  13.366
57043W        W29468  20.070  19.566   4.191
57044W        W29469  16.683  13.096   0.200
57045W        W29470  27.897  43.892  13.062
57046W        W29471  26.958   6.422   3.328
57047W        W29472  31.430  28.618   3.580
57048W        W29473   5.208  13.868   3.213
57049W        W29474   1.451   5.216  12.549
57050W        W29475  30.385  15.246  11.064
57051W        W29476  37.942   6.131   1.986
57052W        W29477  38.525  12.864  11.957
57053W        W29478  22.077   0.015  14.766
57054W        W29479  30.005  39.745   4.211
57055W        W29480  23.941  10.280  13.400
57056W        W29481  40.635   5.378   0.804
57057W        W29482   0.686  42.655   1.693
57058W        W29483   7.964  28.462   2.354
57059W        W29484  28.097  32.972  11.142
57060W        W29485   3.133  27.135   4.258
57061W        W29486   9.473  24.086   2.378
57062W        W29487  12.946   5.225   2.773
57063W        W29488   6.128  41.251   3.686
57064W        W29489  26.955  38.446   4.722
57065W        W29490  14.607  38.608   1.760
57066W        W29491  11.624   0.449   0.258
57067W        W29492  40.007   6.104   2.863
57068W        W29493  42.301  22.785  14.839
57069W        W29494  36.801  17.005   4.018
57070W        W29495  37.311  29.397   2.930
57071W        W29496  42.505   5.583  12.060
57072W        W29497  44.965  18.604   4.771
57073W        W29498  10.884  10.718  11.581
57074W        W29499   6.802  37.323   1.743
57075W        W29500  27.106  30.842  13.857
57076W        W29501  19.819  16.710   2.362
57077W        W29502  20.752  38.729   0.816
57078W        W29503  17.216  26.565  10.324
57079W        W29504  25.048  39.967   2.021
57080W        W29505   5.866  25.526   2.603
57081W        W29506  44.679  21.641  11.221
57082W        W29507  22.441  10.350  14.836
57083W        W29508  25.516  11.755   3.137
57084W        W29509   3.684  24.622  13.534
57085W        W29510  27.450   0.486  14.062
57086W        W29511  28.723  41.898  14.924
57087W        W29512  44.099  36.035   3.645
57088W        W29513  29.161   5.724   4.076
57089W        W29514  41.858  40.509  13.934
57090W        W29515  10.262  24.856  12.017
57091W        W29516  26.224  16.897   0.400
57092W        W29517  28.848  31.136  12.954
57093W        W29518  39.072  30.742  11.560
57094W        W29519  37.684  42.830   4.177
57095W        W29520   3.196  28.743   3.288
57096W        W29521   7.465  39.472  13.013
57097W        W29522  42.500  20.021  14.244
57098W        W29523  16.652  31.218  10.220
57099W        W29524  42.756   0.407   4.357
57100W        W29525  14.667  33.878  12.035
57101W        W29526  18.140  22.696  13.066
57102W        W29527  24.314   5.428   4.139
57103W        W29528  40.405  17.024   1.275
57104W        W29529  34.649  26.912   3.197
57105W        W29530  17.863  30.427   5.163
57106W        W29531  11.102  19.549   0.262
57107W        W29532   5.880  23.567  12.556
57108W        W29533   7.522   3.981   4.646
57109W        W29534  35.432   4.680   1.805
57110W        W29535  14.869  38.397   0.395
57111W        W29536  29.910   8.414   2.704
57112W        W29537  27.638  28.963  12.627
57113W        W29538   3.640  26.465  14.542
57114W        W29539   4.508  27.684  14.581
57115W        W29540  27.640   3.381   0.205
57116W        W29541  28.878  30.802  12.508
57117W        W29542   9.902  16.054  10.731
57118W        W29543  14.844  40.835   4.673
57119W        W29544   4.915  21.509  13.455
57120W        W29545  16.128  28.334   1.189
57121W        W29546  29.806  43.204   3.752
57122W        W29547  40.300  31.109  12.884
57123W        W29548  25.590  16.712  12.944
57124W        W29549  36.912  38.563   2.332
57125W        W29550  16.704  29.510   0.530
57126W        W29551  23.507  33.079   3.198
57127W        W29552  32.325  33.934  14.411
57128W        W29553  12.963  38.008   2.011
57129W        W29554   2.026   1.983   1.235
57130W        W29555  43.868   1.824   1.420
57131W        W29556  28.995   7.325  13.589
57132W        W29557  43.389  27.389   0.263
57133W        W29558  11.534  23.879  14.974
57134W        W29559   6.815  42.404   4.538
57135W        W29560  39.538   5.946  11.106
57136W        W29561  44.489   6.966   1.295
57137W        W29562  11.774  39.347  10.836
57138W        W29563   9.706  28.770   2.802
57139W        W29564   8.786  36.166   3.625
57140W        W29565   9.354   3.141  13.582
57141W        W29566   6.773  43.246   2.556
57142W        W29567  22.728  28.041  14.811
57143W        W29568  33.528  42.563   4.353
57144W        W29569  24.359  29.697  13.857
57145W        W29570  20.181  35.368   1.488
57146W        W29571  35.868  38.772   4.547
57147W        W29572  38.037  13.177   2.349
57148W        W29573   2.466  32.493  11.707
57149W        W29574  32.885  28.280  12.949
57150W        W29575  37.487  10.751  14.542
57151W        W29576  33.314   6.121  12.104
57152W        W29577  32.903   3.507  14.824
57153W        W29578  11.384   2.440  12.585
57154W        W29579  34.830  35.360   4.082
57155W        W29580  24.475  30.662  12.844
57156W        W29581   0.946  38.455   4.078
57157W        W29582  35.408  23.765  13.476
57158W        W29583  20.621  23.480   2.682
57159W        W29584  37.944  40.889   4.550
57160W        W29585  20.581  27.914  13.388
57161W        W29586  12.242  31.438  12.195
57162W        W29587  22.610   4.421   3.745
57163W        W29588   5.887   2.052  12.940
57164W        W29589  43.797  23.902   1.001
57165W        W29590   7.887  30.698   2.938
57166W        W29591  15.047  33.129   2.637
57167W        W29592  41.961  34.637   1.535
57168W        W29593  37.305  32.076   1.700
57169W        W29594  24.526  12.613  14.305
57170W        W29595   1.329  14.906   4.510
57171W        W29596  27.220   8.408   0.293
57172W        W29597  12.229  33.945  11.000
57173W        W29598  11.128  21.313   3.422
57174W        W29599  32.854  16.574  12.378
57175W        W29600  12.573   4.245   1.488
57176W        W29601   9.366  32.787   3.179
57177W        W29602   6.953  33.617  14.043
57178W        W29603  28.588  38.259   2.787
57179W        W29604  32.410   4.242  12.043
57180W        W29605  20.852  17.977   2.787
57181W        W29606  17.584  31.805   2.762
57182W        W29607   4.815   8.717  13.442
57183W        W29608  30.511  33.415   4.758
57184W        W29609  18.205  20.200  13.855
57185W        W29610  33.177  22.929   2.682
57186W        W29611  42.071  32.535  13.283
57187W        W29612  43.979  43.292   0.611
57188W        W29613  34.385  26.747   4.663
57189W        W29614  17.068   6.955   9.969
57190W        W29615  13.248  22.932  10.664
57191W        W29616  28.993   8.124  11.868
57192W        W29617   4.424  10.425   2.792
57193W        W29618  26.115  43.453  10.545
57194W        W29619  27.677   7.679  14.708
57195W        W29620  26.912   5.220  13.014
57196W        W29621  34.425   3.628  14.496
57197W        W29622  21.636   2.422   3.078
57198W        W29623   4.365   5.233   2.184
57199W        W29624  37.152   1.750  13.829
57200W        W29625  31.975  25.578   3.803
57201W        W29626  35.953  38.307  14.923
57202W        W29627  33.424  13.335   3.506
57203W        W29628  42.994  43.619   4.598
57204W        W29629  32.492  31.626  12.321
57205W        W29630  11.447  31.658  14.495
57206W        W29631   1.235  13.018   1.782
57207W        W29632   2.683  43.317   1.331
57208W        W29633  40.618  15.418  12.960
57209W        W29634  36.557  22.562   2.993
57210W        W29635  29.039  41.340   4.533
57211W        W29636  43.003   2.019  12.471
57212W        W29637   4.583   5.400  11.652
57213W        W29638   4.158  24.188  13.015
57214W        W29639  38.119  34.098   3.193
57215W        W29640  21.706  15.639   1.462
57216W        W29641  42.171  37.826  11.999
57217W        W29642  41.061  18.013  13.279
57218W        W29643  24.636  36.623   2.682
57219W        W29644  33.166  37.155  14.312
57220W        W29645   9.553   5.726   3.200
57221W        W29646  26.104   3.785   3.885
57222W        W29647  12.731  42.590   3.819
57223W        W29648  21.928  28.008  10.653
57224W        W29649  12.354   7.348   3.497
57225W        W29650  12.875  28.638   2.741
57226W        W29651  17.036  10.134   2.750
57227W        W29652   5.149   4.460   0.155
57228W        W29653  27.482  20.110  12.928
57229W        W29654   1.411  14.504   4.159
57230W        W29655  17.253  20.215  10.960
57231W        W29656  21.810   3.267   3.760
57232W        W29657  22.613  16.425  14.264
57233W        W29658  20.977  20.690   2.259
57234W        W29659  24.959  26.704   3.690
57235W        W29660  39.354  43.808   0.503
57236W        W29661  14.117   8.151   4.568
57237W        W29662  11.751  19.781   3.576
57238W        W29663  24.120  21.913   3.757
57239W        W29664  34.628  34.890   4.120
57240W        W29665  17.112   6.749   2.142
57241W        W29666  36.355   1.679   2.313
57242W        W29667  11.075  38.935   2.276
57243W        W29668   2.773   2.003  11.695
57244W        W29669  42.476   2.914   1.467
57245W        W29670  34.016  28.089  11.985
57246W        W29671  36.995  35.723   2.780
57247W        W29672  25.638   6.436  13.959
57248W        W29673  11.416  15.354   3.227
57249W        W29674  32.441  38.546  12.022
57250W        W29675  10.029  11.757   0.341
57251W        W29676  12.942  41.978   4.913
57252W        W29677  23.531  28.049  12.041
57253W        W29678  11.169  36.915  11.469
57254W        W29679  37.923  25.224  12.367
57255W        W29680  12.831  30.614   4.130
57256W        W29681  22.007  31.683   0.833
57257W        W29682  39.007  25.309   1.768
57258W        W29683   2.791  13.838   4.886
57259W        W29684  17.024  38.003  14.574
57260W        W29685  29.924  27.172  12.614
57261W        W29686  25.070   5.357  13.275
57262W        W29687  43.822  23.046   2.732
57263W        W29688  34.629   9.921   3.189
57264W        W29689  26.677   3.249  11.939
57265W        W29690   8.101  41.491  13.921
57266W        W29691  24.572  34.642   1.448
57267W        W29692  39.556  18.126  12.932
57268W        W29693  38.884  21.676  14.420
57269W        W29694  28.250  32.859   5.121
57270W        W29695  10.560  18.042  11.973
57271W        W29696  44.034  20.222   4.262
57272W        W29697  21.803  25.971   0.362
57273W        W29698  38.983  38.557   3.893
57274W        W29699  39.938  38.911  10.970
57275W        W29700  31.708  41.983   3.530
57276W        W29701  29.636   2.772  12.350
57277W        W29702  23.304  24.511  13.726
57278W        W29703  42.414  17.539  14.393
57279W        W29704   2.753  13.323  14.314
57280W        W29705   3.770  44.346  11.102
57281W        W29706   9.762  31.339  12.837
57282W        W29707  24.015  12.837   3.372
57283W        W29708  21.950  39.905   2.490
57284W        W29709  12.321  11.333   3.140
57285W        W29710  31.212  12.301   0.291
57286W        W29711  28.037   5.922   3.654
57287W        W29712  17.542   1.020  11.906
57288W        W29713  31.953  44.254  11.132
57289W        W29714   3.232  41.827   3.611
57290W        W29715   0.419  38.392   4.209
57291W        W29716  43.838  26.719  13.546
57292W        W29717   6.919  10.224  14.816
57293W        W29718  19.254  43.114   0.763
57294W        W29719  22.949  10.385  14.842
57295W        W29720  26.213  11.596  13.912
57296W        W29721   4.991  19.148   0.247
57297W        W29722  31.900   4.644  13.568
57298W        W29723   2.819  10.738  12.498
57299W        W29724  29.234   1.829  13.861
57300W        W29725  15.612  10.160  12.407
57301W        W29726  14.423  38.074   3.209
57302W        W29727   9.142   1.878   3.348
57303W        W29728  12.193  16.094   4.592
57304W        W29729  24.903  25.565  11.014
57305W        W29730  18.186   3.305  12.936
57306W        W29731  34.352   2.808  13.004
57307W        W29732  44.085  34.728   3.662
57308W        W29733  12.672  14.584  11.413
57309W        W29734  37.846  26.993  12.259
57310W        W29735  36.980  26.768  11.656
57311W        W29736  18.573   2.478  12.137
57312W        W29737  25.925  14.886   0.269
57313W        W29738  37.054  13.270   1.764
57314W        W29739   0.718  42.933  10.247
57315W        W29740  22.553  22.615   3.639
57316W        W29741   6.902  25.737   0.826
57317W        W29742   1.199  14.602   0.893
57318W        W29743  39.819  38.280   2.642
57319W        W29744  41.405  37.019   1.426
57320W        W29745  12.455  25.427  10.515
57321W        W29746  43.852  23.270  10.612
57322W        W29747  38.556   8.810   0.733
57323W        W29748  31.077  18.145   0.024
57324W        W29749  41.375  23.116   4.080
57325W        W29750  41.135  42.914  13.402
57326W        W29751  23.196   3.677   1.513
57327W        W29752   8.404  39.281  13.132
57328W        W29753  31.859   9.988   1.641
57329W        W29754  30.284  42.708   2.851
57330W        W29755  10.303  36.074  14.979
57331W        W29756  18.579  43.413  12.273
57332W        W29757  12.219  41.464   4.463
57333W        W29758  26.177  27.993   0.316
57334W        W29759   4.215  43.889   1.888
57335W        W29760  28.970  24.964  14.889
57336W        W29761   5.189  22.705   4.607
57337W        W29762  41.058   9.876   4.118
57338W        W29763  26.274   6.098  14.232
57339W        W29764  41.787  29.953   2.334
57340W        W29765  40.581  24.426  12.419
57341W        W29766   5.736  40.476  12.166
57342W        W29767  11.182  30.610   1.010
57343W        W29768   3.533  20.660  13.277
57344W        W29769  14.810   2.968   3.261
57345W        W29770  29.488   0.712   4.206
57346W        W29771  28.835   7.742  13.870
57347W        W29772  13.594   5.974   0.390
57348W        W29773  13.721   4.492  12.154
57349W        W29774   8.309   9.976  14.679
57350W        W29775  37.152  25.748   3.769
57351W        W29776  14.067  43.640   1.868
57352W        W29777   6.263   8.407  13.363
57353W        W29778  21.332  35.062   4.160
57354W        W29779  21.091   0.377  10.692
57355W        W29780   8.880  21.996   0.368
57356W        W29781  34.518  17.276   0.293
57357W        W29782   4.912  27.611   2.715
57358W        W29783  10.329  15.363   0.993
57359W        W29784  21.672  26.765  10.735
57360W        W29785  40.463  37.817   0.350
57361W        W29786  31.989  20.529   3.228
57362W        W29787   8.575  14.116  10.178
57363W        W29788  32.517  11.209   2.734
57364W        W29789  33.398  15.724   0.830
57365W        W29790  29.185   0.902  11.955
57366W        W29791  30.758  42.050  10.807
57367W        W29792  32.059  27.119   1.972
57368W        W29793  32.046  40.042  14.832
57369W        W29794  36.269  31.587   3.928
57370W        W29795  11.648  30.841  10.690
57371W        W29796   0.313  40.963   4.774
57372W        W29797  42.990  44.824   1.667
57373W        W29798  11.427   9.265   4.406
57374W        W29799   3.756  16.829   2.283
57375W        W29800  35.021  40.530  13.986
57376W        W29801  13.570  23.089   0.074
57377W        W29802  11.681   7.232  10.987
57378W        W29803  40.016  42.289   4.644
57379W        W29804   6.504   3.272  12.904
57380W        W29805  33.614  37.628   2.599
57381W        W29806  12.144   1.163  12.572
57382W        W29807  13.592  31.399   1.702
57383W        W29808  31.442  12.300  12.250
57384W        W29809  20.524  35.504  14.727
57385W        W29810  25.617   9.871   3.873
57386W        W29811  30.926   9.602  12.899
57387W        W29812  17.749  29.343   2.818
57388W        W29813  39.136  40.995  12.072
57389W        W29814  20.443  42.495   4.201
57390W        W29815  33.633  35.536  13.879
57391W        W29816  27.331  34.935  11.536
57392W        W29817  26.160   3.285   1.628
57393W        W29818   5.379   0.746  14.725
57394W        W29819  12.179  13.868   4.679
57395W        W29820  31.071  44.467   1.641
57396W        W29821  29.867   3.320   0.006
57397W        W29822   0.256  18.755   2.977
57398W        W29823  13.214   8.272  11.647
57399W        W29824  41.569   3.814  13.977
57400W        W29825  30.880  41.293  12.556
57401W        W29826  20.009  11.291  12.820
57402W        W29827  22.479  15.640   2.505
57403W        W29828  17.562  10.831   2.890
57404W        W29829  13.829  28.510   4.583
57405W        W29830  26.034  14.436  11.271
57406W        W29831   2.261  17.337  14.711
57407W        W29832   7.348  17.337  13.966
57408W        W29833  43.240  31.443  13.360
57409W        W29834  35.540   9.588   3.834
57410W        W29835   0.007  38.639   1.169
57411W        W29836  12.224  19.612   1.363
57412W        W29837  25.674  26.176   5.091
57413W        W29838  10.733  33.716   1.347
57414W        W29839  39.010  36.493  13.153
57415W        W29840   0.110   1.211   0.484
57416W        W29841  38.210  34.616  14.972
57417W        W29842  19.109  17.795   4.174
57418W        W29843  36.483   9.136  11.094
57419W        W29844   0.494  11.519   1.196
57420W        W29845  16.300  41.446   2.206
57421W        W29846  39.620  42.611   4.616
57422W        W29847  43.724   7.779   0.859
57423W        W29848  41.625  21.523  12.545
57424W        W29849   2.286   8.857   4.533
57425W        W29850  20.651  32.157   0.893
57426W        W29851  27.646  29.041   3.043
57427W        W29852   5.863  37.830   2.768
57428W        W29853  17.619  38.769  11.270
57429W        W29854   7.390  44.400   3.732
57430W        W29855   9.998  10.757   1.749
57431W        W29856  20.977  37.326   0.819
57432W        W29857  31.982  33.148  10.213
57433W        W29858  27.093  36.112  13.362
57434W        W29859  16.258  38.043  12.122
57435W        W29860  32.516  37.088   4.644
57436W        W29861  18.649  25.701   3.596
57437W        W29862  38.479  19.614   4.556
57438W        W29863   5.502  21.283  11.287
57439W        W29864  35.135  33.156   4.122
57440W        W29865   0.260  27.964  12.435
57441W        W29866  24.174   8.304   4.667
57442W        W29867  12.474  36.679  14.957
57443W        W29868   1.203   2.743  14.772
57444W        W29869  31.528  18.612  14.607
57445W        W29870  27.697  11.104   3.210
57446W        W29871  26.585  15.806  14.084
57447W        W29872   2.299  31.384  10.768
57448W        W29873  33.189  42.327  14.847
57449W        W29874  12.662  24.335   3.681
57450W        W29875  18.955  29.603   3.194
57451W        W29876  35.281  30.575   2.751
57452W        W29877  41.292   5.701  13.969
57453W        W29878   8.268  31.649   0.040
57454W        W29879  21.228  20.153   0.959
57455W        W29880   3.676  37.716   2.345
57456W        W29881  18.060  42.353  10.686
57457W        W29882  10.204  37.955  12.470
57458W        W29883  29.052   1.630  14.303
57459W        W29884  24.805  14.166   2.329
57460W        W29885  21.556  41.051  13.604
57461W        W29886  18.909   2.771   3.893
57462W        W29887  16.620   3.543   4.509
57463W        W29888  28.077  29.952   0.821
57464W        W29889   2.072  40.352  11.498
57465W        W29890   7.172   9.810   4.109
57466W        W29891   8.795  33.438  10.558
57467W        W29892   5.365  18.741   0.923
57468W        W29893  21.243  10.851  11.182
57469W        W29894  38.531  40.436  14.521
57470W        W29895  20.198  26.526   4.342
57471W        W29896   4.478  12.806   0.933
57472W        W29897  19.182   4.344   1.707
57473W        W29898  16.300  31.870   1.398
57474W        W29899  22.491  26.905  11.533
57475W        W29900  24.033  10.849   1.655
57476W        W29901  29.590  23.975  11.139
57477W        W29902  22.037  20.552  10.586
57478W        W29903  10.181  36.148  12.501
57479W        W29904  18.461  36.117   0.295
57480W        W29905  12.738   5.143   1.008
57481W        W29906  21.677  34.849  12.489
57482W        W29907  13.087  36.642  11.938
57483W        W29908  25.525  42.222   2.259
57484W        W29909  38.100  17.867   0.400
57485W        W29910  32.180  41.729  10.668
57486W        W29911  11.713  27.063   1.346
57487W        W29912   2.750  31.555   4.139
57488W        W29913   0.146  13.038  12.709
57489W        W29914  33.211  27.946   0.245
57490W        W29915  25.252  23.557  11.606
57491W        W29916  14.401  41.978  14.359
57492W        W29917  15.605  35.911   4.567
57493W        W29918  26.168  23.195  12.873
57494W        W29919   6.433  21.655   3.338
57495W        W29920  24.198   0.864  13.856
57496W        W29921  36.498  10.300   1.207
57497W        W29922  27.717   9.281  11.806
57498W        W29923  17.483  19.649   0.857
57499W        W29924   5.479  19.135   4.094
57500W        W29925   8.856  25.785   2.908
57501W        W29926   5.503  25.878   0.805
57502W        W29927  30.034  34.029   3.878
57503W        W29928   0.825  16.306   3.681
57504W        W29929  17.577  11.704   3.903
57505W        W29930  38.040  35.392   0.379
57506W        W29931  32.475  20.986   4.127
57507W        W29932   7.121  30.272   2.753
57508W        W29933   2.902  20.031   3.406
57509W        W29934  14.038  42.145  13.964
57510W        W29935  34.074   0.313  11.543
57511W        W29936  36.933  26.327   0.746
57512W        W29937   9.567  12.881   1.678
57513W        W29938   2.443  26.265  12.945
57514W        W29939   7.758  24.994   4.557
57515W        W29940  29.323  32.498   1.918
57516W        W29941  10.981   0.733   2.853
57517W        W29942  19.018  13.069  13.504
57518W        W29943  23.177   0.824  13.944
57519W        W29944  22.508  26.544   0.932
57520W        W29945   3.433   2.696   2.648
57521W        W29946  28.887  33.863   0.567
57522W        W29947  13.205  10.592  14.247
57523W        W29948  21.150  11.712  10.440
57524W        W29949  19.968  26.374   2.714
57525W        W29950  20.466  15.222  11.953
57526W        W29951  43.777  23.279   1.791
57527W        W29952   5.356  11.712   2.271
57528W        W29953  41.620  16.492   4.181
57529W        W29954  26.588  33.455  12.637
57530W        W29955  29.261   6.151  12.567
57531W        W29956  20.440  29.969  12.678
57532W        W29957   7.288   2.358   1.974
57533W        W29958   8.392  40.874   2.377
57534W        W29959  26.654  42.048   1.477
57535W        W29960  37.715  16.208  13.630
57536W        W29961   5.006  13.253  14.736
57537W        W29962  37.471  40.801   4.836
57538W        W29963   8.419  23.148   1.101
57539W        W29964  43.363  30.463   5.162
57540W        W29965  39.437  14.213   3.273
57541W        W29966  21.621  38.122   1.005
57542W        W29967  25.615  43.704  14.820
57543W        W29968   1.685  42.483   1.732
57544W        W29969  21.031  25.375   4.161
57545W        W29970  13.150  40.975   0.200
57546W        W29971   9.866  14.356   5.037
57547W        W29972  18.718  36.592   0.263
57548W        W29973  28.655   1.399  14.801
57549W        W29974  12.541  38.145   1.756
57550W        W29975   1.056  31.380  13.059
57551W        W29976  18.868  10.691  13.388
57552W        W29977  15.069  39.020   3.471
57553W        W29978  26.006  26.091   4.708
57554W        W29979  36.329  14.343  10.681
57555W        W29980  11.382  16.939  13.340
57556W        W29981  31.549  23.607   4.163
57557W        W29982  26.582  19.775   1.512
57558W        W29983   8.511  31.190  12.986
57559W        W29984  21.275  20.048  10.968
57560W        W29985  44.754   2.674  11.083
57561W        W29986  10.605  30.592  10.945
57562W        W29987   1.916   0.000  12.221
57563W        W29988   8.398  15.735  10.681
57564W        W29989   0.610  34.980  14.159
57565W        W29990  26.818  30.906  14.340
57566W        W29991  35.519  37.912   1.797
57567W        W29992   3.491  11.733   0.761
57568W        W29993  10.075  33.490   3.900
57569W        W29994  24.605   2.951  12.024
57570W        W29995  33.980  18.714  13.181
57571W        W29996  12.996  42.370  12.184
57572W        W29997  30.489  18.761  13.412
57573W        W29998  22.957  10.535  10.621
57574W        W29999  21.424  33.464  13.498
57575W        W30000  15.234  41.460   2.861
57576W        W30001  27.540  44.472   4.745
57577W        W30002   5.780  34.178   0.342
57578W        W30003  35.379  33.671   2.829
57579W        W30004  23.758   4.372   4.601
57580W        W30005   0.554  19.974  13.901
57581W        W30006  17.828  17.199   4.130
57582W        W30007  14.935  36.360  14.237
57583W        W30008  19.088   1.829   0.478
57584W        W30009  21.730   6.761   0.638
57585W        W30010  11.269  42.562  11.527
57586W        W30011  17.355  40.503  10.742
57587W        W30012  10.825  35.315  12.478
57588W        W30013  34.475  20.461  11.439
57589W        W30014  32.602  42.394  12.849
57590W        W30015   3.357  43.743  13.500
57591W        W30016  38.609  25.625   2.683
57592W        W30017  20.253   2.983  12.013
57593W        W30018   0.699  11.351   2.934
57594W        W30019  30.096  21.675   1.675
57595W        W30020  17.025   6.395   3.278
57596W        W30021  21.890   4.043  12.414
57597W        W30022  18.092  44.317   1.877
57598W        W30023  11.581  35.323  11.090
57599W        W30024  11.204  12.327   2.300
57600W        W30025  32.772  40.103   3.544
57601W        W30026  14.886  40.991  10.708
57602W        W30027  18.597  27.543  12.856
57603W        W30028  40.462  14.617  14.507
57604W        W30029  12.096  15.203  13.272
57605W        W30030  18.671  30.160   0.532
57606W        W30031  27.898  19.886   2.792
57607W        W30032  27.025  25.543  13.325
57608W        W30033  22.611  10.872  12.456
57609W        W30034  26.797  13.340   2.283
57610W        W30035  35.006  10.371   2.023
57611W        W30036  44.651  38.815  13.015
57612W        W30037  18.159  23.498   0.919
57613W        W30038  20.774  42.552   2.873
57614W        W30039  14.224  21.802  13.884
57615W        W30040  21.124   4.643  13.274
57616W        W30041  29.479  17.623   1.851
57617W        W30042  28.992  17.694  12.013
57618W        W30043   0.915  41.004  14.272
57619W        W30044  38.247  29.080  13.236
57620W        W30045  40.703  16.679  12.622
57621W        W30046  24.829  43.904  12.572
57622W        W30047  39.937  19.063   4.508
57623W        W30048  31.197  40.815  12.707
57624W        W30049   2.393  37.323  11.875
57625W        W30050  19.641  27.005  10.325
57626W        W30051   4.178  12.572   3.888
57627W        W30052  17.671  18.289  13.405
57628W        W30053  35.573   6.182  11.348
57629W        W30054  24.118  33.474  13.925
57630W        W30055  23.755  28.096  12.494
57631W        W30056  18.089  32.820   1.837
57632W        W30057   4.499  17.222   2.640
57633W        W30058  33.950   5.419  13.370
57634W        W30059  13.671  42.415   4.421
57635W        W30060  39.365  17.564  11.539
57636W        W30061  38.099   6.419  13.072
57637W        W30062   5.654  29.812   0.879
57638W        W30063  25.389  16.537   4.733
57639W        W30064  10.888   6.181  14.319
57640W        W30065  31.528  26.688   4.085
57641W        W30066  25.954   5.362  14.813
57642W        W30067  30.627  38.337   1.853
57643W        W30068   4.266   2.435   0.418
57644W        W30069  23.169  32.080   0.811
57645W        W30070   0.761   8.187   0.323
57646W        W30071  30.566  16.621   1.738
57647W        W30072  26.384  19.638  10.652
57648W        W30073  29.257  42.958  12.511
57649W        W30074  24.334  10.654   0.730
57650W        W30075  15.070   1.152   2.090
57651W        W30076   2.670   0.057   4.304
57652W        W30077  15.331  32.463  11.072
57653W        W30078   1.680  43.967  10.846
57654W        W30079  40.798  27.878  11.440
57655W        W30080   6.844   1.369  11.076
57656W        W30081  36.486   9.274   3.533
57657W        W30082  30.417  12.178   2.626
57658W        W30083  42.365  32.174   0.470
57659W        W30084  15.864  26.372  13.665
57660W        W30085  22.225  16.117   0.519
57661W        W30086  10.192   2.342  14.079
57662W        W30087  26.244  35.443   2.631
57663W        W30088  33.478   5.197   2.144
57664W        W30089   2.934  15.089  14.933
57665W        W30090  37.738  10.244   4.515
57666W        W30091  32.419   0.714   3.790
57667W        W30092  19.967   6.787   0.703
57668W        W30093  26.396  33.996   4.561
57669W        W30094   3.272   3.762  14.438
57670W        W30095  10.347  16.174  14.769
57671W        W30096  14.556  43.938   2.390
57672W        W30097  23.207   9.965   1.490
57673W        W30098  10.245  24.935   3.338
57674W        W30099  35.873  36.916  12.010
57675W        W30100  11.614  26.676  12.038
57676W        W30101  42.759  13.671   1.727
57677W        W30102  20.468  22.551  10.650
57678W        W30103  41.775  38.814   0.236
57679W        W30104  21.744  42.200  11.442
57680W        W30105   6.134  20.656   0.933
57681W        W30106   2.035  31.055  11.130
57682W        W30107  17.070  39.762  12.545
57683W        W30108  10.319   3.316   1.265
57684W        W30109  19.291  41.930  11.110
57685W        W30110  21.121  37.769   5.185
57686W        W30111  10.813  11.403  14.716
57687W        W30112  29.556  15.082   1.907
57688W        W30113  35.421  38.978   4.771
57689W        W30114  14.947   2.789   1.889
57690W        W30115  42.466   5.903   1.398
57691W        W30116  35.989  32.262   0.545
57692W        W30117  29.933   0.524  13.629
57693W        W30118  23.160   8.135  11.780
57694W        W30119   4.826  18.557  12.910
57695W        W30120  17.357   6.249   1.330
57696W        W30121  15.011   8.662  13.993
57697W        W30122  44.721  19.674   2.124
57698W        W30123   0.736  39.834   2.128
57699W        W30124  42.410   9.804   3.405
57700W        W30125  25.113  30.050   0.324
57701W        W30126  34.111   0.282  10.620
57702W        W30127   3.468  29.571  14.281
57703W        W30128  26.201   7.935   3.295
57704W        W30129  23.771   5.311  10.996
57705W        W30130   0.405   9.639   4.320
57706W        W30131  23.710   9.065   3.384
57707W        W30132  32.462   0.659  11.119
57708W        W30133  26.896  19.560  11.425
57709W        W30134  26.609  32.596   3.276
57710W        W30135  33.110  28.216   4.901
57711W        W30136   2.343  19.100   1.773
57712W        W30137  23.237  12.643   4.029
57713W        W30138  16.042   9.841   0.866
57714W        W30139  17.084  39.482   4.667
57715W        W30140  12.157  44.792  11.678
57716W        W30141   9.900  40.474   1.753
57717W        W30142   9.774  27.702  11.970
57718W        W30143  14.409   7.336   4.146
57719W        W30144   9.224  10.262   0.798
57720W        W30145   9.297  14.717   0.200
57721W        W30146  23.488   8.580   3.119
57722W        W30147  38.817  16.764   3.640
57723W        W30148   4.674   4.647   2.939
57724W        W30149  18.043  12.469   3.109
57725W        W30150  33.372  33.974  13.564
57726W        W30151  43.193  31.376   2.689
57727W        W30152  40.621  42.724  12.536
57728W        W30153  23.501   6.667   4.115
57729W        W30154  22.060   6.311   2.708
57730W        W30155   4.804  25.316  10.457
57731W        W30156   0.744   9.875  12.978
57732W        W30157  42.249   1.661   3.539
57733W        W30158   0.475  17.483   3.247
57734W        W30159  11.682   7.693   5.332
57735W        W30160  24.122   7.222   2.138
57736W        W30161  21.681   0.924   1.396
57737W        W30162   1.316  39.220   0.234
57738W        W30163  18.402  35.945   1.390
57739W        W30164   4.309  29.130  14.148
57740W        W30165   5.270  32.344  11.037
57741W        W30166  31.351  12.873  10.637
57742W        W30167  20.211   5.227   0.866
57743W        W30168   1.306  30.075   4.030
57744W        W30169  11.415   6.286  14.327
57745W        W30170  25.872  37.410  13.626
57746W        W30171  17.029  43.989  13.998
57747W        W30172   3.467  30.632  13.122
57748W        W30173  42.008   9.620  14.364
57749W        W30174  23.948  43.778   1.844
57750W        W30175  23.224   9.187   4.828
57751W        W30176   7.693  42.342  13.596
57752W        W30177  44.701  21.263  14.528
57753W        W30178  15.664  26.224   2.880
57754W        W30179   4.790  39.316   0.799
57755W        W30180  34.037   9.838  14.031
57756W        W30181   5.404  30.936   2.217
57757W        W30182  24.199  27.302   0.787
57758W        W30183   6.971  16.113  14.340
57759W        W30184  39.708  31.350   2.753
57760W        W30185  22.711  34.128  13.503
57761W        W30186  10.119  36.703  10.093
57762W        W30187   2.982   5.261   1.196
57763W        W30188   6.591  40.374  10.913
57764W        W30189  17.144  30.617   4.983
57765W        W30190  33.656   9.849  12.138
57766W        W30191  18.612  35.587  12.079
57767W        W30192   8.229  14.526  11.035
57768W        W30193  11.667  38.282  12.424
57769W        W30194   3.241   0.005   1.539
57770W        W30195  11.886   8.333  12.376
57771W        W30196   3.335  18.236  14.161
57772W        W30197  37.590   9.882   2.270
57773W        W30198  43.925  10.837   2.147
57774W        W30199  34.397   4.369  14.994
57775W        W30200  30.565  27.092   3.413
57776W        W30201  18.328  33.890   3.881
57777W        W30202   8.437   1.804  13.446
57778W        W30203  43.809  21.694   2.542
57779W        W30204  15.853  43.979  13.496
57780W        W30205  21.474  10.091  14.761
57781W        W30206   4.850  42.291  12.233
57782W        W30207   7.681  17.150  14.793
57783W        W30208   3.773  27.508   3.400
57784W        W30209  19.099  40.007  11.533
57785W        W30210   6.994  34.011  11.501
57786W        W30211   0.950   5.263   3.849
57787W        W30212  26.615  35.152  13.882
57788W        W30213  11.603  15.527   2.222
57789W        W30214  18.715  37.326  13.889
57790W        W30215  16.708   9.930  14.973
57791W        W30216  10.718  27.931   1.428
57792W        W30217  29.483  14.429   5.111
57793W        W30218  20.253   9.075   1.108
57794W        W30219   6.673   1.127   3.875
57795W        W30220  28.652  25.211   4.135
57796W        W30221  43.824  29.660   0.999
57797W        W30222   5.550  42.774   4.946
57798W        W30223  37.381  23.929  14.448
57799W        W30224  19.308  36.839   3.541
57800W        W30225  10.226  30.231   0.892
57801W        W30226  32.159  16.238   3.719
57802W        W30227  28.441  13.790  13.471
57803W        W30228  29.377  42.923   3.688
57804W        W30229  19.613  33.068  11.380
57805W        W30230   6.855   7.638  12.593
57806W        W30231  10.533  40.801  14.054
57807W        W30232  25.947  14.661   4.597
57808W        W30233  28.981  16.843  14.385
57809W        W30234   2.382  23.997  14.453
57810W        W30235  21.083  24.484   3.897
57811W        W30236  28.886  34.952  11.573
57812W        W30237  43.324   8.774  13.587
57813W        W30238  36.694   2.867   1.420
57814W        W30239  40.409  19.088   1.508
57815W        W30240  31.100   5.949  12.349
57816W        W30241  11.845   1.409   1.986
57817W        W30242  43.382  20.794   1.068
57818W        W30243  43.396  24.012   3.597
57819W        W30244  42.607   3.011  12.533
57820W        W30245  17.061  36.328  10.768
57821W        W30246  34.002  34.431  13.952
57822W        W30247  24.216  39.801   2.569
57823W        W30248  29.539  39.056   3.286
57824W        W30249  19.993  42.524  14.706
57825W        W30250  36.506  18.273  13.799
57826W        W30251  11.367  39.812   2.337
57827W        W30252  15.880  20.520  13.079
57828W        W30253  39.810  29.109  12.046
57829W        W30254  38.326   4.127   5.020
57830W        W30255  16.712  13.947   3.298
57831W        W30256  18.004  36.922   2.727
57832W        W30257  33.434  25.777  14.905
57833W        W30258   9.532  21.681  11.632
57834W        W30259  15.654  26.126  11.383
57835W        W30260  27.543  37.626   3.792
57836W        W30261  23.336  16.312  12.127
57837W        W30262  42.499  41.032  10.623
57838W        W30263  27.377  27.921  11.527
57839W        W30264   8.114  14.155  11.497
57840W        W30265  31.657  15.896  10.310
57841W        W30266   5.564  15.807   3.855
57842W        W30267   9.721  22.777   0.780
57843W        W30268  26.059  25.991   3.739
57844W        W30269  43.574  34.362  11.033
57845W        W30270  22.373  44.214  14.468
57846W        W30271   2.364  42.062  14.340
57847W        W30272  26.495  13.140   4.148
57848W        W30273  33.646   0.728  11.203
57849W        W30274  23.967  20.550   0.593
57850W        W30275  19.888  29.554  11.108
57851W        W30276  35.331  40.552   2.328
57852W        W30277  11.662   7.186   0.238
57853W        W30278  12.268  27.967   4.665
57854W        W30279  19.012  26.701   2.899
57855W        W30280  38.838  23.979   5.065
57856W        W30281   0.347  21.386  13.997
57857W        W30282  10.018  27.516   4.101
57858W        W30283  30.717   5.684  13.559
57859W        W30284  21.226  30.383   2.765
57860W        W30285   5.683  43.533   2.902
57861W        W30286   9.718  10.007   0.116
57862W        W30287  34.446  28.709  14.978
57863W        W30288  20.644   2.968   0.143
57864W        W30289  19.281  10.659   3.831
57865W        W30290  18.290  10.327   0.315
57866W        W30291  13.632  10.220   3.341
57867W        W30292   4.784  29.587   4.487
57868W        W30293   0.662  32.686   2.390
57869W        W30294  12.111  26.736  11.228
57870W        W30295  25.287  12.313   0.683
57871W        W30296  28.468   3.719  11.527
57872W        W30297  40.168  40.295  13.564
57873W        W30298  21.433  31.451   1.011
57874W        W30299  22.004   7.242   2.413
57875W        W30300  30.052  13.388   4.577
57876W        W30301  19.102  27.215  11.626
57877W        W30302  22.688  41.272   5.195
57878W        W30303  28.867  31.472  12.352
57879W        W30304   5.733  17.028  11.536
57880W        W30305   4.280   6.828   3.759
57881W        W30306  39.891  31.973   3.604
57882W        W30307  34.545  19.299  14.044
57883W        W30308  30.304  16.075   9.943
57884W        W30309  43.485  31.603   3.133
57885W        W30310  16.050   9.160  14.386
57886W        W30311  30.509  22.991  13.972
57887W        W30312  31.965   5.783  10.729
57888W        W30313   0.317   3.170  12.833
57889W        W30314  31.203  14.266   4.602
57890W        W30315  32.076  18.805  11.926
57891W        W30316  37.373  13.308  11.581
57892W        W30317  37.350   7.110   0.244
57893W        W30318  21.259  16.263   0.940
57894W        W30319  27.761   6.859  13.456
57895W        W30320  26.679   1.787  12.539
57896W        W30321  33.106  33.146  11.533
57897W        W30322   0.376  22.970   3.813
57898W        W30323  12.370  41.558   3.974
57899W        W30324  14.678  28.959   3.596
57900W        W30325   1.316  36.841   1.354
57901W        W30326  38.575  38.013  11.633
57902W        W30327   5.724  34.570   3.381
57903W        W30328   2.223  17.296   1.472
57904W        W30329  41.118   6.847  11.308
57905W        W30330   4.379  24.553  11.552
57906W        W30331  31.846  26.350  13.480
57907W        W30332  28.607  38.571  11.920
57908W        W30333  20.261  43.736   2.275
57909W        W30334  27.205  28.459  13.995
57910W        W30335  31.030  18.299  10.707
57911W        W30336  14.920  23.655  13.577
57912W        W30337  21.541  33.394  10.791
57913W        W30338  34.567  35.528  12.790
57914W        W30339   2.822  25.287   1.433
57915W        W30340  28.535  23.422  11.337
57916W        W30341  33.579  32.468  14.780
57917W        W30342   5.587  37.489  11.159
57918W        W30343  35.841  13.252  12.512
57919W        W30344   4.652  28.581  11.016
57920W        W30345  30.564   1.048   1.276
57921W        W30346  32.896  24.694  11.599
57922W        W30347  39.841  32.877   3.585
57923W        W30348  30.189   9.527   2.322
57924W        W30349   4.174   4.162  13.979
57925W        W30350  13.198   1.933   3.538
57926W        W30351  22.697   3.802  10.934
57927W        W30352  20.865  26.601  11.997
57928W        W30353  11.586   8.608  14.250
57929W        W30354  40.914  12.889   1.332
57930W        W30355  10.946  32.012  11.535
57931W        W30356  22.727  41.846  11.282
57932W        W30357  43.391  41.033   0.366
57933W        W30358   5.425  10.068   4.135
57934W        W30359  27.976  35.316  11.974
57935W        W30360  39.472   6.888  14.141
57936W        W30361  19.683  24.721  10.726
57937W        W30362   3.580  26.923   4.307
57938W        W30363   3.921  39.410  11.273
57939W        W30364   3.344  20.539  14.194
57940W        W30365  13.644  34.461   1.987
57941W        W30366   2.703  15.080   1.721
57942W        W30367  16.537  19.637  10.375
57943W        W30368   2.532  37.720   3.168
57944W        W30369  17.664  28.081  14.357
57945W        W30370  32.148  35.607  14.322
57946W        W30371  44.531  33.136   4.095
57947W        W30372   3.974  19.072   1.772
57948W        W30373   8.634  15.552   2.635
57949W        W30374  10.598  12.060   0.272
57950W        W30375  20.362  19.992  10.751
57951W        W30376  25.838  10.409  13.256
57952W        W30377   6.401  18.075   4.200
57953W        W30378  13.515  32.995   1.594
57954W        W30379  44.815  33.318   3.129
57955W        W30380  35.581   6.901  10.559
57956W        W30381  23.252  28.729   3.772
57957W        W30382   9.788  39.479   0.495
57958W        W30383   8.592  19.178   3.171
57959W        W30384  43.023   4.449  11.572
57960W        W30385  17.643  21.033   0.862
57961W        W30386  30.690  14.737  13.461
57962W        W30387  43.837  28.357  13.533
57963W        W30388  35.094  23.395   4.569
57964W        W30389   5.959  31.406  10.683
57965W        W30390  19.765  28.075   4.407
57966W        W30391   6.067  19.699   3.148
57967W        W30392  18.053  14.700  12.862
57968W        W30393  32.015  10.751  10.685
57969W        W30394  24.008  35.372   1.334
57970W        W30395  27.669  22.756   4.257
57971W        W30396  15.151  15.321   4.173
57972W        W30397  21.166  39.356   3.791
57973W        W30398  27.642  29.717  10.884
57974W        W30399  23.808  21.005   1.224
57975W        W30400  31.469   6.159   0.465
57976W        W30401  35.655  17.959  11.906
57977W        W30402   9.877  28.504  13.414
57978W        W30403   0.737  33.396  13.823
57979W        W30404  28.196  19.014   2.847
57980W        W30405  16.994   3.446   4.912
57981W        W30406  17.153  15.621  11.643
57982W        W30407   1.356  35.538  11.194
57983W        W30408   6.148  22.758  11.714
57984W        W30409  23.078   5.811   3.811
57985W        W30410  38.486  40.940  12.886
57986W        W30411  15.850  29.228  12.888
57987W        W30412  18.409  22.180  11.857
57988W        W30413  18.746  15.486  11.943
57989W        W30414  43.598   2.370   0.562
57990W        W30415  40.938   3.004   1.903
57991W        W30416  40.754  36.539  14.365
57992W        W30417  32.560  43.454   2.638
57993W        W30418  42.106  42.853  11.163
57994W        W30419  36.539   0.632   2.444
57995W        W30420  36.985  41.953  14.953
57996W        W30421   0.471  38.233  11.104
57997W        W30422  39.824   1.002   0.421
57998W        W30423  37.077   9.782   3.094
57999W        W30424  29.609  43.793  14.463
58000W        W30425   0.350   9.649   4.839
58001W        W30426  31.550  26.226   1.640
58002W        W30427  44.473  40.457   1.274
58003W        W30428  42.813  28.296   1.411
58004W        W30429   3.223  19.072   0.223
58005W        W30430  22.125  39.535   0.267
58006W        W30431  37.321  13.412  12.432
58007W        W30432  30.229  42.115   1.819
58008W        W30433   7.421   0.564  13.935
58009W        W30434  26.436  17.363   4.142
58010W        W30435  31.544   2.807   3.935
58011W        W30436  37.440  43.205  13.772
58012W        W30437  43.862  23.732  13.874
58013W        W30438  28.218  42.725  14.060
58014W        W30439  18.392   2.881  14.488
58015W        W30440  20.317   5.400  12.037
58016W        W30441  37.288  17.225  12.920
58017W        W30442  27.532   0.458  11.023
58018W        W30443  29.941  13.315   3.123
58019W        W30444  22.081  23.541   4.595
58020W        W30445  28.406   6.200  13.117
58021W        W30446  31.514   9.892   2.371
58022W        W30447   7.251  18.752   0.250
58023W        W30448   2.520  11.564  13.361
58024W        W30449  41.751  11.547   0.904
58025W        W30450  25.214  29.074   3.272
58026W        W30451  43.015  10.779  12.012
58027W        W30452  41.114  34.186   0.368
58028W        W30453  30.558  17.477   4.601
58029W        W30454  23.467  15.431  13.571
58030W        W30455  16.748  15.554  11.059
58031W        W30456  24.671  35.874   0.983
58032W        W30457  17.900  15.302   0.013
58033W        W30458  15.563  10.913   4.162
58034W        W30459  34.897  11.891  13.332
58035W        W30460  34.607   3.869   2.247
58036W        W30461   7.819  20.918  12.419
58037W        W30462  34.138  26.020  13.109
58038W        W30463  13.204  38.762   0.307
58039W        W30464  24.586   9.107  13.879
58040W        W30465   5.686   5.144  14.365
58041W        W30466  16.137  37.871   2.213
58042W        W30467   8.110   0.016  13.963
58043W        W30468  41.154  31.035   1.274
58044W        W30469  28.523   8.745   0.604
58045W        W30470  37.979  28.543   2.300
58046W        W30471  29.459  41.003  10.392
58047W        W30472   5.586  35.149   0.019
58048W        W30473  36.483  43.291   3.866
58049W        W30474  17.986  22.573  12.572
58050W        W30475   6.153  13.004  10.768
58051W        W30476  13.886   6.237   3.098
58052W        W30477  29.936  18.459   0.727
58053W        W30478  43.906   8.603   2.582
58054W        W30479  44.303  42.778   3.184
58055W        W30480  30.711  41.160  12.035
58056W        W30481  38.933   9.873  14.025
58057W        W30482  12.911  35.178  12.524
58058W        W30483  32.126  39.231  13.315
58059W        W30484  24.409  10.521   2.368
58060W        W30485  40.304  17.074   2.834
58061W        W30486   6.686  41.361  13.505
58062W        W30487  32.198  43.919   4.780
58063W        W30488   4.641  29.083  11.220
58064W        W30489  12.113  33.399  10.574
58065W        W30490  11.951   5.516  11.596
58066W        W30491   2.720  21.664   3.579
58067W        W30492  33.923  21.305   1.461
58068W        W30493  30.715  34.426  11.382
58069W        W30494  25.889  28.315  11.147
58070W        W30495   3.308  16.862   3.780
58071W        W30496  42.369  14.845   3.688
58072W        W30497  34.855  41.341  10.763
58073W        W30498   1.276  15.241  13.499
58074W        W30499  44.428  33.879  11.870
58075W        W30500   5.273  43.985   1.708
58076W        W30501  10.662  21.221   3.158
58077W        W30502   5.301  43.211   2.354
58078W        W30503  31.005  12.087  10.671
58079W        W30504   0.920  26.043  13.530
58080W        W30505  25.178  20.704  12.106
58081W        W30506  17.107  39.779  10.496
58082W        W30507  28.123   2.652  10.988
58083W        W30508   1.944  21.851   1.990
58084W        W30509  35.028  41.086  13.966
58085W        W30510  25.766  22.084   3.635
58086W        W30511  21.527  23.018   4.189
58087W        W30512  26.799  40.826  12.055
58088W        W30513  38.852   2.138   3.318
58089W        W30514  31.325   1.416   2.953
58090W        W30515  24.007   8.183   0.935
58091W        W30516  44.724  39.075   2.698
58092W        W30517  42.956  33.348  12.925
58093W        W30518  43.339  41.306  10.791
58094W        W30519  14.298  11.639  10.686
58095W        W30520  37.313  20.305  12.414
58096W        W30521  17.845  22.177   4.385
58097W        W30522  24.697  10.981   9.398
58098W        W30523  30.866  12.354   2.481
58099W        W30524  40.731   5.652  13.930
58100W        W30525  20.247  21.543  10.639
58101W        W30526   8.883  37.354   5.474
58102W        W30527  34.515  44.888  10.722
58103W        W30528  14.228  26.713   3.373
58104W        W30529  26.483  14.148  12.939
58105W        W30530  11.306   5.767   3.574
58106W        W30531   9.349  36.530  11.496
58107W        W30532  21.193   1.165  14.041
58108W        W30533  14.889   7.340   0.038
58109W        W30534  23.175   8.410   0.841
58110W        W30535  36.353  42.506  13.388
58111W        W30536  11.617   5.462   3.243
58112W        W30537  37.447   1.464  12.610
58113W        W30538   8.863  35.849   4.120
58114W        W30539  26.152  38.606  14.134
58115W        W30540  30.337  25.173   1.396
58116W        W30541   6.047  22.875   1.227
58117W        W30542  25.907  42.827  13.476
58118W        W30543   3.271  11.799  13.798
58119W        W30544  20.797  22.247   4.723
58120W        W30545  38.723  11.175   3.728
58121W        W30546  14.327   5.383   1.240
58122W        W30547   4.998  16.168  10.513
58123W        W30548   3.424  14.867  13.875
58124W        W30549  33.451  30.169   0.418
58125W        W30550  19.510   9.192  12.981
58126W        W30551   8.986  20.498   2.335
58127W        W30552  21.968  31.448   2.985
58128W        W30553  35.716  25.929   3.295
58129W        W30554   1.783  40.108  11.140
58130W        W30555   5.825  24.929  12.903
58131W        W30556  11.917  23.483  12.900
58132W        W30557  10.234  37.882   4.552
58133W        W30558  38.965  22.718   5.094
58134W        W30559  42.489   4.891  10.761
58135W        W30560   7.805  12.629   0.879
58136W        W30561  15.990  32.705  11.599
58137W        W30562   7.226   5.275   2.223
58138W        W30563  32.603  28.618  10.649
58139W        W30564  33.972  24.753  13.059
58140W        W30565  10.014   2.078  11.090
58141W        W30566   9.847  40.627  11.190
58142W        W30567  27.589  11.374   1.842
58143W        W30568  11.723  30.432   2.389
58144W        W30569  25.978  15.806  13.247
58145W        W30570   3.859  34.497  14.765
58146W        W30571  44.696  34.560  12.389
58147W        W30572  39.417   9.736   2.211
58148W        W30573  37.933  24.753  11.082
58149W        W30574  38.376  22.292   2.205
58150W        W30575  38.074  32.159   1.473
58151W        W30576  19.135   8.457   0.527
58152W        W30577  13.820  37.562  11.156
58153W        W30578   7.214  30.621  11.441
58154W        W30579   8.549  38.913   2.028
58155W        W30580  34.292   9.983   1.654
58156W        W30581  41.800  15.276  10.803
58157W        W30582  14.355  25.470  13.989
58158W        W30583  39.229  26.732   2.211
58159W        W30584  27.479   8.338  14.436
58160W        W30585   1.204  20.724  13.135
58161W        W30586  44.805   0.763  13.881
58162W        W30587  12.758  12.655   1.763
58163W        W30588   1.868   5.223   2.952
58164W        W30589   3.887   8.886  12.610
58165W        W30590  44.927   5.809  13.014
58166W        W30591   8.341  35.605  14.909
58167W        W30592  11.818  28.035  11.480
58168W        W30593  33.504  31.667   2.808
58169W        W30594  14.272  31.971  10.023
58170W        W30595  21.121  41.778  10.679
58171W        W30596  18.749  42.069  13.184
58172W        W30597   5.316  38.320  12.112
58173W        W30598  35.119  24.062  10.582
58174W        W30599  13.595  42.856   3.798
58175W        W30600  33.403  23.313  12.379
58176W        W30601  38.088  38.563   1.684
58177W        W30602   4.871  18.260  11.416
58178W        W30603  23.251  13.995  10.504
58179W        W30604  21.162  35.862  12.113
58180W        W30605   6.724  16.486   0.194
58181W        W30606  24.335  40.896  12.970
58182W        W30607  24.816   7.384  11.883
58183W        W30608  36.541  36.996   3.121
58184W        W30609  12.715   0.971  11.039
58185W        W30610   7.750  13.760  10.777
58186W        W30611  24.184  43.758  14.806
58187W        W30612   6.015  43.359  13.906
58188W        W30613  17.626  41.380   4.498
58189W        W30614  13.625  17.641   1.804
58190W        W30615  14.263  44.977   1.711
58191W        W30616   8.469   3.326  12.818
58192W        W30617   1.100   4.292  12.959
58193W        W30618  26.978   2.233   0.182
58194W        W30619   4.432  10.123   3.278
58195W        W30620  23.510  34.642  11.150
58196W        W30621  29.854  10.897  12.902
58197W        W30622  19.450  15.328  12.070
58198W        W30623   6.813  14.342  12.540
58199W        W30624  36.370   0.602  14.967
58200W        W30625  16.507   0.737   4.196
58201W        W30626  14.374  40.458   0.390
58202W        W30627  30.468  38.472  13.200
58203W        W30628  18.342  17.761  13.030
58204W        W30629  10.319  44.681   0.640
58205W        W30630  38.576  32.548  14.778
58206W        W30631   2.902   0.390  11.538
58207W        W30632  34.407  33.496  12.949
58208W        W30633  37.024  30.973   4.444
58209W        W30634  39.605   4.695   3.108
58210W        W30635  35.092  33.607  10.730
58211W        W30636   9.256   9.962  14.848
58212W        W30637  16.789  12.364  11.512
58213W        W30638  23.989   3.451   4.388
58214W        W30639  28.712   4.355  12.936
58215W        W30640  19.751  26.472  14.352
58216W        W30641  11.280  11.620  14.541
58217W        W30642   9.634  32.931  13.912
58218W        W30643   5.803  14.175  14.431
58219W        W30644  32.257  16.495   9.959
58220W        W30645  26.534   1.473  11.136
58221W        W30646  37.947  15.310   2.190
58222W        W30647   3.644  35.798   0.756
58223W        W30648  23.018   3.056  12.823
58224W        W30649   4.872  29.755  13.517
58225W        W30650   1.103  39.403  13.871
58226W        W30651  41.921  39.248   1.560
58227W        W30652  20.111  43.387  12.643
58228W        W30653  33.143  42.805  12.170
58229W        W30654  13.163  26.744   2.394
58230W        W30655  15.526  31.884  10.344
58231W        W30656  26.311  14.717  12.067
58232W        W30657  14.318  18.687  14.469
58233W        W30658  33.069   3.783  12.859
58234W        W30659   6.357  26.450  13.507
58235W        W30660   1.263  14.748  13.366
58236W        W30661   2.647  27.942   2.456
58237W        W30662   5.977  20.008  11.029
58238W        W30663  14.695  30.194   0.948
58239W        W30664  23.607  32.549   1.204
58240W        W30665  18.674  31.425  13.564
58241W        W30666   7.681  42.778   1.853
58242W        W30667  24.749  26.292  13.866
58243W        W30668  23.940   9.954  12.189
58244W        W30669   2.254   2.275  12.541
58245W        W30670  32.857  24.124  11.203
58246W        W30671  43.999  20.122  14.043
58247W        W30672  36.895  22.295  13.854
58248W        W30673   4.922  28.359  11.880
58249W        W30674  19.128  21.093   0.061
58250W        W30675  19.552  24.438   1.856
58251W        W30676  30.985  35.109   4.819
58252W        W30677  43.108  19.016  12.875
58253W        W30678   8.456  18.526   0.905
58254W        W30679   7.193  43.228  11.864
58255W        W30680  43.299  21.337   1.168
58256W        W30681   8.902  12.667  11.559
58257W        W30682  42.109   4.448  14.380
58258W        W30683  21.647  10.617  14.825
58259W        W30684  34.869   3.173  12.453
58260W        W30685   1.416  41.441   2.422
58261W        W30686  32.186  23.330  13.124
58262W        W30687  19.218  41.452  14.079
58263W        W30688   8.787  28.003  14.790
58264W        W30689  11.908  13.280   1.470
58265W        W30690  36.379  32.372  14.342
58266W        W30691  37.332  13.890  12.632
58267W        W30692   1.319   6.464  13.923
58268W        W30693  24.002  43.460   0.694
58269W        W30694   4.709  26.417  12.636
58270W        W30695  24.919  20.594  14.637
58271W        W30696  16.786   3.331   1.678
58272W        W30697  27.931  34.470   2.817
58273W        W30698  26.473  36.539  12.851
58274W        W30699   5.921   5.800   0.412
58275W        W30700  27.043  32.862  13.906
58276W        W30701  26.460  29.520   3.775
58277W        W30702  40.951  23.745  13.003
58278W        W30703  33.511  42.589   2.483
58279W        W30704  30.617  25.964  11.080
58280W        W30705  36.033  40.361   1.147
58281W        W30706  39.878  18.021   1.429
58282W        W30707   5.908  36.182  12.383
58283W        W30708  31.951  15.107  14.842
58284W        W30709  38.484  10.686  14.824
58285W        W30710  43.719  26.172   3.316
58286W        W30711  33.994  29.516  11.484
58287W        W30712  12.291  14.670   0.361
58288W        W30713  31.991  31.592   0.773
58289W        W30714   9.486  10.415   2.703
58290W        W30715  40.397  27.210  14.357
58291W        W30716  24.756  36.412   4.543
58292W        W30717  15.563  34.604  14.569
58293W        W30718  32.574  16.093   2.859
58294W        W30719  33.908   8.638   1.937
58295W        W30720   1.972  20.087   4.128
58296W        W30721  22.815  40.418   0.271
58297W        W30722   4.537  10.223  13.511
58298W        W30723  36.138   6.157  12.133
58299W        W30724   0.449  37.285   3.435
58300W        W30725  35.881  25.344  14.341
58301W        W30726   0.495  31.926   2.762
58302W        W30727  38.072  24.862  12.742
58303W        W30728  25.379  11.271  12.760
58304W        W30729  10.433  10.228   1.295
58305W        W30730   6.596  21.132  14.894
58306W        W30731  43.957  25.535  11.282
58307W        W30732  39.007  26.984  13.434
58308W        W30733  26.600  31.364  11.613
58309W        W30734  18.562  16.878   2.089
58310W        W30735  28.346  37.689   0.023
58311W        W30736   6.842  23.638  10.464
58312W        W30737  24.240  17.712   3.243
58313W        W30738   1.543  21.779   0.482
58314W        W30739  22.511  20.685   0.540
58315W        W30740  30.888  22.170   3.648
58316W        W30741  12.756   6.133   4.222
58317W        W30742  31.344  43.321   1.364
58318W        W30743  12.639  13.915   4.099
58319W        W30744   7.857  13.871   9.973
58320W        W30745  17.094   9.335  10.836
58321W        W30746  11.171  15.979  13.610
58322W        W30747  17.733  39.321  14.084
58323W        W30748  28.091   2.917  11.811
58324W        W30749  31.228  42.956  14.281
58325W        W30750   1.864  32.580   3.210
58326W        W30751  27.137  13.742  13.855
58327W        W30752  21.844  25.023   2.404
58328W        W30753   2.377   8.619  13.368
58329W        W30754  17.217  28.206   0.356
58330W        W30755  40.815  17.329   1.237
58331W        W30756  29.213  43.921  12.193
58332W        W30757  31.692   1.112  13.499
58333W        W30758   9.258  40.981  13.801
58334W        W30759  11.987  26.587   3.621
58335W        W30760  15.869  29.039   0.795
58336W        W30761  26.535  13.171  14.358
58337W        W30762  20.966   6.388   2.145
58338W        W30763  43.289  17.284  13.991
58339W        W30764  17.318  27.810   3.621
58340W        W30765  29.112  28.184   3.391
58341W        W30766   6.966   1.123  11.552
58342W        W30767  18.778  15.699   3.574
58343W        W30768  28.098  21.666  14.836
58344W        W30769   8.083   7.307   2.318
58345W        W30770  18.380  26.276  12.223
58346W        W30771  30.564  40.876  10.429
58347W        W30772  42.785  35.891  13.444
58348W        W30773   8.171  39.253   1.393
58349W        W30774  28.281  10.030   0.226
58350W        W30775  28.201  27.583   4.742
58351W        W30776  10.145  13.301  13.318
58352W        W30777  21.052   1.406  14.468
58353W        W30778  31.515  18.606   1.498
58354W        W30779   5.799  31.733  13.576
58355W        W30780   9.718  11.205  12.040
58356W        W30781  17.768  12.644  11.135
58357W        W30782  26.038   3.572   4.917
58358W        W30783  23.996  21.075  12.892
58359W        W30784   8.233   3.610   1.917
58360W        W30785  26.431  42.275   1.059
58361W        W30786   1.976  31.078   4.091
58362W        W30787  24.128   2.470  14.287
58363W        W30788  28.957   4.521   1.977
58364W        W30789  42.110  13.693   2.361
58365W        W30790  11.089  38.310  12.923
58366W        W30791  19.013  12.728   1.448
58367W        W30792  22.131  19.838   2.465
58368W        W30793  18.051  29.855  12.948
58369W        W30794  39.863  35.981  12.852
58370W        W30795  32.085   7.805   2.310
58371W        W30796  15.129  24.994  11.618
58372W        W30797  44.436  13.600  12.919
58373W        W30798  42.956   4.431  14.005
58374W        W30799  18.605  15.095  14.463
58375W        W30800  30.007  34.836  12.436
58376W        W30801  44.665  12.206   0.914
58377W        W30802  14.990  40.596  11.210
58378W        W30803  24.434   2.041   3.325
58379W        W30804  22.752  28.920  14.481
58380W        W30805  25.484  34.058   4.463
58381W        W30806  22.742   8.407  11.670
58382W        W30807  31.924  20.509  12.955
58383W        W30808  10.462  41.972  11.511
58384W        W30809  12.957  44.623   9.934
58385W        W30810  37.597  29.490   1.500
58386W        W30811  10.575   8.329   3.310
58387W        W30812   7.474  22.195  13.823
58388W        W30813  34.050   2.784  12.496
58389W        W30814  40.108  31.649   1.732
58390W        W30815   3.790   2.285  13.085
58391W        W30816   6.879   8.582   3.658
58392W        W30817  32.135  35.814  10.149
58393W        W30818  23.160  18.500   2.253
58394W        W30819  39.852  26.740  13.061
58395W        W30820  36.573  36.967  13.772
58396W        W30821   7.774  26.537  13.810
58397W        W30822   6.911   0.962   4.872
58398W        W30823   6.751  30.495   1.180
58399W        W30824   6.102  18.326   4.579
58400W        W30825   3.178  16.026   4.153
58401W        W30826  24.004  30.423  12.584
58402W        W30827  11.028  40.111   1.468
58403W        W30828   1.726   6.316   0.279
58404W        W30829  13.782  44.940   4.534
58405W        W30830  29.044  11.128   1.159
58406W        W30831   9.846   2.990  12.083
58407W        W30832  27.040  39.759   3.846
58408W        W30833  28.867   8.389   0.941
58409W        W30834   5.412  36.350  13.995
58410W        W30835   6.342  27.916   2.583
58411W        W30836  38.802  30.969  12.504
58412W        W30837   3.315  29.449   0.913
58413W        W30838  28.237  19.691  14.876
58414W        W30839  11.996  31.348  13.254
58415W        W30840  42.106   2.182   3.723
58416W        W30841  12.105  25.702   4.191
58417W        W30842  37.078  28.499  14.493
58418W        W30843   6.018  32.451   2.252
58419W        W30844   9.309  39.488  10.736
58420W        W30845  29.511  24.890   5.005
58421W        W30846  14.995  29.375   4.445
58422W        W30847  12.665  34.093  11.418
58423W        W30848  40.480  27.573  13.012
58424W        W30849  13.714  21.436  12.812
58425W        W30850  43.728   2.361   1.087
58426W        W30851   0.349   6.177  13.387
58427W        W30852  39.999  26.698  11.988
58428W        W30853  11.265  16.629  14.890
58429W        W30854  34.993   0.103  11.616
58430W        W30855  36.928   2.299   4.917
58431W        W30856  24.097  37.529   5.191
58432W        W30857  12.562  39.402   0.826
58433W        W30858   0.800   5.204  11.872
58434W        W30859  38.997  39.815  11.663
58435W        W30860  22.501  44.741   4.765
58436W        W30861  18.633  12.220   1.597
58437W        W30862  21.008   7.268  14.998
58438W        W30863  36.247   9.382  11.580
58439W        W30864  35.007  42.804   1.306
58440W        W30865   2.842   2.200   0.026
58441W        W30866  32.145  33.413  13.402
58442W        W30867  29.632   6.623   4.075
58443W        W30868   6.192  37.050   0.719
58444W        W30869  36.468  28.946  12.633
58445W        W30870   0.996  16.044   2.348
58446W        W30871  17.493  34.401   3.903
58447W        W30872  16.187  41.875  12.409
58448W        W30873  31.551  30.816   3.343
58449W        W30874  31.111  12.435   1.754
58450W        W30875  41.883  15.933   4.943
58451W        W30876  30.712  28.060   3.747
58452W        W30877  44.773  20.250  10.846
58453W        W30878   2.418  17.741  11.237
58454W        W30879  32.409  43.018   0.476
58455W        W30880  14.632  25.462  12.160
58456W        W30881  17.909  10.843   2.495
58457W        W30882   3.016  27.636   4.290
58458W        W30883  26.851   8.799  13.277
58459W        W30884   4.595  10.631  10.421
58460W        W30885  20.030  35.137  12.549
58461W        W30886  35.377  43.731   3.654
58462W        W30887  28.580  33.402   0.409
58463W        W30888   7.975  43.723   3.723
58464W        W30889  40.706  18.799   0.170
58465W        W30890  17.854  18.769   1.248
58466W        W30891  41.867   8.706   3.551
58467W        W30892   8.212  36.369   4.592
58468W        W30893  15.663   0.483  13.943
58469W        W30894   5.269   5.343   1.697
58470W        W30895  28.406   8.460  13.570
58471W        W30896  40.388  31.108   2.294
58472W        W30897  34.834  19.076   4.664
58473W        W30898  13.172  26.924  11.875
58474W        W30899  22.567  40.745  13.380
58475W        W30900  28.584   6.646  11.944
58476W        W30901  43.806  16.016   1.480
58477W        W30902  33.014  22.986  11.678
58478W        W30903  33.496  21.853  12.870
58479W        W30904  26.731  32.318  14.420
58480W        W30905  43.921  42.908  11.243
58481W        W30906  30.982  20.167  11.398
58482W        W30907  14.729  12.926  10.437
58483W        W30908  41.386   8.211   2.873
58484W        W30909   7.451  10.996  14.328
58485W        W30910  14.881   5.841  11.437
58486W        W30911   6.952  18.297  14.823
58487W        W30912  27.261  39.942  14.251
58488W        W30913  30.976  11.321  12.585
58489W        W30914  40.358   1.847   0.293
58490W        W30915  18.611  29.606   4.069
58491W        W30916   3.750  14.077   3.123
58492W        W30917  41.534  15.822  10.923
58493W        W30918   2.725  30.339   4.253
58494W        W30919  13.192  28.158  12.615
58495W        W30920  24.611  34.871   0.138
58496W        W30921  19.765  21.985   2.855
58497W        W30922  24.749  13.206  13.819
58498W        W30923   7.650  19.328   4.576
58499W        W30924   9.861  31.860   4.663
58500W        W30925  39.046  42.728  10.679
58501W        W30926   9.137  27.183   0.342
58502W        W30927   7.240   0.597  12.189
58503W        W30928   7.422   6.847   1.646
58504W        W30929  28.454   7.825  12.900
58505W        W30930  16.317   0.364  10.213
58506W        W30931  40.046   1.614  14.825
58507W        W30932  40.365  38.538  13.270
58508W        W30933  44.300  27.605  13.291
58509W        W30934  11.885   6.773  11.859
58510W        W30935  43.879  42.618  14.951
58511W        W30936   4.099  30.435  11.554
58512W        W30937  26.638  41.091   0.311
58513W        W30938   1.800  39.039  11.958
58514W        W30939   8.177   4.970  14.097
58515W        W30940  26.622   8.803  13.720
58516W        W30941   5.407  20.777   1.626
58517W        W30942  38.196  14.620  12.114
58518W        W30943  12.303  32.705   0.654
58519W        W30944  34.866  35.939  14.969
58520W        W30945  26.600  35.576  12.568
58521W        W30946  28.446  20.102   1.469
58522W        W30947   0.253  41.783   0.881
58523W        W30948   0.678   2.937   2.757
58524W        W30949   6.404  17.837  14.259
58525W        W30950  36.417  14.402   4.924
58526W        W30951  11.970  34.575   3.781
58527W        W30952  39.706  38.142   1.193
58528W        W30953  35.625  23.255   4.670
58529W        W30954  20.170   6.444  11.436
58530W        W30955  26.264  39.954   0.709
58531W        W30956  43.037  13.194   1.809
58532W        W30957  29.851  33.603  13.021
58533W        W30958  17.676  29.434  13.443
58534W        W30959  30.605  23.523  13.997
58535W        W30960  23.446   8.503  11.054
58536W        W30961  25.615  15.345  10.963
58537W        W30962  18.663  34.887  12.564
58538W        W30963  18.007  25.860   1.532
58539W        W30964  11.202  14.113   2.860
58540W        W30965  41.205   1.816  10.987
58541W        W30966  29.221  19.132  14.051
58542W        W30967  16.195  42.900  10.752
58543W        W30968  28.039   4.327   3.423
58544W        W30969   8.472  30.493   0.503
58545W        W30970   4.313   1.469   2.313
58546W        W30971   1.324  10.309   4.324
58547W        W30972  41.080   1.410   2.886
58548W        W30973  35.114  27.709  12.452
58549W        W30974  27.045   6.883  14.370
58550W        W30975  31.864  32.138   2.258
58551W        W30976  18.153  15.281   4.058
58552W        W30977  29.636  17.796  10.975
58553W        W30978  15.925   0.935  10.642
58554W        W30979  10.298  22.787   0.393
58555W        W30980  18.585   0.234   2.656
58556W        W30981  28.151  27.277  11.371
58557W        W30982   5.460  21.376  14.382
58558W        W30983  14.138  36.922   0.471
58559W        W30984  21.520  36.707   0.148
58560W        W30985  29.890  44.981  11.446
58561W        W30986   1.406  14.842  11.234
58562W        W30987  23.856  15.600  11.409
58563W        W30988  38.787   5.656   1.836
58564W        W30989  38.669  38.450   4.811
58565W        W30990  14.227  10.433   0.519
58566W        W30991  14.208  24.034  14.418
58567W        W30992   7.960  43.393  12.490
58568W        W30993  16.579  34.958  12.294
58569W        W30994  41.640  18.092  11.454
58570W        W30995  40.718   0.017  12.379
58571W        W30996  20.047   5.657  10.253
58572W        W30997  23.693  31.169   3.264
58573W        W30998  32.113   9.955  12.072
58574W        W30999  16.796  25.814   2.134
58575W        W31000  40.293  13.562   2.682
58576W        W31001  39.724  30.003  12.174
58577W        W31002  21.141   5.421  10.796
58578W        W31003  24.129  33.441   4.152
58579W        W31004   4.314  11.293   2.461
58580W        W31005  41.781  10.186  11.184
58581W        W31006  19.974   7.729   2.612
58582W        W31007  15.564  21.777  13.961
58583W        W31008  21.476  28.880   4.583
58584W        W31009  24.257  24.410  12.382
58585W        W31010  39.852   1.409  14.377
58586W        W31011  13.361  43.091  11.210
58587W        W31012  28.846  13.263  14.418
58588W        W31013  31.169  31.672   3.377
58589W        W31014  43.259  25.251   2.891
58590W        W31015  31.146  13.620   0.997
58591W        W31016  23.430  20.243   2.136
58592W        W31017   8.832  17.538  12.510
58593W        W31018  34.561  14.638   2.648
58594W        W31019  33.738   0.662   1.932
58595W        W31020  39.905  21.092  14.814
58596W        W31021  19.144  10.901   1.863
58597W        W31022  34.939  34.576  10.492
58598W        W31023  27.151  29.153  13.567
58599W        W31024  10.625  26.619  13.501
58600W        W31025  17.685  36.568   4.084
58601W        W31026  17.578  19.331  14.872
58602W        W31027  17.187  18.724  12.934
58603W        W31028  19.528  29.661  11.481
58604W        W31029   5.696  16.647  11.992
58605W        W31030   0.436   2.053   2.213
58606W        W31031  23.006  41.572   0.849
58607W        W31032  44.430  38.585   3.690
58608W        W31033  25.723  33.837  10.728
58609W        W31034   2.448   2.922   3.587
58610W        W31035   7.382   5.293  11.587
58611W        W31036   7.773  27.437   1.087
58612W        W31037  18.842  13.166  11.194
58613W        W31038  37.563  24.149   2.608
58614W        W31039   1.384  19.348  13.190
58615W        W31040  21.110  31.017  10.912
58616W        W31041  17.220  33.107   2.348
58617W        W31042  35.098  25.737   4.533
58618W        W31043  22.695  36.069   4.996
58619W        W31044  21.324  17.762   1.241
58620W        W31045  20.148  27.381   2.749
58621W        W31046  22.589   9.867   4.338
58622W        W31047  30.192  15.528  14.919
58623W        W31048  17.852   3.454  13.537
58624W        W31049  44.326  43.782  10.481
58625W        W31050   6.275   1.886   4.009
58626W        W31051  22.233  32.378   0.329
58627W        W31052  38.508  15.721   4.111
58628W        W31053  38.011  39.708   1.114
58629W        W31054  12.786  26.637   4.625
58630W        W31055  32.454  38.113   2.893
58631W        W31056   4.516  30.507   4.675
58632W        W31057  44.195  33.902   4.519
58633W        W31058   1.177  12.172  14.261
58634W        W31059  33.086   4.080   0.237
58635W        W31060  30.211  36.260  12.444
58636W        W31061   1.734  12.425   3.761
58637W        W31062  39.728  35.844  11.599
58638W        W31063  26.483  29.080   3.168
58639W        W31064  35.798  41.493   0.044
58640W        W31065  13.587   5.892  11.537
58641W        W31066   1.185  20.180  12.515
58642W        W31067  21.788  16.305  10.723
58643W        W31068   9.093  39.936   4.408
58644W        W31069   9.236  30.637  13.449
58645W        W31070  22.030  13.165   0.025
58646W        W31071  25.593  36.338  11.578
58647W        W31072   6.444   5.909  10.252
58648W        W31073  32.333  20.028   1.846
58649W        W31074  30.065  25.310   0.538
58650W        W31075  10.754  15.276   2.267
58651W        W31076  13.200  29.099  12.779
58652W        W31077  13.296  36.305  13.637
58653W        W31078  41.540  28.630  14.395
58654W        W31079  26.698  32.978  11.994
58655W        W31080  40.601  33.078  13.960
58656W        W31081  14.693   3.449  14.520
58657W        W31082  24.764  34.423  13.527
58658W        W31083   6.482  23.704   5.116
58659W        W31084  20.028  35.347  11.526
58660W        W31085  39.237  39.963  14.327
58661W        W31086  42.236   7.785   2.198
58662W        W31087   2.375  26.999  10.970
58663W        W31088  41.787  44.815  10.387
58664W        W31089  38.042  11.730  12.468
58665W        W31090  14.149   4.093  10.554
58666W        W31091  35.842  10.804   1.978
58667W        W31092   5.013  42.850  11.506
58668W        W31093   9.734  22.024   0.363
58669W        W31094  36.029  18.602  12.989
58670W        W31095  35.102  13.076  13.997
58671W        W31096  26.909  21.080   2.297
58672W        W31097  12.317  34.334   4.085
58673W        W31098  19.632  43.486   0.714
58674W        W31099  43.289  18.305  12.946
58675W        W31100  33.073  14.196  10.926
58676W        W31101  16.586  18.611   0.904
58677W        W31102  21.329  28.449  12.061
58678W        W31103  32.295  41.277   0.376
58679W        W31104  36.281   9.339   2.547
58680W        W31105  11.759   0.200   9.912
58681W        W31106  29.887  11.723  11.884
58682W        W31107   6.797  25.519  13.086
58683W        W31108  23.738  20.632   1.960
58684W        W31109  21.651  30.118  11.090
58685W        W31110  33.067  15.880   2.854
58686W        W31111  26.438  43.860  10.735
58687W        W31112   1.467  30.041  14.087
58688W        W31113  23.003  27.288  12.896
58689W        W31114  36.830   5.697  11.243
58690W        W31115  13.336  10.459  11.467
58691W        W31116  29.935   0.159  10.956
58692W        W31117  16.634  31.976  13.516
58693W        W31118  25.451  38.998   4.054
58694W        W31119   3.236   2.364  13.945
58695W        W31120  38.534  41.836   2.385
58696W        W31121  38.381   6.313   2.641
58697W        W31122  26.733  17.114  12.458
58698W        W31123   0.363  22.003  12.137
58699W        W31124  19.225  22.582  14.915
58700W        W31125  22.634  27.744  10.178
58701W        W31126  32.091  39.264   4.092
58702W        W31127  20.541   1.504  11.553
58703W        W31128   8.678  30.845   0.183
58704W        W31129  14.293  26.586  10.565
58705W        W31130  30.195  33.201   3.925
58706W        W31131   0.402  24.703   3.131
58707W        W31132  41.504  29.929  12.469
58708W        W31133  29.220  29.795   3.712
58709W        W31134  15.601  25.121   3.858
58710W        W31135  44.783  12.704   0.210
58711W        W31136  28.652  34.976   2.368
58712W        W31137  40.387  30.060   0.966
58713W        W31138  24.454  11.102  12.380
58714W        W31139  29.179  33.455   3.103
58715W        W31140  42.754   2.462  11.559
58716W        W31141  33.485   6.941   2.829
58717W        W31142  30.025  10.628  14.066
58718W        W31143  23.770  34.915   4.922
58719W        W31144  38.395   3.257   3.692
58720W        W31145  27.913  15.394   4.981
58721W        W31146  16.490  18.890   0.472
58722W        W31147   5.396   9.244  11.188
58723W        W31148  11.560   0.585  11.201
58724W        W31149  12.668   0.306   1.812
58725W        W31150  33.398  34.834   4.219
58726W        W31151  17.440  35.536   2.195
58727W        W31152  38.349   5.671   1.318
58728W        W31153   2.527   9.842  12.495
58729W        W31154   2.221  35.001   3.834
58730W        W31155   0.538   9.171   4.155
58731W        W31156  14.537  12.681   3.159
58732W        W31157  33.422  17.770  11.505
58733W        W31158  26.696  10.824  14.725
58734W        W31159  19.557  16.844   2.838
58735W        W31160  39.318  43.422  13.064
58736W        W31161   5.174  11.700  12.572
58737W        W31162  37.122  23.354   0.563
58738W        W31163  22.147  27.132   3.496
58739W        W31164  16.806   2.341  12.640
58740W        W31165  17.280  17.832   0.800
58741W        W31166  33.025  14.545  11.698
58742W        W31167  43.803  20.481   4.662
58743W        W31168  24.979  28.107  14.374
58744W        W31169  42.090  15.631   4.572
58745W        W31170  38.041  29.470  10.567
58746W        W31171   3.999  10.281   0.240
58747W        W31172   9.678   8.593  11.517
58748W        W31173  36.297  13.654   2.425
58749W        W31174  20.312   1.461   1.776
58750W        W31175  36.643  32.693   0.929
58751W        W31176  33.118  40.452  10.685
58752W        W31177  24.446  21.543   3.629
58753W        W31178  11.185   0.425   0.959
58754W        W31179  30.726  38.246   3.059
58755W        W31180   9.973  42.889   0.174
58756W        W31181  12.389   9.131  13.108
58757W        W31182  19.433   8.949   0.890
58758W        W31183  21.017  44.520   1.233
58759W        W31184  15.845  17.913   0.022
58760W        W31185  24.166  14.091  10.040
58761W        W31186   3.473  33.139  10.498
58762W        W31187   9.457  11.321  12.484
58763W        W31188  17.746   2.252   1.696
58764W        W31189  43.903  29.688   0.491
58765W        W31190  21.763  40.823  12.694
58766W        W31191  22.593  23.696  13.454
58767W        W31192  27.189  39.459   1.306
58768W        W31193  42.200  23.015   1.898
58769W        W31194  19.589  24.135  13.997
58770W        W31195  13.566  10.193  12.853
58771W        W31196  21.142  12.555   3.582
58772W        W31197  19.260  26.060  10.299
58773W        W31198  27.916  12.558   4.581
58774W        W31199  25.288  42.569  11.922
58775W        W31200  23.760   3.678   0.834
58776W        W31201  12.766  22.300  11.477
58777W        W31202  31.090  33.070  12.490
58778W        W31203  18.132  14.664   2.753
58779W        W31204  37.575  18.130  13.026
58780W        W31205  39.337  10.482  14.862
58781W        W31206  27.199  10.323  11.663
58782W        W31207   6.692  41.335   2.456
58783W        W31208  24.228  29.196  13.971
58784W        W31209   0.226  31.256   4.519
58785W        W31210  13.051   2.046   4.478
58786W        W31211  32.448  21.559   2.218
58787W        W31212  20.149   4.351   0.325
58788W        W31213  27.294  38.752   2.432
58789W        W31214  14.852  30.585   3.264
58790W        W31215  33.434  31.099  14.715
58791W        W31216  39.556  21.738  10.752
58792W        W31217  29.548  15.259   3.394
58793W        W31218  37.769   0.997   1.894
58794W        W31219  41.740  15.015   2.366
58795W        W31220  35.118  22.742   2.377
58796W        W31221  19.857  10.151   2.843
58797W        W31222  38.134  40.800   2.324
58798W        W31223  20.951   4.389   2.699
58799W        W31224  23.945  10.299  12.881
58800W        W31225  36.126  12.764   2.892
58801W        W31226  26.676  37.688   1.341
58802W        W31227  13.312  14.841   1.886
58803W        W31228  44.992  24.025  12.513
58804W        W31229  26.496  41.273   0.886
58805W        W31230  17.444  44.769   5.148
58806W        W31231  16.087  19.727   3.132
58807W        W31232   0.220  15.540   3.663
58808W        W31233  38.596  44.727   3.804
58809W        W31234   8.395   4.881   3.339
58810W        W31235  16.473  43.818  12.954
58811W        W31236  17.673  23.451   0.135
58812W        W31237  15.651  44.898   3.140
58813W        W31238   7.409  13.787  11.159
58814W        W31239   5.915  16.991   4.723
58815W        W31240  15.197  24.974  12.118
58816W        W31241  32.433   0.757   4.328
58817W        W31242  28.431  41.663   0.664
58818W        W31243  30.110  17.364  12.672
58819W        W31244   0.657  19.735  13.444
58820W        W31245  40.028  36.049   2.751
58821W        W31246  36.117  15.391  11.507
58822W        W31247   8.288  23.985  10.684
58823W        W31248   0.474  34.062  12.148
58824W        W31249  37.981  31.418   1.819
58825W        W31250  42.062  38.514   3.658
58826W        W31251   5.289   2.343  12.042
58827W        W31252  17.649   1.646   1.402
58828W        W31253  19.405   0.432  12.415
58829W        W31254   8.272   0.957  12.887
58830W        W31255  10.682   0.697   3.268
58831W        W31256  35.109   6.684   2.728
58832W        W31257  17.657  36.131  13.333
58833W        W31258   9.951  26.058  12.600
58834W        W31259   8.460  16.215  11.510
58835W        W31260  34.787  13.252  12.575
58836W        W31261  18.072  12.867   3.437
58837W        W31262  37.665   1.796  13.923
58838W        W31263  30.866   9.310   2.675
58839W        W31264   6.044   1.445  14.738
58840W        W31265  13.965  35.532  10.962
58841W        W31266   9.582  34.672  10.898
58842W        W31267  25.749  12.310  14.769
58843W        W31268  25.103   2.448   4.539
58844W        W31269  10.570  31.614  14.740
58845W        W31270  28.320   0.668  12.954
58846W        W31271  15.550   8.736   1.324
58847W        W31272  38.258  36.984   0.988
58848W        W31273  20.725  36.419   2.306
58849W        W31274  27.653   1.257  13.006
58850W        W31275   1.588  36.307   3.658
58851W        W31276  31.120  20.546   4.359
58852W        W31277  16.268   5.652  13.894
58853W        W31278   5.175   3.788  12.915
58854W        W31279  29.128  19.813  14.858
58855W        W31280   9.709  34.740  13.117
58856W        W31281  43.383  23.674   1.806
58857W        W31282  22.803  43.260   4.895
58858W        W31283  44.185  43.974   1.193
58859W        W31284  12.262   9.340   4.348
58860W        W31285  14.559  20.327   0.863
58861W        W31286  32.774  36.851  14.458
58862W        W31287  25.111   6.439   4.212
58863W        W31288   4.925  20.587   0.319
58864W        W31289  40.562  31.739   4.002
58865W        W31290  20.819  40.889   2.048
58866W        W31291  24.695  12.987   3.899
58867W        W31292  32.808  13.040  14.774
58868W        W31293  18.696  24.279   4.526
58869W        W31294  19.266  15.547  14.024
58870W        W31295  21.746  40.382   0.313
58871W        W31296  16.108   9.639   3.796
58872W        W31297   8.732   8.156   0.299
58873W        W31298  13.679  13.826  12.879
58874W        W31299  33.366  16.927   5.423
58875W        W31300  43.815  19.823  11.882
58876W        W31301  11.633   8.377  13.774
58877W        W31302  16.605  33.159   3.110
58878W        W31303  32.246  27.078  12.546
58879W        W31304  16.319  14.134   0.777
58880W        W31305  29.759   4.942   4.987
58881W        W31306   1.488  16.892  13.027
58882W        W31307  16.987   6.553  13.589
58883W        W31308  32.142  38.565   0.040
58884W        W31309  34.121  38.639  12.202
58885W        W31310   9.529  34.041   3.349
58886W        W31311   4.688  25.593   5.153
58887W        W31312   3.896  21.912   0.501
58888W        W31313  10.144  17.586  14.532
58889W        W31314  19.198  31.562  13.511
58890W        W31315  38.948  25.121   4.216
58891W        W31316  19.312  12.255  13.171
58892W        W31317  40.955  37.534   1.436
58893W        W31318  26.210   3.031  11.426
58894W        W31319  37.029  27.390   4.150
58895W        W31320   7.132  23.680  12.135
58896W        W31321  28.346  35.063  13.698
58897W        W31322  21.043  40.492  11.819
58898W        W31323  28.473  21.749   4.874
58899W        W31324  29.492  42.420  14.739
58900W        W31325  12.180  18.864   3.624
58901W        W31326   7.609  44.998  12.915
58902W        W31327  28.480  42.833  14.519
58903W        W31328  34.818  22.488  13.386
58904W        W31329   3.722  22.185   3.367
58905W        W31330   0.691  33.812  10.955
58906W        W31331  32.492  22.296  10.387
58907W        W31332  28.243  40.590  14.253
58908W        W31333   2.232  44.220   1.463
58909W        W31334  20.822  12.739   1.834
58910W        W31335  13.354   2.707  10.677
58911W        W31336  28.644  25.787  14.360
58912W        W31337  42.753  36.130   1.048
58913W        W31338   1.948  41.874   3.241
58914W        W31339  19.031  13.759   4.475
58915W        W31340  29.564  26.241   1.804
58916W        W31341  11.613  27.046   4.515
58917W        W31342  41.877   4.122  14.761
58918W        W31343  31.706   2.119   1.368
58919W        W31344  38.175  28.038   0.866
58920W        W31345  19.144  17.223   5.062
58921W        W31346  41.416  15.594  14.405
58922W        W31347  38.778  23.487   2.185
58923W        W31348   0.393   0.907   4.278
58924W        W31349   2.002  23.838   2.305
58925W        W31350  44.653  35.288  11.414
58926W        W31351  29.920  16.556  12.085
58927W        W31352  27.232  38.490  11.517
58928W        W31353  10.851  25.902  12.480
58929W        W31354  17.644  20.449   3.696
58930W        W31355   7.449  32.572   4.623
58931W        W31356   2.322  23.687   3.635
58932W        W31357  28.075  22.002   4.076
58933W        W31358   1.665  42.323   3.120
58934W        W31359  19.716  29.623   2.696
58935W        W31360  36.907  36.084   1.059
58936W        W31361  39.405   5.449   2.686
58937W        W31362   9.179  43.845   0.885
58938W        W31363  15.740  29.396  10.832
58939W        W31364   5.426  34.575   0.436
58940W        W31365  42.527  11.762   2.375
58941W        W31366   1.287  44.098  14.367
58942W        W31367   0.293  20.408  13.817
58943W        W31368   9.198  35.146   4.686
58944W        W31369  25.210  27.078   0.955
58945W        W31370  16.763  36.828   2.011
58946W        W31371   1.169  24.907  12.570
58947W        W31372  24.124  28.976   2.237
58948W        W31373   9.168  23.695   4.649
58949W        W31374  13.880   7.699   2.307
58950W        W31375  25.146  13.092   3.676
58951W        W31376  31.668  24.035   1.841
58952W        W31377  30.127  30.754   3.949
58953W        W31378   1.151  42.447   3.060
58954W        W31379  34.993  15.637  13.391
58955W        W31380  29.182   0.930  13.794
58956W        W31381  21.366  15.123  14.393
58957W        W31382  14.788  15.042  14.709
58958W        W31383  29.525  30.265   3.055
58959W        W31384   7.778   1.002  11.179
58960W        W31385   6.943  11.737   3.124
58961W        W31386  27.543  23.171   0.470
58962W        W31387  39.598  31.642  14.912
58963W        W31388   4.212   7.436  13.311
58964W        W31389  13.106   5.145  13.265
58965W        W31390   5.285  11.607   4.035
58966W        W31391  22.090  30.110  11.399
58967W        W31392  15.243   3.920   4.231
58968W        W31393   3.350  13.488   4.323
58969W        W31394  39.881  24.716   4.089
58970W        W31395  17.205  36.383   3.137
58971W        W31396  33.982  43.994   3.137
58972W        W31397  20.011  11.334   1.589
58973W        W31398   2.440   6.770   3.191
58974W        W31399   4.229  19.216  13.788
58975W        W31400  21.580   0.954   3.167
58976W        W31401   1.011  12.231  10.699
58977W        W31402  18.079  43.326  13.473
58978W        W31403  22.194   3.031   1.814
58979W        W31404  33.991  15.553   1.661
58980W        W31405  38.505  12.085  14.777
58981W        W31406  20.504  22.796  14.562
58982W        W31407  30.865  21.118  11.583
58983W        W31408  36.325   4.002   0.820
58984W        W31409  36.583  39.762  13.927
58985W        W31410  14.777  23.647  10.217
58986W        W31411  18.613  30.506  13.950
58987W        W31412  31.613  44.536  14.056
58988W        W31413  43.500   1.044   3.170
58989W        W31414  21.592  40.269   3.796
58990W        W31415  42.341  12.014  14.494
58991W        W31416   4.113  42.799   3.218
58992W        W31417  31.461  41.822  14.975
58993W        W31418  24.538  18.313   3.783
58994W        W31419  23.059  26.524  14.451
58995W        W31420   8.435  24.125  14.503
58996W        W31421   8.887  28.809  11.794
58997W        W31422   6.919  34.583   3.716
58998W        W31423   9.918  12.248   2.713
58999W        W31424  35.168   9.454  14.910
59000W        W31425  18.557  38.054  13.908
59001W        W31426  33.692  43.676   1.635
59002W        W31427   5.937  10.422   1.888
59003W        W31428   7.967  14.284  12.897
59004W        W31429  21.571   9.917  10.280
59005W        W31430   5.987  38.115  12.036
59006W        W31431  20.707  32.313  11.198
59007W        W31432  11.025  33.781   4.177
59008W        W31433   4.813   2.259  13.971
59009W        W31434  35.328   3.881  12.023
59010W        W31435  41.076  36.165  12.992
59011W        W31436  26.972   2.631  14.857
59012W        W31437   1.997  29.573   0.517
59013W        W31438  32.233  12.333  14.589
59014W        W31439  43.483  35.067  14.093
59015W        W31440  28.016  23.291  12.486
59016W        W31441  13.385  39.893  14.439
59017W        W31442  13.746  32.962   3.285
59018W        W31443  22.977   8.935   4.454
59019W        W31444  15.137  39.886  10.647
59020W        W31445   0.688  21.650  11.676
59021W        W31446   0.516  21.748  11.041
59022W        W31447  14.952  17.224  11.469
59023W        W31448  16.808  27.195   2.799
59024W        W31449  14.189   5.221  10.400
59025W        W31450  34.494  21.552   2.827
59026W        W31451   2.724  39.712   2.327
59027W        W31452  28.284  37.386  12.460
59028W        W31453  29.903  22.769   2.223
59029W        W31454  24.728   9.383  12.978
59030W        W31455  31.495  16.855  12.939
59031W        W31456  17.404   5.562   2.036
59032W        W31457  39.393  42.847   0.758
59033W        W31458  36.864  40.783   0.368
59034W        W31459  14.524  40.755  10.971
59035W        W31460  29.896  32.913   0.629
59036W        W31461  41.392   1.503   1.451
59037W        W31462  34.878  29.861  13.861
59038W        W31463  36.600  38.787  11.518
59039W        W31464   3.609  15.387  10.944
59040W        W31465  18.831  27.088  10.938
59041W        W31466  31.048  34.616  11.711
59042W        W31467  43.194  29.002  10.614
59043W        W31468   1.917  18.519  10.652
59044W        W31469  39.243   3.154  13.430
59045W        W31470   1.181   2.688   1.794
59046W        W31471  15.692  41.371   3.668
59047W        W31472  34.730  40.645   1.859
59048W        W31473  13.333   4.136  12.496
59049W        W31474  19.213  22.101  13.730
59050W        W31475  42.020   9.248  14.764
59051W        W31476   8.858  41.006  11.398
59052W        W31477  28.658  35.447   3.758
59053W        W31478  21.118  34.836  13.183
59054W        W31479  43.538  16.496   2.317
59055W        W31480  32.852  10.069  13.292
59056W        W31481  34.452  38.733  14.896
59057W        W31482  22.730  13.847   4.842
59058W        W31483   6.263  31.769   1.653
59059W        W31484  29.563  34.763   1.973
59060W        W31485   4.733  19.496   3.185
59061W        W31486  25.679  16.172   4.522
59062W        W31487  19.138  36.331   0.469
59063W        W31488  27.635  12.849  11.947
59064W        W31489  42.388  40.523  14.003
59065W        W31490  19.118  29.916  12.346
59066W        W31491  24.607  20.992   0.810
59067W        W31492  16.588   2.579   5.526
59068W        W31493  21.589  35.077  14.441
59069W        W31494  24.522  36.578   1.157
59070W        W31495  43.339  41.513   1.299
59071W        W31496  44.262  18.532  14.476
59072W        W31497  19.834  10.651   2.613
59073W        W31498  12.525  37.204   2.117
59074W        W31499  25.393   5.317   4.815
59075W        W31500   4.838  16.774   3.337
59076W        W31501  24.625   8.103   9.614
59077W        W31502   8.805  38.496   3.402
59078W        W31503  23.166  28.988  10.798
59079W        W31504  35.817   9.832  13.187
59080W        W31505  42.822  12.342   1.379
59081W        W31506  38.113  12.291  10.401
59082W        W31507  23.896  20.273   2.346
59083W        W31508  13.775  36.665   1.194
59084W        W31509  43.749   2.853   3.793
59085W        W31510   5.308  20.956   0.176
59086W        W31511  33.136  22.951   1.725
59087W        W31512  29.979  31.713   5.231
59088W        W31513   1.552  15.303   0.598
59089W        W31514  29.068  40.839  14.712
59090W        W31515   7.390   5.938   0.938
59091W        W31516  39.264  16.208  11.637
59092W        W31517  20.021  44.691  14.424
59093W        W31518  15.257   3.139  10.721
59094W        W31519  31.814  16.209   1.248
59095W        W31520  14.868   1.029   5.652
59096W        W31521  36.406  17.666   3.640
59097W        W31522  32.815   6.886  14.994
59098W        W31523   9.396  38.984  13.881
59099W        W31524  29.720   5.736  12.123
59100W        W31525  26.681   8.869   1.206
59101W        W31526  36.636  36.682  12.516
59102W        W31527  21.082  20.200  13.365
59103W        W31528  34.083   6.355   1.374
59104W        W31529  26.545  26.214   3.673
59105W        W31530  25.645  27.174   4.068
59106W        W31531  36.306  32.006   4.493
59107W        W31532  17.206  20.417  12.897
59108W        W31533  42.810  42.937  13.966
59109W        W31534  37.877  37.056   0.121
59110W        W31535  22.498  17.145   4.646
59111W        W31536  24.535   2.308   1.266
59112W        W31537  35.929   1.090   3.705
59113W        W31538  35.463  37.197  11.139
59114W        W31539  17.564  41.975  14.385
59115W        W31540  13.312  43.438   2.193
59116W        W31541  38.325  42.727  14.804
59117W        W31542  23.839   4.991   1.330
59118W        W31543  33.310  15.831  12.679
59119W        W31544  44.708  20.989   1.338
59120W        W31545  10.915  41.411   2.695
59121W        W31546  43.987  25.772   3.492
59122W        W31547  12.354   1.045   3.382
59123W        W31548  25.784   9.221   1.319
59124W        W31549  19.179  31.475   3.313
59125W        W31550  24.701   1.240   4.544
59126W        W31551  37.114   6.671  13.375
59127W        W31552   7.811   7.670   5.304
59128W        W31553   8.687  23.220  13.859
59129W        W31554  12.069   3.374   0.975
59130W        W31555   2.275  22.401  11.562
59131W        W31556  12.322   5.446  11.053
59132W        W31557  26.801  13.266  12.001
59133W        W31558  36.995  34.130   2.304
59134W        W31559  11.156  32.612  13.246
59135W        W31560  28.180  26.515   1.587
59136W        W31561   8.283  24.980  10.745
59137W        W31562  25.241   6.036   0.966
59138W        W31563  20.766  23.270  14.481
59139W        W31564   8.407   0.952   4.590
59140W        W31565  32.422  12.838  13.873
59141W        W31566  31.815  21.344   3.471
59142W        W31567  34.069  31.328  11.625
59143W        W31568  44.519  18.995  14.846
59144W        W31569  18.304   1.012   2.923
59145W        W31570  16.492  41.002   4.231
59146W        W31571  11.563  11.412   3.683
59147W        W31572  25.210  36.934  12.028
59148W        W31573  12.789  41.407   2.220
59149W        W31574   8.118  12.076   3.218
59150W        W31575  33.869  19.014  12.534
59151W        W31576  17.213  14.582  10.690
59152W        W31577   3.523  32.194   4.101
59153W        W31578  12.311   6.773   2.695
59154W        W31579  21.668  19.282  12.058
59155W        W31580  37.504  44.367  13.207
59156W        W31581  30.886  16.685  10.218
59157W        W31582  23.521  12.756   1.897
59158W        W31583  13.127  35.044   2.575
59159W        W31584   9.808  24.737  13.367
59160W        W31585  40.533  27.975  13.376
59161W        W31586  28.588  15.352  12.017
59162W        W31587  40.206  32.164   4.579
59163W        W31588  15.893  41.111  13.892
59164W        W31589  28.411  34.158   5.200
59165W        W31590  29.638  35.403  14.778
59166W        W31591   0.281   2.364  11.066
59167W        W31592  35.927  24.025  10.957
59168W        W31593   0.315  26.403  14.781
59169W        W31594   5.732   6.329  12.293
59170W        W31595  37.259  39.321  12.571
59171W        W31596  15.568  40.465   1.656
59172W        W31597  44.974  39.118  14.717
59173W        W31598   8.684   5.530  11.855
59174W        W31599   1.144  21.493  13.892
59175W        W31600   4.287   3.814  14.348
59176W        W31601  27.075  44.388  10.306
59177W        W31602  39.748  39.933   4.085
59178W        W31603  29.917  42.336  10.674
59179W        W31604  34.994   5.873   0.495
59180W        W31605   4.821   4.708  11.480
59181W        W31606  36.641  38.621   0.775
59182W        W31607   9.729   3.221  11.572
59183W        W31608  39.087  29.974  14.351
59184W        W31609  15.300  11.664   4.543
59185W        W31610  38.538  17.856  10.869
59186W        W31611  43.258  13.251  12.923
59187W        W31612  39.584   2.396   3.674
59188W        W31613  38.078  36.082   0.955
59189W        W31614  32.827  32.481  12.903
59190W        W31615   1.613  26.958  12.127
59191W        W31616  16.133  15.125   3.785
59192W        W31617   4.665  13.235   1.155
59193W        W31618  10.036   6.370   1.398
59194W        W31619  25.440   8.181  11.220
59195W        W31620   6.727  32.053   4.216
59196W        W31621  42.398   3.877   1.022
59197W        W31622  22.641  11.958  12.113
59198W        W31623  26.401  10.530  11.496
59199W        W31624  19.111  26.706  12.963
59200W        W31625   3.176  39.946   2.274
59201W        W31626   0.609  27.202  11.952
59202W        W31627  34.433  33.055   3.669
59203W        W31628  28.593  19.699   4.469
59204W        W31629  40.901  29.458  14.426
59205W        W31630   8.151  26.750  13.503
59206W        W31631   7.061  42.852   9.861
59207W        W31632  32.769  21.075   3.709
59208W        W31633  21.174  30.600  11.629
59209W        W31634  15.677  20.821  13.463
59210W        W31635  26.182  19.599  11.131
59211W        W31636   5.333  42.531  12.965
59212W        W31637  21.178  22.040  10.150
59213W        W31638  11.084  10.034   1.833
59214W        W31639  41.958  16.234   1.622
59215W        W31640  24.266  27.878  13.097
59216W        W31641  37.837  42.333   1.492
59217W        W31642  28.119  41.216  13.555
59218W        W31643  28.185  23.929   4.125
59219W        W31644  18.984  13.244   2.699
59220W        W31645  15.119  21.474  12.133
59221W        W31646  36.469  39.433  12.908
59222W        W31647   9.878   9.656   0.887
59223W        W31648  33.129  25.073   1.861
59224W        W31649  11.145   3.906  12.119
59225W        W31650  35.938  18.508   4.125
59226W        W31651  26.224  11.016   4.151
59227W        W31652  16.118   0.409  10.696
59228W        W31653  27.769  29.606  11.591
59229W        W31654   4.461  37.447   3.398
59230W        W31655   5.898  15.465   2.880
59231W        W31656   6.961  18.686  14.332
59232W        W31657  36.443  15.753  13.963
59233W        W31658  12.605  22.378  12.379
59234W        W31659   1.335   8.226   1.837
59235W        W31660  38.338  37.838  11.189
59236W        W31661  43.546  34.054  10.621
59237W        W31662  27.004  38.100   0.956
59238W        W31663   6.208   8.841  14.219
59239W        W31664  23.456  12.189  14.988
59240W        W31665  20.730  39.192  14.596
59241W        W31666   6.049  17.985  12.650
59242W        W31667  28.537  26.641   2.892
59243W        W31668  22.701  30.829  14.694
59244W        W31669  32.136  23.568   0.261
59245W        W31670  23.464   4.579   3.075
59246W        W31671  27.499   5.422   1.489
59247W        W31672   0.938  23.307   1.558
59248W        W31673   9.396  24.048   4.942
59249W        W31674  38.350  44.487  12.527
59250W        W31675  14.691  22.816  11.040
59251W        W31676  28.614  14.813   0.513
59252W        W31677  22.679  31.559   0.494
59253W        W31678  33.367  12.694  11.561
59254W        W31679   4.506   8.455  14.446
59255W        W31680  23.109  32.331  12.225
59256W        W31681  20.559  15.730   2.351
59257W        W31682  22.561  21.971   1.652
59258W        W31683  26.105  10.602  14.116
59259W        W31684  41.336   4.243  14.824
59260W        W31685   5.148   6.463  10.582
59261W        W31686  31.966  36.153   3.243
59262W        W31687   6.632  12.230  12.529
59263W        W31688  43.149  10.378   2.917
59264W        W31689  12.652   5.143  13.007
59265W        W31690  40.074  11.139  12.329
59266W        W31691  30.937   1.406   1.435
59267W        W31692  34.655   2.388  13.057
59268W        W31693   0.240  32.988  13.798
59269W        W31694  17.198  26.587  10.870
59270W        W31695  26.504  15.476   5.030
59271W        W31696  18.943  32.430   0.044
59272W        W31697   3.350   8.578   4.592
59273W        W31698  22.750  24.758   1.478
59274W        W31699  31.528  42.601   3.322
59275W        W31700  10.629  37.464   0.273
59276W        W31701  20.502  44.800  12.137
59277W        W31702  30.067  37.613  12.876
59278W        W31703   8.804  29.129   2.895
59279W        W31704  36.303  25.504   1.928
59280W        W31705  24.225  27.520  12.451
59281W        W31706   2.044   2.881  12.926
59282W        W31707  43.210   9.331   3.881
59283W        W31708  32.634  17.688  10.503
59284W        W31709   1.197  39.009  14.389
59285W        W31710  38.887   9.116   3.721
59286W        W31711  25.003  23.675   0.340
59287W        W31712  20.168   0.780  11.283
59288W        W31713  34.356  14.211  12.687
59289W        W31714  29.511  39.559   4.180
59290W        W31715   8.190   9.001   4.688
59291W        W31716  20.579  17.099   1.862
59292W        W31717   7.456   4.892  10.784
59293W        W31718  42.828  43.290   2.320
59294W        W31719  23.697   4.494  12.874
59295W        W31720   1.247  33.525  10.785
59296W        W31721   3.355  38.433   0.042
59297W        W31722  27.784  10.096  11.933
59298W        W31723  27.526   6.020   4.568
59299W        W31724  20.306  26.360   1.842
59300W        W31725  23.022  34.640   2.792
59301W        W31726  43.877  42.387   3.857
59302W        W31727  31.243   1.969  13.984
59303W        W31728  36.528  42.825  12.041
59304W        W31729   7.090  28.999   4.212
59305W        W31730  38.823  18.571   0.921
59306W        W31731  19.473   1.349  12.349
59307W        W31732  15.297  21.295   2.833
59308W        W31733  40.884  11.783  14.612
59309W        W31734  20.649  19.586   0.006
59310W        W31735  10.817  34.549  11.938
59311W        W31736   8.670  23.710   2.620
59312W        W31737  31.008  44.197   3.794
59313W        W31738  24.442   4.923  14.016
59314W        W31739  17.899  31.101  10.499
59315W        W31740  16.687   0.011   0.764
59316W        W31741  28.106  35.920   3.300
59317W        W31742   0.753   0.268   4.648
59318W        W31743  21.507  15.999   2.242
59319W        W31744  19.491  36.958  12.600
59320W        W31745  16.151   8.942  11.013
59321W        W31746  39.560  14.804   1.096
59322W        W31747  36.484  18.317   4.214
59323W        W31748  42.536  32.229   1.845
59324W        W31749  38.150  34.052   1.329
59325W        W31750  31.018   1.290  12.341
59326W        W31751  27.590   5.044   3.686
59327W        W31752  28.677  40.946   1.824
59328W        W31753  18.615  10.256  13.651
59329W        W31754  41.736  24.397   0.328
59330W        W31755  35.340  12.659   3.515
59331W        W31756   3.076   3.141  13.265
59332W        W31757  22.277   8.217   0.955
59333W        W31758   9.112  31.388  12.237
59334W        W31759  34.163  40.382   1.095
59335W        W31760   5.006  23.232  13.487
59336W        W31761   2.467  27.704  14.354
59337W        W31762  30.564  24.050  12.785
59338W        W31763   3.855  37.891   2.816
59339W        W31764  33.013  43.323   1.812
59340W        W31765  42.975  26.690   0.640
59341W        W31766  17.141  18.330  11.182
59342W        W31767  26.696  40.553  13.928
59343W        W31768  14.797   0.644  12.984
59344W        W31769  30.997  37.615  13.412
59345W        W31770  40.887  10.831   2.283
59346W        W31771   6.901  25.183  12.178
59347W        W31772   2.873   9.200  11.989
59348W        W31773  13.121  30.207   0.263
59349W        W31774   7.458   3.769  11.965
59350W        W31775  16.740   1.519  11.889
59351W        W31776  39.841   6.168   0.915
59352W        W31777  37.512  27.477  14.792
59353W        W31778   9.679  32.586  10.582
59354W        W31779  18.351   6.302  11.682
59355W        W31780  27.543  23.472  11.175
59356W        W31781  39.924  35.824   3.226
59357W        W31782  30.519  37.906  12.897
59358W        W31783  17.063  14.477  11.947
59359W        W31784  24.170  39.284   2.717
59360W        W31785   6.211  31.018   1.056
59361W        W31786   7.201  27.551   4.822
59362W        W31787   8.079  17.509   4.036
59363W        W31788  15.458  25.069   4.876
59364W        W31789  27.522  44.484   2.617
59365W        W31790  19.996  30.907  10.056
59366W        W31791   1.967  43.382  12.549
59367W        W31792   9.228  34.350  11.660
59368W        W31793  13.830  33.440  11.877
59369W        W31794  40.189   9.313  14.333
59370W        W31795  36.321  39.344  10.006
59371W        W31796  40.463  20.841   2.813
59372W        W31797   1.670   4.949  14.751
59373W        W31798  15.608  39.069   2.267
59374W        W31799   5.700  27.490   4.102
59375W        W31800  42.524   0.659  11.149
59376W        W31801  36.505  23.755  13.423
59377W        W31802   7.216  28.551   3.302
59378W        W31803  34.384  13.552  13.069
59379W        W31804   9.751  30.399   0.955
59380W        W31805   6.728  39.904   2.724
59381W        W31806   6.370   9.307  14.488
59382W        W31807   0.538  36.536   1.860
59383W        W31808  30.357  24.139   3.189
59384W        W31809  31.939  21.453   2.158
59385W        W31810   9.638   2.819   4.240
59386W        W31811  25.058  27.651   2.427
59387W        W31812  42.421  36.978   0.474
59388W        W31813  33.505  40.013  11.250
59389W        W31814  43.302  26.665  13.921
59390W        W31815  18.578   4.793   1.879
59391W        W31816  20.967  29.041  13.999
59392W        W31817  34.412  35.495  11.794
59393W        W31818  40.450  31.020  14.923
59394W        W31819  23.068  12.910  13.316
59395W        W31820   0.907  43.907   1.414
59396W        W31821  22.266  14.200   0.474
59397W        W31822  22.057  41.045   4.828
59398W        W31823  36.041   5.440  12.357
59399W        W31824  35.405  17.304  14.479
59400W        W31825  35.861  39.498  13.840
59401W        W31826  14.409  18.714   1.344
59402W        W31827  30.581  32.477   1.243
59403W        W31828  34.407   7.935  12.046
59404W        W31829  40.478   4.387   2.692
59405W        W31830  27.932  23.197   4.349
59406W        W31831  21.668  32.918   1.657
59407W        W31832  25.029  36.468   2.987
59408W        W31833  34.906  43.295   3.972
59409W        W31834  13.425  19.101  11.480
59410W        W31835   3.980  10.244  11.237
59411W        W31836   7.825  38.851  10.267
59412W        W31837  27.736  20.676  13.912
59413W        W31838  24.057   3.271   1.083
59414W        W31839  14.679   4.185   0.805
59415W        W31840  33.475  36.397  14.034
59416W        W31841  13.323  23.071   1.895
59417W        W31842  37.453  43.890  11.066
59418W        W31843  33.125  16.744   1.910
59419W        W31844  33.447  44.654  13.312
59420W        W31845  15.666  19.739  14.952
59421W        W31846   7.754  29.690   1.125
59422W        W31847  33.552  23.784   4.153
59423W        W31848  31.364  42.913  13.331
59424W        W31849  12.176  36.453   0.357
59425W        W31850  21.593  41.291   4.880
59426W        W31851  11.624  43.840  12.646
59427W        W31852   4.173  16.396   1.344
59428W        W31853  18.572  42.318  10.710
59429W        W31854  39.809   7.865   2.854
59430W        W31855  21.478  39.876   1.341
59431W        W31856  23.024  27.204  10.689
59432W        W31857  36.696  32.464  14.751
59433W        W31858  31.433  43.356  14.551
59434W        W31859   0.416   2.669  12.628
59435W        W31860  41.420  40.073   4.680
59436W        W31861  22.980  27.458  11.885
59437W        W31862  30.020  35.810  13.379
59438W        W31863  22.320  39.810  10.587
59439W        W31864  13.104   7.188   2.808
59440W        W31865  39.870  32.771  14.313
59441W        W31866   3.419  13.160   4.730
59442W        W31867  36.198  16.109  14.774
59443W        W31868  36.917   0.629   2.814
59444W        W31869   0.608  41.655   1.263
59445W        W31870   5.995  18.249   0.971
59446W        W31871   2.319  42.586   2.281
59447W        W31872   5.660  43.396  14.558
59448W        W31873  32.673   2.878   4.712
59449W        W31874  20.282   7.197  14.486
59450W        W31875  20.116  25.724  11.468
59451W        W31876  30.040   7.538  14.462
59452W        W31877  14.033  31.932   4.631
59453W        W31878  14.155  23.415   3.610
59454W        W31879  24.045  33.323  11.113
59455W        W31880  21.699  44.539   1.875
59456W        W31881  29.898  22.624   1.331
59457W        W31882  11.232  43.420   1.006
59458W        W31883  41.439  41.068   4.469
59459W        W31884  41.236   4.744  14.826
59460W        W31885   5.932  11.927  13.499
59461W        W31886   1.312  36.138  12.163
59462W        W31887  25.573   9.899   0.151
59463W        W31888  18.269   8.913  12.853
59464W        W31889  31.907   3.210  11.156
59465W        W31890  20.097  43.931  14.554
59466W        W31891  18.044  19.750  11.155
59467W        W31892  40.567  10.982   1.829
59468W        W31893  10.119  40.583   0.429
59469W        W31894  34.113  39.355  13.400
59470W        W31895  17.750  43.204   0.293
59471W        W31896  40.594   8.307   3.353
59472W        W31897  42.008  29.854  14.697
59473W        W31898  17.738  38.019   2.562
59474W        W31899   9.838  19.102  12.881
59475W        W31900  13.266   3.883   0.003
59476W        W31901  43.654  17.625   1.279
59477W        W31902   8.071  26.978   2.805
59478W        W31903  29.046  32.673   2.360
59479W        W31904  40.408  28.616  11.289
59480W        W31905  11.656   9.908  14.994
59481W        W31906  30.596  13.240   2.764
59482W        W31907  32.686  33.071  11.199
59483W        W31908  30.951   7.657  10.899
59484W        W31909  24.027  38.237  11.527
59485W        W31910  27.213  17.314   0.212
59486W        W31911   3.455  37.096  13.754
59487W        W31912  42.804   2.818  12.969
59488W        W31913   4.249  21.270   3.393
59489W        W31914  38.472   6.231   3.432
59490W        W31915  21.003   1.845   2.328
59491W        W31916   5.867  37.632  12.467
59492W        W31917  17.910  31.470   3.078
59493W        W31918  16.055  27.157   3.283
59494W        W31919  19.126  33.085   1.707
59495W        W31920  18.221  39.109  12.343
59496W        W31921  43.399  22.002  11.707
59497W        W31922  36.491   9.669   4.311
59498W        W31923  13.702  19.168   4.441
59499W        W31924  34.172  17.191   2.406
59500W        W31925  23.662  24.319   1.484
59501W        W31926  15.742   7.078  14.945
59502W        W31927  13.681   1.990   3.723
59503W        W31928  10.146   9.326  11.923
59504W        W31929  36.742  27.184  11.444
59505W        W31930  31.480  39.358   3.306
59506W        W31931  34.125   1.445   4.211
59507W        W31932  16.018  27.129   4.221
59508W        W31933  31.160   8.047   3.203
59509W        W31934  37.020  20.371  12.825
59510W        W31935  17.261   1.531   4.277
59511W        W31936  30.854  17.106   3.302
59512W        W31937  34.047  30.033   2.653
59513W        W31938  17.303   7.397   3.638
59514W        W31939  20.434  37.218   0.821
59515W        W31940  13.152  19.799  10.872
59516W        W31941  33.081   9.280   2.925
59517W        W31942  33.567  30.681   0.396
59518W        W31943  14.849  28.204   4.543
59519W        W31944  41.597   5.155  14.834
59520W        W31945   3.972   7.661  10.766
59521W        W31946  34.012  38.838  13.571
59522W        W31947  25.193  19.706  10.983
59523W        W31948  29.946   9.824  11.354
59524W        W31949  21.224  30.133  11.360
59525W        W31950  25.132   2.336   0.430
59526W        W31951  23.806  43.998   2.335
59527W        W31952  20.294  18.997  12.504
59528W        W31953  36.501  15.348  12.160
59529W        W31954  34.161  41.497  11.074
59530W        W31955  20.853  24.043   3.731
59531W        W31956  36.109   7.007  13.884
59532W        W31957  20.134  15.036  13.926
59533W        W31958   7.889  20.831  11.934
59534W        W31959  23.274  27.945  11.608
59535W        W31960  30.811  44.743   1.245
59536W        W31961  11.944  20.084   2.279
59537W        W31962   0.740  38.329  12.683
59538W        W31963   0.278  39.945   4.649
59539W        W31964  13.855  19.256  11.712
59540W        W31965  24.721  29.970  12.920
59541W        W31966  33.858  29.715   4.459
59542W        W31967  25.791  33.423   4.136
59543W        W31968  40.277  36.660  13.031
59544W        W31969  29.544  21.957   4.783
59545W        W31970   7.331   7.473  13.773
59546W        W31971  30.170  35.749   2.798
59547W        W31972  14.016  31.996   1.717
59548W        W31973   9.297   3.780  14.873
59549W        W31974  32.780   7.649   0.868
59550W        W31975  43.938  39.593   3.168
59551W        W31976  41.217  16.168  14.850
59552W        W31977   3.351  43.993   1.377
59553W        W31978  12.637   3.121   1.790
59554W        W31979  33.786  29.230   4.521
59555W        W31980  21.756  12.028  10.662
59556W        W31981  33.487  15.377  12.465
59557W        W31982  30.566  40.095  12.923
59558W        W31983  37.499  11.665  14.817
59559W        W31984  26.671   3.283   3.317
59560W        W31985   4.413   4.967   1.744
59561W        W31986  31.777  39.584  14.855
59562W        W31987   5.265  21.476   0.224
59563W        W31988  26.248   8.231  13.072
59564W        W31989  29.574  38.974   1.239
59565W        W31990   4.218  39.883  14.852
59566W        W31991  30.987  40.361  12.541
59567W        W31992   7.371  37.216  12.611
59568W        W31993  38.113  44.410   0.484
59569W        W31994  42.953  40.863   1.789
59570W        W31995   7.324  14.108   5.108
59571W        W31996  11.224   4.487  13.997
59572W        W31997  28.125   4.191  10.704
59573W        W31998  29.988  15.571  11.063
59574W        W31999  35.362  11.132  12.862
59575W        W32000  41.892   5.149  12.781
59576W        W32001  31.702  25.574   1.287
59577W        W32002  12.911  15.597   3.831
59578W        W32003   6.232  44.898  11.569
59579W        W32004  36.800  29.688  14.933
59580W        W32005   0.881   3.811  12.866
59581W        W32006  21.322   4.173   3.280
59582W        W32007  20.303  26.163  13.354
59583W        W32008  10.650  20.530   0.981
59584W        W32009  43.917   2.330  10.741
59585W        W32010  31.315   9.291   4.050
59586W        W32011  25.770  21.500   4.542
59587W        W32012  20.906  20.482   4.105
59588W        W32013  40.869  42.123  11.738
59589W        W32014  41.102  22.542  11.499
59590W        W32015   6.619  44.915   2.780
59591W        W32016  34.401   6.254  10.614
59592W        W32017  27.103  39.081  12.012
59593W        W32018  36.015   6.959   0.476
59594W        W32019  38.357  39.343  14.176
59595W        W32020   1.276   7.408   4.107
59596W        W32021  19.200   0.350   5.570
59597W        W32022  12.552   6.759  14.306
59598W        W32023  29.791  33.867  12.405
59599W        W32024  14.359   0.837  13.397
59600W        W32025  24.723   3.521   5.100
59601W        W32026  36.048   0.093   2.641
59602W        W32027  17.803  21.075  11.435
59603W        W32028  23.638  21.760  10.660
59604W        W32029  35.433  40.342  11.098
59605W        W32030   2.790  21.189  13.783
59606W        W32031  16.676  20.560   2.402
59607W        W32032   4.149  29.609   2.240
59608W        W32033   7.838  16.876  12.477
59609W        W32034  26.196  23.534  14.734
59610W        W32035  12.704  20.665   4.108
59611W        W32036  21.654   0.997  12.598
59612W        W32037  44.782  25.142   4.079
59613W        W32038  11.568  25.079   3.718
59614W        W32039  35.397  13.407  11.515
59615W        W32040  42.329  25.743   1.497
59616W        W32041  25.366   9.124  11.106
59617W        W32042  21.600  22.750   3.342
59618W        W32043   2.545   7.198  14.758
59619W        W32044  19.850   7.890  12.896
59620W        W32045  24.246  32.707  11.951
59621W        W32046  19.705   0.008   2.286
59622W        W32047  16.260   0.201   3.747
59623W        W32048  10.761  18.992   4.135
59624W        W32049  23.280   8.327   2.676
59625W        W32050  35.556  12.115  13.567
59626W        W32051  13.126   9.795   2.391
59627W        W32052  15.875  18.246  10.744
59628W        W32053  22.218  37.318   4.629
59629W        W32054   2.248  32.444   3.544
59630W        W32055  31.416   9.858  10.921
59631W        W32056  42.088   5.818   0.226
59632W        W32057  25.768  41.297   4.113
59633W        W32058  40.023  39.005  13.152
59634W        W32059  15.187   0.216  10.735
59635W        W32060   3.271  25.037  12.541
59636W        W32061  44.992   7.730   1.681
59637W        W32062  10.809  25.428   2.268
59638W        W32063  41.294  25.412   2.893
59639W        W32064  37.490   2.638  12.027
59640W        W32065  30.998  30.092  14.465
59641W        W32066  33.940  18.111   0.134
59642W        W32067   4.618   9.614   2.194
59643W        W32068  41.568  36.488   2.527
59644W        W32069  41.009  29.595  10.611
59645W        W32070   8.737  25.094  11.374
59646W        W32071   9.925   4.166   4.635
59647W        W32072  34.551  27.252  11.124
59648W        W32073  44.862  30.605   1.285
59649W        W32074   9.192  25.557   3.859
59650W        W32075   2.015  43.791  12.233
59651W        W32076   7.981  12.421  14.388
59652W        W32077  25.872   0.896   0.272
59653W        W32078  33.590  23.162   2.936
59654W        W32079  27.587  25.450   0.047
59655W        W32080  39.905   7.929  14.371
59656W        W32081  27.990  36.048   0.932
59657W        W32082  42.334  25.801  12.946
59658W        W32083  39.213  12.895   1.007
59659W        W32084  14.628  36.081  12.520
59660W        W32085  37.522  35.862  14.297
59661W        W32086  25.485  41.198  14.858
59662W        W32087  41.052  13.563  13.812
59663W        W32088   2.348  25.086   2.174
59664W        W32089  42.068  39.858  12.139
59665W        W32090  16.159  15.597  14.928
59666W        W32091  11.177  14.625   2.883
59667W        W32092  26.736  42.929  10.348
59668W        W32093  29.526   1.399  14.954
59669W        W32094  37.124   3.837  12.447
59670W        W32095  25.424   6.934  11.626
59671W        W32096  12.449  29.501  13.903
59672W        W32097   4.718  13.709   4.407
59673W        W32098  40.460   8.227   4.914
59674W        W32099  26.595  34.638   2.790
59675W        W32100   0.954  32.386  12.376
59676W        W32101  10.129   6.321  13.835
59677W        W32102  17.279  26.120   5.117
59678W        W32103  44.797  40.915   4.934
59679W        W32104  17.085   6.666   0.809
59680W        W32105  27.133  21.749   1.823
59681W        W32106  13.777  21.990   4.317
59682W        W32107  21.462   2.317  13.935
59683W        W32108   6.953  33.540  11.686
59684W        W32109  35.982   9.574   1.274
59685W        W32110  32.950   8.897  13.398
59686W        W32111  26.530   2.453   4.319
59687W        W32112  27.577  41.486   3.781
59688W        W32113   9.597  37.643  11.473
59689W        W32114   4.166  23.827  11.136
59690W        W32115  25.600  29.682  10.710
59691W        W32116   5.397  31.782   2.618
59692W        W32117  40.554  40.098   2.487
59693W        W32118  26.010  27.563   2.077
59694W        W32119   3.012  10.314  11.043
59695W        W32120  22.493   7.994  12.396
59696W        W32121  27.873  36.167  12.449
59697W        W32122  18.635   6.300   0.728
59698W        W32123  19.519   3.283  12.559
59699W        W32124  44.557  30.398   3.090
59700W        W32125  40.910  12.642   4.867
59701W        W32126  23.609  15.839  14.022
59702W        W32127   1.526  20.087   3.668
59703W        W32128   1.735  35.307   3.262
59704W        W32129  23.840  25.007   0.793
59705W        W32130  44.272  33.909   0.678
59706W        W32131  27.535  28.122   4.600
59707W        W32132   5.355  28.230   3.908
59708W        W32133   6.147  41.100  14.389
59709W        W32134  19.094   2.822   1.406
59710W        W32135  22.165  38.032   3.829
59711W        W32136  41.405  21.557  12.070
59712W        W32137  24.944  17.280   2.809
59713W        W32138   7.276  42.410   1.881
59714W        W32139   6.854  32.079  12.676
59715W        W32140  38.351  43.806   0.733
59716W        W32141   9.727  18.605  12.896
59717W        W32142  20.419  21.836   2.161
59718W        W32143   7.801  14.218  10.553
59719W        W32144  15.811   1.372  10.407
59720W        W32145  39.388   3.327   2.688
59721W        W32146  25.663  29.145   0.687
59722W        W32147  29.642  40.390  12.992
59723W        W32148  21.567   1.976   3.314
59724W        W32149  13.826  44.511  11.883
59725W        W32150   5.852  25.842   0.121
59726W        W32151  15.354   4.446  12.418
59727W        W32152   6.760  19.758   4.531
59728W        W32153  33.337   1.621  12.313
59729W        W32154  21.738  10.311   3.378
59730W        W32155  13.870  10.926  13.460
59731W        W32156  42.328  41.459   0.053
59732W        W32157  28.646  41.490   3.695
59733W        W32158  25.083   0.084   0.773
59734W        W32159  34.341  18.799  12.465
59735W        W32160  38.072  20.397   1.908
59736W        W32161  30.600  42.136  12.786
59737W        W32162  39.131  31.234  14.080
59738W        W32163   6.361   7.379   1.235
59739W        W32164   4.116  36.609  11.862
59740W        W32165   7.756  31.086   0.538
59741W        W32166   6.466  16.712  12.883
59742W        W32167   4.294  29.592   4.337
59743W        W32168   3.835  36.186   3.051
59744W        W32169  31.174  20.051   4.248
59745W        W32170   9.201  34.131   4.844
59746W        W32171  20.207  14.318   2.688
59747W        W32172  21.386   9.313   4.267
59748W        W32173  14.866   0.909  13.403
59749W        W32174  29.695  39.308   2.845
59750W        W32175  10.830  18.898   2.373
59751W        W32176  39.748  23.899   2.245
59752W        W32177  29.106  37.865  11.098
59753W        W32178   7.932   9.291   0.271
59754W        W32179  41.896  31.613   1.284
59755W        W32180  19.305  39.329  14.052
59756W        W32181   3.213  31.592  13.182
59757W        W32182  17.204   1.439  11.211
59758W        W32183  14.230   9.896   0.512
59759W        W32184   2.738  27.641  12.121
59760W        W32185  17.954  40.771   2.744
59761W        W32186  22.957   0.381  14.242
59762W        W32187  31.060  22.537   3.949
59763W        W32188  25.052  42.120   2.715
59764W        W32189  42.931   5.955   2.296
59765W        W32190  19.695   9.426  11.677
59766W        W32191  19.372   0.432   9.665
59767W        W32192   8.202  11.370   3.225
59768W        W32193  23.405  24.007   0.809
59769W        W32194   8.749  14.743   3.722
59770W        W32195  25.925  26.173  10.700
59771W        W32196  24.024  26.060   2.211
59772W        W32197  32.184  24.839  12.495
59773W        W32198  30.787  34.262   2.122
59774W        W32199  15.258  38.627   0.663
59775W        W32200  33.218  37.763   3.342
59776W        W32201  18.631  19.208   2.155
59777W        W32202  41.431  26.413   4.116
59778W        W32203  37.004  22.213  13.072
59779W        W32204  27.870  33.481  10.266
59780W        W32205  30.919  29.671   3.721
59781W        W32206  33.674   8.931  12.248
59782W        W32207  38.134  10.276  13.422
59783W        W32208   1.392  28.731  12.471
59784W        W32209   2.610  36.254  13.519
59785W        W32210  26.928  30.955  11.709
59786W        W32211  36.692  18.220   2.417
59787W        W32212  41.475   1.228  11.874
59788W        W32213  27.575  38.576   2.965
59789W        W32214  21.263   4.694   0.941
59790W        W32215  27.469  11.791  10.781
59791W        W32216  37.563   4.478  14.917
59792W        W32217  37.529  12.234  13.577
59793W        W32218   0.786   7.613   1.800
59794W        W32219  40.411  17.325   3.275
59795W        W32220  19.734  34.339   0.004
59796W        W32221  27.732  22.193   2.900
59797W        W32222  24.482  37.052  12.531
59798W        W32223  43.927  11.680  12.351
59799W        W32224   4.778   1.424  10.765
59800W        W32225  21.523  29.992   0.860
59801W        W32226  40.883  24.992  14.608
59802W        W32227  24.387  21.512   2.777
59803W        W32228  41.911  10.700  13.582
59804W        W32229  44.748  14.755  12.368
59805W        W32230   1.730  31.541   4.091
59806W        W32231  37.393  40.067  13.537
59807W        W32232  39.824  33.289   0.885
59808W        W32233  10.176  43.383   2.264
59809W        W32234  18.216  31.846   3.321
59810W        W32235   9.165  39.754  13.565
59811W        W32236   8.468  14.333  14.252
59812W        W32237   8.187   3.405   1.446
59813W        W32238  17.870   7.387  14.518
59814W        W32239  35.557  39.503  13.374
59815W        W32240  15.854   7.841  14.351
59816W        W32241  42.462  15.893  11.165
59817W        W32242  39.472   5.641  11.544
59818W        W32243  20.715  10.932   0.511
59819W        W32244   0.778  31.418   3.681
59820W        W32245  12.813  36.089   0.785
59821W        W32246  31.338  25.120  12.840
59822W        W32247  24.521  12.669  11.048
59823W        W32248  34.533  25.808  12.438
59824W        W32249  35.906   4.346  11.877
59825W        W32250  13.194   7.182  14.881
59826W        W32251   5.357  31.612  13.308
59827W        W32252  22.068  24.606   3.847
59828W        W32253  43.016   0.224   3.352
59829W        W32254  25.165  40.951   1.119
59830W        W32255  11.168  22.669   4.582
59831W        W32256  16.113  38.631   0.856
59832W        W32257  21.568  21.453   2.727
59833W        W32258  42.452  38.493   4.579
59834W        W32259  44.340  25.085   1.557
59835W        W32260  38.180  37.190   3.229
59836W        W32261  31.270  13.598   1.494
59837W        W32262   1.688  14.828  13.656
59838W        W32263   1.244  15.154   3.234
59839W        W32264   3.386  13.256   3.856
59840W        W32265  10.223  40.281   0.914
59841W        W32266   7.443   7.965  13.762
59842W        W32267  40.500   8.478  14.080
59843W        W32268  15.151  40.506  12.129
59844W        W32269  22.276  28.049  12.392
59845W        W32270   6.967   7.956  13.571
59846W        W32271  29.585  39.572  10.814
59847W        W32272  20.413   7.043   0.704
59848W        W32273  35.534  28.996   1.187
59849W        W32274  43.246  14.879   0.871
59850W        W32275  11.209  21.551   4.714
59851W        W32276  11.557  39.503  14.347
59852W        W32277  30.410  28.446   3.523
59853W        W32278   9.352  28.083  12.797
59854W        W32279  36.282  30.563   3.013
59855W        W32280  27.609  31.846   3.817
59856W        W32281  39.207  44.854  12.594
59857W        W32282  34.847   0.771  10.379
59858W        W32283   2.851   6.780  13.975
59859W        W32284  11.112   5.234   2.755
59860W        W32285   1.459   6.410   4.222
59861W        W32286  38.119   4.907   1.871
59862W        W32287  26.170  32.371  10.594
59863W        W32288  19.580  19.452   4.366
59864W        W32289  17.497   9.200   1.488
59865W        W32290  37.667  34.519   9.909
59866W        W32291  23.943  10.315   2.936
59867W        W32292  10.146  44.699  12.159
59868W        W32293  27.485   7.073  10.996
59869W        W32294  34.565  32.222  12.460
59870W        W32295  28.341  28.993   1.365
59871W        W32296  27.292   1.923   0.477
59872W        W32297   5.702  10.101   1.230
59873W        W32298   6.401  18.249   0.047
59874W        W32299  30.532   6.491   3.611
59875W        W32300  23.542  21.228  11.623
59876W        W32301  15.704  35.298  13.877
59877W        W32302  21.679  32.440  12.833
59878W        W32303  16.267   7.428   2.191
59879W        W32304  31.668   9.910   0.691
59880W        W32305   8.198  14.794  14.462
59881W        W32306  19.622  36.295  14.943
59882W        W32307  14.277  10.339   3.696
59883W        W32308  31.198  15.304  12.317
59884W        W32309  40.930   2.693   4.788
59885W        W32310  25.675  27.963   1.396
59886W        W32311  32.309   6.950   1.191
59887W        W32312  16.678  14.822   2.120
59888W        W32313  19.024  25.675   0.507
59889W        W32314  16.297  22.158  14.457
59890W        W32315  37.353  21.073   4.209
59891W        W32316   5.401  36.954  12.273
59892W        W32317  37.554  32.649  11.230
59893W        W32318  24.672  17.303   4.768
59894W        W32319   9.214  12.405  13.811
59895W        W32320  27.717  12.702   2.516
59896W        W32321   1.232  28.710  10.814
59897W        W32322  22.134  17.801   1.806
59898W        W32323  15.509  18.631   2.900
59899W        W32324  13.276  39.431  13.086
59900W        W32325   4.455  41.458   2.890
59901W        W32326  43.827  32.361  13.813
59902W        W32327   6.805  28.895  14.857
59903W        W32328   4.314  35.447  13.945
59904W        W32329   4.422  34.502   0.042
59905W        W32330  40.800  34.268   2.242
59906W        W32331  28.874  30.576   1.769
59907W        W32332  38.299  34.919   2.354
59908W        W32333   4.248  39.326  14.905
59909W        W32334  38.481   1.105  10.395
59910W        W32335  21.194  28.228   0.935
59911W        W32336  20.800  39.761   1.800
59912W        W32337  22.615  15.264  11.681
59913W        W32338  23.592  19.144   0.987
59914W        W32339  30.696  21.720   0.345
59915W        W32340   3.473  44.798  11.815
59916W        W32341   6.274   2.408  12.965
59917W        W32342  31.025   6.119  13.455
59918W        W32343   2.107  24.259   5.064
59919W        W32344  23.025  10.141   2.495
59920W        W32345  19.738   2.552  14.416
59921W        W32346  25.600  23.667   0.807
59922W        W32347  43.964  22.221   3.385
59923W        W32348  15.535  42.460   0.960
59924W        W32349  31.745  18.554   5.510
59925W        W32350  25.499  18.679  11.885
59926W        W32351  37.634  13.150  12.975
59927W        W32352  40.452  40.129   4.652
59928W        W32353  35.447  15.871   4.752
59929W        W32354  28.110   9.683  14.818
59930W        W32355   9.880  40.454  12.910
59931W        W32356  11.652  14.626  12.506
59932W        W32357  37.322  40.575  13.630
59933W        W32358   3.000  21.708   3.120
59934W        W32359   3.016  18.636  13.845
59935W        W32360   6.781  18.515   0.269
59936W        W32361  42.643  16.891  11.036
59937W        W32362   9.971   4.288   5.184
59938W        W32363  25.934  31.900  12.902
59939W        W32364  34.841  12.341   4.528
59940W        W32365  36.367   1.134   2.362
59941W        W32366  23.300  34.204   1.052
59942W        W32367  11.285  19.119   2.645
59943W        W32368  31.259  33.664  10.718
59944W        W32369  41.358  41.818  14.473
59945W        W32370  17.389  30.829  12.538
59946W        W32371  25.077   1.484   0.536
59947W        W32372  36.379  28.066  12.962
59948W        W32373  16.235   9.685   1.361
59949W        W32374  16.365  31.560  14.695
59950W        W32375  25.151  40.281  12.953
59951W        W32376  19.565   7.771  12.473
59952W        W32377   2.811  42.777  14.743
59953W        W32378  20.957   4.750  12.394
59954W        W32379  20.296  13.651   1.895
59955W        W32380   9.841  23.588   4.298
59956W        W32381  33.414  10.121   0.623
59957W        W32382  32.319  26.612   2.746
59958W        W32383  31.922  36.835   0.769
59959W        W32384  41.940  38.987   3.295
59960W        W32385  27.989  29.052  11.656
59961W        W32386   4.924  32.005  12.585
59962W        W32387   3.641  25.010  14.407
59963W        W32388   7.141  32.083  10.842
59964W        W32389  32.872  40.409   2.683
59965W        W32390  38.124  24.391  13.040
59966W        W32391   4.892  25.218  14.008
59967W        W32392   2.748  27.959   0.262
59968W        W32393  27.917  19.040   1.570
59969W        W32394  35.614  37.023   4.660
59970W        W32395  17.721   4.394  11.251
59971W        W32396   7.260  10.633   3.714
59972W        W32397  25.573  42.996   0.585
59973W        W32398  37.866   3.945   0.734
59974W        W32399  20.405  18.226  13.402
59975W        W32400  25.232  20.371   0.018
59976W        W32401   8.135  44.680   4.287
59977W        W32402  37.043  39.580   4.609
59978W        W32403  15.300  32.842  13.256
59979W        W32404  31.921  41.592  14.861
59980W        W32405  32.798   4.396   2.280
59981W        W32406  11.056  36.922  11.963
59982W        W32407  40.844  24.588   3.639
59983W        W32408  32.751  15.796  14.948
59984W        W32409  44.792  25.010  10.702
59985W        W32410  32.422   7.462   1.253
59986W        W32411  15.006  43.078  11.369
59987W        W32412  41.268  42.385   9.718
59988W        W32413   8.837  43.375  10.760
59989W        W32414  10.393  14.538   4.886
59990W        W32415  19.976  43.704   2.729
59991W        W32416  17.519  41.948  11.366
59992W        W32417  14.762  38.314   2.199
59993W        W32418  22.729  19.914  12.181
59994W        W32419  44.970  28.170   4.370
59995W        W32420  40.402   9.139  13.395
59996W        W32421  39.867  10.130  12.468
59997W        W32422   1.416  25.901  11.096
59998W        W32423  41.785  27.005   3.520
59999W        W32424  40.447   2.781   2.017
60000W        W32425   3.755   3.964  14.295
60001W        W32426  28.708   8.667  13.937
60002W        W32427  10.547   8.711  11.133
60003W        W32428  39.277   7.218  10.579
60004W        W32429  43.274  23.929  12.078
60005W        W32430  40.327  26.756   0.120
60006W        W32431  27.154  33.457  13.377
60007W        W32432  24.444  25.568  11.220
60008W        W32433  32.462  36.938  14.849
60009W        W32434  26.633  16.602  14.952
60010W        W32435   7.280  35.448   2.168
60011W        W32436  20.180  25.077  14.316
60012W        W32437   6.648  33.833   3.266
60013W        W32438   3.490  42.873   1.697
60014W        W32439  25.943  12.116   2.836
60015W        W32440  12.212  32.327   0.306
60016W        W32441  27.574  13.685   2.848
60017W        W32442  14.696  34.359   1.807
60018W        W32443  13.342   8.641   1.167
60019W        W32444  24.689  44.351  11.857
60020W        W32445   2.196  20.141  10.503
60021W        W32446  24.674  16.857   4.515
60022W        W32447   5.704  27.581   4.610
60023W        W32448   3.272  30.942   4.590
60024W        W32449   7.951  13.713  13.105
60025W        W32450  13.816   5.422   2.391
60026W        W32451   5.753   9.115  12.093
60027W        W32452  18.270  21.780  12.936
60028W        W32453  37.582  37.104  12.821
60029W        W32454   3.779  34.986  13.968
60030W        W32455   9.069   3.359  14.616
60031W        W32456  10.365  44.583  14.443
60032W        W32457  20.227   8.936  10.991
60033W        W32458  33.140  10.236  13.706
60034W        W32459   4.992  21.639   4.172
60035W        W32460  18.211  11.804  14.613
60036W        W32461  17.040  11.666  10.696
60037W        W32462  33.377  14.680  10.406
60038W        W32463  34.194  31.570   3.326
60039W        W32464  39.960  37.640  14.453
60040W        W32465   4.848  24.521  10.963
60041W        W32466   1.641  17.954   1.909
60042W        W32467   1.469  16.670   0.421
60043W        W32468  22.021   7.346   1.878
60044W        W32469   7.511  42.012  14.282
60045W        W32470  20.141  17.804   2.317
60046W        W32471  39.092   2.861   1.688
60047W        W32472   8.670  39.875   4.104
60048W        W32473   0.478  20.580   4.364
60049W        W32474  37.502  26.681   1.752
60050W        W32475  16.121  28.432  12.976
60051W        W32476   2.449  21.551   1.819
60052W        W32477  44.368  22.184   3.073
60053W        W32478  27.607  10.884   1.672
60054W        W32479  39.104  10.267  11.058
60055W        W32480  28.698  32.857   3.752
60056W        W32481   1.162  10.339  12.156
60057W        W32482  15.435  24.229   4.191
60058W        W32483  19.152  30.567   1.884
60059W        W32484  14.652  11.255   2.820
60060W        W32485  43.862  24.912  14.513
60061W        W32486  17.310  15.400  10.264
60062W        W32487  14.292  22.986  10.599
60063W        W32488   4.200  24.195   3.799
60064W        W32489  41.734   0.953   0.025
60065W        W32490  21.706  16.648  12.404
60066W        W32491  33.527  40.603   1.784
60067W        W32492  38.672  18.817  13.344
60068W        W32493   6.046   9.327  10.725
60069W        W32494   6.561   0.148  13.884
60070W        W32495  22.441  15.659   0.737
60071W        W32496   9.194  19.483   0.632
60072W        W32497  39.104   9.906   1.836
60073W        W32498  42.704  16.049  10.658
60074W        W32499  26.167  39.229  13.539
60075W        W32500  23.699   3.770  11.709
60076W        W32501  28.262   7.743  14.012
60077W        W32502  22.481  30.419  11.614
60078W        W32503   3.781   2.843   0.175
60079W        W32504  34.956  26.065  13.540
60080W        W32505   1.403  12.199   1.253
60081W        W32506  17.827  39.389  10.716
60082W        W32507  37.438  13.387   3.032
60083W        W32508   1.820   8.894  12.855
60084W        W32509  23.825  44.747   0.245
60085W        W32510  20.913  14.881  12.770
60086W        W32511  35.042   4.170  13.840
60087W        W32512  17.246  28.745   3.296
60088W        W32513  40.373  34.288   3.251
60089W        W32514  38.231  24.150   5.109
60090W        W32515  18.590  11.446  14.580
60091W        W32516   4.288  28.049  14.290
60092W        W32517  31.206  34.608  12.191
60093W        W32518  36.911  16.293   2.884
60094W        W32519  37.400  26.025  11.406
60095W        W32520  19.633  11.437  13.508
60096W        W32521   1.993  31.120   3.154
60097W        W32522  27.457  30.104  13.109
60098W        W32523  22.215  40.584  11.422
60099W        W32524  31.670  38.747   0.941
60100W        W32525  32.112  15.314   2.747
60101W        W32526  10.235  41.697   3.288
60102W        W32527  13.853  36.148   1.209
60103W        W32528   0.349  17.450   4.613
60104W        W32529  16.542  26.193   1.844
60105W        W32530   5.472  18.822   1.907
60106W        W32531  42.952  38.441   1.795
60107W        W32532  41.916   7.703  10.939
60108W        W32533  25.523  41.590  11.061
60109W        W32534  13.604  18.337  11.942
60110W        W32535  13.625  12.701   1.387
60111W        W32536  29.598  33.134  13.363
60112W        W32537  28.104  34.424   4.881
60113W        W32538   1.728  10.905  12.654
60114W        W32539  37.325  26.494  13.509
60115W        W32540  44.170   6.668  12.923
60116W        W32541  30.468  20.558  14.397
60117W        W32542  39.288  20.687   1.262
60118W        W32543  16.544  38.998   3.301
60119W        W32544  32.661   6.312  13.395
60120W        W32545   8.687   7.682  11.992
60121W        W32546   3.650   0.507  13.058
60122W        W32547  10.249  36.676  12.459
60123W        W32548  26.386  12.627  12.591
60124W        W32549  34.315   0.758  13.609
60125W        W32550   4.207  21.218  13.216
60126W        W32551  10.537   7.775   4.514
60127W        W32552  34.015  17.080   3.828
60128W        W32553  44.452  43.274   3.375
60129W        W32554   5.668  16.705   1.924
60130W        W32555  30.545  20.247   3.700
60131W        W32556  18.478  21.700  11.553
60132W        W32557  21.476  25.509  12.027
60133W        W32558  39.874   3.774  10.786
60134W        W32559  18.297  11.197   4.337
60135W        W32560  11.106  24.132  13.618
60136W        W32561   1.222   6.269  13.398
60137W        W32562  26.216  43.744   0.766
60138W        W32563  37.558  31.364   1.191
60139W        W32564  38.488  37.254   1.362
60140W        W32565   2.846  20.758   3.621
60141W        W32566   7.877  19.105   1.659
60142W        W32567  32.389   3.250   3.399
60143W        W32568  38.558  38.318  12.985
60144W        W32569  37.819  30.384   4.323
60145W        W32570   8.749   2.814  13.969
60146W        W32571  17.989   3.935   1.958
60147W        W32572  33.046   5.228  11.948
60148W        W32573  36.495  39.701  11.567
60149W        W32574  37.386  43.967  12.393
60150W        W32575  36.393  32.731   1.613
60151W        W32576  44.770  30.155   1.038
60152W        W32577   7.462   7.057  10.752
60153W        W32578  28.676  44.930  10.783
60154W        W32579  14.782  44.467   0.718
60155W        W32580  28.924   9.319  10.985
60156W        W32581  25.012  13.547   0.420
60157W        W32582  41.286  27.129   3.364
60158W        W32583  35.957   9.665  12.348
60159W        W32584  21.489  36.312  11.128
60160W        W32585  19.989   5.413   3.205
60161W        W32586  36.550  37.958   3.357
60162W        W32587  30.130   0.023   2.194
60163W        W32588  14.665  40.981  11.421
60164W        W32589   7.285  13.786   2.308
60165W        W32590  23.522  41.977   1.801
60166W        W32591  29.177  14.856   2.718
60167W        W32592  33.896  16.668   3.560
60168W        W32593  23.302  29.575   3.427
60169W        W32594   2.301  19.489   2.270
60170W        W32595   5.191  11.104   0.431
60171W        W32596  38.136  20.973  11.704
60172W        W32597   0.344  43.250  12.016
60173W        W32598  16.790  26.198  11.418
60174W        W32599   8.407  17.876  12.796
60175W        W32600   5.811   6.876   3.134
60176W        W32601   6.874  34.621  13.140
60177W        W32602  24.762  43.040   0.856
60178W        W32603  24.462  13.524  13.460
60179W        W32604  44.810  36.288  10.618
60180W        W32605   9.808  27.564  14.267
60181W        W32606  34.741  18.873   2.332
60182W        W32607  32.306   3.158  10.186
60183W        W32608  34.401  14.320  14.280
60184W        W32609  26.639  40.300   2.377
60185W        W32610  38.812   2.230   5.083
60186W        W32611  21.688   9.080   9.819
60187W        W32612   1.484  19.312  14.562
60188W        W32613  37.837   3.440   4.176
60189W        W32614  41.321  35.535  11.099
60190W        W32615   2.555  30.207  11.390
60191W        W32616  27.218  31.529  12.765
60192W        W32617  27.773  23.676  10.728
60193W        W32618   3.851   9.876   3.148
60194W        W32619   5.399  25.933  13.911
60195W        W32620  20.602  13.194   0.856
60196W        W32621   3.713  42.977  12.609
60197W        W32622   3.000   6.297  14.762
60198W        W32623   2.127  39.835  12.735
60199W        W32624  29.536  26.403  10.247
60200W        W32625  39.735  37.888  11.050
60201W        W32626  17.371  39.523  10.953
60202W        W32627   3.844  44.647   0.459
60203W        W32628  42.466  22.172   1.040
60204W        W32629  22.251   9.610  10.611
60205W        W32630  31.376  34.915   1.926
60206W        W32631  39.002  29.220  13.805
60207W        W32632  25.665   6.895   0.382
60208W        W32633  40.115  39.381   1.918
60209W        W32634   4.889  14.009   1.715
60210W        W32635  15.244  44.727  14.064
60211W        W32636  21.029   4.303  13.660
60212W        W32637  26.180  17.653   2.137
60213W        W32638   0.008   0.022  11.593
60214W        W32639  19.320  37.357  10.541
60215W        W32640  30.222   7.758   3.242
60216W        W32641  22.561  24.745   3.829
60217W        W32642  12.895  44.346   4.222
60218W        W32643   7.455  33.073   0.547
60219W        W32644  29.925  36.549  11.522
60220W        W32645   1.925   3.196   1.872
60221W        W32646   9.852  27.632  11.024
60222W        W32647  37.922   0.610  13.831
60223W        W32648  23.775  17.237   4.214
60224W        W32649  10.327  11.297  13.429
60225W        W32650  40.803  21.626  13.830
60226W        W32651  15.801  37.298   4.156
60227W        W32652  27.596   8.221  10.797
60228W        W32653  28.931  23.492   1.719
60229W        W32654  15.207   7.265   1.335
60230W        W32655  42.872  13.132  12.472
60231W        W32656  30.334  15.658  13.140
60232W        W32657  38.704  42.351  14.836
60233W        W32658   8.781  41.005  13.972
60234W        W32659   4.797  27.422   4.591
60235W        W32660   2.836  21.310  10.615
60236W        W32661  44.298  11.735   3.581
60237W        W32662  38.711  27.159   4.943
60238W        W32663  38.130  14.912   3.695
60239W        W32664  40.326   3.669  11.547
60240W        W32665  17.556  35.063   3.608
60241W        W32666  23.070  32.634   1.791
60242W        W32667   1.499  10.440  12.556
60243W        W32668  35.410  42.499   1.115
60244W        W32669  43.361  38.380   3.113
60245W        W32670  39.284  28.565   4.344
60246W        W32671   8.588  13.295   1.359
60247W        W32672  22.801  18.374  13.886
60248W        W32673  29.991  38.905   3.595
60249W        W32674  40.087  31.109  12.377
60250W        W32675  42.826  40.504   0.025
60251W        W32676  19.010  14.518   3.734
60252W        W32677  13.688  16.547  14.493
60253W        W32678  15.075  42.243  11.946
60254W        W32679  34.515  26.967  10.689
60255W        W32680  15.511  35.243  10.369
60256W        W32681  25.311  35.207   2.460
60257W        W32682  14.662  11.392   1.365
60258W        W32683  39.425   5.975   4.597
60259W        W32684  14.237  44.994  13.991
60260W        W32685  35.688  39.656   4.587
60261W        W32686  35.125  39.929  13.083
60262W        W32687  24.591  26.990   0.357
60263W        W32688  37.578  38.740   5.201
60264W        W32689  11.198  22.591   0.238
60265W        W32690  18.220  41.451  12.959
60266W        W32691  17.143  15.051   2.898
60267W        W32692  44.341  32.343  13.763
60268W        W32693  14.181  18.841  11.548
60269W        W32694  31.036  20.822  12.972
60270W        W32695  17.995  38.880  13.898
60271W        W32696  29.563  36.536  11.013
60272W        W32697  39.815  44.175   1.952
60273W        W32698  36.567  33.392   9.872
60274W        W32699  34.332  17.312  13.260
60275W        W32700  15.083  24.556  13.370
60276W        W32701  33.648  21.455  12.609
60277W        W32702  37.513  43.282   1.075
60278W        W32703  18.653  32.023  14.933
60279W        W32704  19.475  32.681   1.275
60280W        W32705  29.578  23.780   2.892
60281W        W32706  22.126   4.689   0.692
60282W        W32707   1.851   5.202  12.892
60283W        W32708  32.615  24.230   4.720
60284W        W32709  18.397  42.812  13.389
60285W        W32710  33.972  41.929  10.713
60286W        W32711  11.832  32.541  11.123
60287W        W32712  11.704  27.974  13.300
60288W        W32713  35.638  24.053   3.191
60289W        W32714  25.720  44.949  12.962
60290W        W32715  25.220  36.453   4.303
60291W        W32716  16.309  25.112  11.152
60292W        W32717   8.986  30.047   2.666
60293W        W32718  31.364  17.736   2.178
60294W        W32719  18.159  14.931   3.640
60295W        W32720  44.205  43.293   4.175
60296W        W32721  14.150  40.942   0.563
60297W        W32722  20.469  26.542   2.862
60298W        W32723  21.720  19.537  14.489
60299W        W32724   0.329  22.131   2.523
60300W        W32725  31.524  14.520   2.417
60301W        W32726   4.651  35.434  12.067
60302W        W32727  32.493  26.033  14.026
60303W        W32728  14.871  13.762  13.473
60304W        W32729  38.476  29.189   0.935
60305W        W32730  22.643   5.736   2.358
60306W        W32731  29.594  44.841   1.707
60307W        W32732  29.080  22.612  12.017
60308W        W32733  41.342  32.513   3.168
60309W        W32734  19.335  37.568   1.352
60310W        W32735  37.347   1.821  10.737
60311W        W32736  23.045  11.109   2.896
60312W        W32737  24.690  32.316   0.875
60313W        W32738  20.384  11.410  12.512
60314W        W32739   1.485  15.380   4.655
60315W        W32740  25.074  18.258  11.250
60316W        W32741  11.259  31.248   3.230
60317W        W32742  27.406  36.849  12.944
60318W        W32743  40.248  23.600  14.297
60319W        W32744  40.425  40.765   1.882
60320W        W32745  33.168   0.816  11.342
60321W        W32746  14.847  21.576   2.844
60322W        W32747   3.522  12.842  11.582
60323W        W32748   6.283  10.084   4.492
60324W        W32749  25.516  16.793  10.446
60325W        W32750  44.095   3.445  10.930
60326W        W32751  23.369   0.337  13.906
60327W        W32752  20.297  41.434   3.714
60328W        W32753  37.503   9.623   3.836
60329W        W32754   9.133  17.694   3.269
60330W        W32755  31.072  31.106  12.442
60331W        W32756  14.786  25.972  12.865
60332W        W32757  33.845  40.250   4.003
60333W        W32758   9.333  23.818   1.391
60334W        W32759  12.267  23.371  10.584
60335W        W32760   5.020  10.318   1.767
60336W        W32761   5.803  13.058   0.423
60337W        W32762  44.072  11.840   2.241
60338W        W32763  34.605  20.988   0.129
60339W        W32764   4.389   8.370  10.712
60340W        W32765  38.345  11.541   1.790
60341W        W32766  36.379  14.124  13.352
60342W        W32767  22.500  29.479   0.667
60343W        W32768  10.877  28.541   4.770
60344W        W32769  18.198  18.264  13.586
60345W        W32770   8.262  24.444  12.551
60346W        W32771  35.082  31.567   0.798
60347W        W32772  43.341  38.891   4.272
60348W        W32773  36.055  24.520  14.512
60349W        W32774  40.347  39.844  14.372
60350W        W32775   3.184  28.624   2.406
60351W        W32776  24.352  25.031   0.731
60352W        W32777  30.661   3.254  11.112
60353W        W32778  32.165  33.076   4.160
60354W        W32779  32.921   7.918  10.776
60355W        W32780  24.181  18.469  13.024
60356W        W32781  43.793  31.645  14.214
60357W        W32782  33.792  21.099   0.981
60358W        W32783  19.337  25.147  11.546
60359W        W32784  30.186  43.786   4.208
60360W        W32785  37.537  33.974  14.900
60361W        W32786  24.548   3.321  10.923
60362W        W32787  35.532  24.485  14.477
60363W        W32788  13.646  15.088   2.303
60364W        W32789  22.466  33.934  13.908
60365W        W32790   4.264  36.955  11.072
60366W        W32791  21.323  40.810   3.220
60367W        W32792  42.449   3.278  13.876
60368W        W32793  40.875  39.031   3.242
60369W        W32794  29.972  27.525   3.264
60370W        W32795  12.208  42.375  12.492
60371W        W32796   4.023   9.203  14.795
60372W        W32797   9.951  13.813   1.779
60373W        W32798  13.996  11.888  13.445
60374W        W32799  10.661  11.271   3.671
60375W        W32800  23.216  19.735  12.049
60376W        W32801  22.053   3.843  14.106
60377W        W32802  21.108  11.750  13.573
60378W        W32803  20.013  26.711  10.542
60379W        W32804   8.302   3.419  10.295
60380W        W32805  13.700  28.298   0.116
60381W        W32806  19.829  10.346  10.633
60382W        W32807  24.097  40.547  13.910
60383W        W32808  10.739   6.649   0.752
60384W        W32809  14.588  41.320   1.696
60385W        W32810  21.929  40.551   4.085
60386W        W32811   1.424  14.298  13.533
60387W        W32812  38.633   4.816  10.553
60388W        W32813  28.631  11.129  14.024
60389W        W32814  22.096  13.437   2.467
60390W        W32815  17.356   3.480  13.551
60391W        W32816   6.441  37.779  14.536
60392W        W32817  16.549  38.869   0.237
60393W        W32818  21.145  36.971  14.034
60394W        W32819  33.317  41.068   1.808
60395W        W32820   2.031   4.910   2.156
60396W        W32821  24.910  20.726   4.721
60397W        W32822  12.135  35.624   2.202
60398W        W32823  31.395   5.682  10.763
60399W        W32824  23.105  10.517  14.379
60400W        W32825  35.752  42.498  13.958
60401W        W32826  13.120  13.791   4.107
60402W        W32827  17.365  23.073  10.229
60403W        W32828  25.900  25.044   3.541
60404W        W32829  31.935  35.881   2.762
60405W        W32830  33.588  20.231   3.555
60406W        W32831  31.566  29.719   1.784
60407W        W32832  37.079  29.653  13.417
60408W        W32833  36.391  16.104   1.823
60409W        W32834   7.852   7.020   1.942
60410W        W32835  31.718  17.161   2.800
60411W        W32836  21.740  30.380  13.617
60412W        W32837  12.770  23.085  10.507
60413W        W32838  34.442  44.702  12.141
60414W        W32839   4.317  17.743   2.749
60415W        W32840  28.190  27.163  13.363
60416W        W32841  25.077  14.862   4.162
60417W        W32842  36.843  16.077  13.448
60418W        W32843  34.137  23.902   1.606
60419W        W32844   6.577  13.197   1.337
60420W        W32845   0.252  35.852  10.714
60421W        W32846  32.810  40.846   1.738
60422W        W32847  33.741  44.449   1.432
60423W        W32848   6.833   9.438   4.253
60424W        W32849  29.736  28.498   1.505
60425W        W32850  29.163  41.854   4.534
60426W        W32851  35.441  19.680   0.284
60427W        W32852  26.645  20.201   4.083
60428W        W32853  20.575  12.262  13.990
60429W        W32854  13.104  41.748  14.022
60430W        W32855  43.953  29.542   4.458
60431W        W32856  33.108   5.639   2.692
60432W        W32857  31.900  26.225   2.104
60433W        W32858  20.708  30.902  13.297
60434W        W32859  30.665  33.673   0.660
60435W        W32860  23.214  14.822  12.110
60436W        W32861  10.916  36.432  11.426
60437W        W32862  14.890   9.389   1.443
60438W        W32863  32.937   0.872  13.306
60439W        W32864  11.660   5.870   2.426
60440W        W32865  33.551  11.720  10.476
60441W        W32866  13.553  10.709  13.839
60442W        W32867  41.369  31.019   2.367
60443W        W32868   6.794  22.907   4.071
60444W        W32869  37.593  38.145   2.407
60445W        W32870  15.314  17.218   4.564
60446W        W32871   7.747  29.177  14.229
60447W        W32872   5.386  36.908  13.339
60448W        W32873  31.501  42.010  11.239
60449W        W32874   8.121  23.352   4.102
60450W        W32875  42.523  27.743  13.119
60451W        W32876  43.336  22.159   4.097
60452W        W32877  12.073  39.365   2.779
60453W        W32878  19.125  34.490   1.191
60454W        W32879  16.681   0.239  11.556
60455W        W32880  39.511  17.069  13.094
60456W        W32881  35.051  24.140   2.467
60457W        W32882  41.269  20.703  12.951
60458W        W32883  19.836  34.448  11.526
60459W        W32884  24.558  27.710   0.799
60460W        W32885   1.308  30.135  13.333
60461W        W32886   2.361  24.913   5.080
60462W        W32887   4.400   5.736   2.374
60463W        W32888  21.767  25.579   3.743
60464W        W32889  23.963  10.348   1.292
60465W        W32890   3.887   1.295   4.522
60466W        W32891  39.343   1.921   3.557
60467W        W32892   0.391  18.593   1.826
60468W        W32893  15.374  19.206  12.028
60469W        W32894  28.114  30.104  10.331
60470W        W32895  31.227   9.573  14.955
60471W        W32896  21.195  15.972  14.701
60472W        W32897  38.373  22.533  10.831
60473W        W32898  19.610  12.073   3.696
60474W        W32899   8.331  28.298  11.242
60475W        W32900   7.818  24.915   2.240
60476W        W32901  30.627  17.654  10.949
60477W        W32902  35.368  34.943   0.831
60478W        W32903   5.414  25.222   4.091
60479W        W32904  12.153  13.399   3.784
60480W        W32905  15.697  12.762   0.736
60481W        W32906  20.607  40.982   2.569
60482W        W32907  13.524  37.620  13.743
60483W        W32908   5.686  35.608   4.684
60484W        W32909   9.911   1.038   0.923
60485W        W32910  20.203  44.753  11.167
60486W        W32911  43.523   2.267  11.485
60487W        W32912  14.575   6.317   4.686
60488W        W32913  29.652   7.442   1.305
60489W        W32914  44.535  36.049  14.883
60490W        W32915  34.835  21.223  10.809
60491W        W32916  22.647  38.863   5.474
60492W        W32917   3.429  28.628   4.332
60493W        W32918  23.590   6.200   2.310
60494W        W32919  35.358  15.557   4.309
60495W        W32920  20.696  34.798   2.557
60496W        W32921  22.209   9.415   1.882
60497W        W32922  29.995  43.901  13.223
60498W        W32923  40.544  26.705  10.684
60499W        W32924   4.044   8.618  12.213
60500W        W32925  41.296  22.695   4.373
60501W        W32926   1.443  24.443  13.772
60502W        W32927  26.674  10.264   1.790
60503W        W32928  25.101  36.029   1.250
60504W        W32929  39.936  10.603   3.776
60505W        W32930  32.812  39.583  14.825
60506W        W32931  32.918  13.068  12.334
60507W        W32932  25.361  24.380   2.338
60508W        W32933  16.718  12.651  11.088
60509W        W32934  14.766  23.079  12.835
60510W        W32935  29.283  23.128   4.755
60511W        W32936  43.848  25.230   1.672
60512W        W32937  16.110  16.702  10.402
60513W        W32938  29.449  42.346  12.907
60514W        W32939  10.841  25.517  11.592
60515W        W32940  11.321  38.265  14.635
60516W        W32941  42.774  34.299  14.911
60517W        W32942  37.495   5.547   1.381
60518W        W32943  22.083  13.940  14.263
60519W        W32944   9.729   5.951  10.593
60520W        W32945  42.344  24.312  12.058
60521W        W32946  25.472  42.104  11.116
60522W        W32947  14.920  28.362   1.659
60523W        W32948  26.563  28.920   2.337
60524W        W32949   2.548  17.710   1.612
60525W        W32950  29.335  34.067  12.264
60526W        W32951  34.136  43.959  12.547
60527W        W32952   9.310   0.155  13.396
60528W        W32953  36.206  38.678   4.142
60529W        W32954  42.199  23.484  11.455
60530W        W32955   1.203   2.012  11.774
60531W        W32956  41.271  12.368   4.213
60532W        W32957  11.574  11.616   2.717
60533W        W32958  40.662  26.477  11.581
60534W        W32959  34.543  32.222   3.839
60535W        W32960  15.285  18.583   0.793
60536W        W32961  17.814  32.957   0.192
60537W        W32962  27.211  16.270   1.075
60538W        W32963  15.596   1.880   1.625
60539W        W32964  11.659  28.506  11.546
60540W        W32965   4.723  11.097   4.705
60541W        W32966  23.215  32.348  14.212
60542W        W32967  41.856  23.571  13.635
60543W        W32968  24.541  16.707   0.079
60544W        W32969  25.596   2.554  11.140
60545W        W32970  43.009  13.112   5.112
60546W        W32971   1.502   7.227   0.691
60547W        W32972  15.353  12.358  11.050
60548W        W32973  36.887   1.426   3.405
60549W        W32974  37.346   3.758   3.200
60550W        W32975  15.369   1.421   0.960
60551W        W32976  32.578  40.962   3.377
60552W        W32977  24.905  21.677  14.939
60553W        W32978  29.386  20.610  13.383
60554W        W32979  25.970  32.519   0.702
60555W        W32980  19.815  23.205  11.922
60556W        W32981   0.585  27.062   3.838
60557W        W32982   5.814  17.054   2.278
60558W        W32983  32.550  35.926  14.273
60559W        W32984   8.115  15.850  12.028
60560W        W32985  11.941  14.539   2.440
60561W        W32986  34.037  36.802  13.379
60562W        W32987  20.957  22.633  14.352
60563W        W32988  24.553  26.199  14.840
60564W        W32989   6.911  12.110   3.841
60565W        W32990  31.940  38.401  12.959
60566W        W32991   8.939   1.656  13.358
60567W        W32992  12.277  35.963  12.701
60568W        W32993  36.942  23.184   3.222
60569W        W32994  17.598  30.456  11.153
60570W        W32995  31.160   6.436  12.923
60571W        W32996  29.407  39.578   3.169
60572W        W32997  23.035  27.258  13.823
60573W        W32998  21.339  28.075  13.976
60574W        W32999  12.845  18.685   4.758
60575W        W33000  11.752  18.847   0.066
60576W        W33001  19.493  30.811  13.073
60577W        W33002  41.758  10.482   2.610
60578W        W33003   4.003  37.130   3.288
60579W        W33004  31.866  22.321  12.120
60580W        W33005  44.671  44.502   2.831
60581W        W33006  11.312  19.723   4.358
60582W        W33007  26.967  11.317   3.679
60583W        W33008  25.892  32.435   2.019
60584W        W33009  44.238   1.546   1.688
60585W        W33010  23.293  33.627   1.876
60586W        W33011  29.655  44.670  14.302
60587W        W33012  42.084  43.889  12.968
60588W        W33013  17.106  19.540   0.011
60589W        W33014   7.405  15.580  10.730
60590W        W33015  28.223   8.332   0.346
60591W        W33016  43.029  10.888   1.645
60592W        W33017  21.458  29.727   0.370
60593W        W33018  39.277   2.052  14.261
60594W        W33019   8.885  43.834  12.508
60595W        W33020  19.549  30.361   0.537
60596W        W33021  13.000  17.656  10.634
60597W        W33022   7.114   1.389   3.843
60598W        W33023   2.862  24.406  11.915
60599W        W33024  37.133  38.190  12.997
60600W        W33025  24.674   7.332  13.018
60601W        W33026  21.699  23.690   4.927
60602W        W33027  29.954  15.734  12.279
60603W        W33028  43.384  23.060   4.772
60604W        W33029  27.412  22.096  11.374
60605W        W33030   7.598  36.545   1.209
60606W        W33031  35.660  18.056   2.336
60607W        W33032  40.119  22.549   2.835
60608W        W33033  23.453  30.808   4.533
60609W        W33034  41.586  14.877   1.882
60610W        W33035  13.546   5.432   3.266
60611W        W33036  16.633  26.583   0.507
60612W        W33037  43.745  31.478  14.684
60613W        W33038   8.439  10.803  13.023
60614W        W33039   6.462   4.887   0.326
60615W        W33040   6.655  35.474   2.148
60616W        W33041   5.373  40.066  12.925
60617W        W33042   7.850  36.400   2.796
60618W        W33043   0.654  22.571  11.435
60619W        W33044  13.218   1.238   1.523
60620W        W33045  15.768  41.481  14.903
60621W        W33046  22.385  41.096   9.883
60622W        W33047   2.937  25.565  13.101
60623W        W33048  19.441  31.439   2.764
60624W        W33049  26.524  24.275  13.001
60625W        W33050  40.500  10.548  10.700
60626W        W33051  28.197  24.920  12.136
60627W        W33052  14.270   6.741   2.593
60628W        W33053  31.532  38.109  13.962
60629W        W33054   8.331  24.165   0.030
60630W        W33055  22.207  11.106  13.052
60631W        W33056  16.629   4.865   4.663
60632W        W33057  38.544   3.890  12.892
60633W        W33058  16.392  20.966   0.767
60634W        W33059   6.860   6.728  13.790
60635W        W33060  21.069  36.635   4.079
60636W        W33061  20.633   7.941  13.833
60637W        W33062   8.442  37.653   1.720
60638W        W33063  18.697  43.826  13.331
60639W        W33064  36.133  10.653  11.855
60640W        W33065  44.881   8.604  14.426
60641W        W33066  12.804   9.693  12.939
60642W        W33067  24.048   8.374   4.141
60643W        W33068  21.811  13.549  10.591
60644W        W33069  28.758  40.931  11.952
60645W        W33070  18.100  34.619   2.261
60646W        W33071  27.462   8.596  13.976
60647W        W33072  36.200  41.566  12.965
60648W        W33073  13.601  25.633   2.129
60649W        W33074  29.528  22.731  13.333
60650W        W33075  29.001  40.466   3.072
60651W        W33076  11.233  16.661   2.317
60652W        W33077  39.809  12.655  10.871
60653W        W33078   2.456   8.356   4.549
60654W        W33079  16.866  20.473  13.273
60655W        W33080  23.900  10.895   3.244
60656W        W33081  32.913  19.042  12.453
60657W        W33082  31.887  31.052   4.047
60658W        W33083  11.339  17.812   0.832
60659W        W33084  28.962  14.536   4.400
60660W        W33085  27.719  40.864  11.967
60661W        W33086  14.668  17.294  12.478
60662W        W33087  13.205   8.861   2.675
60663W        W33088  15.999  27.354  11.658
60664W        W33089  41.381  17.872   4.756
60665W        W33090  25.484  16.197  12.535
60666W        W33091   7.910   7.750  10.272
60667W        W33092  36.945  10.397   1.452
60668W        W33093  31.286  23.700  14.564
60669W        W33094  34.375  25.026  11.357
60670W        W33095  19.255  39.678   1.166
60671W        W33096   5.318   5.635   4.530
60672W        W33097  15.711  31.526   3.935
60673W        W33098  33.287  13.265  14.771
60674W        W33099  16.187   3.739   4.721
60675W        W33100  34.434  34.335  11.442
60676W        W33101  37.337  10.234  11.363
60677W        W33102  23.206  43.728  10.930
60678W        W33103  24.031   6.195  14.557
60679W        W33104  25.848  28.506  12.540
60680W        W33105   5.803  39.487  14.919
60681W        W33106  27.825   5.710  11.132
60682W        W33107  40.379  43.354  13.857
60683W        W33108  21.664  12.802  12.056
60684W        W33109   3.292  42.349  10.705
60685W        W33110  36.997  17.730  14.386
60686W        W33111  13.037  22.866   3.716
60687W        W33112  41.098  44.471   3.626
60688W        W33113   2.019  32.919  10.863
60689W        W33114  37.590  21.479  10.708
60690W        W33115   3.466  37.574  13.974
60691W        W33116  39.923  21.742  14.345
60692W        W33117   2.992  28.135   1.220
60693W        W33118   6.857  42.553  14.569
60694W        W33119   1.611  11.417  14.473
60695W        W33120  35.430  21.452   1.384
60696W        W33121   1.375  41.987  12.025
60697W        W33122  21.246   0.869  12.974
60698W        W33123   4.209  44.053  11.276
60699W        W33124  12.877  25.758   2.911
60700W        W33125   3.716   8.272  13.333
60701W        W33126  31.885  25.466  11.901
60702W        W33127   5.752  16.097  13.552
60703W        W33128  28.394  24.507  14.839
60704W        W33129   4.847  11.280  14.378
60705W        W33130  13.576  21.682   5.129
60706W        W33131  26.463  30.876  11.501
60707W        W33132   7.958  23.758   0.731
60708W        W33133   0.319  13.180   2.196
60709W        W33134  10.761  38.299   0.340
60710W        W33135   1.968  16.231  13.968
60711W        W33136  28.215  35.493  14.329
60712W        W33137   7.267  21.677  14.308
60713W        W33138   3.018  44.765   1.924
60714W        W33139  31.855  30.867  13.040
60715W        W33140  22.276   5.782   1.628
60716W        W33141  42.267  43.110  11.837
60717W        W33142   9.411  11.444   2.894
60718W        W33143   7.083  12.132  10.789
60719W        W33144   3.443  13.872   1.649
60720W        W33145   0.241  35.286   2.681
60721W        W33146  22.253   5.306  11.828
60722W        W33147  30.987  27.441  14.040
60723W        W33148  10.281  38.258  13.882
60724W        W33149  14.373  19.288  11.737
60725W        W33150  32.730   4.825  14.965
60726W        W33151  19.004  33.333  12.870
60727W        W33152   4.763  26.194  10.575
60728W        W33153   0.416  42.126   2.083
60729W        W33154  11.358  27.501   4.407
60730W        W33155   0.496  13.790   3.322
60731W        W33156  38.917  36.486   3.200
60732W        W33157   8.658  16.822   3.265
60733W        W33158  40.071   0.820   4.700
60734W        W33159  17.570   6.266   2.471
60735W        W33160  10.674  16.244  14.352
60736W        W33161  43.502  34.166   3.179
60737W        W33162  12.708  26.760   0.217
60738W        W33163  41.934  31.352  13.930
60739W        W33164  32.459  16.483   2.398
60740W        W33165  18.183  26.333   1.385
60741W        W33166  28.004  15.320  10.905
60742W        W33167   9.380   6.622   0.259
60743W        W33168  35.625  35.817  14.516
60744W        W33169  13.765   4.705  14.887
60745W        W33170  27.031   6.852   3.609
60746W        W33171  20.045  24.473   3.104
60747W        W33172   0.957  22.110  14.928
60748W        W33173   4.892  30.841   3.753
60749W        W33174   9.936  26.964  12.535
60750W        W33175  24.523   7.680  10.994
60751W        W33176  24.722   8.708   3.555
60752W        W33177   5.004   1.238  12.428
60753W        W33178  41.721  16.194   2.373
60754W        W33179   5.674  31.875   4.099
60755W        W33180  27.240  32.988   0.752
60756W        W33181  30.952  41.027  10.746
60757W        W33182  42.515  22.825  13.116
60758W        W33183  11.884  10.727  10.562
60759W        W33184   4.822  35.363  11.591
60760W        W33185  30.191   0.574   3.831
60761W        W33186  22.515   7.574  13.887
60762W        W33187  18.359  26.631   5.021
60763W        W33188  28.035  39.593  11.649
60764W        W33189  17.566  23.779   1.501
60765W        W33190  26.126  26.191   3.274
60766W        W33191  39.078   9.316  10.531
60767W        W33192  35.745   4.746  12.175
60768W        W33193  23.135  10.196  11.891
60769W        W33194   2.025  28.363   1.873
60770W        W33195  10.224   8.625  11.638
60771W        W33196  30.577  26.585  12.508
60772W        W33197   4.200  39.977   1.266
60773W        W33198   1.542  14.112  11.068
60774W        W33199  30.444  16.409  10.316
60775W        W33200  31.418  40.304  11.878
60776W        W33201   6.142  19.743   3.674
60777W        W33202  18.549  39.388   2.310
60778W        W33203  10.590   8.706   1.456
60779W        W33204  44.916  23.977   3.305
60780W        W33205  16.628  29.680   1.985
60781W        W33206   0.822  33.056  12.927
60782W        W33207  14.884   3.234  12.580
60783W        W33208   1.317  20.634   4.486
60784W        W33209  36.396  39.466   2.417
60785W        W33210  19.856  10.408  14.301
60786W        W33211  29.579  41.453  14.679
60787W        W33212  21.025  23.173   4.214
60788W        W33213  25.149  35.953   2.209
60789W        W33214  35.927   5.192  10.524
60790W        W33215   2.390  39.895   0.302
60791W        W33216  33.686  18.172   3.142
60792W        W33217  21.214  31.230   4.292
60793W        W33218  25.068   7.167   2.148
60794W        W33219  37.705  20.725  11.341
60795W        W33220  35.332  20.408   1.492
60796W        W33221  23.007   9.334  11.426
60797W        W33222   4.051  35.967   2.139
60798W        W33223  29.538  31.200  11.637
60799W        W33224  13.153  19.563  12.423
60800W        W33225   1.126  43.334  13.341
60801W        W33226  23.314   9.342   4.335
60802W        W33227  32.484  17.000  13.880
60803W        W33228  22.554  15.633  12.046
60804W        W33229  39.305  22.959  13.236
60805W        W33230  33.127   4.870  12.370
60806W        W33231   8.854  13.405  13.490
60807W        W33232  37.123  24.056  13.989
60808W        W33233  43.313  41.353  14.759
60809W        W33234   3.278  40.360  13.600
60810W        W33235  20.068  15.228  11.622
60811W        W33236   1.833  34.009  12.365
60812W        W33237  43.129  37.946  12.965
60813W        W33238  43.601  43.119   3.987
60814W        W33239  31.089   6.251  11.577
60815W        W33240   8.148   5.717  10.928
60816W        W33241   6.934  26.223  14.132
60817W        W33242   9.850   9.311   5.464
60818W        W33243  35.582  17.827   3.000
60819W        W33244  41.380  11.332  14.855
60820W        W33245  30.145  21.081  11.075
60821W        W33246  35.651  34.637  13.103
60822W        W33247  25.463  22.634   2.699
60823W        W33248  15.613  44.204  11.693
60824W        W33249  28.382  33.570  13.004
60825W        W33250  24.076  17.731  14.969
60826W        W33251  10.090  33.191   4.659
60827W        W33252   4.740  24.109   3.720
60828W        W33253  34.368  20.248   3.102
60829W        W33254   1.191   7.507  11.965
60830W        W33255   5.761  27.599   1.821
60831W        W33256  17.639  34.219  10.436
60832W        W33257  28.458  36.774   3.237
60833W        W33258  39.347  21.596  12.074
60834W        W33259  15.694   8.294  14.082
60835W        W33260  42.290  17.072   0.883
60836W        W33261  20.265  32.795  10.621
60837W        W33262  25.115  25.373  12.846
60838W        W33263  39.955  43.633  13.768
60839W        W33264  41.792  12.597   0.734
60840W        W33265  43.957  34.871  13.948
60841W        W33266  23.619  23.163  13.506
60842W        W33267  17.703  10.243  13.747
60843W        W33268  37.078   5.452  14.267
60844W        W33269  40.492  13.307  14.912
60845W        W33270  38.403  20.580   4.042
60846W        W33271  14.611  27.170   5.099
60847W        W33272  20.570  36.615  12.032
60848W        W33273  18.612  23.975  11.231
60849W        W33274  22.173  37.960   0.868
60850W        W33275   1.351   4.491   9.884
60851W        W33276  36.545  29.005   4.615
60852W        W33277  13.668  33.090   0.285
60853W        W33278  37.463  32.898  14.932
60854W        W33279  30.697  26.998  11.565
60855W        W33280  31.739   7.006   0.243
60856W        W33281  33.080  35.659   1.108
60857W        W33282  33.870  44.865  13.704
60858W        W33283  33.123  15.797   2.095
60859W        W33284  15.893  11.815   2.645
60860W        W33285  28.062  14.731  11.575
60861W        W33286  14.076  30.694   3.759
60862W        W33287  10.860  19.643  12.475
60863W        W33288  19.628  21.718  12.621
60864W        W33289  38.065  11.787  14.789
60865W        W33290  34.390   7.134   4.683
60866W        W33291  34.096  20.675   0.910
60867W        W33292  12.826   3.704   0.313
60868W        W33293  32.314  44.921   0.319
60869W        W33294  29.906  29.493   3.413
60870W        W33295  11.530  44.225  12.277
60871W        W33296  26.653   0.675   5.076
60872W        W33297  12.830  40.913   1.332
60873W        W33298   1.981  15.522  12.073
60874W        W33299  38.052  33.072  12.147
60875W        W33300  37.057  33.121  11.279
60876W        W33301  38.834  41.011  12.503
60877W        W33302  34.769  17.652  10.942
60878W        W33303  19.457  25.406   0.351
60879W        W33304  10.466  23.886  12.045
60880W        W33305  12.347   5.899  12.861
60881W        W33306  31.328  18.124  13.558
60882W        W33307   7.894   0.252   3.724
60883W        W33308   7.659   7.849   0.908
60884W        W33309  25.362  40.380  13.434
60885W        W33310  41.981  22.910   2.669
60886W        W33311   6.945  27.515   2.969
60887W        W33312  38.502  44.594  12.047
60888W        W33313  22.106  10.162  13.757
60889W        W33314  36.608  16.535   4.077
60890W        W33315   2.952  21.628  14.005
60891W        W33316  37.853  16.193   3.072
60892W        W33317  18.188  29.884   5.427
60893W        W33318  39.365  10.220  10.112
60894W        W33319  28.734  44.019  11.021
60895W        W33320   9.033  10.641   2.676
60896W        W33321  35.098  17.805   2.712
60897W        W33322  16.668  42.453   1.781
60898W        W33323   6.300  25.445  13.839
60899W        W33324  15.068  32.113   4.886
60900W        W33325  28.995  39.419  13.642
60901W        W33326   8.258  10.332   0.048
60902W        W33327  29.284  37.957  12.081
60903W        W33328  10.717  40.943   5.016
60904W        W33329  18.526  23.974   2.204
60905W        W33330  11.339  19.727   4.875
60906W        W33331  38.974  43.257   5.164
60907W        W33332  38.531   5.071   4.104
60908W        W33333  34.517  20.685  12.780
60909W        W33334  30.142  40.012  12.608
60910W        W33335   1.166  18.138   1.823
60911W        W33336  29.208  19.742   0.810
60912W        W33337   7.704  18.956   1.188
60913W        W33338  43.898  15.760   4.939
60914W        W33339  38.070  21.094   2.431
60915W        W33340  36.107  16.172  13.969
60916W        W33341  39.307  24.649   4.459
60917W        W33342  28.100  22.705   1.558
60918W        W33343  10.816  23.867   3.441
60919W        W33344  10.631  14.642  12.470
60920W        W33345  11.638  21.650  12.953
60921W        W33346  39.846  16.547   0.731
60922W        W33347  15.054  41.537   1.413
60923W        W33348  44.796  39.782  13.983
60924W        W33349  17.123  36.175  11.261
60925W        W33350  41.318  41.859   0.376
60926W        W33351  31.030   8.765   4.193
60927W        W33352  16.529   7.704  11.603
60928W        W33353  43.905  18.261   1.980
60929W        W33354  28.979  15.329   2.727
60930W        W33355   6.673  41.967   0.443
60931W        W33356  17.237  13.629  10.483
60932W        W33357   7.150  12.838  14.299
60933W        W33358  12.226   6.369   0.446
60934W        W33359  29.103   4.915   1.685
60935W        W33360  13.976   1.979   1.003
60936W        W33361  35.061  16.138  11.407
60937W        W33362  19.044  24.585   3.704
60938W        W33363  19.331  27.564  12.364
60939W        W33364  22.034   1.456  14.052
60940W        W33365   4.531  31.057   4.616
60941W        W33366  17.460  31.983   3.786
60942W        W33367  44.732  25.133   2.798
60943W        W33368  43.946  24.214   1.386
60944W        W33369   6.087   3.281  13.468
60945W        W33370  13.461  22.913  13.309
60946W        W33371  38.007  43.210   5.009
60947W        W33372  23.106  40.431   2.964
60948W        W33373  13.900  20.576  13.033
60949W        W33374   4.086   0.418  13.451
60950W        W33375  20.129  19.258  12.086
60951W        W33376  42.009  12.350   4.668
60952W        W33377  26.194   0.401  13.564
60953W        W33378   9.180  21.050  11.077
60954W        W33379  26.231  31.082  10.322
60955W        W33380   0.257  35.603   3.119
60956W        W33381  21.232   1.892   1.835
60957W        W33382   2.853   8.901   1.936
60958W        W33383  42.970   5.247   4.092
60959W        W33384  35.607  16.484  14.829
60960W        W33385  19.599  27.664  13.853
60961W        W33386  28.717  38.031  14.313
60962W        W33387  24.197  30.779  14.918
60963W        W33388  18.115   8.767   2.853
60964W        W33389  32.306   3.967   4.109
60965W        W33390  11.650  39.563  12.915
60966W        W33391  40.513   3.403   3.643
60967W        W33392  40.264   1.756  14.378
60968W        W33393  28.652  24.011  14.020
60969W        W33394  28.391   0.592   0.951
60970W        W33395  37.718   6.863  10.819
60971W        W33396  35.004  27.512  14.266
60972W        W33397  19.712   0.480   1.404
60973W        W33398   3.244  34.627   1.321
60974W        W33399  14.278  35.888  14.601
60975W        W33400  34.666   8.263  12.760
60976W        W33401  22.037  32.605   2.862
60977W        W33402  11.921   7.173  14.550
60978W        W33403  43.522  22.300   3.103
60979W        W33404  12.203   5.969   4.126
60980W        W33405  30.004  21.538  10.877
60981W        W33406  25.463  25.594  12.501
60982W        W33407   7.741  25.924   2.327
60983W        W33408  40.072  21.464  13.357
60984W        W33409  26.573  23.489   0.091
60985W        W33410  31.657  10.758  12.420
60986W        W33411   4.138   0.619  12.991
60987W        W33412  11.163  25.160  13.465
60988W        W33413  33.991  23.214   0.198
60989W        W33414  11.743   6.641   2.927
60990W        W33415  28.459  35.401  10.774
60991W        W33416   8.149  15.266   1.760
60992W        W33417  25.122   7.659   0.361
60993W        W33418  10.217  21.751   0.382
60994W        W33419   1.874  29.397   1.011
60995W        W33420  32.828  37.477  11.603
60996W        W33421   5.531  39.466   3.898
60997W        W33422  12.235   5.152  14.782
60998W        W33423  22.300  21.131   0.324
60999W        W33424  23.051  41.029  11.059
61000W        W33425  44.369  24.463  13.388
61001W        W33426  36.283  16.646   1.799
61002W        W33427  17.877  17.203  12.039
61003W        W33428  21.541  20.700   3.439
61004W        W33429  16.628  42.626  10.784
61005W        W33430  12.261   2.780  13.081
61006W        W33431  16.710  13.279   4.576
61007W        W33432  21.693  44.846   1.012
61008W        W33433  13.885  10.334  14.027
61009W        W33434  12.556  14.616   1.687
61010W        W33435  41.445   6.620  14.775
61011W        W33436  24.738  27.145  11.072
61012W        W33437  29.379   6.977   4.579
61013W        W33438  39.814  43.315  14.939
61014W        W33439  29.618  12.540   3.820
61015W        W33440  28.477  15.160  14.535
61016W        W33441  22.047  16.618   3.453
61017W        W33442  25.564  41.114  12.918
61018W        W33443  19.062  10.284   1.486
61019W        W33444  16.477  44.261   4.612
61020W        W33445   5.359  41.657  14.869
61021W        W33446   8.199  16.253   0.643
61022W        W33447  10.529  44.302   9.623
61023W        W33448  37.130  28.699   3.710
61024W        W33449  33.545  18.726  13.437
61025W        W33450  42.197  34.402  11.504
61026W        W33451  28.122  37.003  12.853
61027W        W33452   9.395  11.878   1.951
61028W        W33453  39.282  25.711  13.222
61029W        W33454  38.872  24.473   3.602
61030W        W33455  31.656   9.225   0.041
61031W        W33456   6.662   1.541  11.524
61032W        W33457  22.564  30.019  10.616
61033W        W33458  34.853  21.093  11.587
61034W        W33459  41.460  20.541  11.174
61035W        W33460  13.263  27.146  12.322
61036W        W33461  36.025  44.744  14.774
61037W        W33462  23.771  29.897  11.740
61038W        W33463   1.845  28.005   3.162
61039W        W33464  42.293  23.282  12.454
61040W        W33465   6.643  20.739   0.951
61041W        W33466  41.321  15.351   0.768
61042W        W33467  44.492   5.948   3.306
61043W        W33468  22.014  33.521  12.555
61044W        W33469  36.362  25.512  14.395
61045W        W33470  25.193  44.872  10.444
61046W        W33471  25.234  18.249  11.956
61047W        W33472  20.817  19.720   2.332
61048W        W33473  11.850  19.965   0.359
61049W        W33474  30.385   3.859   1.285
61050W        W33475  13.758  28.911  11.849
61051W        W33476  41.856  31.352   4.155
61052W        W33477  13.352   2.829   0.838
61053W        W33478   4.807  28.197   5.078
61054W        W33479   2.267  15.569  11.626
61055W        W33480  12.685  26.549   2.242
61056W        W33481  29.218  20.692   3.136
61057W        W33482  37.078  27.479  13.831
61058W        W33483  37.540  24.815   5.145
61059W        W33484  13.331  26.957  11.030
61060W        W33485  25.837  37.833   2.810
61061W        W33486  31.855  15.242   4.048
61062W        W33487  32.706  41.149   1.308
61063W        W33488   0.722  18.593   3.219
61064W        W33489  14.708  36.538   4.005
61065W        W33490  21.264   6.275  14.108
61066W        W33491  21.211   7.278  14.380
61067W        W33492  28.081   3.817   0.742
61068W        W33493  39.621  18.716   1.402
61069W        W33494  38.323   5.638  11.521
61070W        W33495  36.049  39.300  14.824
61071W        W33496  29.961  31.564  12.196
61072W        W33497   1.735  43.364  12.101
61073W        W33498  41.150  33.377   0.833
61074W        W33499  38.998  38.366  12.606
61075W        W33500  17.700  35.995  14.349
61076W        W33501   6.956   9.431  13.412
61077W        W33502  39.482  40.898  13.997
61078W        W33503  11.412  44.051   3.605
61079W        W33504  32.066  14.801  14.425
61080W        W33505  13.825  12.697  14.510
61081W        W33506  43.805  41.770   1.248
61082W        W33507  31.647   7.214  13.052
61083W        W33508  33.047   2.893  13.207
61084W        W33509  19.585   8.682  13.857
61085W        W33510   7.137  44.276   3.269
61086W        W33511   3.884   6.859  11.202
61087W        W33512  26.594  19.319   1.288
61088W        W33513  11.194  33.474   1.285
61089W        W33514  35.277  13.772  12.083
61090W        W33515   6.782  39.429   1.956
61091W        W33516  19.631  27.111   2.339
61092W        W33517  40.496  41.468  12.994
61093W        W33518  28.161  38.318   0.766
61094W        W33519  12.085  35.434  11.083
61095W        W33520  35.793  21.141   1.140
61096W        W33521  41.854  30.017   0.391
61097W        W33522  41.401  24.065   4.601
61098W        W33523  18.377  25.462  13.828
61099W        W33524  22.004  28.096   2.559
61100W        W33525  11.805  13.348   4.152
61101W        W33526  14.869  18.421  10.998
61102W        W33527  38.509  25.505   3.196
61103W        W33528   8.519  24.228  11.188
61104W        W33529  42.287  34.063  14.905
61105W        W33530  16.473  13.648   2.914
61106W        W33531  41.427  13.830   0.765
61107W        W33532  12.280  33.405  12.896
61108W        W33533  32.769  31.806   3.523
61109W        W33534  41.883  40.569   4.662
61110W        W33535   4.839  17.136   1.934
61111W        W33536   5.862  40.828   1.452
61112W        W33537  22.940   2.202   3.159
61113W        W33538  22.949  19.985  11.697
61114W        W33539  26.097  11.963   4.979
61115W        W33540  31.493  28.715   2.546
61116W        W33541  33.658  22.597   5.249
61117W        W33542  17.037  43.410   0.663
61118W        W33543  12.569   4.342   3.697
61119W        W33544  42.332  33.860  11.171
61120W        W33545   6.650  30.083   0.882
61121W        W33546  43.983  31.686   0.070
61122W        W33547  29.372   3.836   4.240
61123W        W33548  31.137  16.620   4.508
61124W        W33549  43.271  15.161   4.943
61125W        W33550  31.231  38.062  13.539
61126W        W33551  12.695   4.661  12.494
61127W        W33552  37.324  22.459   1.857
61128W        W33553   7.556  25.089  14.448
61129W        W33554  41.179  19.044  11.634
61130W        W33555  28.440   1.663  12.906
61131W        W33556  13.172  31.333  12.904
61132W        W33557   3.045   5.496  11.092
61133W        W33558   9.900   0.657  12.115
61134W        W33559  44.019  24.602   2.814
61135W        W33560   1.440  37.433  11.614
61136W        W33561  40.958  22.659  14.427
61137W        W33562   2.816  11.343   4.940
61138W        W33563  10.421  27.724  13.795
61139W        W33564  16.213  35.195   2.421
61140W        W33565  16.107  39.880  10.750
61141W        W33566  43.394  30.915  13.382
61142W        W33567  22.000  24.158  13.492
61143W        W33568  29.487  17.052  14.503
61144W        W33569  35.080  13.018   3.805
61145W        W33570  41.616  12.438  12.169
61146W        W33571  30.429   4.308  11.622
61147W        W33572  40.324  15.307   3.670
61148W        W33573  14.862   4.125   4.974
61149W        W33574  18.627  17.893  13.893
61150W        W33575  41.706  35.563   1.315
61151W        W33576  34.807   1.877   1.262
61152W        W33577  42.496  21.279  13.851
61153W        W33578  22.822  15.230  10.745
61154W        W33579  40.772  11.993   0.061
61155W        W33580  18.137   1.815  13.027
61156W        W33581  27.956  32.484  11.171
61157W        W33582  16.889  34.028   0.911
61158W        W33583  42.734  37.379  11.254
61159W        W33584  15.164  10.898  12.434
61160W        W33585  36.487  18.441  12.860
61161W        W33586  18.168  26.045   2.329
61162W        W33587   0.474   7.529  14.973
61163W        W33588  40.154   0.894   4.161
61164W        W33589  31.852   4.914  14.477
61165W        W33590  37.595  38.331   0.786
61166W        W33591   4.329  33.802  14.322
61167W        W33592  43.403   3.739  14.442
61168W        W33593  26.506  25.979   1.469
61169W        W33594  31.470  39.802  11.943
61170W        W33595  34.426  11.116  14.550
61171W        W33596  15.821  31.331   1.155
61172W        W33597   9.453  40.411   1.418
61173W        W33598  40.403  36.934  13.790
61174W        W33599  21.542  43.865  13.451
61175W        W33600   9.578  32.152  14.455
61176W        W33601  25.889  29.891   1.349
61177W        W33602   8.971  35.460  10.685
61178W        W33603  26.040   6.546  14.341
61179W        W33604  32.568  34.665   2.320
61180W        W33605  31.121  17.269   1.632
61181W        W33606  16.183  38.372  10.540
61182W        W33607  40.426   9.139  14.811
61183W        W33608  33.756  29.163   5.062
61184W        W33609  32.171   7.535  14.731
61185W        W33610  15.848  23.232  13.869
61186W        W33611  23.027  34.108  14.773
61187W        W33612  12.284  16.799  14.618
61188W        W33613  42.832  20.732  14.441
61189W        W33614  40.331  29.054  11.987
61190W        W33615  19.605  15.587   2.104
61191W        W33616  11.461  33.367  12.348
61192W        W33617  37.279   1.893   3.511
61193W        W33618   8.763   0.348   4.737
61194W        W33619  11.935  40.775   1.869
61195W        W33620  44.213  13.170  10.931
61196W        W33621   7.949  17.217   2.828
61197W        W33622  13.861  12.841   0.945
61198W        W33623  11.764  19.412   1.500
61199W        W33624   6.879   3.995  11.115
61200W        W33625  40.747   3.269  12.478
61201W        W33626  19.280  26.965  10.688
61202W        W33627  40.542  29.836  14.263
61203W        W33628  30.269   1.005  14.329
61204W        W33629  22.678   9.829   4.846
61205W        W33630   2.368  31.871   4.872
61206W        W33631  20.344  24.167  13.307
61207W        W33632  24.310  21.684   4.530
61208W        W33633  40.489  13.791   0.614
61209W        W33634  33.798  19.285   3.846
61210W        W33635  44.380  33.111   1.767
61211W        W33636  35.048   9.862   1.354
61212W        W33637  43.008  15.098   4.493
61213W        W33638  38.557   5.213  12.516
61214W        W33639  35.555  17.562   2.581
61215W        W33640  18.941   4.339  12.042
61216W        W33641   2.391   4.297  10.617
61217W        W33642  25.790  11.257  12.448
61218W        W33643  22.286  17.041  11.936
61219W        W33644  15.903  20.295  10.500
61220W        W33645   8.102   5.324  14.900
61221W        W33646  28.239  19.963   4.176
61222W        W33647   2.131  15.260  11.216
61223W        W33648  17.900  33.579   3.814
61224W        W33649  43.490  24.464  12.051
61225W        W33650  36.089  40.058  12.746
61226W        W33651   1.945  21.985   1.352
61227W        W33652  12.287  23.157  11.444
61228W        W33653   0.231  40.416   1.962
61229W        W33654   9.233   0.559   2.228
61230W        W33655   8.450   0.075   2.343
61231W        W33656  19.287  38.830  11.845
61232W        W33657   1.434  19.941  11.560
61233W        W33658  16.293   5.623  12.613
61234W        W33659   1.869  19.948   0.684
61235W        W33660  25.022  32.526   2.269
61236W        W33661  43.801  12.242   3.684
61237W        W33662  24.300  19.156  13.263
61238W        W33663  34.823  39.407   3.654
61239W        W33664   2.321  12.721   4.604
61240W        W33665  24.396  36.542  13.363
61241W        W33666  22.943  33.142   1.836
61242W        W33667  14.006  36.656  12.429
61243W        W33668  37.892  14.376   4.919
61244W        W33669   4.818  34.101   1.905
61245W        W33670   8.537  24.520   3.172
61246W        W33671  30.201  43.231  14.902
61247W        W33672  29.513  41.864   1.595
61248W        W33673  42.821  23.552  12.686
61249W        W33674   9.740   6.320   2.051
61250W        W33675   4.193  22.026  13.533
61251W        W33676  30.985   5.835   1.156
61252W        W33677  32.565  17.363   2.783
61253W        W33678  18.722  33.502  12.439
61254W        W33679   7.373  43.488  13.732
61255W        W33680   7.638  17.396  12.964
61256W        W33681  10.723  18.116   3.458
61257W        W33682  17.241   2.030   4.092
61258W        W33683   8.713  35.817  10.383
61259W        W33684  42.832  18.646  13.423
61260W        W33685  14.132  13.794  11.661
61261W        W33686  34.891  34.631  12.434
61262W        W33687   7.448  18.267  10.645
61263W        W33688  22.409  15.838   2.984
61264W        W33689   6.100  31.409   4.281
61265W        W33690   7.157  30.412   4.881
61266W        W33691   1.751  37.444   1.009
61267W        W33692  22.488  25.647  12.102
61268W        W33693  21.304  18.307   4.524
61269W        W33694  10.278  38.061   1.278
61270W        W33695   4.477  43.518   0.149
61271W        W33696  11.424  20.663  12.392
61272W        W33697  33.526   7.740   0.342
61273W        W33698  15.353  33.352   1.282
61274W        W33699  20.405  44.007   2.714
61275W        W33700  25.661   8.173  10.754
61276W        W33701  19.707  12.216   3.205
61277W        W33702  11.568  25.921  11.641
61278W        W33703  36.201   0.329   4.126
61279W        W33704  42.545   8.725  14.343
61280W        W33705  43.484  15.894   0.773
61281W        W33706  13.583  34.057  11.452
61282W        W33707  26.171  39.005  13.069
61283W        W33708  17.435  13.048  14.215
61284W        W33709  24.144  31.423   1.406
61285W        W33710  43.915  26.777   1.759
61286W        W33711  39.029  30.689  13.954
61287W        W33712   7.767   0.931  14.030
61288W        W33713  22.245   1.029  14.879
61289W        W33714   9.239  38.051  11.429
61290W        W33715  41.715   6.474  10.813
61291W        W33716  17.309  38.303   2.335
61292W        W33717  21.471  15.205  11.104
61293W        W33718  32.263  10.068  14.463
61294W        W33719  21.528  31.012   0.741
61295W        W33720  14.593  21.200  12.699
61296W        W33721  13.311  11.138   4.105
61297W        W33722  16.222  15.859  13.455
61298W        W33723  37.539  36.313  11.473
61299W        W33724  44.738  24.579   1.270
61300W        W33725   7.244  37.156  11.566
61301W        W33726  13.752  13.266  10.691
61302W        W33727  14.706  35.834  12.959
61303W        W33728  11.413  31.193   4.641
61304W        W33729  16.807  12.852  12.861
61305W        W33730  31.020   6.671  14.451
61306W        W33731  28.150  13.492  13.797
61307W        W33732  21.610  16.059  11.161
61308W        W33733  21.088   4.253  12.273
61309W        W33734   0.025  39.366  13.780
61310W        W33735   8.150  29.218  13.299
61311W        W33736  28.406  12.903   4.711
61312W        W33737  27.739  12.574  11.533
61313W        W33738  26.130  16.742   4.108
61314W        W33739  44.474  17.098  10.492
61315W        W33740  21.708   6.827  13.374
61316W        W33741  39.949  33.960  10.609
61317W        W33742  35.947   9.869   1.717
61318W        W33743  30.706  19.211  10.035
61319W        W33744   4.094  25.195   4.503
61320W        W33745   2.756   5.139   0.723
61321W        W33746   3.967   6.731   1.286
61322W        W33747  38.471  10.794   4.070
61323W        W33748  22.083   1.484   0.845
61324W        W33749   7.331  10.308   1.506
61325W        W33750  26.758   2.340   1.888
61326W        W33751  31.209  11.705  10.246
61327W        W33752  17.255  26.556   4.203
61328W        W33753  18.619  11.686   1.128
61329W        W33754  28.953  38.309   3.684
61330W        W33755   8.284  27.130   1.973
61331W        W33756  39.925  15.213  10.669
61332W        W33757  40.595  41.810   0.711
61333W        W33758  10.885  17.242   4.056
61334W        W33759  30.717  27.350  11.099
61335W        W33760  17.749  13.590  13.365
61336W        W33761  24.253  22.852  13.170
61337W        W33762  15.865   9.306  12.348
61338W        W33763  20.705  14.574   3.631
61339W        W33764  34.910   9.230  12.130
61340W        W33765  22.994  20.476  12.512
61341W        W33766  42.382  23.575  13.966
61342W        W33767  34.932  36.434   3.074
61343W        W33768  10.223  33.137   0.183
61344W        W33769   8.589  36.512   3.273
61345W        W33770   7.682  12.706   3.998
61346W        W33771  17.615  29.408  11.172
61347W        W33772  12.539  10.140  14.884
61348W        W33773  31.586  25.169  11.601
61349W        W33774  16.312  29.680   4.076
61350W        W33775  11.893  10.750   3.998
61351W        W33776  22.567  37.344   2.936
61352W        W33777   8.851  19.015  10.428
61353W        W33778   7.583  38.089   1.225
61354W        W33779   3.732  13.002  12.515
61355W        W33780  13.740  17.161  10.537
61356W        W33781  16.100  36.025  13.333
61357W        W33782  35.894  35.368  14.463
61358W        W33783  20.960  11.500   2.433
61359W        W33784  40.064  26.505  10.685
61360W        W33785  36.529  19.697  13.486
61361W        W33786  13.098  20.220  14.283
61362W        W33787  28.049  28.372   1.983
61363W        W33788  19.988  43.351  10.723
61364W        W33789  27.438   7.216  14.689
61365W        W33790  31.043  30.584   0.044
61366W        W33791  22.792   0.496   0.407
61367W        W33792  15.070  25.637  14.496
61368W        W33793  43.387  25.480   1.706
61369W        W33794  32.403   4.020   2.379
61370W        W33795  33.020  26.371  14.446
61371W        W33796  17.233  23.553   0.891
61372W        W33797  38.820  39.862  13.534
61373W        W33798  17.484  29.023  12.641
61374W        W33799   1.191  21.995   3.239
61375W        W33800  25.206  11.480   5.032
61376W        W33801   5.232  11.146   3.664
61377W        W33802  29.864   4.794   1.263
61378W        W33803  33.406  11.322   3.683
61379W        W33804   7.153  24.283   4.525
61380W        W33805  32.520   0.412   2.453
61381W        W33806   1.904   7.723  13.435
61382W        W33807  31.955   9.804   2.102
61383W        W33808  22.128   9.151   2.334
61384W        W33809  26.465  12.016  12.205
61385W        W33810  29.141  25.979   1.771
61386W        W33811  36.092  26.685  11.934
61387W        W33812  40.855  12.146  14.247
61388W        W33813  12.064   2.977   2.667
61389W        W33814  32.327   9.135  14.430
61390W        W33815  35.405  16.985  11.137
61391W        W33816  29.753  41.916  12.175
61392W        W33817  21.006  35.407  11.904
61393W        W33818  40.999  33.398  14.103
61394W        W33819  23.284   2.492  11.228
61395W        W33820  25.452  26.619  10.576
61396W        W33821  20.820  26.167  13.551
61397W        W33822  17.510  23.774   4.170
61398W        W33823  34.942  41.542   0.472
61399W        W33824  17.232  43.873  14.476
61400W        W33825  44.347  26.101   1.755
61401W        W33826   5.226   0.206  10.942
61402W        W33827  39.299  25.284   3.713
61403W        W33828   0.530  22.833   3.150
61404W        W33829  19.972  16.522   4.700
61405W        W33830   2.202   2.766   1.759
61406W        W33831  10.276  26.207  14.396
61407W        W33832   7.278  21.506   2.790
61408W        W33833   3.020  39.283   3.126
61409W        W33834  32.082  12.364   3.210
61410W        W33835  42.765   7.841   2.217
61411W        W33836   3.933  28.575  13.021
61412W        W33837  11.106   4.371  13.400
61413W        W33838  19.511  28.519   4.133
61414W        W33839  35.425  30.629   3.339
61415W        W33840  14.249   5.473   3.852
61416W        W33841   8.838  26.760   0.246
61417W        W33842  43.526   0.378   3.309
61418W        W33843   1.366  12.106  13.780
61419W        W33844  37.125  17.665  13.866
61420W        W33845  12.306   8.804   4.181
61421W        W33846  41.571   5.804   0.303
61422W        W33847   0.566  31.141   1.707
61423W        W33848  27.993  28.196  14.365
61424W        W33849   6.630  40.342   3.115
61425W        W33850  11.691   4.422   1.301
61426W        W33851  42.689  13.364  11.596
61427W        W33852  42.530  32.738   1.884
61428W        W33853  19.792  23.676  11.638
61429W        W33854  16.040  14.593   0.855
61430W        W33855  22.722   9.979   3.847
61431W        W33856  27.875  13.612   2.428
61432W        W33857  19.463   4.236  14.036
61433W        W33858   4.398  21.116   0.241
61434W        W33859  43.174  35.576   2.164
61435W        W33860  31.352  41.052   3.501
61436W        W33861  36.760  10.347  10.711
61437W        W33862  38.916  36.548  12.634
61438W        W33863  15.629   7.286   3.592
61439W        W33864  43.473  41.765  10.622
61440W        W33865  19.484   2.231  14.792
61441W        W33866  33.571  32.526  11.211
61442W        W33867  35.353  16.807   3.586
61443W        W33868  14.498  34.674   2.182
61444W        W33869   6.612  35.941   0.985
61445W        W33870  18.379  15.034  13.828
61446W        W33871   6.275  43.086  11.462
61447W        W33872  25.615  41.277  13.432
61448W        W33873   5.437  27.387  14.272
61449W        W33874  38.583  40.880  14.775
61450W        W33875  19.309  35.453   1.064
61451W        W33876  16.196  15.094  14.962
61452W        W33877  34.012  15.300  12.500
61453W        W33878   3.457  38.886  14.787
61454W        W33879  15.840  12.891   1.678
61455W        W33880  15.871   9.809  12.059
61456W        W33881   7.378   4.171   0.900
61457W        W33882   4.659  18.440   1.309
61458W        W33883  26.089  40.013   1.324
61459W        W33884  34.427  27.860  12.901
61460W        W33885  24.524   9.669   3.280
61461W        W33886  23.610  26.456  14.451
61462W        W33887  21.079   8.278   0.244
61463W        W33888  36.145  31.591  14.930
61464W        W33889  32.753  33.519  11.489
61465W        W33890   9.906  42.415   1.340
61466W        W33891  43.701  43.722  11.035
61467W        W33892  28.222  18.903  14.205
61468W        W33893  22.538   2.864  13.960
61469W        W33894   1.574   9.423   3.430
61470W        W33895  30.912  24.072   4.617
61471W        W33896  29.287  22.168  11.828
61472W        W33897  24.293  15.819  11.292
61473W        W33898  17.123  18.779  14.285
61474W        W33899   7.605  29.071   4.292
61475W        W33900  27.094   1.510   0.237
61476W        W33901  16.743   4.357  12.400
61477W        W33902  38.325  13.112  14.001
61478W        W33903  17.045  21.971   3.681
61479W        W33904  42.828   9.669  14.977
61480W        W33905  31.814  25.273  12.946
61481W        W33906  15.921  20.192   2.110
61482W        W33907  31.667  30.911   2.658
61483W        W33908  22.833   5.707  11.920
61484W        W33909  31.270  27.492   0.304
61485W        W33910  11.806  22.031  14.565
61486W        W33911  32.359  15.646   4.329
61487W        W33912  27.719  38.795  12.744
61488W        W33913   3.961  16.396   4.546
61489W        W33914  24.167  10.685  10.219
61490W        W33915  44.855  23.740  14.034
61491W        W33916  24.664  33.364  13.800
61492W        W33917  11.198  30.012   0.304
61493W        W33918  32.955  37.512  13.958
61494W        W33919  37.603  37.571   1.250
61495W        W33920  29.365  37.606   1.854
61496W        W33921  43.275  10.321   3.408
61497W        W33922  41.293  19.699  10.774
61498W        W33923   8.300   3.201   4.278
61499W        W33924  38.948  12.399  14.792
61500W        W33925   8.493  37.396   2.238
61501W        W33926  38.592   2.077   3.782
61502W        W33927   9.506   7.589   0.672
61503W        W33928  44.985  44.186   4.466
61504W        W33929  27.977  23.057  12.026
61505W        W33930  23.228  25.461   2.728
61506W        W33931  25.964  31.876  13.922
61507W        W33932   0.961  20.374  11.183
61508W        W33933  17.545  35.575   1.396
61509W        W33934  27.938  38.561   2.009
61510W        W33935  39.246   9.108   5.088
61511W        W33936   6.664   4.514  14.949
61512W        W33937  36.939   5.891  14.517
61513W        W33938   0.997  28.237  10.903
61514W        W33939  29.524  21.104  14.545
61515W        W33940  29.034   1.189  12.575
61516W        W33941  29.903   2.208   0.747
61517W        W33942  21.111  14.389  11.552
61518W        W33943  43.027   9.671   3.098
61519W        W33944  21.065   7.623  12.654
61520W        W33945   3.256  18.204  13.313
61521W        W33946  21.491  27.125  11.450
61522W        W33947  18.069  14.340   4.377
61523W        W33948  18.655  14.220  12.179
61524W        W33949  13.749  42.600  11.929
61525W        W33950  14.387  44.498  13.905
61526W        W33951   9.881   8.262   0.360
61527W        W33952  39.807  13.663  12.617
61528W        W33953  31.034  37.932  12.584
61529W        W33954  24.399   7.947   3.521
61530W        W33955  44.477  31.105  12.607
61531W        W33956  36.427  37.720   4.921
61532W        W33957  26.223   0.828   4.167
61533W        W33958  25.065  10.649   4.634
61534W        W33959  35.320  20.160  11.550
61535W        W33960  42.288   9.175  11.975
61536W        W33961   1.756   7.195   0.227
61537W        W33962  43.440  21.337  14.371
61538W        W33963  38.547  23.571   4.366
61539W        W33964  10.506  21.939   4.129
61540W        W33965  34.116  21.564   3.644
61541W        W33966  17.668  16.239   1.425
61542W        W33967  29.622  12.889   3.366
61543W        W33968   9.954  43.424   0.558
61544W        W33969  39.333  28.008  14.800
61545W        W33970   1.012  35.154  12.096
61546W        W33971   2.248  44.725   1.385
61547W        W33972  34.925   0.343  14.379
61548W        W33973   2.969  35.211  10.637
61549W        W33974   9.624   1.955  11.408
61550W        W33975   1.518  31.543  13.491
61551W        W33976  12.064  15.589   2.449
61552W        W33977  33.426  17.663   3.682
61553W        W33978   7.793  38.932   1.245
61554W        W33979  26.463  19.125  13.923
61555W        W33980  43.923  16.629   2.637
61556W        W33981  22.272  42.008   0.821
61557W        W33982  38.057  10.874   2.844
61558W        W33983  42.304  13.608   3.342
61559W        W33984   5.568  11.653  10.317
61560W        W33985  12.601   7.851  12.503
61561W        W33986  11.811   5.007  12.559
61562W        W33987  15.898  22.018   0.890
61563W        W33988   8.664  20.678   0.582
61564W        W33989  39.865  13.107   4.445
61565W        W33990  27.225  10.400  11.151
61566W        W33991  40.166  29.417   0.258
61567W        W33992  22.863  21.480  12.182
61568W        W33993  32.941  39.115   0.040
61569W        W33994  40.027  20.057   3.719
61570W        W33995  43.851   9.308  11.102
61571W        W33996   3.944  28.946  10.476
61572W        W33997  13.171   7.714  10.461
61573W        W33998  37.277  13.833   3.242
61574W        W33999  38.132  26.471  13.852
61575W        W34000  24.645  31.954  13.603
61576W        W34001  10.173  20.475  13.811
61577W        W34002  10.225  28.027   3.553
61578W        W34003  24.789  22.960  12.575
61579W        W34004  24.615   8.603  14.026
61580W        W34005  25.635  38.977   0.283
61581W        W34006  26.878  16.740   4.764
61582W        W34007  36.761   5.027  14.359
61583W        W34008  40.494  12.543   3.765
61584W        W34009  10.024  37.544   3.847
61585W        W34010  32.346  30.405   2.791
61586W        W34011   4.500  35.674   9.992
61587W        W34012   2.225  43.041   0.518
61588W        W34013  28.518  32.609   3.312
61589W        W34014  36.001   1.204   2.794
61590W        W34015  29.860  40.321   2.402
61591W        W34016  43.896  26.208   4.933
61592W        W34017  16.303  27.893  11.617
61593W        W34018  13.577  42.052  14.852
61594W        W34019  16.285  21.042   4.630
61595W        W34020  26.423   2.434  12.027
61596W        W34021  21.693  23.996   1.929
61597W        W34022  36.785  35.399   1.685
61598W        W34023  36.937  24.264  14.457
61599W        W34024  18.270  32.945  10.721
61600W        W34025  31.974   0.552  12.178
61601W        W34026  21.074   2.687  13.822
61602W        W34027  37.449  33.450   0.418
61603W        W34028  27.957   2.446  11.612
61604W        W34029  11.776  31.841  13.274
61605W        W34030  20.141  28.026   2.178
61606W        W34031  24.675  24.651   1.719
61607W        W34032   7.870  13.462   4.543
61608W        W34033  18.298  26.858  10.406
61609W        W34034  26.420  14.394   1.278
61610W        W34035  14.378   7.378   0.260
61611W        W34036  14.846  19.210  14.518
61612W        W34037  19.603  19.635   3.338
61613W        W34038  18.753  29.241   0.754
61614W        W34039  13.263  18.733  11.791
61615W        W34040  21.754  23.514   1.735
61616W        W34041  44.732  11.581  12.789
61617W        W34042  32.601   5.176   4.198
61618W        W34043  40.222  24.754  11.490
61619W        W34044   5.871  41.404   2.737
61620W        W34045  15.648  33.089  13.527
61621W        W34046  23.839  16.849  13.769
61622W        W34047   1.388  31.220  13.958
61623W        W34048  29.447  26.465   2.246
61624W        W34049  14.275   3.032   2.379
61625W        W34050  28.077  43.723  14.414
61626W        W34051   9.671  41.637  11.095
61627W        W34052  32.680  43.971   4.943
61628W        W34053  22.739  34.562   4.244
61629W        W34054  43.916  42.496  13.964
61630W        W34055   6.254  39.520  11.562
61631W        W34056  41.133  12.211  12.102
61632W        W34057   2.408  26.283   1.737
61633W        W34058  33.893   7.170   2.603
61634W        W34059  40.471   1.352  12.749
61635W        W34060  27.435   6.823   0.782
61636W        W34061  14.368  40.479  13.421
61637W        W34062   9.457  25.513   1.689
61638W        W34063  10.710   9.128   0.876
61639W        W34064  10.410  19.934  10.881
61640W        W34065  28.401  18.532  12.174
61641W        W34066  23.049  33.325   3.167
61642W        W34067  34.320  23.252  12.932
61643W        W34068  36.370  18.665  13.411
61644W        W34069   5.032  23.988   4.155
61645W        W34070   5.016  41.764   2.315
61646W        W34071  41.462   0.241  10.353
61647W        W34072   2.192   9.374   0.857
61648W        W34073  29.918  21.449   3.586
61649W        W34074  30.597  16.703   5.592
61650W        W34075   6.161  12.973   3.272
61651W        W34076  35.903  41.587  12.517
61652W        W34077  39.301  37.725  14.294
61653W        W34078  13.273  21.009   1.783
61654W        W34079  41.697   5.806  12.592
61655W        W34080  40.617  10.691   0.719
61656W        W34081  24.157   4.231  13.257
61657W        W34082  12.299  21.816   2.199
61658W        W34083  18.791  43.400   2.388
61659W        W34084   8.005  33.229  10.157
61660W        W34085  43.983  38.825   3.724
61661W        W34086  17.753  15.267  10.494
61662W        W34087  29.418  37.420  13.340
61663W        W34088  30.271  19.266  12.972
61664W        W34089  13.490   9.875   0.051
61665W        W34090   7.702  38.749   2.638
61666W        W34091   1.761  18.340   4.660
61667W        W34092  16.049  28.077   1.627
61668W        W34093  19.529  22.588  10.399
61669W        W34094  32.873   5.865   1.203
61670W        W34095  41.572  10.534   3.486
61671W        W34096  22.988   4.224  11.088
61672W        W34097  43.955  23.996   2.344
61673W        W34098  33.901  23.124   1.072
61674W        W34099  12.118   0.418   4.673
61675W        W34100   0.242  40.012  11.215
61676W        W34101  14.248   7.854   0.392
61677W        W34102   7.005  11.574   4.973
61678W        W34103  15.713   3.422  13.746
61679W        W34104  19.798  40.316  14.489
61680W        W34105  42.426  25.078   0.709
61681W        W34106   9.359  15.086  13.548
61682W        W34107  12.643  23.785   1.721
61683W        W34108  36.013   7.474  14.093
61684W        W34109  39.594   3.864   3.765
61685W        W34110  23.650   6.327  13.798
61686W        W34111  36.533   6.194   2.188
61687W        W34112  12.044   3.153   3.747
61688W        W34113  10.581  21.157   2.163
61689W        W34114  14.643  11.307  13.581
61690W        W34115  44.449  38.557  14.758
61691W        W34116   4.473   5.696  12.586
61692W        W34117  42.419  37.417  13.857
61693W        W34118  11.669  21.297  10.258
61694W        W34119   5.972  10.543   4.105
61695W        W34120  27.034  22.789   1.927
61696W        W34121   2.552  31.081  11.126
61697W        W34122  31.368   8.205   0.855
61698W        W34123   8.906   0.322  12.424
61699W        W34124   6.377  22.262  11.570
61700W        W34125  15.179  36.004  12.824
61701W        W34126  31.833  36.365  10.879
61702W        W34127  15.115   6.298  10.658
61703W        W34128  17.120   9.200   2.935
61704W        W34129  38.098  38.876  12.483
61705W        W34130  17.908  38.835   2.854
61706W        W34131  34.634  11.728   2.152
61707W        W34132   5.964   5.363  13.372
61708W        W34133  29.198  32.161   1.504
61709W        W34134  33.856  39.860  11.610
61710W        W34135   9.663  20.717   2.779
61711W        W34136  30.136  37.625   3.230
61712W        W34137  30.571  44.293   3.173
61713W        W34138  12.813  42.337  11.692
61714W        W34139  33.102  29.959  13.486
61715W        W34140  39.102  13.756  13.333
61716W        W34141  26.254  21.643   4.150
61717W        W34142  18.256   4.894  11.459
61718W        W34143  35.758  16.445   4.252
61719W        W34144  24.937  20.549   2.824
61720W        W34145   0.372   3.679   1.781
61721W        W34146  26.961  11.836  12.349
61722W        W34147  11.282  18.203  10.743
61723W        W34148  14.621  17.516   4.156
61724W        W34149  33.163  13.241  13.375
61725W        W34150  35.924   7.987  14.082
61726W        W34151  25.352  22.600  10.730
61727W        W34152   7.982  35.135   9.830
61728W        W34153  44.869  16.122  13.459
61729W        W34154  25.733  28.065   5.058
61730W        W34155  23.162  44.056  14.765
61731W        W34156  16.723  14.920  12.579
61732W        W34157  38.058  18.614   1.650
61733W        W34158  12.993  34.981  12.984
61734W        W34159   8.905  29.588   4.514
61735W        W34160  27.000   3.385   0.809
61736W        W34161  22.752   9.331   3.147
61737W        W34162  25.495  13.846   2.184
61738W        W34163  13.957   1.480   0.807
61739W        W34164  27.093  25.973  13.625
61740W        W34165  23.123   1.055  12.877
61741W        W34166  35.556  30.174   2.587
61742W        W34167  32.436  35.895   2.915
61743W        W34168  17.825   8.370  13.450
61744W        W34169  11.179  24.152   3.686
61745W        W34170  17.603  29.171  14.678
61746W        W34171  40.443  18.055  14.504
61747W        W34172  36.067  33.478  11.631
61748W        W34173  40.095  34.837   0.043
61749W        W34174  10.183  35.044  11.473
61750W        W34175  26.160   1.473  11.489
61751W        W34176   3.143  44.486   9.828
61752W        W34177  44.944   3.400   0.276
61753W        W34178  36.855  39.329  13.873
61754W        W34179  11.815  20.286   1.388
61755W        W34180   2.488   2.803  13.907
61756W        W34181   4.345   1.261  14.488
61757W        W34182  17.714   3.766   4.181
61758W        W34183  15.272  30.550   2.388
61759W        W34184  24.199  35.556   1.801
61760W        W34185   8.816  32.586   3.254
61761W        W34186  41.604  16.209  12.557
61762W        W34187  20.773  21.573  11.262
61763W        W34188  12.122  37.871  13.730
61764W        W34189  13.258  13.551   0.243
61765W        W34190  35.805  40.940   3.742
61766W        W34191  38.838  30.187   0.389
61767W        W34192  40.388  20.603   0.413
61768W        W34193  23.732  28.285  13.867
61769W        W34194  24.551  15.550   2.667
61770W        W34195  40.547  17.178  14.985
61771W        W34196  43.337  36.893   2.437
61772W        W34197  14.180  12.376   0.849
61773W        W34198   4.880  42.507   2.773
61774W        W34199  13.319  26.210  10.310
61775W        W34200  36.715  23.104   9.734
61776W        W34201  14.946  11.200  14.550
61777W        W34202  39.579  15.975   0.599
61778W        W34203  20.190  24.612   1.381
61779W        W34204  34.040  27.384  14.489
61780W        W34205  19.981  13.835  11.877
61781W        W34206  31.460   7.391   0.804
61782W        W34207   1.887  40.002   0.445
61783W        W34208  24.553  41.014  14.501
61784W        W34209   2.419  31.342  13.009
61785W        W34210  25.515   8.998   1.820
61786W        W34211  13.627  27.805   0.010
61787W        W34212  37.995  14.799  13.414
61788W        W34213  11.404   8.851  13.780
61789W        W34214  37.484  33.079  10.982
61790W        W34215  35.517  26.656   1.651
61791W        W34216  37.669  17.952  10.731
61792W        W34217  19.671  12.885   3.672
61793W        W34218  27.914  18.993  11.068
61794W        W34219  19.780  28.195   4.904
61795W        W34220  27.409   0.675  10.588
61796W        W34221  37.990   9.910   3.588
61797W        W34222  37.350  26.950   0.421
61798W        W34223  27.234  36.414   1.189
61799W        W34224  26.002  35.302  11.393
61800W        W34225   3.651  14.385  12.764
61801W        W34226   1.470  37.814   4.364
61802W        W34227  35.182  23.672  12.095
61803W        W34228  21.795   8.232   5.100
61804W        W34229  10.791   9.362   3.135
61805W        W34230   2.582  19.558   1.790
61806W        W34231  44.092  23.478   0.911
61807W        W34232  19.191  41.348   3.061
61808W        W34233  35.201  25.043   1.425
61809W        W34234  26.682  11.274  10.308
61810W        W34235  43.154  31.121  11.992
61811W        W34236  24.055   5.846  11.121
61812W        W34237  34.509  30.649  14.306
61813W        W34238  17.068   7.158  14.968
61814W        W34239   7.282  23.132  12.117
61815W        W34240  20.015  19.073  11.629
61816W        W34241  44.528  26.105  14.651
61817W        W34242   5.742  31.415  13.996
61818W        W34243  17.825  24.504  12.983
61819W        W34244  10.793  29.480  11.314
61820W        W34245  32.665  23.063  13.132
61821W        W34246  38.685  37.959  12.622
61822W        W34247  10.015  13.698  11.605
61823W        W34248  23.071  40.947  12.528
61824W        W34249  30.236  18.274  13.957
61825W        W34250  10.358  29.043   0.402
61826W        W34251  17.972  38.447  10.676
61827W        W34252  13.127  29.200   0.214
61828W        W34253  26.185  28.091   0.825
61829W        W34254  14.044  29.760  11.997
61830W        W34255  42.845   7.315  10.231
61831W        W34256   4.752  11.538  12.252
61832W        W34257  17.784  10.212   1.587
61833W        W34258   8.784   9.666  10.536
61834W        W34259   2.917  36.579   3.248
61835W        W34260  36.492  24.557   2.360
61836W        W34261  42.942  18.762  14.531
61837W        W34262  18.137   9.780   4.615
61838W        W34263  29.075   8.636  12.065
61839W        W34264  39.558  27.535   0.815
61840W        W34265  20.761   3.781   4.102
61841W        W34266   2.770  34.050  10.799
61842W        W34267   0.255  22.921  11.616
61843W        W34268  14.045   4.819  11.215
61844W        W34269  29.455  20.478  11.073
61845W        W34270  27.926  24.771  12.577
61846W        W34271  23.767  27.084   2.707
61847W        W34272  14.898   0.001  13.316
61848W        W34273  42.942   6.744  11.977
61849W        W34274  38.506   0.365   1.171
61850W        W34275  32.011  40.813  11.705
61851W        W34276  26.641  44.830   2.967
61852W        W34277  18.606   7.118   3.668
61853W        W34278  22.237  26.064  11.866
61854W        W34279  34.379   0.835  10.690
61855W        W34280  36.832  37.048  12.150
61856W        W34281   5.736  28.045   3.292
61857W        W34282  38.953  37.017  12.944
61858W        W34283  30.651   2.834   1.726
61859W        W34284  25.353  17.265  14.373
61860W        W34285  44.919   5.955  13.528
61861W        W34286   2.877   5.388  14.286
61862W        W34287  18.932  14.703   3.264
61863W        W34288  27.267   2.733   1.361
61864W        W34289   0.309  37.110   4.746
61865W        W34290  36.854  20.544  12.335
61866W        W34291   4.856   7.664  12.116
61867W        W34292  30.631  40.911   4.258
61868W        W34293  15.283  34.995   2.311
61869W        W34294  29.370   2.025  14.333
61870W        W34295  18.515  35.926  13.530
61871W        W34296  43.531  13.771   2.707
61872W        W34297   7.384  25.994   0.762
61873W        W34298  38.351  40.841  11.421
61874W        W34299  15.959   5.568   4.068
61875W        W34300   9.799  22.048   1.691
61876W        W34301   7.235  30.959  12.532
61877W        W34302   9.417  24.638  14.294
61878W        W34303  33.259  10.063  14.318
61879W        W34304  17.031  18.504   3.700
61880W        W34305  18.211   2.230   0.885
61881W        W34306  20.065  28.630   1.412
61882W        W34307  32.990  20.587   2.797
61883W        W34308  41.712   1.105  13.536
61884W        W34309   3.752  41.400   1.475
61885W        W34310  22.578   1.495  12.403
61886W        W34311  20.101  29.901  13.735
61887W        W34312  42.358  10.329   3.306
61888W        W34313  35.267  31.446   2.317
61889W        W34314  15.708   4.861  13.561
61890W        W34315  42.132  18.713   1.295
61891W        W34316  22.639  20.353  11.925
61892W        W34317  13.668   8.200  12.969
61893W        W34318  26.692  40.916  11.071
61894W        W34319  22.114   3.732   1.028
61895W        W34320  39.925  14.634  12.216
61896W        W34321  24.185   7.822  14.994
61897W        W34322   0.313   8.367   1.417
61898W        W34323  42.382  20.685   1.228
61899W        W34324  34.855  20.039   4.706
61900W        W34325  27.600  26.593   4.545
61901W        W34326   6.186   9.440  12.114
61902W        W34327  37.847  25.068   1.899
61903W        W34328  10.433   5.788   2.219
61904W        W34329  25.711   9.891  11.493
61905W        W34330  34.395  20.256  11.983
61906W        W34331  22.078   9.132   5.057
61907W        W34332  43.370  10.793  11.126
61908W        W34333  22.711  34.929   2.490
61909W        W34334  14.363  18.628  13.446
61910W        W34335  12.765   1.910  13.618
61911W        W34336  38.328  25.035  11.436
61912W        W34337  35.183  42.752  11.613
61913W        W34338  39.836   2.330   2.367
61914W        W34339  42.564   5.248  14.744
61915W        W34340  31.476   5.267  13.548
61916W        W34341  25.761  31.541   4.314
61917W        W34342  21.716  33.311  13.038
61918W        W34343  34.103  15.708  14.267
61919W        W34344  30.065  29.446  11.555
61920W        W34345  15.871  15.330  10.549
61921W        W34346  19.163  11.350   1.640
61922W        W34347  38.736  22.187   1.838
61923W        W34348  32.789  23.919   4.342
61924W        W34349  21.810   4.023  13.304
61925W        W34350   8.389   9.106   5.575
61926W        W34351  19.247  32.576   1.757
61927W        W34352  21.847  35.078   4.214
61928W        W34353  36.398  20.658   2.403
61929W        W34354  35.123  17.349   5.027
61930W        W34355  30.317  30.363  10.518
61931W        W34356  12.863  30.834   5.072
61932W        W34357  29.881  40.880  12.813
61933W        W34358  23.176  26.280   0.349
61934W        W34359   1.330   8.527  11.844
61935W        W34360  42.495  29.891   4.846
61936W        W34361   0.469  23.563   0.275
61937W        W34362   0.037  21.039  11.744
61938W        W34363   1.913  26.363  12.320
61939W        W34364  33.030   7.503   3.180
61940W        W34365  29.884  25.697  10.668
61941W        W34366   9.490  30.571   0.364
61942W        W34367  34.278  36.927   1.760
61943W        W34368   7.192  26.587   3.816
61944W        W34369  21.902  11.355  12.357
61945W        W34370  14.207  30.552  14.026
61946W        W34371  13.282  18.727   0.376
61947W        W34372  15.236  30.586  12.294
61948W        W34373  23.087  17.967   2.215
61949W        W34374  24.972  13.363   3.127
61950W        W34375  25.233  18.751   1.705
61951W        W34376  10.909  10.767   3.719
61952W        W34377   3.273  36.357   4.208
61953W        W34378   8.189  34.003   2.660
61954W        W34379  10.169   7.412   4.473
61955W        W34380   8.715  37.688   3.759
61956W        W34381  13.886  19.275   1.916
61957W        W34382   3.101  19.261  11.528
61958W        W34383   6.181  41.603   1.263
61959W        W34384  24.229  13.645  13.021
61960W        W34385  28.417  38.020   1.945
61961W        W34386  25.699  16.147   3.985
61962W        W34387  43.028  17.792   3.163
61963W        W34388   7.904   5.301  14.420
61964W        W34389  26.989  31.973   0.422
61965W        W34390  43.027   6.657  12.492
61966W        W34391  21.961  32.447  13.913
61967W        W34392   9.880  14.218   1.467
61968W        W34393  27.985  13.470   1.877
61969W        W34394  35.592   9.087   3.991
61970W        W34395  43.911  36.579  14.337
61971W        W34396   9.002  41.989   2.807
61972W        W34397  15.037  22.643   4.172
61973W        W34398   4.106  18.493   3.849
61974W        W34399  32.191  20.284   2.808
61975W        W34400  20.385  14.904  13.496
61976W        W34401   1.910  44.378  14.074
61977W        W34402  29.514  43.233  11.630
61978W        W34403  10.191  44.855   1.104
61979W        W34404  38.982   9.880   0.339
61980W        W34405  30.175  27.493  11.089
61981W        W34406  17.123  35.952   2.864
61982W        W34407  18.528  11.855  11.213
61983W        W34408  12.773   5.191  12.495
61984W        W34409  16.232  22.937  11.897
61985W        W34410  18.059  40.072  11.401
61986W        W34411   2.730   0.468  14.577
61987W        W34412  30.852  16.201   1.746
61988W        W34413   6.215  16.243  12.916
61989W        W34414  35.282   9.194   0.773
61990W        W34415  37.509  42.289   3.735
61991W        W34416   1.787  38.826   1.294
61992W        W34417  23.209  37.443  10.691
61993W        W34418  35.760   4.990  12.625
61994W        W34419  22.518  27.639   0.078
61995W        W34420  39.688  15.490  12.046
61996W        W34421  32.196  15.134  12.517
61997W        W34422   6.004  37.272   1.715
61998W        W34423  38.977  33.822  13.073
61999W        W34424   0.479   7.366  13.791
62000W        W34425  30.328  16.194   0.651
62001W        W34426  22.015  20.691   0.336
62002W        W34427  40.120  15.298   4.163
62003W        W34428  31.834  14.161   0.842
62004W        W34429  40.783  19.808  12.942
62005W        W34430  37.313  26.931  10.670
62006W        W34431   5.727  19.564  10.812
62007W        W34432  41.075  33.816  11.304
62008W        W34433  12.296  30.998  11.554
62009W        W34434  16.686   9.182   4.093
62010W        W34435  23.147   8.869  13.976
62011W        W34436  24.479  20.201   4.127
62012W        W34437  16.820  24.169  12.825
62013W        W34438  30.145  35.588   0.774
62014W        W34439  34.021  22.252  11.099
62015W        W34440  16.374  20.696   0.315
62016W        W34441   7.269  43.164   5.080
62017W        W34442  39.359  31.334   1.474
62018W        W34443  11.269  14.323  13.755
62019W        W34444   7.155   6.464  14.859
62020W        W34445  36.150   8.236   4.795
62021W        W34446  29.018  14.509   4.929
62022W        W34447   1.734  43.747  13.807
62023W        W34448   6.178  40.277  13.916
62024W        W34449  22.233  37.947   1.380
62025W        W34450   4.197  15.819  12.446
62026W        W34451  21.179  12.910   3.213
62027W        W34452  40.850  29.027  12.042
62028W        W34453  21.005  17.833   2.302
62029W        W34454  35.118   7.423   3.025
62030W        W34455  10.890   4.730  12.483
62031W        W34456  38.522  41.214   3.691
62032W        W34457  32.085  40.260  10.618
62033W        W34458   7.852  17.195  11.179
62034W        W34459  44.548  13.339   0.786
62035W        W34460  42.756  38.464   2.316
62036W        W34461  16.380  33.878   0.956
62037W        W34462  19.516  20.337   1.311
62038W        W34463  38.334  12.890  14.502
62039W        W34464  37.444  17.730   1.914
62040W        W34465  24.988  11.188   2.075
62041W        W34466  15.649   1.237   0.414
62042W        W34467  19.527  23.791  12.059
62043W        W34468   5.093  13.336  13.567
62044W        W34469  11.687  15.118   1.454
62045W        W34470  29.277  40.084   4.211
62046W        W34471  20.584  18.265   1.232
62047W        W34472  20.167  25.439   1.787
62048W        W34473  22.788  21.247  10.941
62049W        W34474  29.774  31.815   4.420
62050W        W34475   5.901  42.446   2.857
62051W        W34476  24.617   6.705   0.921
62052W        W34477  18.669  24.421  14.990
62053W        W34478   6.609  11.158   3.554
62054W        W34479   3.991  38.300   0.651
62055W        W34480  14.740  43.193   1.817
62056W        W34481   5.067   1.059  10.556
62057W        W34482  32.015  19.693  11.876
62058W        W34483   6.368  35.301  11.644
62059W        W34484   0.947  28.615  11.273
62060W        W34485  22.187  22.263  13.850
62061W        W34486  22.607  14.602   4.181
62062W        W34487   4.204  20.111  10.725
62063W        W34488  20.377  17.342  14.764
62064W        W34489  18.119  24.958   3.713
62065W        W34490   6.418  11.657   0.827
62066W        W34491  31.708  27.012  12.565
62067W        W34492   2.996  41.361   4.733
62068W        W34493   2.782  21.219   4.579
62069W        W34494   1.191  29.101   4.083
62070W        W34495  22.627  14.160  12.564
62071W        W34496   8.744  10.048   0.884
62072W        W34497  17.202  21.202   1.864
62073W        W34498  24.226  38.099   4.044
62074W        W34499   7.796  29.645   4.428
62075W        W34500   8.363  43.236  14.622
62076W        W34501  14.703  12.882  13.731
62077W        W34502  27.094  27.621   2.334
62078W        W34503  30.678  29.840  11.587
62079W        W34504  28.008  23.008  12.931
62080W        W34505  29.713  33.447  10.602
62081W        W34506  15.030  35.530  14.535
62082W        W34507  35.500  14.713  12.149
62083W        W34508   1.438  28.654   3.625
62084W        W34509  38.024  12.353  10.911
62085W        W34510  29.816  42.338  13.864
62086W        W34511  16.638  22.455   1.416
62087W        W34512  19.936   0.350   0.424
62088W        W34513  28.364   5.317  12.423
62089W        W34514  38.460  24.088   9.777
62090W        W34515  10.253  13.501   4.519
62091W        W34516   9.563  40.260  12.506
62092W        W34517  41.890  18.030   2.744
62093W        W34518   3.031  33.643  11.242
62094W        W34519  13.392  38.802   4.267
62095W        W34520  23.059  19.251  12.074
62096W        W34521   2.188  36.562  10.734
62097W        W34522  39.868  38.210  11.435
62098W        W34523  33.922  41.282  12.960
62099W        W34524  29.585  33.501   1.161
62100W        W34525  22.724  38.984   4.916
62101W        W34526  34.818  18.522  13.345
62102W        W34527  41.116  31.188   2.807
62103W        W34528  12.256  37.916  13.242
62104W        W34529  36.556  42.628   0.282
62105W        W34530  36.810   5.968  10.781
62106W        W34531  13.570  24.929   1.000
62107W        W34532  44.990  38.569  11.117
62108W        W34533  34.004  16.941   9.844
62109W        W34534   5.460  44.274  13.985
62110W        W34535  40.595  40.975   2.320
62111W        W34536  13.264  34.931   3.565
62112W        W34537  28.677  41.914  12.028
62113W        W34538  43.491   3.338   2.597
62114W        W34539  15.378  30.103   4.655
62115W        W34540  38.038  10.730  11.556
62116W        W34541  17.869  32.621   3.663
62117W        W34542   7.378  17.795   1.324
62118W        W34543  37.825  14.767   2.143
62119W        W34544  19.661  27.992   3.922
62120W        W34545  12.830  34.377   4.211
62121W        W34546  18.682   2.776  13.510
62122W        W34547   3.883   2.797   0.691
62123W        W34548   2.015  23.649  14.368
62124W        W34549   3.701   0.725  12.397
62125W        W34550  44.380  22.035  13.500
62126W        W34551   4.747  33.630  13.353
62127W        W34552  27.725  28.164  13.555
62128W        W34553   8.212  15.110   3.135
62129W        W34554  24.831  24.913  12.575
62130W        W34555  32.920   9.825   2.214
62131W        W34556  20.083   1.842   0.421
62132W        W34557  38.078   3.935  13.166
62133W        W34558  11.070  14.795  13.930
62134W        W34559  32.962  24.238   2.256
62135W        W34560  44.260  18.562  13.954
62136W        W34561   3.915  28.116   1.238
62137W        W34562  42.876  36.516   0.261
62138W        W34563  43.428  34.050   4.521
62139W        W34564  40.300  10.194  11.623
62140W        W34565  36.481   1.420   2.771
62141W        W34566   3.039  40.811  13.781
62142W        W34567  30.067   3.069  14.612
62143W        W34568  33.032  35.205   1.325
62144W        W34569   1.716  39.971   2.312
62145W        W34570  28.372  43.433  13.541
62146W        W34571  39.785   4.669  11.259
62147W        W34572   3.589  12.835   2.553
62148W        W34573  23.148  40.458   1.490
62149W        W34574  38.013  39.610  14.506
62150W        W34575  17.899  24.974  11.180
62151W        W34576   8.428  17.349   3.681
62152W        W34577  14.624  29.133  12.841
62153W        W34578   1.176  29.678  13.506
62154W        W34579  23.081  14.586  11.181
62155W        W34580   9.838   6.959  10.718
62156W        W34581   5.428   8.602   1.757
62157W        W34582  19.253   1.803  11.440
62158W        W34583  26.233  25.155  12.964
62159W        W34584  24.868   9.063  11.185
62160W        W34585  26.391  17.899   0.335
62161W        W34586   9.397  38.275   1.747
62162W        W34587   9.056   8.103   4.159
62163W        W34588  40.949  39.836   4.653
62164W        W34589   8.416  37.865   5.030
62165W        W34590  38.008  30.682  12.056
62166W        W34591  25.701  37.092   2.123
62167W        W34592  44.303  31.702  14.404
62168W        W34593  14.316  38.762  13.114
62169W        W34594  17.497  17.150   0.421
62170W        W34595  33.407  19.269  12.498
62171W        W34596   0.303   8.925   3.755
62172W        W34597  21.516   3.219  12.989
62173W        W34598  10.615  16.550   0.407
62174W        W34599  20.423  19.158  11.254
62175W        W34600   7.688  24.530   3.733
62176W        W34601  29.319  40.039  14.286
62177W        W34602   3.790  39.717   4.507
62178W        W34603  21.076  23.552  12.026
62179W        W34604   5.475  40.108  14.691
62180W        W34605   2.736   9.161  13.811
62181W        W34606   4.797   1.663   2.903
62182W        W34607  22.664   0.343   1.426
62183W        W34608  19.731  43.538  13.799
62184W        W34609  43.361  44.433   3.202
62185W        W34610  32.500  29.128   0.230
62186W        W34611  40.311  38.077  14.908
62187W        W34612  26.948   7.124  13.882
62188W        W34613  29.540  11.577  10.341
62189W        W34614   8.716  14.887  12.659
62190W        W34615  13.097  14.803  14.822
62191W        W34616  30.117  19.131   5.077
62192W        W34617   4.970   8.321   1.932
62193W        W34618  33.031  18.868   0.572
62194W        W34619  17.734  35.806   1.835
62195W        W34620  14.168  44.783  12.154
62196W        W34621   4.514  23.537  12.437
62197W        W34622  11.958   9.296   1.394
62198W        W34623   9.686  37.626  12.380
62199W        W34624  39.916  31.159   0.781
62200W        W34625  14.492  19.793  10.586
62201W        W34626  11.643  35.461  13.506
62202W        W34627  34.992  12.312  10.958
62203W        W34628   5.452  32.017   0.658
62204W        W34629   0.520   0.056  11.638
62205W        W34630  11.087  14.013  14.581
62206W        W34631  43.933   2.720   1.975
62207W        W34632  31.515  37.384   3.234
62208W        W34633  22.906  36.153  12.805
62209W        W34634  15.175  21.523  14.720
62210W        W34635  34.654  41.476  11.212
62211W        W34636  43.387  20.045  10.530
62212W        W34637  19.802   8.108  11.099
62213W        W34638  23.800  44.518   4.994
62214W        W34639  43.082  21.031  12.035
62215W        W34640  26.672  13.668   0.241
62216W        W34641   5.712  15.889  14.557
62217W        W34642  42.861   8.236   0.063
62218W        W34643  29.999  36.797  11.066
62219W        W34644   8.860   4.930  10.176
62220W        W34645   0.606  19.738  11.089
62221W        W34646  40.339  32.524   2.926
62222W        W34647  40.158  26.433  11.583
62223W        W34648  14.083  13.311   0.948
62224W        W34649  18.644  40.817   0.187
62225W        W34650   0.915   2.380  10.395
62226W        W34651  28.638  10.566   1.719
62227W        W34652  25.165  15.563  10.787
62228W        W34653  25.668   8.127  11.918
62229W        W34654  30.221  44.786  12.436
62230W        W34655  36.489  13.292  14.468
62231W        W34656  25.441  26.468  12.260
62232W        W34657   5.689  43.800   4.177
62233W        W34658  35.368   3.237   4.924
62234W        W34659   4.818   4.836  12.014
62235W        W34660  21.480  38.005  10.690
62236W        W34661  26.035   6.101   4.727
62237W        W34662  15.101  30.669   1.576
62238W        W34663  40.430  39.340  14.357
62239W        W34664  34.846  35.918   4.579
62240W        W34665  29.379   1.980  12.427
62241W        W34666  36.101   0.281  10.826
62242W        W34667  28.966  27.677  12.504
62243W        W34668  30.483  31.375  11.907
62244W        W34669  18.284   7.456   0.383
62245W        W34670  10.347  25.922   1.730
62246W        W34671  43.814  14.213  12.495
62247W        W34672  40.358  42.749  13.354
62248W        W34673  17.079   3.992   2.409
62249W        W34674  25.634   8.784   1.057
62250W        W34675   2.838   3.206  14.973
62251W        W34676  34.404  37.364  14.952
62252W        W34677  33.375  32.881   0.269
62253W        W34678  22.667  10.833  14.855
62254W        W34679  23.663  41.272  12.434
62255W        W34680  27.729  16.895   3.683
62256W        W34681  28.019   7.361   3.757
62257W        W34682   5.166  35.512   1.734
62258W        W34683  14.040  17.593  10.704
62259W        W34684  27.579  33.674  12.401
62260W        W34685  12.592  18.139   3.074
62261W        W34686  11.442  36.950   4.535
62262W        W34687  27.563  30.856   0.748
62263W        W34688  19.068   6.839   4.274
62264W        W34689  35.011  26.826  10.517
62265W        W34690  30.334  32.714   0.842
62266W        W34691  10.376  12.204  10.797
62267W        W34692  40.727  28.472   3.875
62268W        W34693  27.435  41.756   0.089
62269W        W34694  23.501  31.772   1.921
62270W        W34695   0.892  22.737   4.235
62271W        W34696  33.459  32.389   4.222
62272W        W34697  28.361  40.051   3.692
62273W        W34698  24.641  22.996   4.433
62274W        W34699  44.873  17.655   4.545
62275W        W34700   4.980  40.302   1.413
62276W        W34701   9.724  37.206   1.891
62277W        W34702  21.925   8.336   1.345
62278W        W34703   2.415  25.580  12.379
62279W        W34704  32.175  19.743  14.990
62280W        W34705  35.601  30.735  10.601
62281W        W34706  16.271  10.075   0.216
62282W        W34707  13.689  30.059   1.958
62283W        W34708  44.464  33.468   0.858
62284W        W34709   4.865  34.361  10.105
62285W        W34710   7.242  41.001   1.765
62286W        W34711  25.655  34.352   0.519
62287W        W34712  25.262   0.385  11.224
62288W        W34713   2.646  38.814  10.614
62289W        W34714  24.517  22.624  11.726
62290W        W34715  33.557  29.343  14.790
62291W        W34716  20.659  29.246  12.944
62292W        W34717  28.488  44.839  13.413
62293W        W34718   0.597  18.430  13.530
62294W        W34719  18.818  39.551  12.493
62295W        W34720  19.273  17.689   1.021
62296W        W34721  24.230   8.867  11.037
62297W        W34722  25.609  15.313   0.346
62298W        W34723  19.394   2.958   3.773
62299W        W34724  43.941  41.538   1.712
62300W        W34725  18.571  26.460  12.981
62301W        W34726   4.524   0.785   4.124
62302W        W34727  35.448  27.431   3.355
62303W        W34728  10.219  15.181  14.029
62304W        W34729  44.499   8.125   1.717
62305W        W34730  33.566  23.185   2.432
62306W        W34731  33.152  34.506  11.474
62307W        W34732  25.055  22.793  11.102
62308W        W34733   7.069  29.203  11.499
62309W        W34734  20.649  38.909   4.178
62310W        W34735   0.702   4.965  12.319
62311W        W34736  29.933  44.268   4.203
62312W        W34737  21.595  44.965   4.243
62313W        W34738  22.264  39.892  12.013
62314W        W34739  42.529   7.840   1.761
62315W        W34740  11.403  10.870  14.895
62316W        W34741  26.385   0.442  11.993
62317W        W34742  36.545  26.722   2.775
62318W        W34743  31.581   3.115   2.409
62319W        W34744  13.118  37.970  12.387
62320W        W34745  38.916   8.935   0.002
62321W        W34746  23.601   8.325  10.576
62322W        W34747   4.723  19.590   3.688
62323W        W34748  36.055  35.171  14.021
62324W        W34749  43.893  21.124  14.213
62325W        W34750  33.839  12.438  10.900
62326W        W34751   5.466  32.250   1.669
62327W        W34752   4.366  30.014  14.088
62328W        W34753  10.127  15.075  11.646
62329W        W34754  33.115  20.021  10.778
62330W        W34755  32.086  28.972   0.499
62331W        W34756  16.312  41.842   1.843
62332W        W34757  34.134  35.839  10.616
62333W        W34758   9.614   9.814   4.043
62334W        W34759  13.380  34.994  14.343
62335W        W34760  22.986  36.789   3.329
62336W        W34761  27.115  10.014   3.860
62337W        W34762  32.928   3.382   4.644
62338W        W34763   9.850  42.294  14.456
62339W        W34764  36.117  13.513   4.235
62340W        W34765  15.090  18.055   2.470
62341W        W34766  27.407  30.447   5.143
62342W        W34767  17.802   1.922   0.714
62343W        W34768  21.705  42.450   0.296
62344W        W34769  10.208  32.693   4.673
62345W        W34770  30.503  37.087  11.202
62346W        W34771  25.180  35.289  11.149
62347W        W34772  14.656  18.746  12.425
62348W        W34773  41.791   3.236  10.753
62349W        W34774  16.239  18.979  14.020
62350W        W34775  39.265  35.617  12.076
62351W        W34776  35.932  24.228  11.941
62352W        W34777  34.654  19.563   3.518
62353W        W34778  30.161   2.821  13.283
62354W        W34779  26.125  10.115  12.411
62355W        W34780  33.965  18.544   1.362
62356W        W34781  35.452  44.567  13.323
62357W        W34782   8.667  31.726  11.206
62358W        W34783  38.351   9.598   0.454
62359W        W34784  22.187  21.228   4.536
62360W        W34785  35.130   1.177  10.580
62361W        W34786  43.415   0.748  13.709
62362W        W34787  22.081   9.718   1.460
62363W        W34788   5.878  27.950   2.812
62364W        W34789  26.475  33.101   4.552
62365W        W34790  39.011  14.779  13.418
62366W        W34791   6.447  24.333   1.392
62367W        W34792  34.899  31.875  10.992
62368W        W34793   6.827  14.702   0.843
62369W        W34794  12.261  33.376   0.357
62370W        W34795  20.651  14.989   1.570
62371W        W34796   1.261  24.565   3.250
62372W        W34797  14.842  31.525   0.856
62373W        W34798  28.625   5.351  11.977
62374W        W34799   9.390   4.920  13.843
62375W        W34800   9.785  10.805  10.550
62376W        W34801  34.382  43.211   1.687
62377W        W34802  44.230  25.548   1.262
62378W        W34803  32.813   9.459  12.523
62379W        W34804  29.786  33.887   2.387
62380W        W34805  23.683  24.748   1.221
62381W        W34806  40.069  25.263   1.248
62382W        W34807  18.814  32.241  14.112
62383W        W34808  41.819   1.945   0.829
62384W        W34809   2.208  29.096  14.413
62385W        W34810  21.189  24.202   1.916
62386W        W34811  13.983  23.676  12.896
62387W        W34812  39.445   1.964   2.480
62388W        W34813  25.739  32.101  10.234
62389W        W34814   2.746  22.449   1.778
62390W        W34815   7.365   5.424   3.552
62391W        W34816  37.015   0.690   1.203
62392W        W34817  37.845   9.775  10.697
62393W        W34818  24.997  28.990  12.909
62394W        W34819  25.984  17.826  13.583
62395W        W34820   7.021   7.251   3.809
62396W        W34821   7.676   1.986   3.195
62397W        W34822  17.529  42.018   3.300
62398W        W34823  16.219  22.972   2.336
62399W        W34824  15.386  43.908  12.523
62400W        W34825  26.593  43.424  13.654
62401W        W34826  32.785  34.359  11.144
62402W        W34827  42.904  30.817   4.108
62403W        W34828  32.521  34.878  13.858
62404W        W34829  34.477  42.750   1.286
62405W        W34830  15.360  27.852   2.318
62406W        W34831  44.907  32.403  12.477
62407W        W34832  28.166  18.042  12.440
62408W        W34833  13.286  33.118  10.676
62409W        W34834  14.256  40.729   3.215
62410W        W34835   1.880  18.749  13.127
62411W        W34836  33.514   0.549  12.986
62412W        W34837  23.167  18.575  10.713
62413W        W34838  37.383  13.731  10.961
62414W        W34839  35.875   8.348   1.927
62415W        W34840  41.708  38.419  11.405
62416W        W34841  44.322   8.681   3.715
62417W        W34842  17.211  33.101   3.763
62418W        W34843   3.779   1.326   0.508
62419W        W34844  20.255  31.387   4.634
62420W        W34845  40.523  37.104   9.663
62421W        W34846   8.655  23.424  12.714
62422W        W34847  31.598  17.063   0.860
62423W        W34848  26.731   5.941   4.204
62424W        W34849  43.631  21.635   4.034
62425W        W34850  28.427  33.955  11.253
62426W        W34851  41.452   1.133  11.382
62427W        W34852  39.251  30.762  12.353
62428W        W34853  32.129  44.726  12.424
62429W        W34854  25.987   7.901   0.332
62430W        W34855   4.423  42.987  10.999
62431W        W34856  13.994  35.537   0.400
62432W        W34857  19.945  26.739   0.846
62433W        W34858   1.862  42.591   0.540
62434W        W34859  26.472  14.524  10.924
62435W        W34860  11.182  15.116  13.093
62436W        W34861  17.908  26.765  13.502
62437W        W34862  22.046  26.923   1.260
62438W        W34863  18.836  17.043  12.139
62439W        W34864  32.020  37.035   4.841
62440W        W34865  40.228   7.819   2.580
62441W        W34866  19.630  37.648   4.659
62442W        W34867  31.308   1.777   2.219
62443W        W34868  27.024   3.950  14.981
62444W        W34869  38.513  12.675  13.479
62445W        W34870   7.261  28.717   3.810
62446W        W34871  20.102   8.211  14.499
62447W        W34872  29.689  39.957   3.384
62448W        W34873   4.635  43.496   3.598
62449W        W34874  29.031  19.660   4.771
62450W        W34875   7.726   1.303  12.607
62451W        W34876  28.203   8.708  12.287
62452W        W34877   5.849  37.024  14.871
62453W        W34878  12.712   9.868  10.643
62454W        W34879   2.905  31.309  12.402
62455W        W34880  42.373  31.354   1.477
62456W        W34881  26.149  17.180   0.899
62457W        W34882  24.676  21.634   3.194
62458W        W34883   1.899  30.552   0.354
62459W        W34884   7.852  31.450  10.440
62460W        W34885   2.430  42.470   1.220
62461W        W34886  20.583  12.197   0.904
62462W        W34887  26.399  44.278   4.148
62463W        W34888  12.839  39.888  13.721
62464W        W34889  12.649  19.587   4.045
62465W        W34890  29.780  42.873  10.597
62466W        W34891  30.055  34.606   4.626
62467W        W34892  24.455   5.535  10.390
62468W        W34893   3.121  42.037  13.807
62469W        W34894  28.978   1.287   3.143
62470W        W34895  18.541  19.556  10.597
62471W        W34896  35.866  39.967   3.387
62472W        W34897   9.086  22.904  14.498
62473W        W34898   4.433   7.792   1.281
62474W        W34899  43.746   2.017  14.950
62475W        W34900  26.368  31.979   1.792
62476W        W34901  11.330  27.377  14.845
62477W        W34902  30.627  43.348  10.346
62478W        W34903  38.995   1.732   5.061
62479W        W34904  35.842  28.991  12.446
62480W        W34905  19.546  34.664   3.799
62481W        W34906   8.656   8.353   3.248
62482W        W34907  24.143  16.115   1.888
62483W        W34908  31.035   4.626   2.121
62484W        W34909  36.884  42.844   1.273
62485W        W34910  15.932   5.279   3.300
62486W        W34911   7.976  42.951   4.656
62487W        W34912  33.093  26.501   3.654
62488W        W34913   0.947  18.210   0.739
62489W        W34914  31.322  15.077   2.303
62490W        W34915  16.153  28.610   0.748
62491W        W34916  12.113  35.311  13.317
62492W        W34917   9.315  38.118   1.259
62493W        W34918  42.025   2.291   4.749
62494W        W34919  39.806  11.301  10.525
62495W        W34920  40.286  30.131   2.314
62496W        W34921   5.625   6.124   3.248
62497W        W34922  13.097  10.271  11.035
62498W        W34923   2.913  22.357  12.180
62499W        W34924  20.425  37.556   4.285
62500W        W34925   9.730   8.728  13.514
62501W        W34926  37.935  35.958   1.811
62502W        W34927  21.395  19.731  12.103
62503W        W34928  33.862  12.118  14.464
62504W        W34929  21.895  24.383  10.982
62505W        W34930   3.501  40.351  13.139
62506W        W34931  25.945  13.676   2.403
62507W        W34932  25.268   4.915   0.053
62508W        W34933  19.022  16.278   0.325
62509W        W34934  21.638  38.380   1.510
62510W        W34935  41.907  42.838  13.897
62511W        W34936  13.833   5.483  10.678
62512W        W34937  11.360   3.140  12.100
62513W        W34938  37.718  33.498   2.745
62514W        W34939   6.336   4.361  11.201
62515W        W34940  26.381  26.271   1.896
62516W        W34941  43.734  20.987   2.334
62517W        W34942  26.405  41.804   4.177
62518W        W34943  11.332  29.754   4.144
62519W        W34944  17.880  17.032  11.112
62520W        W34945  10.538  43.574  11.550
62521W        W34946  32.923   2.487  13.647
62522W        W34947  36.034   1.739   2.742
62523W        W34948  28.179  22.885  13.854
62524W        W34949  41.386  44.787   2.256
62525W        W34950  16.671  42.679   3.228
62526W        W34951  14.368  21.776   2.811
62527W        W34952  37.535  31.621  11.977
62528W        W34953  27.624  35.621  11.689
62529W        W34954  18.119  10.364  10.404
62530W        W34955   7.395  41.327  11.191
62531W        W34956  19.332  24.743   4.150
62532W        W34957  10.433  24.979  14.166
62533W        W34958  24.300   7.729   2.268
62534W        W34959   0.710  42.535   3.818
62535W        W34960  44.216  26.020  13.028
62536W        W34961  37.808  32.183  11.155
62537W        W34962   4.466   4.789   0.539
62538W        W34963  32.510  39.119   4.517
62539W        W34964  23.791  30.561  13.572
62540W        W34965  40.093  25.256  13.956
62541W        W34966   7.235  34.388   1.735
62542W        W34967  12.547  22.433   4.181
62543W        W34968  12.057  31.615   0.089
62544W        W34969  42.921  15.901   5.115
62545W        W34970  16.956  25.891  12.057
62546W        W34971  12.197   8.743   0.865
62547W        W34972   6.900  39.024  14.761
62548W        W34973  37.514  35.241   2.752
62549W        W34974  14.494  17.469  13.383
62550W        W34975  37.626  11.711   2.258
62551W        W34976  24.979  41.037  13.773
62552W        W34977  34.543  42.092  12.368
62553W        W34978  37.814  11.200   0.516
62554W        W34979  40.577  21.511  14.941
62555W        W34980   0.402  39.458   4.019
62556W        W34981  24.058  26.086   1.657
62557W        W34982  14.359  26.153   2.613
62558W        W34983  43.039  28.344   2.343
62559W        W34984  14.058  37.101  12.148
62560W        W34985   8.161   7.313   5.452
62561W        W34986  25.206   3.707   3.896
62562W        W34987  31.028  13.683   0.512
62563W        W34988  20.782  34.468   2.154
62564W        W34989   2.264  41.441   0.425
62565W        W34990   5.908  20.843   2.905
62566W        W34991  19.646  37.151   4.532
62567W        W34992  22.702  43.141   2.871
62568W        W34993  19.722  34.042  11.839
62569W        W34994  10.323  21.196  11.873
62570W        W34995  14.339   8.337   0.200
62571W        W34996   2.430  16.344   1.451
62572W        W34997  37.501   0.435  12.576
62573W        W34998  18.273  19.730   4.610
62574W        W34999  20.453  34.110  14.899
62575W        W35000   3.084  28.629   0.696
62576W        W35001  23.422  20.422   2.952
62577W        W35002  12.523  11.167   3.605
62578W        W35003   6.687   6.607  11.951
62579W        W35004  26.896  14.659  10.688
62580W        W35005  19.113  11.624  13.329
62581W        W35006  13.922  27.133  13.024
62582W        W35007  37.469  44.303   2.718
62583W        W35008  20.930  43.051   2.298
62584W        W35009  33.907  25.977  11.004
62585W        W35010   4.282  24.717   3.264
62586W        W35011   6.674  17.503   1.935
62587W        W35012   1.393  31.943   1.208
62588W        W35013   9.643  17.875  13.419
62589W        W35014  20.439  26.037  13.856
62590W        W35015  29.441  21.920   0.606
62591W        W35016  41.437  36.938   1.961
62592W        W35017  39.572  28.207   4.636
62593W        W35018  18.054  39.873   0.429
62594W        W35019  26.468  32.023   0.390
62595W        W35020  24.806  11.181   5.074
62596W        W35021  22.730  37.248  13.519
62597W        W35022  17.386  36.057   1.315
62598W        W35023  11.924  17.605  12.411
62599W        W35024  27.098  39.359   3.157
62600W        W35025  28.176  34.848  12.071
62601W        W35026  42.221  40.863   3.188
62602W        W35027  26.161   7.900  11.871
62603W        W35028   6.688   5.838  12.867
62604W        W35029  38.864   9.780   2.282
62605W        W35030  12.462  24.570   4.978
62606W        W35031  12.792  36.062   4.166
62607W        W35032  11.107  33.045  13.525
62608W        W35033  36.520  13.584   3.907
62609W        W35034  15.897   0.203   1.369
62610W        W35035  38.390   5.997   1.723
62611W        W35036  42.857  12.736   4.601
62612W        W35037   0.632   0.938   1.843
62613W        W35038  29.162  44.742   2.049
62614W        W35039  36.390   5.769   1.282
62615W        W35040  31.382  21.078   3.587
62616W        W35041  16.215  25.058   2.366
62617W        W35042  20.666  18.282  14.792
62618W        W35043  30.548  34.306   2.842
62619W        W35044  44.384   5.260   0.393
62620W        W35045  24.685  20.043   1.222
62621W        W35046  19.835  42.748  13.303
62622W        W35047  13.193  31.142   1.021
62623W        W35048   7.378  40.341   0.740
62624W        W35049   8.464   0.741   0.399
62625W        W35050  12.320  42.669  12.918
62626W        W35051  26.663   2.877  11.188
62627W        W35052   2.677  42.311   3.233
62628W        W35053  39.418   5.698  10.644
62629W        W35054  27.871   0.812  12.748
62630W        W35055  17.044  31.863   0.907
62631W        W35056  30.953  23.244  12.434
62632W        W35057  42.750  21.901  13.033
62633W        W35058   8.233   1.871  14.748
62634W        W35059   4.482  34.602   4.570
62635W        W35060  10.780   0.946   2.423
62636W        W35061  16.885  41.690  10.775
62637W        W35062   4.749   0.417  11.078
62638W        W35063   9.326  19.245   2.820
62639W        W35064  34.915  38.479   3.787
62640W        W35065   8.135  36.550  11.975
62641W        W35066  28.597  16.141   3.191
62642W        W35067  25.906   2.685   0.452
62643W        W35068  21.947   0.794   4.752
62644W        W35069  43.139  15.353  13.004
62645W        W35070  14.274  31.358   1.479
62646W        W35071  33.095  35.352  14.669
62647W        W35072   9.736   7.666   2.700
62648W        W35073   8.409  28.583   4.174
62649W        W35074  15.078  12.732   2.262
62650W        W35075  12.733  26.572   0.688
62651W        W35076   0.867   9.239   1.992
62652W        W35077  21.528  42.300  12.943
62653W        W35078  21.041  31.874   2.858
62654W        W35079  40.361  23.526   2.306
62655W        W35080  17.127   1.503   1.340
62656W        W35081  24.300  25.123   3.337
62657W        W35082  24.592  31.639   4.343
62658W        W35083  15.144  10.499  12.795
62659W        W35084  27.944  10.643   3.120
62660W        W35085  14.603  22.709  14.655
62661W        W35086  19.674  16.119   4.599
62662W        W35087  20.084  15.276   4.558
62663W        W35088  15.113  16.655  12.567
62664W        W35089   9.757  40.788   2.710
62665W        W35090  12.779   6.796   4.537
62666W        W35091   7.065   3.555  14.897
62667W        W35092  20.066  24.939  12.955
62668W        W35093  27.828   6.410  14.402
62669W        W35094  22.850  27.637   2.757
62670W        W35095  11.952  26.191   4.367
62671W        W35096  19.735   0.520   4.712
62672W        W35097  23.716  24.235  12.913
62673W        W35098  35.540  14.884   1.379
62674W        W35099  18.997   2.649  11.929
62675W        W35100   0.907  39.424  14.865
62676W        W35101  30.976  16.321  11.440
62677W        W35102  33.654  17.246  14.359
62678W        W35103  20.250  31.224   1.313
62679W        W35104   6.362   9.460   0.027
62680W        W35105   8.039  23.768  11.981
62681W        W35106  13.176  16.586  13.966
62682W        W35107   6.258  30.984  12.579
62683W        W35108  10.121  12.837  13.980
62684W        W35109  14.551  41.162  10.340
62685W        W35110  42.964  43.003   0.474
62686W        W35111   9.428  16.252   1.382
62687W        W35112  15.714  35.580   0.017
62688W        W35113   1.721  18.215   2.363
62689W        W35114  42.380  27.947   3.624
62690W        W35115  27.329  39.924   0.250
62691W        W35116  38.443  33.979   3.618
62692W        W35117  18.954   1.935  13.595
62693W        W35118  19.765  13.344   4.581
62694W        W35119   8.337  25.634  12.485
62695W        W35120  33.932  30.542   3.389
62696W        W35121  15.810  26.073   0.297
62697W        W35122  36.843  28.877   4.199
62698W        W35123  22.656  34.960  12.444
62699W        W35124  31.623  13.191  11.211
62700W        W35125  44.257  35.170   1.172
62701W        W35126  39.813  28.266  13.937
62702W        W35127  10.720  28.531   4.278
62703W        W35128  14.245  14.054   2.795
62704W        W35129   3.723  19.191  13.915
62705W        W35130  26.465  10.015   3.945
62706W        W35131   1.994   7.203   4.649
62707W        W35132  41.466  26.974   4.228
62708W        W35133  20.173   8.215   3.350
62709W        W35134  38.822  31.244  11.648
62710W        W35135  31.987  31.796  11.121
62711W        W35136  26.707  37.519  12.916
62712W        W35137  23.587  27.052   0.419
62713W        W35138  11.231  18.230   4.131
62714W        W35139  14.328   0.251  12.369
62715W        W35140  22.944  36.668  12.888
62716W        W35141  25.063  31.626   4.615
62717W        W35142  12.853  43.643  11.973
62718W        W35143  43.614  34.383  12.205
62719W        W35144   3.349  38.297   4.222
62720W        W35145  39.569  33.169  12.958
62721W        W35146  29.089  39.531  10.966
62722W        W35147  33.438  22.766   0.224
62723W        W35148  22.663   1.734   3.721
62724W        W35149  27.740  13.146  12.370
62725W        W35150  11.943   5.893   1.991
62726W        W35151  23.282   3.418  14.028
62727W        W35152   4.180  24.602  14.774
62728W        W35153  24.116   8.119  10.563
62729W        W35154  25.018  19.263   3.661
62730W        W35155   5.800  22.705   4.598
62731W        W35156  35.624  19.834  14.386
62732W        W35157   2.958  16.649   1.906
62733W        W35158  30.469   6.651   2.625
62734W        W35159  21.752  13.143   0.812
62735W        W35160  27.897  13.064  13.991
62736W        W35161  30.121  36.013  12.000
62737W        W35162  25.857  18.706  11.547
62738W        W35163  18.252  34.087  11.439
62739W        W35164  23.352  23.662   2.274
62740W        W35165  34.723   9.271   1.474
62741W        W35166  30.487  33.805   3.112
62742W        W35167  12.665  15.404  12.036
62743W        W35168  24.088  24.313  11.887
62744W        W35169   2.196   1.422   0.279
62745W        W35170  20.059  21.916  11.586
62746W        W35171  29.143  18.271   2.141
62747W        W35172   4.607  27.010   1.190
62748W        W35173  44.748  17.876  13.605
62749W        W35174  41.933  36.987  12.101
62750W        W35175  16.733  11.950   0.682
62751W        W35176  32.814  14.091   3.819
62752W        W35177  25.253  37.491  12.535
62753W        W35178  20.536  24.445   3.205
62754W        W35179   4.923   4.056   1.885
62755W        W35180  41.194   2.588   0.634
62756W        W35181  23.454  10.262   1.109
62757W        W35182   7.932  36.581   0.823
62758W        W35183  31.508   3.343  11.474
62759W        W35184   2.963   5.890  12.830
62760W        W35185   7.938  33.607  11.561
62761W        W35186   8.596   7.713   1.939
62762W        W35187  13.876   6.620  11.925
62763W        W35188  25.258  11.962   4.191
62764W        W35189  43.051   4.623   4.082
62765W        W35190  38.841  14.171  10.871
62766W        W35191   9.213  11.236  11.097
62767W        W35192  29.897   8.785   4.946
62768W        W35193  25.450  35.796  10.715
62769W        W35194  18.659  18.154   4.643
62770W        W35195  14.766  30.919   4.135
62771W        W35196  37.356  23.296   4.967
62772W        W35197  25.544  32.391  11.542
62773W        W35198  24.950  38.994  11.687
62774W        W35199  36.244  21.241  13.433
62775W        W35200  34.589  33.890  14.454
62776W        W35201  38.487  16.047  14.017
62777W        W35202  11.197  31.520   2.788
62778W        W35203  36.382   2.447   0.800
62779W        W35204  21.957  38.413   0.725
62780W        W35205  12.126   8.236  14.557
62781W        W35206  25.594  24.288   3.909
62782W        W35207  28.879  38.464   2.377
62783W        W35208  24.704  25.552   3.325
62784W        W35209  27.169  24.050  11.603
62785W        W35210   7.150  30.373  11.000
62786W        W35211   2.277  15.192  10.713
62787W        W35212  35.469  10.083   0.204
62788W        W35213  31.229  25.926  14.004
62789W        W35214  40.864  42.443  12.142
62790W        W35215  34.628   5.535  11.180
62791W        W35216   7.194  18.712  10.674
62792W        W35217  26.487   1.380   1.919
62793W        W35218  36.309  28.814   4.117
62794W        W35219  10.642   9.831   3.373
62795W        W35220  34.402  22.496  10.840
62796W        W35221   0.277  18.586  12.532
62797W        W35222  21.597   0.355   1.267
62798W        W35223  20.127   6.534  12.947
62799W        W35224   1.373  39.575   1.756
62800W        W35225  33.193   5.432   1.277
62801W        W35226  18.290  13.018  13.903
62802W        W35227  15.567  14.699   1.026
62803W        W35228   2.886   9.176   3.423
62804W        W35229  36.491  23.733  12.367
62805W        W35230   0.328  10.264   3.035
62806W        W35231  13.216   7.468   3.227
62807W        W35232  24.138  22.921  11.028
62808W        W35233  25.091  17.860  12.276
62809W        W35234   8.850  14.130   0.926
62810W        W35235   9.148  11.097   3.313
62811W        W35236   9.761   4.496  10.441
62812W        W35237   2.956  13.311   3.579
62813W        W35238   1.240  41.419   3.426
62814W        W35239  30.921  22.496   4.435
62815W        W35240   1.343   1.230  12.481
62816W        W35241   9.690  35.440  10.207
62817W        W35242  42.506   0.236  12.569
62818W        W35243  31.036  26.376   3.345
62819W        W35244  34.416  29.683  11.746
62820W        W35245  33.183   3.408  13.976
62821W        W35246  31.650   5.232   0.374
62822W        W35247  15.660  11.316  13.856
62823W        W35248  36.042  13.292   1.031
62824W        W35249   4.299  15.116   3.735
62825W        W35250  18.221  19.849  12.078
62826W        W35251  21.032   5.142  13.350
62827W        W35252  43.461  34.143   2.289
62828W        W35253  31.956   5.278  14.914
62829W        W35254  26.543   7.210  11.127
62830W        W35255  12.116  25.844  12.938
62831W        W35256   9.284   0.634  12.571
62832W        W35257  23.184  29.183   3.993
62833W        W35258  10.720  22.740   4.842
62834W        W35259  19.156  15.807  10.845
62835W        W35260  20.268  30.431   4.574
62836W        W35261  44.482  42.448   2.314
62837W        W35262  33.959   9.239   3.504
62838W        W35263   8.618   9.916   3.903
62839W        W35264  18.568  11.690   3.073
62840W        W35265   6.179   8.436  12.478
62841W        W35266   8.172  37.976   1.402
62842W        W35267  26.253  43.531  11.711
62843W        W35268  17.741  34.324  13.011
62844W        W35269   7.589  33.048  14.990
62845W        W35270  34.904  41.266  11.638
62846W        W35271   3.953  10.662  13.615
62847W        W35272  32.183  34.961  12.146
62848W        W35273   6.577  34.267  14.463
62849W        W35274  14.066  22.796   2.774
62850W        W35275  20.571  33.098  14.386
62851W        W35276  24.524  18.608   4.683
62852W        W35277  24.290  11.699   1.713
62853W        W35278  29.492   7.109   1.760
62854W        W35279  42.600  21.221   2.510
62855W        W35280  21.195  16.525  11.520
62856W        W35281  36.975  19.302  12.110
62857W        W35282  18.545  31.995   3.726
62858W        W35283  36.868  44.870   1.494
62859W        W35284  11.265  39.104  11.287
62860W        W35285   8.655   4.450  12.026
62861W        W35286  36.543   1.317  12.878
62862W        W35287  33.026   4.472  11.424
62863W        W35288   3.399  39.354  14.246
62864W        W35289  36.022  42.515   4.460
62865W        W35290  19.513   9.785   2.649
62866W        W35291   2.806   5.401  11.939
62867W        W35292   5.748  22.096   0.572
62868W        W35293  43.386  38.299   2.595
62869W        W35294  39.046   1.780  11.444
62870W        W35295  33.915  25.561   4.521
62871W        W35296  28.567  39.390   1.644
62872W        W35297  15.293  29.142   1.961
62873W        W35298  12.092  13.793  10.670
62874W        W35299  25.343  11.678   4.595
62875W        W35300  39.687  12.127   3.222
62876W        W35301  23.896  21.647   2.783
62877W        W35302  28.303  20.675   3.058
62878W        W35303   3.335  35.007  10.951
62879W        W35304  35.278  13.260   1.410
62880W        W35305  14.238  36.225  12.227
62881W        W35306  37.102   0.502  10.993
62882W        W35307  40.576   1.819  13.963
62883W        W35308  36.962  40.531  11.121
62884W        W35309  32.520  28.190  10.911
62885W        W35310  25.205   8.594   2.640
62886W        W35311  30.239  31.267  14.510
62887W        W35312  37.998  38.628  14.314
62888W        W35313  44.944  10.328   4.146
62889W        W35314  20.624  22.726   3.728
62890W        W35315  13.843   2.818  11.542
62891W        W35316  36.866  29.215  12.397
62892W        W35317  41.431  22.685  13.343
62893W        W35318  13.379  41.189   2.233
62894W        W35319  29.160  11.485  11.831
62895W        W35320  31.487   7.826  14.968
62896W        W35321  26.614  42.034  13.887
62897W        W35322  14.690  20.830   0.739
62898W        W35323  33.564   3.912  12.960
62899W        W35324  35.498   1.989   0.876
62900W        W35325  26.907   8.990  14.769
62901W        W35326  23.563  25.990  10.621
62902W        W35327  33.572  18.073   2.211
62903W        W35328  37.999  29.096   3.620
62904W        W35329  24.186  26.439  13.946
62905W        W35330  21.553  37.069   4.266
62906W        W35331  40.469  29.619  13.758
62907W        W35332  41.333   7.369   0.791
62908W        W35333   9.890   6.423  10.647
62909W        W35334  42.248  25.986  10.845
62910W        W35335  13.674   4.387   0.486
62911W        W35336  20.066  44.151   1.457
62912W        W35337   6.325  31.005   2.411
62913W        W35338  35.130  37.098   2.927
62914W        W35339   2.673   4.358  13.326
62915W        W35340  44.401  21.906   4.569
62916W        W35341  33.835  26.979   4.040
62917W        W35342  25.292  23.705  12.988
62918W        W35343  33.049  34.290   0.404
62919W        W35344   4.961  27.536  14.391
62920W        W35345  34.915  20.149  10.674
62921W        W35346  38.850  37.971   1.804
62922W        W35347   7.967  30.001   2.493
62923W        W35348  44.818  34.863   1.498
62924W        W35349  37.555  25.886   1.327
62925W        W35350  19.165  11.147   3.708
62926W        W35351   4.914  23.108   0.600
62927W        W35352   0.510  13.859  13.435
62928W        W35353  26.759  33.482   3.238
62929W        W35354  18.260  27.693  11.491
62930W        W35355  29.465  44.838  13.825
62931W        W35356  44.793  11.904   4.331
62932W        W35357  28.165  10.430   1.885
62933W        W35358  21.963  44.659  11.481
62934W        W35359  31.964   3.431  10.611
62935W        W35360  42.984  39.706  13.866
62936W        W35361  24.244  31.342  11.215
62937W        W35362   9.386   6.221  11.976
62938W        W35363   5.873  42.901  14.846
62939W        W35364  40.967  33.276   2.652
62940W        W35365   8.242  37.054  10.520
62941W        W35366  33.054  14.847   1.800
62942W        W35367   1.017  38.363  10.228
62943W        W35368  16.815  14.663   0.385
62944W        W35369  29.490  29.537  13.352
62945W        W35370  16.680   6.871  14.775
62946W        W35371  30.649   3.733   1.725
62947W        W35372  33.148  34.417  13.388
62948W        W35373   2.875  44.346  10.618
62949W        W35374  15.251  22.948   0.408
62950W        W35375   9.268  22.521   0.904
62951W        W35376  15.196  26.952   1.735
62952W        W35377  41.433   6.805  10.526
62953W        W35378  28.330  33.192   3.370
62954W        W35379  21.535  41.934  14.521
62955W        W35380   4.661   3.672  13.275
62956W        W35381  42.827  33.890  11.143
62957W        W35382  26.059  32.589   5.171
62958W        W35383   8.333  42.818  12.948
62959W        W35384   8.945  39.865  14.807
62960W        W35385  43.249  43.540  11.202
62961W        W35386   3.449   0.449  14.045
62962W        W35387  11.148  42.428  12.411
62963W        W35388  28.161   7.691  12.462
62964W        W35389  35.522  38.016  14.762
62965W        W35390  16.639  34.011   2.889
62966W        W35391  35.195  30.414   1.308
62967W        W35392  38.108  11.772  13.854
62968W        W35393  27.169  40.862  13.215
62969W        W35394   0.750   0.890   3.670
62970W        W35395  17.826  27.548  14.530
62971W        W35396  35.233  26.363   0.294
62972W        W35397  17.295  14.527   0.336
62973W        W35398  14.907   9.347   0.019
62974W        W35399   5.746  11.937   2.513
62975W        W35400  42.097   9.798   0.246
62976W        W35401  33.430  39.113   1.891
62977W        W35402   1.517  11.650  11.551
62978W        W35403  44.487   8.583  13.144
62979W        W35404  19.129   9.292  14.754
62980W        W35405  20.992  35.443   3.991
62981W        W35406  28.177   0.311  13.327
62982W        W35407   4.001  15.724   2.871
62983W        W35408  12.204  21.512   0.848
62984W        W35409  26.804  24.193   2.131
62985W        W35410  32.644  14.282  12.499
62986W        W35411  37.101  29.697   5.060
62987W        W35412  18.773  32.460  14.571
62988W        W35413  41.625  43.114  10.324
62989W        W35414  15.613  33.935  13.483
62990W        W35415   3.972   8.234  13.790
62991W        W35416  15.252  15.684   2.476
62992W        W35417   9.684  17.675  10.859
62993W        W35418  37.875  12.804   1.874
62994W        W35419   7.373  11.198  11.574
62995W        W35420  16.230  16.853  13.322
62996W        W35421  18.206  26.556   2.247
62997W        W35422  43.405  42.582   1.201
62998W        W35423  26.748   2.082   2.887
62999W        W35424  41.628  18.711  10.679
63000W        W35425  38.190  32.198  12.102
63001W        W35426  27.812   6.336   1.489
63002W        W35427   7.937  38.442   1.417
63003W        W35428   6.933   1.272   2.893
63004W        W35429  40.910  10.383   4.096
63005W        W35430  31.065  23.957   0.985
63006W        W35431  38.973  11.054   4.154
63007W        W35432  31.965  41.104   0.781
63008W        W35433  22.032  39.990   0.513
63009W        W35434  23.007   0.193  12.617
63010W        W35435  11.085  24.563   1.721
63011W        W35436  21.561  17.810   0.096
63012W        W35437  36.995  37.685   3.565
63013W        W35438   7.764  24.999  13.966
63014W        W35439   9.563  13.439  10.731
63015W        W35440  44.547  23.710   0.997
63016W        W35441  26.908  40.761   1.787
63017W        W35442  41.479   3.354   0.244
63018W        W35443  44.258  14.123  14.221
63019W        W35444  43.006  33.861  12.851
63020W        W35445  12.544  11.323  13.581
63021W        W35446  20.368   0.306  11.160
63022W        W35447  13.682  25.513   3.134
63023W        W35448  16.712  43.720   3.235
63024W        W35449   1.903  27.297  12.397
63025W        W35450  27.521  16.167   4.141
63026W        W35451  36.997  14.755   2.817
63027W        W35452  14.158  21.829  14.793
63028W        W35453  21.709  15.615   3.347
63029W        W35454  21.216  24.703   3.429
63030W        W35455   5.497  32.484  12.902
63031W        W35456  28.956  35.043   2.815
63032W        W35457  10.868  14.047   0.415
63033W        W35458   4.907  14.720  12.119
63034W        W35459  27.663  17.148  13.273
63035W        W35460  16.125   9.381   1.824
63036W        W35461  16.448  13.148   3.208
63037W        W35462  19.006  33.832  14.768
63038W        W35463   3.798  38.371  14.779
63039W        W35464  35.066   0.590   1.684
63040W        W35465  11.606  41.344   0.445
63041W        W35466   5.419  29.075   0.404
63042W        W35467   4.942  35.401  14.770
63043W        W35468  17.832  31.786   4.623
63044W        W35469  12.647  35.291   4.639
63045W        W35470  32.132  27.588   0.635
63046W        W35471   0.235  16.799   4.060
63047W        W35472  14.655  10.682  11.198
63048W        W35473   1.698  14.275   3.138
63049W        W35474  41.266   4.886  13.535
63050W        W35475   5.278   6.753  13.553
63051W        W35476   4.204  41.013  13.004
63052W        W35477  31.696  39.322   4.909
63053W        W35478   4.908  32.930  12.875
63054W        W35479   3.405  36.405  14.958
63055W        W35480  26.429  16.576   4.561
63056W        W35481  44.762  37.388   2.242
63057W        W35482  29.142  15.644   0.929
63058W        W35483  35.447  33.982  13.772
63059W        W35484  20.000  29.391  12.052
63060W        W35485  10.799  24.517  13.138
63061W        W35486   2.798  36.821  14.359
63062W        W35487  40.861   7.199  14.028
63063W        W35488  30.815   1.033   0.804
63064W        W35489  21.050  15.085   4.578
63065W        W35490  39.836  36.624   4.742
63066W        W35491  38.485  21.792   2.293
63067W        W35492  23.309  37.481   4.459
63068W        W35493   1.630  44.950  12.719
63069W        W35494  15.308   3.410  10.282
63070W        W35495  27.406  40.338  14.554
63071W        W35496  43.485  33.368   2.775
63072W        W35497  21.143  26.161  12.119
63073W        W35498  26.028  43.504  14.532
63074W        W35499  30.078  24.138   4.926
63075W        W35500  30.127   9.130   1.989
63076W        W35501  19.049  12.823   0.010
63077W        W35502  32.270   8.242  14.300
63078W        W35503  17.252  30.606  11.713
63079W        W35504  40.935   0.843   1.826
63080W        W35505  24.479  26.562  13.468
63081W        W35506  24.738  27.066  13.750
63082W        W35507  24.439   1.395  13.922
63083W        W35508  25.663  41.006   3.693
63084W        W35509  41.361  30.435  13.518
63085W        W35510   9.906  41.230  14.397
63086W        W35511  30.145  44.712  14.465
63087W        W35512  31.744  21.217   3.959
63088W        W35513  14.840   8.122   4.364
63089W        W35514   8.840   9.086   0.308
63090W        W35515  27.499   7.106  13.869
63091W        W35516   4.976  14.637  12.635
63092W        W35517   0.482  37.804   1.300
63093W        W35518   1.701   3.755   4.493
63094W        W35519  32.548   5.840   3.363
63095W        W35520  10.513  37.833  10.663
63096W        W35521   5.504   0.485  13.973
63097W        W35522  44.959  17.814  14.079
63098W        W35523   5.434  29.162   2.214
63099W        W35524  27.633  36.854  13.540
63100W        W35525  22.937  43.952   1.848
63101W        W35526  25.299  33.599  11.376
63102W        W35527   9.334  29.253   2.757
63103W        W35528  19.289  38.035   4.726
63104W        W35529  30.404  42.421  13.148
63105W        W35530  24.137  30.882  11.516
63106W        W35531  36.981   5.777  12.705
63107W        W35532  29.473   2.016   0.966
63108W        W35533   9.407  31.138  11.468
63109W        W35534  33.277  12.704   2.742
63110W        W35535   4.249   1.142   1.004
63111W        W35536  27.787  34.154  12.480
63112W        W35537  15.789  40.291   0.321
63113W        W35538  27.593  41.777  14.606
63114W        W35539   5.628  37.290  14.467
63115W        W35540  17.250  16.547   1.373
63116W        W35541  17.258  16.398   4.069
63117W        W35542   3.033  42.030   1.378
63118W        W35543  44.348   6.127   0.727
63119W        W35544  43.359   1.882   5.094
63120W        W35545  24.739   0.335  11.625
63121W        W35546  17.100   8.087  13.110
63122W        W35547   1.197  35.820  10.800
63123W        W35548  29.025   6.826  14.966
63124W        W35549   1.834  38.273  14.111
63125W        W35550   6.373   0.288   1.313
63126W        W35551  19.778  11.570  14.830
63127W        W35552  12.733  16.544  14.273
63128W        W35553   5.698  27.949  13.912
63129W        W35554  20.156  33.198  13.463
63130W        W35555   1.845  12.852  10.959
63131W        W35556   6.732   3.388   0.675
63132W        W35557  44.328  39.525   3.484
63133W        W35558  20.066  43.478   3.331
63134W        W35559   6.655  37.503   3.826
63135W        W35560  13.128  14.182   4.444
63136W        W35561  11.084  27.953   3.240
63137W        W35562  15.070  18.541   2.263
63138W        W35563  34.494  25.288   2.438
63139W        W35564  41.277   2.259  11.212
63140W        W35565   0.048   9.195   2.339
63141W        W35566  22.475   5.001  12.571
63142W        W35567   4.770  19.814   4.599
63143W        W35568  35.386  34.891  11.220
63144W        W35569  27.235  42.386   1.900
63145W        W35570   7.161   8.484   1.224
63146W        W35571  19.350  39.758   2.012
63147W        W35572  25.936  40.743   1.825
63148W        W35573  12.701  14.294  12.341
63149W        W35574  17.585  30.884  14.417
63150W        W35575  30.672  20.724   0.271
63151W        W35576  40.858  27.578  11.843
63152W        W35577  23.186   3.730  11.700
63153W        W35578  17.502  31.617   0.328
63154W        W35579  12.844  20.721  11.143
63155W        W35580  20.655  34.975   2.055
63156W        W35581  15.126  44.498   1.948
63157W        W35582  22.625  34.124  10.875
63158W        W35583  34.299  21.109  13.007
63159W        W35584  11.555  32.764  13.546
63160W        W35585  33.747  26.061   3.085
63161W        W35586   8.199   6.571   2.708
63162W        W35587  31.324  18.619   0.083
63163W        W35588   1.722  14.982  14.415
63164W        W35589  11.806  11.595  12.884
63165W        W35590  14.526  13.338   1.855
63166W        W35591  23.507  17.250   2.724
63167W        W35592  35.649   2.425  13.058
63168W        W35593   8.269  40.862  13.300
63169W        W35594  43.489   3.511  13.008
63170W        W35595   0.975  17.097   2.131
63171W        W35596   9.371  15.618  12.328
63172W        W35597  39.057  10.774  11.483
63173W        W35598  15.455  23.029  13.615
63174W        W35599  23.090  26.551   0.784
63175W        W35600  33.960  19.852  12.134
63176W        W35601   3.147   9.313  12.856
63177W        W35602  35.518  17.688   1.181
63178W        W35603  20.537  36.914  12.509
63179W        W35604  43.612   7.048   4.429
63180W        W35605  12.855  41.299  14.012
63181W        W35606   2.811   7.806   2.687
63182W        W35607  27.485  44.034   0.296
63183W        W35608  36.071  24.947   0.369
63184W        W35609  38.324   2.858   3.355
63185W        W35610  15.842   2.450   3.494
63186W        W35611  40.937   0.705   0.771
63187W        W35612  23.770  43.428  14.746
63188W        W35613  26.706   1.264   2.390
63189W        W35614  16.691  14.734  10.638
63190W        W35615  19.826  34.626  12.459
63191W        W35616   3.026  26.660  13.022
63192W        W35617  19.114  22.484   4.178
63193W        W35618   5.129   1.482  11.467
63194W        W35619  20.887  30.137   1.442
63195W        W35620  23.822  42.980  14.994
63196W        W35621  29.987  16.360   3.288
63197W        W35622  18.540  30.801   3.410
63198W        W35623  43.076  28.805  14.974
63199W        W35624   3.725  39.893  13.028
63200W        W35625  35.507  38.585   2.200
63201W        W35626  14.177  33.469  12.707
63202W        W35627  37.796   7.443   4.709
63203W        W35628  38.329  29.524   2.676
63204W        W35629  14.043   6.856  13.895
63205W        W35630  27.273  39.921   3.181
63206W        W35631   0.807  18.784   4.652
63207W        W35632  27.572   3.164   1.776
63208W        W35633  33.771  36.312   3.656
63209W        W35634  19.028  32.823   0.886
63210W        W35635  17.556  35.102  12.573
63211W        W35636  20.675   0.733  10.408
63212W        W35637  32.989  21.691  10.900
63213W        W35638  29.315  24.703   3.769
63214W        W35639  14.721  32.074   3.531
63215W        W35640  17.377  22.124   0.867
63216W        W35641  15.782   5.707  13.989
63217W        W35642  10.891  43.264   4.589
63218W        W35643   5.766  36.382   1.777
63219W        W35644  11.592   6.252   1.714
63220W        W35645  30.192  14.702   0.702
63221W        W35646  20.498  41.170   0.692
63222W        W35647  20.281  42.020   2.305
63223W        W35648  32.231   1.873  12.111
63224W        W35649  20.244  15.739   3.662
63225W        W35650  40.612  23.258   0.490
63226W        W35651   8.162   7.783  13.250
63227W        W35652  29.800  15.213  12.491
63228W        W35653  29.263   4.850   3.561
63229W        W35654  39.427  43.089   4.443
63230W        W35655  13.469  30.402  12.092
63231W        W35656  13.655  36.945  11.870
63232W        W35657  13.373  14.913  11.071
63233W        W35658  11.765   2.436   4.212
63234W        W35659   3.252  26.038  10.527
63235W        W35660  12.250  15.026   4.664
63236W        W35661  19.354  31.458  14.958
63237W        W35662   1.313  16.603  14.521
63238W        W35663  21.331  42.630   4.075
63239W        W35664   1.928  28.941   2.746
63240W        W35665  17.276  33.895  12.958
63241W        W35666  37.198  36.468  11.108
63242W        W35667  36.074  39.369   3.752
63243W        W35668   1.409  35.357   4.569
63244W        W35669   3.746  32.029   2.259
63245W        W35670  17.362  33.588   3.754
63246W        W35671  14.806  14.273   0.643
63247W        W35672  18.209  21.229  12.180
63248W        W35673  30.712  16.219  14.381
63249W        W35674  13.781  41.819   2.667
63250W        W35675  27.701  36.501   0.949
63251W        W35676  17.182  44.184  12.303
63252W        W35677  30.215  28.114   3.913
63253W        W35678  39.887  23.825  11.576
63254W        W35679  15.802  38.410  13.497
63255W        W35680  35.530  32.660  13.429
63256W        W35681  40.219   3.169  11.655
63257W        W35682  31.501  36.884  13.374
63258W        W35683  16.921  37.499  13.381
63259W        W35684  21.498  41.871   2.620
63260W        W35685  39.980  28.495   1.891
63261W        W35686  22.699  28.412  11.562
63262W        W35687  37.098  38.818  10.638
63263W        W35688  35.380  32.434   2.329
63264W        W35689  27.452   0.741  13.033
63265W        W35690  35.979  31.464  11.441
63266W        W35691  40.332   7.207   3.175
63267W        W35692  13.096  21.586   4.890
63268W        W35693  11.385  11.541   3.220
63269W        W35694   6.397  37.964  13.296
63270W        W35695  12.615  29.656  13.439
63271W        W35696  14.182  17.648   1.395
63272W        W35697  26.161  16.076   4.753
63273W        W35698  38.889  31.852  14.522
63274W        W35699  10.113  44.476   5.020
63275W        W35700  18.079  40.164  14.090
63276W        W35701  28.174   4.413  14.329
63277W        W35702  22.684  27.531   3.883
63278W        W35703  39.328  31.527  14.467
63279W        W35704  13.832  12.749   1.925
63280W        W35705  20.038  35.998  14.867
63281W        W35706  29.207  43.336  13.778
63282W        W35707  22.489   6.017  12.497
63283W        W35708  24.449   9.772   3.801
63284W        W35709  31.696  30.666   1.476
63285W        W35710  34.167  41.037  11.321
63286W        W35711  17.658  44.203   0.321
63287W        W35712  38.421  42.870  12.936
63288W        W35713  10.215  17.961  12.398
63289W        W35714  27.129  31.968  12.364
63290W        W35715   8.476   1.804   4.541
63291W        W35716  26.604   7.056   1.360
63292W        W35717   3.722  11.753   4.043
63293W        W35718  11.702   5.278  12.979
63294W        W35719  33.919  29.458   1.399
63295W        W35720  28.132   4.891  13.528
63296W        W35721  18.319  39.592  11.468
63297W        W35722   3.394   3.274  11.546
63298W        W35723  10.370  35.307   2.694
63299W        W35724  43.372  37.520  13.470
63300W        W35725  36.877  20.453   2.214
63301W        W35726  24.613  24.215  12.036
63302W        W35727   5.887  12.794   3.759
63303W        W35728  12.920   5.518  12.130
63304W        W35729   1.018  31.062   4.061
63305W        W35730  44.725   3.752  14.917
63306W        W35731  32.605  39.945   1.992
63307W        W35732  31.555  31.932   3.610
63308W        W35733   7.845   5.269   1.418
63309W        W35734   4.404  17.888  10.591
63310W        W35735  43.230  23.185   1.738
63311W        W35736  18.252   5.850  10.492
63312W        W35737  34.045  28.637   2.245
63313W        W35738   0.597  19.073  14.576
63314W        W35739   9.395  36.630   4.166
63315W        W35740  15.088  40.002  13.471
63316W        W35741  18.784  31.026  14.812
63317W        W35742  43.024  35.967  13.005
63318W        W35743  21.404  42.135   4.240
63319W        W35744  12.704  13.176   1.123
63320W        W35745  15.560   0.906  11.612
63321W        W35746  15.249   0.985   0.692
63322W        W35747  41.075  23.441  10.740
63323W        W35748  13.937   0.849  14.282
63324W        W35749  40.537  41.399   1.023
63325W        W35750  30.044   1.898  13.035
63326W        W35751  13.028  26.570  14.239
63327W        W35752  23.010   0.700  12.484
63328W        W35753  14.529  11.837  12.593
63329W        W35754  16.904  41.157  12.449
63330W        W35755  29.605  40.034   0.286
63331W        W35756  10.515  43.608   2.569
63332W        W35757  11.898   9.557   0.284
63333W        W35758   3.601  21.366  11.919
63334W        W35759  30.479  18.036   5.460
63335W        W35760  40.854   7.438  13.569
63336W        W35761   3.178  12.038  12.944
63337W        W35762  33.974  27.076   1.800
63338W        W35763  27.611  39.042  10.430
63339W        W35764   5.033  38.909   2.695
63340W        W35765   9.846  39.467  11.937
63341W        W35766  10.305  37.091  11.073
63342W        W35767  34.943  43.353   3.447
63343W        W35768  25.531   1.554   4.277
63344W        W35769   2.935  11.203   2.348
63345W        W35770  44.532  25.177   3.278
63346W        W35771  27.004   5.903   4.639
63347W        W35772  27.575   7.446   4.039
63348W        W35773   5.764  10.279   4.501
63349W        W35774  41.538   6.927  11.026
63350W        W35775  41.117   7.336  12.206
63351W        W35776  15.936  13.719  11.264
63352W        W35777   0.375   2.551  12.098
63353W        W35778  31.565  42.832  14.667
63354W        W35779  38.897   5.705  13.883
63355W        W35780  17.076  10.061  13.900
63356W        W35781  24.439   0.323  10.731
63357W        W35782  18.522  27.570  11.052
63358W        W35783   4.963  39.493   3.518
63359W        W35784  39.060  18.664   2.773
63360W        W35785  21.034   3.708  12.201
63361W        W35786  39.627  20.576  13.582
63362W        W35787  11.673  23.071   4.018
63363W        W35788  28.261  35.091   1.437
63364W        W35789  18.778  32.752  14.084
63365W        W35790  12.557  18.827   1.262
63366W        W35791  32.537  15.688  12.563
63367W        W35792   1.143  19.792  13.326
63368W        W35793   7.888  21.883  11.061
63369W        W35794   6.736  25.690  14.924
63370W        W35795  25.451  16.305   3.554
63371W        W35796   2.279  14.097  14.527
63372W        W35797   1.273  38.423   1.214
63373W        W35798  23.006  27.304   2.315
63374W        W35799  17.633  14.531   0.739
63375W        W35800   2.810   4.842  13.515
63376W        W35801  16.583  22.743  11.075
63377W        W35802  26.508  24.970   4.191
63378W        W35803  12.602   4.770  11.627
63379W        W35804  27.191   5.316  10.624
63380W        W35805  39.346  39.345  14.844
63381W        W35806  26.449  30.044   2.892
63382W        W35807  30.848  12.609   1.344
63383W        W35808  21.245  42.069   2.205
63384W        W35809  32.395  41.322   2.716
63385W        W35810  43.262  21.817  14.457
63386W        W35811  40.375  31.519   1.299
63387W        W35812  16.331  10.209  13.476
63388W        W35813  42.768  35.477  13.771
63389W        W35814   2.296  35.911   2.873
63390W        W35815  37.846  27.198  11.487
63391W        W35816  16.635  25.651   0.348
63392W        W35817  40.283   3.286   1.321
63393W        W35818  22.769  20.404  13.146
63394W        W35819  37.022  27.429  12.441
63395W        W35820  10.358  36.063  11.983
63396W        W35821  30.686  29.194   3.164
63397W        W35822   7.192  34.047   2.588
63398W        W35823  24.229  41.536  12.170
63399W        W35824  36.901  10.069  11.602
63400W        W35825   8.084  35.258  12.962
63401W        W35826  22.507   8.481   4.354
63402W        W35827  11.054   7.670  13.387
63403W        W35828  26.618  19.358  11.026
63404W        W35829   8.451  20.747  14.838
63405W        W35830  21.256  14.200   0.334
63406W        W35831  37.390   5.814   0.935
63407W        W35832  11.273  32.608   3.821
63408W        W35833  15.992  27.123  14.437
63409W        W35834  15.998  27.107  11.202
63410W        W35835  39.459  39.987  11.465
63411W        W35836   5.256  25.261  14.969
63412W        W35837  40.205  36.328  10.441
63413W        W35838  33.425  20.632  12.838
63414W        W35839   4.969  10.403   0.901
63415W        W35840  39.492  19.228  12.180
63416W        W35841   6.909  19.795  12.172
63417W        W35842  14.313   1.420   1.611
63418W        W35843  17.043  26.500  14.688
63419W        W35844  21.945  27.109   3.991
63420W        W35845  15.301  21.173   3.767
63421W        W35846  34.172  14.660   1.180
63422W        W35847  40.691  17.840  11.976
63423W        W35848  34.623   7.339   3.226
63424W        W35849  16.143  11.356  11.149
63425W        W35850  11.840  33.526   3.166
63426W        W35851  34.076  37.899  14.287
63427W        W35852   9.158   1.176  12.521
63428W        W35853  14.544  14.637  14.915
63429W        W35854  42.070  29.471   1.268
63430W        W35855  10.051  37.863  11.398
63431W        W35856   1.177  39.500  11.311
63432W        W35857   6.774  10.729   3.308
63433W        W35858   7.820  21.011   0.357
63434W        W35859  22.417  10.254   4.643
63435W        W35860  41.911  44.697   1.345
63436W        W35861  34.876  21.813  11.368
63437W        W35862   4.836  21.311   0.466
63438W        W35863  34.502  44.518  14.242
63439W        W35864  31.168  24.112   2.813
63440W        W35865  33.054  32.354  14.490
63441W        W35866  25.012  38.391   4.609
63442W        W35867  23.242  33.583   2.768
63443W        W35868  37.671  28.987  11.909
63444W        W35869  23.743  36.926   4.099
63445W        W35870  34.186  32.613   0.185
63446W        W35871  16.088  11.317  11.655
63447W        W35872  42.515   9.423  10.685
63448W        W35873  25.959  25.130   4.046
63449W        W35874  39.480  12.072  14.276
63450W        W35875   6.664  38.401  11.206
63451W        W35876  27.056  10.856  14.040
63452W        W35877  39.240  32.152   4.395
63453W        W35878  13.293  31.103   2.708
63454W        W35879  41.816  27.535  10.823
63455W        W35880  25.162  27.281  13.968
63456W        W35881  38.442   6.718   0.971
63457W        W35882  22.502  19.342   3.275
63458W        W35883   6.503  14.726   1.327
63459W        W35884  38.358  11.120  11.705
63460W        W35885   2.216  20.180   1.571
63461W        W35886   4.006   2.936  14.290
63462W        W35887  36.152  28.050  12.502
63463W        W35888  12.327  15.105  14.690
63464W        W35889  23.480   7.369  11.861
63465W        W35890   8.004   7.824   0.504
63466W        W35891  17.344  12.246   1.728
63467W        W35892  43.198  36.255   2.259
63468W        W35893  15.647   3.446   2.701
63469W        W35894   3.379  40.401   2.429
63470W        W35895   4.692  33.465   3.698
63471W        W35896  31.221   7.718   3.926
63472W        W35897  29.373   8.725  13.326
63473W        W35898  43.261   6.208  11.981
63474W        W35899  28.132  38.832   2.449
63475W        W35900   5.586   5.426  11.406
63476W        W35901  42.514  33.123  14.218
63477W        W35902  17.283  19.535   3.648
63478W        W35903  27.182  36.535   3.633
63479W        W35904  10.266   3.827  11.368
63480W        W35905  22.345  40.100  11.525
63481W        W35906  24.716  43.498   4.159
63482W        W35907  12.100  42.899   4.179
63483W        W35908   4.324  22.630   0.295
63484W        W35909  22.420  37.097  10.739
63485W        W35910   0.310  41.887   2.725
63486W        W35911  39.788  28.081   3.816
63487W        W35912   5.404   2.242  14.997
63488W        W35913  11.842   8.188   3.779
63489W        W35914   9.294  40.283   2.352
63490W        W35915  14.981   5.331  13.857
63491W        W35916  26.853  12.060  13.497
63492W        W35917  40.893  44.380  10.677
63493W        W35918   4.624   9.981   0.929
63494W        W35919  35.574  22.677   0.342
63495W        W35920  29.506   0.983  13.406
63496W        W35921  19.551  34.588   2.870
63497W        W35922   8.633   3.486   3.536
63498W        W35923  25.989  28.610  12.017
63499W        W35924  34.380   5.305   0.770
63500W        W35925  33.019   5.309  11.009
63501W        W35926   4.845  36.407  10.685
63502W        W35927  22.901  12.125   9.899
63503W        W35928  21.671  34.034   2.534
63504W        W35929  42.910  36.982   0.680
63505W        W35930  22.505  21.134   0.888
63506W        W35931  18.275  29.045   1.731
63507W        W35932  24.355  36.474   3.780
63508W        W35933   0.996   7.927  12.153
63509W        W35934  34.327  41.872   4.585
63510W        W35935  29.959   3.378  10.420
63511W        W35936  24.780  30.448  11.104
63512W        W35937  20.804  18.097  12.044
63513W        W35938  28.578  36.446  13.393
63514W        W35939  26.514  24.091  10.669
63515W        W35940  32.195  19.486  14.027
63516W        W35941  27.633  44.201  11.629
63517W        W35942   5.009  19.234   2.680
63518W        W35943   1.943  33.448  14.273
63519W        W35944  34.071  10.636  11.113
63520W        W35945  29.043  17.365  14.484
63521W        W35946  40.033  11.650   1.470
63522W        W35947  36.949   2.187   1.270
63523W        W35948  17.396  16.526   4.561
63524W        W35949   6.800  41.599   3.365
63525W        W35950  17.520   1.765  14.129
63526W        W35951  39.959  18.265   1.885
63527W        W35952  30.458  40.838   3.730
63528W        W35953   4.754  44.924  12.517
63529W        W35954   2.377  19.942  11.444
63530W        W35955  43.253   2.776  12.656
63531W        W35956  10.806  36.228  14.723
63532W        W35957  43.331  33.620  13.912
63533W        W35958  32.320  36.049   4.790
63534W        W35959  14.772   1.925  14.309
63535W        W35960  12.802  18.363   3.494
63536W        W35961  16.082   9.066   0.561
63537W        W35962  42.854  13.614  14.630
63538W        W35963  11.189   6.965  14.788
63539W        W35964   1.520  18.139  11.506
63540W        W35965  40.548  32.218  14.992
63541W        W35966  15.626  29.001   1.449
63542W        W35967  15.919   0.927  14.106
63543W        W35968  43.007  38.952  13.610
63544W        W35969  16.015  27.637  14.979
63545W        W35970  38.859  10.999  13.362
63546W        W35971  22.573   7.081   2.611
63547W        W35972  32.920   1.828   0.815
63548W        W35973  30.290  17.977  13.541
63549W        W35974  15.102  40.080   0.981
63550W        W35975   0.799  14.312  10.279
63551W        W35976  12.488   9.251   4.788
63552W        W35977   7.719  40.194   0.283
63553W        W35978  18.816  25.484  12.822
63554W        W35979  40.221   7.385  12.564
63555W        W35980  10.876  16.987   0.499
63556W        W35981  44.998   0.414  12.430
63557W        W35982  30.522  18.995  10.984
63558W        W35983   7.970   1.755   1.699
63559W        W35984  29.133  21.768  10.841
63560W        W35985   9.276  44.347  11.887
63561W        W35986   4.492  44.299   1.032
63562W        W35987   0.301  34.920  10.856
63563W        W35988  39.777  34.424  12.895
63564W        W35989   0.274  23.670  14.423
63565W        W35990   5.153  20.079   0.452
63566W        W35991   3.843  26.183   0.319
63567W        W35992  42.030  17.917  13.729
63568W        W35993  24.636  37.940  10.949
63569W        W35994   7.811  44.341   4.510
63570W        W35995   8.696  39.369  14.403
63571W        W35996  29.857   9.575  10.440
63572W        W35997  27.867  12.592  14.929
63573W        W35998  16.217   4.968  12.090
63574W        W35999   2.472  10.803   3.156
63575W        W36000  42.601  24.923  13.365
63576W        W36001  25.982   9.360   0.194
63577W        W36002  24.234  34.153   0.917
63578W        W36003   8.075  28.467  12.072
63579W        W36004  37.131   0.910  11.304
63580W        W36005  14.018   9.765   0.006
63581W        W36006  40.822  35.405  10.502
63582W        W36007  44.882  35.049  12.365
63583W        W36008   2.680  22.726  10.694
63584W        W36009  23.030  15.533  10.365
63585W        W36010  39.356  34.755  13.104
63586W        W36011   3.169  30.423  14.834
63587W        W36012  41.741  25.937  11.021
63588W        W36013  33.109  17.728  10.760
63589W        W36014  30.029  16.107  11.061
63590W        W36015   9.647  35.973  10.480
63591W        W36016  40.865   3.854  13.341
63592W        W36017  42.065  10.655  12.058
63593W        W36018  11.379  25.687   2.847
63594W        W36019   7.803  15.711   1.005
63595W        W36020  33.299  41.190   4.993
63596W        W36021  36.716  10.193  14.038
63597W        W36022  40.817  35.493   4.630
63598W        W36023   7.430  42.278  12.020
63599W        W36024   7.284  44.355   4.833
63600W        W36025  28.076   4.460   1.857
63601W        W36026  44.435   2.202  10.617
63602W        W36027  33.005  28.045  11.159
63603W        W36028  12.215  13.104   0.189
63604W        W36029  10.718  17.353  14.463
63605W        W36030  31.592  36.615   0.339
63606W        W36031  31.642  40.398   1.902
63607W        W36032   0.990   4.262   4.165
63608W        W36033  29.962  31.403  14.919
63609W        W36034  28.960  33.003  11.608
63610W        W36035  20.589   9.968  10.353
63611W        W36036  27.521  34.151  13.019
63612W        W36037  13.129  15.552  12.247
63613W        W36038  35.384  23.769   2.309
63614W        W36039   9.104   7.158   3.220
63615W        W36040  41.092  42.950  11.187
63616W        W36041  39.096  17.458   2.493
63617W        W36042   9.135  16.495   1.757
63618W        W36043   0.076  21.165  11.208
63619W        W36044  30.324  39.159   0.945
63620W        W36045   6.311  28.221   2.164
63621W        W36046  36.366   6.708   3.229
63622W        W36047  37.582  29.192  10.649
63623W        W36048  29.074  43.422  11.340
63624W        W36049  13.787  14.576   1.293
63625W        W36050  16.727   6.683  12.822
63626W        W36051   6.380  23.524   1.801
63627W        W36052  21.484  37.166  14.883
63628W        W36053  11.141  25.057   0.349
63629W        W36054  26.038  43.337   0.496
63630W        W36055   8.527   0.513  14.904
63631W        W36056   9.756   2.234   1.716
63632W        W36057  23.180  30.432  12.169
63633W        W36058  18.908  43.798  11.369
63634W        W36059  11.484  26.674   3.662
63635W        W36060  40.440   7.496   1.317
63636W        W36061  30.958   3.274   1.751
63637W        W36062  36.104   8.667   5.079
63638W        W36063  33.879  26.932   4.562
63639W        W36064  11.854  25.516   4.605
63640W        W36065   1.409  42.955   4.513
63641W        W36066  21.970   9.251  12.394
63642W        W36067   1.623  33.080   3.409
63643W        W36068  32.725  25.574  10.693
63644W        W36069   7.445  30.023   1.363
63645W        W36070  32.550   0.996  12.990
63646W        W36071  21.211  11.779   1.840
63647W        W36072  18.460  12.825   3.097
63648W        W36073  10.324  28.745  13.989
63649W        W36074   8.478   7.314   1.001
63650W        W36075   4.920  30.732  11.225
63651W        W36076  20.093  17.225  10.559
63652W        W36077   8.669  39.283  11.462
63653W        W36078  42.372  11.702   1.376
63654W        W36079  10.131   3.841  13.919
63655W        W36080  43.291  35.458  13.796
63656W        W36081  44.731   2.036   4.530
63657W        W36082  12.294  24.217   1.736
63658W        W36083  39.394  18.596   3.185
63659W        W36084  20.234   1.150  13.489
63660W        W36085  37.932   6.544  13.966
63661W        W36086  39.782  28.898  13.477
63662W        W36087  22.158  40.585   4.577
63663W        W36088  22.133  15.885  11.834
63664W        W36089  11.135  38.018   0.917
63665W        W36090  43.820  30.095   4.657
63666W        W36091  44.312  16.751  12.567
63667W        W36092   2.481  18.780   0.806
63668W        W36093  15.693  11.195   0.423
63669W        W36094  21.074   1.287   2.392
63670W        W36095   4.414  28.917  10.697
63671W        W36096   4.900  33.654  12.191
63672W        W36097  27.443  33.044   3.201
63673W        W36098  39.824  10.242   0.495
63674W        W36099  28.064  30.967  14.965
63675W        W36100  17.681  20.112  11.230
63676W        W36101  27.396   9.920   4.988
63677W        W36102   8.753  32.956  10.727
63678W        W36103   4.426  34.325   2.693
63679W        W36104  40.342  25.935  13.496
63680W        W36105  25.660  14.357   0.332
63681W        W36106  40.104  13.226  12.536
63682W        W36107  34.887   5.183  11.976
63683W        W36108   3.256  14.632  13.409
63684W        W36109  34.225  26.854   2.781
63685W        W36110   5.195  20.678   3.537
63686W        W36111  13.425  20.060   2.096
63687W        W36112  29.655  32.614  10.474
63688W        W36113  10.148  44.323  11.819
63689W        W36114  40.872  12.969  14.948
63690W        W36115  22.380   7.837  12.862
63691W        W36116  37.018  23.162   2.317
63692W        W36117   4.432   9.168  12.339
63693W        W36118  11.711  34.431  13.046
63694W        W36119   9.573  25.063   1.436
63695W        W36120   5.220  11.901  10.610
63696W        W36121  25.184  17.719   2.693
63697W        W36122   3.135  37.881  13.029
63698W        W36123   9.487  26.679  11.092
63699W        W36124   2.958  28.517   4.142
63700W        W36125  38.624  28.087   3.270
63701W        W36126  10.398  37.791  12.950
63702W        W36127  15.553  37.908   1.931
63703W        W36128  23.619  16.817  11.902
63704W        W36129  15.032  35.162   1.885
63705W        W36130  27.236  40.840  11.787
63706W        W36131  31.093  16.396   2.587
63707W        W36132  20.994   6.690   4.701
63708W        W36133  33.614   2.719  13.928
63709W        W36134  35.806  30.122  13.023
63710W        W36135  44.502  35.195  10.665
63711W        W36136   4.915  42.319   1.455
63712W        W36137  43.234   7.968   0.331
63713W        W36138  20.235  27.906   1.677
63714W        W36139  19.715  14.196  11.608
63715W        W36140  16.856  10.283  13.439
63716W        W36141  18.743  42.153   1.263
63717W        W36142  33.946  27.683   2.307
63718W        W36143  18.105  25.022  13.964
63719W        W36144  22.836  19.728   1.954
63720W        W36145  35.613  33.951  14.761
63721W        W36146   0.355  34.041  14.939
63722W        W36147  32.124   6.994  11.787
63723W        W36148  14.675  36.133   1.169
63724W        W36149   0.960  10.243   1.921
63725W        W36150  11.261  23.696   2.701
63726W        W36151  27.091   4.625  12.164
63727W        W36152  26.806  25.924   1.909
63728W        W36153   1.407  11.783  12.417
63729W        W36154   4.616  41.933  11.933
63730W        W36155   5.280  19.596  13.104
63731W        W36156   9.388  41.786   0.985
63732W        W36157  15.201   0.173  13.785
63733W        W36158   8.531  18.776   0.445
63734W        W36159  41.094  27.142  13.141
63735W        W36160  44.330  11.341   2.419
63736W        W36161   3.274   2.507  12.411
63737W        W36162  14.098  27.361  12.450
63738W        W36163   4.425   5.465   0.179
63739W        W36164  41.655  18.825   2.150
63740W        W36165  36.875  13.842  14.897
63741W        W36166  43.928  29.629  14.132
63742W        W36167  13.309  21.784   2.198
63743W        W36168  40.315  28.114   3.885
63744W        W36169  34.565  23.519   4.610
63745W        W36170   8.047   7.216  10.242
63746W        W36171   5.772  30.746  12.529
63747W        W36172  18.112   0.671   3.299
63748W        W36173  15.134   0.711   0.260
63749W        W36174   1.451  41.377   4.917
63750W        W36175  30.087  17.723   4.651
63751W        W36176   5.643  28.785   2.636
63752W        W36177  16.850  30.670   4.520
63753W        W36178   3.845   5.900  11.421
63754W        W36179  18.525   6.709   1.804
63755W        W36180  18.114   6.371   1.876
63756W        W36181  18.223  37.744  13.320
63757W        W36182  19.047   7.779  12.507
63758W        W36183  15.520  24.169  12.519
63759W        W36184  12.406  31.990  10.553
63760W        W36185  41.399  27.266  14.037
63761W        W36186  11.786   7.191   1.707
63762W        W36187  36.008  12.914   0.273
63763W        W36188  33.523  12.599   0.498
63764W        W36189  22.007  23.179  14.359
63765W        W36190  11.898  40.089   4.071
63766W        W36191  28.205  42.822  14.959
63767W        W36192  35.499   0.555  13.519
63768W        W36193  18.624   4.273   2.442
63769W        W36194  18.636   6.336   1.247
63770W        W36195  20.938  44.789  13.831
63771W        W36196  42.951   1.360  10.564
63772W        W36197  38.731  15.633  12.823
63773W        W36198   8.595  19.564  12.573
63774W        W36199  44.436  40.078   4.101
63775W        W36200  44.826  43.252   1.652
63776W        W36201  37.478  26.991  13.567
63777W        W36202  28.193  43.581  10.527
63778W        W36203  18.568   5.391   0.869
63779W        W36204  44.567  14.302  13.251
63780W        W36205  10.804   4.866   0.184
63781W        W36206   8.278  20.830   4.586
63782W        W36207   6.178  10.948   4.952
63783W        W36208  15.157  25.183   4.197
63784W        W36209  41.476   5.355   1.798
63785W        W36210  14.643   5.779   1.191
63786W        W36211   5.887  41.745  11.735
63787W        W36212  33.856  12.555   3.653
63788W        W36213   6.018  26.080   0.791
63789W        W36214  11.802  40.588   3.118
63790W        W36215  34.075  28.445   0.754
63791W        W36216  18.720  34.699  13.045
63792W        W36217  10.821  44.434  13.596
63793W        W36218  14.656  23.116   3.387
63794W        W36219  16.883   3.242   2.838
63795W        W36220  29.044  28.004  14.973
63796W        W36221  10.190  21.482  11.161
63797W        W36222  21.206  19.136  13.803
63798W        W36223  39.931  31.691  11.444
63799W        W36224  17.275   6.788  13.990
63800W        W36225  11.806  25.982  13.324
63801W        W36226  33.041  42.986   9.961
63802W        W36227  10.737  29.754  14.351
63803W        W36228   1.957  39.525  14.619
63804W        W36229  28.133  27.337  10.853
63805W        W36230  24.984  31.361  14.762
63806W        W36231   9.854  42.869   3.774
63807W        W36232  16.706  38.048  10.818
63808W        W36233  29.598  31.707  13.891
63809W        W36234  16.195   0.739  12.343
63810W        W36235  27.399   6.493   3.670
63811W        W36236   1.354  20.752   0.745
63812W        W36237  39.494   4.424   2.638
63813W        W36238  26.627  10.345  14.922
63814W        W36239  24.688  27.974  12.380
63815W        W36240   6.318  32.142   1.291
63816W        W36241  22.203  24.308  11.916
63817W        W36242  12.324  27.535  13.978
63818W        W36243  31.501  17.053  13.411
63819W        W36244  26.133  22.565   0.090
63820W        W36245  37.035  22.970   0.927
63821W        W36246  18.758  31.038   4.910
63822W        W36247   4.376  15.028  12.906
63823W        W36248  18.498   5.882   1.017
63824W        W36249  40.866  33.208  13.520
63825W        W36250  21.081  21.017   2.656
63826W        W36251  31.598  20.345   4.143
63827W        W36252  29.227  20.509   2.207
63828W        W36253  38.986  21.074   5.113
63829W        W36254  13.994  17.393  11.908
63830W        W36255  18.767   8.287  14.399
63831W        W36256  23.236  40.596   0.985
63832W        W36257  27.663  30.543  10.178
63833W        W36258  41.673  27.370  11.348
63834W        W36259  29.164  42.776  11.221
63835W        W36260   1.076  30.052   1.413
63836W        W36261  25.421  25.239  14.474
63837W        W36262  22.292  21.546  11.206
63838W        W36263   2.302  41.046  14.514
63839W        W36264   7.945   6.069  13.251
63840W        W36265  29.376  14.288   0.923
63841W        W36266  21.090  39.406   3.124
63842W        W36267  12.774  18.107  14.908
63843W        W36268  12.768  41.923   2.096
63844W        W36269   5.801  36.588   3.665
63845W        W36270  24.745  34.134  12.572
63846W        W36271  31.679  27.642  10.924
63847W        W36272  12.134  31.171   4.050
63848W        W36273  18.622  22.292   1.450
63849W        W36274  12.566  27.006  11.231
63850W        W36275   5.495  38.957   2.984
63851W        W36276  20.851  17.688  13.927
63852W        W36277  27.959  24.991   4.117
63853W        W36278   0.865  12.129  13.287
63854W        W36279  19.729  27.134   4.912
63855W        W36280  30.527  34.610   2.405
63856W        W36281  27.943  23.117  13.439
63857W        W36282  42.204   8.929  12.421
63858W        W36283   1.316  30.901  11.653
63859W        W36284  29.754   1.756  11.117
63860W        W36285  39.547   1.887   1.024
63861W        W36286   8.314   7.023   3.483
63862W        W36287  32.439  29.668   0.246
63863W        W36288  23.480  30.214  11.446
63864W        W36289  16.806  41.371  14.249
63865W        W36290  20.672  24.866  10.611
63866W        W36291  43.424  14.783   4.543
63867W        W36292  39.070   5.608   4.656
63868W        W36293   6.384  13.883  12.986
63869W        W36294  18.800   9.299  11.596
63870W        W36295  36.410  24.753  13.793
63871W        W36296  32.974  10.885  12.982
63872W        W36297  20.521  25.113  13.885
63873W        W36298  20.094  27.773   0.837
63874W        W36299  20.436  12.811  11.691
63875W        W36300  40.456   4.285  10.767
63876W        W36301  41.454  16.787  13.806
63877W        W36302  10.355  15.612  12.474
63878W        W36303  12.132  28.875  12.876
63879W        W36304  34.114  12.751   0.740
63880W        W36305  19.044  14.339   1.919
63881W        W36306  38.923  18.416   1.907
63882W        W36307  42.133  18.792  14.068
63883W        W36308  33.417  34.124  11.697
63884W        W36309  32.659   8.593   2.230
63885W        W36310   1.398   7.683  14.314
63886W        W36311   0.829  37.260   3.105
63887W        W36312  33.379  14.826  11.941
63888W        W36313   7.094   6.883  12.886
63889W        W36314  11.290  21.563  11.059
63890W        W36315  41.755  43.961  10.417
63891W        W36316  39.314  28.409  10.691
63892W        W36317  30.051  28.685   2.469
63893W        W36318  36.936   5.550   2.641
63894W        W36319  44.988  12.065   3.886
63895W        W36320  32.867   9.945  10.786
63896W        W36321   6.214  17.389  12.143
63897W        W36322  33.408   9.419   1.616
63898W        W36323  15.685  22.741  11.991
63899W        W36324  43.780  44.763   1.171
63900W        W36325  19.403  29.349   3.662
63901W        W36326  31.361  21.194  12.915
63902W        W36327  30.037  11.659  13.990
63903W        W36328  14.235   9.194  14.220
63904W        W36329   8.822  28.121  14.282
63905W        W36330  12.775   9.850  11.973
63906W        W36331  25.731  10.350  14.846
63907W        W36332  14.365  29.553   1.867
63908W        W36333  24.777   5.645   2.438
63909W        W36334  17.052  26.332   2.963
63910W        W36335   6.848  24.088   4.948
63911W        W36336  20.282  23.265   0.489
63912W        W36337  29.413  36.411  14.901
63913W        W36338  10.562  41.281  11.364
63914W        W36339  43.479  26.411   3.812
63915W        W36340   0.518  11.029   1.071
63916W        W36341  26.972   9.922   1.487
63917W        W36342  43.940  42.409   3.333
63918W        W36343  42.438  38.124  11.608
63919W        W36344   1.451  33.069   4.495
63920W        W36345  31.867  21.402   0.886
63921W        W36346  28.677  37.852  11.505
63922W        W36347  17.019  44.273  11.835
63923W        W36348  35.590  25.187  12.057
63924W        W36349  38.821  40.073  14.030
63925W        W36350  35.844  19.472   1.491
63926W        W36351  23.146  42.325   0.352
63927W        W36352   0.494  26.999  14.096
63928W        W36353   9.005  29.595   3.715
63929W        W36354  17.272   5.328  13.407
63930W        W36355  22.785  26.389  12.913
63931W        W36356  18.808  35.631   4.610
63932W        W36357  18.857  12.352  14.918
63933W        W36358  25.636  19.615  12.978
63934W        W36359  32.037  15.729  12.444
63935W        W36360   9.329  41.093   2.750
63936W        W36361   8.300  31.896  14.575
63937W        W36362  17.750   2.946  13.470
63938W        W36363   3.836  30.816  11.375
63939W        W36364  11.870  42.480   3.860
63940W        W36365   6.168  23.549   2.409
63941W        W36366   2.453  11.683  14.268
63942W        W36367  24.734  27.939  14.809
63943W        W36368  28.224  40.755   0.247
63944W        W36369   9.978   5.287  13.297
63945W        W36370   4.440  16.531  13.095
63946W        W36371  34.985  36.987   4.694
63947W        W36372  42.413  14.169  10.403
63948W        W36373  11.942  30.172  11.931
63949W        W36374  27.754  32.130   3.331
63950W        W36375  20.016   3.205  13.362
63951W        W36376  27.438  44.446   0.751
63952W        W36377  19.976  42.155   4.198
63953W        W36378  25.094   0.251  14.373
63954W        W36379  35.420  44.057  13.308
63955W        W36380  39.596  19.290   4.844
63956W        W36381  18.320  28.774  10.741
63957W        W36382  19.936  23.812  10.812
63958W        W36383  41.272   7.529  14.894
63959W        W36384  16.757  19.309  10.727
63960W        W36385  19.848   8.036  12.009
63961W        W36386  36.642  21.192   1.237
63962W        W36387  37.397  40.424   1.424
63963W        W36388   5.883  36.357  12.921
63964W        W36389   7.198  33.368  12.113
63965W        W36390  14.127  39.848  10.590
63966W        W36391   7.435  44.790   0.821
63967W        W36392  24.736  18.275  12.110
63968W        W36393  35.673  43.065  12.441
63969W        W36394  24.078  40.423   4.602
63970W        W36395  10.747   2.131   5.009
63971W        W36396   9.959  14.365  10.610
63972W        W36397  44.922  33.225  14.435
63973W        W36398   4.858  33.824   3.371
63974W        W36399  14.381  42.629   0.129
63975W        W36400  32.065  33.961   0.289
63976W        W36401   1.942   6.345   0.791
63977W        W36402  33.141  40.887   1.335
63978W        W36403  39.736  19.819  14.420
63979W        W36404  41.733  31.439  14.399
63980W        W36405  32.650  24.827   3.043
63981W        W36406  19.529   8.171  13.862
63982W        W36407   7.725  12.136  11.460
63983W        W36408  32.102  34.527  12.394
63984W        W36409  23.658  27.469   0.696
63985W        W36410  23.095  20.375  14.973
63986W        W36411   5.527   1.245  14.599
63987W        W36412  17.814  41.579  12.187
63988W        W36413  33.805   0.911  12.160
63989W        W36414  33.359  43.415   4.307
63990W        W36415  37.189  23.442  14.561
63991W        W36416  25.968  22.194  12.045
63992W        W36417  37.558   0.399   2.731
63993W        W36418  36.230  14.826   5.180
63994W        W36419  19.842  25.174   4.598
63995W        W36420   9.564   0.396  11.731
63996W        W36421  36.743   9.339  13.927
63997W        W36422  27.630  38.710   1.250
63998W        W36423  42.453   5.911  12.450
63999W        W36424   0.388  42.483  10.882
64000W        W36425  21.984  24.932  10.958
64001W        W36426  12.191   6.876   1.255
64002W        W36427   5.174  30.005   3.605
64003W        W36428  33.018  13.167  12.870
64004W        W36429  24.271  32.316  11.057
64005W        W36430  44.483  41.995   0.094
64006W        W36431  20.511   1.570  14.183
64007W        W36432  37.589   9.253  10.706
64008W        W36433  11.662  27.521   2.117
64009W        W36434   7.494  30.450  13.540
64010W        W36435  40.796  19.073   1.112
64011W        W36436   8.826   4.658  14.798
64012W        W36437  25.014  31.620   0.441
64013W        W36438  42.755  43.504   4.037
64014W        W36439  15.082  39.071   2.975
64015W        W36440  29.819  40.849   3.278
64016W        W36441  38.619  21.739  13.408
64017W        W36442  41.937  26.736  10.216
64018W        W36443  40.524  26.722   3.681
64019W        W36444   7.233   6.484  12.032
64020W        W36445   9.697  12.347  10.654
64021W        W36446  23.273  11.706   0.008
64022W        W36447  21.541  39.338   1.373
64023W        W36448  26.997  25.090   0.095
64024W        W36449  11.145   8.703  13.339
64025W        W36450  18.155  21.091   3.444
64026W        W36451   7.432  34.516   3.714
64027W        W36452   8.399  26.221   4.678
64028W        W36453  29.052  19.121  13.580
64029W        W36454  26.189  16.680   3.561
64030W        W36455   4.621  41.421  10.242
64031W        W36456   2.679  22.860   4.396
64032W        W36457  27.191  32.287  11.970
64033W        W36458  11.397  30.614   4.122
64034W        W36459  41.442  20.004  11.184
64035W        W36460  33.531  37.742   0.904
64036W        W36461  40.071   2.172   3.608
64037W        W36462  40.343  34.556  13.918
64038W        W36463  23.129   2.154  10.836
64039W        W36464  36.851  26.315  14.881
64040W        W36465   5.448   9.352  14.789
64041W        W36466  15.167  40.291  11.594
64042W        W36467  10.902  24.664  11.124
64043W        W36468  10.437  32.001  11.570
64044W        W36469  21.420   4.940  10.853
64045W        W36470  40.493   6.988   1.287
64046W        W36471  20.207  19.579   1.395
64047W        W36472   0.165   9.193  13.357
64048W        W36473  24.414  23.919  11.683
64049W        W36474  19.288  23.761   2.834
64050W        W36475  21.657  20.158   4.326
64051W        W36476  27.597  35.892   3.247
64052W        W36477  23.879  19.573   1.908
64053W        W36478   0.274  43.750  11.868
64054W        W36479  28.062  12.781  10.174
64055W        W36480   0.054  43.540  14.716
64056W        W36481  17.165  35.816   3.866
64057W        W36482  32.145  17.229  12.609
64058W        W36483  32.650  44.331   2.819
64059W        W36484  27.652  44.519  12.070
64060W        W36485  28.668  38.363  11.450
64061W        W36486   6.398  17.949   0.892
64062W        W36487   1.116  11.201   0.250
64063W        W36488  17.586   8.144   4.121
64064W        W36489  34.941  39.889   3.446
64065W        W36490  13.424  31.601   2.838
64066W        W36491  34.362  17.806  14.992
64067W        W36492  42.580  25.335   3.557
64068W        W36493  21.554  44.521  10.735
64069W        W36494  21.761  25.613  14.973
64070W        W36495  42.958  41.430  14.376
64071W        W36496  28.364  31.658  12.409
64072W        W36497   3.826  25.029   4.078
64073W        W36498  34.805  44.474  13.843
64074W        W36499   0.170  27.929  10.725
64075W        W36500   2.894  28.764   3.686
64076W        W36501   7.480  34.952   1.439
64077W        W36502  16.551  11.815  10.547
64078W        W36503  16.095   5.402  13.028
64079W        W36504  35.344  17.684  12.235
64080W        W36505  13.118  31.625   1.621
64081W        W36506  29.637  17.732   1.366
64082W        W36507   4.486   3.866   0.973
64083W        W36508  11.383  23.287   9.742
64084W        W36509  41.546   2.727  12.516
64085W        W36510  26.093  38.265  12.094
64086W        W36511  38.009  34.014  12.520
64087W        W36512  43.496  18.999  13.651
64088W        W36513   1.782  24.581   4.805
64089W        W36514  16.360  26.053   2.321
64090W        W36515  23.204  15.060   2.327
64091W        W36516  11.254  40.592  11.044
64092W        W36517  22.466  31.631  10.759
64093W        W36518  33.026   7.051   1.773
64094W        W36519  32.574  22.014   4.542
64095W        W36520  27.167  13.373   0.809
64096W        W36521   4.248  34.870  11.125
64097W        W36522   6.817  37.112   2.313
64098W        W36523  33.625  37.439  14.409
64099W        W36524  20.617  13.208   2.008
64100W        W36525  23.228   0.396   3.852
64101W        W36526  30.086  17.537   3.779
64102W        W36527  25.424   0.863   3.724
64103W        W36528  43.482  35.938  13.859
64104W        W36529  15.712  29.450  12.456
64105W        W36530  38.959  15.063  14.271
64106W        W36531  31.802   9.768  11.426
64107W        W36532  12.778   7.731  14.003
64108W        W36533  43.245   2.221  13.512
64109W        W36534  43.938  43.815  14.395
64110W        W36535   9.199  23.312   1.388
64111W        W36536   2.945  27.147  13.863
64112W        W36537  39.962  23.962  14.535
64113W        W36538  27.615  17.027   1.448
64114W        W36539  42.482  16.051  13.572
64115W        W36540  23.079   8.912   0.742
64116W        W36541   5.734   8.889  10.763
64117W        W36542  11.784  28.943  14.348
64118W        W36543  11.189  35.089   2.902
64119W        W36544  11.274  20.708   4.015
64120W        W36545   5.410  43.856   4.630
64121W        W36546  11.320  34.343  10.677
64122W        W36547  33.348   3.868   0.684
64123W        W36548  26.116  27.887  10.921
64124W        W36549  29.645   6.883  12.843
64125W        W36550  29.685  40.950  11.884
64126W        W36551  33.333  37.332  11.561
64127W        W36552   6.257  36.236   1.765
64128W        W36553  25.151   7.338  10.464
64129W        W36554  13.156  35.923  13.283
64130W        W36555  32.100   4.843  12.566
64131W        W36556   8.854  13.834  11.067
64132W        W36557  43.096  41.511   1.819
64133W        W36558  13.902   9.145   0.473
64134W        W36559   2.359  25.317  14.824
64135W        W36560  35.313   6.204  12.707
64136W        W36561  20.619   0.536  14.347
64137W        W36562  12.699  36.691   1.932
64138W        W36563  37.798   1.923  11.955
64139W        W36564  13.810  42.020  13.468
64140W        W36565  21.169  27.989   3.166
64141W        W36566  29.407  13.385   0.711
64142W        W36567   2.226  38.928   4.171
64143W        W36568  33.981  40.810  10.911
64144W        W36569   6.312   6.168   0.359
64145W        W36570  15.464  41.009  14.608
64146W        W36571  15.675  31.395   4.450
64147W        W36572  26.096  37.492   4.688
64148W        W36573  17.795  28.623  13.422
64149W        W36574  39.027  23.462  14.863
64150W        W36575   1.280  43.581  12.088
64151W        W36576  31.656  30.541   4.120
64152W        W36577  31.971  26.669  11.818
64153W        W36578  26.916   6.390   4.897
64154W        W36579  27.578  25.216  13.215
64155W        W36580   8.486  24.622   2.653
64156W        W36581   1.380   5.758  14.027
64157W        W36582  10.280  38.451   1.687
64158W        W36583  14.265   0.934   2.327
64159W        W36584  34.947  25.061   2.460
64160W        W36585  36.564  28.505   0.391
64161W        W36586  14.522   8.762  13.886
64162W        W36587  13.803   2.062   1.858
64163W        W36588   3.210  28.191   3.310
64164W        W36589  20.141  21.151  12.414
64165W        W36590   5.172  35.094   3.120
64166W        W36591  18.689   7.374  14.788
64167W        W36592  38.961   8.722  13.201
64168W        W36593   6.732  19.554  10.721
64169W        W36594  24.901  33.918  13.010
64170W        W36595  14.320  20.140   2.253
64171W        W36596   2.858  16.679   3.640
64172W        W36597  30.533  19.016   0.324
64173W        W36598  15.780  44.619   0.264
64174W        W36599  20.237  28.530  13.154
64175W        W36600  33.452  28.508  12.940
64176W        W36601  44.708   6.280  12.155
64177W        W36602  18.839  24.037   0.306
64178W        W36603  25.730  27.117  11.118
64179W        W36604   5.864  22.169   0.081
64180W        W36605  33.921  41.883  11.759
64181W        W36606  13.373  10.782   3.659
64182W        W36607   9.811   4.312  13.850
64183W        W36608   2.523   5.935  13.498
64184W        W36609  14.347  13.390  14.754
64185W        W36610  26.918  27.685  12.347
64186W        W36611  42.101   6.721   2.182
64187W        W36612   6.328  14.135  11.251
64188W        W36613  27.274  22.107  12.238
64189W        W36614   6.751   8.713  14.971
64190W        W36615  15.892  14.296   2.785
64191W        W36616  41.833  36.578  13.823
64192W        W36617  20.212  41.617   5.071
64193W        W36618  26.677  29.197  12.379
64194W        W36619  31.425  38.833  12.006
64195W        W36620   1.473   6.490  12.053
64196W        W36621  42.017  23.960  11.482
64197W        W36622  37.718  22.558   4.692
64198W        W36623  35.394  35.314  14.471
64199W        W36624   4.001   7.293   0.649
64200W        W36625  31.478  16.692  12.067
64201W        W36626  33.248  16.190   0.656
64202W        W36627   1.923   3.361  10.267
64203W        W36628  14.817  44.421   4.198
64204W        W36629  23.160  36.778  11.527
64205W        W36630  22.647  23.420   0.419
64206W        W36631  34.584  11.975   1.706
64207W        W36632  27.168  43.808   3.744
64208W        W36633  10.719  15.992  13.878
64209W        W36634   1.610  30.397   0.825
64210W        W36635  16.230  28.135  14.871
64211W        W36636   3.484   4.639  12.885
64212W        W36637  33.876  19.163  13.437
64213W        W36638  12.363  22.094  11.168
64214W        W36639  40.161  24.105   3.515
64215W        W36640  15.673  14.524   3.222
64216W        W36641  26.830  40.410   5.060
64217W        W36642  23.834  37.783   4.056
64218W        W36643  44.807  23.801   1.925
64219W        W36644  42.531  23.995   1.785
64220W        W36645   0.050  17.209   1.853
64221W        W36646  44.829   7.614   0.323
64222W        W36647  18.149  41.127  11.983
64223W        W36648  17.177  31.085   5.212
64224W        W36649  41.470   1.403  14.996
64225W        W36650   8.774   4.202  10.684
64226W        W36651   4.415  41.118  13.961
64227W        W36652  29.289   2.670   2.348
64228W        W36653   1.322  38.959  10.689
64229W        W36654  17.492  34.424   4.864
64230W        W36655   1.533  31.161   3.802
64231W        W36656  44.334   8.591  11.675
64232W        W36657  21.028  30.236   0.921
64233W        W36658   8.270  21.035  13.041
64234W        W36659  27.741  32.024  11.105
64235W        W36660   9.235  22.398  14.502
64236W        W36661  40.340  17.557  12.224
64237W        W36662  34.007  13.816  14.878
64238W        W36663  40.068   8.077  13.145
64239W        W36664  25.586   7.417   2.781
64240W        W36665  15.356  33.165   1.757
64241W        W36666  28.392   3.258   3.369
64242W        W36667  18.204  30.482   4.590
64243W        W36668  42.734  32.281  11.276
64244W        W36669   9.373  29.313   4.546
64245W        W36670  25.946  20.488  13.469
64246W        W36671  20.752  14.735  11.847
64247W        W36672   7.730  20.465   0.383
64248W        W36673  19.260  37.247   3.873
64249W        W36674   1.965  18.030   0.320
64250W        W36675   8.649   5.172  13.928
64251W        W36676  30.297  40.962  14.536
64252W        W36677   1.387  20.066   2.354
64253W        W36678  10.328  40.422  11.133
64254W        W36679  40.904  17.088   3.089
64255W        W36680  20.695  39.703  14.654
64256W        W36681  39.962  30.400   0.481
64257W        W36682  30.633   8.341   2.269
64258W        W36683   2.316  38.506  13.015
64259W        W36684  34.402   6.344  11.507
64260W        W36685  44.971  11.246   4.124
64261W        W36686  23.576  25.463  10.628
64262W        W36687  14.067  26.286  13.556
64263W        W36688   8.355  40.364   2.369
64264W        W36689  44.419  14.194   0.193
64265W        W36690  36.965  19.356   3.711
64266W        W36691  25.297  39.922  11.715
64267W        W36692   2.195  30.998   0.398
64268W        W36693  32.873  31.894   0.807
64269W        W36694  30.422  23.532   0.437
64270W        W36695  13.726   9.450   3.782
64271W        W36696  11.558  21.607  11.545
64272W        W36697   8.374   4.402  11.189
64273W        W36698  39.002   1.457   4.616
64274W        W36699  12.777   4.888   3.685
64275W        W36700  36.360  36.444   4.383
64276W        W36701   4.698   7.321  13.337
64277W        W36702  41.341  15.617   3.406
64278W        W36703  17.586  21.623  10.740
64279W        W36704  40.058  21.243   1.622
64280W        W36705  31.463  27.877   4.620
64281W        W36706  19.238  37.728   0.138
64282W        W36707   6.454   2.497   1.269
64283W        W36708  29.032  15.761  12.992
64284W        W36709   3.316  15.662   4.628
64285W        W36710  34.315  34.484   4.154
64286W        W36711   7.290  43.488  13.202
64287W        W36712  30.998   2.493   5.080
64288W        W36713  14.278  37.583   3.310
64289W        W36714  38.871  26.285  10.584
64290W        W36715   1.186  18.766   1.230
64291W        W36716   9.739  22.146  11.749
64292W        W36717  28.003   2.549  13.130
64293W        W36718  12.258  23.800   1.357
64294W        W36719   2.053  17.305  12.519
64295W        W36720   7.362  24.450  13.415
64296W        W36721  28.645  15.721  12.410
64297W        W36722  43.063  23.452   0.818
64298W        W36723  13.545  20.724   4.744
64299W        W36724   5.588  32.773   2.317
64300W        W36725  22.295   9.684  12.393
64301W        W36726   3.682  27.623  14.867
64302W        W36727  24.830  31.810   0.912
64303W        W36728  32.852   1.002  10.998
64304W        W36729  10.246  43.024   1.331
64305W        W36730  33.575  12.204   2.382
64306W        W36731  33.331  43.859  13.843
64307W        W36732  39.977  22.724  13.061
64308W        W36733   1.970   9.114   3.204
64309W        W36734  37.354  23.340  13.300
64310W        W36735  27.589  37.402  11.164
64311W        W36736  14.724  33.352  11.568
64312W        W36737  27.076  30.568   1.362
64313W        W36738  40.790  19.254  13.905
64314W        W36739  42.639   7.858  14.764
64315W        W36740   9.749  36.515  12.376
64316W        W36741  12.617   8.336   4.523
64317W        W36742  34.110  16.651  14.684
64318W        W36743  13.151  29.482   4.205
64319W        W36744  20.831  27.657   3.791
64320W        W36745   0.321  38.385  14.489
64321W        W36746  33.402  15.092  13.333
64322W        W36747  24.583   4.076  12.251
64323W        W36748  24.704  28.242  13.947
64324W        W36749  17.276  13.341  12.095
64325W        W36750   6.693  37.934  11.482
64326W        W36751   4.758   7.398   5.108
64327W        W36752   9.564  14.287   0.313
64328W        W36753  16.920  42.295  14.734
64329W        W36754  11.437  32.223   2.703
64330W        W36755   5.881  38.628  13.890
64331W        W36756  15.598   6.385   3.734
64332W        W36757  26.656  12.644   0.370
64333W        W36758  22.592  17.531   0.825
64334W        W36759  22.097  44.394   4.758
64335W        W36760  12.346  30.397   1.666
64336W        W36761  38.117   6.462   4.107
64337W        W36762  36.776   3.269   4.523
64338W        W36763   5.188  42.193  12.601
64339W        W36764  12.106  32.902   1.582
64340W        W36765  17.230  41.820  13.848
64341W        W36766  24.954   8.196  14.081
64342W        W36767  17.221   6.613  12.625
64343W        W36768  40.337  32.583   3.433
64344W        W36769  23.611   4.736  13.359
64345W        W36770  24.557  28.771  13.974
64346W        W36771  34.690   6.657   1.046
64347W        W36772  19.202  10.835  12.896
64348W        W36773   4.110  10.707  11.444
64349W        W36774  22.128  42.333   3.610
64350W        W36775  43.044  24.947   4.643
64351W        W36776  27.635  19.650  12.046
64352W        W36777  26.584   1.530  14.001
64353W        W36778  23.324  21.818  13.953
64354W        W36779  16.745  14.613   2.600
64355W        W36780  21.977   7.263  14.958
64356W        W36781  33.293  30.107  13.028
64357W        W36782  12.666  17.113   3.045
64358W        W36783   8.270  20.134   1.467
64359W        W36784  42.073  14.302  14.361
64360W        W36785  44.767  11.810  10.352
64361W        W36786  31.596  21.767   3.648
64362W        W36787   5.866  20.215   3.733
64363W        W36788  12.702  37.440   4.444
64364W        W36789  13.407  17.593  14.880
64365W        W36790  44.513   2.246   0.531
64366W        W36791  10.819  29.366   3.062
64367W        W36792   2.828  43.831   4.162
64368W        W36793   9.166  14.637   3.292
64369W        W36794  21.191   0.341  13.113
64370W        W36795  37.824  31.400  11.599
64371W        W36796  19.012   8.682   0.997
64372W        W36797  25.469  34.299  10.729
64373W        W36798   6.872  44.006   4.872
64374W        W36799  17.484  25.177   4.216
64375W        W36800  33.594  16.074  13.024
64376W        W36801  12.739  41.782  12.866
64377W        W36802   7.293   3.690  13.415
64378W        W36803  12.941  36.011  11.126
64379W        W36804  27.946  33.340   2.794
64380W        W36805  31.578  16.811  10.278
64381W        W36806  23.621   5.793  10.843
64382W        W36807  30.208  21.506  14.269
64383W        W36808  21.161  42.503   3.622
64384W        W36809   1.355  28.772  14.363
64385W        W36810  40.390  41.092   3.777
64386W        W36811  37.121  13.162   0.667
64387W        W36812  31.887  20.853   3.616
64388W        W36813   2.392   7.258   2.389
64389W        W36814   0.748  24.554  14.346
64390W        W36815   7.197  36.505   0.230
64391W        W36816  30.329  41.280   2.777
64392W        W36817  36.009  21.736  10.697
64393W        W36818  32.030  28.541  12.506
64394W        W36819  44.062   8.496   1.867
64395W        W36820  32.629  29.183  11.832
64396W        W36821  38.073  23.273  11.020
64397W        W36822   4.700  22.545   4.593
64398W        W36823  33.798   7.947   2.784
64399W        W36824  11.114  33.082  11.386
64400W        W36825  35.794   2.983  11.501
64401W        W36826  13.780  36.784  14.764
64402W        W36827  29.270  15.729   5.151
64403W        W36828  41.028   3.334  12.908
64404W        W36829  15.033  40.516   0.653
64405W        W36830   8.094  16.825  12.017
64406W        W36831  33.618   7.835  11.177
64407W        W36832  12.647  23.092  12.877
64408W        W36833   3.278  34.520  14.918
64409W        W36834  21.085   5.653   0.740
64410W        W36835   9.812  16.159   0.959
64411W        W36836  19.824   5.929   3.253
64412W        W36837  37.409  22.235  12.392
64413W        W36838   2.972  32.916   3.677
64414W        W36839  30.012  16.127  12.905
64415W        W36840   8.367  17.253   1.328
64416W        W36841  30.916  10.635  13.787
64417W        W36842   0.431  35.716   2.349
64418W        W36843  12.587  15.624   0.652
64419W        W36844  14.035   0.453   3.484
64420W        W36845  28.969  28.541  11.917
64421W        W36846  26.288  12.386   0.616
64422W        W36847   5.210  17.280  11.970
64423W        W36848  31.891  44.523   4.190
64424W        W36849  29.628  14.755   2.972
64425W        W36850  44.791  30.611   0.321
64426W        W36851  42.261   3.019   5.361
64427W        W36852  40.487  21.578  10.368
64428W        W36853   0.789   8.427   1.219
64429W        W36854  43.493   6.143   1.635
64430W        W36855  35.356  34.288  14.470
64431W        W36856  14.891  28.154   0.584
64432W        W36857  34.067  16.185  14.457
64433W        W36858  40.909  14.608  11.148
64434W        W36859  40.608  16.024   0.379
64435W        W36860   8.668   6.059   4.264
64436W        W36861  13.344  21.532  13.164
64437W        W36862   7.942  24.082   3.825
64438W        W36863  42.307  27.437  13.469
64439W        W36864  27.104  42.627  13.993
64440W        W36865   1.292  34.485  10.505
64441W        W36866  14.830   7.409  13.560
64442W        W36867  20.324  36.916  14.340
64443W        W36868   8.332  41.366  14.399
64444W        W36869  41.600  36.103   3.397
64445W        W36870   2.335  27.649   1.752
64446W        W36871   0.094   0.466   4.144
64447W        W36872  26.583   4.008  11.597
64448W        W36873  15.773  10.653   1.290
64449W        W36874  43.294  28.447   1.579
64450W        W36875  25.047  23.314  13.815
64451W        W36876  31.559  19.586  12.099
64452W        W36877  11.607   8.156   1.756
64453W        W36878   6.058  41.592  10.885
64454W        W36879  30.017  42.309  14.861
64455W        W36880  11.216  25.936  10.367
64456W        W36881  16.271  20.341  14.409
64457W        W36882  22.095   2.014   0.991
64458W        W36883  26.158  29.255   4.807
64459W        W36884  38.509  22.703   2.485
64460W        W36885   2.996  37.446  13.806
64461W        W36886  10.115  27.098   1.262
64462W        W36887   8.213  25.920  13.109
64463W        W36888  44.711  25.773   0.359
64464W        W36889  28.900  26.633  11.942
64465W        W36890   4.713  19.311   4.644
64466W        W36891  42.268  25.616  13.432
64467W        W36892  37.745  35.451  12.902
64468W        W36893  13.931  25.286   1.154
64469W        W36894  12.030   8.875  14.416
64470W        W36895  25.064   3.052   2.947
64471W        W36896  13.762  27.198   2.860
64472W        W36897  43.455  18.220  11.451
64473W        W36898  26.567  20.724   4.120
64474W        W36899  34.958   5.267   2.273
64475W        W36900  13.415  37.101   4.942
64476W        W36901  31.798   1.398   3.793
64477W        W36902  12.237  44.899   2.395
64478W        W36903  31.470  40.590  12.322
64479W        W36904  29.935   6.270  10.747
64480W        W36905   1.721  15.313   3.147
64481W        W36906   1.868  30.550  10.852
64482W        W36907  25.487   8.430  12.870
64483W        W36908  28.455  22.614   3.824
64484W        W36909   3.353  26.034  12.624
64485W        W36910   6.125  27.613   3.832
64486W        W36911   7.630  15.717  11.981
64487W        W36912  15.050   5.957   0.926
64488W        W36913  11.685  42.368  10.770
64489W        W36914  34.545  20.462   4.495
64490W        W36915  19.919  10.129   4.590
64491W        W36916  24.947   8.365  12.120
64492W        W36917  37.370   1.048  14.402
64493W        W36918  39.421  21.677   2.221
64494W        W36919  39.998   1.985  11.566
64495W        W36920  22.796  33.450   0.933
64496W        W36921  19.278   2.447  10.736
64497W        W36922   6.126   1.433  12.366
64498W        W36923  18.039  11.291  12.438
64499W        W36924  41.294   6.030   0.675
64500W        W36925  37.730   2.449  13.395
64501W        W36926  24.297  43.208   3.926
64502W        W36927  27.056  24.200   4.547
64503W        W36928   0.783  32.933   2.838
64504W        W36929  12.286  22.610  11.293
64505W        W36930  18.733  15.601  13.365
64506W        W36931   7.783  20.683   4.677
64507W        W36932  28.599  26.511   3.821
64508W        W36933   7.222  25.003  13.934
64509W        W36934   2.902   8.800   0.034
64510W        W36935   8.669  39.103   1.056
64511W        W36936  41.488  10.154  12.816
64512W        W36937  26.898  34.901   0.809
64513W        W36938  12.604  27.436   2.185
64514W        W36939   8.287  21.730   2.243
64515W        W36940  26.591  22.286  14.112
64516W        W36941  24.106  44.707  11.227
64517W        W36942  35.133   8.194  12.008
64518W        W36943  29.725  36.252  12.628
64519W        W36944  42.985  22.292   3.707
64520W        W36945   1.394  30.059  12.812
64521W        W36946  43.867   7.826   4.049
64522W        W36947  40.369  16.140   4.287
64523W        W36948   8.719  11.873  10.790
64524W        W36949  23.201  22.089   3.963
64525W        W36950  14.492  27.819  14.046
64526W        W36951  15.639  13.393   2.756
64527W        W36952  34.601  38.863   4.180
64528W        W36953  15.043  26.024  13.497
64529W        W36954   9.824  42.528   3.381
64530W        W36955  32.466  16.108   1.632
64531W        W36956  42.256  12.905   0.737
64532W        W36957  30.662  28.926  11.484
64533W        W36958   3.976  41.370  13.838
64534W        W36959  36.895  39.478   2.315
64535W        W36960  39.432  29.610   4.960
64536W        W36961  28.936  44.769  13.673
64537W        W36962  36.497   4.750  10.243
64538W        W36963   1.590  30.171  12.337
64539W        W36964  25.648  40.440  14.395
64540W        W36965  41.539  39.332   1.191
64541W        W36966  38.823  33.611  12.642
64542W        W36967   7.767  41.450  12.138
64543W        W36968  41.589  30.751   1.172
64544W        W36969  31.150   4.347   1.297
64545W        W36970   6.817  37.541  11.084
64546W        W36971  11.904   0.770   0.552
64547W        W36972  10.218   3.760  13.376
64548W        W36973  29.932  23.086  13.492
64549W        W36974  29.862  33.876   1.421
64550W        W36975   8.218  19.195   0.350
64551W        W36976  30.663  42.795   4.573
64552W        W36977  11.453  31.155  12.005
64553W        W36978  44.491  37.994   1.182
64554W        W36979  16.196  19.206   2.950
64555W        W36980   4.866  14.271   3.317
64556W        W36981   6.824   4.398  13.398
64557W        W36982   6.778  11.607  14.810
64558W        W36983   2.983  39.087   4.473
64559W        W36984  29.846   4.219  14.967
64560W        W36985  11.078  31.399  11.072
64561W        W36986  31.070  35.623   4.697
64562W        W36987  36.411   1.196  11.944
64563W        W36988  34.435  28.951   1.442
64564W        W36989   4.870  40.359  11.892
64565W        W36990  36.753  31.918  12.002
64566W        W36991  41.942  13.400  13.075
64567W        W36992  24.573  40.308  14.871
64568W        W36993  43.009  37.116   1.171
64569W        W36994   0.336  39.385   2.650
64570W        W36995  33.828  23.627  12.472
64571W        W36996  41.960   2.337  12.897
64572W        W36997  15.731  24.159  12.020
64573W        W36998  33.521   9.312   0.122
64574W        W36999  17.313  34.053  14.424
64575W        W37000  31.909  19.811   4.570
64576W        W37001  23.006  30.484   4.724
64577W        W37002  37.826  44.307   3.789
64578W        W37003   2.308  13.862  13.655
64579W        W37004  42.355   3.395  11.552
64580W        W37005  28.102  20.204   3.200
64581W        W37006  18.639  22.672   4.118
64582W        W37007  33.512  22.023   1.492
64583W        W37008  31.641  31.076  14.032
64584W        W37009   9.445  18.085   0.124
64585W        W37010   6.368   5.355  12.580
64586W        W37011  35.214   1.298   0.922
64587W        W37012  15.806  11.904   1.738
64588W        W37013   5.182  38.931  13.969
64589W        W37014  15.950   4.328  14.801
64590W        W37015  17.974  43.596  10.991
64591W        W37016  30.437  38.310  11.491
64592W        W37017   9.752  17.039   2.350
64593W        W37018   9.326  29.075  13.822
64594W        W37019  36.596   1.743   1.821
64595W        W37020  10.953  27.486   1.379
64596W        W37021  28.598  25.235  14.389
64597W        W37022  31.954  25.811  12.269
64598W        W37023  22.782  38.989  12.931
64599W        W37024  12.253  20.981  14.916
64600W        W37025  15.978  29.899  12.534
64601W        W37026  23.068  11.466   3.687
64602W        W37027  40.307  44.421  12.969
64603W        W37028   8.879   3.391   2.422
64604W        W37029  36.531  20.745   0.008
64605W        W37030  40.764   8.876  11.215
64606W        W37031  34.674  17.227  11.220
64607W        W37032  33.160  15.189   4.631
64608W        W37033  17.494  37.939   1.629
64609W        W37034  15.497  23.491  10.747
64610W        W37035  23.511  26.959  14.407
64611W        W37036  33.043   1.287   0.493
64612W        W37037  15.884  34.689   1.386
64613W        W37038  23.382  38.053  13.548
64614W        W37039  10.756   2.285   2.701
64615W        W37040  33.341  11.082   0.119
64616W        W37041  16.808  22.111  14.324
64617W        W37042  21.239  25.170  13.652
64618W        W37043  12.323   5.029   1.790
64619W        W37044  13.786  19.355  11.205
64620W        W37045  38.444   0.990  14.354
64621W        W37046  20.596  20.178   2.904
64622W        W37047  26.152  13.244   3.704
64623W        W37048  20.619  13.552  14.857
64624W        W37049  26.482  34.389   1.418
64625W        W37050  41.582  22.378   0.983
64626W        W37051  11.285  34.112  14.766
64627W        W37052  37.021  16.023   2.195
64628W        W37053  15.522  32.078  14.022
64629W        W37054  16.632  34.665   0.708
64630W        W37055  42.356   6.294   0.464
64631W        W37056  31.964   7.733   0.168
64632W        W37057  44.362  44.063   0.312
64633W        W37058  20.178  30.941  13.520
64634W        W37059  37.044  42.227  11.545
64635W        W37060  28.054  16.441   0.734
64636W        W37061  25.259  26.560   4.080
64637W        W37062   9.576  16.592  12.125
64638W        W37063  42.315   7.326   1.498
64639W        W37064  40.071  15.650  12.354
64640W        W37065   7.309  11.677   1.104
64641W        W37066  35.503  19.693   3.338
64642W        W37067   9.421  36.832   1.651
64643W        W37068   0.067  42.044   4.157
64644W        W37069  29.062  29.816  11.686
64645W        W37070  10.044  13.316  10.870
64646W        W37071  39.320  34.501  12.638
64647W        W37072  32.931  30.082  12.082
64648W        W37073  12.705  21.602  12.007
64649W        W37074  16.776  24.904   1.866
64650W        W37075  17.568   3.275  13.140
64651W        W37076   8.905  14.195  14.485
64652W        W37077  29.763  19.515  11.248
64653W        W37078  31.629   3.903   2.850
64654W        W37079  42.261  14.364   0.777
64655W        W37080  28.377  19.119   0.774
64656W        W37081  13.875  22.965  13.601
64657W        W37082  41.733   3.479  11.541
64658W        W37083   8.986  14.747  13.648
64659W        W37084  23.818  14.261  14.369
64660W        W37085  26.604  43.484  14.478
64661W        W37086  43.358  22.658   4.416
64662W        W37087  29.407  32.888  12.409
64663W        W37088   3.192  31.741  14.850
64664W        W37089  43.061  44.426  10.739
64665W        W37090  37.857   5.486   0.689
64666W        W37091   7.036  35.062   1.216
64667W        W37092   2.305   5.804  11.176
64668W        W37093  44.315  14.285  12.412
64669W        W37094  29.601  25.278   0.879
64670W        W37095  20.911  26.106  14.054
64671W        W37096  22.973  17.779   3.586
64672W        W37097   4.205  27.730  12.520
64673W        W37098  12.873  24.013   5.556
64674W        W37099  13.847   6.164   1.757
64675W        W37100  18.744   5.786  13.358
64676W        W37101  22.697   8.887  12.818
64677W        W37102  39.044  27.604  14.024
64678W        W37103  31.473   7.900  12.697
64679W        W37104  38.619  19.682   4.073
64680W        W37105  28.116  21.814   1.760
64681W        W37106  39.005  19.301  11.997
64682W        W37107  44.893   4.464  10.738
64683W        W37108  43.438  32.189  10.605
64684W        W37109  22.078  33.898  11.571
64685W        W37110   9.107   9.432   2.616
64686W        W37111  36.468  33.412   3.403
64687W        W37112  35.070  25.037   3.302
64688W        W37113  43.013  16.572  14.416
64689W        W37114  20.948  41.411   0.824
64690W        W37115  19.602  21.130  14.878
64691W        W37116  37.957  34.142   3.691
64692W        W37117  17.706  22.413   1.136
64693W        W37118  28.518  19.807   1.937
64694W        W37119  41.693  37.977   1.942
64695W        W37120  21.276  13.562   2.446
64696W        W37121   9.774   2.611   0.276
64697W        W37122  29.963  19.463  13.367
64698W        W37123  18.163  44.469  11.055
64699W        W37124  44.703  36.496   0.132
64700W        W37125  16.671  19.259   2.747
64701W        W37126  16.841  14.641   1.657
64702W        W37127   0.262  11.729  10.650
64703W        W37128  12.060   4.307   3.670
64704W        W37129   3.018   6.714  10.620
64705W        W37130  17.662  40.780  14.527
64706W        W37131  15.248   4.631  14.267
64707W        W37132   0.774   2.841   4.193
64708W        W37133  35.621   6.218  13.815
64709W        W37134   5.656  32.114  14.563
64710W        W37135  11.645  17.588  10.634
64711W        W37136  19.694   8.772   1.773
64712W        W37137  35.821  21.163   0.233
64713W        W37138  25.238   7.475  14.347
64714W        W37139  26.201  33.905   2.738
64715W        W37140  30.387  34.323  11.022
64716W        W37141  31.714  18.100  13.905
64717W        W37142  36.517  36.042   5.273
64718W        W37143   2.176  11.275  12.419
64719W        W37144   1.425  11.420   3.582
64720W        W37145  36.347  41.259  11.440
64721W        W37146  24.005   9.416   1.315
64722W        W37147   8.918   0.847   4.602
64723W        W37148  18.572  34.827  11.601
64724W        W37149   9.528   9.782  11.126
64725W        W37150  22.982   3.391  13.184
64726W        W37151  41.005  13.215  14.223
64727W        W37152  28.550  18.062   3.526
64728W        W37153  34.224  43.987   0.839
64729W        W37154   7.647  27.805  11.579
64730W        W37155  41.769  27.676  12.256
64731W        W37156  34.906  42.017   3.794
64732W        W37157   8.039  30.106  14.237
64733W        W37158  37.631  31.699   4.121
64734W        W37159  40.957  13.487  11.213
64735W        W37160  32.525  17.280   1.452
64736W        W37161  19.536  28.352   2.144
64737W        W37162  18.221  13.026   0.477
64738W        W37163  40.542   0.261   3.538
64739W        W37164  41.973  36.598   4.109
64740W        W37165   4.831  35.380  12.550
64741W        W37166  36.769  19.027  13.473
64742W        W37167   6.825  19.189  13.996
64743W        W37168  23.467  15.614  12.205
64744W        W37169  28.017  37.156  13.339
64745W        W37170  34.854  21.221  13.929
64746W        W37171  35.607  23.702   2.792
64747W        W37172   8.962  35.493  13.513
64748W        W37173   2.394  42.907  13.999
64749W        W37174  25.962   3.175  12.421
64750W        W37175  38.313   7.267   2.421
64751W        W37176  16.587  27.380   1.213
64752W        W37177  36.034  12.733   3.801
64753W        W37178  37.924  38.745   0.738
64754W        W37179  18.270  42.075  11.110
64755W        W37180  33.066  32.902  11.980
64756W        W37181  30.555  42.181   0.443
64757W        W37182   5.830  31.534   1.785
64758W        W37183  19.572   8.430  13.403
64759W        W37184  23.563  12.719   5.091
64760W        W37185  14.838  34.533   3.434
64761W        W37186   6.195  33.143  14.302
64762W        W37187  43.370  14.172   1.371
64763W        W37188   5.519  21.475   5.309
64764W        W37189  32.204   9.282  12.942
64765W        W37190   0.128  39.126   3.056
64766W        W37191   5.814   6.316   1.585
64767W        W37192  32.965   9.631   3.740
64768W        W37193  20.233  41.616   1.986
64769W        W37194   5.289  27.736   4.336
64770W        W37195  25.100  24.008  14.964
64771W        W37196  42.363  14.691   1.158
64772W        W37197   4.229   5.181  14.199
64773W        W37198  14.323  44.296   0.824
64774W        W37199  21.501  23.988   0.423
64775W        W37200  38.538   3.787   1.279
64776W        W37201  42.882   6.834   4.088
64777W        W37202  13.184  28.207  13.142
64778W        W37203  32.229  14.318   3.691
64779W        W37204   4.312  32.567  12.509
64780W        W37205  22.648  36.095   0.310
64781W        W37206  44.359  10.840  12.484
64782W        W37207  38.084  15.090   0.874
64783W        W37208  16.588  24.766   4.171
64784W        W37209  16.651  30.470   5.087
64785W        W37210  42.496   8.785   0.813
64786W        W37211  20.749  14.746   3.082
64787W        W37212   7.443  35.982   4.905
64788W        W37213   8.888   1.825  10.800
64789W        W37214  37.540   4.563  12.980
64790W        W37215  36.178  24.543  12.657
64791W        W37216  24.786   2.825   4.655
64792W        W37217  23.679  44.969  10.815
64793W        W37218   5.341  23.034  11.606
64794W        W37219   5.361  33.678   3.228
64795W        W37220  37.953  23.424   2.624
64796W        W37221  21.955  44.014  11.528
64797W        W37222  39.021  35.726   0.250
64798W        W37223  11.539  31.644  14.999
64799W        W37224  40.820   1.313   4.147
64800W        W37225  23.398  29.398   1.824
64801W        W37226   3.324  23.092  11.860
64802W        W37227  11.740  11.910   3.609
64803W        W37228  37.860  18.881  14.788
64804W        W37229  31.609  34.373  12.533
64805W        W37230  18.978   3.219  11.357
64806W        W37231   6.155   7.421   2.194
64807W        W37232  22.944  15.913  14.909
64808W        W37233  28.168  31.862  13.441
64809W        W37234  22.187  32.647  12.620
64810W        W37235   2.753   1.846   2.661
64811W        W37236  11.180  26.171   1.341
64812W        W37237  29.755  32.374   4.357
64813W        W37238  20.656  11.913  10.418
64814W        W37239  13.555  26.472  11.043
64815W        W37240   0.205  38.433  12.493
64816W        W37241   4.551  42.093   0.547
64817W        W37242  14.271   7.812   1.957
64818W        W37243   6.250  25.950   1.267
64819W        W37244  43.714  29.568  13.135
64820W        W37245  27.896  14.192   1.399
64821W        W37246  31.239  13.370  10.941
64822W        W37247  38.073  29.941   4.195
64823W        W37248  17.608  42.810   9.975
64824W        W37249  36.828  15.630  12.522
64825W        W37250  26.570  27.769  11.139
64826W        W37251  40.777   8.931  12.529
64827W        W37252  39.192  20.528  14.923
64828W        W37253   6.386  44.686  11.126
64829W        W37254   6.436  12.520   3.171
64830W        W37255  10.391   5.274  10.992
64831W        W37256  31.132  26.603   2.212
64832W        W37257  44.071  34.400  11.136
64833W        W37258  39.453  24.408   2.800
64834W        W37259   1.296   3.022   0.235
64835W        W37260   8.764  10.824  14.455
64836W        W37261   7.218   2.963  12.463
64837W        W37262  28.654  10.229   2.694
64838W        W37263   7.378  32.838  10.617
64839W        W37264  12.044  22.985  14.786
64840W        W37265  17.744  33.575  13.731
64841W        W37266  14.684  27.555  11.180
64842W        W37267  43.489  43.026  13.352
64843W        W37268  22.166   1.511   2.797
64844W        W37269  19.994  34.869   0.748
64845W        W37270   9.592  42.005  10.728
64846W        W37271  16.753   4.356   2.203
64847W        W37272   0.198   9.177  13.911
64848W        W37273  40.878  29.072  10.510
64849W        W37274  40.824  14.090   4.239
64850W        W37275  26.142   6.463  12.914
64851W        W37276  43.317  33.656  11.615
64852W        W37277  40.797  26.609   1.210
64853W        W37278  18.255  29.203   2.731
64854W        W37279  22.779  22.949   0.251
64855W        W37280  32.627   8.760   0.806
64856W        W37281   1.168  30.117  14.500
64857W        W37282  20.214   4.919  13.833
64858W        W37283   9.266  40.614   0.105
64859W        W37284   4.159  40.356   0.195
64860W        W37285   4.271  38.457   3.062
64861W        W37286  42.667  16.036   3.445
64862W        W37287  39.571   8.329  14.546
64863W        W37288  16.557  14.603   0.839
64864W        W37289   9.378  13.382   2.758
64865W        W37290  32.311   1.474   3.752
64866W        W37291   5.010  39.126   3.161
64867W        W37292  25.275  43.509   2.807
64868W        W37293  26.632  31.108  12.107
64869W        W37294   1.563  26.235   0.281
64870W        W37295   9.233  21.025   3.286
64871W        W37296  18.016   1.262   1.390
64872W        W37297  35.190   2.368  12.181
64873W        W37298   6.766   3.772  14.524
64874W        W37299  44.659  42.813   0.039
64875W        W37300  18.062  14.405   1.775
64876W        W37301  35.644  17.396   3.268
64877W        W37302  44.450   3.177   0.205
64878W        W37303  38.058  17.042  13.072
64879W        W37304  15.531  40.929   2.883
64880W        W37305  39.522  36.045  12.019
64881W        W37306  13.809  39.887   0.542
64882W        W37307  31.693   3.847  13.461
64883W        W37308  32.507  40.089  12.222
64884W        W37309  44.276  25.777  10.460
64885W        W37310  15.589  17.069  14.502
64886W        W37311   6.612   5.239  10.383
64887W        W37312   8.254  18.624   1.819
64888W        W37313  18.267   6.848   2.227
64889W        W37314  28.355  13.382  14.273
64890W        W37315  27.385  11.305   2.824
64891W        W37316  10.706  26.241   4.452
64892W        W37317  20.122  16.837  14.798
64893W        W37318   4.438  17.195  13.402
64894W        W37319  16.304  34.453  13.573
64895W        W37320   8.694  28.074   0.789
64896W        W37321  36.952  41.793   1.270
64897W        W37322  21.594  40.964   4.038
64898W        W37323  20.638  43.198  12.549
64899W        W37324  15.953   7.893  12.471
64900W        W37325  15.533  15.784   1.244
64901W        W37326   8.467   3.882  11.007
64902W        W37327  11.701  27.479   2.626
64903W        W37328   5.370  17.747   4.295
64904W        W37329  22.123  34.131   1.644
64905W        W37330  39.306   3.182   1.128
64906W        W37331  38.127  26.046   0.407
64907W        W37332  14.527   0.345   3.618
64908W        W37333  17.179  18.651  10.746
64909W        W37334  15.349  41.556  11.203
64910W        W37335  27.404  26.634  14.401
64911W        W37336  30.401  36.135  14.699
64912W        W37337  39.593   8.384  11.667
64913W        W37338  26.766  30.054  10.404
64914W        W37339  35.448  40.590   2.842
64915W        W37340   6.682  24.243   2.794
64916W        W37341  20.221  31.430   1.914
64917W        W37342  33.535  35.361   2.004
64918W        W37343   6.222   7.463   3.567
64919W        W37344   2.462  37.626   9.764
64920W        W37345  29.081  21.038  13.299
64921W        W37346  10.194   5.277   3.335
64922W        W37347  28.624   7.888   0.897
64923W        W37348  35.416   2.661   0.257
64924W        W37349  19.824   7.308  12.465
64925W        W37350  21.926  38.884   1.419
64926W        W37351  38.833  34.869   4.547
64927W        W37352  35.277  37.397  10.704
64928W        W37353  10.386   9.659   2.955
64929W        W37354  41.986  44.743  13.843
64930W        W37355   9.346  43.004   3.805
64931W        W37356  16.848  14.882  13.855
64932W        W37357  26.030  23.611  11.212
64933W        W37358  30.910  29.904  12.060
64934W        W37359   2.341   0.302   0.097
64935W        W37360  10.888  31.004  14.054
64936W        W37361  11.191   7.350   4.506
64937W        W37362   0.870  15.248  10.660
64938W        W37363   3.876  18.343  12.274
64939W        W37364   0.488  19.085   0.471
64940W        W37365  40.562  30.022  11.037
64941W        W37366  29.671   0.866  13.907
64942W        W37367  29.929   4.350  11.620
64943W        W37368  20.823  14.233   0.014
64944W        W37369  33.931  34.186   0.233
64945W        W37370  15.253  35.823  14.896
64946W        W37371  14.264  39.294  13.881
64947W        W37372  26.631  17.575   2.801
64948W        W37373  19.128  20.681   3.902
64949W        W37374  28.623  37.357   3.983
64950W        W37375   5.955  39.030  11.155
64951W        W37376  14.095   9.713   1.396
64952W        W37377  12.027  12.247  11.985
64953W        W37378  19.635   7.955  14.322
64954W        W37379  27.159  44.818   2.787
64955W        W37380  13.084  38.429  12.146
64956W        W37381   1.895  40.482  12.330
64957W        W37382  36.391   4.789   3.087
64958W        W37383  22.123   2.181  14.470
64959W        W37384  21.740   4.015  11.612
64960W        W37385   3.787  37.043   3.740
64961W        W37386  19.030  15.101   4.091
64962W        W37387  13.579  26.466   3.662
64963W        W37388  12.635   2.658  12.371
64964W        W37389   2.942  12.195   0.025
64965W        W37390  39.182  11.296  11.316
64966W        W37391  40.489  28.587  11.796
64967W        W37392  35.605  36.931  13.901
64968W        W37393  27.975  27.153   2.676
64969W        W37394  22.153   6.835   1.848
64970W        W37395  33.502   9.377  12.037
64971W        W37396  42.573  41.711   1.729
64972W        W37397  24.467  25.665  10.707
64973W        W37398  15.823   3.876  14.377
64974W        W37399  29.123  15.973  12.500
64975W        W37400   0.508   4.216   4.411
64976W        W37401   1.006  39.696   9.966
64977W        W37402  21.767  21.568   3.215
64978W        W37403  12.171  28.011  14.956
64979W        W37404  21.734   5.713   0.417
64980W        W37405  41.871   4.627  12.669
64981W        W37406  19.539  38.404  11.943
64982W        W37407  22.165   6.851  10.676
64983W        W37408  28.851   0.837   0.936
64984W        W37409   2.516  14.740  12.056
64985W        W37410  34.936  32.885   3.652
64986W        W37411  19.008  37.458  10.955
64987W        W37412  26.523  42.267   4.680
64988W        W37413   8.599   1.492  14.681
64989W        W37414  19.381   3.896   0.279
64990W        W37415  14.676   6.512  10.475
64991W        W37416  17.041   1.786   3.639
64992W        W37417  34.731  37.911  11.152
64993W        W37418   5.367  30.684   0.729
64994W        W37419  23.725  17.487  13.498
64995W        W37420  24.622  23.059   0.805
64996W        W37421  12.989   3.771  12.666
64997W        W37422  18.960   1.349  12.459
64998W        W37423  33.485  27.609  12.953
64999W        W37424  14.608  43.259   0.830
65000W        W37425  20.023  33.330  11.499
65001W        W37426   8.378   5.389   3.694
65002W        W37427  32.056  44.388   0.835
65003W        W37428  24.360   4.299  11.425
65004W        W37429  30.879  23.584   4.803
65005W        W37430   6.729   1.489  12.481
65006W        W37431  17.349  41.281  13.871
65007W        W37432   1.026  28.424   2.775
65008W        W37433  18.070   3.029   0.357
65009W        W37434  37.786  20.155   3.250
65010W        W37435  20.044  23.036   1.948
65011W        W37436   8.208  33.485   1.739
65012W        W37437  38.827   8.385  14.877
65013W        W37438  14.740  40.901   3.264
65014W        W37439  41.105  35.190  12.959
65015W        W37440  28.653  31.691  13.326
65016W        W37441  28.245  37.630   2.293
65017W        W37442  12.692   3.236  10.722
65018W        W37443   0.977   2.395  13.414
65019W        W37444   2.996   1.870  10.742
65020W        W37445  26.672  23.735  13.002
65021W        W37446  31.854  16.896  12.366
65022W        W37447  32.700  33.197   1.020
65023W        W37448  16.852  41.450   2.133
65024W        W37449   3.222   1.761  11.714
65025W        W37450  40.019  40.561  11.279
65026W        W37451  34.302  11.704  13.804
65027W        W37452  26.741  12.844  11.642
65028W        W37453  20.968  27.078  10.546
65029W        W37454  41.337  28.118   0.661
65030W        W37455  34.420   4.141  12.703
65031W        W37456  24.102  12.213   4.122
65032W        W37457  41.871  27.804  14.269
65033W        W37458  27.748  15.416   0.220
65034W        W37459  42.952  32.654   4.888
65035W        W37460  14.836  14.150   2.275
65036W        W37461  37.109  26.005  12.048
65037W        W37462  41.332  28.876  12.148
65038W        W37463  17.627   7.455  14.965
65039W        W37464  11.664  32.118  14.296
65040W        W37465  36.070  18.665   2.625
65041W        W37466  14.721  42.906   2.707
65042W        W37467  38.329  14.277  10.745
65043W        W37468  33.799  24.591   0.413
65044W        W37469  14.315  41.565  14.061
65045W        W37470  35.847  38.838  13.047
65046W        W37471  35.774  40.438   2.096
65047W        W37472  30.218  20.213  10.791
65048W        W37473  10.006   7.445   0.861
65049W        W37474  11.697  33.233  11.147
65050W        W37475  37.460   5.868   4.973
65051W        W37476  33.138   7.824  14.435
65052W        W37477  34.888  22.130  14.750
65053W        W37478  40.403   0.711  10.580
65054W        W37479  37.297  17.341  10.645
65055W        W37480  22.163   4.883   4.212
65056W        W37481  37.017   5.304   0.298
65057W        W37482  40.489  39.026  11.159
65058W        W37483  33.404   9.596   4.682
65059W        W37484  14.171  43.820   0.677
65060W        W37485  21.514  26.754   1.487
65061W        W37486  23.028  42.096   1.909
65062W        W37487  29.502  19.161  11.928
65063W        W37488   0.224  29.947   4.123
65064W        W37489  21.600  44.498   4.709
65065W        W37490  23.468   7.381  12.380
65066W        W37491  39.693  19.516   1.834
65067W        W37492   5.936  43.526  10.712
65068W        W37493  43.875   1.911  12.174
65069W        W37494  29.096  30.348   3.707
65070W        W37495  15.454  24.581  11.922
65071W        W37496  30.617  23.155  14.457
65072W        W37497  26.085  34.415  13.906
65073W        W37498  41.301  44.079   3.382
65074W        W37499   2.429  28.035  11.402
65075W        W37500  12.213  20.020  12.409
65076W        W37501  17.285  17.767  14.367
65077W        W37502  24.234  42.970  12.838
65078W        W37503  36.912  40.229   1.395
65079W        W37504  40.651  17.145   3.685
65080W        W37505  31.229  41.831   3.544
65081W        W37506   6.519   7.117   3.839
65082W        W37507  19.348   3.013  14.727
65083W        W37508  42.305   3.827  14.972
65084W        W37509  32.687  17.922  13.876
65085W        W37510  10.409  13.713   0.216
65086W        W37511  16.705  30.703  10.967
65087W        W37512   6.663  26.022   3.418
65088W        W37513  11.302   7.910   1.398
65089W        W37514  11.697  37.426   2.347
65090W        W37515  40.422  25.113  11.802
65091W        W37516   6.155  11.206  12.121
65092W        W37517  11.658   5.245   0.779
65093W        W37518  25.417  36.321  12.969
65094W        W37519  11.886  14.149   3.266
65095W        W37520  10.621  14.208  14.527
65096W        W37521  15.274  39.437   2.192
65097W        W37522  37.341  39.202  11.151
65098W        W37523  32.550  20.032  11.413
65099W        W37524  34.060   7.546   3.925
65100W        W37525  41.444  11.193  13.936
65101W        W37526  40.856  24.208  12.808
65102W        W37527  21.178  29.992  13.024
65103W        W37528  30.241  41.921  14.286
65104W        W37529  24.689  21.329  11.870
65105W        W37530  12.140   9.697   3.208
65106W        W37531  25.463  21.565  13.985
65107W        W37532   1.306  27.555   0.260
65108W        W37533  29.593  35.539  13.435
65109W        W37534  41.039   2.558  14.448
65110W        W37535  32.233   6.447  13.071
65111W        W37536  34.099  29.851  14.314
65112W        W37537  23.966  21.311   4.576
65113W        W37538  21.244  23.683   2.636
65114W        W37539  37.763   6.368   2.766
65115W        W37540  32.478  33.358   2.042
65116W        W37541  36.368  11.877  12.665
65117W        W37542  42.882  21.014  11.062
65118W        W37543  40.504  24.009  13.112
65119W        W37544  15.732  18.314   0.798
65120W        W37545  38.796  40.033   0.936
65121W        W37546   0.393   4.810   2.617
65122W        W37547   2.389   5.237   3.082
65123W        W37548  40.588  13.298  10.706
65124W        W37549  24.221  27.061   1.247
65125W        W37550   5.085  32.561  13.202
65126W        W37551  42.544  27.705   1.947
65127W        W37552   8.292  24.922  14.021
65128W        W37553   6.412  38.484   0.728
65129W        W37554  41.932  31.869   4.126
65130W        W37555  15.620  44.173  14.456
65131W        W37556  44.374  25.542   4.625
65132W        W37557  40.991  20.706   1.885
65133W        W37558  34.449  25.684   1.759
65134W        W37559   1.876  41.970  12.669
65135W        W37560  25.169  25.726   0.986
65136W        W37561  16.054  21.456   3.187
65137W        W37562   3.283  12.128  10.683
65138W        W37563  38.961  31.952  12.941
65139W        W37564  25.232  43.889  11.594
65140W        W37565  37.793  23.340   9.715
65141W        W37566  18.301   6.656  11.182
65142W        W37567  27.871  35.802  12.100
65143W        W37568  43.334  30.395   2.444
65144W        W37569  44.504  38.966  13.511
65145W        W37570  29.898  30.871   9.743
65146W        W37571   5.264  44.894  12.640
65147W        W37572  23.631  42.314   1.377
65148W        W37573  36.056  37.065   2.951
65149W        W37574  37.137  37.375   1.181
65150W        W37575  25.472  18.576  10.655
65151W        W37576  26.503  16.130  12.413
65152W        W37577  23.013  39.412   4.397
65153W        W37578  44.789  20.200   1.870
65154W        W37579   2.604  23.531  14.370
65155W        W37580  23.927   1.786   1.727
65156W        W37581  11.200  13.829  13.568
65157W        W37582   7.320   4.428   4.912
65158W        W37583   5.941  10.379  10.386
65159W        W37584  11.152  15.720  14.884
65160W        W37585  44.034  12.799   0.953
65161W        W37586  25.501  28.944  12.945
65162W        W37587   1.077   1.916   4.215
65163W        W37588  15.208   6.750   4.518
65164W        W37589  10.784  25.006  13.780
65165W        W37590  42.115  26.820   0.439
65166W        W37591  20.037  24.151  14.257
65167W        W37592  26.435  26.039   4.149
65168W        W37593  33.951  22.079  12.739
65169W        W37594  30.657  43.816   4.498
65170W        W37595  19.855  34.629   1.896
65171W        W37596  16.099  36.520  12.980
65172W        W37597  44.033   2.790  13.030
65173W        W37598  27.218  43.005   1.405
65174W        W37599  41.491   8.621   0.917
65175W        W37600  40.187  17.168  11.482
65176W        W37601  23.681  31.836   3.817
65177W        W37602  26.961  37.602  12.025
65178W        W37603  34.022  39.423   0.932
65179W        W37604  26.541  40.980   2.817
65180W        W37605  21.627  12.734   2.864
65181W        W37606  34.528  28.155  11.119
65182W        W37607  37.393  31.685   2.783
65183W        W37608   1.834  15.974  14.400
65184W        W37609   0.723  22.610   3.744
65185W        W37610  29.563  17.632   2.394
65186W        W37611  22.818  15.677  13.021
65187W        W37612  44.208  40.631   0.699
65188W        W37613  15.711  13.243  10.939
65189W        W37614  40.955  36.363  10.433
65190W        W37615   2.758  18.698   3.553
65191W        W37616   9.289  20.256  12.860
65192W        W37617   0.976  41.996  10.637
65193W        W37618   8.425   9.352   3.178
65194W        W37619  23.804  33.916  12.482
65195W        W37620   1.999   1.751  13.030
65196W        W37621  25.069  40.614   2.680
65197W        W37622  26.261  31.924  14.914
65198W        W37623  28.740   8.219   4.120
65199W        W37624   7.873  17.555  11.578
65200W        W37625   4.556   2.847  12.513
65201W        W37626  40.224  38.104  11.068
65202W        W37627  22.355  19.587   2.859
65203W        W37628  33.025   3.337  10.643
65204W        W37629  13.050   1.896  11.107
65205W        W37630  26.742  32.269   4.106
65206W        W37631  20.740  12.587  12.034
65207W        W37632  19.606  18.690   3.871
65208W        W37633  17.253  38.006   2.764
65209W        W37634   4.720  32.444  12.792
65210W        W37635  41.921  34.563  13.632
65211W        W37636  28.698  43.327  13.921
65212W        W37637   4.240  41.831  10.757
65213W        W37638  41.176  34.494   3.295
65214W        W37639  11.118  39.562  11.500
65215W        W37640  13.577  35.135   2.829
65216W        W37641  12.727  16.068  14.513
65217W        W37642   1.441   0.300   3.573
65218W        W37643  41.314  21.824   3.335
65219W        W37644   5.518  13.552  12.050
65220W        W37645  33.158  27.483   1.624
65221W        W37646   2.896  34.849  13.520
65222W        W37647  34.944  14.055  14.888
65223W        W37648  12.478  34.635  12.412
65224W        W37649  44.892  22.650  13.142
65225W        W37650  35.408   7.442   1.248
65226W        W37651  19.581   0.769   1.810
65227W        W37652   1.906  32.848  13.405
65228W        W37653  29.262  14.452  13.714
65229W        W37654  11.519  19.548  11.709
65230W        W37655  21.121  31.691   4.100
65231W        W37656   7.885  20.395  11.119
65232W        W37657  19.214   9.824  11.068
65233W        W37658  15.735  34.375  13.882
65234W        W37659   4.294   0.969  11.718
65235W        W37660  39.495  34.821   2.223
65236W        W37661  29.013   6.205  13.269
65237W        W37662  42.125  26.347  12.072
65238W        W37663  21.607  20.683  13.888
65239W        W37664   8.207  11.919  11.609
65240W        W37665  21.209  29.726   1.251
65241W        W37666  31.744  24.916  10.785
65242W        W37667  16.906  10.391   5.106
65243W        W37668  34.036  20.911   2.373
65244W        W37669  18.201   0.760  12.514
65245W        W37670  20.851  23.935  11.663
65246W        W37671  14.645   7.304   2.175
65247W        W37672  15.372   7.399  14.769
65248W        W37673  12.843  38.022  11.934
65249W        W37674  14.227  15.063  10.963
65250W        W37675  33.352  25.700   3.146
65251W        W37676  35.649  37.532   4.644
65252W        W37677  29.984  19.056  12.128
65253W        W37678  24.960  16.077  14.065
65254W        W37679   8.848   7.096   2.768
65255W        W37680   8.079   8.100   5.436
65256W        W37681  37.391  14.206  11.160
65257W        W37682  31.037  23.988  11.927
65258W        W37683  43.921  15.765  12.016
65259W        W37684  24.230  10.332  12.447
65260W        W37685  10.872  37.414  12.081
65261W        W37686  24.631  11.034   2.825
65262W        W37687  29.529  23.186   0.071
65263W        W37688  38.859  42.738   4.969
65264W        W37689  11.369   1.169  12.004
65265W        W37690  42.914   6.226   2.725
65266W        W37691  40.061  26.698   1.870
65267W        W37692   7.743  24.284   1.610
65268W        W37693  23.518   9.002  10.284
65269W        W37694  22.577   7.096  11.495
65270W        W37695  19.075  20.644   4.787
65271W        W37696  36.897  23.064  11.886
65272W        W37697  23.792   4.231   1.680
65273W        W37698  27.022   5.338  11.657
65274W        W37699  33.881  35.015   1.791
65275W        W37700  36.536  35.959  13.831
65276W        W37701  31.970  33.548   0.593
65277W        W37702  39.110  36.129   1.573
65278W        W37703  36.185  21.049  11.171
65279W        W37704  43.050  11.538  13.983
65280W        W37705  21.616  26.000  11.979
65281W        W37706  17.790   0.860  11.451
65282W        W37707  14.341  16.188   0.176
65283W        W37708   8.171  13.585   4.129
65284W        W37709  35.314  25.964  13.928
65285W        W37710  37.068   5.227   1.266
65286W        W37711  39.474   0.169   9.757
65287W        W37712  27.453  34.813  10.565
65288W        W37713  38.796   8.185   0.826
65289W        W37714  17.010  25.956   2.600
65290W        W37715  41.713  12.366   3.928
65291W        W37716  42.060  12.368   3.076
65292W        W37717  34.623  35.703  13.769
65293W        W37718  32.516  18.078   4.673
65294W        W37719  18.226  19.011  10.820
65295W        W37720  24.880  35.893  12.712
65296W        W37721  21.742  32.494   0.204
65297W        W37722  14.075   3.705   4.160
65298W        W37723  29.600  41.439   1.966
65299W        W37724  12.243  14.465  11.160
65300W        W37725  17.166  37.100  14.537
65301W        W37726   5.319  42.648   1.447
65302W        W37727  28.496  12.506  14.024
65303W        W37728  15.399  41.236  11.591
65304W        W37729  38.364   0.066  11.207
65305W        W37730  27.677   7.322   1.352
65306W        W37731  29.985  12.112   0.431
65307W        W37732  26.925  23.764  12.512
65308W        W37733  22.278  22.162   3.750
65309W        W37734  41.461  37.445   2.286
65310W        W37735  30.455   5.116   3.541
65311W        W37736  26.631  28.045  12.603
65312W        W37737  21.441  32.597  11.887
65313W        W37738  29.086  36.832  14.399
65314W        W37739   4.905  12.833  13.480
65315W        W37740  16.790  24.556   2.841
65316W        W37741  42.369  40.965  11.887
65317W        W37742  15.300  16.227   2.607
65318W        W37743  31.790  42.044  10.822
65319W        W37744  15.317   3.784  13.040
65320W        W37745   0.523  11.342   3.424
65321W        W37746   2.258  15.373   1.929
65322W        W37747  40.699  24.962  13.215
65323W        W37748  12.782  36.565   0.991
65324W        W37749   5.345  36.652  10.915
65325W        W37750  40.374  31.915  11.582
65326W        W37751   7.627  44.985  10.655
65327W        W37752  38.468  27.968   1.900
65328W        W37753  30.574   8.857  13.320
65329W        W37754  20.621  33.257  11.136
65330W        W37755  10.903  40.013  11.583
65331W        W37756  21.798  29.496  13.929
65332W        W37757  33.667  10.763  11.405
65333W        W37758  25.916  39.019   0.937
65334W        W37759  31.147  33.485  11.178
65335W        W37760  24.619  17.590  14.909
65336W        W37761   4.134   7.254   0.162
65337W        W37762   7.414  38.570  14.321
65338W        W37763  26.637  19.040   2.780
65339W        W37764   4.794  28.709   0.798
65340W        W37765  13.307  11.508   1.730
65341W        W37766  31.100  41.520  12.145
65342W        W37767   9.558  19.454   5.139
65343W        W37768  38.418  35.536  11.693
65344W        W37769  18.276   8.164   2.020
65345W        W37770  40.207  29.969  12.305
65346W        W37771  10.620  29.130   4.025
65347W        W37772  19.932  11.412  11.248
65348W        W37773  15.880  12.513  14.402
65349W        W37774  32.051  38.800  14.591
65350W        W37775  33.362   6.207   3.356
65351W        W37776   9.425  22.417   4.025
65352W        W37777  29.439   7.201   3.205
65353W        W37778  14.703   0.262  10.578
65354W        W37779  34.180   7.278   0.750
65355W        W37780  42.067  32.377  14.123
65356W        W37781  25.675  30.643   0.797
65357W        W37782  20.224  36.886  11.485
65358W        W37783   9.992  44.893  11.534
65359W        W37784  11.601  12.075   4.628
65360W        W37785  15.056  33.077   3.748
65361W        W37786  15.752  29.871   1.883
65362W        W37787  37.439  40.503  14.474
65363W        W37788  24.889  20.790   0.114
65364W        W37789  42.529  32.496   2.362
65365W        W37790  30.005  30.071   2.899
65366W        W37791  40.801  22.010   4.766
65367W        W37792  34.885   6.396  10.496
65368W        W37793  24.431  19.112   1.381
65369W        W37794  10.814  13.621   2.135
65370W        W37795   0.354  26.740  13.679
65371W        W37796  12.054  28.780  13.391
65372W        W37797   0.669   6.744   4.810
65373W        W37798  17.164  28.389  12.050
65374W        W37799  19.700  40.245  12.822
65375W        W37800  22.605  19.236   2.397
65376W        W37801  26.518  11.399  13.030
65377W        W37802  37.345  31.037  14.475
65378W        W37803  42.417  30.837   2.262
65379W        W37804  41.057  27.936   0.227
65380W        W37805  34.291   4.160  11.262
65381W        W37806  34.703  16.399  13.749
65382W        W37807  11.158  35.847   4.199
65383W        W37808  20.197  32.928   3.760
65384W        W37809  10.732  24.681  11.927
65385W        W37810  37.927   7.210  11.392
65386W        W37811  22.121  26.997  12.859
65387W        W37812  25.570   6.782  14.364
65388W        W37813  17.045  13.809  12.015
65389W        W37814  43.956   0.828   3.833
65390W        W37815  10.259  25.403  12.150
65391W        W37816  11.291  44.706   4.632
65392W        W37817  38.512  14.199  13.874
65393W        W37818  14.326  31.032   2.758
65394W        W37819   1.546   5.838   4.153
65395W        W37820  21.550  10.686  13.460
65396W        W37821  25.773  30.632  12.168
65397W        W37822  12.489  16.347  14.935
65398W        W37823  35.004  37.061   0.935
65399W        W37824  37.373  23.574  14.091
65400W        W37825   3.814  19.853   5.145
65401W        W37826  23.052  42.563  14.857
65402W        W37827   0.943  12.434  11.169
65403W        W37828  43.858   2.346   3.376
65404W        W37829  36.427  33.476   4.414
65405W        W37830  15.589   4.267   0.243
65406W        W37831  18.069   8.241   4.351
65407W        W37832   9.511  14.150   2.448
65408W        W37833  43.318  37.005  11.880
65409W        W37834  10.412   7.114   0.790
65410W        W37835   0.695  26.407   1.025
65411W        W37836  13.121  35.390   4.824
65412W        W37837   7.818  24.739   3.136
65413W        W37838  39.304   1.565   2.772
65414W        W37839  43.419  11.861   3.542
65415W        W37840  22.754  22.932   1.375
65416W        W37841  13.122  29.610  12.046
65417W        W37842  37.472  22.357  13.261
65418W        W37843  16.765  11.729  13.020
65419W        W37844  22.049   7.350  13.991
65420W        W37845  19.598  33.561   1.259
65421W        W37846  23.763  42.879   4.652
65422W        W37847  19.516   1.381   2.952
65423W        W37848  42.458  35.563  11.457
65424W        W37849  43.727  39.966  11.112
65425W        W37850  14.363  34.210   1.430
65426W        W37851  42.160   3.281  14.316
65427W        W37852   8.431  26.720   1.159
65428W        W37853  25.232  44.326   1.407
65429W        W37854  40.009  39.575   1.394
65430W        W37855  12.848  29.124  10.616
65431W        W37856  20.107  29.398   3.485
65432W        W37857  37.065   4.172  14.762
65433W        W37858  25.557  10.630   9.889
65434W        W37859  27.363  15.101  12.958
65435W        W37860  34.230  28.548   2.734
65436W        W37861  36.796  32.060  14.303
65437W        W37862   2.927  32.554   3.292
65438W        W37863  18.996  41.217   0.250
65439W        W37864  37.831  43.361   3.265
65440W        W37865  33.695  18.595  11.767
65441W        W37866  16.063  19.019  14.786
65442W        W37867  35.303  22.184   4.398
65443W        W37868   7.936  33.073  11.498
65444W        W37869   8.522  12.783  10.349
65445W        W37870  30.929  12.596  10.583
65446W        W37871  21.040  22.365  12.394
65447W        W37872  21.210   0.510   2.744
65448W        W37873  35.861  31.930   4.255
65449W        W37874  35.286  18.321  14.338
65450W        W37875  43.501  24.080   2.094
65451W        W37876  22.814  11.285   4.156
65452W        W37877  40.563  18.163   1.816
65453W        W37878  34.015  34.386  12.117
65454W        W37879  41.212  31.492  14.428
65455W        W37880  28.087  10.693  14.919
65456W        W37881  12.814   8.542   0.217
65457W        W37882  18.151  31.451   4.858
65458W        W37883  43.420  29.428   1.200
65459W        W37884  22.183  35.986   2.295
65460W        W37885  42.975   1.773  10.914
65461W        W37886  15.325  36.356  11.914
65462W        W37887  22.031   0.710  13.392
65463W        W37888  12.526  12.291   3.317
65464W        W37889  23.197  29.522  12.563
65465W        W37890  41.473  37.011   3.466
65466W        W37891  37.599  21.731  12.489
65467W        W37892  15.773  39.457  11.668
65468W        W37893   1.822  25.935  13.335
65469W        W37894  41.504   2.454  13.071
65470W        W37895   2.362   8.206  12.989
65471W        W37896  35.838  37.058   1.956
65472W        W37897  15.601  10.753  12.658
65473W        W37898  11.294   9.604   4.831
65474W        W37899   0.487  23.499  13.479
65475W        W37900  12.155  19.072   1.469
65476W        W37901  41.380  10.676  14.516
65477W        W37902  20.539  17.290  11.446
65478W        W37903  39.561   5.355   1.746
65479W        W37904  43.456  18.574  14.792
65480W        W37905  38.593  32.868   0.892
65481W        W37906  34.880  17.007   3.656
65482W        W37907  14.447  30.472  13.011
65483W        W37908  14.135  29.720  14.130
65484W        W37909   0.492  18.145   0.375
65485W        W37910   4.448  28.620   4.479
65486W        W37911  22.613   8.925   2.364
65487W        W37912  30.493  42.395   3.213
65488W        W37913  12.300  28.472  12.204
65489W        W37914   6.690  35.491  13.380
65490W        W37915  14.758  38.863   4.672
65491W        W37916  13.511  12.169  11.543
65492W        W37917  14.906  40.750  13.019
65493W        W37918  31.548  10.818   0.381
65494W        W37919  18.567  20.440   0.999
65495W        W37920  20.653  36.935   2.156
65496W        W37921   5.709  11.767  10.803
65497W        W37922  20.797  39.345  13.758
65498W        W37923  43.221  21.737   4.380
65499W        W37924  38.252  20.080  14.448
65500W        W37925   1.572   0.933   1.854
65501W        W37926   6.427   7.888   4.053
65502W        W37927   3.270  25.239  11.144
65503W        W37928  22.788  44.039   0.948
65504W        W37929  13.194   4.318   0.272
65505W        W37930  12.255   3.278   3.043
65506W        W37931  23.808  10.563  10.597
65507W        W37932  33.448  42.859  11.380
65508W        W37933  12.663  36.549   0.483
65509W        W37934  11.744  35.742   2.881
65510W        W37935  13.877  26.417  12.434
65511W        W37936  36.656   9.045  11.589
65512W        W37937   0.321  37.456   2.944
65513W        W37938  20.201  34.400   1.469
65514W        W37939  29.669   9.094  12.433
65515W        W37940  43.334  16.207  12.434
65516W        W37941  12.175  17.137  12.458
65517W        W37942  22.197   9.273  10.231
65518W        W37943  16.878  27.233  12.905
65519W        W37944  19.699  38.493   4.070
65520W        W37945   5.305  11.220  12.421
65521W        W37946  10.820  40.510  12.518
65522W        W37947  39.893  29.483   4.384
65523W        W37948  41.886  17.314   3.182
65524W        W37949  27.900  21.321  10.901
65525W        W37950  21.463   4.326   4.214
65526W        W37951  39.366   3.858   2.835
65527W        W37952  25.852  25.913  11.977
65528W        W37953  33.778  39.463   1.430
65529W        W37954  26.094  43.983  13.306
65530W        W37955  15.895  20.965   3.393
65531W        W37956  38.418  42.540  11.906
65532W        W37957   2.262   0.487  13.373
65533W        W37958  37.254   8.327   2.224
65534W        W37959   0.540  27.416   0.931
65535W        W37960   9.220  21.890  14.434
65536W        W37961  32.478  11.068  10.624
65537W        W37962  14.854   4.455  13.609
65538W        W37963  36.452  26.352  10.050
65539W        W37964   8.851  35.609   1.258
65540W        W37965  12.910   6.646  13.004
65541W        W37966   0.505  18.966   4.222
65542W        W37967  38.836  40.741   3.536
65543W        W37968  23.644  10.234   0.610
65544W        W37969  25.943  35.956  13.579
65545W        W37970  15.290  41.568   4.249
65546W        W37971  24.578  26.491  12.531
65547W        W37972  16.692   5.188   3.715
65548W        W37973  27.019  37.208   0.669
65549W        W37974  31.577  38.491   1.393
65550W        W37975  44.349  40.799  11.453
65551W        W37976   1.190  16.200  13.741
65552W        W37977  20.178  41.919  13.067
65553W        W37978  37.830  30.162   3.223
65554W        W37979   4.501  36.378   4.822
65555W        W37980  44.928  22.540   2.516
65556W        W37981  24.032  24.197   4.525
65557W        W37982  34.330   2.246  12.661
65558W        W37983   9.419   3.293   3.193
65559W        W37984   1.338  33.955  13.089
65560W        W37985  29.071  27.379   3.775
65561W        W37986   2.818  35.034   3.539
65562W        W37987  10.404  36.439  11.477
65563W        W37988   5.160  19.849   1.318
65564W        W37989  28.422  40.958   1.378
65565W        W37990  28.153  39.078   5.048
65566W        W37991  24.754   4.993  13.447
65567W        W37992  10.544  43.484   3.068
65568W        W37993   4.531  40.140   1.620
65569W        W37994   3.388  15.506   5.160
65570W        W37995   2.809  26.363  12.591
65571W        W37996  23.758  13.912   3.881
65572W        W37997  20.936  19.096  14.293
65573W        W37998  15.208  37.321  14.453
65574W        W37999   6.819  19.612  14.489
65575W        W38000  11.879  19.872   1.674
65576W        W38001  43.577   9.526  13.208
65577W        W38002   9.251   2.020   4.163
65578W        W38003   4.990  19.106   1.757
65579W        W38004  40.464  40.405  10.383
65580W        W38005  23.093  17.012  12.882
65581W        W38006  39.891  44.026   3.603
65582W        W38007  10.169  28.668  13.002
65583W        W38008  30.639  10.774  13.361
65584W        W38009  19.552   0.411  11.550
65585W        W38010   1.999  26.146  14.340
65586W        W38011  44.299  15.794  12.387
65587W        W38012  34.996  35.939  14.074
65588W        W38013   0.508   3.331   4.208
65589W        W38014   1.280  17.361  12.891
65590W        W38015  30.582  42.698   0.389
65591W        W38016  17.807  42.467  14.720
65592W        W38017   4.354   7.709   2.268
65593W        W38018  21.474  16.912  12.814
65594W        W38019  15.674  16.354  14.905
65595W        W38020  13.768  44.062  12.124
65596W        W38021  19.168  19.212   3.499
65597W        W38022  17.216   2.810  11.168
65598W        W38023   7.149  12.192   3.295
65599W        W38024  25.911   5.140  14.343
65600W        W38025  15.557  14.873  14.897
65601W        W38026  33.777  25.334   3.671
65602W        W38027  10.288   2.907  10.780
65603W        W38028   4.524  30.609  12.448
65604W        W38029   1.164   7.246   1.656
65605W        W38030   2.405   4.480  14.956
65606W        W38031  38.570  28.443  13.562
65607W        W38032  43.022  12.745   3.696
65608W        W38033  31.801  37.959  12.139
65609W        W38034   7.765  24.416   2.120
65610W        W38035  33.500  19.638   0.763
65611W        W38036  24.245  22.186  11.638
65612W        W38037   3.421  21.110   0.522
65613W        W38038   0.209  30.421   2.300
65614W        W38039   4.088  11.094  13.362
65615W        W38040   2.328  17.438   4.624
65616W        W38041  13.681   6.899  13.501
65617W        W38042  27.623  12.695   2.017
65618W        W38043   0.747  10.375  14.815
65619W        W38044  32.159   1.382   0.846
65620W        W38045  34.394  21.880   0.447
65621W        W38046  20.517   8.880   2.702
65622W        W38047  36.602  23.026  14.995
65623W        W38048  22.997  14.905   0.968
65624W        W38049  31.178   2.355   0.771
65625W        W38050  43.153  20.694   4.133
65626W        W38051   5.352  14.410  11.120
65627W        W38052   4.004  43.434   0.824
65628W        W38053   4.079  17.799   2.250
65629W        W38054  34.836  22.329   2.231
65630W        W38055  32.572  26.515  11.732
65631W        W38056  32.417  17.500   4.004
65632W        W38057  41.244  43.972   2.368
65633W        W38058  26.531   0.263  12.441
65634W        W38059  38.414   5.514  14.015
65635W        W38060  18.822  25.064  12.482
65636W        W38061   3.977  38.833  10.343
65637W        W38062  16.525   0.676   0.407
65638W        W38063   7.988  22.244   4.367
65639W        W38064  39.880  15.757   0.180
65640W        W38065  10.312  34.767  11.929
65641W        W38066  34.886  34.427   2.793
65642W        W38067  15.961  18.404  14.840
65643W        W38068  23.579  35.847  12.386
65644W        W38069   8.495  23.964  12.854
65645W        W38070  16.627  30.849   3.282
65646W        W38071  29.859  11.248  14.877
65647W        W38072  42.442  21.587  10.808
65648W        W38073   8.601  42.322  13.406
65649W        W38074   8.457  40.412  13.508
65650W        W38075  23.019   3.162  14.426
65651W        W38076   8.748  13.251  10.397
65652W        W38077  34.557  19.835   5.093
65653W        W38078   2.747  27.831   4.679
65654W        W38079  15.679  18.716   4.891
65655W        W38080  10.286  43.410  13.945
65656W        W38081  14.822  17.170  14.130
65657W        W38082  19.048  23.455  12.167
65658W        W38083  29.376  39.816   1.767
65659W        W38084  28.435  23.052   4.108
65660W        W38085  22.167  18.722  12.226
65661W        W38086  10.389  29.697   4.116
65662W        W38087   6.836   3.962   3.442
65663W        W38088   4.651  29.562   2.279
65664W        W38089  40.809  13.068   4.174
65665W        W38090  38.892   8.771  11.170
65666W        W38091  30.743  36.203  12.438
65667W        W38092  41.948   6.498  14.941
65668W        W38093  32.958   6.395  12.413
65669W        W38094  10.667  41.384   0.766
65670W        W38095  38.207  15.353   2.878
65671W        W38096   3.057  15.656   2.472
65672W        W38097  34.588  24.789   2.210
65673W        W38098  20.766  10.614  14.791
65674W        W38099   8.032  10.672   4.115
65675W        W38100  41.809   4.382   1.381
65676W        W38101  25.386  20.766  11.641
65677W        W38102  12.498  12.185   4.712
65678W        W38103  29.012  19.568   1.806
65679W        W38104  41.041  15.547  12.680
65680W        W38105  44.379  14.496   4.714
65681W        W38106  27.618  37.717   3.281
65682W        W38107  30.452  17.156   2.624
65683W        W38108  20.794   9.694  14.879
65684W        W38109  17.909  12.220  13.307
65685W        W38110  32.008  42.481  14.057
65686W        W38111  14.075  41.497  11.035
65687W        W38112  44.290  13.737  13.843
65688W        W38113  13.279  34.531  14.847
65689W        W38114  10.055   4.269  13.375
65690W        W38115  17.130  35.876  12.130
65691W        W38116  17.664  38.603  14.861
65692W        W38117   4.355  10.917   1.802
65693W        W38118  23.990  37.444  13.269
65694W        W38119  22.591   9.613   0.900
65695W        W38120  26.027   9.485   2.607
65696W        W38121  41.602  23.120   3.619
65697W        W38122  18.954  44.774   1.442
65698W        W38123  10.488  10.586   4.914
65699W        W38124  36.480  40.525  12.119
65700W        W38125  21.004  40.291   3.341
65701W        W38126  13.069   3.493  11.434
65702W        W38127  11.306   1.674   2.712
65703W        W38128  22.002  18.567   2.833
65704W        W38129  29.307  13.204  11.041
65705W        W38130   8.080  15.596   2.161
65706W        W38131  40.795  32.843   2.366
65707W        W38132  32.573  36.116  10.915
65708W        W38133  27.059   1.703  14.097
65709W        W38134   4.671   6.288   3.490
65710W        W38135   9.427  16.938  13.532
65711W        W38136  25.094  26.840   1.857
65712W        W38137  25.628  41.718   2.323
65713W        W38138   6.384  17.486   4.150
65714W        W38139   6.143  16.738  10.762
65715W        W38140  11.164  43.565  12.377
65716W        W38141  37.762  34.438  12.379
65717W        W38142  16.801   9.721   4.055
65718W        W38143  42.395  26.891   4.668
65719W        W38144  36.363  15.859   0.527
65720W        W38145   7.279  39.599   3.610
65721W        W38146   8.628  14.365  13.322
65722W        W38147   3.638  14.205  14.633
65723W        W38148  28.529   2.364  10.523
65724W        W38149  44.230  39.331   4.264
65725W        W38150  21.286   3.762  14.960
65726W        W38151  36.435  17.169   0.900
65727W        W38152  20.914  36.965   2.613
65728W        W38153  11.561  14.959   2.929
65729W        W38154  36.452  39.955  12.397
65730W        W38155  36.299  29.042   0.437
65731W        W38156  13.249  17.066   1.410
65732W        W38157  27.795  29.485  12.465
65733W        W38158  23.118  19.497  11.583
65734W        W38159  30.538  26.498   1.792
65735W        W38160  43.162  39.872  13.138
65736W        W38161  10.820  19.702   3.677
65737W        W38162  33.419   6.340   4.251
65738W        W38163  10.207   0.455  14.424
65739W        W38164   6.355  40.598   1.382
65740W        W38165  21.591  13.597   0.990
65741W        W38166   5.174  24.559   4.541
65742W        W38167  43.343  12.908  12.561
65743W        W38168  40.927  33.418  12.040
65744W        W38169  30.883  24.038   3.225
65745W        W38170  25.179  30.070  11.999
65746W        W38171  26.045  13.405  14.525
65747W        W38172  29.910  37.134  14.688
65748W        W38173  43.053   1.056   3.724
65749W        W38174   9.272   4.286  10.520
65750W        W38175  30.874  25.208  14.552
65751W        W38176   9.650  39.079   3.354
65752W        W38177  40.116  29.856   1.901
65753W        W38178  33.629  16.614   3.098
65754W        W38179  38.033  44.716  11.466
65755W        W38180  36.353  36.273  14.418
65756W        W38181  38.329   0.024   4.124
65757W        W38182  12.348  14.254  10.707
65758W        W38183  33.542   4.851   0.209
65759W        W38184  37.215  24.719  10.096
65760W        W38185  34.942   3.178   3.676
65761W        W38186  36.502  32.410  10.951
65762W        W38187   8.909  18.889   1.288
65763W        W38188  25.493   2.222   3.721
65764W        W38189  34.883  20.820   0.553
65765W        W38190   6.760   4.288   3.052
65766W        W38191  24.704   7.261   4.090
65767W        W38192  37.459  14.195   2.607
65768W        W38193  39.054  29.352  11.618
65769W        W38194  44.291  24.458  10.194
65770W        W38195  35.792   2.973   3.660
65771W        W38196  28.826   0.061   2.872
65772W        W38197  35.033  42.521  12.540
65773W        W38198  14.512  29.190   4.542
65774W        W38199  20.203  42.960  12.370
65775W        W38200  26.280  25.743  12.969
65776W        W38201   4.252  16.461   4.085
65777W        W38202   5.357  30.464  13.424
65778W        W38203  36.528  44.206  13.909
65779W        W38204   9.003   5.317   1.689
65780W        W38205  24.544  44.370  11.379
65781W        W38206  43.826  44.911   0.153
65782W        W38207  42.496  25.600  12.499
65783W        W38208  40.484  28.881  10.786
65784W        W38209  23.340   5.285   2.271
65785W        W38210  25.667  21.283  14.744
65786W        W38211  42.820   2.127   1.899
65787W        W38212  23.702  23.147  10.901
65788W        W38213  12.303  34.421   4.596
65789W        W38214  23.618  43.235   2.795
65790W        W38215  32.056  11.265   4.058
65791W        W38216  29.862  27.538   1.319
65792W        W38217  15.996  35.311  13.441
65793W        W38218  10.642  39.839  13.031
65794W        W38219  27.776  12.030  14.791
65795W        W38220  25.677  14.245   4.458
65796W        W38221  38.263  23.543  12.383
65797W        W38222   2.155  28.130  14.420
65798W        W38223  28.859  28.632   3.307
65799W        W38224  16.693  35.348   1.672
65800W        W38225  32.901  26.841  13.516
65801W        W38226  29.329   6.773   2.930
65802W        W38227   8.949  36.817  13.883
65803W        W38228  12.686  13.189   3.149
65804W        W38229   7.282   4.613  13.546
65805W        W38230   2.280   2.042   0.743
65806W        W38231  32.378  14.887   4.843
65807W        W38232  29.084  39.190  11.491
65808W        W38233  33.462  10.577  12.929
65809W        W38234   3.318  40.778  14.770
65810W        W38235  23.328  10.590  10.996
65811W        W38236  24.250   6.181   3.473
65812W        W38237  15.668  17.906  10.371
65813W        W38238  37.332  22.754  11.005
65814W        W38239  32.734  28.019   2.290
65815W        W38240  17.855  22.623   4.637
65816W        W38241  37.130  26.624   4.315
65817W        W38242  20.148  37.181   2.114
65818W        W38243  34.024  11.632  10.273
65819W        W38244  37.807  12.668   0.765
65820W        W38245  24.207  31.298   4.415
65821W        W38246  26.006  37.330   2.701
65822W        W38247  15.015  35.514  10.699
65823W        W38248   7.286   2.151   0.965
65824W        W38249   0.737   7.743   4.543
65825W        W38250  22.005  27.064  11.517
65826W        W38251  31.941   1.320  14.135
65827W        W38252  28.065   1.806   0.962
65828W        W38253  24.449  24.425   3.251
65829W        W38254  18.703   0.090  12.043
65830W        W38255  21.821  30.165   0.435
65831W        W38256  25.593  33.162   3.633
65832W        W38257  19.022   4.293  13.723
65833W        W38258  29.659  19.236   2.315
65834W        W38259  36.322  35.559  10.534
65835W        W38260  44.164  21.796  11.149
65836W        W38261  38.375  15.113   3.299
65837W        W38262  26.195  20.075  11.651
65838W        W38263  19.173  30.033   0.328
65839W        W38264  28.115  32.081  10.297
65840W        W38265  29.876   0.404   1.340
65841W        W38266  16.720  11.838   2.898
65842W        W38267  25.015  41.517   1.733
65843W        W38268  41.356   0.863   4.736
65844W        W38269  28.515  18.144  14.216
65845W        W38270  11.614   6.812  13.500
65846W        W38271  33.930  29.817   0.478
65847W        W38272  33.925  10.076   4.080
65848W        W38273  31.363  14.706   3.344
65849W        W38274  20.527  19.535  11.856
65850W        W38275  17.576  36.445   2.329
65851W        W38276  21.162  44.597  11.990
65852W        W38277   7.833  36.564  13.375
65853W        W38278  26.623  34.016   0.695
65854W        W38279  18.588  36.944   4.222
65855W        W38280   0.763  18.609  12.644
65856W        W38281  32.361   7.919   1.016
65857W        W38282  41.980  40.812   0.060
65858W        W38283  14.392  21.693   1.405
65859W        W38284  38.545  31.336   3.227
65860W        W38285   6.279  12.225   0.313
65861W        W38286  23.439  42.983  11.130
65862W        W38287  24.741  23.606  10.808
65863W        W38288  23.691   6.661   0.784
65864W        W38289  37.914   9.441  11.077
65865W        W38290  26.981  44.034  12.721
65866W        W38291   6.890  19.222   0.839
65867W        W38292  36.959  17.020  12.594
65868W        W38293  14.147  22.557  10.857
65869W        W38294  22.516  40.240  14.899
65870W        W38295  15.280  36.707  13.588
65871W        W38296  24.945  19.613   2.742
65872W        W38297  10.687  10.477   3.337
65873W        W38298  38.082   3.936  10.620
65874W        W38299  43.415   1.856   2.740
65875W        W38300  20.810  10.407   0.688
65876W        W38301  32.601  16.733   0.718
65877W        W38302  15.359  24.110  14.302
65878W        W38303  30.863  12.158   3.251
65879W        W38304   7.605  22.126  11.435
65880W        W38305  14.735  34.849  12.882
65881W        W38306   7.980  21.017  14.243
65882W        W38307  22.107  15.362  11.938
65883W        W38308  23.524  12.503  12.018
65884W        W38309   2.905  41.264  13.117
65885W        W38310  27.964   0.879   2.478
65886W        W38311  32.553  26.955   2.131
65887W        W38312  13.176  27.485   4.417
65888W        W38313  15.700  32.144  13.541
65889W        W38314   7.778  20.871  10.985
65890W        W38315  13.320  16.548   3.385
65891W        W38316  12.622  27.047   0.856
65892W        W38317  29.823   3.623   5.132
65893W        W38318  44.869  43.249   3.666
65894W        W38319  18.034   7.201  13.908
65895W        W38320  16.296   3.161  12.531
65896W        W38321  11.601  23.586  14.460
65897W        W38322  40.849  15.523   0.564
65898W        W38323   7.371   5.033  14.896
65899W        W38324  23.088  41.882   3.825
65900W        W38325  12.095  14.748  13.992
65901W        W38326  28.860  25.168  13.418
65902W        W38327  38.585  13.697   2.398
65903W        W38328   4.857  37.829  13.400
65904W        W38329  32.349  37.980   3.723
65905W        W38330  27.957  41.857   0.619
65906W        W38331  16.195  22.395  14.028
65907W        W38332  16.490  40.070   3.705
65908W        W38333  40.474  44.561   1.364
65909W        W38334  36.755  39.739   1.487
65910W        W38335  38.905   9.323   4.620
65911W        W38336  32.161  30.585   4.146
65912W        W38337  22.303   1.894  14.080
65913W        W38338  10.774  34.881  10.733
65914W        W38339  34.421  41.906   3.673
65915W        W38340  14.895   1.583   4.874
65916W        W38341  36.111   2.101   3.736
65917W        W38342  30.152   3.354   4.335
65918W        W38343  21.092   4.643   3.246
65919W        W38344  36.843  29.878  13.827
65920W        W38345  11.094  39.616   4.659
65921W        W38346  22.094  33.089   4.664
65922W        W38347  27.698  19.145  11.981
65923W        W38348  36.590  10.666   2.246
65924W        W38349  14.778   7.633   3.285
65925W        W38350  40.617  39.340  12.428
65926W        W38351  13.641  43.466  11.429
65927W        W38352  10.607  39.853  13.559
65928W        W38353   4.858  40.724   4.220
65929W        W38354  21.798   2.798  12.919
65930W        W38355  16.116  29.900   1.280
65931W        W38356  36.958  19.195  12.959
65932W        W38357  13.215   5.661   2.949
65933W        W38358  38.086  29.393  12.473
65934W        W38359   5.001  30.658  13.765
65935W        W38360  36.326  33.020   1.177
65936W        W38361  19.358  36.612  14.488
65937W        W38362   8.937  17.186   0.281
65938W        W38363   5.311  23.943  11.877
65939W        W38364  37.633   6.312   3.261
65940W        W38365  32.520  30.942   1.446
65941W        W38366   8.198  14.797   2.716
65942W        W38367  40.737  26.780  12.373
65943W        W38368  38.599  18.736  13.840
65944W        W38369   8.680  16.572   0.770
65945W        W38370   5.724  44.068  11.536
65946W        W38371  27.504   5.956  14.413
65947W        W38372  15.798   8.811  13.064
65948W        W38373  24.751  33.916  13.505
65949W        W38374   0.424   6.891  14.281
65950W        W38375  28.534  27.527  11.133
65951W        W38376  15.084   8.265  11.377
65952W        W38377  19.170  18.195   4.527
65953W        W38378  36.392  42.367  11.179
65954W        W38379  25.668  26.727  11.901
65955W        W38380  26.216  11.338  10.613
65956W        W38381   5.726  13.632  14.350
65957W        W38382   0.409   2.694   0.427
65958W        W38383  38.335  18.901   2.425
65959W        W38384  43.957  17.123   0.833
65960W        W38385  16.605  32.258   3.596
65961W        W38386  10.899  44.762   3.343
65962W        W38387  33.840  40.869  13.590
65963W        W38388   1.186  29.162  13.520
65964W        W38389  23.115  23.671  13.520
65965W        W38390  10.980  42.392  13.867
65966W        W38391  15.755  40.214  13.426
65967W        W38392  38.015  26.588   3.175
65968W        W38393   0.802  17.319  11.079
65969W        W38394  12.338   1.288  14.991
65970W        W38395   1.460   5.729  11.500
65971W        W38396  43.352  36.229  11.216
65972W        W38397  37.807   8.690   4.070
65973W        W38398   7.616  27.475  12.437
65974W        W38399  27.520  35.346   0.448
65975W        W38400  13.566  28.449   2.333
65976W        W38401  28.944  24.925   2.783
65977W        W38402  36.429   9.832   1.405
65978W        W38403  18.592  31.874  13.823
65979W        W38404  18.308  16.850   3.287
65980W        W38405  15.146  19.368   3.412
65981W        W38406   3.865  40.480   3.192
65982W        W38407  40.908  31.476   1.423
65983W        W38408   6.848   5.978  14.808
65984W        W38409  24.483  40.314  11.194
65985W        W38410   6.359  37.074   3.977
65986W        W38411  30.394  28.972   2.752
65987W        W38412   8.215   0.428  10.706
65988W        W38413  26.054   1.465  10.631
65989W        W38414  37.049  18.577   4.530
65990W        W38415  30.104  13.711   0.290
65991W        W38416  30.546  36.567   2.751
65992W        W38417   5.065  10.159  13.550
65993W        W38418  28.520  34.406   0.551
65994W        W38419  44.026  20.667  14.938
65995W        W38420  41.341  31.004   0.787
65996W        W38421  20.004  31.525   0.499
65997W        W38422  33.302  15.983  10.805
65998W        W38423   2.878  40.211  10.613
65999W        W38424   5.840  21.710  14.255
66000W        W38425   1.492  37.440   0.318
66001W        W38426  25.460  35.825   4.988
66002W        W38427  35.366  36.859  12.513
66003W        W38428   0.196   4.740   3.770
66004W        W38429  42.935  35.807   0.076
66005W        W38430  29.881  41.591  12.561
66006W        W38431  40.487  15.871  12.032
66007W        W38432  23.216  42.293   2.357
66008W        W38433  35.513   3.003   0.636
66009W        W38434  10.725  44.993   0.505
66010W        W38435   1.312   3.185  13.832
66011W        W38436  40.817  34.526   4.615
66012W        W38437   7.330  14.815  12.042
66013W        W38438  17.161  42.593   1.683
66014W        W38439  20.433   4.689  10.717
66015W        W38440   8.834  43.184   3.679
66016W        W38441   9.746  26.207  14.085
66017W        W38442  33.518  35.682  12.158
66018W        W38443  27.405  19.687  10.605
66019W        W38444  36.155  41.519   4.719
66020W        W38445  29.645  17.479  12.890
66021W        W38446   1.719  20.717   3.730
66022W        W38447  14.051  28.210   3.338
66023W        W38448  36.114  28.640  12.855
66024W        W38449  35.706   2.308  12.169
66025W        W38450  34.076  13.178  14.337
66026W        W38451  10.842  44.736  11.009
66027W        W38452   9.797   1.648   2.699
66028W        W38453  44.961   6.474  13.629
66029W        W38454   1.329  39.740  12.544
66030W        W38455  42.464  44.817  11.077
66031W        W38456  29.212  35.821  11.286
66032W        W38457   6.116  42.860   4.231
66033W        W38458   3.650  24.940  10.978
66034W        W38459  32.252  38.515   2.647
66035W        W38460  41.432   8.662   3.137
66036W        W38461   4.138   2.896  14.811
66037W        W38462  39.608  38.063  14.509
66038W        W38463  44.274  42.048   3.698
66039W        W38464  31.017  43.318   0.917
66040W        W38465  38.109   9.685   0.961
66041W        W38466  44.939  14.087   2.731
66042W        W38467   1.605  17.345  11.764
66043W        W38468  30.968  15.308  13.544
66044W        W38469  13.864  10.835   1.929
66045W        W38470  26.189  16.181   3.736
66046W        W38471  11.220   7.117  11.859
66047W        W38472  39.831   6.226   2.392
66048W        W38473  15.059  27.864  11.036
66049W        W38474  27.998  19.561  13.556
66050W        W38475  24.672  10.446  12.892
66051W        W38476  24.998  18.817  13.277
66052W        W38477  10.770  20.489   0.447
66053W        W38478   9.263  28.911   4.882
66054W        W38479   0.406   8.363  14.283
66055W        W38480  32.961  30.533  12.304
66056W        W38481  11.489  11.015   4.554
66057W        W38482  41.927  21.470  12.115
66058W        W38483  35.285   5.954   3.297
66059W        W38484   4.436  24.198  14.156
66060W        W38485   1.674  35.403  12.854
66061W        W38486   4.112  13.294   1.098
66062W        W38487   0.809  25.978   4.273
66063W        W38488  44.388  29.307   4.702
66064W        W38489  10.572  13.315   1.747
66065W        W38490  28.810  10.713   3.495
66066W        W38491  41.391  14.100   2.292
66067W        W38492  21.196  10.217  13.440
66068W        W38493   4.332   1.430  12.957
66069W        W38494  20.576  34.127   0.808
66070W        W38495  25.752  30.691  14.378
66071W        W38496  31.637  36.471   1.340
66072W        W38497  43.956  29.629   3.947
66073W        W38498  31.499  20.221  13.001
66074W        W38499  10.101  42.385  11.425
66075W        W38500   9.864  14.948  13.460
66076W        W38501  32.220   6.682   2.750
66077W        W38502  13.602  40.432  11.410
66078W        W38503  37.925  33.377  12.902
66079W        W38504  18.080  11.717  13.401
66080W        W38505   2.248  12.851  14.996
66081W        W38506  30.084  31.927   3.284
66082W        W38507  31.528  10.577  14.825
66083W        W38508  24.663  23.294   0.316
66084W        W38509  34.077  41.434   4.753
66085W        W38510  14.632  12.416  10.571
66086W        W38511  32.517  30.433   1.203
66087W        W38512  11.341   9.745  13.373
66088W        W38513  11.798  19.703  12.594
66089W        W38514  17.469  10.347   3.675
66090W        W38515  31.425  11.534   4.199
66091W        W38516   1.456   2.756   2.272
66092W        W38517  10.712  42.460   1.773
66093W        W38518  43.069   9.384  10.660
66094W        W38519  35.170   5.425  13.835
66095W        W38520  37.848  40.721   4.023
66096W        W38521  33.396  14.788   4.093
66097W        W38522   5.436  30.597  14.023
66098W        W38523  18.362   1.586  14.457
66099W        W38524  35.444  27.190   1.776
66100W        W38525   4.221  10.578  14.568
66101W        W38526  35.972  19.846   3.583
66102W        W38527  21.607   9.804  13.005
66103W        W38528  30.872  26.656   0.256
66104W        W38529  13.099  36.807  13.477
66105W        W38530  29.687  34.541  13.919
66106W        W38531  11.678  34.389  13.555
66107W        W38532   5.420  40.489  10.574
66108W        W38533  12.279   0.216   3.694
66109W        W38534  18.972   4.796  14.445
66110W        W38535  10.587  20.578  13.005
66111W        W38536  44.172  37.144   3.364
66112W        W38537  27.257  27.116   0.281
66113W        W38538  44.661  37.864  12.944
66114W        W38539  14.403  25.235  13.490
66115W        W38540  31.655  37.275   0.153
66116W        W38541  13.745  33.839   0.778
66117W        W38542  14.691  18.007   0.427
66118W        W38543  44.416  17.687   4.826
66119W        W38544  22.429  42.774  11.538
66120W        W38545  38.110  10.562   3.266
66121W        W38546  12.590  21.806  11.548
66122W        W38547  31.753  12.715   0.987
66123W        W38548  26.587  40.189   3.266
66124W        W38549  10.686   6.246  12.390
66125W        W38550  43.301  26.800  11.119
66126W        W38551  19.831  37.371  10.619
66127W        W38552  30.407  17.071  13.572
66128W        W38553  14.270  15.933  11.202
66129W        W38554  42.725  42.001  14.716
66130W        W38555  22.533  38.615  12.598
66131W        W38556  41.992   9.348  13.895
66132W        W38557  35.151  33.551  13.641
66133W        W38558  25.628  18.858   2.952
66134W        W38559  11.624  39.001  13.402
66135W        W38560   1.438  27.068   4.635
66136W        W38561  19.667   1.815   4.572
66137W        W38562  12.326   4.719   3.424
66138W        W38563  24.201  34.928   2.225
66139W        W38564  15.190  13.647   4.809
66140W        W38565  25.568  26.030   1.376
66141W        W38566  44.950  16.387   4.044
66142W        W38567  29.334  33.029   3.318
66143W        W38568  41.460  29.576   3.547
66144W        W38569  34.833   4.451   1.093
66145W        W38570  22.465  21.359   9.826
66146W        W38571   8.892  12.015   1.841
66147W        W38572  20.827  10.317   2.798
66148W        W38573  37.864  44.122  10.259
66149W        W38574   9.479  37.768   0.290
66150W        W38575  29.444   2.366  12.085
66151W        W38576  14.070  43.352  11.717
66152W        W38577  14.333  34.554  11.642
66153W        W38578  12.646  18.570   2.781
66154W        W38579  38.576  37.577   4.098
66155W        W38580  35.053   7.974   4.045
66156W        W38581  16.681  44.244  13.145
66157W        W38582   8.293  42.127   1.759
66158W        W38583  39.552  43.292   0.388
66159W        W38584  42.328  42.583  13.164
66160W        W38585  43.420  19.885   1.350
66161W        W38586  29.681  10.236   0.306
66162W        W38587  41.542  11.556   4.213
66163W        W38588   8.441  31.970  12.504
66164W        W38589  43.238  24.549  11.607
66165W        W38590  34.025  13.200  13.060
66166W        W38591  11.165   2.468   1.810
66167W        W38592  31.121  28.892   4.614
66168W        W38593  37.098  20.952   3.762
66169W        W38594  32.951  17.284  12.990
66170W        W38595  32.388   7.895  12.950
66171W        W38596  31.922  41.284  11.886
66172W        W38597  16.346  21.104   1.271
66173W        W38598  22.632  30.909  10.697
66174W        W38599  13.199  35.040  10.631
66175W        W38600  20.222   3.661   1.229
66176W        W38601  39.943  39.909   0.038
66177W        W38602  26.647  14.186   3.865
66178W        W38603  19.173  42.537  14.769
66179W        W38604  41.498  29.526  10.779
66180W        W38605  38.111  38.871   2.203
66181W        W38606  29.486   3.425  13.523
66182W        W38607  15.680   3.869  14.898
66183W        W38608  35.445  18.609   3.953
66184W        W38609  16.847   4.768  11.537
66185W        W38610  22.602   7.826   0.350
66186W        W38611  37.161  40.827   2.657
66187W        W38612  21.750  31.981  13.994
66188W        W38613  38.914  20.345  12.054
66189W        W38614  32.688  30.485   1.703
66190W        W38615  27.116  19.509  10.982
66191W        W38616  27.506  41.266   2.435
66192W        W38617  14.437  17.689   0.068
66193W        W38618  39.151   4.441   1.184
66194W        W38619  22.074  37.241   3.674
66195W        W38620  29.519  37.939  12.531
66196W        W38621   3.335   0.718   5.136
66197W        W38622  43.573   3.685  11.820
66198W        W38623   8.359  39.291   3.683
66199W        W38624  21.220  12.597  12.960
66200W        W38625  37.405  31.624   0.758
66201W        W38626  30.632  43.548   2.651
66202W        W38627  43.959  16.747  10.925
66203W        W38628  34.074   9.775   1.195
66204W        W38629  14.459  33.861  12.900
66205W        W38630   4.318   1.724   1.842
66206W        W38631  41.037  34.683  12.827
66207W        W38632  29.660  23.099   1.325
66208W        W38633  23.622  26.020   0.391
66209W        W38634   1.011  37.318  14.051
66210W        W38635  22.030  37.899  11.801
66211W        W38636   3.020   4.934  11.967
66212W        W38637  24.846  18.031  11.673
66213W        W38638  43.251  38.678  11.512
66214W        W38639  17.550   7.740  11.541
66215W        W38640  10.259  22.599   5.090
66216W        W38641  26.529  28.443   4.924
66217W        W38642  27.745  19.679  14.788
66218W        W38643  19.115  16.897   4.639
66219W        W38644  14.244   4.963  14.700
66220W        W38645  41.557  42.100   2.713
66221W        W38646  22.058  42.011   1.736
66222W        W38647  26.736  25.276  12.930
66223W        W38648  13.375  32.097  13.925
66224W        W38649  18.089  13.684  11.563
66225W        W38650  12.219  42.414   4.623
66226W        W38651  10.348  24.654   0.047
66227W        W38652  26.803   3.745  11.198
66228W        W38653  26.504  36.929   5.355
66229W        W38654  22.595  20.026   4.152
66230W        W38655   6.354   5.606  10.668
66231W        W38656  36.345  40.998   4.676
66232W        W38657  29.594   6.479   2.586
66233W        W38658  23.226  40.058   3.324
66234W        W38659  21.240  43.504  13.696
66235W        W38660  22.004  23.037   3.219
66236W        W38661   6.993  38.029  11.934
66237W        W38662  17.695  11.893   0.735
66238W        W38663  17.257  25.516  12.289
66239W        W38664  24.756  25.736   4.209
66240W        W38665  20.458  32.642  14.075
66241W        W38666   3.316  34.085   1.699
66242W        W38667  40.114  26.409   3.661
66243W        W38668  30.555  18.694  13.919
66244W        W38669   7.902   0.943   4.703
66245W        W38670   2.159  24.895   2.621
66246W        W38671   4.308   6.455  13.074
66247W        W38672   5.827  28.141   1.961
66248W        W38673  37.993   2.905   4.912
66249W        W38674  25.059  32.401  13.879
66250W        W38675  42.239  40.372   2.786
66251W        W38676  37.507  36.857   2.727
66252W        W38677  41.815  38.008  13.333
66253W        W38678  33.275  30.926  11.058
66254W        W38679  23.230  22.766  13.148
66255W        W38680   5.146  26.543   1.944
66256W        W38681  33.804  28.040  14.796
66257W        W38682  28.917  43.803   3.780
66258W        W38683  32.829   8.925   2.623
66259W        W38684  23.228  16.667  14.429
66260W        W38685   2.850  35.108  13.945
66261W        W38686   3.604  20.493   2.377
66262W        W38687  32.777  41.785  13.999
66263W        W38688  28.600  17.187  14.809
66264W        W38689  26.444  31.287  12.565
66265W        W38690  19.505  14.711  14.382
66266W        W38691  31.620  36.021   4.055
66267W        W38692  13.456  11.342  14.494
66268W        W38693  16.433  35.935   4.580
66269W        W38694  14.713  29.713   1.422
66270W        W38695  15.080  18.850   2.687
66271W        W38696  13.928   3.270  14.968
66272W        W38697  29.142  12.569   2.227
66273W        W38698  21.275   3.853   4.185
66274W        W38699   7.778  37.980  14.718
66275W        W38700  43.945  25.127   1.182
66276W        W38701  26.988   6.362   4.388
66277W        W38702   2.789  18.387  13.431
66278W        W38703  29.048  25.467   1.750
66279W        W38704  20.734  34.162   3.141
66280W        W38705  23.455  19.701   0.393
66281W        W38706  34.653   3.203   1.039
66282W        W38707  17.684   9.601  12.024
66283W        W38708  41.951   9.585  12.028
66284W        W38709  38.094  34.949  11.606
66285W        W38710  31.531  38.048   0.531
66286W        W38711  26.558  44.643  10.747
66287W        W38712  11.263  21.848  12.004
66288W        W38713   5.021   1.760   0.195
66289W        W38714  44.310  44.051  13.530
66290W        W38715   9.231   9.356  13.987
66291W        W38716  42.495   7.830  12.873
66292W        W38717  25.686   9.447   4.707
66293W        W38718   8.960   0.763   5.115
66294W        W38719  17.220   3.148  12.548
66295W        W38720  18.287  28.376  13.894
66296W        W38721  13.114   7.773  13.316
66297W        W38722  23.087  38.706   3.613
66298W        W38723   2.405  19.480  14.544
66299W        W38724  19.120  19.605   4.148
66300W        W38725  34.411   5.654  13.483
66301W        W38726  29.638  43.049  13.784
66302W        W38727  26.517  37.237  14.412
66303W        W38728  12.612  11.759   1.333
66304W        W38729  10.137  33.335  12.184
66305W        W38730  24.603  44.758   2.276
66306W        W38731  28.595  38.775   2.759
66307W        W38732  26.953  41.318   4.733
66308W        W38733   6.908  14.834  14.889
66309W        W38734   9.455  29.046   1.442
66310W        W38735  31.082  19.993   2.288
66311W        W38736  17.593  33.336  10.920
66312W        W38737  10.224  18.776  13.007
66313W        W38738   0.475   5.919  12.958
66314W        W38739  27.066  15.294  11.016
66315W        W38740  38.323  11.308   2.768
66316W        W38741  21.349  24.440  11.034
66317W        W38742   9.187   1.753  13.844
66318W        W38743  24.227  16.957  12.133
66319W        W38744  21.238  11.705   0.868
66320W        W38745  14.793   2.357   0.557
66321W        W38746  28.231  39.520   3.706
66322W        W38747  33.678   8.242   4.407
66323W        W38748  14.763  28.624   0.281
66324W        W38749  39.142  35.244   0.420
66325W        W38750  22.515  10.478   2.363
66326W        W38751  42.575   8.743  12.769
66327W        W38752  43.941  27.331  14.481
66328W        W38753  33.050  19.118   2.903
66329W        W38754  44.895  36.654   3.897
66330W        W38755  16.159   6.616  13.496
66331W        W38756  44.409  39.645   0.722
66332W        W38757   5.841   7.322  10.672
66333W        W38758  35.089  23.692   2.742
66334W        W38759  42.516  26.465   3.495
66335W        W38760  34.539  40.559  13.813
66336W        W38761  35.704  43.297  12.896
66337W        W38762   3.307  34.360   3.217
66338W        W38763  26.748  34.559  10.065
66339W        W38764  19.969  12.686   0.542
66340W        W38765  38.755   4.894  11.100
66341W        W38766  40.780   7.817   3.182
66342W        W38767  24.434  10.879  14.512
66343W        W38768  34.838  41.915  14.709
66344W        W38769   5.133  23.672   2.200
66345W        W38770   8.591  24.639   4.305
66346W        W38771  34.369  36.953   4.050
66347W        W38772  32.817   2.797  12.726
66348W        W38773  36.081  41.498  11.023
66349W        W38774  15.526   2.976   4.211
66350W        W38775  41.608  29.902  11.138
66351W        W38776  28.090  39.579   1.794
66352W        W38777  21.674  29.945   4.653
66353W        W38778   0.436  14.802  13.110
66354W        W38779   2.348  15.322   1.426
66355W        W38780  17.142   0.050  11.512
66356W        W38781   8.622  12.238  11.496
66357W        W38782  40.481  28.691   0.720
66358W        W38783  21.491  25.648  14.473
66359W        W38784  23.107  14.597   4.055
66360W        W38785  26.770  43.945   4.027
66361W        W38786  25.860  34.193  14.304
66362W        W38787  25.541  22.544   0.845
66363W        W38788  12.612  43.692   5.067
66364W        W38789  37.073  41.033  14.939
66365W        W38790  14.768  26.943  11.904
66366W        W38791   2.940  26.628   3.741
66367W        W38792   9.529  24.619   0.652
66368W        W38793  19.008  25.578   3.251
66369W        W38794  11.614  10.326  11.848
66370W        W38795   9.349   6.179  13.480
66371W        W38796  16.073  15.041  12.842
66372W        W38797  13.667  17.088  13.125
66373W        W38798  21.921   2.467  14.859
66374W        W38799  16.246  26.924   0.348
66375W        W38800  32.149  11.824   3.238
66376W        W38801   7.660  22.161   3.333
66377W        W38802  26.436  31.193   0.845
66378W        W38803   3.804  10.591  11.929
66379W        W38804  19.978   5.755  11.903
66380W        W38805  17.274  40.741   1.226
66381W        W38806   6.771   8.824   2.182
66382W        W38807   5.271  14.483  13.935
66383W        W38808  34.418  26.292  12.475
66384W        W38809  20.693  27.212  10.965
66385W        W38810  34.498  24.141  11.129
66386W        W38811  22.028  23.681   1.154
66387W        W38812  30.060   6.117  13.417
66388W        W38813  10.799  43.838   3.345
66389W        W38814  30.387   1.518   1.482
66390W        W38815  24.583  40.449   2.693
66391W        W38816   1.515   7.827   1.346
66392W        W38817  27.972   9.644  12.054
66393W        W38818   5.364   3.010  11.364
66394W        W38819  30.302  17.191   4.149
66395W        W38820  32.078  34.710   1.350
66396W        W38821  35.561  18.621  13.897
66397W        W38822  20.828  43.786   4.518
66398W        W38823  26.038   9.493  11.572
66399W        W38824  25.683  28.902   3.418
66400W        W38825   8.309  18.287  14.322
66401W        W38826   8.604  30.451   4.180
66402W        W38827  13.807  17.048  14.592
66403W        W38828  26.275  30.793   1.308
66404W        W38829   8.887   6.894  12.517
66405W        W38830  31.441  14.620  10.593
66406W        W38831   8.969   5.874  14.973
66407W        W38832  22.185  42.299   3.102
66408W        W38833   4.996  37.981  11.190
66409W        W38834   7.847  36.966   1.447
66410W        W38835  27.858  34.699  10.226
66411W        W38836  35.136  31.104  11.417
66412W        W38837  15.469  42.986  11.571
66413W        W38838  39.121  16.574  13.944
66414W        W38839  31.822   6.839   1.133
66415W        W38840   6.219  25.480  14.982
66416W        W38841  21.413  17.922  10.112
66417W        W38842  33.558  27.602   3.937
66418W        W38843   2.752  31.535   2.642
66419W        W38844   4.555  36.704   2.438
66420W        W38845  25.229  35.520  13.509
66421W        W38846  13.560  29.645   0.787
66422W        W38847   4.301  19.349  14.311
66423W        W38848  22.804  19.240  10.260
66424W        W38849   4.971  27.343   1.323
66425W        W38850  34.817   8.362   3.329
66426W        W38851  22.763  13.285  10.711
66427W        W38852  23.499   0.868  12.561
66428W        W38853   9.086  32.479   0.921
66429W        W38854  33.952  10.009   0.706
66430W        W38855  35.681   2.509  14.413
66431W        W38856   0.741  12.829   4.501
66432W        W38857  11.570  26.487  13.982
66433W        W38858  36.648  14.084   0.869
66434W        W38859  11.873  40.974   2.348
66435W        W38860   7.835  38.098  14.190
66436W        W38861  35.831  44.291  13.538
66437W        W38862  29.637  37.435   3.631
66438W        W38863   3.037  42.760   0.209
66439W        W38864  37.966  31.678   1.332
66440W        W38865  15.579  37.943  14.925
66441W        W38866  25.443   6.460  12.535
66442W        W38867  40.392  25.578   0.333
66443W        W38868  36.975  16.545   0.001
66444W        W38869  17.859   7.959  14.880
66445W        W38870   4.068  29.972  13.260
66446W        W38871  12.582  26.082  11.572
66447W        W38872  42.884  27.791   1.545
66448W        W38873  44.732  39.840   4.770
66449W        W38874  12.637  12.839   0.293
66450W        W38875  19.619  42.403   0.065
66451W        W38876  34.403  40.343  11.968
66452W        W38877  26.994  32.175  11.489
66453W        W38878  21.175  18.089  13.888
66454W        W38879  25.441  38.605  12.854
66455W        W38880   6.276  26.820  11.091
66456W        W38881  23.150  14.806   3.579
66457W        W38882  31.193  26.970  12.501
66458W        W38883  34.909   8.940  13.379
66459W        W38884   7.790  28.412   0.713
66460W        W38885  12.276  13.480   1.144
66461W        W38886  10.756  12.772   3.557
66462W        W38887  25.750  38.352   1.718
66463W        W38888   3.466  16.194   4.552
66464W        W38889  42.953  24.994  12.528
66465W        W38890  43.991  28.981  12.134
66466W        W38891  22.256   5.707   0.658
66467W        W38892  33.402  31.342  12.546
66468W        W38893   3.899  25.723  10.164
66469W        W38894  36.100  27.899  14.843
66470W        W38895  34.967  24.133   4.275
66471W        W38896  27.205   6.066   1.986
66472W        W38897  20.989  12.166  12.739
66473W        W38898  39.307  17.030   4.043
66474W        W38899  25.769  25.652   4.849
66475W        W38900  36.615  42.317  10.692
66476W        W38901   6.313  31.132  14.627
66477W        W38902  34.012   7.798   1.338
66478W        W38903  33.295  21.282   5.096
66479W        W38904  19.177   5.978  12.492
66480W        W38905  16.056  19.640  12.666
66481W        W38906  25.513   2.979  12.611
66482W        W38907  25.250  23.668  10.796
66483W        W38908  42.409  12.727  14.050
66484W        W38909   8.089  19.108   3.284
66485W        W38910   8.064  19.744   3.745
66486W        W38911  23.562  44.570   3.995
66487W        W38912  18.705   6.987  14.449
66488W        W38913  22.702  25.457   2.204
66489W        W38914  35.837  24.777  10.504
66490W        W38915   3.211  13.706  12.093
66491W        W38916  19.096  31.654   0.373
66492W        W38917  14.138  34.983   3.231
66493W        W38918   8.978  35.118   5.162
66494W        W38919  20.598  25.622  11.075
66495W        W38920  23.005  26.218  12.472
66496W        W38921   2.682   5.898   2.751
66497W        W38922  12.205  11.875  10.952
66498W        W38923  19.513   0.081  12.874
66499W        W38924  41.273  21.966   4.116
66500W        W38925   8.551   3.130  11.718
66501W        W38926  35.336  28.252  12.991
66502W        W38927  11.319  10.619  14.446
66503W        W38928  16.247  40.107   0.916
66504W        W38929  13.137  16.877  14.409
66505W        W38930  18.338  41.612   3.730
66506W        W38931  42.844  19.707   2.645
66507W        W38932  42.165  15.035  13.792
66508W        W38933  25.224  10.854   3.496
66509W        W38934  30.144  34.031   4.373
66510W        W38935  15.274  10.333  11.873
66511W        W38936  11.818   4.494   3.236
66512W        W38937  43.834   8.225  14.030
66513W        W38938   3.045  17.993   1.634
66514W        W38939  18.136  42.485   4.937
66515W        W38940  24.425  21.181   3.212
66516W        W38941  38.290  16.385   2.775
66517W        W38942  22.552  23.172  10.628
66518W        W38943  38.612  33.588  14.550
66519W        W38944  17.663  33.349  11.442
66520W        W38945   8.193   5.447  13.951
66521W        W38946  33.427   4.624   4.205
66522W        W38947  40.556  42.883   2.753
66523W        W38948   1.033  13.253   4.503
66524W        W38949  23.200  12.360  10.228
66525W        W38950  16.576  16.025  11.986
66526W        W38951  13.209  35.389   3.806
66527W        W38952  15.807  35.522   2.417
66528W        W38953  22.163  40.293  10.638
66529W        W38954  15.844  11.801   0.821
66530W        W38955  16.767  14.789   3.945
66531W        W38956   5.614  38.859  14.272
66532W        W38957   3.601  20.313   1.451
66533W        W38958  17.469  30.542   0.965
66534W        W38959  16.247  35.595  13.060
66535W        W38960  21.639  38.125   2.353
66536W        W38961  19.776   2.285  10.755
66537W        W38962  16.962  38.729  10.240
66538W        W38963  26.713   7.279  13.059
66539W        W38964  17.083  37.500  14.158
66540W        W38965  42.003  30.502   0.271
66541W        W38966  40.405  19.674  10.699
66542W        W38967  44.384   1.053   3.677
66543W        W38968   9.081  20.713  10.274
66544W        W38969  37.385  29.049   1.352
66545W        W38970  16.137  21.591  13.103
66546W        W38971  25.206  24.955   0.020
66547W        W38972  22.487  36.418  14.582
66548W        W38973  19.360  26.349   0.070
66549W        W38974  19.976  39.963   2.742
66550W        W38975   1.284  19.619   3.745
66551W        W38976  26.700  41.745   1.052
66552W        W38977  38.335  36.656   4.585
66553W        W38978  20.610  39.566  13.313
66554W        W38979  43.392  17.293   2.074
66555W        W38980   6.678  16.045   0.507
66556W        W38981   8.502   7.341   4.146
66557W        W38982  32.128  41.395  13.547
66558W        W38983  10.749  15.838  12.938
66559W        W38984  27.879  16.857  11.907
66560W        W38985   8.480  19.748   1.173
66561W        W38986  42.507  42.918   2.143
66562W        W38987   4.899  28.432   3.753
66563W        W38988  17.581  13.298   0.166
66564W        W38989   2.128   6.013   2.771
66565W        W38990  44.956  40.277  13.850
66566W        W38991  14.673   7.028  10.596
66567W        W38992  32.542  36.608  11.059
66568W        W38993  39.983  22.134  14.836
66569W        W38994  10.880  13.161  13.075
66570W        W38995  39.559  14.189  13.024
66571W        W38996  27.070  44.820   1.818
66572W        W38997  22.529  25.782   3.356
66573W        W38998  14.670  35.896   0.678
66574W        W38999   6.932  29.705   3.697
66575W        W39000  10.329  33.574   0.444
66576W        W39001  25.154   7.858   4.701
66577W        W39002  23.684  20.042   2.756
66578W        W39003  26.538  22.169   4.368
66579W        W39004  39.892  19.203  11.245
66580W        W39005  42.368  13.668  10.536
66581W        W39006   0.334  25.454   1.262
66582W        W39007   4.135  34.993   3.277
66583W        W39008  29.539  35.329   3.869
66584W        W39009  10.643  23.307  14.289
66585W        W39010  18.816  13.285   4.567
66586W        W39011  41.555  20.640  12.516
66587W        W39012  15.197  19.279  11.557
66588W        W39013  31.615  21.120  12.470
66589W        W39014  44.475  10.826  10.986
66590W        W39015  38.451   0.246   1.686
66591W        W39016  16.684  12.054   2.123
66592W        W39017   4.504  19.549   4.237
66593W        W39018  31.012  36.772   0.679
66594W        W39019  20.656  44.902  10.964
66595W        W39020   7.808   7.329   9.811
66596W        W39021  35.881  28.532  13.645
66597W        W39022   8.746   6.588   2.675
66598W        W39023   4.929  27.475   4.079
66599W        W39024  40.303  38.585  14.888
66600W        W39025   9.495   8.024  12.610
66601W        W39026  14.077   0.912   2.852
66602W        W39027  36.367  20.941  13.846
66603W        W39028  29.494   3.297  14.083
66604W        W39029   9.697  44.875  11.947
66605W        W39030  27.181  22.788   1.423
66606W        W39031  27.932  28.653   4.291
66607W        W39032  13.215  31.614  12.460
66608W        W39033  20.878  11.799   5.014
66609W        W39034   0.294  10.135   0.029
66610W        W39035  41.363   6.235   2.734
66611W        W39036  18.891  21.583   0.836
66612W        W39037  26.177  34.685  10.558
66613W        W39038  27.262  36.023  12.886
66614W        W39039  17.268  18.676   4.129
66615W        W39040  12.580  18.789  11.309
66616W        W39041  14.636  32.381  11.800
66617W        W39042  25.218  20.609   1.909
66618W        W39043  28.965  31.535   0.788
66619W        W39044  40.731  38.120  13.089
66620W        W39045   0.878  38.661  13.072
66621W        W39046   7.961  33.483  12.658
66622W        W39047  38.078  43.269   1.668
66623W        W39048  19.993  29.602   4.958
66624W        W39049   9.369  38.072   3.981
66625W        W39050   4.218  21.257   4.347
66626W        W39051  29.994  24.989  11.486
66627W        W39052   8.177   9.915  11.482
66628W        W39053  34.268  16.281  13.452
66629W        W39054   6.441  36.860  14.203
66630W        W39055  35.151  24.524  11.354
66631W        W39056  15.591   1.250   4.174
66632W        W39057  12.521  39.031   4.968
66633W        W39058  35.413  32.778  12.543
66634W        W39059   1.308  37.526   2.274
66635W        W39060   6.791  13.643   2.243
66636W        W39061  33.405  33.970   3.168
66637W        W39062  37.495   8.110   0.343
66638W        W39063  30.037  44.992   4.330
66639W        W39064  17.203  23.140   0.569
66640W        W39065   0.248  23.186  11.158
66641W        W39066  42.236  31.373   2.634
66642W        W39067  22.839  17.667   2.820
66643W        W39068  28.620   7.437  12.509
66644W        W39069  17.218   3.486   1.916
66645W        W39070  36.882  11.457   4.750
66646W        W39071  30.717  18.518   5.456
66647W        W39072  21.060  39.362  14.213
66648W        W39073  26.170  36.370   3.123
66649W        W39074  27.632  42.021  11.988
66650W        W39075  24.463  28.059  14.373
66651W        W39076  35.373  11.201  14.352
66652W        W39077   0.212  16.049  12.072
66653W        W39078   1.784  18.793   3.716
66654W        W39079  27.457  28.586   0.481
66655W        W39080  29.857  38.544   3.251
66656W        W39081   4.339  11.062  14.401
66657W        W39082   2.740  33.912  14.565
66658W        W39083   3.502  40.064   3.737
66659W        W39084   7.376  39.934  11.391
66660W        W39085  17.021  15.824   3.182
66661W        W39086  23.729   1.926   4.500
66662W        W39087  30.682   3.269   3.633
66663W        W39088  28.608  12.386  14.535
66664W        W39089  44.609  10.358  10.783
66665W        W39090  44.369  32.441   1.859
66666W        W39091  10.162  18.216   1.206
66667W        W39092  13.935  18.065  13.897
66668W        W39093  39.440  22.158  13.953
66669W        W39094  11.486  30.027   2.634
66670W        W39095  21.632  37.689  12.093
66671W        W39096  27.059  28.547  12.981
66672W        W39097   8.883  35.191  12.483
66673W        W39098  24.907  34.477   3.455
66674W        W39099  19.258  41.861  12.924
66675W        W39100  21.092  42.368   1.812
66676W        W39101  31.029  13.824   2.709
66677W        W39102  30.511  27.094   0.722
66678W        W39103  40.629  20.647  13.444
66679W        W39104  39.332  25.681   4.663
66680W        W39105  14.185  17.537   2.677
66681W        W39106  28.695  12.529   3.876
66682W        W39107  25.748  24.940   3.059
66683W        W39108   8.919  13.086   3.585
66684W        W39109  43.765  40.414   1.844
66685W        W39110  35.906  41.127   4.409
66686W        W39111   0.343  42.993   3.193
66687W        W39112  15.325   6.787  12.344
66688W        W39113  32.441  35.827  11.821
66689W        W39114  25.596  41.267  11.442
66690W        W39115  18.230   4.882  13.806
66691W        W39116  15.089  38.994  13.259
66692W        W39117  14.687   8.618   4.291
66693W        W39118  34.119  37.086  10.649
66694W        W39119   8.955   9.221  10.328
66695W        W39120   6.186   5.003  14.393
66696W        W39121  41.860  43.621   5.509
66697W        W39122   1.330  14.129  14.976
66698W        W39123  14.696  22.211   4.309
66699W        W39124   4.227  12.286   2.531
66700W        W39125   2.589  35.834   5.047
66701W        W39126   3.296   2.504   4.042
66702W        W39127   4.372  33.977  11.112
66703W        W39128   3.817   4.513   0.880
66704W        W39129  12.668   5.127   0.479
66705W        W39130  28.899  42.682   3.668
66706W        W39131  22.516  20.313  12.439
66707W        W39132   9.591  37.544   2.605
66708W        W39133   8.984  16.718  13.860
66709W        W39134  14.554   1.568   0.566
66710W        W39135   5.754  38.317   1.810
66711W        W39136  19.203   0.886   0.849
66712W        W39137  18.160   4.436   3.186
66713W        W39138  32.531   3.352  11.570
66714W        W39139  34.012  37.264   3.309
66715W        W39140   2.950   3.945  13.096
66716W        W39141  12.218   5.770  14.263
66717W        W39142  38.987  38.148   3.583
66718W        W39143  19.710   1.599  14.246
66719W        W39144  28.526  38.801   0.385
66720W        W39145  42.795  42.535  12.961
66721W        W39146  38.840  22.020  10.310
66722W        W39147  23.174  17.974   4.029
66723W        W39148  26.559  31.892  11.656
66724W        W39149  12.775   7.479   2.268
66725W        W39150   9.115  26.072  12.101
66726W        W39151  18.824  20.690  14.880
66727W        W39152  40.772  27.775   4.083
66728W        W39153   2.652  20.830  14.546
66729W        W39154  42.788  40.455   5.088
66730W        W39155  12.377  36.528   1.324
66731W        W39156  39.875  41.167   0.424
66732W        W39157  35.572  15.295   3.062
66733W        W39158  26.024  41.581   4.487
66734W        W39159  22.702  44.430   1.877
66735W        W39160  17.704  10.854   4.424
66736W        W39161   6.709  30.994  14.907
66737W        W39162  25.923  22.128   2.249
66738W        W39163  25.745   0.345   4.824
66739W        W39164  28.136   0.364   0.469
66740W        W39165  26.543  44.316   0.802
66741W        W39166  21.808  43.704   0.091
66742W        W39167  25.557  26.215  11.526
66743W        W39168   7.248   2.726   1.609
66744W        W39169   9.883  14.677   1.211
66745W        W39170  24.201  18.884  14.266
66746W        W39171  14.865  29.976  10.710
66747W        W39172   5.738  32.945  14.930
66748W        W39173  14.922  32.530   3.733
66749W        W39174  32.164  22.636   4.658
66750W        W39175   9.422  18.366  10.668
66751W        W39176  17.569  28.171  13.527
66752W        W39177   8.212  14.487   0.877
66753W        W39178   8.930  18.048  14.947
66754W        W39179  39.844  22.003   3.544
66755W        W39180   6.437  24.206  12.874
66756W        W39181  20.286  13.898   5.114
66757W        W39182  26.451  10.234  14.329
66758W        W39183  28.368  42.879   5.087
66759W        W39184  42.325  10.621  13.303
66760W        W39185  27.448  32.061   4.593
66761W        W39186  33.608  26.631   3.715
66762W        W39187   8.606  41.473  13.783
66763W        W39188  18.679  44.170   1.906
66764W        W39189  23.993  15.527   0.997
66765W        W39190  26.937  26.375   0.792
66766W        W39191   9.657  29.448   2.340
66767W        W39192  17.792  37.567  14.926
66768W        W39193  12.901  34.883  14.890
66769W        W39194  25.992   9.872   2.251
66770W        W39195   8.907  13.165   4.533
66771W        W39196  42.322  28.481   1.309
66772W        W39197   1.352  19.811  12.858
66773W        W39198   9.226   5.667   4.155
66774W        W39199  17.632  40.740  13.494
66775W        W39200   1.930   8.682  14.998
66776W        W39201  37.249  13.495   2.219
66777W        W39202  30.957  15.569  10.993
66778W        W39203  39.044  28.790   2.722
66779W        W39204  18.430   6.147   3.848
66780W        W39205  16.716   7.376  12.457
66781W        W39206  28.008  27.720   3.408
66782W        W39207  14.092  24.957   2.130
66783W        W39208   1.819  26.595   2.628
66784W        W39209  31.618  34.131  12.066
66785W        W39210  11.834  18.678   2.308
66786W        W39211  44.791  32.542   2.652
66787W        W39212  31.972  23.934   2.269
66788W        W39213   2.940  39.390   1.079
66789W        W39214  14.322  35.273   4.108
66790W        W39215  19.839  14.662   1.891
66791W        W39216  31.499  11.810  14.423
66792W        W39217  21.481  42.908   2.340
66793W        W39218  29.161  19.816   2.692
66794W        W39219  39.285  28.316  12.712
66795W        W39220  11.882   2.975  11.900
66796W        W39221   6.341   7.905   1.274
66797W        W39222  40.579  23.536  13.332
66798W        W39223  27.677  41.391   4.270
66799W        W39224  24.961  37.363  11.962
66800W        W39225  20.456  40.925  12.857
66801W        W39226  34.922  29.231  13.492
66802W        W39227  25.001  43.000   5.148
66803W        W39228  10.130  30.844   2.707
66804W        W39229   1.691  14.583   0.036
66805W        W39230  20.480  24.090  11.217
66806W        W39231  19.535  19.270  11.495
66807W        W39232  34.683  41.259   1.952
66808W        W39233   1.931  11.805  14.262
66809W        W39234  24.490   3.365  15.000
66810W        W39235  14.311   2.409  13.457
66811W        W39236  10.843  27.947  14.014
66812W        W39237  13.860  13.676   4.825
66813W        W39238   6.144   0.577   4.742
66814W        W39239  37.973  43.574  14.853
66815W        W39240  31.375  11.156  14.010
66816W        W39241  24.034  34.511  12.403
66817W        W39242   7.222  33.623  11.252
66818W        W39243  30.367  32.962   3.191
66819W        W39244   0.752  13.330   0.914
66820W        W39245  44.835   5.969   4.212
66821W        W39246  24.966  14.833  13.019
66822W        W39247  40.556  20.081  14.309
66823W        W39248   7.369   7.418  11.946
66824W        W39249  43.978   8.751  12.921
66825W        W39250   7.885  35.275   0.822
66826W        W39251  33.073  35.461  13.012
66827W        W39252  34.864  25.537  13.184
66828W        W39253   7.569  19.161   3.268
66829W        W39254  33.106  17.048   0.760
66830W        W39255  29.174  31.596   5.184
66831W        W39256  16.356  12.211  13.494
66832W        W39257  10.145   8.413   1.247
66833W        W39258   3.301  32.518  13.079
66834W        W39259  43.349   0.597   0.443
66835W        W39260  35.546  24.211   2.687
66836W        W39261  36.812  13.655  13.999
66837W        W39262  23.684  16.790  10.586
66838W        W39263   2.708  14.363  12.366
66839W        W39264  40.196  44.254   4.559
66840W        W39265  42.714   5.820   1.855
66841W        W39266  28.822  38.499   3.193
66842W        W39267  11.409   4.516  14.842
66843W        W39268   8.398  42.374   0.439
66844W        W39269  31.846  40.061   9.822
66845W        W39270  18.362  23.646   1.830
66846W        W39271  30.148   5.234   0.361
66847W        W39272  37.070   3.729   3.636
66848W        W39273  24.742  33.539   2.847
66849W        W39274   0.694  21.232  11.973
66850W        W39275   4.815  15.538   0.619
66851W        W39276  14.796   4.469   2.199
66852W        W39277  35.042  18.979   3.356
66853W        W39278  42.518  22.808   2.291
66854W        W39279   3.853   0.909  13.326
66855W        W39280  21.240  43.557   1.656
66856W        W39281  27.785  33.338  10.933
66857W        W39282   5.171  14.466   4.574
66858W        W39283  17.129  16.543   2.755
66859W        W39284  27.147  26.600   2.584
66860W        W39285  10.410  20.572   4.169
66861W        W39286  14.749  35.105   3.699
66862W        W39287  13.559  43.683  14.381
66863W        W39288  34.144  18.840  11.988
66864W        W39289  36.762  31.229  11.027
66865W        W39290   0.031  36.142  11.074
66866W        W39291  30.183  13.858   0.775
66867W        W39292  44.237   7.199  14.548
66868W        W39293   9.952  15.573   1.737
66869W        W39294  11.291   8.802   1.201
66870W        W39295   1.725  23.980   1.197
66871W        W39296  11.172  28.018   1.938
66872W        W39297  11.286  33.457  10.299
66873W        W39298  42.733   2.103   4.317
66874W        W39299  15.361  40.318   2.128
66875W        W39300  23.128  44.486   0.078
66876W        W39301  29.978  10.755   4.859
66877W        W39302   5.213  36.940   4.660
66878W        W39303  11.693  15.568   1.720
66879W        W39304  11.615   2.699   2.753
66880W        W39305  40.786  40.780   3.681
66881W        W39306   0.291   5.645   4.146
66882W        W39307  26.813   3.755  11.979
66883W        W39308  17.833  41.522   4.056
66884W        W39309  40.088  10.171  12.943
66885W        W39310  38.085  35.921  11.665
66886W        W39311  39.483  16.324   2.310
66887W        W39312  26.210   3.383   2.149
66888W        W39313  11.371  12.336  10.819
66889W        W39314  33.741  28.731  11.399
66890W        W39315  43.851  44.538   3.254
66891W        W39316  36.591   8.289   0.431
66892W        W39317  21.290  40.997  12.554
66893W        W39318   2.534  12.755   1.409
66894W        W39319  40.367  11.871   4.654
66895W        W39320  19.671  39.225  10.690
66896W        W39321  19.497  27.168   1.365
66897W        W39322  20.377   9.657   0.454
66898W        W39323  36.670  19.834   1.355
66899W        W39324  22.622   3.181   0.311
66900W        W39325  40.547  21.482   1.511
66901W        W39326   5.946  35.029  11.149
66902W        W39327   0.413  43.270   0.497
66903W        W39328  28.162  34.161   3.667
66904W        W39329  20.323  22.499   5.097
66905W        W39330  28.893  27.617   0.270
66906W        W39331   9.134  26.524   0.593
66907W        W39332  17.076  33.883   1.945
66908W        W39333  11.656   3.406  11.706
66909W        W39334  25.275  42.592  11.155
66910W        W39335  22.423  32.156  14.556
66911W        W39336  16.297  10.683   1.347
66912W        W39337  28.078  20.833   5.053
66913W        W39338  28.412  22.463   2.343
66914W        W39339  15.678  33.974   4.418
66915W        W39340  33.910  24.203  13.028
66916W        W39341  37.043  34.393   1.666
66917W        W39342   6.556  25.862  14.042
66918W        W39343  13.140  12.860   3.141
66919W        W39344  27.501  29.193  11.625
66920W        W39345  22.879  40.600  14.760
66921W        W39346  38.643   8.869   4.709
66922W        W39347  38.809  26.726  11.922
66923W        W39348  13.810  24.884   0.282
66924W        W39349  35.928  20.777  14.061
66925W        W39350  14.145  12.401   3.358
66926W        W39351  35.045  39.564   0.743
66927W        W39352  18.689  10.690   1.743
66928W        W39353  11.789  24.900  12.407
66929W        W39354  44.704  30.142   0.536
66930W        W39355  20.856   4.269   0.998
66931W        W39356  43.921  11.343   3.158
66932W        W39357  28.728   1.335  10.698
66933W        W39358  30.854   5.771   3.147
66934W        W39359  17.598  20.829  14.992
66935W        W39360  32.587  31.485  14.290
66936W        W39361   0.832  28.633   2.353
66937W        W39362  20.758  33.043   2.382
66938W        W39363   2.463  38.663  11.772
66939W        W39364  33.425  13.669  13.529
66940W        W39365  12.387  23.753   3.265
66941W        W39366   6.677  33.392   0.969
66942W        W39367  16.996  27.448  11.777
66943W        W39368  23.035  21.475  11.697
66944W        W39369  28.900  36.974  11.984
66945W        W39370  30.139  21.732  13.281
66946W        W39371   5.252   4.797   2.385
66947W        W39372  36.850  11.917  11.765
66948W        W39373  16.471  41.117  13.894
66949W        W39374  29.148  38.280   2.778
66950W        W39375   4.194  40.599  14.368
66951W        W39376  34.275  14.950  13.485
66952W        W39377   7.942  12.320   4.854
66953W        W39378  28.971  17.643   4.588
66954W        W39379  44.016   1.417   4.598
66955W        W39380  32.933  14.679  10.708
66956W        W39381   1.894  10.864  12.164
66957W        W39382  20.924  44.899  12.398
66958W        W39383  21.061  29.244  12.589
66959W        W39384   6.802   5.165   4.170
66960W        W39385  41.448  37.644  13.484
66961W        W39386  16.737  35.107   1.223
66962W        W39387   1.257  24.118   1.844
66963W        W39388  19.582  31.567  14.509
66964W        W39389  14.574   4.898   2.401
66965W        W39390  38.115  44.810  14.778
66966W        W39391  17.280  27.403   2.841
66967W        W39392  44.651  11.895  14.824
66968W        W39393  26.111   1.395  14.539
66969W        W39394  34.937  30.969   2.793
66970W        W39395  13.283  22.085  13.560
66971W        W39396   5.285  10.864  13.661
66972W        W39397  33.886  37.370   0.825
66973W        W39398   8.801  25.641   0.929
66974W        W39399  15.980   3.428  14.638
66975W        W39400  14.840  35.052  14.636
66976W        W39401  39.494  38.057   0.290
66977W        W39402  12.748  42.624  11.265
66978W        W39403  17.296  31.675  14.852
66979W        W39404  26.220   7.453  12.165
66980W        W39405  42.362  19.230  12.422
66981W        W39406  39.579  16.217   3.689
66982W        W39407  10.108  14.735   2.211
66983W        W39408   8.195   6.357  12.131
66984W        W39409  38.808  42.393   5.350
66985W        W39410  23.761  39.239   1.855
66986W        W39411   9.157  18.026  13.326
66987W        W39412  21.021  35.119   0.339
66988W        W39413  33.839  15.747   3.674
66989W        W39414  41.411  14.794  13.372
66990W        W39415   3.491  23.931   4.645
66991W        W39416  12.030   6.692  14.365
66992W        W39417  21.700  42.853  13.645
66993W        W39418  37.859  13.981  11.887
66994W        W39419  27.793  38.092   2.837
66995W        W39420  16.528  19.731  10.876
66996W        W39421   5.144  22.811  12.568
66997W        W39422  14.713  41.554  14.720
66998W        W39423   4.748  13.378  10.345
66999W        W39424  31.974  28.145  14.421
67000W        W39425  40.401  19.068   2.812
67001W        W39426  23.671  22.739   2.070
67002W        W39427   7.377  16.620  12.526
67003W        W39428   9.671  12.543  11.131
67004W        W39429  41.448  37.030  11.921
67005W        W39430  18.542   4.279  13.501
67006W        W39431  31.443  16.093  11.436
67007W        W39432  21.500  14.789   4.748
67008W        W39433   7.781  12.716   2.657
67009W        W39434   4.746  31.923   3.098
67010W        W39435   8.378  43.506   1.458
67011W        W39436  19.818   5.210  13.977
67012W        W39437  14.719  15.041   4.163
67013W        W39438  44.360   7.409   2.678
67014W        W39439  21.749  38.779   3.741
67015W        W39440  39.496  23.205   1.167
67016W        W39441  16.849   7.929   2.472
67017W        W39442  13.331  34.072   4.617
67018W        W39443  44.195  28.453  11.975
67019W        W39444  15.563  25.641   0.409
67020W        W39445   9.255  34.607  13.644
67021W        W39446  22.675  43.849   2.316
67022W        W39447  24.954  40.106  12.076
67023W        W39448  34.675  44.953  13.556
67024W        W39449  40.160   9.586  14.788
67025W        W39450   1.907  37.801   4.088
67026W        W39451  42.413  31.562   3.073
67027W        W39452  19.111  33.114  14.289
67028W        W39453  44.167  41.427   3.080
67029W        W39454  24.049  22.963   1.338
67030W        W39455   2.763   0.907  13.407
67031W        W39456   9.304   3.315   0.078
67032W        W39457  25.541  19.462  14.873
67033W        W39458  31.537  44.563  11.122
67034W        W39459   9.287   6.738  10.250
67035W        W39460  25.278   3.950   0.891
67036W        W39461   9.789  15.167   0.967
67037W        W39462  25.719  11.797  12.628
67038W        W39463  35.582   8.172  13.433
67039W        W39464  24.131  44.884  12.031
67040W        W39465   0.113  21.713   3.642
67041W        W39466   6.408  32.609  10.072
67042W        W39467  43.789  42.459   2.820
67043W        W39468  10.140  18.126  14.291
67044W        W39469  15.293  18.192  10.592
67045W        W39470  31.155  18.743   0.540
67046W        W39471  25.217  19.506   1.296
67047W        W39472   3.029  33.147  13.930
67048W        W39473  28.961  39.774  14.007
67049W        W39474  34.792  30.040  11.782
67050W        W39475  26.512  13.388  14.829
67051W        W39476   6.132   0.776   2.659
67052W        W39477  40.498   1.212   2.818
67053W        W39478  34.946   8.986  14.016
67054W        W39479  42.869  44.859  12.482
67055W        W39480   2.830  29.322  11.446
67056W        W39481  33.538  25.500  14.469
67057W        W39482  11.202  10.152  10.564
67058W        W39483   8.286  13.840  12.040
67059W        W39484   1.433   6.624  10.808
67060W        W39485  20.777  37.082   3.615
67061W        W39486   1.952  19.829   3.672
67062W        W39487  29.579   5.689  14.292
67063W        W39488  34.846  27.721  11.038
67064W        W39489  36.100  44.961  14.049
67065W        W39490  15.124  12.183  14.237
67066W        W39491  21.708  33.540   3.241
67067W        W39492   8.439  31.028   4.587
67068W        W39493  44.392   1.705   2.472
67069W        W39494   9.677  23.174   2.404
67070W        W39495   0.581  40.798   1.758
67071W        W39496   5.720   6.329   4.567
67072W        W39497  14.595   6.921   0.174
67073W        W39498  40.713  24.208   1.865
67074W        W39499  19.651  23.738   2.403
67075W        W39500  30.832  15.076   2.452
67076W        W39501  25.708  37.312   1.291
67077W        W39502  36.123  19.012   1.683
67078W        W39503  28.862  21.120   2.761
67079W        W39504  16.056  32.336   1.338
67080W        W39505   4.694   9.224   1.421
67081W        W39506  19.835   8.138   2.233
67082W        W39507  21.626   8.268  11.487
67083W        W39508  15.562  12.678  13.595
67084W        W39509   9.349  15.634  11.508
67085W        W39510  28.139  33.652   3.575
67086W        W39511  23.097  17.521  12.839
67087W        W39512   4.251  38.805   3.847
67088W        W39513  22.608  34.737   4.717
67089W        W39514  23.124  10.891   1.406
67090W        W39515  15.770  31.838  12.521
67091W        W39516  33.959  37.467  13.997
67092W        W39517   6.695   6.921   0.700
67093W        W39518  44.766  33.633  13.951
67094W        W39519  40.190   7.877   4.602
67095W        W39520  35.552   7.525   1.784
67096W        W39521   0.845   1.932   1.207
67097W        W39522  16.340  22.238   0.277
67098W        W39523  35.953  26.880   5.075
67099W        W39524   9.116  20.594   1.376
67100W        W39525   0.416  36.886   3.789
67101W        W39526   8.322  25.119   1.981
67102W        W39527   9.242  28.678  12.144
67103W        W39528  14.853  44.987   3.398
67104W        W39529   2.770   7.395   1.684
67105W        W39530  15.873  13.778   1.863
67106W        W39531   8.321  10.432  13.776
67107W        W39532  12.191  25.155  11.838
67108W        W39533  37.127   5.336   3.229
67109W        W39534  22.114   3.236   0.305
67110W        W39535  15.338   2.390   1.240
67111W        W39536   1.798   1.798   2.643
67112W        W39537  28.436  19.710  13.265
67113W        W39538  11.600   8.063   0.902
67114W        W39539  44.905  13.441  13.986
67115W        W39540   3.599  10.264  11.597
67116W        W39541  19.947  24.028  11.294
67117W        W39542  20.623  22.453  13.556
67118W        W39543   8.071   6.832  11.950
67119W        W39544  24.184  20.722   1.021
67120W        W39545  21.723   2.807   1.870
67121W        W39546   0.807  16.046   3.239
67122W        W39547  24.252   0.689  10.379
67123W        W39548  13.779  13.794   2.804
67124W        W39549  22.366  27.937  13.820
67125W        W39550  26.722   2.811  12.192
67126W        W39551   7.432  20.993  13.389
67127W        W39552   2.281   5.781   0.043
67128W        W39553   1.450  23.631  10.933
67129W        W39554   6.233  35.616   3.285
67130W        W39555  42.038  35.860  11.600
67131W        W39556  42.011  41.568  12.029
67132W        W39557  36.682  22.774   3.456
67133W        W39558   5.968  19.100   2.770
67134W        W39559   2.583  35.966  13.956
67135W        W39560   1.774  20.443   0.757
67136W        W39561  43.678  36.532   2.307
67137W        W39562  41.627  39.340  12.452
67138W        W39563  19.184   7.400   0.512
67139W        W39564  43.595  40.335  10.805
67140W        W39565  36.628  14.659  11.430
67141W        W39566  29.313  44.153   0.952
67142W        W39567  31.231  13.816   3.833
67143W        W39568  33.563   7.566  14.660
67144W        W39569  17.648   1.380  11.461
67145W        W39570   3.249  43.018  14.561
67146W        W39571  43.851  39.730  12.046
67147W        W39572   0.548  35.962  12.602
67148W        W39573  12.656  35.820  14.918
67149W        W39574  38.006   0.538   1.824
67150W        W39575  15.395  14.580  14.063
67151W        W39576   0.070  22.995   3.344
67152W        W39577  22.086  26.671  13.392
67153W        W39578  44.263   6.742   0.480
67154W        W39579  20.837   5.432   3.706
67155W        W39580  28.062  32.466   4.654
67156W        W39581  37.416  38.539   4.731
67157W        W39582  28.417  17.105   3.208
67158W        W39583  42.755  39.064  10.707
67159W        W39584  24.291  21.154   0.355
67160W        W39585  25.724  23.630  14.908
67161W        W39586  38.871   1.966   4.621
67162W        W39587  20.095  29.554   2.194
67163W        W39588  44.644  14.489  12.787
67164W        W39589  28.593   1.567  11.134
67165W        W39590  10.299  21.078   4.826
67166W        W39591  12.647  42.485   1.295
67167W        W39592  33.534   6.729   3.303
67168W        W39593  24.863  35.161   4.050
67169W        W39594   6.752  31.845   4.695
67170W        W39595  39.034   2.474   4.640
67171W        W39596  16.828  43.490   1.904
67172W        W39597  14.642   1.653   3.732
67173W        W39598   9.160   7.939  11.875
67174W        W39599  15.001  43.756  12.869
67175W        W39600   7.953  40.432  10.367
67176W        W39601   2.044  40.834   2.630
67177W        W39602   8.340  43.531   1.982
67178W        W39603   8.212  30.857   1.813
67179W        W39604   4.240  37.107   1.721
67180W        W39605  27.616  25.220   0.529
67181W        W39606  11.034  18.245   2.103
67182W        W39607  18.659  38.709  12.860
67183W        W39608  33.939   5.900   3.159
67184W        W39609   6.863   4.887  13.576
67185W        W39610  39.466  24.941  12.427
67186W        W39611  38.282  19.531  12.937
67187W        W39612  27.321  14.573   3.349
67188W        W39613   1.386  22.313   0.429
67189W        W39614  41.294  40.537  14.021
67190W        W39615  38.973  10.682   0.946
67191W        W39616  32.553  28.384  14.049
67192W        W39617   3.508  13.742   3.752
67193W        W39618  29.391  37.891   3.686
67194W        W39619  38.847  39.364  11.410
67195W        W39620  42.121  39.014   3.776
67196W        W39621  19.286  13.729  12.542
67197W        W39622   7.943  38.190   9.724
67198W        W39623   9.627  10.183   2.246
67199W        W39624   2.730  44.526   3.741
67200W        W39625  38.315  32.591   1.643
67201W        W39626   5.315  44.569  13.530
67202W        W39627  16.170  15.959  11.647
67203W        W39628  36.056  22.815   1.397
67204W        W39629  19.828  38.061  12.179
67205W        W39630  39.873   7.079  13.440
67206W        W39631   0.384  13.373   1.687
67207W        W39632  37.389  15.346  12.131
67208W        W39633  26.570  24.673   4.646
67209W        W39634  31.627  16.558  13.523
67210W        W39635   7.385  37.372  14.878
67211W        W39636   7.290   8.302   1.680
67212W        W39637  11.661  20.764   2.863
67213W        W39638  14.781  37.919  11.570
67214W        W39639  18.526  43.399  10.688
67215W        W39640  17.838  34.959   3.193
67216W        W39641   1.155  38.367   0.678
67217W        W39642  30.589   3.500   2.228
67218W        W39643  30.863   0.815  14.931
67219W        W39644  23.673  29.098  10.780
67220W        W39645   2.727  18.002   2.446
67221W        W39646  24.923   6.368  11.326
67222W        W39647  25.217   2.855  13.569
67223W        W39648  13.945  27.768   0.736
67224W        W39649   5.560   0.917   0.747
67225W        W39650   9.411  40.393  10.826
67226W        W39651  37.897  17.693   3.086
67227W        W39652   2.707   1.351   0.303
67228W        W39653  32.456  37.545   1.683
67229W        W39654  33.347  18.715   0.953
67230W        W39655  29.150  44.861  10.995
67231W        W39656  36.474   7.256   0.446
67232W        W39657  39.798   5.294   1.275
67233W        W39658  41.735  42.988   2.863
67234W        W39659  22.611  20.757  12.736
67235W        W39660  23.119  24.067  11.633
67236W        W39661  10.735   6.810   2.731
67237W        W39662  22.516  14.666   0.301
67238W        W39663   3.965   0.989  14.727
67239W        W39664  40.070  38.954   3.421
67240W        W39665  28.127  27.850  10.946
67241W        W39666  39.950  17.795  12.831
67242W        W39667  22.165  36.387  10.722
67243W        W39668  17.095  22.770   2.287
67244W        W39669  24.690  18.391  12.915
67245W        W39670  30.189  34.003   1.858
67246W        W39671  34.332  20.770  12.257
67247W        W39672  19.646  19.564  12.864
67248W        W39673  20.744   0.373  13.383
67249W        W39674   9.352  20.983  13.983
67250W        W39675   4.887  36.490   2.064
67251W        W39676   1.473  19.336   2.944
67252W        W39677  35.955   7.260  10.538
67253W        W39678  35.178   4.828  11.643
67254W        W39679   8.341   6.290  13.582
67255W        W39680  28.921  31.110   5.216
67256W        W39681  33.638   1.262  12.519
67257W        W39682  29.601  23.279   2.828
67258W        W39683  34.085  10.774  12.129
67259W        W39684  28.070   0.844   4.333
67260W        W39685  28.763  31.275   1.195
67261W        W39686  41.723   0.909   5.095
67262W        W39687  40.489  32.861  13.319
67263W        W39688  38.130   6.927   3.726
67264W        W39689   7.333   9.777  10.600
67265W        W39690   5.947   3.853  13.574
67266W        W39691   0.171  44.392   2.943
67267W        W39692  40.547  38.022   3.337
67268W        W39693  12.068  26.956  13.107
67269W        W39694  11.888   9.946  11.103
67270W        W39695  27.969  23.244   2.385
67271W        W39696  38.192  12.127  14.338
67272W        W39697  27.154   7.372   4.818
67273W        W39698  10.658  35.981  11.562
67274W        W39699   7.784   2.206  11.430
67275W        W39700  19.156   7.847  13.599
67276W        W39701  15.041  37.937  13.759
67277W        W39702  25.673  23.125   2.625
67278W        W39703  16.584  26.538   3.653
67279W        W39704  27.128   3.768  13.598
67280W        W39705  18.777  13.956  12.608
67281W        W39706  30.657  31.865  13.916
67282W        W39707  36.537  16.760  12.952
67283W        W39708  19.826  41.019   1.458
67284W        W39709  27.337   1.282   4.905
67285W        W39710  42.064  34.702  11.131
67286W        W39711  17.115  24.578  12.876
67287W        W39712  24.210  16.328   3.935
67288W        W39713  39.075  17.000   1.633
67289W        W39714   0.533  20.315   2.734
67290W        W39715   8.709  19.662  14.468
67291W        W39716   3.707   0.740  11.884
67292W        W39717  15.794  37.288   0.959
67293W        W39718  10.359   5.430  12.852
67294W        W39719  10.561  35.144  11.127
67295W        W39720  18.922  31.827  14.436
67296W        W39721  37.140  26.211   1.613
67297W        W39722  16.347  30.734   2.642
67298W        W39723  20.747  37.731  10.539
67299W        W39724  37.336  41.883  14.383
67300W        W39725  15.795  11.758  12.978
67301W        W39726  27.312  20.647   0.963
67302W        W39727  43.911  11.288  13.106
67303W        W39728  21.338  43.627   4.463
67304W        W39729   0.409  15.108  12.353
67305W        W39730  38.554  13.129  13.170
67306W        W39731  16.849  25.350  11.124
67307W        W39732   5.814  44.598  10.821
67308W        W39733  11.801   3.835  14.436
67309W        W39734  14.076  14.095  14.418
67310W        W39735  41.784  23.526   3.105
67311W        W39736  34.582  20.252  13.496
67312W        W39737  30.579  24.670  12.021
67313W        W39738  36.928  41.268   1.280
67314W        W39739  13.763  22.477  12.883
67315W        W39740  21.309  23.792  12.436
67316W        W39741  44.831  10.184   3.230
67317W        W39742   7.688  26.048  12.119
67318W        W39743   4.014  20.738  13.411
67319W        W39744  29.464  20.203   1.708
67320W        W39745  28.101   2.921   4.637
67321W        W39746  24.660  24.616   0.666
67322W        W39747  19.177  21.564  13.051
67323W        W39748  14.085  18.797   2.299
67324W        W39749  10.660  42.583  14.215
67325W        W39750  38.768  11.170   0.321
67326W        W39751  35.302  32.361  13.828
67327W        W39752  27.217  28.060  12.878
67328W        W39753   2.336  29.648  12.198
67329W        W39754  27.131   1.091  12.796
67330W        W39755   2.161  12.605   0.467
67331W        W39756  12.622  34.090   3.258
67332W        W39757  14.158  27.083  10.698
67333W        W39758   8.422  28.957   1.207
67334W        W39759   1.493  30.943   4.277
67335W        W39760   6.860  30.824  10.952
67336W        W39761  34.796  13.278   0.487
67337W        W39762  24.059   9.879   4.157
67338W        W39763  23.053   3.758   4.563
67339W        W39764  27.770  10.828  10.589
67340W        W39765  39.603  32.414   3.624
67341W        W39766  35.985  26.685   0.706
67342W        W39767  43.847  36.412   3.425
67343W        W39768  19.747   5.999  13.548
67344W        W39769  16.078   3.301  12.974
67345W        W39770  17.676  15.656  13.408
67346W        W39771  10.950  40.608  13.406
67347W        W39772  13.886  37.109  10.906
67348W        W39773  11.554   8.924  12.024
67349W        W39774  29.351  41.337  10.015
67350W        W39775  27.106  23.806   1.355
67351W        W39776  35.840  33.432   2.814
67352W        W39777  35.467  12.867   0.340
67353W        W39778  21.050   1.678   1.390
67354W        W39779  11.377   3.983   2.001
67355W        W39780  28.237  26.218   2.975
67356W        W39781   2.843   1.717   3.691
67357W        W39782   0.558   3.522  10.877
67358W        W39783   2.328  42.286   4.694
67359W        W39784  21.156  37.136   1.282
67360W        W39785  32.488   1.423  14.381
67361W        W39786   0.388  36.825   4.303
67362W        W39787   7.653   7.942   1.806
67363W        W39788  18.033  19.651   4.155
67364W        W39789  36.979   8.667  12.555
67365W        W39790   4.167   9.820  13.502
67366W        W39791  11.308  23.962   4.157
67367W        W39792  32.411   7.253   0.778
67368W        W39793  12.696  10.611  11.117
67369W        W39794  44.019  15.398   0.345
67370W        W39795  12.528  25.516  11.993
67371W        W39796  14.334   6.766   1.261
67372W        W39797  12.182  36.357   2.713
67373W        W39798  42.410   6.331   3.807
67374W        W39799   3.320   1.516  14.798
67375W        W39800  11.833   3.639  13.516
67376W        W39801  21.069  24.041   4.213
67377W        W39802  21.068  42.525  13.870
67378W        W39803  10.147  34.380   2.732
67379W        W39804   7.652  13.995  14.526
67380W        W39805  21.453  26.887   0.515
67381W        W39806   6.418  40.629  14.257
67382W        W39807  33.793  34.171   4.619
67383W        W39808  30.965  10.734   4.506
67384W        W39809  22.654  20.342   3.241
67385W        W39810  24.144  39.764  12.488
67386W        W39811  43.248   4.759  10.232
67387W        W39812   2.384  22.082   2.808
67388W        W39813  30.756  26.590  14.345
67389W        W39814   5.695  20.804   4.243
67390W        W39815   0.272   1.380   4.428
67391W        W39816  36.409  10.201  14.471
67392W        W39817  32.806  27.447  12.552
67393W        W39818   8.663  39.550  12.355
67394W        W39819  30.631  24.076   1.917
67395W        W39820   8.650  25.592  11.544
67396W        W39821   1.799  22.971   3.797
67397W        W39822  22.893  13.713  12.143
67398W        W39823   7.690  29.723   0.621
67399W        W39824  34.637  40.816  12.336
67400W        W39825  41.055   5.760   0.278
67401W        W39826  20.754  33.916  12.835
67402W        W39827  43.193  31.093  12.913
67403W        W39828  41.563  42.498  14.090
67404W        W39829  26.221  10.413   3.694
67405W        W39830  22.364   4.869   2.188
67406W        W39831  43.837  37.085  11.733
67407W        W39832  35.062   3.489   1.234
67408W        W39833  39.471  24.549   5.567
67409W        W39834  11.763  14.544  14.400
67410W        W39835  42.656  12.402  14.421
67411W        W39836  15.778  43.292  14.056
67412W        W39837  22.377  17.519  13.427
67413W        W39838   2.263  40.410  11.981
67414W        W39839   3.248  11.143   4.579
67415W        W39840  31.189  12.573  13.412
67416W        W39841  30.970  17.337  11.485
67417W        W39842  32.500   9.010   1.258
67418W        W39843  10.347   3.249  14.334
67419W        W39844  17.468  26.073   2.786
67420W        W39845   9.811  10.897  14.536
67421W        W39846  39.276  44.338  13.503
67422W        W39847  23.792   5.952  12.958
67423W        W39848  27.422  29.505   4.068
67424W        W39849  40.972  14.720   2.700
67425W        W39850  44.862  21.675   4.609
67426W        W39851  15.747  41.737   1.284
67427W        W39852  25.237  26.951  12.965
67428W        W39853   3.185  27.693  10.915
67429W        W39854  43.178  19.850   4.687
67430W        W39855  40.703   3.310  11.626
67431W        W39856  42.668  39.668  14.309
67432W        W39857  14.154  25.943  14.041
67433W        W39858  18.080   3.635  11.069
67434W        W39859  37.302   4.372   1.708
67435W        W39860  38.963  12.724   1.418
67436W        W39861  42.927  36.281  14.791
67437W        W39862  24.493   9.336  14.347
67438W        W39863  13.851  31.625   1.309
67439W        W39864  19.073   8.353  13.717
67440W        W39865  29.002  13.320   2.768
67441W        W39866  33.075  27.700  10.763
67442W        W39867  36.646  20.849   3.427
67443W        W39868  10.135  14.335   3.237
67444W        W39869  16.603   0.766  11.526
67445W        W39870  28.959  35.855   2.940
67446W        W39871  43.430  33.935   0.637
67447W        W39872  23.938  36.925   3.177
67448W        W39873  24.914  29.073   2.856
67449W        W39874  18.887  15.271  13.776
67450W        W39875   6.124   5.825  12.013
67451W        W39876  42.685  37.606   2.826
67452W        W39877  27.980  11.688   2.380
67453W        W39878  12.756  30.056   1.040
67454W        W39879   5.962  19.966   4.168
67455W        W39880  39.450  14.428  12.133
67456W        W39881   7.394  40.055  12.172
67457W        W39882  44.324  18.509  14.987
67458W        W39883  35.488  27.191  12.974
67459W        W39884  21.371  30.716   1.269
67460W        W39885  40.990  38.317   1.848
67461W        W39886  35.461  14.218   2.274
67462W        W39887  20.306  26.877   1.696
67463W        W39888  15.070  39.283   4.651
67464W        W39889  30.840  44.248   1.180
67465W        W39890  15.197  41.377  12.028
67466W        W39891  16.615  30.935  13.506
67467W        W39892  43.076  33.900   4.116
67468W        W39893   1.317  29.393   3.140
67469W        W39894  15.778  33.563   2.721
67470W        W39895   7.619  13.275   4.974
67471W        W39896  23.026  12.642   1.100
67472W        W39897  35.184  37.514   3.720
67473W        W39898  29.476  11.550   5.191
67474W        W39899  10.063  34.415  12.886
67475W        W39900  26.005   6.653   2.903
67476W        W39901  25.046  16.825   1.776
67477W        W39902  29.915  11.685   2.319
67478W        W39903  23.765  44.762  14.258
67479W        W39904  30.384  43.214   3.009
67480W        W39905  25.706  19.155   0.412
67481W        W39906  20.722   3.201   3.266
67482W        W39907  14.092  31.565   3.417
67483W        W39908   8.132   6.487  14.953
67484W        W39909  12.276   0.364  13.459
67485W        W39910  13.281  40.919  14.701
67486W        W39911  41.099  39.449  11.133
67487W        W39912   2.492  13.170   2.824
67488W        W39913  40.639   8.922   0.242
67489W        W39914  14.164  27.460   4.459
67490W        W39915  34.131  18.300  11.996
67491W        W39916  33.804  19.063   0.172
67492W        W39917  19.639  21.148  11.057
67493W        W39918  20.688  29.431  14.291
67494W        W39919  40.179  22.997   0.419
67495W        W39920  12.277  36.555  13.542
67496W        W39921   1.438  34.364  14.893
67497W        W39922  41.854   3.475   1.268
67498W        W39923  28.622  43.249   4.186
67499W        W39924   2.511  29.914   0.023
67500W        W39925  39.988   7.254  12.129
67501W        W39926  12.900  40.117   0.353
67502W        W39927  11.649  33.618  11.951
67503W        W39928  35.345  21.021  11.580
67504W        W39929  31.951   4.750   0.476
67505W        W39930  11.844  35.892  13.888
67506W        W39931  28.161  22.223   0.813
67507W        W39932   8.083  29.336   0.920
67508W        W39933  16.744  44.899   1.279
67509W        W39934  44.663  37.111   3.174
67510W        W39935  37.302   9.324   0.847
67511W        W39936  38.982   5.338  11.219
67512W        W39937  13.571  34.305   2.475
67513W        W39938   2.752  42.396  10.665
67514W        W39939  40.347  14.564   3.133
67515W        W39940  31.353  10.228  13.561
67516W        W39941  17.565  15.552   0.868
67517W        W39942  40.675  24.531   0.758
67518W        W39943  15.130   6.242  13.647
67519W        W39944  28.860   3.949   4.448
67520W        W39945  29.641  32.621  12.017
67521W        W39946   5.869  12.577  14.352
67522W        W39947   0.770  23.971   3.479
67523W        W39948  11.214  39.766   0.686
67524W        W39949  14.920  43.537   4.288
67525W        W39950   0.840  13.595   0.440
67526W        W39951   0.715  11.044  11.378
67527W        W39952   1.014  31.704  13.461
67528W        W39953  16.212  14.289  14.445
67529W        W39954  15.675  34.124   2.993
67530W        W39955   1.488  38.900  11.589
67531W        W39956  10.675   8.669  14.543
67532W        W39957  27.979  44.751   3.340
67533W        W39958  43.378  37.582   4.612
67534W        W39959  13.548  31.134   4.650
67535W        W39960  18.744  19.223  12.525
67536W        W39961   7.907  41.648  11.248
67537W        W39962  36.126  17.357  13.480
67538W        W39963  43.488  17.020  10.302
67539W        W39964  36.362  27.477   0.339
67540W        W39965  32.540  26.173   3.785
67541W        W39966   8.751  22.471   1.036
67542W        W39967  25.408  33.940  12.945
67543W        W39968   9.287   8.655   1.784
67544W        W39969   0.133  28.218   3.859
67545W        W39970  40.456  41.826  11.538
67546W        W39971  15.064  10.714   4.879
67547W        W39972  35.713  41.871   2.891
67548W        W39973  44.282  28.903   1.268
67549W        W39974  29.927  20.194   3.261
67550W        W39975  20.368  40.968   0.221
67551W        W39976   3.943  38.596  13.298
67552W        W39977  29.652  22.579   1.804
67553W        W39978   2.033  38.242  11.138
67554W        W39979  19.101  34.166   0.747
67555W        W39980   0.404   4.195  11.471
67556W        W39981   3.896  16.238  12.250
67557W        W39982  13.409  34.957   4.048
67558W        W39983   3.061   7.232   0.729
67559W        W39984  20.887  12.688   5.022
67560W        W39985   4.915  28.965  10.793
67561W        W39986   7.138  20.543  14.555
67562W        W39987  12.343  17.784   0.836
67563W        W39988   0.198  19.799  14.883
67564W        W39989   5.638  24.169  10.620
67565W        W39990  26.084  42.475  13.978
67566W        W39991  29.722  21.574  14.406
67567W        W39992   4.600  43.511  12.070
67568W        W39993  37.823  17.458   0.594
67569W        W39994   6.384  24.692  11.575
67570W        W39995  11.981  24.601  14.449
67571W        W39996  39.700  37.394  11.141
67572W        W39997  14.075  18.058   2.702
67573W        W39998  30.593   8.289  13.070
67574W        W39999  37.151   8.865   0.578
67575W        W40000   1.221  36.626  11.985
67576W        W40001  31.655  18.947   5.176
67577W        W40002  42.397  40.462   0.981
67578W        W40003  21.271  27.543   0.387
67579W        W40004  27.259  27.576  12.720
67580W        W40005  15.182  23.254   3.364
67581W        W40006   5.537   3.960   1.902
67582W        W40007  19.281  44.716   2.307
67583W        W40008  19.029  32.256  11.563
67584W        W40009  30.526  26.079  12.642
67585W        W40010  44.920  44.034  14.931
67586W        W40011  42.957  44.679  14.664
67587W        W40012   6.817  26.532   0.463
67588W        W40013   9.917  19.996  11.017
67589W        W40014   8.435  32.045   0.377
67590W        W40015  24.476  26.229  13.030
67591W        W40016   2.630   4.151   0.753
67592W        W40017  19.298  34.000   4.612
67593W        W40018  31.042  14.173   0.362
67594W        W40019   8.773   4.697   4.590
67595W        W40020  38.559  23.496  13.315
67596W        W40021  24.947   7.896   4.172
67597W        W40022   2.737  36.679   2.373
67598W        W40023   3.718   5.997   0.975
67599W        W40024  26.248  23.650  10.753
67600W        W40025  18.750  38.038   4.706
67601W        W40026   9.833   7.105  13.556
67602W        W40027  38.816  37.089   2.366
67603W        W40028  20.034  39.670   1.311
67604W        W40029   9.099   2.608  13.344
67605W        W40030  38.046  20.982  10.183
67606W        W40031  16.293  33.137  10.681
67607W        W40032  35.748  29.688   3.933
67608W        W40033  35.537   8.022   0.310
67609W        W40034  27.558   9.678  14.902
67610W        W40035  12.055  18.743   1.039
67611W        W40036  21.214  30.685   2.345
67612W        W40037  20.592  34.936  11.432
67613W        W40038  39.797  44.968   2.356
67614W        W40039  30.913  29.499   2.365
67615W        W40040  29.613  29.479   4.569
67616W        W40041  35.873   3.387  10.747
67617W        W40042  30.360   5.722   0.366
67618W        W40043  22.117  32.659  13.479
67619W        W40044   6.878  11.165  10.662
67620W        W40045  41.859  30.404  10.741
67621W        W40046  24.752  35.151   5.239
67622W        W40047   2.983  19.019  12.425
67623W        W40048  22.006   8.271   3.783
67624W        W40049  11.648   9.489   3.268
67625W        W40050  39.042  35.186   1.342
67626W        W40051  43.682  41.104  14.062
67627W        W40052  15.502  30.685   3.713
67628W        W40053   5.792   7.716   4.693
67629W        W40054   2.411  18.983   2.305
67630W        W40055   2.119  16.732   0.796
67631W        W40056  14.380  26.655  11.676
67632W        W40057  22.727  19.980  12.775
67633W        W40058  25.952  44.463   3.957
67634W        W40059  10.364  18.745  10.621
67635W        W40060  28.190  16.283   4.791
67636W        W40061  39.080  24.165   4.291
67637W        W40062  35.548  18.264   1.839
67638W        W40063  27.954  18.547   5.094
67639W        W40064  23.828  16.679   3.926
67640W        W40065   7.728   1.474  12.106
67641W        W40066   2.413  32.589   3.096
67642W        W40067  32.803  33.446  14.952
67643W        W40068  30.883   4.490   0.856
67644W        W40069  32.141  29.019   4.803
67645W        W40070  18.722   4.521   1.446
67646W        W40071   2.117  13.505   4.073
67647W        W40072  44.811  36.838  13.391
67648W        W40073   4.699  43.161  13.454
67649W        W40074  15.282  42.394  12.395
67650W        W40075  16.197  25.481   2.737
67651W        W40076   2.823  33.580  14.948
67652W        W40077  17.486  15.820  12.970
67653W        W40078  18.282  37.859   3.774
67654W        W40079   6.235  12.562  10.467
67655W        W40080  31.164  43.560  14.973
67656W        W40081  31.931   9.795  13.836
67657W        W40082  12.690   6.434   3.777
67658W        W40083  36.093  43.109   2.912
67659W        W40084   0.503  18.215  11.743
67660W        W40085  24.981   9.803  10.673
67661W        W40086  34.584  20.668  14.348
67662W        W40087  27.661  31.802   0.772
67663W        W40088  24.226  30.657  13.882
67664W        W40089  31.967   9.261  10.780
67665W        W40090  18.112  36.282  13.516
67666W        W40091   9.924  43.010  12.039
67667W        W40092  18.771  11.182  13.126
67668W        W40093  12.860  25.668   1.505
67669W        W40094  38.652   0.952   2.239
67670W        W40095  34.585  20.915  11.198
67671W        W40096  39.069  37.102  10.442
67672W        W40097  37.958   5.352   1.198
67673W        W40098  20.964  11.053   4.695
67674W        W40099  21.102   2.433   3.900
67675W        W40100   3.933   4.340  12.884
67676W        W40101  10.754   2.603  12.842
67677W        W40102   2.938  21.730  13.508
67678W        W40103  40.131  36.822   3.364
67679W        W40104  40.310  17.017   0.415
67680W        W40105  38.797  31.627   0.389
67681W        W40106   4.660   3.807  12.772
67682W        W40107   4.361  38.539  13.014
67683W        W40108  29.473  39.384  12.762
67684W        W40109   7.445  27.903   0.438
67685W        W40110   4.181   6.865   1.711
67686W        W40111   1.897  21.056  10.149
67687W        W40112   9.922   9.201   2.273
67688W        W40113  18.121  33.352  12.119
67689W        W40114  33.143   8.275  13.103
67690W        W40115  19.037  27.612  11.031
67691W        W40116  42.985   2.307  14.307
67692W        W40117  22.121  20.998  12.579
67693W        W40118  29.165  41.138  12.242
67694W        W40119  40.571  28.557   2.640
67695W        W40120   7.705  14.324  12.438
67696W        W40121  18.530  25.665  13.384
67697W        W40122  34.127  29.220   2.225
67698W        W40123  39.784  14.822   0.421
67699W        W40124   8.742  38.439   2.881
67700W        W40125  11.416  43.857  11.911
67701W        W40126  21.252  23.807  13.856
67702W        W40127  44.823  33.545   9.696
67703W        W40128  12.597   2.656   1.997
67704W        W40129  39.067  44.752   5.477
67705W        W40130  33.802   2.776   2.300
67706W        W40131   5.768  25.163   1.359
67707W        W40132  26.064  26.260   1.436
67708W        W40133   3.558  22.478  14.372
67709W        W40134  14.934  39.623  14.747
67710W        W40135  33.207  11.059   3.251
67711W        W40136  26.197  20.137   1.471
67712W        W40137  11.569   3.917   1.489
67713W        W40138  39.233  15.587   0.717
67714W        W40139  16.584  33.045   0.895
67715W        W40140  31.039   9.781  13.418
67716W        W40141   0.379  31.993   2.245
67717W        W40142  35.618  19.149  13.824
67718W        W40143  28.470  16.639  13.380
67719W        W40144  20.373   2.908  11.513
67720W        W40145  15.304  12.430   0.877
67721W        W40146  27.700   2.921   0.925
67722W        W40147  37.787  42.842   3.060
67723W        W40148   3.298  35.865  12.999
67724W        W40149   2.746   2.471  12.503
67725W        W40150  32.476  38.238   1.713
67726W        W40151  30.547  39.791  13.859
67727W        W40152  18.502   9.777   1.784
67728W        W40153  21.038  33.409  10.884
67729W        W40154  18.470  33.439  14.791
67730W        W40155  24.478  36.019  14.977
67731W        W40156  34.774  12.487  11.701
67732W        W40157   4.064  15.790  13.499
67733W        W40158   1.374   4.672   3.621
67734W        W40159  32.953  11.075  14.788
67735W        W40160  12.234  31.985  13.500
67736W        W40161  33.106  32.801  11.059
67737W        W40162  37.967  26.134  12.460
67738W        W40163   4.856  15.816   3.162
67739W        W40164  36.193  22.206  14.263
67740W        W40165  40.447  34.456  14.924
67741W        W40166  28.135  24.785  13.892
67742W        W40167  29.301   9.448  12.402
67743W        W40168   9.061  39.932   3.736
67744W        W40169  39.063   0.683  11.476
67745W        W40170  26.593  11.510  12.145
67746W        W40171  10.508  22.617  10.544
67747W        W40172  23.148  28.565   4.258
67748W        W40173  17.564  34.487   1.391
67749W        W40174  28.394  38.292   0.300
67750W        W40175  37.869  22.668   5.531
67751W        W40176  25.462   3.875   2.149
67752W        W40177  16.012  31.957  12.061
67753W        W40178  41.501  13.163  12.923
67754W        W40179  19.072  43.297  12.190
67755W        W40180  15.212  44.309  11.001
67756W        W40181  13.651  17.121  12.608
67757W        W40182  42.186  35.593  12.170
67758W        W40183  41.053  31.991   4.281
67759W        W40184  29.547  31.835   2.327
67760W        W40185  23.510  11.149   3.533
67761W        W40186   2.174  42.293   0.256
67762W        W40187  15.383  10.298   1.216
67763W        W40188   0.215  16.615  12.603
67764W        W40189  16.228  38.123   4.189
67765W        W40190  41.926  21.451   2.603
67766W        W40191  39.913   2.680   2.799
67767W        W40192  19.492  17.249   0.822
67768W        W40193  29.828  31.320  10.036
67769W        W40194  16.905  44.992   2.760
67770W        W40195  42.899   3.205   1.397
67771W        W40196  29.660  39.964   3.898
67772W        W40197  35.543  17.755  10.378
67773W        W40198   0.279  36.241   1.523
67774W        W40199  42.870  14.214  10.676
67775W        W40200  28.002  23.203   4.916
67776W        W40201   4.937  12.875  10.098
67777W        W40202  20.008  10.888   3.373
67778W        W40203   2.184  24.185   1.343
67779W        W40204  18.142  43.633  10.431
67780W        W40205   3.504  11.876   2.705
67781W        W40206  23.607  27.530  11.328
67782W        W40207   0.280  14.863  11.037
67783W        W40208  32.554   7.220  10.955
67784W        W40209  12.049  20.543   2.040
67785W        W40210  20.386  38.503  12.878
67786W        W40211  13.799  44.448   0.504
67787W        W40212  18.554  40.314   1.374
67788W        W40213  20.338   9.265   4.359
67789W        W40214   8.685   8.869  12.440
67790W        W40215   4.782   0.340  14.744
67791W        W40216  21.198  16.987   0.072
67792W        W40217  19.060  25.843  13.326
67793W        W40218  31.092  30.685  13.395
67794W        W40219  11.771   6.379   3.563
67795W        W40220  41.492  23.994   5.102
67796W        W40221  32.148   5.317   1.341
67797W        W40222   2.977  41.908   3.186
67798W        W40223  11.918  23.219   1.774
67799W        W40224  37.887   1.490   1.749
67800W        W40225  26.130  39.186   1.786
67801W        W40226  19.035  39.400   4.678
67802W        W40227  16.663  14.406   3.613
67803W        W40228  13.275  30.031  13.454
67804W        W40229  26.619  18.847   0.999
67805W        W40230  32.679  23.593   0.252
67806W        W40231  36.040  19.449  14.132
67807W        W40232  25.631   9.712  12.405
67808W        W40233  43.906   3.745   1.707
67809W        W40234  15.544  38.936   2.772
67810W        W40235   4.515  18.102  10.110
67811W        W40236  20.252  16.191   2.960
67812W        W40237  44.803  18.709   0.716
67813W        W40238  37.605  44.446   0.485
67814W        W40239  10.690  26.234  12.106
67815W        W40240  39.352  11.847  13.410
67816W        W40241   2.229  16.022   2.907
67817W        W40242  18.479  26.073   2.768
67818W        W40243  32.541  35.341  12.027
67819W        W40244  44.223  13.106   4.221
67820W        W40245  41.677  39.395  13.483
67821W        W40246  17.261  26.870   3.681
67822W        W40247  34.004  42.233   3.652
67823W        W40248  27.232  16.195  13.864
67824W        W40249  16.617  38.850   1.177
67825W        W40250  19.835  12.736   1.873
67826W        W40251  17.486  35.814  11.165
67827W        W40252  17.270   0.001   1.434
67828W        W40253  16.046   7.506  14.954
67829W        W40254   7.564  43.073  12.419
67830W        W40255  37.031  22.675  13.340
67831W        W40256   2.227  25.131  13.521
67832W        W40257  12.229  30.413   2.546
67833W        W40258  39.163  35.906   3.715
67834W        W40259   1.043   0.743  11.615
67835W        W40260  17.729  43.874   3.289
67836W        W40261  25.019  20.030   3.294
67837W        W40262  30.309  33.832  12.413
67838W        W40263  25.141  27.413  12.043
67839W        W40264  32.790  16.054   2.397
67840W        W40265  10.217   7.796   4.117
67841W        W40266  32.125  32.349  13.805
67842W        W40267  38.823  10.378   1.920
67843W        W40268  12.853  19.122   3.861
67844W        W40269  19.596  15.179  11.052
67845W        W40270   9.497  43.038  12.370
67846W        W40271  37.301  21.609  13.150
67847W        W40272  17.193   4.055  12.573
67848W        W40273  31.890   1.891  13.334
67849W        W40274  44.856  44.504   0.107
67850W        W40275   1.033  37.829  14.097
67851W        W40276  25.189   7.368  11.470
67852W        W40277  36.600  29.444  13.995
67853W        W40278  12.773  32.093   4.118
67854W        W40279  39.193  18.517  10.385
67855W        W40280  40.558  27.962  10.606
67856W        W40281   7.010  30.037  13.135
67857W        W40282  42.922  13.811  13.087
67858W        W40283  38.478   6.479  13.767
67859W        W40284  27.123  39.253  10.421
67860W        W40285  10.836  10.833   4.600
67861W        W40286  42.962  18.810  10.618
67862W        W40287  38.885  10.177  12.904
67863W        W40288  24.729  26.475   0.452
67864W        W40289  43.070  17.038  11.918
67865W        W40290  30.420   3.692  14.064
67866W        W40291  41.193   6.284  13.570
67867W        W40292   0.368  11.347   2.525
67868W        W40293  30.626  30.055  12.460
67869W        W40294  36.381  36.440   1.002
67870W        W40295  21.081   6.405  14.554
67871W        W40296  33.937  38.338   4.002
67872W        W40297   2.781  17.784   0.241
67873W        W40298  36.556  12.662   3.830
67874W        W40299  38.641  17.167   0.743
67875W        W40300  14.813  19.207   2.947
67876W        W40301  40.291  19.047   0.338
67877W        W40302  42.709  43.778   3.173
67878W        W40303  29.666  12.095   0.848
67879W        W40304  42.941  27.505   0.014
67880W        W40305  44.093  15.670  11.509
67881W        W40306  28.660  31.301   2.370
67882W        W40307   0.192   2.980   2.491
67883W        W40308   7.594  23.516   4.191
67884W        W40309  43.149  22.172  12.140
67885W        W40310  14.868  37.031  14.787
67886W        W40311  21.622  25.487   0.470
67887W        W40312   4.696  26.906   0.312
67888W        W40313  25.253   8.647   3.565
67889W        W40314  16.846  19.446  12.348
67890W        W40315  10.869  21.514  13.528
67891W        W40316  30.508  22.714  11.018
67892W        W40317  16.365  12.672  11.467
67893W        W40318  32.076  25.955  14.320
67894W        W40319  24.464  16.323   2.222
67895W        W40320  18.845  26.989  13.986
67896W        W40321  20.971  16.722  11.937
67897W        W40322  16.044  32.058   1.823
67898W        W40323   0.448  29.999   3.288
67899W        W40324  17.099  36.888  13.051
67900W        W40325  24.064   0.932  11.580
67901W        W40326   7.501  31.412  14.128
67902W        W40327  14.138  32.502  11.565
67903W        W40328  31.806  42.976   3.668
67904W        W40329   6.199  19.531  13.235
67905W        W40330  42.837  16.676   1.658
67906W        W40331  16.173   8.154  13.407
67907W        W40332  41.952  31.371  14.900
67908W        W40333  14.652   7.249   2.695
67909W        W40334  35.613  34.061   4.130
67910W        W40335  31.184  39.889  12.618
67911W        W40336  19.847  18.679  13.017
67912W        W40337   0.430  37.723  11.058
67913W        W40338  12.442  21.056  12.549
67914W        W40339  13.249  19.757   0.178
67915W        W40340   3.216  23.060   1.311
67916W        W40341  37.301   4.696   0.331
67917W        W40342  10.357  25.641  11.668
67918W        W40343  26.585  17.654  10.864
67919W        W40344  19.576   3.012  11.164
67920W        W40345  29.027  37.852   1.185
67921W        W40346  11.546  29.662   0.437
67922W        W40347  13.123  33.074   4.624
67923W        W40348  28.189  16.842  14.775
67924W        W40349  28.058  37.426   0.744
67925W        W40350  40.088  19.738   2.206
67926W        W40351  33.339  39.985  14.259
67927W        W40352  44.728  28.015  10.987
67928W        W40353  29.858  18.305   1.391
67929W        W40354  11.290  22.106  13.354
67930W        W40355  25.248  43.774   0.508
67931W        W40356  42.901  36.602   1.221
67932W        W40357  44.949  22.673   4.647
67933W        W40358  12.260   4.123  12.540
67934W        W40359  12.656  16.045  10.669
67935W        W40360  27.623  24.324  11.532
67936W        W40361  15.707   8.410  13.579
67937W        W40362  40.346   4.894  14.531
67938W        W40363   7.220  30.850   4.039
67939W        W40364  37.237  42.363  13.775
67940W        W40365  37.966   8.927  11.043
67941W        W40366  39.830  40.869   0.825
67942W        W40367   2.520  11.666  12.316
67943W        W40368  14.171   2.834   2.854
67944W        W40369  42.263  29.429   0.795
67945W        W40370  44.059  41.295   2.182
67946W        W40371  38.773   3.385   0.362
67947W        W40372  18.752  28.918  11.598
67948W        W40373  31.684  23.741   0.474
67949W        W40374   5.770  10.836  11.114
67950W        W40375  11.855  43.324   4.057
67951W        W40376  12.216   9.738  10.781
67952W        W40377  14.934  20.882  11.077
67953W        W40378  27.272  43.101  14.089
67954W        W40379  17.762  11.281   3.658
67955W        W40380  31.578  40.025  14.601
67956W        W40381  23.656  41.414  13.864
67957W        W40382  19.218  22.662  13.866
67958W        W40383   8.120   9.606  11.100
67959W        W40384   6.396  25.888  11.978
67960W        W40385  27.655  41.851   1.282
67961W        W40386  10.692   7.456  13.062
67962W        W40387  43.870  14.573  14.885
67963W        W40388  11.421  33.819  14.362
67964W        W40389  10.407  40.002  11.677
67965W        W40390  18.222  18.798   4.155
67966W        W40391  28.229  21.487   0.321
67967W        W40392   9.349  37.605  12.961
67968W        W40393  25.464  44.996  13.803
67969W        W40394  13.249  27.167   2.687
67970W        W40395   1.789  35.574  14.830
67971W        W40396  33.775  13.373   0.362
67972W        W40397  37.950  19.300  14.501
67973W        W40398   5.351  42.179  14.888
67974W        W40399  30.715  10.423   0.394
67975W        W40400  43.748  37.051   0.283
67976W        W40401  42.869   6.680   3.123
67977W        W40402  25.019  12.401  13.513
67978W        W40403  36.745  29.601   1.710
67979W        W40404  24.664  44.542  14.901
67980W        W40405  15.851  34.541  10.362
67981W        W40406  14.589  24.095   5.122
67982W        W40407  43.430   1.846  11.160
67983W        W40408  18.692  40.591  13.562
67984W        W40409  20.347  16.636   3.227
67985W        W40410  40.954   2.251   0.302
67986W        W40411  38.481  35.272  10.724
67987W        W40412  19.195  26.680  11.520
67988W        W40413  24.863   9.259  10.209
67989W        W40414   5.806   7.019  12.850
67990W        W40415  17.020   7.882   0.894
67991W        W40416  28.294  41.932   0.230
67992W        W40417   4.824  10.612  13.720
67993W        W40418  16.634  37.681  12.958
67994W        W40419  13.168  23.937   2.785
67995W        W40420  12.683  35.387  12.957
67996W        W40421  34.066  31.869   4.500
67997W        W40422  34.468  15.368   1.912
67998W        W40423  40.779  42.096  11.234
67999W        W40424  25.657  17.863  11.421
68000W        W40425  37.547   2.741   4.063
68001W        W40426  36.153  42.054   0.863
68002W        W40427   7.791  25.416   2.335
68003W        W40428  25.273  43.510   4.887
68004W        W40429  32.107  44.146  12.379
68005W        W40430   5.854  31.535   3.344
68006W        W40431  37.985  21.646   3.099
68007W        W40432  27.554  12.176   1.176
68008W        W40433  19.446  14.170   4.145
68009W        W40434   3.791  39.131   3.132
68010W        W40435  19.099  19.088   0.018
68011W        W40436  11.099  21.515  14.410
68012W        W40437  36.272  24.999  14.426
68013W        W40438   8.103  32.469   0.420
68014W        W40439  28.208  21.013   1.472
68015W        W40440   5.441  23.667  12.816
68016W        W40441  22.322  39.841   2.856
68017W        W40442  38.547  19.295   2.157
68018W        W40443  10.470  38.920  14.773
68019W        W40444   3.978  10.858   3.116
68020W        W40445  17.739  43.502  12.077
68021W        W40446  38.475  26.139  13.637
68022W        W40447  33.002  14.641  11.209
68023W        W40448   7.640  43.345   2.762
68024W        W40449  26.237  25.450  10.698
68025W        W40450  17.252   0.285  10.204
68026W        W40451   3.446  37.975  12.210
68027W        W40452   9.277  25.030   2.827
68028W        W40453  36.478  41.553   1.332
68029W        W40454   4.622  24.112  13.266
68030W        W40455   6.893   1.227   4.334
68031W        W40456  21.184  18.221  14.875
68032W        W40457  19.256  19.745   1.760
68033W        W40458  25.910  36.052   0.368
68034W        W40459   2.472  34.611  12.957
68035W        W40460  22.764  44.995  10.268
68036W        W40461  42.494  28.457  10.703
68037W        W40462  23.775  16.894  14.784
68038W        W40463  18.559   3.977   1.429
68039W        W40464   8.762  38.060   1.424
68040W        W40465  20.773   6.363  12.478
68041W        W40466  10.620  13.708   3.034
68042W        W40467   2.287  23.092   4.664
68043W        W40468  38.462  14.901  14.241
68044W        W40469  44.387  27.749  10.249
68045W        W40470  35.319  33.365  11.178
68046W        W40471  40.146  30.364   1.856
68047W        W40472  39.294  28.988  11.964
68048W        W40473   1.925  42.527   1.043
68049W        W40474   5.711  15.283   1.749
68050W        W40475   4.037   0.619   2.297
68051W        W40476  29.480  28.465  11.976
68052W        W40477  14.556   0.767  10.452
68053W        W40478  26.879  38.974   1.040
68054W        W40479  43.079  16.089  11.010
68055W        W40480  34.800  15.620   1.217
68056W        W40481   6.849  32.319  13.607
68057W        W40482  25.966  34.313  10.855
68058W        W40483  31.302  40.746   2.079
68059W        W40484  32.708   2.352   3.220
68060W        W40485  39.242   9.461  13.926
68061W        W40486  21.933   7.173   0.896
68062W        W40487  21.239  11.835   2.754
68063W        W40488  32.507  27.012   0.653
68064W        W40489  42.091  28.933  14.943
68065W        W40490  27.035  17.935  13.446
68066W        W40491  39.572  32.630   0.199
68067W        W40492  31.172  42.093  12.998
68068W        W40493   3.740  20.513  11.178
68069W        W40494   9.338   5.654   1.931
68070W        W40495  43.280  36.898  14.166
68071W        W40496  42.528  27.953   1.152
68072W        W40497   5.155   9.026   3.692
68073W        W40498  42.346  14.584  12.044
68074W        W40499   2.239   0.684   3.196
68075W        W40500  41.256  20.023   1.442
68076W        W40501  31.108  22.399   2.124
68077W        W40502   6.954  25.723  11.183
68078W        W40503  28.794  23.059   4.899
68079W        W40504  35.677   1.292  14.970
68080W        W40505   7.182  42.087   4.149
68081W        W40506  36.555   7.896   2.845
68082W        W40507  44.836  41.280   3.717
68083W        W40508  18.629  27.046   2.831
68084W        W40509  34.847  14.842   4.024
68085W        W40510   9.451  33.411   2.728
68086W        W40511  35.123  20.622   1.926
68087W        W40512  39.847   0.713  11.140
68088W        W40513  35.510  21.283  11.981
68089W        W40514  13.850  10.380  11.466
68090W        W40515  13.117   3.843   3.897
68091W        W40516  35.745  15.999   0.002
68092W        W40517  40.580  31.770   0.874
68093W        W40518  18.004   3.956   0.005
68094W        W40519  17.195   6.123   0.846
68095W        W40520  19.312  39.512  12.383
68096W        W40521   8.210  33.204  13.605
68097W        W40522  16.794  17.953  14.436
68098W        W40523   1.800  30.024  13.153
68099W        W40524  20.841  13.573   1.668
68100W        W40525  30.571  22.022   3.252
68101W        W40526  27.877   3.251   5.055
68102W        W40527  16.643  36.000  13.369
68103W        W40528  24.485   9.232  11.532
68104W        W40529   9.264  44.528  10.577
68105W        W40530  34.057  19.266  12.967
68106W        W40531  23.555  26.757   3.713
68107W        W40532  13.039  19.838   4.276
68108W        W40533   8.269  21.559  10.903
68109W        W40534  18.561   3.974   3.171
68110W        W40535  20.468  26.640  10.237
68111W        W40536   7.627  10.581  13.427
68112W        W40537  17.694  41.977  14.879
68113W        W40538  35.393  20.920   1.431
68114W        W40539  35.674  23.000   9.781
68115W        W40540  31.620  28.993   4.740
68116W        W40541  41.842  40.974  11.879
68117W        W40542  17.264   3.170  12.010
68118W        W40543   7.260  31.674   4.653
68119W        W40544  32.688  43.855   0.800
68120W        W40545  37.459  21.031   0.056
68121W        W40546  30.266   9.240  13.488
68122W        W40547   1.016  25.211  14.802
68123W        W40548  35.138  11.798  10.665
68124W        W40549   0.346  42.117   1.268
68125W        W40550   4.423   4.523  10.555
68126W        W40551  40.501   6.951   3.614
68127W        W40552  28.599  27.028   3.246
68128W        W40553  44.483   4.156   0.488
68129W        W40554  16.523   0.263   2.349
68130W        W40555  16.268  16.061   3.344
68131W        W40556  21.742  23.563   0.641
68132W        W40557  18.216  28.971   2.254
68133W        W40558  43.578   3.443  11.010
68134W        W40559  11.847  32.438  14.907
68135W        W40560  10.568  38.305  13.063
68136W        W40561  30.111  23.317  13.946
68137W        W40562  35.008   3.695   2.671
68138W        W40563  13.356  41.875   0.280
68139W        W40564  30.017  29.889  12.968
68140W        W40565  12.082   8.752  11.102
68141W        W40566  27.077  27.491   3.885
68142W        W40567   1.384   7.707  13.473
68143W        W40568  30.506   3.186  10.511
68144W        W40569  28.018  18.290  10.476
68145W        W40570  15.604  29.497   0.927
68146W        W40571  32.478  35.754  12.861
68147W        W40572  16.839  43.221   2.344
68148W        W40573  34.282  15.427   2.410
68149W        W40574  26.434  23.468   0.965
68150W        W40575  27.290  32.148   0.926
68151W        W40576  12.322  17.782   2.803
68152W        W40577   8.469  38.449   4.783
68153W        W40578  40.569  26.850   1.925
68154W        W40579  24.195   4.810  12.142
68155W        W40580  15.497   5.590   0.015
68156W        W40581  38.119   8.849   2.811
68157W        W40582  21.232  24.422  14.868
68158W        W40583  23.479  28.514  12.673
68159W        W40584  36.530  28.491   4.449
68160W        W40585  10.274  32.171   4.688
68161W        W40586   5.729  10.104   2.715
68162W        W40587  12.718   8.664   0.717
68163W        W40588  22.838  27.935   0.727
68164W        W40589  18.800  14.718  11.471
68165W        W40590  34.084  20.702  10.465
68166W        W40591  28.922  41.464  11.895
68167W        W40592  21.628   3.493  13.424
68168W        W40593  17.105  29.190   1.367
68169W        W40594  10.225   2.220   1.464
68170W        W40595  37.119  41.782   2.565
68171W        W40596   3.358  44.359  12.425
68172W        W40597  37.112  28.509   2.688
68173W        W40598  33.106  17.121   2.292
68174W        W40599   7.933  31.946   0.374
68175W        W40600  23.830  40.820  11.210
68176W        W40601  11.206  25.007  11.887
68177W        W40602   5.014  30.833  13.272
68178W        W40603  32.188  17.852  10.733
68179W        W40604  41.975  16.528  12.393
68180W        W40605  35.465   7.817   3.214
68181W        W40606  35.356   1.901   4.130
68182W        W40607  33.932   4.180  14.812
68183W        W40608  34.298  30.122  12.975
68184W        W40609  10.767  26.713  13.000
68185W        W40610  13.212   0.090   3.686
68186W        W40611   1.599  21.654   2.402
68187W        W40612  18.729  23.999   3.036
68188W        W40613  28.125   7.996  11.543
68189W        W40614  15.498  41.075   4.368
68190W        W40615  16.552   3.374  13.137
68191W        W40616  16.321   5.871  11.820
68192W        W40617  26.135  26.969   3.988
68193W        W40618   8.482  14.633   1.504
68194W        W40619  20.766  22.133  10.495
68195W        W40620   2.106   0.948  10.625
68196W        W40621  14.350  12.225   4.296
68197W        W40622  11.711  30.686   0.859
68198W        W40623   9.680  12.878  10.709
68199W        W40624  28.052  18.819  14.707
68200W        W40625  18.796  30.189   1.969
68201W        W40626   1.451  41.774   0.101
68202W        W40627  42.457   6.445  14.989
68203W        W40628  29.767   6.151  12.588
68204W        W40629  38.423  42.841  11.481
68205W        W40630   7.442   1.725   3.595
68206W        W40631  19.547  14.154   3.298
68207W        W40632   5.005  34.387   3.886
68208W        W40633  18.417  14.232   4.021
68209W        W40634  25.707  39.393   3.834
68210W        W40635  16.334  16.012   3.848
68211W        W40636   0.756  10.145   0.276
68212W        W40637  40.715  16.128  14.887
68213W        W40638   4.154  31.007  13.369
68214W        W40639  12.155  23.738   1.896
68215W        W40640   4.439   1.053  14.952
68216W        W40641  44.560   8.421  10.483
68217W        W40642  36.434  13.682  13.050
68218W        W40643  32.404  41.450  12.099
68219W        W40644  18.801  42.133  11.113
68220W        W40645  42.688   4.421   2.861
68221W        W40646  19.420  17.897  14.308
68222W        W40647   0.363   3.719  12.901
68223W        W40648   1.389  21.982  14.007
68224W        W40649   2.921  17.902  14.351
68225W        W40650  37.923  42.570  11.054
68226W        W40651   6.789  37.996  14.886
68227W        W40652   8.945   9.930  14.414
68228W        W40653  15.800  11.619   1.304
68229W        W40654  30.894  44.167  10.056
68230W        W40655  12.765   0.027  13.861
68231W        W40656  39.803   3.341  14.264
68232W        W40657  44.949  10.063  11.061
68233W        W40658  13.333  41.016  11.675
68234W        W40659  13.166  40.528  11.689
68235W        W40660   9.200  40.191   0.430
68236W        W40661  29.639  43.338   4.263
68237W        W40662  36.420  32.016  14.760
68238W        W40663   5.917  27.071  13.494
68239W        W40664   3.003   7.718  14.984
68240W        W40665   4.134  27.290  11.129
68241W        W40666  40.533  11.686   1.346
68242W        W40667   8.646  38.885  12.230
68243W        W40668  24.162  14.620  14.579
68244W        W40669   7.200  18.626   2.619
68245W        W40670  18.524  29.989  13.571
68246W        W40671  15.701  17.222   3.610
68247W        W40672  41.731   1.799   3.674
68248W        W40673  41.900  22.748  14.500
68249W        W40674  36.006  44.782  13.417
68250W        W40675  15.785   8.795   2.697
68251W        W40676  42.332  30.150  14.402
68252W        W40677  11.582  24.492   2.897
68253W        W40678  36.618  35.046   1.369
68254W        W40679   3.545  30.382  12.672
68255W        W40680  29.695  29.037   3.295
68256W        W40681  44.379   9.804  13.558
68257W        W40682  33.603  27.182  14.203
68258W        W40683   3.468   4.862  10.679
68259W        W40684  13.344  12.794   0.929
68260W        W40685  27.370  40.298   2.732
68261W        W40686  14.153  22.234   9.790
68262W        W40687  21.172  39.770  13.454
68263W        W40688  39.584  18.237   3.630
68264W        W40689   2.310   0.246  11.885
68265W        W40690   9.946  33.544  11.751
68266W        W40691  23.312  38.549  13.945
68267W        W40692  36.278  30.710   3.751
68268W        W40693  26.808  14.866  11.151
68269W        W40694  44.790  39.891   0.444
68270W        W40695  41.548  26.592   2.305
68271W        W40696   8.206  16.558   3.295
68272W        W40697  11.929  37.860  14.202
68273W        W40698   6.112  14.614   2.824
68274W        W40699  15.211  14.015   3.836
68275W        W40700  38.548  21.502  12.477
68276W        W40701  19.528  18.974  14.746
68277W        W40702  32.392  21.293  11.514
68278W        W40703   5.934   0.902  10.861
68279W        W40704  19.135  44.912   4.660
68280W        W40705  34.498  43.878   4.592
68281W        W40706  15.646  19.074  10.647
68282W        W40707  12.178  17.622   4.199
68283W        W40708   3.732   4.430  14.053
68284W        W40709  37.490   5.153   0.444
68285W        W40710   1.482   5.435  14.873
68286W        W40711   3.109  18.683   4.997
68287W        W40712  34.536  16.505   4.184
68288W        W40713   0.270  27.697   3.778
68289W        W40714  23.081  28.025  10.216
68290W        W40715  15.311  33.489  14.188
68291W        W40716  11.418  22.414  11.128
68292W        W40717  36.785  28.583   0.859
68293W        W40718   3.986  19.527   3.415
68294W        W40719   6.499   7.123  12.038
68295W        W40720  30.819   4.570  13.857
68296W        W40721   8.091  22.068  11.530
68297W        W40722  12.283  11.730  11.560
68298W        W40723   7.776  28.673  14.371
68299W        W40724  17.094  16.768  11.936
68300W        W40725  18.826  26.107   4.892
68301W        W40726  34.019  14.635   1.705
68302W        W40727  38.513  24.157  14.864
68303W        W40728  23.133   2.635   2.391
68304W        W40729   2.359   9.641   1.783
68305W        W40730   4.514   2.852  14.449
68306W        W40731   5.796  44.794  13.287
68307W        W40732  19.555  20.741   1.822
68308W        W40733  35.311  40.891   0.802
68309W        W40734  17.589  14.293   2.009
68310W        W40735   1.391  12.925  10.532
68311W        W40736  35.009  11.577  14.313
68312W        W40737  21.850  10.393  10.293
68313W        W40738  43.892  33.047   2.949
68314W        W40739  44.058  35.609   0.841
68315W        W40740  25.467  37.404  13.330
68316W        W40741  32.453  22.664   3.356
68317W        W40742  13.654  34.572   0.281
68318W        W40743   1.415  39.471   1.231
68319W        W40744   5.942  20.165   0.906
68320W        W40745  21.752  34.513   1.755
68321W        W40746   3.108  20.192   1.326
68322W        W40747  28.296  20.295  12.111
68323W        W40748  36.187   4.169   0.051
68324W        W40749  31.430  13.851   0.200
68325W        W40750   9.097   2.830   0.766
68326W        W40751  19.131  18.114   3.163
68327W        W40752   5.134  31.092  12.129
68328W        W40753   5.648  17.962   4.689
68329W        W40754  39.824   7.146  14.970
68330W        W40755  26.616  16.296  10.433
68331W        W40756   2.850  12.790   3.309
68332W        W40757  21.786  41.005   3.165
68333W        W40758   4.605  39.849  14.503
68334W        W40759   7.964  26.682  11.824
68335W        W40760   1.696  11.128  10.620
68336W        W40761  19.380  11.930  11.823
68337W        W40762  34.178   1.154  11.905
68338W        W40763  21.275   9.191  14.160
68339W        W40764  41.574  32.461   0.862
68340W        W40765  20.256  40.526  12.163
68341W        W40766   0.146  33.581   1.714
68342W        W40767  41.527  16.293  13.601
68343W        W40768  20.288   3.369  14.770
68344W        W40769  35.828  25.450   4.989
68345W        W40770  32.612  32.966  12.204
68346W        W40771  34.016   5.000   0.406
68347W        W40772  40.144  28.008   1.321
68348W        W40773   0.791  10.065  11.437
68349W        W40774  15.038  16.442   0.826
68350W        W40775  17.548   7.224  13.698
68351W        W40776  20.546   5.724  11.433
68352W        W40777  14.768  10.159   1.046
68353W        W40778  35.486  10.588  11.077
68354W        W40779  36.118  12.142   4.174
68355W        W40780  11.364  36.429  12.664
68356W        W40781   9.099  19.156  14.523
68357W        W40782   2.702  10.868   2.692
68358W        W40783  10.313  31.418  13.996
68359W        W40784  10.020  13.836  12.492
68360W        W40785   5.682   9.026   1.497
68361W        W40786   9.802  17.163  13.927
68362W        W40787  40.268   9.912  10.781
68363W        W40788  16.668  38.474  11.098
68364W        W40789  35.484  28.144   2.111
68365W        W40790  35.171   5.699   0.022
68366W        W40791  10.280  11.438   2.730
68367W        W40792  43.294  21.809  10.907
68368W        W40793  16.742  28.993  12.018
68369W        W40794  15.601  44.452   1.731
68370W        W40795  29.034  15.578  12.089
68371W        W40796  20.895  33.156  11.588
68372W        W40797  11.429   9.079   4.888
68373W        W40798   2.262  18.987  14.763
68374W        W40799  25.560  26.601   3.632
68375W        W40800  35.460  27.775  12.863
68376W        W40801  29.096  40.927   0.216
68377W        W40802  43.859  15.536   0.819
68378W        W40803  41.180  18.508  14.011
68379W        W40804  39.589  19.673   0.779
68380W        W40805  17.612  37.423   1.647
68381W        W40806  43.542  42.237  13.725
68382W        W40807   4.318  31.155  10.654
68383W        W40808  29.046  36.842  12.477
68384W        W40809  38.159   7.222   3.275
68385W        W40810   7.390   5.949  12.083
68386W        W40811  14.142   3.430   0.932
68387W        W40812  34.492  40.991   3.177
68388W        W40813  42.903  21.543   3.228
68389W        W40814   4.958  32.078   2.642
68390W        W40815  12.214   1.520   4.540
68391W        W40816  10.144   9.315  12.850
68392W        W40817   2.367  14.093  13.110
68393W        W40818   3.980  19.109   0.910
68394W        W40819  42.392  44.185   3.327
68395W        W40820   5.873  35.090   0.437
68396W        W40821  31.168  34.269  10.844
68397W        W40822  24.440  42.846  10.963
68398W        W40823  32.553  21.139   4.639
68399W        W40824   6.442   1.258  14.329
68400W        W40825  12.601  19.095   1.786
68401W        W40826  37.670  37.071   3.171
68402W        W40827  17.288   1.507   1.823
68403W        W40828  43.999  19.510   0.829
68404W        W40829  31.337  43.288   2.293
68405W        W40830  32.476  22.505   1.236
68406W        W40831  13.018  11.140   3.684
68407W        W40832  23.524  22.400   3.070
68408W        W40833  39.755  36.975   0.914
68409W        W40834   3.301  42.987   4.179
68410W        W40835  41.049   8.693  12.906
68411W        W40836  17.509  38.426   3.699
68412W        W40837  31.027  24.359  14.126
68413W        W40838   8.304  15.459   1.281
68414W        W40839  40.431   2.732  14.049
68415W        W40840  24.986  43.455  14.398
68416W        W40841  30.094  33.411   1.340
68417W        W40842   1.578  12.806   0.076
68418W        W40843  18.867   1.482  10.072
68419W        W40844  14.794  36.405   0.457
68420W        W40845  36.337   3.991   3.173
68421W        W40846   3.271  26.106   4.230
68422W        W40847   8.317   9.396   1.177
68423W        W40848  17.941  29.319  12.982
68424W        W40849  16.944  32.798   5.129
68425W        W40850   3.941  17.546   1.802
68426W        W40851  10.599  29.385   0.091
68427W        W40852  14.894  13.057   4.324
68428W        W40853  29.144  10.601   1.611
68429W        W40854  10.114  36.329   4.691
68430W        W40855  23.586  27.615  12.357
68431W        W40856  44.958  37.621   1.306
68432W        W40857  37.265  10.243  10.863
68433W        W40858  26.240  12.257   2.370
68434W        W40859  12.043  42.310   2.698
68435W        W40860  38.313  11.752  11.846
68436W        W40861   1.110   3.810   3.088
68437W        W40862  25.646  18.534   1.954
68438W        W40863  23.738  44.734   0.748
68439W        W40864  14.889   6.845   2.256
68440W        W40865  15.917  15.161  11.546
68441W        W40866   5.413  36.818  14.323
68442W        W40867  16.015   1.736  10.702
68443W        W40868  26.161  10.630   0.950
68444W        W40869   6.312  25.519  13.328
68445W        W40870  43.882  19.464  11.540
68446W        W40871  25.757  30.387  11.302
68447W        W40872  28.094  17.214   4.574
68448W        W40873  37.585   4.929  12.572
68449W        W40874  32.586  12.618   3.402
68450W        W40875  14.284  42.910  11.883
68451W        W40876  43.299   4.473   0.837
68452W        W40877  11.397  36.975   0.287
68453W        W40878  30.657  33.767   2.092
68454W        W40879   2.262   5.852   4.669
68455W        W40880  14.179  16.222   3.713
68456W        W40881  40.346  44.032   0.320
68457W        W40882   6.987  40.430   4.116
68458W        W40883  15.194   0.489  14.275
68459W        W40884  17.252  11.772  12.882
68460W        W40885  28.196  43.263   4.738
68461W        W40886  36.616  12.413   0.729
68462W        W40887  39.751   4.017   1.702
68463W        W40888  31.864  41.091   3.699
68464W        W40889  33.092  26.460   4.541
68465W        W40890  35.399  27.655  12.013
68466W        W40891  26.624   8.841   4.609
68467W        W40892  29.002   0.767  14.241
68468W        W40893   9.725  35.363   4.168
68469W        W40894  16.223  29.092   3.329
68470W        W40895  18.727  13.572  13.443
68471W        W40896  36.472  40.027   4.092
68472W        W40897  30.146   4.192   4.942
68473W        W40898  16.448  18.754   2.766
68474W        W40899  33.846  14.722  10.648
68475W        W40900  23.179  11.944  11.554
68476W        W40901  42.512  10.804   4.475
68477W        W40902  17.045  22.641  13.295
68478W        W40903  13.740   5.075  12.062
68479W        W40904  36.347  37.359  11.600
68480W        W40905   9.732  22.133  14.479
68481W        W40906  12.250  24.733   2.440
68482W        W40907  13.638  10.552   2.295
68483W        W40908  31.027   7.265  11.685
68484W        W40909  23.606  21.632   0.522
68485W        W40910  33.775  19.068  11.543
68486W        W40911  17.527  15.941   3.207
68487W        W40912  27.487  31.123  13.593
68488W        W40913  21.064  26.676  14.418
68489W        W40914  20.133  41.574  10.264
68490W        W40915  27.065  21.147   0.984
68491W        W40916  19.754   6.220  13.094
68492W        W40917   1.457   0.898  14.717
68493W        W40918  29.641  16.780  14.930
68494W        W40919  25.416  27.080  14.404
68495W        W40920   9.522  38.112   5.205
68496W        W40921   5.482  43.252  13.974
68497W        W40922  37.764  43.759   4.160
68498W        W40923  19.147  13.646   3.988
68499W        W40924  29.434  40.994   1.027
68500W        W40925  41.395  10.274  10.869
68501W        W40926   2.335  22.111   4.649
68502W        W40927   1.447  32.442   1.916
68503W        W40928   8.875  12.279   1.415
68504W        W40929  20.018   7.436   1.840
68505W        W40930  26.333  10.496   1.415
68506W        W40931  18.293   9.452   2.157
68507W        W40932  40.820  35.629   0.034
68508W        W40933  10.786  33.882   0.393
68509W        W40934  35.375  12.340   4.619
68510W        W40935  31.651   7.812   1.011
68511W        W40936   4.541  18.110  14.942
68512W        W40937   4.095  26.744  14.481
68513W        W40938  35.248  44.466   2.425
68514W        W40939   8.410  39.522   0.553
68515W        W40940  22.743  39.272  14.789
68516W        W40941  22.406  15.363   1.452
68517W        W40942  15.982  37.719  11.144
68518W        W40943  15.554   4.987  12.472
68519W        W40944  21.497   4.206  11.225
68520W        W40945   6.627  31.979  14.036
68521W        W40946  14.721  33.051  11.134
68522W        W40947  42.592  21.001  12.860
68523W        W40948   8.171  31.537  13.193
68524W        W40949  36.548  26.019  14.323
68525W        W40950   1.931  39.650  13.409
68526W        W40951  29.137   8.808  14.242
68527W        W40952   2.719  12.560   2.221
68528W        W40953  29.414  36.808   2.248
68529W        W40954   6.630  20.312   3.094
68530W        W40955  30.072  39.056   2.589
68531W        W40956  30.626  14.540  13.933
68532W        W40957  39.749  18.584   2.311
68533W        W40958  20.128  35.605  14.025
68534W        W40959  23.659  40.397   1.301
68535W        W40960  42.863   9.959   1.773
68536W        W40961  12.230  42.299  11.635
68537W        W40962  10.688  27.473   2.377
68538W        W40963  21.251  30.121  11.865
68539W        W40964  17.561  10.935  12.087
68540W        W40965  41.292  36.496  11.853
68541W        W40966  11.473  36.816  12.336
68542W        W40967  43.595  24.878   0.903
68543W        W40968   0.670  16.821  10.991
68544W        W40969   2.715  14.398  14.306
68545W        W40970  17.255  26.151  11.685
68546W        W40971  27.015  39.120  12.930
68547W        W40972  25.705  29.537  12.492
68548W        W40973  44.879  44.959   4.183
68549W        W40974  29.663   8.257   0.376
68550W        W40975  41.549  18.503  11.164
68551W        W40976  39.780  19.297   4.035
68552W        W40977   1.727  16.547  11.982
68553W        W40978   4.816  40.458   2.802
68554W        W40979  39.246  26.158  13.496
68555W        W40980  25.989  10.581   3.268
68556W        W40981  30.085   5.830   4.590
68557W        W40982  35.287  25.226   4.555
68558W        W40983  42.755  38.838   0.020
68559W        W40984   1.212  32.950  14.767
68560W        W40985   2.967  43.235  14.976
68561W        W40986  35.767  32.815   2.371
68562W        W40987  30.111  30.398   5.181
68563W        W40988  36.992  12.684   2.023
68564W        W40989   5.374  30.453   4.630
68565W        W40990  20.980   9.675  11.122
68566W        W40991  33.465  20.307  11.033
68567W        W40992  18.043  17.304  13.413
68568W        W40993  44.373  15.238  13.311
68569W        W40994   0.471  12.156   1.792
68570W        W40995  41.970  25.218  10.045
68571W        W40996  35.147  31.403  14.686
68572W        W40997  20.278  29.428  13.463
68573W        W40998  22.483  20.687   3.599
68574W        W40999  24.670  44.983   4.112
68575W        W41000  38.383  44.580   4.967
68576W        W41001  38.342  38.034   4.873
68577W        W41002   3.717  41.375  14.285
68578W        W41003  21.310  19.790  13.595
68579W        W41004  42.441  10.176   2.762
68580W        W41005  17.986   8.911  13.289
68581W        W41006  22.353  23.759  12.584
68582W        W41007  23.983  23.148   3.164
68583W        W41008   6.268  21.812  13.936
68584W        W41009  19.915  31.592  10.342
68585W        W41010  36.822  40.408  12.996
68586W        W41011   1.525  34.968  12.344
68587W        W41012  16.067  19.765  10.596
68588W        W41013  44.447  23.951   2.251
68589W        W41014   6.898   8.706  13.139
68590W        W41015  27.277  39.985   0.772
68591W        W41016  10.610  25.777   4.223
68592W        W41017  20.035  32.079   2.944
68593W        W41018  20.544   6.191   2.411
68594W        W41019  36.375   3.964  11.951
68595W        W41020   1.347  35.613   0.803
68596W        W41021  28.561   8.903  12.600
68597W        W41022   1.027  15.614   4.600
68598W        W41023   5.717   9.788   3.131
68599W        W41024  37.869  14.350  10.977
68600W        W41025   1.678   1.233  10.586
68601W        W41026  39.117  30.206   2.957
68602W        W41027  33.660  42.130   4.149
68603W        W41028   9.398  35.539  11.611
68604W        W41029   9.558   9.252   0.810
68605W        W41030  38.319  22.974   2.865
68606W        W41031  12.630  31.896  14.477
68607W        W41032   5.860  32.568   2.743
68608W        W41033  33.342   1.901  13.373
68609W        W41034   3.182  23.925  13.254
68610W        W41035  30.494  29.082  12.627
68611W        W41036  13.764  20.832   1.798
68612W        W41037  43.979  36.133  12.025
68613W        W41038  15.380  28.134  11.491
68614W        W41039   0.405   2.465   3.668
68615W        W41040  17.511   6.295  13.789
68616W        W41041  32.453  25.684   4.668
68617W        W41042  11.379   0.335  11.594
68618W        W41043  30.021  36.579  12.876
68619W        W41044  20.692  34.160   4.421
68620W        W41045  38.562  14.882   4.681
68621W        W41046   6.177  26.823   2.181
68622W        W41047  13.830  41.038  13.848
68623W        W41048  11.484  34.396   2.270
68624W        W41049  17.001  27.508   2.415
68625W        W41050  28.488  10.075   1.694
68626W        W41051  27.585  32.861   1.555
68627W        W41052  13.018  17.995  12.511
68628W        W41053  22.264  44.319  11.196
68629W        W41054  30.975  33.373  13.485
68630W        W41055   8.612   2.284   4.866
68631W        W41056  28.791  26.090   4.609
68632W        W41057  22.674  29.118  10.894
68633W        W41058  37.367   9.139   4.380
68634W        W41059  26.816  39.992  13.369
68635W        W41060  35.795   7.077   1.255
68636W        W41061  42.335  35.129  14.883
68637W        W41062  11.709  11.209   4.120
68638W        W41063   6.130  37.771  14.073
68639W        W41064  15.372  39.416  10.672
68640W        W41065  18.779   8.150  11.633
68641W        W41066   0.708  39.886   0.782
68642W        W41067   6.642  10.691   2.151
68643W        W41068  15.382  11.309   3.241
68644W        W41069  44.700  30.389   2.165
68645W        W41070  22.219   3.920  11.488
68646W        W41071  12.689   1.791   3.243
68647W        W41072   8.195  25.490  10.713
68648W        W41073   8.282  23.105  12.883
68649W        W41074  34.603  13.738  12.645
68650W        W41075  20.049  13.662  11.366
68651W        W41076   7.234  18.259   0.389
68652W        W41077  25.126  10.075  11.080
68653W        W41078  44.534   7.334   4.073
68654W        W41079   5.255   3.492  11.223
68655W        W41080   5.032   3.899   3.252
68656W        W41081   9.868  36.216  14.757
68657W        W41082   8.367   1.347   1.018
68658W        W41083  29.704  33.961   0.918
68659W        W41084  17.693  17.528   0.753
68660W        W41085  37.279  26.449   0.353
68661W        W41086  27.132  28.372  11.592
68662W        W41087  29.141  23.041   2.867
68663W        W41088   1.428  33.888  12.085
68664W        W41089  21.350  16.965   3.300
68665W        W41090  15.646  42.635  10.640
68666W        W41091   2.146  29.601   2.290
68667W        W41092  15.116  41.089  11.178
68668W        W41093  37.392  44.057  10.532
68669W        W41094  22.684   4.675  14.337
68670W        W41095  23.213  25.642   4.757
68671W        W41096  32.974  14.517   4.049
68672W        W41097  25.531  36.825  10.726
68673W        W41098   8.333  11.727   0.724
68674W        W41099  38.858  13.497   4.629
68675W        W41100  36.037  28.090  13.381
68676W        W41101  25.187  28.045  12.960
68677W        W41102  21.102  16.229  13.703
68678W        W41103   6.612  27.743  11.604
68679W        W41104  33.879  32.540  11.896
68680W        W41105  20.226  25.284   0.900
68681W        W41106  41.409  17.703  13.496
68682W        W41107   2.388  11.286  13.842
68683W        W41108  28.180  20.654  14.959
68684W        W41109  23.711  30.992  10.578
68685W        W41110  37.944  31.488  13.305
68686W        W41111  26.443  43.024   0.337
68687W        W41112  20.656  10.261   5.003
68688W        W41113  26.636   0.865   0.787
68689W        W41114  28.573  30.068   4.078
68690W        W41115  44.376  12.905   2.404
68691W        W41116  21.641   0.508  11.569
68692W        W41117  28.921  23.101  14.952
68693W        W41118  38.456  32.532   4.935
68694W        W41119  11.228   9.349   3.849
68695W        W41120  40.816   3.786  12.824
68696W        W41121  41.363  34.467  12.492
68697W        W41122  11.106   6.232   3.410
68698W        W41123  26.760  28.490   2.162
68699W        W41124  21.972  44.837  13.968
68700W        W41125   9.823  39.329  13.496
68701W        W41126  39.309  32.830   3.420
68702W        W41127  27.682  42.616   4.173
68703W        W41128  28.715  26.216  11.367
68704W        W41129  16.083   6.339   3.131
68705W        W41130  40.947  12.272   2.186
68706W        W41131  19.783  16.244  11.562
68707W        W41132  17.588   4.964   1.203
68708W        W41133  44.526   8.279   2.205
68709W        W41134   9.241  24.500  12.519
68710W        W41135  43.039  30.592   0.187
68711W        W41136   4.858  37.550  13.835
68712W        W41137  26.641   4.512   2.802
68713W        W41138  16.132  34.825  12.502
68714W        W41139  42.988  36.793   3.720
68715W        W41140   7.372  40.316  11.742
68716W        W41141  43.698  29.876  14.846
68717W        W41142   8.132  25.456   2.769
68718W        W41143  17.654  28.456  13.946
68719W        W41144  31.902  27.769  14.793
68720W        W41145  44.920  16.189  11.210
68721W        W41146  24.231  15.859  14.679
68722W        W41147  40.929  33.532   4.345
68723W        W41148  25.253  15.706   2.307
68724W        W41149  28.206  34.962  14.466
68725W        W41150   4.224   3.274  13.997
68726W        W41151  21.739  42.314  12.423
68727W        W41152  28.234  18.649   1.775
68728W        W41153   0.313  17.137  11.207
68729W        W41154  15.527  43.011   3.926
68730W        W41155  22.398   7.976   3.566
68731W        W41156  25.079   0.185   9.644
68732W        W41157   5.419  38.017  10.361
68733W        W41158  35.487  20.532  14.957
68734W        W41159  17.766  44.009   3.781
68735W        W41160  41.526  19.763   4.098
68736W        W41161   7.252  44.609  12.906
68737W        W41162  24.166  27.832   1.137
68738W        W41163  21.335   7.195  12.661
68739W        W41164   8.151  14.061  12.476
68740W        W41165  19.644   9.923  14.289
68741W        W41166  20.621  38.689  14.515
68742W        W41167   6.365  17.364   3.666
68743W        W41168  15.489  26.937   2.182
68744W        W41169  14.328   9.673  13.274
68745W        W41170  35.352  20.567  12.433
68746W        W41171  12.371  17.134   4.301
68747W        W41172  12.349  29.665   0.256
68748W        W41173   1.171  43.842   0.947
68749W        W41174   3.822  43.576  11.433
68750W        W41175  30.633   8.278   4.994
68751W        W41176  28.164   1.194  12.990
68752W        W41177  23.586  33.084   1.318
68753W        W41178  16.256   9.047  13.051
68754W        W41179  29.953  33.901  10.687
68755W        W41180  24.978  39.735   3.789
68756W        W41181  17.537  38.453  12.943
68757W        W41182  15.953  38.717   2.155
68758W        W41183  35.298  40.304   1.860
68759W        W41184   3.880  31.999  13.300
68760W        W41185  36.164  27.188  11.845
68761W        W41186  24.193  16.792   4.257
68762W        W41187  14.605   1.384  13.478
68763W        W41188  20.719  25.340   4.880
68764W        W41189  35.056  39.807   3.933
68765W        W41190  42.619  22.554  11.525
68766W        W41191  40.306  23.160  14.040
68767W        W41192  16.404  15.396  12.607
68768W        W41193  36.572   1.516  13.367
68769W        W41194  38.460  30.630  14.039
68770W        W41195  11.947   7.459  11.705
68771W        W41196  28.996  31.819  11.971
68772W        W41197  32.900  13.032  13.885
68773W        W41198  10.105   2.809  12.508
68774W        W41199   2.204  43.895   0.785
68775W        W41200  32.432  36.425   3.209
68776W        W41201  38.337   8.292  13.657
68777W        W41202  18.094  38.957  11.439
68778W        W41203   5.205  12.335  10.231
68779W        W41204  39.834   3.210   2.915
68780W        W41205  23.822   6.987   5.094
68781W        W41206  30.456   1.305   2.846
68782W        W41207  14.497   5.272   2.762
68783W        W41208  35.723  42.305   0.738
68784W        W41209  14.631  43.506  11.079
68785W        W41210  26.596  39.479  14.909
68786W        W41211  39.810   1.774   3.789
68787W        W41212   4.212  25.929   0.571
68788W        W41213  23.644  42.306   0.488
68789W        W41214   3.931  14.127   0.648
68790W        W41215  42.328  37.933  13.887
68791W        W41216   5.296  33.624  14.409
68792W        W41217   4.847   7.305   3.190
68793W        W41218  17.325  32.458   5.223
68794W        W41219  28.040  17.989   3.060
68795W        W41220   0.439  21.226   3.694
68796W        W41221  11.778  25.207  14.658
68797W        W41222  35.355  18.231  11.594
68798W        W41223  20.394  40.885   3.631
68799W        W41224  15.382   2.116  12.234
68800W        W41225  44.914  23.641   2.887
68801W        W41226   4.312  43.258   4.391
68802W        W41227  15.306   6.242   1.278
68803W        W41228  44.815  32.567  11.961
68804W        W41229  30.962   1.887   0.749
68805W        W41230  12.177   9.426  13.534
68806W        W41231   3.671  16.629  13.498
68807W        W41232   8.914   0.446   0.239
68808W        W41233   6.709  30.804   4.693
68809W        W41234  42.620  41.883  12.242
68810W        W41235   3.194  13.774   2.082
68811W        W41236  29.507  18.364  14.990
68812W        W41237  30.039  31.068   1.923
68813W        W41238  25.429   0.888   4.601
68814W        W41239  28.573   5.234   0.276
68815W        W41240  43.624  33.609   1.957
68816W        W41241  39.361  20.118   0.708
68817W        W41242   8.112  19.599   2.295
68818W        W41243  29.332  39.098   0.784
68819W        W41244  31.227  15.740  10.102
68820W        W41245  36.364  20.234   0.798
68821W        W41246   2.213  43.848  14.576
68822W        W41247  13.136  40.088  10.760
68823W        W41248  15.739  42.559  11.534
68824W        W41249  35.403  11.695  12.449
68825W        W41250  42.943  20.518   0.843
68826W        W41251   3.513  32.059   0.720
68827W        W41252   6.798   0.544   3.418
68828W        W41253  14.734  23.948   2.425
68829W        W41254  30.703  28.118   2.273
68830W        W41255   6.648   4.816  14.536
68831W        W41256  19.985  16.502  12.387
68832W        W41257   9.334   2.987   1.212
68833W        W41258  42.400  28.688   2.820
68834W        W41259  24.270  10.815   3.720
68835W        W41260   3.431  19.127  11.117
68836W        W41261   2.361  27.181  11.459
68837W        W41262   4.275  34.024   0.174
68838W        W41263  39.798  16.025   3.257
68839W        W41264   5.385  27.673   1.320
68840W        W41265  41.491  19.165   3.282
68841W        W41266  40.084  18.121  11.688
68842W        W41267  21.153   4.880   2.766
68843W        W41268  17.971   9.190   1.251
68844W        W41269  33.484  44.977  12.859
68845W        W41270  20.416  14.276  14.297
68846W        W41271  14.241  35.963  10.711
68847W        W41272  23.369  41.849  13.071
68848W        W41273  16.081  10.884   3.976
68849W        W41274  44.541  32.162  14.217
68850W        W41275   8.254  31.383  11.189
68851W        W41276  27.201  28.885  10.958
68852W        W41277  31.486   3.630  11.913
68853W        W41278  27.055  33.079   1.657
68854W        W41279  17.191  23.609   0.324
68855W        W41280  39.858  18.786   0.481
68856W        W41281  10.114  16.590  12.962
68857W        W41282  27.293  25.982   4.732
68858W        W41283  38.346  38.917   3.709
68859W        W41284  38.486  15.186  13.791
68860W        W41285  31.204  23.298   0.396
68861W        W41286  34.491  13.739  13.520
68862W        W41287  24.756  35.571   2.624
68863W        W41288  27.070   5.741  14.255
68864W        W41289  40.029   0.848  13.986
68865W        W41290  44.872  23.619  11.734
68866W        W41291  42.908  17.024   3.580
68867W        W41292  23.308   8.292  13.096
68868W        W41293  12.709  40.908  14.949
68869W        W41294   2.456   0.715  12.087
68870W        W41295  43.368  37.040  13.691
68871W        W41296  29.502  39.010   3.810
68872W        W41297  20.331   2.712   2.847
68873W        W41298  37.627  31.862  11.528
68874W        W41299  27.025  23.926   0.439
68875W        W41300   8.439   6.746  14.374
68876W        W41301  12.572   2.921  13.486
68877W        W41302  40.087  36.425   2.373
68878W        W41303   1.067  30.358   5.027
68879W        W41304  20.296  37.429  14.359
68880W        W41305   7.261  25.546  10.725
68881W        W41306   6.912  36.964   2.823
68882W        W41307  13.231  14.251   3.895
68883W        W41308  29.686  19.956   0.867
68884W        W41309  21.225  22.480  14.784
68885W        W41310   3.309  13.716   4.787
68886W        W41311   0.967  34.626  14.335
68887W        W41312  10.123  43.980   4.670
68888W        W41313   0.750  36.071   1.958
68889W        W41314   3.199  39.887   3.350
68890W        W41315  32.397  39.954   3.900
68891W        W41316  42.511   6.634   0.824
68892W        W41317  10.776  28.047  11.134
68893W        W41318   9.018  23.014  12.495
68894W        W41319  42.759  26.268   0.439
68895W        W41320  17.201  33.674   1.481
68896W        W41321  43.206  32.939  12.665
68897W        W41322  31.218  26.065  10.642
68898W        W41323  26.445  23.524   3.254
68899W        W41324  36.794   9.399   1.794
68900W        W41325  10.288  32.469  11.361
68901W        W41326   3.296  12.861   3.018
68902W        W41327  29.031  20.643   4.130
68903W        W41328   3.741  38.950   3.861
68904W        W41329  21.257  21.691   1.764
68905W        W41330   5.923  38.996   3.285
68906W        W41331  31.982  19.499   4.117
68907W        W41332   8.780  16.790  11.186
68908W        W41333   2.086  13.225   4.648
68909W        W41334  34.352  39.315   4.035
68910W        W41335  38.444  24.144   3.587
68911W        W41336  44.622  41.555  14.879
68912W        W41337  15.377  34.525   3.168
68913W        W41338  30.257  22.113  12.535
68914W        W41339  17.327  27.086   2.433
68915W        W41340  28.979   6.625  12.643
68916W        W41341   9.725  28.132  14.300
68917W        W41342   6.835  36.058  13.855
68918W        W41343   8.648  34.112  13.928
68919W        W41344  11.597   7.595  12.585
68920W        W41345   1.688  40.902   4.923
68921W        W41346  16.942   6.476   4.149
68922W        W41347  25.613   9.218  14.338
68923W        W41348  24.103   3.990  12.808
68924W        W41349   2.453  23.043  14.303
68925W        W41350  14.551  38.316  12.937
68926W        W41351  12.222  25.270   0.731
68927W        W41352  18.709  25.992  11.955
68928W        W41353   4.013  10.212   1.736
68929W        W41354   6.617  11.207  13.064
68930W        W41355  33.420   3.907  14.287
68931W        W41356  34.654  38.923  11.545
68932W        W41357  31.233  28.103   3.652
68933W        W41358   0.394   7.945   1.947
68934W        W41359  37.448  36.118   4.823
68935W        W41360   5.796  23.233   2.829
68936W        W41361  27.123   0.352  13.168
68937W        W41362   3.785  22.961   1.351
68938W        W41363  18.769  27.637  13.360
68939W        W41364   6.827  25.154   4.788
68940W        W41365  22.350  39.599  11.595
68941W        W41366  39.968  10.402  10.772
68942W        W41367  33.888  18.062  10.674
68943W        W41368  27.103  20.091  10.726
68944W        W41369  44.174  42.496   1.888
68945W        W41370  32.064   6.640   3.251
68946W        W41371  38.333  19.213   4.223
68947W        W41372   3.226   1.003   4.166
68948W        W41373  30.766   1.417  11.414
68949W        W41374  20.699  31.366   5.571
68950W        W41375  26.607  12.799  12.145
68951W        W41376  40.197  29.641  11.019
68952W        W41377   6.335  28.059   3.072
68953W        W41378  25.045  19.984   4.290
68954W        W41379  37.459   8.612   2.660
68955W        W41380  38.260  34.474  12.430
68956W        W41381  20.633  41.134  13.855
68957W        W41382  11.658  19.590   2.054
68958W        W41383   9.826   2.758   1.661
68959W        W41384  26.127  29.690   0.929
68960W        W41385  19.352  14.665   1.629
68961W        W41386  29.237  11.364   3.149
68962W        W41387  29.232  44.650   0.800
68963W        W41388   1.170  33.132   3.677
68964W        W41389  43.694  44.065   3.369
68965W        W41390  43.345   6.700  11.246
68966W        W41391  10.987   1.100  13.952
68967W        W41392  18.786   4.893   3.389
68968W        W41393   8.315  17.083  12.445
68969W        W41394  24.609  17.552   4.204
68970W        W41395   2.904  12.248   4.139
68971W        W41396  10.472  15.035   3.763
68972W        W41397  32.583  17.791   3.070
68973W        W41398  41.636   7.305  12.025
68974W        W41399  35.532  40.754   1.780
68975W        W41400  40.472   7.490   4.399
68976W        W41401  39.464  11.815  12.486
68977W        W41402  19.080  19.039  12.873
68978W        W41403  33.853  44.963  14.867
68979W        W41404  33.327   6.078   2.447
68980W        W41405  34.112  32.179  13.175
68981W        W41406  27.634  19.639   2.390
68982W        W41407  13.086  44.354  12.456
68983W        W41408  11.804  35.186  12.500
68984W        W41409  25.764   3.786  14.171
68985W        W41410  17.032   4.547  10.140
68986W        W41411  31.697   5.762  11.160
68987W        W41412  20.697  24.939  11.477
68988W        W41413  14.798  33.882  10.526
68989W        W41414   9.686  42.827   1.131
68990W        W41415  13.765  43.324  12.909
68991W        W41416  36.088  26.971   1.153
68992W        W41417  15.191  35.552  13.166
68993W        W41418   6.448   4.165   1.415
68994W        W41419  32.033   3.893  11.907
68995W        W41420  26.994  16.235   0.097
68996W        W41421  32.536  19.436  12.390
68997W        W41422  39.439  25.724   3.234
68998W        W41423  32.164   9.332  13.929
68999W        W41424   3.798  14.825   4.134
69000W        W41425  20.114  14.028  10.997
69001W        W41426  38.830  27.458  13.514
69002W        W41427  23.565  17.809  10.717
69003W        W41428  40.465  41.121  13.949
69004W        W41429  25.031  34.653   0.347
69005W        W41430   8.961  34.917  11.926
69006W        W41431  39.812  14.126  12.376
69007W        W41432   0.349   1.002  10.958
69008W        W41433  20.244  38.544  11.487
69009W        W41434  42.949   8.920   2.785
69010W        W41435  40.057  20.727   1.755
69011W        W41436   4.210  36.507  12.354
69012W        W41437  37.300  15.762   1.067
69013W        W41438  25.466   9.820  10.511
69014W        W41439  15.086  31.086   0.672
69015W        W41440  32.156   0.847  14.137
69016W        W41441   3.645   8.444   0.779
69017W        W41442   2.936  25.389   3.164
69018W        W41443  12.278  24.775   5.487
69019W        W41444  37.361  30.390   4.613
69020W        W41445  38.460   0.957   4.220
69021W        W41446  11.514  34.622  11.192
69022W        W41447  20.344  43.461   3.769
69023W        W41448  33.619   6.909  14.575
69024W        W41449  20.898  20.079  11.377
69025W        W41450  20.929  27.985   1.303
69026W        W41451  28.948  19.023  14.913
69027W        W41452  22.022  30.569  11.770
69028W        W41453  11.391  34.348   3.132
69029W        W41454   3.423  11.342  12.104
69030W        W41455  17.509  17.723   4.498
69031W        W41456  21.173  13.048  14.239
69032W        W41457   2.708   1.845   1.695
69033W        W41458  20.733  34.644   1.674
69034W        W41459  34.432  10.860  11.418
69035W        W41460   0.954   5.756  11.535
69036W        W41461  20.059  33.407   4.668
69037W        W41462  12.398  41.991   2.903
69038W        W41463  11.417  41.835  11.580
69039W        W41464  34.116  11.174  11.111
69040W        W41465   2.812   9.643  13.522
69041W        W41466  33.151  35.891   3.778
69042W        W41467   4.289  28.863   2.739
69043W        W41468   4.655  20.157  14.472
69044W        W41469  37.118   5.640  13.657
69045W        W41470  13.138   0.433  12.913
69046W        W41471  29.957  42.025   1.396
69047W        W41472   4.273  44.036  13.682
69048W        W41473  12.585  14.872  12.185
69049W        W41474  35.872  30.342   3.263
69050W        W41475  27.746  44.476   4.138
69051W        W41476  21.036  20.669   0.815
69052W        W41477  33.849  26.534  11.048
69053W        W41478  11.299  24.652  13.070
69054W        W41479  37.064   8.667  11.667
69055W        W41480  37.696  36.548  11.041
69056W        W41481  20.317  21.765  11.109
69057W        W41482  21.507   5.243  13.077
69058W        W41483   3.194   1.502   4.552
69059W        W41484  28.727  22.039  11.051
69060W        W41485   8.137  33.379   0.791
69061W        W41486  28.630  19.564  12.041
69062W        W41487  29.389  29.982  10.521
69063W        W41488  32.027  27.302   1.491
69064W        W41489  20.133  41.437  10.756
69065W        W41490   5.298  32.832  14.094
69066W        W41491  37.565  40.368   2.817
69067W        W41492  16.299  23.047   4.062
69068W        W41493  34.205  44.930   3.354
69069W        W41494  33.959  39.042   4.502
69070W        W41495  21.028  28.611   0.622
69071W        W41496  21.731  12.605  13.092
69072W        W41497  14.720  40.466   2.230
69073W        W41498  23.120  22.933   1.775
69074W        W41499  40.304  37.984  12.611
69075W        W41500  13.111  12.966   3.992
69076W        W41501  13.420  27.640   0.874
69077W        W41502  25.675  22.147  14.884
69078W        W41503  34.600  21.507   1.857
69079W        W41504  32.082   7.325   4.899
69080W        W41505  22.256  14.833  14.769
69081W        W41506  34.922  24.140  12.043
69082W        W41507  20.973  37.573  11.710
69083W        W41508   1.267  23.938  12.865
69084W        W41509  24.174  10.077  14.877
69085W        W41510  19.915  44.061   1.974
69086W        W41511  41.099  43.222   5.370
69087W        W41512  14.374  44.199  14.374
69088W        W41513  23.316   6.620   2.174
69089W        W41514   4.017  23.674  14.466
69090W        W41515   4.550  20.266  13.941
69091W        W41516   1.328  26.776  13.384
69092W        W41517  43.955   3.223  13.863
69093W        W41518  23.627   4.503   1.220
69094W        W41519   2.435   0.507  14.159
69095W        W41520  19.794  31.061   2.827
69096W        W41521   9.545  26.126  11.658
69097W        W41522  16.193  25.786  13.005
69098W        W41523   5.276  37.033  11.289
69099W        W41524  27.391  32.295  13.237
69100W        W41525  21.492  14.636   2.353
69101W        W41526  21.246  42.993   3.647
69102W        W41527  17.456   1.751   0.343
69103W        W41528  32.340  17.992   4.185
69104W        W41529   3.283  15.725  10.173
69105W        W41530  31.840  27.284  14.573
69106W        W41531  19.310  20.272   2.693
69107W        W41532  11.876  25.622   3.723
69108W        W41533   4.167  40.289  12.323
69109W        W41534  31.298  32.965   0.857
69110W        W41535  19.780   0.431  12.028
69111W        W41536  22.947  37.554  11.133
69112W        W41537  32.960  38.127   2.929
69113W        W41538  29.959  21.322  14.849
69114W        W41539  39.367  10.394  14.025
69115W        W41540   6.144   9.353  14.005
69116W        W41541   1.524  42.230   0.378
69117W        W41542  26.041  20.803   0.119
69118W        W41543  32.576  39.361  14.392
69119W        W41544   7.033  44.899  14.436
69120W        W41545  15.482   2.785  14.323
69121W        W41546  39.425   1.287  10.476
69122W        W41547   9.411  35.829  14.081
69123W        W41548  33.182  26.909   2.691
69124W        W41549   8.127  44.897   2.741
69125W        W41550   3.590  26.760   4.860
69126W        W41551  12.126  23.315   3.178
69127W        W41552  31.583  17.138   1.385
69128W        W41553  43.466  37.488  10.150
69129W        W41554  26.562   4.462   0.244
69130W        W41555  32.428  27.509  12.899
69131W        W41556  34.782  12.720  11.240
69132W        W41557   8.411  44.360  11.034
69133W        W41558  39.928  16.581   2.257
69134W        W41559  19.238  26.521   4.406
69135W        W41560  24.428  24.695  11.174
69136W        W41561   5.704  17.060   3.263
69137W        W41562  43.035   3.576   2.676
69138W        W41563  27.605  37.874   0.606
69139W        W41564  25.870  43.453  13.122
69140W        W41565  31.827  24.535   2.766
69141W        W41566   5.528  15.636  13.445
69142W        W41567  37.394  33.767   0.826
69143W        W41568  27.002   9.149   2.882
69144W        W41569  12.810   0.517  11.390
69145W        W41570  37.139  17.198  14.490
69146W        W41571   2.989  31.751  11.571
69147W        W41572  28.405  25.429   3.513
69148W        W41573   0.675  28.581  11.720
69149W        W41574  25.488  22.978   3.097
69150W        W41575  15.600   0.178  14.371
69151W        W41576  26.956   8.459  13.930
69152W        W41577  28.059  13.370   1.044
69153W        W41578  37.769  11.291  12.406
69154W        W41579  30.028   5.213   1.733
69155W        W41580  36.328  24.642  13.286
69156W        W41581  19.578  32.061   5.234
69157W        W41582  18.260  23.971   3.754
69158W        W41583  16.345  12.690   0.178
69159W        W41584  28.994   0.713  12.386
69160W        W41585  30.395  11.808   1.333
69161W        W41586  39.917  22.603   4.660
69162W        W41587  44.417   4.716   0.499
69163W        W41588  38.343  13.998  11.177
69164W        W41589  23.425  13.017  14.936
69165W        W41590   1.676   2.913  10.933
69166W        W41591  19.297  28.288   4.545
69167W        W41592  21.759  32.946   3.336
69168W        W41593  22.489  26.093  12.594
69169W        W41594  33.684  13.214   2.170
69170W        W41595  20.107  10.268   0.007
69171W        W41596  12.694  16.223   2.854
69172W        W41597  32.791  41.081   3.867
69173W        W41598  35.591  44.207  14.171
69174W        W41599   9.764  32.616   3.867
69175W        W41600  40.816  10.427  12.293
69176W        W41601  14.151  19.203   4.682
69177W        W41602  28.559  26.704  13.294
69178W        W41603  24.121   6.285   2.426
69179W        W41604  15.599  37.375  10.011
69180W        W41605   6.991   5.760   1.374
69181W        W41606   8.191  15.272  13.552
69182W        W41607  25.402  26.926   4.449
69183W        W41608   3.314  10.253   4.005
69184W        W41609  21.053   8.227  14.721
69185W        W41610  10.344  33.933   1.629
69186W        W41611  26.090  37.224   0.939
69187W        W41612  36.670  41.425   4.757
69188W        W41613   3.963  24.506   2.818
69189W        W41614  25.668  43.019   3.685
69190W        W41615   5.571   3.885  12.592
69191W        W41616  10.739  17.433   2.245
69192W        W41617  39.027   3.959  10.202
69193W        W41618  36.622  22.075   4.685
69194W        W41619  37.544  10.659  11.599
69195W        W41620   6.967  10.813  14.341
69196W        W41621  38.324  19.010   0.708
69197W        W41622   4.770  35.890   1.380
69198W        W41623  30.526  18.490   1.657
69199W        W41624   5.910  39.101   3.792
69200W        W41625  39.011   2.421   0.016
69201W        W41626  32.776   7.855   1.350
69202W        W41627   7.625  32.582  12.776
69203W        W41628  13.139  42.307  11.074
69204W        W41629   7.249   6.967  14.780
69205W        W41630  25.231  28.859   0.719
69206W        W41631   9.278  11.588   3.370
69207W        W41632  35.097  17.874   5.085
69208W        W41633  20.066  34.558   2.933
69209W        W41634   4.029   7.257  13.812
69210W        W41635  20.121  27.986   3.628
69211W        W41636  15.186   2.377  11.274
69212W        W41637  42.782  40.938   1.295
69213W        W41638  27.491  25.628  12.485
69214W        W41639  25.669  10.370   3.706
69215W        W41640   7.799  21.993   1.352
69216W        W41641  18.580  41.070   2.146
69217W        W41642  23.463   7.354  10.394
69218W        W41643   9.093  35.230   9.862
69219W        W41644  16.809  37.024  14.898
69220W        W41645  31.487   0.386   2.121
69221W        W41646   7.252  37.592   1.620
69222W        W41647  16.526  14.315   4.117
69223W        W41648  10.582  28.582   0.414
69224W        W41649  35.321  35.347  12.453
69225W        W41650  42.910   7.659  11.709
69226W        W41651  36.611  10.607   3.230
69227W        W41652   2.485   0.599  10.618
69228W        W41653   4.378  30.340  14.482
69229W        W41654  11.305   6.159  12.103
69230W        W41655   1.863  23.706   0.287
69231W        W41656   1.001  13.369  14.443
69232W        W41657  23.263  18.175  12.961
69233W        W41658  26.864  34.001   1.180
69234W        W41659  18.704  35.361  14.825
69235W        W41660   7.012  26.337   0.899
69236W        W41661   6.703  40.557  13.159
69237W        W41662  39.132   4.561  14.365
69238W        W41663  23.706  28.127   3.287
69239W        W41664  13.641  28.136   4.270
69240W        W41665   4.171  43.080  11.450
69241W        W41666  34.506  41.536   2.374
69242W        W41667  33.344   9.668  14.766
69243W        W41668  35.059  41.586   0.987
69244W        W41669  21.909  13.845  13.226
69245W        W41670  27.053  30.881   5.173
69246W        W41671  35.375   3.453   4.479
69247W        W41672  44.988  24.592  10.912
69248W        W41673  32.137  20.552  12.074
69249W        W41674   6.918  34.615   2.810
69250W        W41675  25.038  32.618   0.636
69251W        W41676  28.353   5.332  11.556
69252W        W41677  10.563   4.647   2.260
69253W        W41678  21.925  40.820  11.783
69254W        W41679  13.348  29.970   3.120
69255W        W41680  13.599   6.339   2.187
69256W        W41681  36.025  22.631  11.554
69257W        W41682   7.801   7.622  13.591
69258W        W41683  18.766  38.918   2.106
69259W        W41684  11.085  22.254  12.334
69260W        W41685  32.691  15.654  10.202
69261W        W41686   1.550  21.047  14.726
69262W        W41687   5.816   8.172   1.726
69263W        W41688   6.757  18.538   4.156
69264W        W41689   7.356  38.403  12.079
69265W        W41690   0.162  12.588  13.010
69266W        W41691  21.227  15.381   3.279
69267W        W41692  30.118  37.975   0.222
69268W        W41693  37.402  12.967   2.158
69269W        W41694  41.364   2.657   2.388
69270W        W41695  18.083   2.457  14.470
69271W        W41696   8.778  34.336  10.305
69272W        W41697   9.384   8.375   2.258
69273W        W41698  44.444   8.390  14.770
69274W        W41699   2.710  11.691  11.008
69275W        W41700  42.749  41.732  12.738
69276W        W41701   6.688  12.123   2.868
69277W        W41702  14.755  32.421  10.383
69278W        W41703  21.115  32.893  13.576
69279W        W41704   1.747  34.445  13.398
69280W        W41705  21.520  14.189  11.316
69281W        W41706  19.327   6.852   1.356
69282W        W41707  44.386   9.212  10.929
69283W        W41708  17.359  12.148   3.753
69284W        W41709  31.367   4.480   1.751
69285W        W41710  36.844  15.276  14.953
69286W        W41711  23.102  10.313   0.675
69287W        W41712   7.253  43.449   4.570
69288W        W41713  21.261   0.501   3.632
69289W        W41714   8.712  41.791   3.737
69290W        W41715  11.651  14.392   2.853
69291W        W41716  36.334  17.525  12.565
69292W        W41717   4.130  20.148   0.418
69293W        W41718  16.786   5.748   2.162
69294W        W41719   4.319  39.888   0.348
69295W        W41720  13.075  22.375   3.529
69296W        W41721  36.501  19.213  11.603
69297W        W41722  24.572  35.482  12.542
69298W        W41723  13.376  34.007  13.616
69299W        W41724  35.470   4.612  10.158
69300W        W41725  25.748   1.340   4.695
69301W        W41726  11.209  14.399  11.347
69302W        W41727  31.837  30.792  10.970
69303W        W41728  33.218   1.820   0.327
69304W        W41729  13.263  44.556  14.812
69305W        W41730  20.110   4.209  11.314
69306W        W41731  31.984  12.633   1.992
69307W        W41732  24.214  39.014   2.056
69308W        W41733   4.173  28.266   3.247
69309W        W41734  44.762  29.176   4.044
69310W        W41735   2.270  24.784   4.224
69311W        W41736  28.711  11.112  10.599
69312W        W41737   2.931  20.646  11.686
69313W        W41738   0.888  26.005   0.779
69314W        W41739   8.797   9.682   3.453
69315W        W41740  27.921  10.844   2.120
69316W        W41741  41.148  22.358   3.326
69317W        W41742  44.353  21.365  12.874
69318W        W41743  44.605  27.971  14.247
69319W        W41744  22.669   2.167  14.426
69320W        W41745  18.233  26.111   0.015
69321W        W41746  10.744  14.351  12.069
69322W        W41747  33.366  29.504   1.149
69323W        W41748  35.370  31.590  13.376
69324W        W41749  24.775   9.428   1.792
69325W        W41750  44.389  38.117   0.682
69326W        W41751  36.941  33.625   2.485
69327W        W41752  39.317  23.487   0.756
69328W        W41753  31.882  22.098   1.827
69329W        W41754  44.769  27.542  11.993
69330W        W41755  43.576  22.592   4.896
69331W        W41756   1.687  29.191  14.417
69332W        W41757   2.855  13.274  11.182
69333W        W41758  22.555  36.823   2.251
69334W        W41759   1.766  24.660   2.386
69335W        W41760  22.034  15.704  10.619
69336W        W41761  21.140  24.717   4.735
69337W        W41762  33.437  28.061  13.223
69338W        W41763  15.720   8.969  13.546
69339W        W41764  37.665  40.807   2.558
69340W        W41765  38.582  15.351  14.506
69341W        W41766   4.357  41.299   0.173
69342W        W41767   6.664  19.806   3.700
69343W        W41768   2.044  29.066  11.612
69344W        W41769  29.175   5.303  12.813
69345W        W41770  40.489  10.815  12.405
69346W        W41771   7.901  14.483   4.271
69347W        W41772  26.934  32.413  13.686
69348W        W41773  23.227   0.691   3.314
69349W        W41774  18.017  28.478  14.327
69350W        W41775   4.140  26.261   2.930
69351W        W41776  32.102   2.176   2.168
69352W        W41777  27.209  28.200  13.383
69353W        W41778  19.336  35.874  11.607
69354W        W41779  39.953  31.158  13.273
69355W        W41780  42.413  31.591   0.069
69356W        W41781  43.083  22.247   2.811
69357W        W41782  31.113  23.407   2.322
69358W        W41783  34.812  40.294  12.909
69359W        W41784  18.773  15.806  11.164
69360W        W41785   5.837  24.891  11.544
69361W        W41786  30.064  40.115  10.736
69362W        W41787  16.852  44.323  10.859
69363W        W41788  11.268  17.732  14.014
69364W        W41789  30.548  30.395  14.277
69365W        W41790  24.548  11.281  10.671
69366W        W41791  40.839   2.048   3.575
69367W        W41792  41.378  33.384   1.306
69368W        W41793   9.808  28.992   4.492
69369W        W41794  19.639  40.874   4.118
69370W        W41795   7.778  19.139  13.405
69371W        W41796  17.014  24.425   4.376
69372W        W41797  37.859  11.334  14.996
69373W        W41798  13.693  41.840   3.694
69374W        W41799  42.651  31.425   3.570
69375W        W41800  28.486  40.426   1.841
69376W        W41801  16.506  31.539   9.839
69377W        W41802  22.703  28.953  12.582
69378W        W41803  16.635  31.466  10.688
69379W        W41804  33.859  30.628   0.837
69380W        W41805   0.019   4.167   4.575
69381W        W41806  27.620  40.339   4.091
69382W        W41807  11.746  23.142  13.880
69383W        W41808   5.995  20.066   1.863
69384W        W41809  31.505  41.372   0.845
69385W        W41810   6.868  43.644  13.859
69386W        W41811  26.098  38.411  11.606
69387W        W41812  36.363  41.041   2.287
69388W        W41813  25.431  17.631   0.383
69389W        W41814   7.860  41.625   4.996
69390W        W41815  13.220  25.059   4.719
69391W        W41816  26.184  41.005   2.200
69392W        W41817  13.852   9.682  12.585
69393W        W41818   5.248  10.231  10.105
69394W        W41819   4.380  19.855   3.352
69395W        W41820  42.510  44.665  14.430
69396W        W41821  43.305  31.035   1.363
69397W        W41822  21.716  33.040   3.838
69398W        W41823   1.790  30.403   1.639
69399W        W41824  33.838  12.153  10.474
69400W        W41825  34.973  38.069   2.039
69401W        W41826  18.000  15.093   3.181
69402W        W41827  22.672   0.988   0.172
69403W        W41828   7.634  35.676   3.131
69404W        W41829  27.386  16.793   4.618
69405W        W41830  43.001  25.511  12.618
69406W        W41831   4.262  26.004  10.508
69407W        W41832  26.572  27.488   2.237
69408W        W41833  36.220  25.211  13.951
69409W        W41834  17.211  13.775   3.392
69410W        W41835  32.182  30.572  11.900
69411W        W41836  44.573  18.098  11.690
69412W        W41837  11.614   2.921   1.137
69413W        W41838  21.594   2.816   3.925
69414W        W41839  10.693  24.220  14.532
69415W        W41840  34.942   5.780  10.819
69416W        W41841  19.296  36.404  12.969
69417W        W41842  15.059   7.794   4.722
69418W        W41843  22.083  39.340   2.699
69419W        W41844  19.563  42.486   4.421
69420W        W41845  36.429  37.326   4.555
69421W        W41846   8.011  19.606  10.350
69422W        W41847  38.236  39.020   0.373
69423W        W41848   5.494  14.863   4.679
69424W        W41849  32.984  19.080  10.791
69425W        W41850  38.057  31.847  14.782
69426W        W41851   3.367   9.315  11.898
69427W        W41852  32.297   4.501  11.123
69428W        W41853  20.504   2.761   0.931
69429W        W41854  14.332  22.490  14.297
69430W        W41855  16.358   0.345   3.233
69431W        W41856  23.132  24.465  11.056
69432W        W41857  24.072  12.405  13.832
69433W        W41858  19.500  24.235  12.354
69434W        W41859  12.286  14.242  14.881
69435W        W41860  11.751  39.010  12.914
69436W        W41861   1.957   5.710   3.226
69437W        W41862  41.875  41.968   0.364
69438W        W41863  41.002  22.035   3.697
69439W        W41864  11.165  19.608   2.425
69440W        W41865  29.987  10.320  11.518
69441W        W41866  22.534  29.137   4.601
69442W        W41867   8.101  38.971  13.397
69443W        W41868  26.772  27.568  12.834
69444W        W41869  32.417  25.605   0.295
69445W        W41870  34.518  34.560   2.418
69446W        W41871  27.483  11.070  11.900
69447W        W41872   9.819  40.859   3.786
69448W        W41873  11.616  16.913  11.112
69449W        W41874   0.982  14.059  13.335
69450W        W41875  22.573  25.226   3.654
69451W        W41876   1.651  43.025   1.778
69452W        W41877  36.857  21.299  14.301
69453W        W41878  21.655   1.961   4.702
69454W        W41879   0.971  19.619   0.362
69455W        W41880  14.720   0.780   4.194
69456W        W41881  22.728   8.723   1.392
69457W        W41882  36.278  16.651  13.883
69458W        W41883  26.891  17.183  12.982
69459W        W41884  20.419  15.587  11.487
69460W        W41885  41.519  35.974   3.891
69461W        W41886   5.676   2.989  13.335
69462W        W41887  35.977  10.430  13.513
69463W        W41888  38.557   8.583  14.489
69464W        W41889   3.889  33.950  11.364
69465W        W41890   4.269   5.871  11.744
69466W        W41891  28.427  19.093  14.978
69467W        W41892   0.445  24.725   0.724
69468W        W41893  30.496  40.073   0.810
69469W        W41894   0.867  39.233  10.577
69470W        W41895   1.843  40.451   4.202
69471W        W41896  36.473  16.540  14.850
69472W        W41897  15.328  27.609  12.399
69473W        W41898   8.632  35.663   3.302
69474W        W41899   8.918  42.251   1.320
69475W        W41900  20.440  19.867   3.278
69476W        W41901  37.535   9.859  14.045
69477W        W41902  19.336  26.998   3.167
69478W        W41903  37.908   3.799   0.213
69479W        W41904  28.987  42.339  14.887
69480W        W41905  36.379   2.635  10.735
69481W        W41906  10.197  42.799  13.251
69482W        W41907  12.192   9.290   3.851
69483W        W41908  33.004  20.774   1.513
69484W        W41909  20.476  35.852   0.136
69485W        W41910   9.664  26.896  11.552
69486W        W41911  25.710  15.145   4.631
69487W        W41912  18.441  31.650   2.902
69488W        W41913  14.121   6.848  14.410
69489W        W41914  31.120  40.332   1.206
69490W        W41915   5.163  27.010  11.100
69491W        W41916   8.632  18.957  14.975
69492W        W41917   7.790  35.884   2.689
69493W        W41918  34.874  44.622  11.818
69494W        W41919  17.099  42.339  11.492
69495W        W41920  13.531   5.171  12.933
69496W        W41921  23.136  37.797  14.339
69497W        W41922   8.331  23.682  14.808
69498W        W41923   1.853  41.995   4.498
69499W        W41924   1.110  42.519  12.113
69500W        W41925  22.479  21.728  13.481
69501W        W41926  40.358  10.553  11.994
69502W        W41927  34.895  41.785  11.561
69503W        W41928   2.209   5.982  12.245
69504W        W41929  14.175  18.805  12.595
69505W        W41930  17.465  34.059  11.899
69506W        W41931  32.092  25.057  11.540
69507W        W41932  14.806   1.704   1.258
69508W        W41933   0.737  29.660  10.666
69509W        W41934  17.907  16.975  13.796
69510W        W41935  10.341  15.488   4.609
69511W        W41936  36.447  19.131  12.100
69512W        W41937  20.232   1.813   4.580
69513W        W41938  28.093  27.188   3.202
69514W        W41939  35.163   8.035   3.549
69515W        W41940  34.179   0.998   2.755
69516W        W41941  13.617  34.428  12.321
69517W        W41942  17.229  28.376   0.860
69518W        W41943  10.132  38.059   2.008
69519W        W41944  10.209  23.392   2.862
69520W        W41945  24.397  29.194   1.177
69521W        W41946  36.359   3.937   4.129
69522W        W41947  11.931   8.104  10.467
69523W        W41948   6.337   0.988   2.220
69524W        W41949  10.678   3.002  10.472
69525W        W41950  23.593  19.912   3.236
69526W        W41951  44.562  25.736   4.164
69527W        W41952  12.655  15.786   3.138
69528W        W41953  19.102   4.409   2.693
69529W        W41954   2.223  39.313  11.814
69530W        W41955  33.431   7.844   3.151
69531W        W41956  14.149  40.245  14.921
69532W        W41957  25.001  25.442  14.990
69533W        W41958  25.515  33.410   4.806
69534W        W41959  15.882   4.273  13.788
69535W        W41960   0.593  28.212  10.555
69536W        W41961  40.333   7.871  12.688
69537W        W41962  22.211  12.367   1.320
69538W        W41963   9.222  18.776  12.933
69539W        W41964  28.941  27.680  13.333
69540W        W41965  25.495  19.409   0.831
69541W        W41966  33.099   4.174   1.907
69542W        W41967   8.528  12.676  11.220
69543W        W41968   0.569  27.358   0.039
69544W        W41969   7.180  43.559  11.027
69545W        W41970  24.570  41.652  13.380
69546W        W41971  22.936  18.765   0.434
69547W        W41972   3.957  26.301   4.816
69548W        W41973  33.540  18.977  10.194
69549W        W41974   2.791  15.679  13.841
69550W        W41975   4.018  11.858   2.756
69551W        W41976  32.953  16.030   4.215
69552W        W41977  24.208  23.389   0.666
69553W        W41978  39.561  33.106   2.607
69554W        W41979  20.590  29.676  13.845
69555W        W41980  24.055  11.432  10.651
69556W        W41981  41.315  31.448  13.555
69557W        W41982   4.970  16.252  11.501
69558W        W41983  25.956  44.270  14.073
69559W        W41984   4.744  30.591  14.742
69560W        W41985  39.951  25.962  11.577
69561W        W41986  38.939   5.101   2.387
69562W        W41987  33.487   5.664  13.351
69563W        W41988  37.542  39.957   1.221
69564W        W41989  12.117  44.757  14.597
69565W        W41990   3.493  41.890   0.423
69566W        W41991  31.533  20.011  14.514
69567W        W41992  29.076  40.856   2.730
69568W        W41993   8.430  42.479   2.132
69569W        W41994  15.808  13.685  14.890
69570W        W41995  19.008   8.362   4.155
69571W        W41996  16.134   4.421   0.804
69572W        W41997  19.028  10.090  12.440
69573W        W41998  32.123  35.398   2.817
69574W        W41999  36.450  27.831   2.641
69575W        W42000  31.334   5.350  12.346
69576W        W42001  23.778  16.018  12.208
69577W        W42002  40.087  10.655  11.539
69578W        W42003  20.054  39.382  11.955
69579W        W42004  37.826  10.795   4.549
69580W        W42005  40.565  29.186  12.444
69581W        W42006  23.474  14.835  14.274
69582W        W42007  42.452  23.449   3.837
69583W        W42008  18.206  12.325  11.849
69584W        W42009   6.267   9.630   2.960
69585W        W42010  40.075  19.550   4.365
69586W        W42011  33.390  40.361   3.755
69587W        W42012  20.251  35.819  11.725
69588W        W42013  42.332  14.843   4.561
69589W        W42014  17.154  14.211   1.711
69590W        W42015   2.685  31.406   1.715
69591W        W42016  43.462  11.113  12.923
69592W        W42017   2.970  34.622  13.051
69593W        W42018  43.876  40.745  12.079
69594W        W42019   5.293  44.482  11.452
69595W        W42020  34.374  31.493   4.205
69596W        W42021   2.476  12.387  14.915
69597W        W42022  43.999  41.356   4.066
69598W        W42023  21.401   9.759  12.083
69599W        W42024  31.786  30.389   0.623
69600W        W42025   6.646  43.669   2.815
69601W        W42026  19.280   9.320  11.135
69602W        W42027   6.593  18.323   2.342
69603W        W42028   3.193  18.943   3.686
69604W        W42029  44.511  44.821  13.929
69605W        W42030   3.467  42.920  10.868
69606W        W42031  15.053  24.738   0.403
69607W        W42032  41.995  30.073  12.543
69608W        W42033   9.927  23.107  14.502
69609W        W42034  12.343  41.653  12.526
69610W        W42035  40.023   8.867   1.384
69611W        W42036   5.795  22.403  13.008
69612W        W42037   2.795  21.825   2.636
69613W        W42038  42.787  32.165   2.685
69614W        W42039   9.195   3.042   4.047
69615W        W42040  36.449  27.106  13.478
69616W        W42041   3.229   6.121  10.245
69617W        W42042  31.916  13.019  12.390
69618W        W42043  31.836   3.675   4.580
69619W        W42044  43.736  35.398  11.108
69620W        W42045  30.458  15.240   2.764
69621W        W42046  20.945  14.134   3.831
69622W        W42047  17.172  44.936   0.527
69623W        W42048  16.319  15.530   4.656
69624W        W42049   3.253  26.212  14.297
69625W        W42050  41.838  34.628   5.046
69626W        W42051  10.847  16.101   1.808
69627W        W42052  38.800  17.520   2.072
69628W        W42053  42.264  16.556   0.961
69629W        W42054   6.261   2.463  10.768
69630W        W42055   6.419  23.181  10.712
69631W        W42056  43.704   8.395  11.531
69632W        W42057  41.674  35.354   3.084
69633W        W42058  23.406   6.966  13.102
69634W        W42059  19.235  11.313   3.225
69635W        W42060   8.383   0.741   1.722
69636W        W42061   9.630  39.925  12.108
69637W        W42062  11.811  17.086   0.286
69638W        W42063  30.711  12.613   3.099
69639W        W42064  29.105  32.916   0.487
69640W        W42065   4.288  29.759   0.591
69641W        W42066  13.368   3.913  11.479
69642W        W42067  35.122   3.668  12.440
69643W        W42068   8.207   8.499   4.645
69644W        W42069   8.999  24.668   2.573
69645W        W42070   2.466  12.245   1.236
69646W        W42071  25.558  34.540  11.163
69647W        W42072  21.752  16.339   4.832
69648W        W42073   7.432   0.720   2.190
69649W        W42074  28.707  12.841   4.288
69650W        W42075  24.717  35.508  13.491
69651W        W42076  14.867  29.874   0.596
69652W        W42077  42.508  18.300  14.857
69653W        W42078  39.792  16.025  12.089
69654W        W42079  15.243  30.075  13.920
69655W        W42080  21.072  20.606   3.618
69656W        W42081   2.413  22.595   4.035
69657W        W42082  15.131  35.451   4.106
69658W        W42083  16.879   9.144   2.454
69659W        W42084   2.922  22.557   4.063
69660W        W42085  16.088  27.152  13.271
69661W        W42086  41.010  24.694   2.252
69662W        W42087   8.271  30.871  14.486
69663W        W42088  40.821  14.542  13.832
69664W        W42089  25.765  28.116  13.859
69665W        W42090  10.408  23.076  11.013
69666W        W42091  13.620  26.063   1.420
69667W        W42092   9.690  43.479  13.120
69668W        W42093  10.376   8.166   0.249
69669W        W42094  37.963  40.667   3.023
69670W        W42095  16.195   6.125   1.727
69671W        W42096  15.521  25.398   3.226
69672W        W42097  13.119  13.050   0.378
69673W        W42098  41.490  42.838   1.796
69674W        W42099  10.557  10.661   0.908
69675W        W42100  25.352  36.395  14.560
69676W        W42101  19.971  21.781  14.246
69677W        W42102  37.971   8.326   0.274
69678W        W42103  32.077  26.197  12.566
69679W        W42104  24.246  35.621   2.706
69680W        W42105   3.178  19.569   2.375
69681W        W42106   8.196  30.340  11.078
69682W        W42107  14.588  19.687   2.300
69683W        W42108  16.815   5.910   0.102
69684W        W42109  10.116   5.169  14.269
69685W        W42110  37.879  13.829  11.050
69686W        W42111  40.000  24.937  14.333
69687W        W42112   5.178  31.702   4.118
69688W        W42113  16.157  43.412  10.759
69689W        W42114  13.685   0.389   1.171
69690W        W42115  32.635   9.097   2.162
69691W        W42116  40.634   5.925   3.633
69692W        W42117  13.883  28.649  14.778
69693W        W42118  30.883  41.323   2.725
69694W        W42119  21.998  40.333  14.377
69695W        W42120  44.241  44.273  10.604
69696W        W42121  32.335  41.800   2.160
69697W        W42122  41.309  28.773   3.746
69698W        W42123  41.492  44.817  11.250
69699W        W42124  22.995  10.724   3.276
69700W        W42125  44.443   3.392   4.596
69701W        W42126   9.183  19.033  13.985
69702W        W42127  29.159  44.244  13.668
69703W        W42128   2.884  17.300   0.364
69704W        W42129  23.589  30.052  10.931
69705W        W42130  38.376  42.515   4.165
69706W        W42131   1.879  21.045  10.684
69707W        W42132  11.973  40.798   3.545
69708W        W42133  35.163  43.981  12.540
69709W        W42134   5.385  33.345  10.931
69710W        W42135  12.369  34.410   1.844
69711W        W42136  40.941  40.885   4.537
69712W        W42137  30.000   2.001   3.705
69713W        W42138   4.483  30.096   4.084
69714W        W42139  17.791  43.736  13.345
69715W        W42140  37.579   7.594   1.147
69716W        W42141  23.034  35.956  11.827
69717W        W42142  28.658  42.769   0.870
69718W        W42143  44.792  18.064   3.290
69719W        W42144  20.179  11.296   4.124
69720W        W42145  33.547  19.074   2.725
69721W        W42146  26.628  10.760   2.610
69722W        W42147  36.466   0.736   1.352
69723W        W42148  35.024   5.532  11.608
69724W        W42149  38.826  39.822   4.527
69725W        W42150  37.311  36.842   1.936
69726W        W42151  10.279  22.150   3.648
69727W        W42152  19.688  37.811  14.566
69728W        W42153  15.327  30.117   1.655
69729W        W42154  14.615  35.870   3.176
69730W        W42155  26.082  13.227  10.765
69731W        W42156  26.562  44.673  11.639
69732W        W42157  39.360   0.740   2.960
69733W        W42158  26.658   1.265  12.575
69734W        W42159  27.950  34.171  13.375
69735W        W42160  29.378  11.853   0.492
69736W        W42161   8.918  18.262  12.141
69737W        W42162  44.533   6.420   4.096
69738W        W42163  16.897  19.239  11.215
69739W        W42164  11.732  19.089   1.894
69740W        W42165  14.754  30.313  11.078
69741W        W42166  41.985  39.219  14.980
69742W        W42167  29.533  34.088   2.802
69743W        W42168  42.608   2.362   2.308
69744W        W42169   0.999   5.405  12.327
69745W        W42170  38.061  38.408   2.471
69746W        W42171   7.770  32.899  10.987
69747W        W42172  33.690  42.860   5.042
69748W        W42173   7.184  39.584   2.704
69749W        W42174   7.685  44.551  13.188
69750W        W42175  11.307  24.953  13.941
69751W        W42176  43.865   6.480   2.818
69752W        W42177   8.735  24.191   1.715
69753W        W42178  39.848  34.359   3.622
69754W        W42179   3.727  21.678   3.642
69755W        W42180  25.936  39.322  12.417
69756W        W42181  19.696  14.810  12.993
69757W        W42182   2.318  42.943   3.055
69758W        W42183  30.629  22.568   0.849
69759W        W42184  25.415  32.975  14.431
69760W        W42185  14.579  29.745  13.423
69761W        W42186  38.269   8.740  13.328
69762W        W42187  18.627  32.600  12.221
69763W        W42188  35.622  25.255   1.220
69764W        W42189  28.696  34.844   0.383
69765W        W42190  37.007   4.623  13.994
69766W        W42191  37.071  24.823   4.038
69767W        W42192  17.750  35.804   0.982
69768W        W42193  40.146  24.043  14.047
69769W        W42194  29.586   4.681  14.269
69770W        W42195  43.061  41.805   4.026
69771W        W42196  37.798  19.705  12.890
69772W        W42197   5.390  31.511   3.100
69773W        W42198  39.588  25.432  12.495
69774W        W42199   8.405  43.470  11.045
69775W        W42200  13.846   3.462   3.408
69776W        W42201   9.917  42.824   1.681
69777W        W42202  14.626  36.395  13.813
69778W        W42203  33.379  33.113  13.398
69779W        W42204   0.354  39.903   1.200
69780W        W42205  23.382  29.543  13.051
69781W        W42206  29.447   8.150   1.775
69782W        W42207  10.113  38.003  14.997
69783W        W42208   5.967  11.051   4.148
69784W        W42209  28.448  42.351  14.933
69785W        W42210   6.384  28.044  10.571
69786W        W42211  12.880  30.053   4.921
69787W        W42212  33.764  41.871  14.246
69788W        W42213  11.323  33.797   1.678
69789W        W42214  18.102  39.872   1.777
69790W        W42215   0.934  27.538   3.188
69791W        W42216  18.246  44.336  13.359
69792W        W42217  35.833  36.477  13.797
69793W        W42218  28.428  13.838   1.724
69794W        W42219  15.556  43.814   3.344
69795W        W42220   7.447  42.177  12.570
69796W        W42221   2.326   8.601   1.797
69797W        W42222  42.740   2.056  13.350
69798W        W42223  29.581  19.085  14.417
69799W        W42224   9.580  36.771   9.821
69800W        W42225  27.366   1.992  11.145
69801W        W42226   4.727  23.314   3.225
69802W        W42227  42.268  27.242  10.397
69803W        W42228   8.762  30.147   1.701
69804W        W42229  11.793  30.044  14.482
69805W        W42230   0.305  29.915   2.413
69806W        W42231  37.626  19.670  11.216
69807W        W42232  39.472   5.731  12.498
69808W        W42233  34.017  16.066  13.867
69809W        W42234  11.870  23.005   0.845
69810W        W42235   6.131  12.517  11.939
69811W        W42236  42.847  10.428   4.234
69812W        W42237   8.177   8.258   4.175
69813W        W42238  31.492  15.809   0.443
69814W        W42239  30.550  10.608   2.812
69815W        W42240  28.644   9.190   4.373
69816W        W42241   7.460  34.960   3.983
69817W        W42242  10.724  41.878   0.397
69818W        W42243  25.437   5.855   1.847
69819W        W42244  24.985  40.835  14.263
69820W        W42245  25.692   3.014   4.132
69821W        W42246  26.620  24.806  13.928
69822W        W42247  39.538   7.084   3.724
69823W        W42248   4.594   4.050  12.264
69824W        W42249   4.364  19.208   1.264
69825W        W42250   0.915  27.224  13.865
69826W        W42251  29.106  31.312  11.906
69827W        W42252  43.190  29.507  12.103
69828W        W42253  38.080   1.924   3.203
69829W        W42254  42.891  36.905   1.645
69830W        W42255  14.694   1.331   2.411
69831W        W42256  28.472   7.801   4.283
69832W        W42257   9.672   0.327   3.593
69833W        W42258  21.891  12.516  14.465
69834W        W42259   9.433  32.041  11.524
69835W        W42260   6.699  19.619   5.033
69836W        W42261  40.041  17.190  12.469
69837W        W42262  34.060  23.057   3.146
69838W        W42263  22.259   7.650   2.206
69839W        W42264  18.246  33.835   0.927
69840W        W42265  37.530  37.486   1.759
69841W        W42266  21.827  23.001  13.592
69842W        W42267  11.791  28.225   0.808
69843W        W42268   5.721  37.685  11.626
69844W        W42269   7.759  10.948   1.770
69845W        W42270  25.460  22.604   3.643
69846W        W42271  40.192   7.304  11.667
69847W        W42272  15.523  36.452  12.369
69848W        W42273  24.129  40.683   4.157
69849W        W42274  10.220  39.606  13.309
69850W        W42275   2.320  29.713   1.793
69851W        W42276  22.371  24.644  11.119
69852W        W42277  44.034  39.304  14.871
69853W        W42278  28.053   5.429  14.432
69854W        W42279  32.344  27.047   4.817
69855W        W42280  13.234  36.030   1.706
69856W        W42281  36.017  28.421  14.178
69857W        W42282  16.896  31.738  13.908
69858W        W42283  37.041  16.779  13.053
69859W        W42284   5.195  10.155  14.435
69860W        W42285  10.101  11.217   0.341
69861W        W42286   6.242  14.395  14.234
69862W        W42287  25.166   4.379   2.677
69863W        W42288  29.187  10.324  13.969
69864W        W42289  16.618   2.825   4.196
69865W        W42290  27.198   4.896   2.709
69866W        W42291  13.121   5.966  14.260
69867W        W42292   1.056  16.354   4.130
69868W        W42293  11.287  44.547  11.168
69869W        W42294  29.097  38.663  11.540
69870W        W42295  37.292  38.295  13.532
69871W        W42296  24.776   6.784   0.036
69872W        W42297  13.783   3.975  12.272
69873W        W42298  37.784  22.389   1.305
69874W        W42299  21.135  33.524  13.961
69875W        W42300  22.243  12.159  11.865
69876W        W42301  28.721  39.692   3.592
69877W        W42302  41.993  11.418  11.431
69878W        W42303  38.089  16.624   2.347
69879W        W42304  15.407  20.136  10.589
69880W        W42305  35.846  14.041   1.356
69881W        W42306   9.747  41.130  11.217
69882W        W42307  35.215  44.233  11.646
69883W        W42308  29.832   5.668   3.264
69884W        W42309  16.391  44.527   0.023
69885W        W42310  37.356  22.306   9.782
69886W        W42311  17.445  37.541  14.529
69887W        W42312  22.394  44.869  11.298
69888W        W42313  12.449  27.005   3.300
69889W        W42314  27.526  28.332   0.927
69890W        W42315  11.465  22.100   0.966
69891W        W42316  40.185  32.906   0.848
69892W        W42317  15.287  25.671  10.957
69893W        W42318  23.453  21.414   2.863
69894W        W42319  17.928  34.686   3.973
69895W        W42320  11.939  24.377   0.785
69896W        W42321  36.927  15.051   4.764
69897W        W42322  12.286  43.401  11.167
69898W        W42323   6.218  21.447   4.885
69899W        W42324  35.295  23.092   0.580
69900W        W42325   3.844  19.698   0.476
69901W        W42326  30.724  34.937  14.291
69902W        W42327  38.292  39.553  12.358
69903W        W42328  44.429  14.903   2.792
69904W        W42329  15.369  21.465   1.401
69905W        W42330  42.554  24.006  13.770
69906W        W42331  27.220  29.691   4.508
69907W        W42332   2.983   2.660   0.280
69908W        W42333  13.638  20.494   2.911
69909W        W42334  32.363   8.940   2.833
69910W        W42335   5.722   4.571   2.351
69911W        W42336  25.102  25.338   1.348
69912W        W42337  19.638  16.345   2.707
69913W        W42338  30.919  30.504  13.876
69914W        W42339  20.244  27.515   0.376
69915W        W42340  11.826  40.715  10.843
69916W        W42341  27.180   6.059  10.626
69917W        W42342  12.309  13.568  13.010
69918W        W42343   4.737  11.120  11.876
69919W        W42344  42.022  24.254   1.349
69920W        W42345  23.557  18.613   0.973
69921W        W42346   2.488   6.370   1.243
69922W        W42347  44.161   8.796  14.895
69923W        W42348  38.402  11.829   2.675
69924W        W42349  19.468  39.453   0.716
69925W        W42350  26.642   0.037  12.881
69926W        W42351  23.103  37.949   4.559
69927W        W42352  25.951  23.003   4.201
69928W        W42353  31.498  18.246   4.590
69929W        W42354  31.028  43.387   4.388
69930W        W42355  15.365  17.965  13.428
69931W        W42356   7.214  39.429  14.916
69932W        W42357  15.585  16.511   4.235
69933W        W42358  29.036  12.361  14.202
69934W        W42359  16.657  28.941   0.385
69935W        W42360  42.199  13.286  13.583
69936W        W42361  13.710  11.129   0.517
69937W        W42362  21.552   8.873  11.126
69938W        W42363  43.827  42.784   0.464
69939W        W42364  24.950  28.471   0.916
69940W        W42365   4.769  21.929   1.324
69941W        W42366  28.679   6.580  11.356
69942W        W42367  33.090   0.935  13.776
69943W        W42368  23.087  19.400  14.834
69944W        W42369   3.914  39.762   2.727
69945W        W42370  44.606  13.350   3.306
69946W        W42371  24.754  44.377   4.737
69947W        W42372  26.928  10.767   4.867
69948W        W42373  33.111  20.469  11.924
69949W        W42374  16.609  40.561  13.937
69950W        W42375  22.827  29.068   3.618
69951W        W42376  43.309  13.831  14.791
69952W        W42377  19.163   3.853  11.190
69953W        W42378   0.166   8.651  11.105
69954W        W42379  42.977  11.868   1.257
69955W        W42380   6.194  17.272  11.653
69956W        W42381  10.782  14.288  12.965
69957W        W42382  11.652   0.004  14.524
69958W        W42383   9.448   1.959   2.049
69959W        W42384  31.847  43.581  11.633
69960W        W42385  30.546  40.027  14.356
69961W        W42386  17.058  18.631   1.104
69962W        W42387   9.029  30.995   1.605
69963W        W42388   3.788  44.942  10.373
69964W        W42389  40.703   4.154   1.207
69965W        W42390  43.457  32.914   4.251
69966W        W42391  25.099  35.954  13.780
69967W        W42392  43.389  34.118  13.822
69968W        W42393  30.419  18.379  12.599
69969W        W42394  11.193   6.269   2.186
69970W        W42395  12.584  24.643  11.824
69971W        W42396  35.606  29.579   5.259
69972W        W42397  21.230   0.257  12.605
69973W        W42398  29.128   8.338   1.388
69974W        W42399  17.739  40.083  11.877
69975W        W42400  28.492  23.785  13.005
69976W        W42401  13.869   2.392  12.130
69977W        W42402  16.607  27.228  13.366
69978W        W42403  41.891  10.821   0.260
69979W        W42404   8.623  32.037   4.778
69980W        W42405  24.012   3.332  11.597
69981W        W42406  33.592  19.043  12.996
69982W        W42407  42.595  11.631   2.909
69983W        W42408  20.554   3.722   2.335
69984W        W42409   9.732  13.611  11.190
69985W        W42410  26.277   2.506  11.140
69986W        W42411  40.065  21.782  11.650
69987W        W42412  20.744  13.218   5.020
69988W        W42413  43.534   7.508  14.830
69989W        W42414  15.782  28.163   0.153
69990W        W42415   7.850  40.848   0.937
69991W        W42416   1.408   2.822   0.721
69992W        W42417   4.936  31.583  12.983
69993W        W42418  26.927  17.121  14.818
69994W        W42419  21.952  15.191   1.293
69995W        W42420  30.401  20.000   3.264
69996W        W42421  43.584  14.120  13.553
69997W        W42422  36.049   4.026   1.272
69998W        W42423   3.269  15.136  13.414
69999W        W42424  36.887  13.175   4.452
70000W        W42425   5.515  21.050  12.191
70001W        W42426  27.677  43.484  12.845
70002W        W42427  41.528  15.420   1.815
70003W        W42428  41.961  12.206  11.846
70004W        W42429  11.253  14.308  14.970
70005W        W42430   4.276   9.594   3.294
70006W        W42431  21.240   8.330  13.974
70007W        W42432  36.544  14.777  14.329
70008W        W42433  41.670  42.994   5.007
70009W        W42434  17.693  32.891  10.659
70010W        W42435  23.494  35.896  14.891
70011W        W42436  37.009  14.139   3.571
70012W        W42437   4.988   0.728   3.258
70013W        W42438  33.436  31.685  11.639
70014W        W42439   0.283  41.909  13.013
70015W        W42440  11.127  20.320   0.793
70016W        W42441  11.246  10.532   1.263
70017W        W42442  38.058  43.226  13.052
70018W        W42443  37.554  42.310  11.607
70019W        W42444  35.521  31.566   1.311
70020W        W42445   6.396  38.289  14.699
70021W        W42446  18.533  39.142  11.628
70022W        W42447   3.192   7.824   1.826
70023W        W42448  31.925  43.041   4.834
70024W        W42449   2.188  24.898   0.735
70025W        W42450  42.424  41.434  14.063
70026W        W42451  17.616  36.270   0.829
70027W        W42452  32.562  37.922  11.630
70028W        W42453  20.991  24.051  11.169
70029W        W42454  18.054  15.296   1.833
70030W        W42455  44.357  15.524  12.876
70031W        W42456  34.734   6.906  13.162
70032W        W42457  12.705   6.531   0.038
70033W        W42458  32.193   6.177  13.513
70034W        W42459  44.183  37.852   0.244
70035W        W42460  20.696  34.622   4.642
70036W        W42461  18.677  31.020  13.888
70037W        W42462  41.330   4.263  13.945
70038W        W42463  15.090   7.007   0.870
70039W        W42464  20.225  31.401  12.760
70040W        W42465   0.860  41.428  13.962
70041W        W42466  26.079  23.683  12.152
70042W        W42467  34.693   8.910   3.794
70043W        W42468  26.890  19.787   0.532
70044W        W42469  28.294  37.241   2.914
70045W        W42470   7.103  31.686   1.730
70046W        W42471  10.224  18.518  14.859
70047W        W42472  10.421  30.693   3.116
70048W        W42473  33.360  18.788  12.622
70049W        W42474  17.612   2.121  13.751
70050W        W42475  41.233  17.665   0.372
70051W        W42476  34.105  28.570  11.780
70052W        W42477  23.976   4.904   0.421
70053W        W42478  14.245   6.196  10.508
70054W        W42479  41.305  25.519   1.943
70055W        W42480  17.854  13.164   4.917
70056W        W42481  22.753   2.673  14.393
70057W        W42482  15.305  28.582  13.315
70058W        W42483  17.103  29.117   3.746
70059W        W42484  11.216  36.049   0.072
70060W        W42485  23.453  32.083   4.197
70061W        W42486  27.244  41.639   4.421
70062W        W42487   9.806  36.633  13.450
70063W        W42488  32.953  22.563  10.868
70064W        W42489  23.466  21.137  12.939
70065W        W42490  31.145  20.444  13.306
70066W        W42491  10.850   3.382   3.348
70067W        W42492   6.579  40.441  12.660
70068W        W42493  43.747   5.454  13.835
70069W        W42494  19.921  18.075  14.341
70070W        W42495   4.273  38.520  14.549
70071W        W42496  35.420  29.206   2.849
70072W        W42497  13.122  27.616   2.927
70073W        W42498   7.310  26.422   2.912
70074W        W42499  18.557  19.536   1.252
70075W        W42500  40.772  35.513  11.023
70076W        W42501  22.514  20.131   1.822
70077W        W42502  37.923  10.690   0.857
70078W        W42503   4.627  25.022  14.400
70079W        W42504   2.795  28.964   2.228
70080W        W42505   2.449  35.446  14.046
70081W        W42506  43.913  19.628  12.359
70082W        W42507  31.667   2.378   0.923
70083W        W42508   3.407  30.116   1.244
70084W        W42509  31.392  28.144   1.757
70085W        W42510  10.038   9.977  10.107
70086W        W42511  33.516  29.875   3.886
70087W        W42512   8.541  44.870   4.607
70088W        W42513  41.484  11.581   1.365
70089W        W42514  16.710  39.351   0.422
70090W        W42515  18.709  17.226   3.440
70091W        W42516   8.390  32.708   5.039
70092W        W42517  44.555  10.791  11.979
70093W        W42518  19.427  37.431  12.831
70094W        W42519  36.471   1.245  14.368
70095W        W42520  18.540  31.927   1.911
70096W        W42521  16.018  19.931   1.673
70097W        W42522  15.883   6.341   0.345
70098W        W42523  13.757  42.719   0.848
70099W        W42524  41.414  10.355   4.774
70100W        W42525  22.209   3.677   3.306
70101W        W42526  24.557  44.319   0.876
70102W        W42527  19.405  38.021   2.837
70103W        W42528   7.784  42.291   1.661
70104W        W42529  20.188  20.727   0.286
70105W        W42530   7.302  15.762  14.185
70106W        W42531  44.175  18.053  13.218
70107W        W42532  19.197  37.924  11.056
70108W        W42533  36.428  12.334  12.878
70109W        W42534  31.493  26.040   2.834
70110W        W42535  25.498  23.469   3.357
70111W        W42536  17.110  44.365   1.425
70112W        W42537  30.225   2.473   0.422
70113W        W42538  16.689  21.356  14.833
70114W        W42539  39.270  19.343   2.116
70115W        W42540   1.224   1.424  12.971
70116W        W42541  42.408  27.585  11.646
70117W        W42542  37.401  23.729  10.311
70118W        W42543  32.707  11.122   3.214
70119W        W42544  24.765  24.371  12.509
70120W        W42545  20.670  25.546   2.390
70121W        W42546  32.642  27.091  11.483
70122W        W42547  31.021  43.208   2.704
70123W        W42548  10.662  41.393   4.680
70124W        W42549  32.155   9.649  11.089
70125W        W42550  21.681  39.353   0.474
70126W        W42551   9.752  36.759  13.954
70127W        W42552  35.105  13.058  13.036
70128W        W42553  14.916  17.762  14.828
70129W        W42554  34.480  43.084   2.223
70130W        W42555  30.838  35.340  13.907
70131W        W42556  28.097   8.920  14.622
70132W        W42557   1.266  16.248   3.382
70133W        W42558   0.805  15.600   1.493
70134W        W42559  22.705  25.055  14.118
70135W        W42560   9.151   0.399   4.406
70136W        W42561  43.879  26.606  13.009
70137W        W42562  13.091  38.534  13.042
70138W        W42563  36.680  23.481  14.749
70139W        W42564  31.854  10.378  14.430
70140W        W42565  18.491  44.880   3.592
70141W        W42566  18.164  16.515  12.366
70142W        W42567  24.571   5.466  13.545
70143W        W42568  20.175  15.385  14.783
70144W        W42569  23.570  11.234   2.720
70145W        W42570   2.868  36.105  11.746
70146W        W42571   4.181  21.705   4.596
70147W        W42572   1.371  15.221  12.595
70148W        W42573   0.171  42.846  11.147
70149W        W42574   9.767   4.809   0.618
70150W        W42575  24.982  10.168   5.113
70151W        W42576  27.269  38.944  11.257
70152W        W42577  44.438  43.364   0.862
70153W        W42578  36.531  34.376  10.546
70154W        W42579  42.367  14.577   5.218
70155W        W42580   6.349  21.046   1.256
70156W        W42581  38.381   0.270  14.789
70157W        W42582  19.951  20.491  14.001
70158W        W42583  31.985   1.424  12.037
70159W        W42584  31.804  38.088   2.248
70160W        W42585  38.501   7.567  14.829
70161W        W42586  42.971  10.027  13.088
70162W        W42587  32.786   0.423   4.497
70163W        W42588  26.075  12.194  11.154
70164W        W42589  24.111  34.387   1.387
70165W        W42590  29.853  40.448  12.525
70166W        W42591  40.854  30.046   1.249
70167W        W42592  43.533  42.784   2.205
70168W        W42593  34.732  16.168   0.022
70169W        W42594   2.442   9.835   1.251
70170W        W42595  21.186   8.114  11.211
70171W        W42596   8.292  31.474   3.791
70172W        W42597  25.518   9.902   2.933
70173W        W42598  33.759  31.432  13.432
70174W        W42599  35.936  14.536   1.257
70175W        W42600  13.257   3.840  10.512
70176W        W42601  10.442  18.553   5.052
70177W        W42602   5.860  17.414  13.725
70178W        W42603   5.333  36.671   4.222
70179W        W42604  13.986   5.740   3.349
70180W        W42605  22.018  36.899   4.100
70181W        W42606   2.348  36.576  14.358
70182W        W42607  33.288  20.429   3.193
70183W        W42608  44.335  12.437  12.578
70184W        W42609  29.177  15.471   1.874
70185W        W42610  26.846   1.392   1.464
70186W        W42611  44.791  16.595  10.920
70187W        W42612  38.937  28.695  14.655
70188W        W42613  25.036  31.557   4.103
70189W        W42614  34.149  29.176   1.034
70190W        W42615  31.935  26.629   0.252
70191W        W42616  15.377  24.552   5.014
70192W        W42617  28.299  31.352  13.457
70193W        W42618  17.333  33.083   4.822
70194W        W42619  28.857  38.631  10.675
70195W        W42620  14.793  44.878   2.464
70196W        W42621   4.006  10.736  14.132
70197W        W42622  42.935  40.805   0.473
70198W        W42623  23.059  10.391  10.149
70199W        W42624  29.341   5.381   0.835
70200W        W42625  36.929  23.371   1.281
70201W        W42626   2.975  34.533   0.377
70202W        W42627  30.167   9.314   3.281
70203W        W42628  44.492  40.858   0.297
70204W        W42629  21.698  10.101   5.206
70205W        W42630  20.108  18.063   1.157
70206W        W42631   7.734  36.011  14.783
70207W        W42632   9.624  39.069  10.729
70208W        W42633  34.649  13.700   3.757
70209W        W42634  17.734  30.047   3.815
70210W        W42635  27.461  28.860   0.934
70211W        W42636  31.947  14.647  10.504
70212W        W42637   7.651  38.339   1.826
70213W        W42638  41.923  15.550   2.697
70214W        W42639  32.151  43.865   0.839
70215W        W42640   6.219  20.777  12.344
70216W        W42641  35.145  18.282  12.999
70217W        W42642  22.273  11.371   4.193
70218W        W42643   5.820  42.660  12.041
70219W        W42644   7.527  32.480   1.716
70220W        W42645  20.552  10.600  11.152
70221W        W42646  23.384   2.236  12.526
70222W        W42647  30.449  22.609  11.526
70223W        W42648   1.027  26.407   4.538
70224W        W42649   0.489  23.069  14.302
70225W        W42650  32.782  17.802  12.861
70226W        W42651  12.436  41.883  13.381
70227W        W42652  34.196  16.692   4.569
70228W        W42653  12.293  21.747   3.718
70229W        W42654   0.402   1.747   3.117
70230W        W42655  23.102   8.584   4.113
70231W        W42656  44.418  13.567   4.953
70232W        W42657  28.736  29.910   3.624
70233W        W42658  43.526   5.470  14.950
70234W        W42659  11.642  10.342  10.320
70235W        W42660  10.165   0.475   3.360
70236W        W42661  24.495  17.004  10.972
70237W        W42662   2.014  40.018  14.915
70238W        W42663  13.228  34.505  11.973
70239W        W42664  20.766   3.449  13.455
70240W        W42665  28.878  32.446  13.893
70241W        W42666  27.775  43.319  10.668
70242W        W42667  12.076  17.061  11.965
70243W        W42668   3.188  32.027  12.901
70244W        W42669   9.930   6.440  11.967
70245W        W42670  10.793  39.476   3.373
70246W        W42671  33.284  17.300   2.748
70247W        W42672  22.454  31.924   4.200
70248W        W42673  15.835  14.851  12.428
70249W        W42674  41.137   5.505   0.723
70250W        W42675   6.586  24.913  14.414
70251W        W42676  10.831  24.427   2.380
70252W        W42677  37.857  38.538   3.437
70253W        W42678   4.425  10.987   1.140
70254W        W42679  43.261  14.846   3.144
70255W        W42680  24.943   6.892  11.424
70256W        W42681  13.641   0.919  10.419
70257W        W42682  24.641   3.308   2.296
70258W        W42683  15.175  29.200   3.453
70259W        W42684   1.962  31.359  13.303
70260W        W42685  18.592  34.233   0.422
70261W        W42686  10.685   5.401   4.464
70262W        W42687  25.960   3.690   1.344
70263W        W42688  37.724  24.257   2.146
70264W        W42689  37.423   4.239  10.202
70265W        W42690   2.420  39.487  13.310
70266W        W42691  34.923  21.511   4.581
70267W        W42692  38.069  13.082   3.343
70268W        W42693  37.246  21.148   2.759
70269W        W42694  29.155  17.060   0.794
70270W        W42695  23.863  40.177   5.018
70271W        W42696  18.281  24.562   0.424
70272W        W42697  30.582   6.033  11.641
70273W        W42698   0.766  16.762   3.987
70274W        W42699  42.880  23.231   0.357
70275W        W42700  18.722   2.482  14.393
70276W        W42701  43.804  14.747   3.236
70277W        W42702  32.320  22.340   1.701
70278W        W42703  20.628  16.661   2.797
70279W        W42704  18.668  10.734  12.900
70280W        W42705   8.312  43.881  13.849
70281W        W42706  31.009  17.328  12.353
70282W        W42707  37.089  38.864  12.405
70283W        W42708  42.036  26.621   3.260
70284W        W42709  10.589   8.807  14.057
70285W        W42710  14.413  43.969  12.574
70286W        W42711  40.532  12.709   2.844
70287W        W42712  33.140   8.668  12.373
70288W        W42713   3.351   8.743  14.763
70289W        W42714  28.766  26.794  14.287
70290W        W42715   9.462   4.701   3.261
70291W        W42716  32.847  25.475   3.916
70292W        W42717  29.668  17.930  12.647
70293W        W42718  44.989  12.196  10.680
70294W        W42719  32.910  13.695  11.665
70295W        W42720  23.171  24.932   0.010
70296W        W42721  28.125  35.686   4.539
70297W        W42722  44.418  24.873   2.036
70298W        W42723  39.938  12.757  10.365
70299W        W42724  13.683   0.916   1.051
70300W        W42725  42.809  32.846  13.819
70301W        W42726  35.198  40.409  12.373
70302W        W42727  21.498   0.033  10.744
70303W        W42728  38.743  44.292   4.211
70304W        W42729   4.722  34.889  10.916
70305W        W42730  44.473  18.264   0.418
70306W        W42731  32.554  27.278   3.345
70307W        W42732  28.881  30.854  14.664
70308W        W42733  24.525   1.529  11.218
70309W        W42734  25.299  26.632   2.814
70310W        W42735   7.882  41.601   2.178
70311W        W42736   0.936  34.608  12.923
70312W        W42737  34.961   2.428  11.735
70313W        W42738  15.587  14.560   2.448
70314W        W42739  20.284   8.210  11.738
70315W        W42740  34.872  29.518   2.770
70316W        W42741  30.068  39.960  13.119
70317W        W42742   0.801  42.968  12.105
70318W        W42743  34.565  22.551  12.534
70319W        W42744  23.531  16.755   4.313
70320W        W42745  40.357  11.798  13.530
70321W        W42746   2.954   0.333   3.533
70322W        W42747  33.566  35.613  13.004
70323W        W42748  11.919  15.393   2.917
70324W        W42749  15.670   8.488  10.795
70325W        W42750  15.132  30.404  11.818
70326W        W42751  19.698  44.517   4.563
70327W        W42752   3.193  38.886  14.291
70328W        W42753   7.722  36.948  14.761
70329W        W42754  35.952  30.955  13.773
70330W        W42755  23.261  31.060  11.508
70331W        W42756  15.978  21.701  11.516
70332W        W42757  19.561  24.527   3.737
70333W        W42758   9.309  39.593   4.070
70334W        W42759  11.713  42.775   0.461
70335W        W42760  22.677  24.505  11.881
70336W        W42761  34.591  42.242   4.285
70337W        W42762  35.910   6.619  12.127
70338W        W42763  14.209   0.373   1.345
70339W        W42764  28.001   8.855  11.830
70340W        W42765  28.447  43.350  14.404
70341W        W42766   2.773  17.308   1.347
70342W        W42767   1.908  23.645   4.291
70343W        W42768  28.956  11.603   4.385
70344W        W42769   7.857   6.372  12.816
70345W        W42770  44.328  36.391   1.487
70346W        W42771  31.993  15.318  13.404
70347W        W42772  33.370  41.359   1.357
70348W        W42773   9.388  42.343   0.413
70349W        W42774   4.733  41.766  14.204
70350W        W42775  11.201   1.424  12.436
70351W        W42776  32.035  14.661   1.259
70352W        W42777  34.667  36.657   3.744
70353W        W42778  15.402  29.377  11.624
70354W        W42779  33.879  36.497   2.656
70355W        W42780  12.312  31.180  14.888
70356W        W42781  35.487  32.869   0.239
70357W        W42782  29.953  42.373   2.321
70358W        W42783  20.488  24.584   0.377
70359W        W42784  19.759  43.065   0.983
70360W        W42785  23.889  14.697   0.475
70361W        W42786  26.229  25.008  10.986
70362W        W42787  11.446  42.651  12.025
70363W        W42788  11.325  23.527  11.035
70364W        W42789  17.600  18.060  12.396
70365W        W42790  42.906  20.779   1.323
70366W        W42791  42.797  26.732  11.146
70367W        W42792  24.973  18.845   4.588
70368W        W42793   9.087   0.277  11.951
70369W        W42794  15.863  30.649  12.893
70370W        W42795   8.844  37.023   2.457
70371W        W42796   5.594  13.177  13.652
70372W        W42797  26.225  40.513   1.474
70373W        W42798  34.317  22.429  13.493
70374W        W42799  22.768  10.682  13.940
70375W        W42800  36.485  43.837  11.117
70376W        W42801   9.858   7.397   4.067
70377W        W42802   9.587   5.310  14.909
70378W        W42803   5.906   0.931  12.428
70379W        W42804  12.675  30.099   0.537
70380W        W42805  19.513  40.542  13.572
70381W        W42806  11.906  39.930  11.662
70382W        W42807  23.726   0.361  14.975
70383W        W42808  17.846   9.174   2.327
70384W        W42809   2.419  13.115   1.036
70385W        W42810  18.700   7.337  10.375
70386W        W42811   1.330  20.581   2.223
70387W        W42812  23.967  19.260   0.035
70388W        W42813  26.342  12.125  13.511
70389W        W42814  30.517  20.775   3.692
70390W        W42815  25.975  41.060   4.527
70391W        W42816  12.320  22.129  13.122
70392W        W42817  43.630  22.397  11.499
70393W        W42818   9.772  32.962  12.915
70394W        W42819   0.908  24.302  11.608
70395W        W42820  27.907  40.349   2.740
70396W        W42821  29.039  23.788  10.542
70397W        W42822  26.569   8.520  10.869
70398W        W42823  26.501   5.720  12.407
70399W        W42824  30.058  37.872   0.738
70400W        W42825  27.785  43.074  11.114
70401W        W42826   1.732   9.257  14.052
70402W        W42827  18.553  33.563   2.935
70403W        W42828  38.043  19.752  13.343
70404W        W42829   3.624  37.439  10.479
70405W        W42830  20.069  35.282   4.359
70406W        W42831  28.908  36.941   3.850
70407W        W42832  18.317  11.261  10.723
70408W        W42833  26.160   8.906   1.138
70409W        W42834  18.042  25.608   2.090
70410W        W42835  40.442   1.209   2.165
70411W        W42836  41.473  16.671   3.311
70412W        W42837  25.781  42.883   1.545
70413W        W42838  21.336  14.612  14.526
70414W        W42839  23.507  13.859  13.340
70415W        W42840  31.007  39.795   3.254
70416W        W42841  19.652  15.821   3.650
70417W        W42842  28.197  17.772   4.788
70418W        W42843  19.113  30.015  14.296
70419W        W42844   0.534  19.174  11.556
70420W        W42845  25.490  23.110  10.738
70421W        W42846  21.596   2.291  14.487
70422W        W42847   1.341  32.942   1.817
70423W        W42848  18.944  35.623  13.389
70424W        W42849  28.620  10.912   2.672
70425W        W42850  34.052  27.504  13.138
70426W        W42851  43.287  24.477   0.786
70427W        W42852  41.456  36.698  10.559
70428W        W42853  42.435  23.119   2.864
70429W        W42854  20.297  30.465  14.399
70430W        W42855  29.115  32.444   0.725
70431W        W42856  33.038  14.527  12.213
70432W        W42857   4.721  33.092  13.333
70433W        W42858  42.561  30.352   2.244
70434W        W42859  24.763   0.463  11.100
70435W        W42860  14.099  41.076  14.305
70436W        W42861  43.339   5.390  12.436
70437W        W42862  20.107  30.891   9.556
70438W        W42863  16.944  38.718   2.345
70439W        W42864  23.037  35.100   4.832
70440W        W42865  24.146  39.078   3.609
70441W        W42866  17.168   9.793   3.096
70442W        W42867  15.301  14.917  13.675
70443W        W42868  16.308   6.661  12.082
70444W        W42869  20.192  23.157   2.791
70445W        W42870   8.892  24.608  11.198
70446W        W42871   0.796  31.441   0.345
70447W        W42872   3.438   0.153  10.703
70448W        W42873   6.365  18.778   0.443
70449W        W42874  34.097  43.615  14.056
70450W        W42875  14.172  39.331  10.718
70451W        W42876   5.249   2.473   4.707
70452W        W42877   1.262  41.491   2.911
70453W        W42878  38.295  15.596  11.069
70454W        W42879   1.241   7.730  10.708
70455W        W42880   6.475   5.847   4.550
70456W        W42881   1.419  11.119  11.067
70457W        W42882  27.159  41.735   4.956
70458W        W42883  30.554  11.783  14.289
70459W        W42884   2.402  19.434   0.048
70460W        W42885  27.560   3.676   1.927
70461W        W42886  33.847   2.909  14.364
70462W        W42887  41.005  18.753  12.027
70463W        W42888  36.874   9.924   1.694
70464W        W42889   3.309  36.000  10.738
70465W        W42890  40.330  37.441   5.012
70466W        W42891  37.644  18.763   0.247
70467W        W42892  13.173  18.537   0.882
70468W        W42893   2.043  36.154   4.260
70469W        W42894  20.146   0.068  10.754
70470W        W42895  10.609  40.780   4.179
70471W        W42896  24.192  11.301   2.770
70472W        W42897   3.436  31.589  12.218
70473W        W42898   7.859  21.620  10.599
70474W        W42899   1.250  41.004   3.098
70475W        W42900   4.280  30.063   4.552
70476W        W42901  16.301  41.851   2.746
70477W        W42902  21.617  44.868   0.477
70478W        W42903   5.850  21.456  10.747
70479W        W42904  11.247  29.636  14.430
70480W        W42905  17.117  13.761  11.464
70481W        W42906  23.560  14.246  11.562
70482W        W42907  17.375  12.130   1.153
70483W        W42908   4.277  11.370   4.631
70484W        W42909  25.648  15.014  10.569
70485W        W42910  17.296   4.030   1.354
70486W        W42911  30.456   7.031   1.351
70487W        W42912  29.187   9.310  11.480
70488W        W42913   1.407  13.783   1.318
70489W        W42914  44.949   2.307   4.947
70490W        W42915   8.279   6.262  14.514
70491W        W42916  16.165  36.015  10.323
70492W        W42917  29.393  11.395   0.091
70493W        W42918  44.483  14.608   4.222
70494W        W42919   6.870   3.305  13.287
70495W        W42920  41.997  12.887   3.801
70496W        W42921  39.536  14.721  11.188
70497W        W42922  24.697  17.319  13.928
70498W        W42923  37.902  14.718  12.568
70499W        W42924   4.311   6.738   2.706
70500W        W42925  17.095  31.887  11.548
70501W        W42926   6.866  25.178   3.804
70502W        W42927  28.362  37.033   4.726
70503W        W42928   2.404  11.190  12.978
70504W        W42929  33.082  28.563  14.789
70505W        W42930  15.568  18.114  12.087
70506W        W42931  27.722  41.776   4.632
70507W        W42932   4.817  19.529  13.338
70508W        W42933   1.176   0.034  11.013
70509W        W42934  30.028  38.561  11.659
70510W        W42935  10.750  35.067  12.021
70511W        W42936  23.049  11.231   0.088
70512W        W42937  31.926  23.090   3.846
70513W        W42938   4.165   0.714  12.145
70514W        W42939  18.584   3.252  12.609
70515W        W42940  24.742  19.776   3.925
70516W        W42941  27.038  14.563  11.480
70517W        W42942  44.072  15.591   2.308
70518W        W42943   5.199   5.507  14.271
70519W        W42944  40.517  24.807   4.613
70520W        W42945  24.436  35.007   2.716
70521W        W42946  31.318  40.286   2.328
70522W        W42947  43.757  38.890  14.157
70523W        W42948  18.689  19.079   4.138
70524W        W42949  29.215  39.008   4.432
70525W        W42950  17.008   6.554  11.492
70526W        W42951  44.499  17.255  14.716
70527W        W42952  19.040  20.678   0.905
70528W        W42953  15.107  10.349   3.344
70529W        W42954  30.423   4.177   3.394
70530W        W42955  26.421   5.157  14.212
70531W        W42956   8.562  31.395   4.255
70532W        W42957  42.551  17.202   4.505
70533W        W42958  29.679   9.394  12.012
70534W        W42959   5.263  41.516  12.647
70535W        W42960  17.067  25.063  13.052
70536W        W42961  18.277   8.747   4.335
70537W        W42962  34.307  22.394   0.535
70538W        W42963  42.062   3.191   1.665
70539W        W42964  39.573   0.228   0.038
70540W        W42965  25.472  40.054  10.882
70541W        W42966  42.595   9.829   0.420
70542W        W42967  33.028   8.732  12.899
70543W        W42968  38.175  29.775  14.824
70544W        W42969  11.316  11.004  11.122
70545W        W42970  10.446   9.830  12.609
70546W        W42971  22.257   3.597  14.963
70547W        W42972  35.287  19.670   2.810
70548W        W42973   4.853  29.607   2.739
70549W        W42974  18.439   0.709   4.281
70550W        W42975  16.129  18.801   3.279
70551W        W42976   6.472   1.042  11.579
70552W        W42977   2.270  37.092   3.701
70553W        W42978  14.644  17.502   0.516
70554W        W42979   0.288  10.155   0.557
70555W        W42980  25.908   4.210  13.365
70556W        W42981  37.782  25.478  10.645
70557W        W42982  25.126  27.227   1.472
70558W        W42983  41.292   4.853   1.693
70559W        W42984  27.195  32.805  12.036
70560W        W42985  37.464  13.652  11.971
70561W        W42986  22.061  30.950   1.822
70562W        W42987  31.543   0.031   0.862
70563W        W42988  21.828  24.238  14.474
70564W        W42989  26.781  36.663   4.412
70565W        W42990  40.269   7.731   3.097
70566W        W42991   3.373  12.008   3.242
70567W        W42992   1.881  28.117  10.737
70568W        W42993  14.169   1.309  14.236
70569W        W42994  38.510   5.829   0.331
70570W        W42995  22.773   1.658  14.448
70571W        W42996  33.306   8.363   2.981
70572W        W42997  24.991  28.120   2.739
70573W        W42998  13.826   3.264   3.918
70574W        W42999  20.167  24.657  13.387
70575W        W43000  17.751  36.497  14.115
70576W        W43001  18.980  28.743   0.437
70577W        W43002  38.455  14.286   0.316
70578W        W43003  11.839  16.134  10.690
70579W        W43004   5.704  38.065   1.352
70580W        W43005  22.689  44.250  14.898
70581W        W43006  34.067  18.482   4.191
70582W        W43007  43.672  33.155  12.535
70583W        W43008  12.988  12.755   2.231
70584W        W43009  22.020  25.820   3.328
70585W        W43010  18.818   2.183  10.748
70586W        W43011   3.688  36.357   2.600
70587W        W43012   6.346  25.281   0.449
70588W        W43013  20.586  20.018   1.950
70589W        W43014  27.019   0.244   0.847
70590W        W43015   4.783   3.502   4.617
70591W        W43016  26.538  14.716  14.381
70592W        W43017  13.811   6.705  11.172
70593W        W43018   3.349  28.142   4.558
70594W        W43019  13.295  10.670   0.198
70595W        W43020   0.835   9.308   1.478
70596W        W43021  15.648  20.746   1.310
70597W        W43022   7.579  13.139   2.460
70598W        W43023  43.534  44.847   3.583
70599W        W43024  30.335  20.797  11.822
70600W        W43025  19.603  27.976   0.968
70601W        W43026  12.398  44.803  13.559
70602W        W43027  12.291   5.723   4.575
70603W        W43028  23.476  15.833  11.721
70604W        W43029  25.543  32.868  11.333
70605W        W43030   6.814  23.189   1.821
70606W        W43031  24.952   5.459  11.428
70607W        W43032  11.559  33.889   2.946
70608W        W43033  36.884  17.344   2.704
70609W        W43034  40.425  29.433   5.117
70610W        W43035   5.370  29.917   0.295
70611W        W43036  37.812  39.890   3.653
70612W        W43037   4.511  37.048   0.515
70613W        W43038   2.798  39.048  11.044
70614W        W43039  10.156  32.989   4.203
70615W        W43040  34.163  12.821  10.695
70616W        W43041   0.486   2.175   0.437
70617W        W43042  29.356  27.638   0.503
70618W        W43043  40.528   1.992  12.140
70619W        W43044   4.711  22.107   4.297
70620W        W43045  16.263  44.747   2.386
70621W        W43046   4.843  39.031  12.503
70622W        W43047   8.455   6.005   3.774
70623W        W43048   2.824  37.089   0.513
70624W        W43049  41.867  25.101  12.317
70625W        W43050  13.619  26.264  14.811
70626W        W43051   9.865  15.644  12.299
70627W        W43052  12.752  14.203   1.993
70628W        W43053  29.470  39.159   0.285
70629W        W43054   4.488  17.458  13.902
70630W        W43055  10.727  12.604   0.336
70631W        W43056  21.726  38.609   3.251
70632W        W43057   4.196  41.805   4.230
70633W        W43058  39.124  20.143   2.794
70634W        W43059  22.729  44.051  13.644
70635W        W43060  29.680  11.804  14.821
70636W        W43061  37.815   0.940  11.916
70637W        W43062   8.192  21.258  12.511
70638W        W43063  39.092  27.893   3.260
70639W        W43064   4.406  30.986  14.909
70640W        W43065  37.838  38.916  11.986
70641W        W43066   6.694   0.560  11.486
70642W        W43067   9.644  42.528   2.417
70643W        W43068  44.000  25.262   0.687
70644W        W43069   2.947   6.300   3.764
70645W        W43070  29.494  36.073  13.401
70646W        W43071   8.725   1.406   0.185
70647W        W43072  38.715  40.722  12.072
70648W        W43073  29.941  23.583  10.495
70649W        W43074  38.421  19.191   1.175
70650W        W43075  18.886  13.430  12.573
70651W        W43076  18.764   2.263  11.638
70652W        W43077  26.009  10.226  13.775
70653W        W43078  19.820  24.164  13.306
70654W        W43079  34.120  34.111   0.745
70655W        W43080  34.897  17.538  14.462
70656W        W43081  17.657  14.149   3.310
70657W        W43082  42.177  37.584   2.789
70658W        W43083  12.694  27.019   2.499
70659W        W43084  27.952   2.972   3.266
70660W        W43085  13.255  32.660  12.476
70661W        W43086  37.529  33.120   1.731
70662W        W43087  14.809  25.513   1.711
70663W        W43088  34.695  16.423   0.878
70664W        W43089   3.743  18.803  12.099
70665W        W43090  28.204  21.974  14.436
70666W        W43091  42.737  28.919  13.350
70667W        W43092  38.944  27.053  11.545
70668W        W43093   9.838   4.134   2.652
70669W        W43094  27.915  17.844   0.821
70670W        W43095  11.121  32.601  13.802
70671W        W43096   7.623  37.511  11.569
70672W        W43097   1.942  28.441  11.154
70673W        W43098  24.184  40.800   2.354
70674W        W43099  25.194  36.937   2.754
70675W        W43100  34.916   4.411   2.101
70676W        W43101  26.928   5.516   0.869
70677W        W43102  33.398  19.345   0.346
70678W        W43103  35.853   3.797   1.733
70679W        W43104  33.225  26.071   0.286
70680W        W43105  35.012  38.138  12.075
70681W        W43106   0.911  34.477  14.852
70682W        W43107  11.840  18.791   3.236
70683W        W43108  13.445  16.120   1.395
70684W        W43109  11.574  21.613   2.675
70685W        W43110  22.455   8.518  14.722
70686W        W43111  34.841  28.944  12.675
70687W        W43112  14.361  44.965   4.770
70688W        W43113  32.090   4.349  14.440
70689W        W43114  24.640   9.200   2.741
70690W        W43115   6.360  32.839  12.787
70691W        W43116  41.449  33.976   2.305
70692W        W43117  15.773  44.118   2.664
70693W        W43118  38.436  17.911  10.366
70694W        W43119   1.459  25.602   3.002
70695W        W43120  20.582  11.952  11.420
70696W        W43121  39.097   9.332   2.154
70697W        W43122   5.596  37.366   2.044
70698W        W43123  33.847  32.579  12.850
70699W        W43124  41.417   1.022   2.847
70700W        W43125  11.381  16.436  13.484
70701W        W43126  36.979   1.001  12.168
70702W        W43127  26.068   2.467   2.548
70703W        W43128  11.981   4.414  13.842
70704W        W43129  30.257  10.661  11.155
70705W        W43130  20.089   1.924  12.913
70706W        W43131  32.590  38.443  10.743
70707W        W43132  12.198  25.598  13.819
70708W        W43133   6.785   0.874  11.100
70709W        W43134   1.567  40.982   1.702
70710W        W43135  32.205  12.455   0.150
70711W        W43136  22.336  10.355  12.464
70712W        W43137  26.029  24.198   3.086
70713W        W43138  17.340   3.171  10.439
70714W        W43139  16.073  22.160  11.346
70715W        W43140  28.539  38.909  13.448
70716W        W43141  16.563  32.796  14.436
70717W        W43142  30.475  19.299  13.431
70718W        W43143  28.519  36.967  13.421
70719W        W43144  24.955  21.058  11.505
70720W        W43145  28.577   3.941  11.962
70721W        W43146  16.163  32.865   3.225
70722W        W43147   7.576   5.777  11.624
70723W        W43148  29.165  34.418   3.526
70724W        W43149   6.412  15.191   3.625
70725W        W43150  14.192   0.679  11.972
70726W        W43151  10.925  28.980  11.090
70727W        W43152  17.689  39.586   0.125
70728W        W43153  18.751  13.283  13.883
70729W        W43154   2.586  16.544  12.339
70730W        W43155  39.243  36.371   2.767
70731W        W43156  31.700  27.060  11.620
70732W        W43157  44.985  10.536   0.356
70733W        W43158  17.174  12.733  14.531
70734W        W43159   6.859  34.416  12.674
70735W        W43160  29.804   7.814   2.033
70736W        W43161  18.805  28.048  13.012
70737W        W43162  35.141  41.462   4.587
70738W        W43163   7.658  44.332  11.677
70739W        W43164  26.697   9.307  14.399
70740W        W43165  39.600  40.327   1.822
70741W        W43166  10.900  17.614  13.008
70742W        W43167  39.872   3.726  13.669
70743W        W43168  41.793   3.724  13.169
70744W        W43169  25.594   4.813   4.087
70745W        W43170  31.557  12.791  12.094
70746W        W43171  15.542  37.388   4.593
70747W        W43172  16.807   4.849  12.555
70748W        W43173  39.300  18.081  10.663
70749W        W43174   4.928  36.293   0.647
70750W        W43175  15.675  15.842  11.459
70751W        W43176  17.821   6.399   4.395
70752W        W43177  18.019  27.586  11.955
70753W        W43178   2.906  42.429   4.615
70754W        W43179  29.477  10.890   1.947
70755W        W43180  24.285   5.943  14.935
70756W        W43181   4.320  26.045   0.061
70757W        W43182  44.552  26.559   4.602
70758W        W43183  29.111  25.443   4.124
70759W        W43184  17.469   1.431   2.793
70760W        W43185  16.153  22.542   1.590
70761W        W43186  42.222   5.611   4.554
70762W        W43187  38.512  35.593  12.548
70763W        W43188  32.320  29.475  11.042
70764W        W43189  13.546  34.342  11.019
70765W        W43190   9.218   8.650   5.513
70766W        W43191   9.908  20.212   2.700
70767W        W43192  24.417  36.795  11.636
70768W        W43193  24.920   6.767  13.801
70769W        W43194  31.319  42.858   2.928
70770W        W43195  10.749  36.108   3.107
70771W        W43196   4.144   7.728   3.872
70772W        W43197  43.785  16.312  13.809
70773W        W43198  20.590   0.860  14.782
70774W        W43199  17.597   2.487  10.947
70775W        W43200  21.904  35.595   1.875
70776W        W43201   6.182  43.933   2.931
70777W        W43202  15.761   9.954   3.182
70778W        W43203   7.419   6.170   3.186
70779W        W43204   3.939   2.855  13.765
70780W        W43205  20.248  20.777  11.122
70781W        W43206  15.579  38.966  12.351
70782W        W43207  14.246  23.012  14.303
70783W        W43208  32.332   3.493  12.587
70784W        W43209  35.027  35.363  12.932
70785W        W43210  38.831  27.083   1.966
70786W        W43211  23.587   9.177  13.229
70787W        W43212  27.539   0.668  13.572
70788W        W43213  33.375  44.832   0.063
70789W        W43214  26.155  40.609  14.418
70790W        W43215  42.797  21.006   3.921
70791W        W43216  26.025  10.879  11.254
70792W        W43217  38.975  27.117  14.918
70793W        W43218   9.249  32.934  14.984
70794W        W43219  21.526  27.521   1.597
70795W        W43220   4.813  32.254  10.295
70796W        W43221  41.314  17.686  12.950
70797W        W43222  28.685   6.358  14.079
70798W        W43223  34.110  40.260   3.038
70799W        W43224  20.055  32.458  12.843
70800W        W43225  17.531  43.980  13.986
70801W        W43226   4.547  37.035  14.637
70802W        W43227  10.677  26.714   4.194
70803W        W43228  39.338  34.166   2.597
70804W        W43229   5.427   2.198  12.540
70805W        W43230  13.773   3.772  11.795
70806W        W43231  31.238   4.781  13.585
70807W        W43232  43.876  33.885   1.425
70808W        W43233  33.625  42.280  13.074
70809W        W43234  22.973  44.020   4.756
70810W        W43235  16.133   1.297  12.410
70811W        W43236  26.586  38.393   3.896
70812W        W43237  12.182  15.141   2.183
70813W        W43238  36.687   6.757   1.974
70814W        W43239  12.386   9.852  14.420
70815W        W43240  11.684  18.158   3.846
70816W        W43241  19.764   1.860   2.870
70817W        W43242  36.168  37.076  14.509
70818W        W43243  17.195  29.392  14.860
70819W        W43244   2.596  14.281   2.217
70820W        W43245  17.772  21.180  10.935
70821W        W43246  13.077  31.980   2.860
70822W        W43247  35.603   1.748  13.968
70823W        W43248  21.733  24.045   1.432
70824W        W43249   9.946  20.027   3.647
70825W        W43250  32.468  27.998  13.078
70826W        W43251  22.318   2.824  12.048
70827W        W43252  26.005  16.075  11.057
70828W        W43253  43.414  40.130  13.967
70829W        W43254  20.522  25.592   1.377
70830W        W43255   4.995  20.610  14.432
70831W        W43256  33.331  34.887  14.613
70832W        W43257   3.255  17.590  11.192
70833W        W43258  29.151   9.637   1.922
70834W        W43259  13.084  24.076   3.593
70835W        W43260  41.268  26.514   4.594
70836W        W43261  29.635  28.045  10.709
70837W        W43262  30.778   1.331   3.659
70838W        W43263   1.439  37.971  14.399
70839W        W43264  40.062  30.399  14.062
70840W        W43265   9.544  14.690   4.079
70841W        W43266  33.967  31.352  14.283
70842W        W43267   0.999  38.360  14.029
70843W        W43268  23.256   5.964  13.692
70844W        W43269   6.554   8.069  12.553
70845W        W43270  36.989  27.587  14.719
70846W        W43271  27.436  13.299  14.024
70847W        W43272  39.738   4.373  13.094
70848W        W43273   2.734  37.619  12.110
70849W        W43274  34.810  21.134   2.713
70850W        W43275   8.607   5.646   0.849
70851W        W43276  17.903  32.516  10.958
70852W        W43277  24.066  38.332   0.341
70853W        W43278  44.768  20.035   2.884
70854W        W43279  10.807   2.399  11.171
70855W        W43280  43.877  43.770  13.483
70856W        W43281  27.730   0.405   1.680
70857W        W43282  18.594   5.698  14.999
70858W        W43283   6.797   9.729  14.815
70859W        W43284  36.130   2.422   0.335
70860W        W43285   3.271  32.490   0.573
70861W        W43286   6.348  43.720   4.820
70862W        W43287  12.952  40.371   3.047
70863W        W43288  24.203  10.697   5.490
70864W        W43289  26.565  41.000   3.779
70865W        W43290   7.008  25.664   4.710
70866W        W43291  36.992  14.590   0.385
70867W        W43292  38.573   3.782  11.902
70868W        W43293  33.080  22.539  11.405
70869W        W43294   1.304  42.736  11.636
70870W        W43295  24.020  16.238  14.380
70871W        W43296  14.287  25.949  11.202
70872W        W43297  36.042  44.006  12.764
70873W        W43298  30.455  27.090  14.200
70874W        W43299  18.931  11.629   5.232
70875W        W43300  42.579  41.226  13.615
70876W        W43301  23.533  40.515   1.814
70877W        W43302  10.724  38.061   2.253
70878W        W43303  21.005  38.872  13.776
70879W        W43304   4.328  38.276  12.554
70880W        W43305  16.857  33.045  12.378
70881W        W43306  35.669   8.623  11.246
70882W        W43307  19.131  25.293   2.815
70883W        W43308  28.088   7.617   0.046
70884W        W43309  41.810  12.397   1.209
70885W        W43310  12.061  30.511  11.560
70886W        W43311  28.291  29.472   3.026
70887W        W43312   8.708  37.454   3.280
70888W        W43313  42.809  19.954  11.170
70889W        W43314   7.405  42.717  12.777
70890W        W43315  37.870   8.358  13.448
70891W        W43316  24.591  12.436   2.822
70892W        W43317   6.182  31.957  13.046
70893W        W43318   7.512  34.862   9.863
70894W        W43319  30.439   6.485  11.440
70895W        W43320  14.279  28.786   4.291
70896W        W43321  20.638  21.226  14.024
70897W        W43322   5.317  15.292  12.374
70898W        W43323   0.590  42.865   4.209
70899W        W43324   7.152  30.042  13.658
70900W        W43325  35.101  17.030   3.174
70901W        W43326  44.589  36.993  13.948
70902W        W43327  39.476  36.304  11.555
70903W        W43328  16.277  16.357   0.629
70904W        W43329  22.953  22.436   1.841
70905W        W43330  14.821  39.549   1.444
70906W        W43331   8.920  10.885   3.862
70907W        W43332  28.006   8.657  13.276
70908W        W43333  19.316  11.827  14.906
70909W        W43334  26.568   6.792   4.964
70910W        W43335   6.189  15.819   0.386
70911W        W43336  22.738  27.065   3.483
70912W        W43337  27.565  11.781   2.838
70913W        W43338  23.350  40.759  11.359
70914W        W43339   3.114  20.745   0.776
70915W        W43340  19.685  34.394   4.217
70916W        W43341  29.191  35.812  14.136
70917W        W43342  26.958   4.630   4.753
70918W        W43343  10.339   6.380   9.773
70919W        W43344  31.410  25.619  13.035
70920W        W43345  39.906  28.720  14.947
70921W        W43346  10.658  20.958  12.186
70922W        W43347  38.559  37.556   1.783
70923W        W43348  32.048  38.016  13.876
70924W        W43349   9.010   7.328   0.889
70925W        W43350   6.810   1.850   0.986
70926W        W43351  15.112  11.148  13.812
70927W        W43352  20.678   3.344   4.662
70928W        W43353  18.474   4.754  12.557
70929W        W43354  28.420  30.387  11.629
70930W        W43355  32.239   5.122  14.049
70931W        W43356  24.250  44.405  12.138
70932W        W43357   8.906   5.707   4.558
70933W        W43358  28.208   3.236   4.231
70934W        W43359   5.297  27.052  14.663
70935W        W43360  38.795   8.344   4.675
70936W        W43361  20.155  31.901   3.818
70937W        W43362  26.766  41.713  12.938
70938W        W43363   3.024  39.701  12.500
70939W        W43364  24.320  12.466   2.069
70940W        W43365  28.919  43.206   3.769
70941W        W43366  42.451  42.937   0.191
70942W        W43367  38.109  11.165   0.962
70943W        W43368  18.026  15.877   0.804
70944W        W43369  10.263  30.195   0.001
70945W        W43370   8.227  19.005  12.064
70946W        W43371  27.917  25.787  13.794
70947W        W43372  26.028  31.106   0.548
70948W        W43373  16.160  16.993   3.689
70949W        W43374   3.228  40.327   1.884
70950W        W43375   5.019  21.101  11.309
70951W        W43376  32.552  42.336   4.589
70952W        W43377   4.044  40.436   1.460
70953W        W43378   3.233  19.417   0.624
70954W        W43379  40.912  15.619   1.081
70955W        W43380  20.680  19.160  13.818
70956W        W43381  15.479   9.957   1.587
70957W        W43382  31.015  19.255   3.618
70958W        W43383  11.588  42.447   1.968
70959W        W43384   9.462  24.745  12.927
70960W        W43385  16.219   8.647   0.278
70961W        W43386  31.052   3.277   2.274
70962W        W43387  43.878   0.776   1.414
70963W        W43388  36.510   5.190   0.441
70964W        W43389  12.707   0.988  13.499
70965W        W43390  12.282  28.042  11.203
70966W        W43391  28.186  14.425   5.043
70967W        W43392  39.466  34.040  13.008
70968W        W43393  25.733  34.957   3.320
70969W        W43394   2.685  27.956  12.584
70970W        W43395  44.084  27.034  13.867
70971W        W43396  29.997   3.433  13.360
70972W        W43397   3.379  22.133  12.327
70973W        W43398  14.244  25.197   9.962
70974W        W43399  43.313  40.960   1.247
70975W        W43400  18.011  44.814   3.483
70976W        W43401  32.397  18.549   1.635
70977W        W43402  27.719   8.418  12.198
70978W        W43403  38.301  20.126   3.242
70979W        W43404  15.822  20.101  11.899
70980W        W43405   5.684   7.247   4.918
70981W        W43406  34.858  35.343  13.440
70982W        W43407  16.749   7.947  11.992
70983W        W43408   7.596  36.985   0.906
70984W        W43409  18.367   7.842   4.502
70985W        W43410  17.512  11.603   2.255
70986W        W43411  44.930  25.977  13.539
70987W        W43412  16.796  22.721   2.852
70988W        W43413  21.406   7.151   0.845
70989W        W43414  15.418   8.157   0.295
70990W        W43415  32.009  38.231   0.427
70991W        W43416  16.307  36.792  14.434
70992W        W43417  11.558  18.952  14.268
70993W        W43418  30.780   9.309  13.510
70994W        W43419  10.610   4.293  12.497
70995W        W43420  38.744   1.977  11.012
70996W        W43421  10.181   1.035   3.844
70997W        W43422  35.156   7.124  10.373
70998W        W43423  30.167  34.503   3.650
70999W        W43424  43.852  34.490   2.290
71000W        W43425   0.383  11.652   1.683
71001W        W43426  21.002  29.146   3.553
71002W        W43427  29.944  32.352   2.727
71003W        W43428   7.799  20.583  12.979
71004W        W43429  18.874  43.106  10.949
71005W        W43430  36.937  22.891   1.469
71006W        W43431  39.621  34.579   2.710
71007W        W43432  15.201  11.767   3.127
71008W        W43433   9.848  21.625  13.590
71009W        W43434  26.206  32.115  11.054
71010W        W43435  41.380  39.814   0.281
71011W        W43436  23.005  10.158  10.988
71012W        W43437  13.660   6.179   4.208
71013W        W43438  32.977  14.558   2.268
71014W        W43439  32.148  26.925   3.428
71015W        W43440  41.888  12.837  13.032
71016W        W43441  42.364   1.968   2.038
71017W        W43442  14.330   2.696  14.295
71018W        W43443  30.380  10.749   1.899
71019W        W43444  31.380  36.469  14.866
71020W        W43445  28.025   3.589   4.575
71021W        W43446   7.775  24.611  14.367
71022W        W43447   9.317  39.801  12.553
71023W        W43448  13.645  40.797  13.350
71024W        W43449  31.081  38.885  14.169
71025W        W43450  14.333  37.473   1.167
71026W        W43451  42.093  19.852   3.205
71027W        W43452  14.053  29.253  12.124
71028W        W43453  23.757  26.163   1.108
71029W        W43454  21.946  21.299   4.058
71030W        W43455  10.459  20.072   3.717
71031W        W43456  42.913  12.920  11.430
71032W        W43457   6.816  43.386   2.047
71033W        W43458  38.985  11.378  14.902
71034W        W43459  13.582  20.385  12.041
71035W        W43460  13.739  18.675  10.641
71036W        W43461  30.836   3.824  14.356
71037W        W43462  12.105  11.218  11.615
71038W        W43463  38.473   6.767  13.271
71039W        W43464  16.647  28.269   1.429
71040W        W43465  33.910  16.863   2.113
71041W        W43466  12.091  18.823  10.696
71042W        W43467  27.972   0.377   4.537
71043W        W43468  44.843  34.714   4.629
71044W        W43469  12.351  34.875   0.015
71045W        W43470   5.411  22.248   3.804
71046W        W43471  15.720   1.294  14.394
71047W        W43472  14.926  29.571  14.752
71048W        W43473  19.927  20.795   2.294
71049W        W43474  34.531  36.424  11.701
71050W        W43475  12.102  17.201  14.359
71051W        W43476  21.213  41.594   3.547
71052W        W43477  43.312  42.346  12.299
71053W        W43478  38.311  17.581   0.792
71054W        W43479  25.331  28.102  10.301
71055W        W43480  31.476  42.479   0.751
71056W        W43481  23.894  24.163  10.616
71057W        W43482  20.286  28.929   1.781
71058W        W43483  33.337  32.447  12.884
71059W        W43484   7.523  23.628  13.423
71060W        W43485  25.221   9.288  13.136
71061W        W43486  13.923  30.054  14.532
71062W        W43487  42.708   0.146  14.440
71063W        W43488  36.317  22.703   3.805
71064W        W43489  44.323  43.843  12.310
71065W        W43490   1.774   5.349   4.297
71066W        W43491   4.119  16.560   2.652
71067W        W43492  12.735  33.620  12.988
71068W        W43493  15.662   9.296   0.337
71069W        W43494  34.947   8.801   4.591
71070W        W43495  37.836  37.129  11.157
71071W        W43496  18.526  35.365  12.523
71072W        W43497  19.212  44.901   3.194
71073W        W43498  21.079  14.830   5.054
71074W        W43499  22.715  25.178  15.000
71075W        W43500  42.834  22.429   2.094
71076W        W43501  40.450  36.957   4.846
71077W        W43502  20.084   0.084   3.096
71078W        W43503  43.723   6.440   3.646
71079W        W43504   4.282  35.385  11.111
71080W        W43505   2.275   2.365   4.634
71081W        W43506  38.486  21.212  11.379
71082W        W43507   6.387   1.149   5.068
71083W        W43508  20.567  13.303  13.542
71084W        W43509  21.578  30.499   0.829
71085W        W43510  19.694  44.733   3.182
71086W        W43511   7.083   5.680  11.772
71087W        W43512  28.694  29.434   1.290
71088W        W43513  21.403   1.263  11.268
71089W        W43514  23.779  42.883   1.839
71090W        W43515  18.206  27.201  11.655
71091W        W43516   1.837  37.801  10.968
71092W        W43517  37.642  35.511   3.416
71093W        W43518  22.302  39.971   0.943
71094W        W43519  25.906  33.722   1.296
71095W        W43520   8.186  12.711   0.524
71096W        W43521  37.151  34.971   1.315
71097W        W43522   8.611  28.547   1.503
71098W        W43523   3.395  10.727   0.488
71099W        W43524  41.227  43.350   4.220
71100W        W43525  39.813  37.799  14.931
71101W        W43526   5.827  10.371  11.386
71102W        W43527   1.738  17.836   2.774
71103W        W43528  25.973  42.532   4.929
71104W        W43529  39.387   2.458   1.604
71105W        W43530   0.198   1.861   1.787
71106W        W43531  27.159  43.863  10.962
71107W        W43532  42.795   5.306   3.198
71108W        W43533  19.743  19.997   4.152
71109W        W43534   1.417  40.313   0.923
71110W        W43535  22.906  26.631  12.114
71111W        W43536  33.070   2.507  14.785
71112W        W43537   6.654  17.092   0.695
71113W        W43538  41.008  18.439   2.669
71114W        W43539  36.530  32.299  10.445
71115W        W43540  22.248   2.735  13.145
71116W        W43541  23.093  39.541   0.715
71117W        W43542  23.783  10.763  13.042
71118W        W43543  22.118  40.887   2.334
71119W        W43544  44.025   1.407  11.654
71120W        W43545  27.430  11.760  12.505
71121W        W43546  14.077  41.971   1.333
71122W        W43547  38.553   1.782   3.090
71123W        W43548  18.648   7.363  11.247
71124W        W43549  30.121  18.399  10.559
71125W        W43550  34.714   4.376  14.185
71126W        W43551  27.686  43.759  14.847
71127W        W43552  33.154  17.323  14.438
71128W        W43553   1.912   8.762  13.529
71129W        W43554  34.384  20.531   2.365
71130W        W43555  43.374   8.149   0.799
71131W        W43556  13.147  21.126  11.062
71132W        W43557  32.932  34.141  10.684
71133W        W43558  17.101  23.946  12.069
71134W        W43559  34.387  33.864   1.122
71135W        W43560   8.687  40.314   1.679
71136W        W43561  12.131  10.979  12.093
71137W        W43562  13.530   9.814  13.552
71138W        W43563  22.542  34.066  11.373
71139W        W43564  30.372  35.584  11.909
71140W        W43565  26.368  32.645  11.005
71141W        W43566  14.303  10.190   2.827
71142W        W43567  13.838  12.307   1.644
71143W        W43568  24.419  19.663   0.372
71144W        W43569  18.678  28.184   4.096
71145W        W43570  22.110  31.975  10.855
71146W        W43571  31.353   0.847  12.102
71147W        W43572  41.492  25.531   0.263
71148W        W43573   8.443  18.324   2.851
71149W        W43574  25.454  32.918   0.710
71150W        W43575  35.428  21.158  13.361
71151W        W43576   2.980  41.312  13.900
71152W        W43577  16.274  37.592  13.960
71153W        W43578  27.487  10.043  13.052
71154W        W43579  17.675  34.071  13.926
71155W        W43580  31.517  25.616   1.817
71156W        W43581   6.209  29.896  13.341
71157W        W43582  22.497  12.149  13.861
71158W        W43583  22.124   9.730  12.879
71159W        W43584  21.119   5.828   2.764
71160W        W43585  30.393   4.783   0.408
71161W        W43586  19.927   7.375  10.686
71162W        W43587  24.741  15.834  11.541
71163W        W43588  22.493  11.579   0.398
71164W        W43589  10.864  14.161  10.560
71165W        W43590  36.961  43.271  10.590
71166W        W43591  28.986  42.350   4.496
71167W        W43592  31.898  26.979   3.870
71168W        W43593  14.145   0.693   0.928
71169W        W43594  22.649  39.951   1.923
71170W        W43595   9.451  24.963   2.357
71171W        W43596  28.986  11.062  11.027
71172W        W43597  17.015  42.382  10.530
71173W        W43598  32.950  18.478   0.103
71174W        W43599  36.085  13.861  11.420
71175W        W43600  31.591  43.430  14.068
71176W        W43601  33.794  37.596   4.130
71177W        W43602  15.236  32.096   0.190
71178W        W43603  23.748  43.048  13.076
71179W        W43604  29.361  37.509  14.942
71180W        W43605  15.839  19.815  13.544
71181W        W43606  38.884  29.704  12.953
71182W        W43607   6.310  30.168  11.174
71183W        W43608  11.627  10.357  10.838
71184W        W43609  40.093  38.172  14.430
71185W        W43610   3.432  44.274   0.948
71186W        W43611  23.327  31.473  13.964
71187W        W43612   9.822  36.960  10.801
71188W        W43613  20.722  43.703   0.804
71189W        W43614   4.878  22.507   2.441
71190W        W43615  42.958   0.812   4.598
71191W        W43616  14.812  16.765   3.903
71192W        W43617  28.571  37.636  12.022
71193W        W43618  17.769   1.583  11.003
71194W        W43619   8.181  25.421  12.936
71195W        W43620  18.659  20.981  12.906
71196W        W43621  23.124  28.874  12.049
71197W        W43622  42.085  26.258  11.237
71198W        W43623  21.517  37.052  10.695
71199W        W43624  22.920   8.470  14.996
71200W        W43625  39.556  11.621  11.640
71201W        W43626  36.665   3.305   2.681
71202W        W43627  28.899   9.279   2.180
71203W        W43628  13.281  19.092  14.347
71204W        W43629   7.680   7.678   2.271
71205W        W43630  33.575  24.765  14.931
71206W        W43631  36.560  14.875  12.337
71207W        W43632  15.093  29.435   0.790
71208W        W43633  22.160  13.781  11.286
71209W        W43634  26.038  13.768  10.721
71210W        W43635  16.053  30.198  11.480
71211W        W43636  43.224  20.366   1.341
71212W        W43637  17.152  29.905  14.779
71213W        W43638  22.171  28.535   2.814
71214W        W43639  33.525  27.815  11.077
71215W        W43640   3.749  24.108   0.793
71216W        W43641  33.117  22.962  14.846
71217W        W43642  26.481  28.029  14.350
71218W        W43643   4.454  22.116   3.848
71219W        W43644  25.585  16.535   1.461
71220W        W43645   6.083  15.538  11.307
71221W        W43646   5.876  41.332   4.318
71222W        W43647  20.651  19.655   2.816
71223W        W43648  23.628  20.496  13.774
71224W        W43649  21.228   5.936   2.243
71225W        W43650  39.799  21.654   1.854
71226W        W43651  14.276  40.046  11.454
71227W        W43652  38.310  40.349  14.986
71228W        W43653   8.552  12.110   1.050
71229W        W43654   9.622  39.374  12.555
71230W        W43655  19.258  32.770   3.694
71231W        W43656   1.081  38.087   3.268
71232W        W43657  40.666  36.464  11.157
71233W        W43658  36.981  34.112  10.425
71234W        W43659  11.430  35.505   0.012
71235W        W43660  18.189   6.156  11.228
71236W        W43661  25.463  17.712  13.590
71237W        W43662  11.848  40.380  11.939
71238W        W43663  33.747  42.084  13.772
71239W        W43664  43.391   7.383   3.095
71240W        W43665  13.586   8.905   3.718
71241W        W43666   8.791   1.520   1.264
71242W        W43667  22.188  21.550   1.016
71243W        W43668  13.827   6.931   1.284
71244W        W43669  25.170  38.417   3.264
71245W        W43670  41.932  25.608  10.653
71246W        W43671  42.015  39.937   2.940
71247W        W43672  41.206  11.565  14.277
71248W        W43673   7.924  33.521   2.781
71249W        W43674  22.089  32.932  11.515
71250W        W43675   5.115  42.857   0.503
71251W        W43676  27.221   2.942  12.209
71252W        W43677   9.491  19.562   1.172
71253W        W43678  26.539   4.853  12.878
71254W        W43679   2.934   4.287   1.149
71255W        W43680  32.903  26.662  10.459
71256W        W43681  12.713  14.168   1.467
71257W        W43682  39.761  13.664  14.078
71258W        W43683  15.191   3.851   1.188
71259W        W43684  30.563   3.423   4.619
71260W        W43685  30.407  35.758   3.283
71261W        W43686  16.078  10.556   0.376
71262W        W43687  17.893  16.085  14.600
71263W        W43688  26.241  43.606   2.462
71264W        W43689  13.041  32.947   1.401
71265W        W43690  33.864   7.981  10.738
71266W        W43691  32.161  12.081   0.527
71267W        W43692  32.353   4.431   0.690
71268W        W43693  34.916  17.244   0.662
71269W        W43694  38.367   4.210  12.517
71270W        W43695  44.117  25.297  13.576
71271W        W43696  42.513  32.581   4.578
71272W        W43697  38.906  11.665   2.664
71273W        W43698   1.552  32.920   2.282
71274W        W43699  38.099  43.529  11.936
71275W        W43700  19.510   5.394  14.384
71276W        W43701  14.570   6.080  11.786
71277W        W43702  20.278  16.227  10.738
71278W        W43703   3.561  17.502   3.231
71279W        W43704   3.207  36.395   2.381
71280W        W43705  34.091  30.997  10.729
71281W        W43706  40.904  18.227   1.303
71282W        W43707   1.711  35.822  12.011
71283W        W43708   5.819   1.294   2.111
71284W        W43709   5.016  21.632   3.194
71285W        W43710  30.941  30.953  10.895
71286W        W43711  44.432   2.837   1.955
71287W        W43712  15.094  19.663  11.989
71288W        W43713  20.159  38.966  13.096
71289W        W43714  16.642  41.889  14.536
71290W        W43715  41.299  38.200   4.092
71291W        W43716  29.089   8.758  10.676
71292W        W43717  23.539  10.432  13.684
71293W        W43718  26.067  10.672   4.550
71294W        W43719  11.146   3.486  14.934
71295W        W43720   0.594   6.626  11.064
71296W        W43721  24.202  16.637  14.657
71297W        W43722   9.017  26.862   3.700
71298W        W43723   1.923  43.754   1.214
71299W        W43724  37.429  21.109   3.258
71300W        W43725  34.906  37.778   3.336
71301W        W43726  33.992   6.845   0.511
71302W        W43727   4.708  34.300   3.229
71303W        W43728  17.180  11.173   2.703
71304W        W43729  11.877  28.322  12.969
71305W        W43730  17.586  22.075  13.190
71306W        W43731  14.709   1.423  14.520
71307W        W43732  23.551   8.373   3.996
71308W        W43733  20.137   2.939   2.424
71309W        W43734  33.684  32.452  13.747
71310W        W43735   9.254   8.876  11.464
71311W        W43736  32.234  31.425   1.378
71312W        W43737  40.686  36.105  11.513
71313W        W43738   5.182  17.621  13.440
71314W        W43739  24.246  40.270   2.344
71315W        W43740  19.043  30.556  11.559
71316W        W43741  43.826  12.741  13.437
71317W        W43742  42.264  36.774   3.220
71318W        W43743  23.166  25.736   2.289
71319W        W43744  30.171   5.222  11.670
71320W        W43745  14.087  23.293   4.766
71321W        W43746   9.275  33.063  13.221
71322W        W43747  14.500   5.657   3.400
71323W        W43748   6.282  13.365   0.434
71324W        W43749  43.020  13.618   5.000
71325W        W43750  31.496  40.399  12.790
71326W        W43751  36.532  42.912  14.067
71327W        W43752  19.336  42.946  10.791
71328W        W43753  30.943  37.623  11.467
71329W        W43754  11.630  28.797  13.007
71330W        W43755  11.344  32.087  13.801
71331W        W43756   2.817  18.026   3.343
71332W        W43757  39.024   0.384   2.772
71333W        W43758  43.411  38.146  14.542
71334W        W43759  44.922  35.557   4.091
71335W        W43760  30.090  12.389   0.876
71336W        W43761  39.106   9.439  14.843
71337W        W43762   0.476  20.529   0.793
71338W        W43763  29.974  30.161   4.742
71339W        W43764   8.650   8.452   4.122
71340W        W43765  30.527   5.181  14.474
71341W        W43766  18.117   8.302  11.140
71342W        W43767  10.218  16.879   4.428
71343W        W43768  13.602  33.999   1.731
71344W        W43769  41.638  42.884  13.420
71345W        W43770   8.698  26.604  14.775
71346W        W43771  19.257  18.097  11.185
71347W        W43772   8.872  36.031   0.329
71348W        W43773  35.705  33.617  12.565
71349W        W43774   0.322  29.683  13.464
71350W        W43775  25.870  43.369   5.121
71351W        W43776  23.166  15.232   0.327
71352W        W43777  38.720  30.330  11.584
71353W        W43778  41.638  27.887  11.459
71354W        W43779  20.724   6.396   3.366
71355W        W43780  44.449  35.901  12.145
71356W        W43781  20.907   8.826   3.157
71357W        W43782  20.284  35.598  12.549
71358W        W43783   2.021   2.241  13.265
71359W        W43784  19.818  39.054   0.778
71360W        W43785  21.927  44.062   1.944
71361W        W43786  35.413   9.163   2.667
71362W        W43787  19.279  34.951  14.786
71363W        W43788  18.285   9.817  13.139
71364W        W43789  31.587  30.383  11.139
71365W        W43790  21.499   9.117  14.838
71366W        W43791  15.050  26.466   0.153
71367W        W43792   9.126   7.405   4.851
71368W        W43793   6.337  24.409  12.346
71369W        W43794   0.096   2.001   4.160
71370W        W43795  39.052  18.152  12.807
71371W        W43796  11.385   9.785   2.886
71372W        W43797   0.815  42.239   4.777
71373W        W43798  40.561   6.194   1.790
71374W        W43799  42.491  25.914  14.668
71375W        W43800  10.561  13.653  13.306
71376W        W43801  32.584   7.176   2.122
71377W        W43802   9.165  21.148  12.636
71378W        W43803  40.438  29.341  14.224
71379W        W43804   9.978  17.793  11.256
71380W        W43805  41.652   5.853   1.834
71381W        W43806   0.018  29.765  14.868
71382W        W43807  20.131   1.405   2.363
71383W        W43808  20.257  15.749   4.669
71384W        W43809  17.094  12.017   5.147
71385W        W43810   3.925  19.205   2.627
71386W        W43811   7.964   1.762   4.485
71387W        W43812  44.502  12.336   9.850
71388W        W43813  13.843  25.547   3.623
71389W        W43814  41.906  32.700   1.186
71390W        W43815  30.464   0.827   2.642
71391W        W43816  39.353  39.907   4.468
71392W        W43817  13.056  10.124   4.021
71393W        W43818  23.610   1.877  14.872
71394W        W43819  19.792   6.680   1.201
71395W        W43820  44.515  26.217  12.165
71396W        W43821  38.963  34.656   1.300
71397W        W43822  24.905  34.666   2.730
71398W        W43823   3.483  10.244   2.733
71399W        W43824  41.065  31.468  14.957
71400W        W43825  34.922  13.216  11.086
71401W        W43826  41.953   7.279   2.916
71402W        W43827  40.835  24.696   1.695
71403W        W43828  41.565  25.275   3.306
71404W        W43829  26.476  40.216  11.118
71405W        W43830  39.510  15.785  13.334
71406W        W43831  37.519  37.872  10.876
71407W        W43832   9.692   5.125  10.223
71408W        W43833  26.849  29.547  13.476
71409W        W43834  18.175   7.851   4.012
71410W        W43835   6.715   0.843  14.215
71411W        W43836  25.887  12.366  13.663
71412W        W43837   3.414  44.758  11.010
71413W        W43838  12.071   7.202  12.291
71414W        W43839  18.010  27.361   3.230
71415W        W43840  12.414  21.810   1.268
71416W        W43841  14.582  12.336   1.629
71417W        W43842  23.895  44.138   2.836
71418W        W43843  28.534  13.610   1.251
71419W        W43844  13.466   9.921  11.225
71420W        W43845  44.986  27.196   4.488
71421W        W43846   0.249   6.139   0.970
71422W        W43847  24.355  44.032   2.647
71423W        W43848  25.570  18.736  11.134
71424W        W43849  39.871  11.917   3.668
71425W        W43850  44.723  17.205   2.267
71426W        W43851  25.695  39.291  13.368
71427W        W43852  19.914  25.145  14.752
71428W        W43853  42.761  36.865  12.455
71429W        W43854  19.547  14.233   1.888
71430W        W43855  10.816  20.784   1.389
71431W        W43856  16.545   9.624  11.654
71432W        W43857  23.746  39.688   1.302
71433W        W43858   9.685  36.884  11.283
71434W        W43859  35.708  34.953   4.425
71435W        W43860  29.044   9.721  11.759
71436W        W43861   1.199  15.111   0.945
71437W        W43862  14.723   3.766  11.869
71438W        W43863  36.038  22.484   0.999
71439W        W43864   1.393  28.210  13.979
71440W        W43865  33.141   0.736   0.420
71441W        W43866   4.807  18.939   1.251
71442W        W43867  24.043  23.056   2.135
71443W        W43868  38.425   7.863  13.331
71444W        W43869  42.683  34.477   2.179
71445W        W43870  24.383  14.183   2.039
71446W        W43871  22.819  36.919   1.748
71447W        W43872   9.516  24.116   0.998
71448W        W43873  43.460  34.449   2.725
71449W        W43874  27.390  33.226  12.627
71450W        W43875   7.920  23.319   1.073
71451W        W43876  16.797  29.066  11.230
71452W        W43877  18.539   8.480  12.978
71453W        W43878  35.444  43.784  13.872
71454W        W43879   7.766  42.865   2.393
71455W        W43880  42.328  22.608  11.094
71456W        W43881  16.602   8.788   0.656
71457W        W43882  28.626  36.368   0.346
71458W        W43883   8.364  44.496  14.767
71459W        W43884   9.015  12.353   0.943
71460W        W43885   3.345  43.421  12.180
71461W        W43886  29.673  30.718  12.999
71462W        W43887   6.696  34.376   4.169
71463W        W43888  16.995  39.694  11.263
71464W        W43889  23.269  19.484  12.509
71465W        W43890  43.222  37.090   3.397
71466W        W43891  20.673  24.813  13.408
71467W        W43892  13.883  33.009  13.938
71468W        W43893  10.156  23.522  14.859
71469W        W43894   5.410  42.971   3.625
71470W        W43895  31.569  44.407   2.681
71471W        W43896  18.833  37.462   2.157
71472W        W43897  34.930  40.112  14.966
71473W        W43898  29.193   7.016   0.443
71474W        W43899  13.607  16.623  12.845
71475W        W43900  29.935  27.612  10.647
71476W        W43901  23.515  42.884  12.141
71477W        W43902  10.255   5.481   0.394
71478W        W43903   7.229  34.943  13.801
71479W        W43904  36.469  20.032   1.794
71480W        W43905  34.952  26.585   2.371
71481W        W43906   8.943  41.324   1.278
71482W        W43907   2.318  32.973   1.622
71483W        W43908  22.081  30.110  12.424
71484W        W43909  10.510   0.938   1.893
71485W        W43910   9.350  29.773   0.942
71486W        W43911   5.493   3.273   4.092
71487W        W43912  43.993  35.131   4.933
71488W        W43913  22.008  25.596  14.418
71489W        W43914  44.806  10.732  12.925
71490W        W43915  24.632  18.383  11.008
71491W        W43916  29.278  22.221   3.431
71492W        W43917   3.788   8.773   1.433
71493W        W43918  28.372   5.157  14.773
71494W        W43919   3.783   6.421  13.283
71495W        W43920  34.457  44.973  11.698
71496W        W43921  18.082  10.162  12.412
71497W        W43922  17.172  34.273  10.684
71498W        W43923  30.621  24.256   0.994
71499W        W43924  37.785  44.530   4.701
71500W        W43925  18.007  33.838  14.963
71501W        W43926  17.148   9.436  12.076
71502W        W43927  18.271   3.719  14.636
71503W        W43928  38.326  37.098   1.843
71504W        W43929   7.182  36.445  10.599
71505W        W43930  39.513  19.862  11.016
71506W        W43931  37.849  24.211  10.868
71507W        W43932  28.064   7.114   0.026
71508W        W43933  36.159  43.522  12.946
71509W        W43934  13.990  13.099   1.422
71510W        W43935  20.469   7.141  13.072
71511W        W43936  29.660  21.083   5.010
71512W        W43937  11.907  16.226  13.487
71513W        W43938  15.063  40.515  14.797
71514W        W43939  15.318  32.616   2.752
71515W        W43940  37.652  20.694   1.007
71516W        W43941  28.098  24.118  10.780
71517W        W43942  25.648  36.355   0.897
71518W        W43943   9.805  28.992  14.023
71519W        W43944  39.473  19.008   0.241
71520W        W43945  29.571  24.070   4.067
71521W        W43946  40.770  42.310   3.223
71522W        W43947   5.209  28.108   3.434
71523W        W43948  37.908  23.052  13.957
71524W        W43949  36.325  22.987   5.478
71525W        W43950  17.192  35.875  14.612
71526W        W43951  23.259  42.501  11.481
71527W        W43952  26.704  42.920  11.067
71528W        W43953  34.931  26.122  12.445
71529W        W43954  22.902  15.787   2.831
71530W        W43955  30.542   5.134   1.628
71531W        W43956  42.842  44.929   0.621
71532W        W43957  40.249  42.192  11.224
71533W        W43958  22.675   5.226  12.110
71534W        W43959   8.455   0.652  12.499
71535W        W43960   0.270   2.877   4.361
71536W        W43961  31.447  31.933   0.859
71537W        W43962  20.240  35.833   3.247
71538W        W43963   2.379  27.416  10.611
71539W        W43964   5.175  34.965  10.696
71540W        W43965   7.502  25.053   0.901
71541W        W43966  21.523  11.755   3.349
71542W        W43967  22.231  13.188  12.454
71543W        W43968  10.359   3.265  13.323
71544W        W43969   6.745  18.007   1.961
71545W        W43970  23.532  38.953  11.829
71546W        W43971  38.527  32.409  11.674
71547W        W43972  40.086  21.705  10.773
71548W        W43973  41.538   9.852  13.222
71549W        W43974  42.007  13.750  14.885
71550W        W43975  34.187  23.725  11.134
71551W        W43976  10.371  29.662   3.168
71552W        W43977  38.599  34.739   0.940
71553W        W43978  33.603  29.450  10.079
71554W        W43979   6.467   8.305  12.062
71555W        W43980  28.909  12.672  13.164
71556W        W43981  25.520   7.379   3.291
71557W        W43982   0.182  41.538   3.451
71558W        W43983  30.913  24.666  10.629
71559W        W43984  33.975  23.462   0.672
71560W        W43985  35.509   0.763   1.912
71561W        W43986   6.319  18.294   1.890
71562W        W43987  18.160  18.988  12.608
71563W        W43988  21.232  37.367  12.136
71564W        W43989  40.929  38.849   0.873
71565W        W43990  29.641  24.216   0.839
71566W        W43991  35.461  40.795   3.337
71567W        W43992  16.612   0.276  10.643
71568W        W43993  39.806   1.270   1.223
71569W        W43994  20.209   5.718  11.028
71570W        W43995   5.860  33.077  13.342
71571W        W43996  28.469  14.583   4.192
71572W        W43997  31.811  32.988   0.866
71573W        W43998  14.607   4.835   4.906
71574W        W43999  19.032  32.408  12.490
71575W        W44000  23.488   4.697  12.418
71576W        W44001  39.417   3.793  13.905
71577W        W44002   9.492  10.282  10.799
71578W        W44003  23.143  21.802   4.580
71579W        W44004  30.809  16.118  12.617
71580W        W44005  18.244   0.253   2.248
71581W        W44006  31.029  30.817   1.215
71582W        W44007  40.842  21.061   4.685
71583W        W44008   5.335  39.319   1.221
71584W        W44009   8.011  16.226   0.140
71585W        W44010  40.297   5.399   4.822
71586W        W44011  21.564   1.257   2.225
71587W        W44012  19.102   0.734  13.899
71588W        W44013  29.666  20.234   2.180
71589W        W44014  25.648  30.314   3.018
71590W        W44015  33.436  23.204  11.058
71591W        W44016  37.925  38.169   2.007
71592W        W44017   5.447   2.726  12.350
71593W        W44018  24.045  40.114  12.105
71594W        W44019  38.603  16.872  10.627
71595W        W44020  13.438  44.956  11.210
71596W        W44021  19.385  29.401  11.046
71597W        W44022  27.714   0.805  14.894
71598W        W44023  16.585  26.617  12.206
71599W        W44024  38.497  41.274  13.882
71600W        W44025   1.367  27.932   4.410
71601W        W44026  36.316  42.986  10.654
71602W        W44027   5.736  17.208  12.013
71603W        W44028  23.591  32.592   3.212
71604W        W44029  27.891  19.774  10.727
71605W        W44030  42.859  36.511   4.115
71606W        W44031  25.352  35.025  14.474
71607W        W44032  23.111  11.535   5.442
71608W        W44033   4.816  43.282   2.191
71609W        W44034  33.007  33.015   4.471
71610W        W44035  33.888  38.923  10.561
71611W        W44036  34.891  35.455  11.575
71612W        W44037  33.991   3.496  12.527
71613W        W44038  27.188  18.220   0.837
71614W        W44039  16.523  17.992  12.226
71615W        W44040  33.448   0.831  10.339
71616W        W44041   3.290  39.888  13.334
71617W        W44042  41.851   9.101   1.766
71618W        W44043  24.139  39.804  13.385
71619W        W44044   7.359   6.739   2.127
71620W        W44045  21.055  30.104  14.841
71621W        W44046  44.448  26.308  12.667
71622W        W44047  33.900  34.204  14.414
71623W        W44048  30.969  39.746   4.260
71624W        W44049   4.202  15.187   2.782
71625W        W44050  40.344  19.300  10.330
71626W        W44051  34.475  36.401   0.051
71627W        W44052  17.163  27.651  12.759
71628W        W44053  44.925   9.229  11.636
71629W        W44054  28.919  11.034  14.787
71630W        W44055  40.971  44.797   0.441
71631W        W44056  26.511  28.010   4.595
71632W        W44057  23.720  11.290  11.896
71633W        W44058  34.974   7.361  12.963
71634W        W44059  36.894  10.468  12.111
71635W        W44060  43.012  15.749   0.924
71636W        W44061  40.263  10.886   4.764
71637W        W44062  23.510  13.726  13.832
71638W        W44063  27.010   6.728   1.242
71639W        W44064  40.854  16.256  10.353
71640W        W44065  35.953  13.172   4.636
71641W        W44066  39.061  18.071   0.932
71642W        W44067  19.447  21.612   3.642
71643W        W44068  29.203  15.899  14.446
71644W        W44069  43.807  21.523   3.125
71645W        W44070  31.479  20.218   4.633
71646W        W44071   4.424   1.717  10.536
71647W        W44072  34.344  32.498  14.188
71648W        W44073   4.869  28.804  12.146
71649W        W44074  42.124  23.716   2.126
71650W        W44075  10.564  12.067  12.830
71651W        W44076  22.009  25.086  14.420
71652W        W44077  31.667  22.641   4.502
71653W        W44078  31.960  41.334  12.406
71654W        W44079  29.101   8.967  12.461
71655W        W44080  27.414  38.997  14.814
71656W        W44081  16.582  27.493  12.155
71657W        W44082   1.709  40.285  14.535
71658W        W44083  34.984   9.369  13.108
71659W        W44084  14.316  41.262   4.001
71660W        W44085  33.840  18.201  13.353
71661W        W44086  37.470  37.323   0.799
71662W        W44087  24.038  18.648   2.670
71663W        W44088  16.407  11.026  14.515
71664W        W44089  16.715  21.576   3.603
71665W        W44090  13.262  29.909   2.222
71666W        W44091  43.206  21.319   4.702
71667W        W44092  17.184  18.016   4.836
71668W        W44093  30.678  14.229  10.841
71669W        W44094  21.774  11.435   1.324
71670W        W44095  12.214   0.006   0.804
71671W        W44096  25.588   3.379  12.970
71672W        W44097  36.638   4.405  14.969
71673W        W44098   6.830  26.036  10.748
71674W        W44099  16.945  37.310   4.860
71675W        W44100  38.861  15.121   1.354
71676W        W44101  17.043   6.499  12.032
71677W        W44102   3.890   9.844  11.648
71678W        W44103  17.768  32.057   0.371
71679W        W44104   1.848  42.515  11.536
71680W        W44105  24.937   1.836  11.178
71681W        W44106  22.506   0.757   1.692
71682W        W44107   9.497   4.861   2.423
71683W        W44108   0.036  40.447  11.050
71684W        W44109  11.105  19.147  14.326
71685W        W44110  15.260  15.126   2.317
71686W        W44111  41.388  34.988  12.469
71687W        W44112  44.851  36.046  13.915
71688W        W44113  16.116  13.884  12.073
71689W        W44114   8.859  24.676  12.192
71690W        W44115  41.781  22.837  12.504
71691W        W44116   7.349  43.806   3.182
71692W        W44117   7.150   7.811   0.915
71693W        W44118   9.313  35.712   9.734
71694W        W44119  18.774  32.455   5.459
71695W        W44120   7.566  27.012   0.326
71696W        W44121  35.882  35.519   0.353
71697W        W44122  42.769  14.011  14.990
71698W        W44123  36.146   8.020   1.504
71699W        W44124  16.500  27.122  11.119
71700W        W44125  41.060   5.230  14.820
71701W        W44126  44.170  12.229   1.107
71702W        W44127   6.156  27.140   3.205
71703W        W44128  21.269  32.815   0.952
71704W        W44129  28.687  16.822  11.442
71705W        W44130   1.716  20.090  12.589
71706W        W44131  43.358  16.873   4.199
71707W        W44132  25.214  32.006  14.382
71708W        W44133  37.830  40.121  12.330
71709W        W44134  38.338   9.416  12.431
71710W        W44135  41.320  26.703  12.998
71711W        W44136  38.463  18.550  12.042
71712W        W44137  18.123   6.242   0.929
71713W        W44138  12.919  16.541   3.723
71714W        W44139  37.387   9.365  14.957
71715W        W44140  14.972   5.939   2.260
71716W        W44141  27.839  44.402  13.166
71717W        W44142  25.875   3.429  11.482
71718W        W44143  26.471  32.344  11.425
71719W        W44144  22.000  11.841   4.156
71720W        W44145  29.434  38.983  13.796
71721W        W44146  16.565  39.844   0.301
71722W        W44147  33.334  39.659  11.587
71723W        W44148  40.329  34.796   3.353
71724W        W44149  43.335  12.434   2.326
71725W        W44150  15.522  33.431  11.193
71726W        W44151  16.997  14.774  12.994
71727W        W44152  10.783  18.372   1.500
71728W        W44153  27.218  16.083  12.952
71729W        W44154  16.176  31.393  10.381
71730W        W44155  38.862  36.513  10.774
71731W        W44156   1.723  36.923  13.401
71732W        W44157  37.436  28.085   0.300
71733W        W44158  41.444  13.471   0.414
71734W        W44159  39.431  18.377   0.742
71735W        W44160  14.852  31.368   0.254
71736W        W44161  17.475  27.155   0.296
71737W        W44162  20.416  17.378  12.461
71738W        W44163  27.016   9.965  10.974
71739W        W44164   8.296   9.652   3.577
71740W        W44165  39.243  28.920  13.399
71741W        W44166   4.121  26.474   1.786
71742W        W44167  10.379  44.729   3.275
71743W        W44168  33.570  33.967   4.159
71744W        W44169  38.218  14.012   5.099
71745W        W44170  23.240   8.830   2.705
71746W        W44171  19.204   1.803   0.972
71747W        W44172  40.803  32.405   3.134
71748W        W44173  23.000  27.749  14.477
71749W        W44174  41.268  21.714   4.929
71750W        W44175  22.595  43.616  11.113
71751W        W44176  26.587  10.744  14.235
71752W        W44177  43.427  39.402   0.464
71753W        W44178  13.861   1.538   1.856
71754W        W44179   7.852  44.087  13.026
71755W        W44180  29.018  35.972   4.301
71756W        W44181  41.558   4.312   0.282
71757W        W44182   1.857  22.602  11.401
71758W        W44183  44.780   1.892  11.730
71759W        W44184  44.847  35.358   1.409
71760W        W44185  19.482  21.695  14.012
71761W        W44186  20.902  30.482   0.425
71762W        W44187  14.129  42.533   1.179
71763W        W44188   2.024  22.630  14.399
71764W        W44189  39.611  24.177  14.069
71765W        W44190  36.425  14.219  11.603
71766W        W44191  33.150   8.227  11.740
71767W        W44192   1.305  40.979   4.579
71768W        W44193  19.305  43.867   0.815
71769W        W44194  26.882  10.422   2.238
71770W        W44195  11.708   8.224   2.647
71771W        W44196  19.358  36.757   2.705
71772W        W44197   4.890  43.958   4.532
71773W        W44198  39.725  22.899   2.365
71774W        W44199   5.480  39.523  12.886
71775W        W44200   5.854  22.746   2.111
71776W        W44201  17.150  24.045   0.735
71777W        W44202  21.385   8.198   5.733
71778W        W44203  20.157  36.341  11.880
71779W        W44204   0.113   4.477   2.046
71780W        W44205  37.268  13.448   5.144
71781W        W44206  30.354  25.703   3.136
71782W        W44207  36.096   1.061   1.610
71783W        W44208  13.104  33.423   2.243
71784W        W44209   7.391   2.768  10.485
71785W        W44210  20.677  42.315   3.766
71786W        W44211  43.878  31.548   4.116
71787W        W44212  24.147  41.207   4.133
71788W        W44213  10.661  38.978   3.219
71789W        W44214  11.818   4.897   1.618
71790W        W44215  30.088   5.863   0.895
71791W        W44216  37.095   9.131  10.766
71792W        W44217  39.901   3.037  10.758
71793W        W44218  10.764   6.849   4.355
71794W        W44219  33.431   7.163  13.446
71795W        W44220  35.430   4.767  14.412
71796W        W44221  29.954  30.808  11.519
71797W        W44222  30.003   5.840   4.065
71798W        W44223  35.405  22.576  14.300
71799W        W44224  22.805  35.438  13.893
71800W        W44225  38.252   4.805  14.468
71801W        W44226  13.420  37.084   4.380
71802W        W44227  43.906  21.756  13.417
71803W        W44228  15.563  22.544  14.507
71804W        W44229   8.646  40.818  10.557
71805W        W44230  22.532  43.233   3.363
71806W        W44231  27.075   4.014   0.856
71807W        W44232  37.321  38.046  12.490
71808W        W44233  17.804  19.495   3.725
71809W        W44234  18.828  43.356  13.117
71810W        W44235  19.168   8.193   1.894
71811W        W44236  32.919   3.887   2.330
71812W        W44237  27.242  25.525  12.051
71813W        W44238   1.779  10.746   2.198
71814W        W44239  30.125   8.180   4.115
71815W        W44240  18.449  27.910  13.942
71816W        W44241   2.228  37.136  13.376
71817W        W44242  21.128  29.671   2.203
71818W        W44243  11.863   6.779   2.467
71819W        W44244   5.980  24.278  13.949
71820W        W44245  20.781   0.924   2.775
71821W        W44246  22.548  30.159  11.119
71822W        W44247  24.304   5.884  12.921
71823W        W44248  21.910  23.042  14.995
71824W        W44249  24.203  39.690   3.065
71825W        W44250  24.771  43.144   3.757
71826W        W44251  19.002  20.467  12.096
71827W        W44252  30.691   6.375  14.168
71828W        W44253  40.425  15.301   0.797
71829W        W44254  17.890  41.736   2.729
71830W        W44255   8.768  12.178  13.962
71831W        W44256  32.555  11.074  13.477
71832W        W44257  19.489  32.455   2.194
71833W        W44258  23.211  44.279  11.010
71834W        W44259   9.052  22.520  11.071
71835W        W44260   5.307   7.659   2.413
71836W        W44261  30.658  23.063  13.007
71837W        W44262   1.475  17.548  14.117
71838W        W44263  12.483  19.638   0.824
71839W        W44264  33.595   5.722   0.724
71840W        W44265  39.183   8.882   4.616
71841W        W44266  39.696  41.893   2.158
71842W        W44267  29.687  28.128  13.245
71843W        W44268  15.826  44.140  10.374
71844W        W44269  41.829  23.334   1.751
71845W        W44270  39.459  27.184  11.601
71846W        W44271  10.197  24.863  13.724
71847W        W44272  10.921  37.800  12.920
71848W        W44273   3.736   6.370  10.217
71849W        W44274   5.380  34.432  10.838
71850W        W44275   0.660  44.711   1.051
71851W        W44276  20.781  22.202   3.798
71852W        W44277  44.974  13.059  13.213
71853W        W44278  22.927   3.971   2.763
71854W        W44279  16.271  21.041  11.892
71855W        W44280  29.876  39.071   0.659
71856W        W44281  36.877   9.601   0.740
71857W        W44282  25.721  41.426  14.449
71858W        W44283  30.070   5.449  14.467
71859W        W44284  27.425  20.738  12.089
71860W        W44285  40.383  23.552  12.347
71861W        W44286   1.054   3.895  14.496
71862W        W44287   4.962  18.092   2.822
71863W        W44288  16.171   6.889   4.346
71864W        W44289  26.822   1.329   4.668
71865W        W44290   0.085   3.006   3.046
71866W        W44291  33.812   3.405   5.008
71867W        W44292  42.047   4.177   0.251
71868W        W44293  19.537   4.662  10.799
71869W        W44294  13.849   2.441  14.365
71870W        W44295  23.963  40.357  11.379
71871W        W44296  14.600  44.692  13.017
71872W        W44297  11.930  13.116  11.931
71873W        W44298   0.714  36.589  12.056
71874W        W44299   3.541  23.873  14.440
71875W        W44300  21.721  24.076  11.440
71876W        W44301  17.841  34.015   0.642
71877W        W44302  25.077  44.328  13.139
71878W        W44303  28.558  12.224  11.642
71879W        W44304   4.786  28.958   1.268
71880W        W44305   2.260  32.430   4.061
71881W        W44306  31.308  26.336   5.181
71882W        W44307  14.748  41.358   2.694
71883W        W44308   0.476  12.544   1.440
71884W        W44309   4.766  38.348   4.817
71885W        W44310  28.720  29.958   0.681
71886W        W44311   8.530   3.806   4.006
71887W        W44312  20.373   0.139  12.537
71888W        W44313  15.560  35.486  10.809
71889W        W44314   0.994   7.237   0.716
71890W        W44315  36.065  18.065  14.021
71891W        W44316   0.556   7.920   3.713
71892W        W44317  11.045  43.361   3.203
71893W        W44318  33.424  29.392  13.538
71894W        W44319  10.811   5.867   4.720
71895W        W44320   1.001  35.998   2.969
71896W        W44321  36.927  19.616   3.259
71897W        W44322   0.992   6.766   1.467
71898W        W44323   1.361  18.386  10.689
71899W        W44324   9.802   5.740   5.433
71900W        W44325  41.587  35.320  11.499
71901W        W44326  18.725   3.518   0.836
71902W        W44327  36.452  41.051   1.320
71903W        W44328  11.135  30.657  10.747
71904W        W44329  16.684  42.380  14.241
71905W        W44330  24.678  41.418  12.424
71906W        W44331  43.780  24.620  14.061
71907W        W44332  44.640  27.087  10.405
71908W        W44333  12.231  44.153   1.237
71909W        W44334  36.869  36.842  11.093
71910W        W44335  13.617  44.485  13.794
71911W        W44336  15.014  16.719   0.383
71912W        W44337  30.001  19.544   2.643
71913W        W44338  14.516  21.324   0.757
71914W        W44339  36.633   3.272  11.937
71915W        W44340  15.221  43.483   1.434
71916W        W44341  29.418  14.746  14.868
71917W        W44342  18.955  31.438  11.640
71918W        W44343   2.822   4.458  14.277
71919W        W44344  25.718  16.690   3.781
71920W        W44345  29.277  22.727  14.975
71921W        W44346   7.753  17.191  14.295
71922W        W44347  35.149  13.863   1.843
71923W        W44348  13.202  43.591  11.173
71924W        W44349  13.042  41.406  13.087
71925W        W44350  10.302   5.757  11.739
71926W        W44351  44.243  38.448  14.290
71927W        W44352  11.795  22.078   1.362
71928W        W44353  39.388  22.283   3.536
71929W        W44354   1.703   3.724  11.108
71930W        W44355  22.540  16.555  11.171
71931W        W44356  44.476   1.439  13.434
71932W        W44357  35.589   8.936  14.292
71933W        W44358   1.667  11.796  12.872
71934W        W44359   9.252  37.004  10.567
71935W        W44360  30.478  16.845   5.098
71936W        W44361  23.972  32.146   4.174
71937W        W44362  29.009  41.797   1.733
71938W        W44363  12.064  10.295   4.193
71939W        W44364  28.480  11.647   2.224
71940W        W44365  12.340  17.511  11.182
71941W        W44366  44.218   9.821   2.418
71942W        W44367  29.725  32.261  14.830
71943W        W44368  21.578   7.636   0.838
71944W        W44369  12.002  44.478   4.569
71945W        W44370   8.767  14.281  10.745
71946W        W44371  26.487   8.241  12.612
71947W        W44372   1.497   7.185  14.775
71948W        W44373   8.751  34.590   4.479
71949W        W44374  11.904  10.872   0.136
71950W        W44375  24.701  26.032  11.159
71951W        W44376  22.151  28.596  11.526
71952W        W44377   9.411  13.577  14.780
71953W        W44378  43.988  26.843  11.913
71954W        W44379  13.753  26.500  13.886
71955W        W44380  19.692  25.444   5.057
71956W        W44381  30.890   4.011  11.215
71957W        W44382   9.383  31.582   3.385
71958W        W44383  15.325  21.239   4.711
71959W        W44384  26.551  17.630  11.858
71960W        W44385  43.297   6.613   3.848
71961W        W44386  29.468  10.646   0.592
71962W        W44387   2.815  15.413  13.404
71963W        W44388   1.112   0.426   4.313
71964W        W44389  38.549  14.782   2.865
71965W        W44390  15.002  28.674  14.740
71966W        W44391   4.762  11.630  13.974
71967W        W44392  11.856  10.334  14.311
71968W        W44393  19.693   2.410   1.323
71969W        W44394  22.778  10.113   0.231
71970W        W44395  34.961  38.828  10.573
71971W        W44396  43.878  44.222   2.402
71972W        W44397   0.271  29.959  11.728
71973W        W44398  34.924  21.743  10.865
71974W        W44399  20.639   4.380  12.574
71975W        W44400  44.784   1.084  14.511
71976W        W44401  30.707  12.810  13.379
71977W        W44402   4.937   7.719  10.433
71978W        W44403  40.034  13.769   3.629
71979W        W44404  39.966  20.022   4.545
71980W        W44405  13.112  16.711   4.283
71981W        W44406  25.309  38.426  14.607
71982W        W44407  30.512  43.830   1.231
71983W        W44408  25.038  39.909  11.238
71984W        W44409   3.513  18.380  10.653
71985W        W44410  11.118   5.345   3.277
71986W        W44411  33.629   0.212   1.699
71987W        W44412  22.888  22.649   0.924
71988W        W44413   5.102  41.473  11.149
71989W        W44414  27.210  13.312   3.638
71990W        W44415  25.700  43.059  13.902
71991W        W44416  23.610  28.110   4.777
71992W        W44417  11.616  10.201  13.342
71993W        W44418  41.375  15.560   1.301
71994W        W44419  36.471  44.184  11.883
71995W        W44420  29.341  13.621   4.614
71996W        W44421  21.981  23.507  12.874
71997W        W44422  37.990  41.755   2.317
71998W        W44423  28.877  32.631  14.926
71999W        W44424  14.878  41.767  11.987
72000W        W44425  33.114  42.796   3.305
72001W        W44426  18.995  12.906   2.304
72002W        W44427  25.251  24.248  11.246
72003W        W44428  38.285  31.365   3.689
72004W        W44429   3.382  15.759   0.431
72005W        W44430  41.121   2.263  10.709
72006W        W44431  35.336   9.362   2.181
72007W        W44432  12.853  25.906  11.974
72008W        W44433  16.403  31.000   0.382
72009W        W44434  10.970  30.119   2.627
72010W        W44435  10.294  16.611  14.465
72011W        W44436  21.181  13.411   3.366
72012W        W44437  41.359   4.739  12.567
72013W        W44438  10.874  43.559   1.720
72014W        W44439  26.223  33.457   3.336
72015W        W44440  34.578   6.232   2.270
72016W        W44441  12.599   0.477  12.289
72017W        W44442  15.529   7.545   2.592
72018W        W44443  42.846   1.539   3.449
72019W        W44444   9.897  18.720   4.412
72020W        W44445  27.886  38.032   4.658
72021W        W44446  29.907   2.200   3.227
72022W        W44447  11.086   2.183  12.946
72023W        W44448  32.960   6.749   0.457
72024W        W44449   0.037  25.587   1.669
72025W        W44450  37.799  25.424  14.379
72026W        W44451  40.086  23.638  13.323
72027W        W44452  32.902   3.435  12.365
72028W        W44453   3.321  11.822  11.915
72029W        W44454  34.302  25.275   0.492
72030W        W44455  41.428  28.145  14.270
72031W        W44456  32.061  26.495   3.760
72032W        W44457  13.697  35.329   2.287
72033W        W44458  32.386  36.716   5.054
72034W        W44459  30.288   8.369  11.386
72035W        W44460  24.432   1.009  12.542
72036W        W44461  34.897  21.057   9.831
72037W        W44462  42.448  30.450   3.790
72038W        W44463  24.283   4.301   4.650
72039W        W44464  23.443   9.800   0.796
72040W        W44465  42.438  36.596  12.757
72041W        W44466  34.852  41.899  10.693
72042W        W44467  39.779  28.225  14.953
72043W        W44468  27.368  21.848  13.437
72044W        W44469   1.284  43.793   2.400
72045W        W44470  17.363  23.567   4.963
72046W        W44471  42.826  20.259  11.562
72047W        W44472  25.029   7.208  10.998
72048W        W44473   0.963   3.173   1.283
72049W        W44474  14.796  19.869  12.548
72050W        W44475  16.642  31.460  13.542
72051W        W44476  16.877   5.331   4.712
72052W        W44477  11.193  14.785   1.999
72053W        W44478  35.879  41.444   3.166
72054W        W44479  18.341  20.566   0.518
72055W        W44480   6.272  36.947  12.843
72056W        W44481  26.422  23.046  13.651
72057W        W44482  28.845   2.047  11.132
72058W        W44483  33.167  20.644   0.242
72059W        W44484   5.895  26.140  12.040
72060W        W44485  40.349  21.968  13.895
72061W        W44486   9.271  21.944  12.081
72062W        W44487  28.483  43.268  14.954
72063W        W44488  20.817  38.471   3.128
72064W        W44489  26.546  31.669   1.038
72065W        W44490   5.465  35.886   1.980
72066W        W44491  37.126  12.199   4.253
72067W        W44492  21.227  29.395   1.750
72068W        W44493   2.474  36.894  14.793
72069W        W44494  42.717   1.947  11.593
72070W        W44495  40.485  40.443   1.475
72071W        W44496   3.737  43.510   2.718
72072W        W44497  30.529  28.403  11.193
72073W        W44498  41.803   1.281  13.997
72074W        W44499  21.091  19.647   3.777
72075W        W44500  29.368  25.500  13.920
72076W        W44501  10.603  25.278  14.577
72077W        W44502   4.754  22.397   5.093
72078W        W44503  10.871  29.451  11.818
72079W        W44504   1.615  42.460  12.010
72080W        W44505  20.599  14.666   4.594
72081W        W44506  12.867  34.849  12.133
72082W        W44507  11.145  14.401   0.698
72083W        W44508  30.212  21.012  10.210
72084W        W44509  16.559   0.615  12.995
72085W        W44510  25.734  29.117  13.366
72086W        W44511  26.541  41.579   0.474
72087W        W44512  29.607  37.827  13.020
72088W        W44513   7.424  22.651   0.557
72089W        W44514  15.636  40.959  12.494
72090W        W44515  23.461  12.433  11.478
72091W        W44516  43.778  44.591   4.290
72092W        W44517  43.927   7.897  11.028
72093W        W44518  19.775  13.697  14.041
72094W        W44519  36.703  35.272  11.465
72095W        W44520  40.071   9.437  10.690
72096W        W44521  16.032  25.059  12.395
72097W        W44522  11.240  33.602   2.517
72098W        W44523  37.563  40.135   0.296
72099W        W44524   7.966   9.663  13.493
72100W        W44525  15.404  22.219   0.915
72101W        W44526  16.543  32.151   2.673
72102W        W44527  43.754  43.702   0.912
72103W        W44528  26.258   1.484   3.209
72104W        W44529   0.996  21.729  13.458
72105W        W44530  10.351  40.970   4.669
72106W        W44531  40.327   0.229  13.547
72107W        W44532  37.816  20.999   5.147
72108W        W44533   9.363  37.732  11.042
72109W        W44534  10.346  23.753   2.525
72110W        W44535  28.871  18.035   4.228
72111W        W44536   6.123  43.138  14.432
72112W        W44537  25.626  33.511  13.118
72113W        W44538  21.469  10.706   4.106
72114W        W44539  41.551   0.384  13.880
72115W        W44540  26.488  23.204  10.556
72116W        W44541  29.562   3.906  13.814
72117W        W44542   7.011   4.930   1.742
72118W        W44543   5.708  32.880  12.016
72119W        W44544  25.061  15.084  12.409
72120W        W44545  33.111  34.157   2.145
72121W        W44546   2.955  30.413   3.362
72122W        W44547  35.913  27.013   4.183
72123W        W44548  35.524  25.724  14.365
72124W        W44549  34.375  12.338   0.314
72125W        W44550  28.434  18.102   0.239
72126W        W44551   0.095  36.623   2.506
72127W        W44552   4.836  20.744   4.951
72128W        W44553  44.785  43.071  11.457
72129W        W44554  36.854   1.972   2.226
72130W        W44555  13.612  34.076   4.164
72131W        W44556  14.917   4.671  11.499
72132W        W44557  38.350  24.077  12.430
72133W        W44558  12.254  36.317  12.328
72134W        W44559   1.733   4.769  12.526
72135W        W44560  32.610  29.516  14.776
72136W        W44561  44.301  36.881  11.574
72137W        W44562   8.772  42.037  11.165
72138W        W44563   5.428   4.248  13.883
72139W        W44564   5.752  22.973   4.137
72140W        W44565  30.321  22.632  12.965
72141W        W44566  11.182  17.202   3.617
72142W        W44567  36.121  32.395   2.854
72143W        W44568  42.274  16.120  14.770
72144W        W44569  25.944  40.013  14.394
72145W        W44570  14.823  19.848   4.660
72146W        W44571  12.747  39.826   3.723
72147W        W44572  22.567  21.920  13.962
72148W        W44573  40.865   0.747   4.632
72149W        W44574   8.333  10.965   2.287
72150W        W44575  21.005  35.942   4.848
72151W        W44576  33.366  27.105  13.342
72152W        W44577  23.148  19.604   2.351
72153W        W44578  12.670   5.863  14.480
72154W        W44579  40.896   1.650   1.585
72155W        W44580  22.839  14.655   2.274
72156W        W44581  14.978  23.110  13.314
72157W        W44582  33.618  11.361   0.853
72158W        W44583  41.383  42.023   1.190
72159W        W44584  20.707   4.474   3.705
72160W        W44585   4.915  41.914  14.702
72161W        W44586  36.133  14.660  11.707
72162W        W44587  24.779  11.907  14.869
72163W        W44588   1.218  39.110   3.129
72164W        W44589  35.071  10.216  12.441
72165W        W44590   4.785  15.278  13.516
72166W        W44591  20.056  23.334  12.518
72167W        W44592  32.171  42.964  11.877
72168W        W44593   7.091  21.276  10.563
72169W        W44594  42.968  33.562   4.747
72170W        W44595  18.060  25.708   4.580
72171W        W44596  34.883   5.931   4.121
72172W        W44597   5.340   9.407  13.896
72173W        W44598  44.239  31.909   4.155
72174W        W44599  36.855  24.173   2.301
72175W        W44600  13.625  42.520  10.999
72176W        W44601  38.497   8.990   1.855
72177W        W44602  20.584  39.538  14.185
72178W        W44603  44.693  38.551  12.475
72179W        W44604  31.702  20.746  14.119
72180W        W44605   5.794  11.815   1.510
72181W        W44606  36.355  44.639  14.393
72182W        W44607  22.343  35.094  12.871
72183W        W44608   8.828  33.255  14.325
72184W        W44609  35.523   0.998   2.916
72185W        W44610   7.922  16.719   4.857
72186W        W44611  36.921  25.038   9.757
72187W        W44612  22.349   4.198  12.829
72188W        W44613  37.714  30.607  11.627
72189W        W44614   4.743  26.508   4.079
72190W        W44615  21.167   3.203  12.163
72191W        W44616  25.426  18.954   0.004
72192W        W44617  38.516  37.142   4.740
72193W        W44618  17.232  11.317  12.039
72194W        W44619   7.180  41.548   0.932
72195W        W44620  34.390   4.245   0.941
72196W        W44621   4.380  27.097  11.560
72197W        W44622  15.325  36.450   2.223
72198W        W44623  22.208   4.743  11.049
72199W        W44624  16.707  16.698  13.486
72200W        W44625  21.743  38.276   3.675
72201W        W44626  42.688  40.894  11.456
72202W        W44627  34.092  15.145  10.789
72203W        W44628   7.683  27.047  12.061
72204W        W44629  30.693  19.611   3.421
72205W        W44630  17.108  40.924  10.518
72206W        W44631  28.956  29.861  10.284
72207W        W44632  11.532  43.718   4.054
72208W        W44633  16.558  31.433   4.194
72209W        W44634  42.993  34.033   3.204
72210W        W44635  38.318   0.331   2.197
72211W        W44636   8.103   9.153   2.638
72212W        W44637  20.719  10.595   4.615
72213W        W44638  22.987  27.051  11.567
72214W        W44639  15.576  40.407  11.874
72215W        W44640  35.423  39.291   4.335
72216W        W44641   6.369  11.228  12.591
72217W        W44642  24.171   8.757   4.958
72218W        W44643  17.531  35.617   2.715
72219W        W44644  38.330  36.920   2.330
72220W        W44645  38.121  26.625  12.520
72221W        W44646  41.972  23.659  12.273
72222W        W44647  39.955  36.752  14.828
72223W        W44648  41.826  19.540   4.499
72224W        W44649  43.696  13.069  11.644
72225W        W44650  17.869  14.574  11.244
72226W        W44651  29.243   2.767  10.716
72227W        W44652  11.612   1.581  10.725
72228W        W44653  29.945  43.290   0.945
72229W        W44654   9.928  24.820  14.181
72230W        W44655   7.711  41.152  12.633
72231W        W44656  43.462  28.674   2.452
72232W        W44657  42.898  39.915   2.717
72233W        W44658  38.027  20.905  12.894
72234W        W44659  37.424  37.370   3.535
72235W        W44660  40.489  42.863   4.698
72236W        W44661  11.404  25.106   2.283
72237W        W44662  26.217  22.218   2.679
72238W        W44663  12.719  17.572   1.832
72239W        W44664  14.211   8.821   4.349
72240W        W44665  39.993   6.726  12.988
72241W        W44666  26.206   7.414   0.371
72242W        W44667  44.577   4.641   2.682
72243W        W44668  32.667  17.244  11.173
72244W        W44669  40.815  11.693  10.865
72245W        W44670  31.028  19.260  10.846
72246W        W44671   0.420  17.896  14.909
72247W        W44672  35.819   3.811  11.123
72248W        W44673  44.893   8.602   4.981
72249W        W44674  42.322  22.456  14.455
72250W        W44675  26.789  31.325  10.523
72251W        W44676   8.954  11.287  10.110
72252W        W44677  27.457  29.869   3.169
72253W        W44678   8.735  20.915  12.479
72254W        W44679  25.709  32.196   5.314
72255W        W44680  19.083  41.414  13.106
72256W        W44681  20.027   3.497  12.893
72257W        W44682  32.544   4.878   0.469
72258W        W44683  25.690  24.450  10.991
72259W        W44684  17.536  26.509  14.876
72260W        W44685   5.358  18.344  12.103
72261W        W44686   1.359   7.133   3.660
72262W        W44687   7.439  25.429  12.553
72263W        W44688   0.240  44.009  12.830
72264W        W44689   5.270   3.663  14.811
72265W        W44690  20.641  28.857   4.903
72266W        W44691  15.162  25.665  11.455
72267W        W44692  43.022  42.295  14.381
72268W        W44693  22.003  33.050  12.387
72269W        W44694  15.738  42.051  11.497
72270W        W44695  37.024   8.903  14.433
72271W        W44696  37.355  32.908   1.273
72272W        W44697  16.139   6.467  12.521
72273W        W44698  13.259  25.475   1.778
72274W        W44699  43.965  16.092  13.333
72275W        W44700   3.309   6.235   0.193
72276W        W44701  29.728  33.147  12.076
72277W        W44702  38.811   4.911  13.454
72278W        W44703  17.670  29.978   0.353
72279W        W44704  32.043  14.385  13.290
72280W        W44705  16.644  25.471   1.285
72281W        W44706  36.373  30.589  11.819
72282W        W44707  26.614  36.615   2.907
72283W        W44708  43.268  23.027  11.886
72284W        W44709  10.871  26.187   3.116
72285W        W44710   8.446  21.738   1.751
72286W        W44711  41.000  44.670  12.629
72287W        W44712  23.678  26.734  12.439
72288W        W44713  11.199  21.979  11.324
72289W        W44714   9.763  16.518   0.089
72290W        W44715   7.932  10.870  12.925
72291W        W44716  25.931  36.392  11.960
72292W        W44717  10.232  20.705  11.987
72293W        W44718  39.502   8.278   0.396
72294W        W44719  27.180   0.878   4.274
72295W        W44720  22.921   2.483  11.609
72296W        W44721  43.219  29.563  12.935
72297W        W44722  25.397   0.465  13.978
72298W        W44723   1.349  24.963   2.345
72299W        W44724  22.207   2.508   1.858
72300W        W44725   6.411  27.254   1.270
72301W        W44726   8.323  33.179  10.567
72302W        W44727   9.773  39.504  10.476
72303W        W44728  18.946  17.760   4.733
72304W        W44729  10.823  44.546   0.759
72305W        W44730  29.887  26.691   2.855
72306W        W44731  17.810   4.821   4.146
72307W        W44732   8.662   6.701  14.830
72308W        W44733  20.191   5.922   4.630
72309W        W44734  21.347  12.413  11.914
72310W        W44735  29.082  21.539  11.841
72311W        W44736   1.475  24.805  11.963
72312W        W44737  21.938  24.036   4.547
72313W        W44738   6.052   6.390  13.471
72314W        W44739  27.956  13.017   3.348
72315W        W44740  23.090   7.308  10.731
72316W        W44741  34.725  15.793   4.943
72317W        W44742   5.743  16.666  14.277
72318W        W44743  37.786  16.174  14.732
72319W        W44744  24.495  17.116   2.592
72320W        W44745  37.300  44.490  14.492
72321W        W44746  15.113  39.262  11.488
72322W        W44747  13.880   0.461  11.607
72323W        W44748  25.417  14.825   0.364
72324W        W44749  44.516  20.414  11.969
72325W        W44750  29.452  32.125   4.690
72326W        W44751  17.570  28.900  11.024
72327W        W44752   0.454  11.598  13.869
72328W        W44753  38.986  31.626  10.490
72329W        W44754  44.697  33.928   0.985
72330W        W44755   6.209  31.176  14.117
72331W        W44756  31.896  34.931  11.711
72332W        W44757  35.917  21.222   4.982
72333W        W44758  34.038  30.354  14.447
72334W        W44759  13.040  11.904   4.156
72335W        W44760  33.922   6.819  14.991
72336W        W44761  35.292  33.047  10.786
72337W        W44762  38.661   1.922   2.062
72338W        W44763   3.341  24.154  11.850
72339W        W44764  20.137  40.430   4.866
72340W        W44765  15.750  34.555   0.065
72341W        W44766  23.193  33.665   3.750
72342W        W44767  14.765   6.736   2.805
72343W        W44768  15.598  27.548   0.874
72344W        W44769  44.475  15.780   1.479
72345W        W44770  30.073  24.663  13.814
72346W        W44771   4.583  17.976   2.257
72347W        W44772  13.705  20.069   1.364
72348W        W44773  31.031  19.967  13.878
72349W        W44774  28.659  39.176   3.627
72350W        W44775  13.124  33.709   1.799
72351W        W44776   5.183  14.103   1.304
72352W        W44777  26.234  28.098  14.802
72353W        W44778   2.232  33.549   0.992
72354W        W44779  39.982  36.511   1.755
72355W        W44780  18.058  38.541  12.946
72356W        W44781  32.684  24.963  12.508
72357W        W44782   3.179   3.744  13.517
72358W        W44783  38.360  17.559  12.250
72359W        W44784  27.250  36.603  11.122
72360W        W44785   9.372  35.101   3.283
72361W        W44786  27.209  34.032  12.616
72362W        W44787  35.858  43.417   0.419
72363W        W44788  30.562   1.948   1.754
72364W        W44789  22.775   1.338  10.707
72365W        W44790  44.242  19.741  10.741
72366W        W44791  13.708  29.040  12.869
72367W        W44792  20.288  42.925   4.737
72368W        W44793   7.909  40.419   4.577
72369W        W44794   8.858   3.209   0.400
72370W        W44795   4.485  13.231   4.478
72371W        W44796  28.231  13.840  14.535
72372W        W44797  16.801  30.489  13.319
72373W        W44798  29.631  17.571   2.902
72374W        W44799  19.273  33.729  13.465
72375W        W44800  27.540   9.833  13.539
72376W        W44801  15.387  14.102   3.352
72377W        W44802  27.689   3.359  12.871
72378W        W44803  29.260  17.495   0.421
72379W        W44804  26.305  33.052  13.537
72380W        W44805  42.376   5.433   4.100
72381W        W44806  35.927  32.516   1.387
72382W        W44807  39.336  11.813   1.862
72383W        W44808   7.854  16.684  14.925
72384W        W44809  23.950  17.347   1.178
72385W        W44810  34.633   5.782   0.870
72386W        W44811  38.136   4.352   1.241
72387W        W44812  24.707  10.159  14.955
72388W        W44813  11.613   4.757  12.982
72389W        W44814   1.822   2.231  11.417
72390W        W44815  34.591   7.844   0.281
72391W        W44816  20.248   7.413   2.314
72392W        W44817  20.062  13.559   4.171
72393W        W44818  11.115   7.307   1.087
72394W        W44819  25.299  30.460  11.056
72395W        W44820  15.550  19.771   1.483
72396W        W44821   6.282  17.203  13.974
72397W        W44822  14.978  13.244  12.087
72398W        W44823  31.371  19.584  10.654
72399W        W44824  11.623  17.696  13.536
72400W        W44825  36.843  40.171  12.052
72401W        W44826   4.978  23.452   2.794
72402W        W44827   3.017  38.086  11.115
72403W        W44828  29.112   7.979   0.747
72404W        W44829  21.330  23.611   4.054
72405W        W44830  15.830  16.457   1.897
72406W        W44831  35.369   0.724  10.628
72407W        W44832  31.881  44.869  11.589
72408W        W44833  29.169   3.027  12.394
72409W        W44834  37.957  15.624   0.386
72410W        W44835  34.514   3.733  11.524
72411W        W44836  29.363   7.352   2.200
72412W        W44837  22.677  38.020  12.790
72413W        W44838  10.354  43.017   3.808
72414W        W44839  19.991  11.900   1.375
72415W        W44840  36.938  24.103   4.585
72416W        W44841   3.755  12.532   4.169
72417W        W44842  17.572  31.923  14.433
72418W        W44843   6.525  31.468  13.830
72419W        W44844  12.253  41.528   3.102
72420W        W44845  42.416   0.830  12.041
72421W        W44846  32.971  44.306  11.063
72422W        W44847  21.203  30.981   3.344
72423W        W44848  38.421  23.775   4.813
72424W        W44849   5.727  26.022  13.454
72425W        W44850   0.890  13.831   1.380
72426W        W44851  39.549  26.603  10.735
72427W        W44852  15.847  26.891  13.686
72428W        W44853  44.175  44.390   2.800
72429W        W44854  16.862  40.462  10.599
72430W        W44855   4.720  11.404   0.997
72431W        W44856  15.627   3.151  12.808
72432W        W44857  41.425  12.249  13.058
72433W        W44858  17.054  34.052   3.881
72434W        W44859  30.139  40.092  11.646
72435W        W44860  13.322  28.799   3.759
72436W        W44861  18.658  30.728   1.193
72437W        W44862  30.728  13.681  14.255
72438W        W44863  22.757  28.181  10.603
72439W        W44864   4.953   9.837  12.588
72440W        W44865  35.014   1.529  11.598
72441W        W44866  17.804  28.804   1.960
72442W        W44867  12.834  42.757   0.913
72443W        W44868  40.824  14.998   0.470
72444W        W44869   8.682  10.123  13.998
72445W        W44870  31.563  14.608  14.532
72446W        W44871  16.006  44.173   3.841
72447W        W44872  22.637  32.401  12.481
72448W        W44873  35.659  27.927  12.406
72449W        W44874   9.085  24.925   1.295
72450W        W44875  25.961  13.725   3.817
72451W        W44876  43.167  40.086   3.695
72452W        W44877   8.072  35.072  11.583
72453W        W44878  14.161   6.256   1.168
72454W        W44879  39.311  33.097  13.419
72455W        W44880   7.121  22.114  13.432
72456W        W44881  24.992   1.531   2.765
72457W        W44882   3.048  27.631  12.877
72458W        W44883  28.563  16.778   2.781
72459W        W44884  22.421  16.277  11.589
72460W        W44885   0.208   1.352  12.987
72461W        W44886  42.769  24.755   1.361
72462W        W44887  23.116  26.659   4.893
72463W        W44888  12.758  18.338  12.787
72464W        W44889  43.540  38.982   0.725
72465W        W44890   4.644   8.169  12.624
72466W        W44891  23.988  39.585   0.795
72467W        W44892   3.745  43.826   1.687
72468W        W44893  40.420  36.859   1.313
72469W        W44894  39.964  17.542   3.443
72470W        W44895  27.968  26.028  14.808
72471W        W44896  28.156  30.585   2.395
72472W        W44897  11.186  25.018   4.102
72473W        W44898  12.225  12.126   3.730
72474W        W44899  25.209   1.326   3.630
72475W        W44900   8.463   5.973  12.365
72476W        W44901  30.437  21.412   0.683
72477W        W44902  22.749  30.451  12.444
72478W        W44903  39.204  31.362   3.596
72479W        W44904  24.256   2.510  11.155
72480W        W44905  19.556  33.123  13.047
72481W        W44906  16.732  20.552   3.326
72482W        W44907  21.554  37.602  14.578
72483W        W44908   7.744  28.696   4.674
72484W        W44909  11.593  28.203   9.994
72485W        W44910  39.925   4.616  13.860
72486W        W44911  20.216  29.000   4.155
72487W        W44912  19.128  43.806   3.620
72488W        W44913  36.909  43.030   2.770
72489W        W44914  34.124  25.272  13.298
72490W        W44915  11.825  24.149   2.022
72491W        W44916   5.419  41.515   2.949
72492W        W44917   8.257   4.380  11.681
72493W        W44918   3.019  31.511   3.473
72494W        W44919  39.810  17.147  13.957
72495W        W44920  30.428   0.156  10.769
72496W        W44921  39.972  28.437   2.422
72497W        W44922  14.430  12.889  11.460
72498W        W44923  36.020  29.628   2.326
72499W        W44924  27.643   9.947  11.111
72500W        W44925  39.897  19.143   2.731
72501W        W44926  37.634  22.012   4.600
72502W        W44927  40.228  29.064   3.419
72503W        W44928  40.084  16.529   4.120
72504W        W44929  38.643  29.825   0.076
72505W        W44930  41.222   5.215  11.034
72506W        W44931   7.894   4.767   3.360
72507W        W44932  16.162  43.834  14.386
72508W        W44933  10.647  24.220   0.904
72509W        W44934  22.072  36.681  12.987
72510W        W44935  11.263   2.185   3.975
72511W        W44936   4.263  17.358   4.865
72512W        W44937  26.984  15.677   2.272
72513W        W44938  33.971  21.025  13.389
72514W        W44939  34.088  40.112   3.553
72515W        W44940  10.163   4.474   2.901
72516W        W44941   4.482  33.420   1.836
72517W        W44942  15.345  36.386   0.433
72518W        W44943  18.785   5.804   0.565
72519W        W44944  25.210  21.509  14.516
72520W        W44945  25.722  33.155  10.541
72521W        W44946   7.874   8.272   4.993
72522W        W44947  33.946  20.406   0.481
72523W        W44948  27.018   0.998  11.447
72524W        W44949  38.618  13.779  11.551
72525W        W44950  18.781   6.233   1.793
72526W        W44951  42.031  10.852   3.706
72527W        W44952   1.829   8.620  11.630
72528W        W44953  10.969  19.126  12.480
72529W        W44954  34.073  19.340  12.090
72530W        W44955  36.350  40.073  14.923
72531W        W44956  37.992  24.045   4.662
72532W        W44957  22.328  14.872  12.567
72533W        W44958  28.491  16.845   0.223
72534W        W44959  43.430   7.083   3.947
72535W        W44960   1.991   2.827   2.247
72536W        W44961  40.284  41.196   1.659
72537W        W44962  28.580  21.562   1.917
72538W        W44963   0.632  39.777  14.300
72539W        W44964  33.576  36.810   2.368
72540W        W44965  42.221  17.729   0.369
72541W        W44966   4.176   8.227  14.813
72542W        W44967  37.351  34.549   0.360
72543W        W44968  38.958  41.189  10.625
72544W        W44969  36.046  37.883  11.939
72545W        W44970  27.616  43.883   1.775
72546W        W44971   5.769  17.565   2.124
72547W        W44972   7.817  13.978   1.480
72548W        W44973  43.214  13.006  13.394
72549W        W44974   5.667  28.510  10.794
72550W        W44975  23.557   2.858   2.706
72551W        W44976   7.107  38.384   9.896
72552W        W44977  21.776  34.419   3.612
72553W        W44978  28.568  41.099  10.456
72554W        W44979   1.361  39.391  11.773
72555W        W44980   0.012   3.854   0.864
72556W        W44981  41.773  11.132  13.339
72557W        W44982   9.932  38.936  14.793
72558W        W44983  22.717  19.207   0.787
72559W        W44984  23.079  14.373   2.658
72560W        W44985   5.234  13.178   0.441
72561W        W44986  28.049  31.465   1.980
72562W        W44987  26.276  20.630   0.981
72563W        W44988   3.898  18.320  14.873
72564W        W44989  21.093  35.276   2.521
72565W        W44990  36.129  44.303   4.650
72566W        W44991  10.337   7.208  10.785
72567W        W44992  41.813  44.925   0.883
72568W        W44993  43.347  16.525   3.775
72569W        W44994  24.956  10.428   4.185
72570W        W44995  17.680   6.670   3.513
72571W        W44996  25.832  20.339   3.811
72572W        W44997  17.789   4.290   4.208
72573W        W44998   4.639   4.182   3.845
72574W        W44999  15.516   2.152   9.872
72575W        W45000   8.504  27.255   2.903
72576W        W45001  10.381  33.284   5.064
72577W        W45002  35.939   7.079  11.922
72578W        W45003  30.871  22.106   1.740
72579W        W45004  30.607  20.770   2.367
72580W        W45005  41.097   0.232   9.949
72581W        W45006   1.971  17.707  10.995
72582W        W45007  42.820  20.759  11.525
72583W        W45008  17.644  25.157  14.157
72584W        W45009   9.730  18.431   1.765
72585W        W45010  11.707   5.795   0.987
72586W        W45011  16.317   3.241  10.471
72587W        W45012   3.803  28.588  13.542
72588W        W45013   4.979  23.694  14.470
72589W        W45014  21.604  22.615   0.151
72590W        W45015  39.839  36.187  12.378
72591W        W45016  19.189  29.301   4.571
72592W        W45017  40.405  29.048   1.926
72593W        W45018  44.091  28.045  11.661
72594W        W45019  28.647  12.358   4.442
72595W        W45020   4.001  18.155   2.661
72596W        W45021  28.598  39.789  13.387
72597W        W45022  41.338  42.252  12.323
72598W        W45023  11.616  11.015   3.318
72599W        W45024  19.769  38.480   2.172
72600W        W45025   6.788  44.850  14.903
72601W        W45026   9.960  21.763  10.801
72602W        W45027   8.476  36.007  11.919
72603W        W45028  23.340  30.397  14.821
72604W        W45029   0.805   5.086  13.780
72605W        W45030   7.726  25.316  10.829
72606W        W45031  37.903  33.876  13.000
72607W        W45032  11.672  34.967  13.319
72608W        W45033  16.266  16.245   1.137
72609W        W45034  37.135  18.680  11.231
72610W        W45035  24.171   7.410   2.654
72611W        W45036  32.685  19.786  10.992
72612W        W45037  22.233   2.653  10.688
72613W        W45038   8.422  11.706  11.192
72614W        W45039  25.214  25.979  11.081
72615W        W45040   5.201  25.916  13.434
72616W        W45041  39.915  27.426  11.555
72617W        W45042  22.210  33.335  14.826
72618W        W45043  32.641  10.251  13.791
72619W        W45044   3.914  19.650  13.830
72620W        W45045  12.635   2.333   4.753
72621W        W45046  23.239  13.221  12.483
72622W        W45047  25.629  35.032  11.162
72623W        W45048  41.939  14.532   3.744
72624W        W45049  28.237  39.586  14.773
72625W        W45050  26.111  14.914   1.869
72626W        W45051   5.670  24.174   2.937
72627W        W45052  32.614  25.117   1.677
72628W        W45053  23.515  41.759  12.569
72629W        W45054  29.733  25.411  11.218
72630W        W45055   5.414  32.376   1.027
72631W        W45056  38.837  17.590   3.533
72632W        W45057  44.121  27.034  13.216
72633W        W45058   6.446  25.789   0.357
72634W        W45059  19.374  18.586   0.420
72635W        W45060   2.477  44.740  11.113
72636W        W45061  35.457  38.162   1.304
72637W        W45062  21.864  14.278   2.258
72638W        W45063  39.398  43.038   2.349
72639W        W45064   9.598  35.115   2.345
72640W        W45065  15.735  33.906   1.715
72641W        W45066  43.193  34.065  14.716
72642W        W45067  12.676  31.346   1.705
72643W        W45068  25.395  40.767  11.407
72644W        W45069  32.678  17.323   5.044
72645W        W45070  42.013  21.225  11.494
72646W        W45071  23.462   3.384   4.477
72647W        W45072  42.261  25.560   0.956
72648W        W45073  28.069  19.710   4.602
72649W        W45074  18.066  41.339  11.480
72650W        W45075  21.980  39.581   3.151
72651W        W45076  40.042  16.253  13.676
72652W        W45077  10.150  10.346   0.865
72653W        W45078  24.788  28.542   3.886
72654W        W45079   2.474  19.280   4.138
72655W        W45080   8.934  30.946  11.645
72656W        W45081  27.500  16.691  14.010
72657W        W45082  41.445  39.151  12.006
72658W        W45083   2.394  14.645   0.340
72659W        W45084  15.588  25.487  14.495
72660W        W45085   7.818  22.987  11.200
72661W        W45086  41.291  41.491   4.772
72662W        W45087  34.113  27.030  14.903
72663W        W45088  11.306  14.156  12.763
72664W        W45089  39.886  29.706   2.342
72665W        W45090   9.814  43.208  14.527
72666W        W45091  24.561  39.909  10.830
72667W        W45092  42.792  16.823   3.131
72668W        W45093  38.903   2.735  10.590
72669W        W45094  20.834  24.312  11.992
72670W        W45095  36.313  44.639   4.216
72671W        W45096   6.187  39.074  10.660
72672W        W45097  33.749  22.569  10.173
72673W        W45098   2.420  35.519   4.639
72674W        W45099  42.477  39.390   4.318
72675W        W45100   5.278   6.821  14.062
72676W        W45101  19.471  41.885  13.785
72677W        W45102  17.211   3.017  14.533
72678W        W45103   5.768  30.692  14.855
72679W        W45104  11.864  42.115  14.221
72680W        W45105  23.178  34.844  14.158
72681W        W45106   8.691   1.329  10.743
72682W        W45107  38.182   7.460  13.868
72683W        W45108   2.136  30.108  13.587
72684W        W45109  31.518   2.756   3.399
72685W        W45110   5.924  27.013   1.725
72686W        W45111  31.902  21.727   5.000
72687W        W45112  42.826  37.532  12.916
72688ION    NA+45113  32.697  21.292  12.285
72689ION    NA+45114  11.753  28.922  11.263
72690ION    NA+45115  25.017  37.105   0.014
72691ION    NA+45116  18.209  17.757   3.586
72692ION    NA+45117  29.629  29.745   3.029
72693ION    NA+45118  41.187  24.121  13.830
72694ION    NA+45119  10.435  26.507   3.013
72695ION    NA+45120  34.382  33.900   0.312
72696ION    NA+45121  24.562   5.103  11.480
72697ION    NA+45122  28.523  11.431   2.709
72698ION    NA+45123  42.466  24.928   4.694
72699ION    NA+45124  17.114  32.450   2.946
72700ION    NA+45125  19.056  23.994   2.343
72701ION    NA+45126  23.658  38.840   4.816
72702ION    NA+45127  25.689  37.219   4.440
72703ION    NA+45128  35.729  14.868   2.414
72704ION    NA+45129  26.735  19.366   1.869
72705ION    NA+45130  19.075   8.203  10.797
72706ION    NA+45131  39.951  33.551   4.646
72707ION    NA+45132  15.541  33.518  13.175
72708ION    NA+45133  14.937  24.833   5.475
72709ION    NA+45134   1.186   9.674   4.606
72710ION    NA+45135  16.725  17.600   2.182
72711ION    NA+45136  13.600   1.053   1.835
72712ION    NA+45137  20.490  26.057   2.365
72713ION    NA+45138  31.421  11.078   1.899
72714ION    NA+45139  25.118  24.853   0.515
72715ION    NA+45140  11.298  43.774   0.080
72716ION    NA+45141  41.494  42.069  12.763
72717ION    NA+45142   1.432   8.007   2.772
72718ION    NA+45143  34.804  29.923   4.109
72719ION    NA+45144  32.758  31.391   1.367
72720ION    NA+45145  36.252  31.534   2.220
72721ION    NA+45146  17.767   5.474  13.420
72722ION    NA+45147  22.011  38.851  13.572
72723ION    NA+45148  22.525  31.780   1.716
72724ION    NA+45149  31.409  39.423  13.510
72725ION    NA+45150  13.460  17.191   4.116
72726ION    NA+45151  31.658   2.578   2.547
72727ION    NA+45152  43.943  35.397   1.768
72728ION    NA+45153  38.366  36.408  14.737
72729ION    NA+45154  36.452  41.589  13.442
72730ION    NA+45155  11.187  12.462  12.383
72731ION    NA+45156   1.008  33.751   4.907
72732ION    NA+45157  27.747   9.087   2.477
72733ION    NA+45158  19.745  19.457   1.678
72734ION    NA+45159  30.678  20.162  11.843
72735ION    NA+45160  37.612  26.048   0.420
72736ION    NA+45161  31.321  11.995   2.595
72737ION    NA+45162  16.704  19.157   0.880
72738ION    NA+45163   3.970  30.188  10.656
72739ION    NA+45164  34.474  34.435  10.666
72740ION    NA+45165  30.088  23.458  11.359
72741ION    NA+45166  16.020  20.729   2.643
72742ION    NA+45167  15.559  24.102   5.192
72743ION    NA+45168  29.052   5.736  13.042
72744ION    NA+45169  14.112  38.233   2.712
72745ION    NA+45170  37.281  11.884   0.249
72746ION    NA+45171  15.083  43.215  11.838
72747ION    NA+45172  11.714  31.713   2.975
72748ION    NA+45173  10.277  23.958   4.942
72749ION    NA+45174  21.802  24.140   2.806
72750ION    NA+45175  28.627   8.981  10.122
72751ION    NA+45176  21.096  23.939  10.682
72752ION    NA+45177   1.123  17.591   4.572
72753ION    NA+45178  25.266  10.708   1.224
72754ION    NA+45179  28.893   3.867   2.738
72755ION    NA+45180  16.382  15.452   3.051
72756ION    NA+45181   4.988  44.656   0.919
72757ION    NA+45182   0.736  30.773   9.929
72758ION    NA+45183  22.172  10.983   5.369
72759ION    NA+45184  19.067  36.934  11.600
72760ION    NA+45185   4.816  38.071  12.540
72761ION    NA+45186  25.717  21.161  13.705
72762ION    NA+45187  20.029  17.319  11.288
72763ION    NA+45188  19.328  14.974   3.045
72764ION    NA+45189  17.371  41.378  12.389
72765ION    NA+45190  35.460  36.147   2.345
72766ION    NA+45191   1.649  16.930   3.719
72767ION    NA+45192   8.467  27.212   4.591
72768ION    NA+45193   1.093  26.720   1.038
72769ION    NA+45194  18.448  43.708  11.101
72770ION    NA+45195  23.564  37.751   1.746
72771ION    NA+45196  12.537  38.661  13.233
72772ION    NA+45197   0.569  26.875  11.435
72773ION    NA+45198  10.780  14.806  12.945
72774ION    NA+45199  33.989   2.211   4.630
72775ION    NA+45200  34.997  16.423   4.419
72776ION    NA+45201  39.978  15.263   1.287
72777ION    NA+45202  37.449   1.188   0.353
72778ION    NA+45203  41.654   4.447   3.050
72779ION    NA+45204   9.638  43.483  12.609
72780ION    NA+45205  10.344  44.891  10.789
72781ION    NA+45206   1.192  17.231  11.461
72782ION    NA+45207  36.811  18.042  14.764
72783ION    NA+45208  20.015  10.815  14.017
72784ION    NA+45209   8.712  12.354  10.600
72785ION    NA+45210  43.790   6.054  11.605
72786ION    NA+45211  36.081   6.712   2.802
72787ION    NA+45212  13.193   4.613  12.340
72788ION    NA+45213  30.335   0.201  13.690
72789ION    NA+45214  23.892   3.028  10.859
72790ION    NA+45215  23.604   9.789   4.436
72791ION    NA+45216  26.683   6.957   3.964
72792ION    NA+45217  21.973  25.630  12.078
72793ION    NA+45218   1.786  37.698  12.145
72794ION    NA+45219  30.419  10.387  10.364
72795ION    NA+45220  36.708   6.679  12.557
72796ION    NA+45221  35.892   4.048   4.343
72797ION    NA+45222   0.610   6.867   2.737
72798ION    NA+45223  39.466   7.136   1.284
72799ION    NA+45224  41.711  33.551  14.445
72800ION    NA+45225  31.709  33.001   1.848
72801ION    NA+45226  21.292  33.533   3.710
72802ION    NA+45227  38.530  31.441  14.974
72803ION    NA+45228   7.197   0.672  10.844
72804ION    NA+45229  28.817  31.242  14.331
72805ION    NA+45230  34.118   4.840   0.926
72806ION    NA+45231  25.596  19.501  12.470
72807ION    NA+45232  33.410  31.154   1.949
72808ION    NA+45233  43.272   0.851   0.893
72809ION    NA+45234  43.409   1.127  11.223
72810ION    NA+45235   3.332   4.981  13.464
72811ION    NA+45236  12.767   4.651   1.228
72812ION    NA+45237   4.563  25.661   3.970
72813ION    NA+45238   0.948  32.741  13.369
72814ION    NA+45239  42.834   1.217  12.037
72815ION    NA+45240  25.375  27.648   2.827
72816ION    NA+45241  41.195  15.792  11.311
72817ION    NA+45242  34.566  44.421   4.531
72818ION    NA+45243  18.833   3.617   1.931
72819ION    NA+45244   2.935  44.604   4.610
72820ION    NA+45245  24.336   3.260   3.651
72821ION    NA+45246  10.590  37.637  10.146
72822ION    NA+45247  29.765  23.485  14.467
72823ION    NA+45248   3.724  26.548   3.082
72824ION    NA+45249  40.578   7.975  13.137
72825ION    NA+45250   7.246  41.615  14.522
72826ION    NA+45251   7.645  21.089  14.853
72827ION    NA+45252  44.576  20.523   2.995
72828ION    NA+45253  38.014  33.040   2.857
72829ION    NA+45254   9.516  28.904   3.635
72830ION    NA+45255   6.400  19.445  14.200
72831ION    NA+45256  17.561  36.663   2.821
72832ION    NA+45257  31.995  33.117  10.733
72833ION    NA+45258  19.479  37.021   0.808
72834ION    NA+45259  14.356  41.384  13.383
72835ION    NA+45260  44.398  33.862  14.655
72836ION    NA+45261  40.487  10.247   9.603
72837ION    NA+45262  36.783  29.980   4.746
72838ION    NA+45263  23.872   1.324  14.800
72839ION    NA+45264  12.024   1.439   3.392
72840ION    NA+45265   2.200  42.074   3.672
72841ION    NA+45266  41.441  25.058  11.330
72842ION    NA+45267  17.696   2.980   0.729
72843ION    NA+45268  33.129  30.078   2.611
72844ION    NA+45269   1.594   3.186   3.972
72845ION    NA+45270  20.678   5.943  10.990
72846ION    NA+45271  30.170  33.390  11.341
72847ION    NA+45272  33.086  19.181  12.942
72848ION    NA+45273  10.831  41.914   2.490
72849ION    NA+45274  43.787  14.650  12.836
72850ION    NA+45275  27.104  26.618  14.838
72851ION    NA+45276  25.062  28.578  14.130
72852ION    NA+45277  12.662  21.293  11.128
72853ION    NA+45278  27.370  15.929   3.710
72854ION    NA+45279  25.296  20.112   1.933
72855ION    NA+45280   6.892  40.752  14.053
72856ION    NA+45281  23.463  16.945  11.042
72857ION    NA+45282  24.067  26.736   3.695
72858ION    NA+45283  21.495  34.758  11.970
72859ION    NA+45284  31.973   0.624   0.326
72860ION    NA+45285  31.088  33.847  13.668
72861ION    NA+45286   8.528  37.914  12.556
72862ION    NA+45287  20.127  15.398   2.263
72863ION    NA+45288   8.847  23.377   4.909
72864ION    NA+45289  11.292  22.063   3.725
72865ION    NA+45290  37.384   6.155   2.469
72866ION    NA+45291  25.316   2.849  10.359
72867ION    NA+45292   2.935  19.526   3.325
72868ION    NA+45293   4.049   4.950  12.094
72869ION    NA+45294  38.406  27.021   3.980
72870ION    NA+45295   6.806  44.720   4.078
72871ION    NA+45296   4.817   6.979  14.308
72872ION    NA+45297  25.218  23.507  14.843
72873ION    NA+45298  10.415  12.617   2.598
72874ION    NA+45299  14.655  40.592   2.861
72875ION    NA+45300  14.139  24.651   5.625
72876ION    NA+45301  38.005  28.174   3.893
72877ION    NA+45302  11.905  20.317  11.518
72878ION    NA+45303  35.378  22.780   2.824
72879ION    NA+45304   4.211  13.366  14.716
72880ION    NA+45305   2.974  38.010  14.966
72881ION    NA+45306  22.440  30.568   3.234
72882ION    NA+45307  20.047  30.945  14.361
72883ION    NA+45308  34.385  34.062  12.834
72884ION    NA+45309  17.135  19.426   5.215
72885ION    NA+45310  21.310  11.555  11.486
72886ION    NA+45311  14.341  21.253   2.850
72887ION    NA+45312  14.364   4.950   3.754
72888ION    NA+45313  24.084  44.321   0.488
72889ION    NA+45314  37.999  15.672   4.002
72890ION    NA+45315   4.705  16.333   2.317
72891ION    NA+45316  28.997   3.386   9.974
72892ION    NA+45317  36.836  38.435  13.753
72893ION    NA+45318  39.973   2.943   1.056
72894ION    NA+45319  40.769  12.750   0.438
72895ION    NA+45320   6.284  40.579   2.785
72896ION    NA+45321  23.143   7.070  14.394
72897ION    NA+45322  33.735  17.158   3.008
72898ION    NA+45323   8.022   3.946   4.850
72899ION    NA+45324  33.686  11.444  14.937
72900ION    NA+45325  36.317  24.812   4.599
72901ION    NA+45326  39.422  23.105  14.703
72902ION    NA+45327  10.283   4.721  13.498
72903ION    NA+45328  12.483   9.545  11.175
72904ION    NA+45329  16.101  18.901  12.393
72905ION    NA+45330   6.562  14.425  13.828
72906ION    NA+45331   3.882  40.015   4.101
72907ION    NA+45332  14.971  31.668   4.609
72908ION    NA+45333  32.020   9.382  11.770
72909ION    NA+45334  42.337  42.552   3.802
72910ION    NA+45335   9.044   8.809  10.984
72911ION    NA+45336   1.852  12.829  14.621
72912ION    NA+45337   4.645  35.547   5.096
72913ION    NA+45338   3.728  10.310   1.327
72914ION    NA+45339  30.699  25.661  13.430
72915ION    NA+45340   1.592   0.696   0.183
72916ION    NA+45341  42.955  36.438  13.305
72917ION    NA+45342  25.139  10.375   2.810
72918ION    NA+45343  12.535  17.051   3.627
72919ION    NA+45344  33.455  27.234   4.518
72920ION    NA+45345  25.326   7.329  11.968
72921ION    NA+45346  29.155  34.111   4.454
72922ION    NA+45347  21.402  40.564  13.768
72923ION    NA+45348  40.877  21.137   2.733
72924ION    NA+45349   7.885   4.957   1.856
72925ION    NA+45350   5.217  39.801   0.035
72926ION    NA+45351  29.519  35.797   4.100
72927ION    NA+45352  29.203  44.604  13.275
72928ION    NA+45353  33.075   4.730  14.182
72929ION    NA+45354  37.619  26.550  10.925
72930ION    NA+45355  30.605  19.213   2.306
72931ION    NA+45356  36.357   2.193   2.190
72932ION    NA+45357  27.963  31.366  12.544
72933ION    NA+45358  29.086   4.357   0.411
72934ION    NA+45359  27.894  43.175   0.761
72935ION    NA+45360  28.082   3.252   0.443
72936ION    NA+45361  31.545  21.699   4.157
72937ION    NA+45362  37.919  35.376   5.048
72938ION    NA+45363  40.775  32.383   2.619
72939ION    NA+45364  32.116  39.911   1.318
72940ION    NA+45365   1.389  34.337   1.352
72941ION    NA+45366  24.485  15.597  11.957
72942ION    NA+45367   0.298  43.933  12.335
72943ION    NA+45368  35.695  25.009  13.691
72944ION    NA+45369  27.017  40.514  11.452
72945ION    NA+45370  41.634   5.802   4.592
72946ION    NA+45371  15.972  44.123  11.209
72947ION    NA+45372  21.265  34.592  12.745
72948ION    NA+45373  24.242  31.324   2.244
72949ION    NA+45374  14.644   6.388  11.396
72950ION    NA+45375  32.862  34.884   1.719
72951ION    NA+45376   1.658  21.256  12.938
72952ION    NA+45377  12.982   1.841  12.018
72953ION    NA+45378  27.076  14.132   3.229
72954ION    NA+45379  22.766   9.445  12.403
72955ION    NA+45380  41.982  39.150  12.005
72956ION    NA+45381  42.480  38.401   0.783
72957ION    NA+45382  12.597  37.020   1.219
72958ION    NA+45383  11.409  40.155   0.977
72959ION    NA+45384  17.336  41.113  13.263
72960ION    NA+45385  17.098  22.929  11.060
72961ION    NA+45386  32.597  11.772   3.549
72962ION    NA+45387  21.928  35.593   0.947
72963ION    NA+45388   7.178  18.815  13.867
72964ION    NA+45389   4.816  18.854   4.486
72965ION    NA+45390  43.016   7.390   2.267
72966ION    NA+45391  28.671  37.417   2.600
72967ION    NA+45392   8.819  41.730   3.223
72968ION    NA+45393  17.730   9.853   3.329
72969ION    NA+45394   4.840  18.619  13.423
72970ION    NA+45395  11.139  43.076  10.401
72971ION    NA+45396   8.723  32.718  12.046
72972ION    NA+45397  13.368   2.274  10.969
72973ION    NA+45398  40.008  27.222  14.858
72974ION    NA+45399  35.367  10.618   0.257
72975ION    NA+45400  12.686  11.119  14.853
72976ION    NA+45401  42.865  12.659  12.649
72977ION    NA+45402  22.070  42.762   1.204
72978ION    NA+45403  19.268  10.633  11.213
72979ION    NA+45404  15.761  41.722  13.288
72980ION    NA+45405  32.506  38.969   2.459
72981ION    NA+45406  39.925   8.917  13.344
72982ION    NA+45407  44.482  12.219   5.056
72983ION    NA+45408  26.553   6.817   5.483
72984ION    NA+45409   7.919  11.322   1.432
72985ION    NA+45410   0.947  27.576  12.152
72986ION    NA+45411  41.050  25.214  12.237
72987ION    NA+45412  25.143   3.451   2.201
72988ION    NA+45413  20.655  19.088  12.094
72989ION    NA+45414   9.374  29.067  12.440
72990ION    NA+45415  28.581  27.003  13.855
72991ION    NA+45416  32.666  31.884  13.983
72992ION    NA+45417  33.203  40.409   0.010
72993ION    NA+45418   7.453  24.667   2.790
72994ION    NA+45419   8.862  17.804  11.177
72995ION    NA+45420  15.392  15.524  12.063
72996ION    NA+45421  25.883  31.618  12.464
72997ION    NA+45422  12.663   8.001   0.106
72998ION    NA+45423  31.250  24.677  12.476
72999ION    NA+45424  21.523  23.568   1.288
73000ION    NA+45425  37.655  26.997  14.988
73001ION    NA+45426  40.588  42.036   3.838
73002ION    NA+45427  12.342  40.283   3.637
73003ION    NA+45428  18.769  42.241  14.412
73004ION    NA+45429  17.012   8.732  12.596
73005ION    NA+45430  15.759  22.066  14.445
73006ION    NA+45431  30.241  29.388  14.431
73007ION    NA+45432  26.435  15.575   3.720
73008ION    NA+45433  15.510  33.614   0.845
73009ION    NA+45434   6.234  12.274   2.152
73010ION    NA+45435  26.880  34.404  10.958
73011ION    NA+45436  26.252  43.621   4.909
73012ION    NA+45437  17.727  20.668   4.271
73013ION    NA+45438  14.716  15.712   2.545
73014ION    NA+45439  17.289  22.402  14.816
73015ION    NA+45440   3.153  34.040  12.084
73016ION    NA+45441  35.848  13.192  11.651
73017ION    NA+45442   1.835  33.353   2.365
73018ION    NA+45443  39.490  20.520   1.747
73019ION    NA+45444  34.683  38.533  14.430
73020ION    NA+45445  14.900  31.160  10.780
73021ION    NA+45446  28.346  37.904  13.966
73022ION    NA+45447  28.896  19.700  10.733
73023ION    NA+45448  44.714  29.654  14.064
73024ION    NA+45449   8.960  29.772  11.864
73025ION    NA+45450  31.103  11.161  12.076
73026ION    NA+45451   6.125  32.658  14.156
73027ION    NA+45452  13.673  21.341   1.775
73028ION    NA+45453  36.359  19.732  10.850
73029ION    NA+45454  35.624  18.087   0.198
73030ION    NA+45455  42.774   2.675  11.083
73031ION    NA+45456   3.335   0.985  11.156
73032ION    NA+45457  35.582  33.364   0.391
73033ION    NA+45458   7.279  19.106   2.841
73034ION    NA+45459   9.711  17.635  11.679
73035ION    NA+45460  34.080  10.596   4.672
73036ION    NA+45461  44.059  41.224  11.219
73037ION    NA+45462  40.278  25.216  13.499
73038ION    NA+45463  43.206  15.172   2.719
73039ION    NA+45464  16.951   3.992   0.500
73040ION    NA+45465  38.501  43.434   3.052
73041ION    NA+45466  41.564  15.173  12.062
73042ION    NA+45467   8.836  44.247   2.388
73043ION    NA+45468  25.643   9.861   4.379
73044ION    NA+45469  13.253  30.847  14.625
73045ION    NA+45470  39.055  17.175   9.851
73046ION    NA+45471  20.852  15.494   4.134
73047ION    NA+45472  15.846  44.089  12.350
73048ION    NA+45473  28.654  36.972   1.835
73049ION    NA+45474  14.304  41.586   2.525
73050ION    NA+45475   5.422  16.098  14.933
73051ION    NA+45476   4.329   9.267  10.582
73052ION    NA+45477  35.844   8.535   3.133
73053ION    NA+45478  11.146  31.212  13.401
73054ION    NA+45479  18.650   2.275   0.297
73055ION    NA+45480  41.863  25.076  12.842
73056ION    NA+45481  41.136  16.918  11.103
73057ION    NA+45482  27.869   2.521   0.145
73058ION    NA+45483  35.969   5.068   4.521
73059ION    NA+45484  20.177   3.271  11.095
73060ION    NA+45485  37.033   4.810   1.661
73061ION    NA+45486  44.933  39.646  14.728
73062ION    NA+45487  44.611   1.192   1.545
73063ION    NA+45488  27.192  12.691   1.772
73064ION    NA+45489  26.441  27.204  14.256
73065ION    NA+45490   2.364   5.631  11.717
73066ION    NA+45491   0.952   4.146  12.485
73067ION    NA+45492  14.344  28.369   4.641
73068ION    NA+45493   0.940   5.892   1.928
73069ION    NA+45494  41.155  40.065   2.441
73070ION    NA+45495   0.719  13.837   3.795
73071ION    NA+45496  15.895   8.146  11.135
73072ION    NA+45497  35.756  33.583   1.941
73073ION    NA+45498   4.789  40.770   3.323
73074ION    NA+45499  22.847  25.654   3.762
73075ION    NA+45500   7.281   7.857   0.008
73076ION    NA+45501  44.224  34.290   5.180
73077ION    NA+45502  10.818  39.143  11.533
73078ION    NA+45503  12.874   1.347  10.332
73079ION    NA+45504  36.327  41.657  11.765
73080ION    NA+45505  22.527  38.045  13.283
73081ION    NA+45506  22.532  17.976   3.132
73082ION    NA+45507  28.600  14.884   4.576
73083ION    NA+45508  32.844  30.914  13.028
73084ION    NA+45509  17.196  40.531   4.382
73085ION    NA+45510  31.065   5.593  12.703
73086ION    NA+45511  12.635  26.517  12.489
73087ION    NA+45512  37.857  14.867   1.289
73088ION    NA+45513  36.187  12.885  14.482
73089ION    NA+45514   5.842   4.641  14.502
73090ION    NA+45515  30.960   1.956  11.615
73091ION    NA+45516  41.444  38.384  10.920
73092ION    NA+45517  11.982  18.764  14.458
73093ION    NA+45518  19.990  14.392  10.663
73094ION    NA+45519   2.787  25.594   4.804
73095ION    NA+45520  17.136  20.689   1.667
73096ION    NA+45521  40.815  42.892  11.647
73097ION    NA+45522  22.388  13.641  13.336
73098ION    NA+45523  16.851  16.471   0.473
73099ION    NA+45524  15.425  38.170  14.093
73100ION    NA+45525   5.537   1.651  12.995
73101ION    NA+45526   9.439   8.607  14.701
73102ION    NA+45527  28.140  14.220  11.523
73103ION    NA+45528   4.584  34.865  13.359
73104ION    NA+45529  41.324  37.712   9.695
73105ION    NA+45530   7.626   0.204  14.870
73106ION    NA+45531   8.406   1.007   2.184
73107ION    NA+45532  44.022  14.694  11.665
73108ION    NA+45533  38.169  44.892   0.758
73109ION    NA+45534  12.163  14.591  13.157
73110ION    NA+45535  26.451  20.671  13.482
73111ION    NA+45536  18.020  11.696   3.018
73112ION    NA+45537  16.542  41.822  11.130
73113ION    NA+45538  21.019  33.495   1.063
73114ION    NA+45539   8.190  35.159   2.123
73115ION    NA+45540  36.882  38.319   1.226
73116ION    NA+45541  36.960   5.766   1.250
73117ION    NA+45542  10.100  44.243   4.192
73118ION    NA+45543  11.358  42.674  13.650
73119ION    NA+45544  26.963  18.981  10.975
73120ION    NA+45545  28.570  21.455  14.877
73121ION    NA+45546  13.877  33.057   2.788
73122ION    NA+45547  12.912  28.604  10.719
73123ION    NA+45548  23.548  24.758  13.322
73124ION    NA+45549  42.310  28.001  12.714
73125ION    NA+45550  21.734  26.813   3.494
73126ION    NA+45551  44.124  43.064   0.127
73127ION    NA+45552  13.447  26.320  12.876
73128ION    NA+45553  32.076   8.676   0.363
73129ION    NA+45554  38.181  43.210  12.370
73130ION    NA+45555  13.850   9.927   1.826
73131ION    NA+45556  31.574   3.107  13.102
73132ION    NA+45557  25.219   1.679  11.569
73133ION    NA+45558  20.289  14.625   4.170
73134ION    NA+45559   0.025  26.376  12.135
73135ION    NA+45560   5.136  19.515  14.904
73136ION    NA+45561  21.664  44.216  13.870
73137ION    NA+45562   8.968  22.492   1.493
73138ION    NA+45563   7.697  37.274  10.753
73139ION    NA+45564  35.748  26.483   0.289
73140ION    NA+45565  11.570   2.306  13.077
73141ION    NA+45566  20.568  25.852   4.677
73142ION    NA+45567  21.144  30.807  12.161
73143ION    NA+45568  37.211  21.375  11.365
73144ION    NA+45569  18.805   2.705  10.681
73145ION    NA+45570  36.462  24.702   1.286
73146ION    NA+45571  28.122   3.093  14.601
73147ION    NA+45572  13.251  39.265   0.365
73148ION    NA+45573   5.579  35.378  11.134
73149ION    NA+45574  37.798  24.378  12.639
73150ION    NA+45575   2.908   3.157   0.484
73151ION    NA+45576  24.745   1.245   1.949
73152ION    NA+45577  21.489  41.844   0.418
73153ION    NA+45578  34.389   3.651   4.763
73154ION    NA+45579   5.627  29.625   4.918
73155ION    NA+45580  17.736  30.391  14.408
73156ION    NA+45581  21.303  23.644  13.379
73157ION    NA+45582  11.381  27.962   2.805
73158ION    NA+45583  13.875  13.992  10.795
73159ION    NA+45584  17.134  27.921   2.709
73160ION    NA+45585   1.735   6.805   0.892
73161ION    NA+45586  19.467   8.676   0.134
73162ION    NA+45587   9.782  28.309  12.948
73163ION    NA+45588  14.129  20.601  11.101
73164ION    NA+45589  32.999  14.050  14.042
73165ION    NA+45590  42.834  38.877  14.473
73166ION    NA+45591   4.816  24.768   2.948
73167ION    NA+45592  16.627  11.380  12.379
73168ION    NA+45593  39.677  23.302   4.136
73169ION    NA+45594  31.512   8.670   0.983
73170ION    NA+45595   8.772   1.723   2.622
73171ION    NA+45596   0.925  36.289  11.672
73172ION    NA+45597   2.174  22.181  13.493
73173ION    NA+45598  29.774  35.342   1.048
73174ION    NA+45599  43.548  42.300   0.763
73175ION    NA+45600  19.548  22.641   2.412
73176ION    NA+45601   5.111   6.529   4.853
73177ION    NA+45602  24.511  13.717   0.355
73178ION    NA+45603  39.582  13.136  10.299
73179ION    NA+45604   2.771  27.646   1.490
73180ION    NA+45605  34.409  13.641  11.824
73181ION    NA+45606  19.155  29.546  10.545
73182ION    NA+45607  27.744  20.905  14.662
73183ION    NA+45608   9.802  14.101  11.363
73184ION    NA+45609  37.967   7.174   1.773
73185ION    NA+45610  28.273   7.487  10.742
73186ION    NA+45611  28.695  34.882  12.063
73187ION    NA+45612   9.718  40.349  13.386
73188ION    NA+45613  29.245  13.602  14.390
73189ION    NA+45614  22.471   5.278   2.520
73190ION    NA+45615  19.916  10.516  12.411
73191ION    NA+45616  43.888  39.608   0.329
73192ION    NA+45617  36.366  10.815   0.811
73193ION    NA+45618  35.757  17.462  11.951
73194ION    NA+45619  33.562  11.691  12.138
73195ION    NA+45620  32.059  29.922   1.948
73196ION    NA+45621  26.597  38.271  14.250
73197ION    NA+45622  15.516  13.921  12.151
73198ION    NA+45623  35.817  39.233   0.293
73199ION    NA+45624   6.009  32.047  14.940
73200ION    NA+45625  24.286  17.547   2.655
73201ION    NA+45626   4.974  42.975   0.013
73202ION    NA+45627  27.279  34.903   3.399
73203ION    NA+45628  28.113  28.750   2.331
73204ION    NA+45629   4.712  28.568   2.531
73205ION    NA+45630  39.533  21.852   1.413
73206ION    NA+45631  13.373  12.047   1.752
73207ION    NA+45632  36.483  19.117   4.535
73208ION    NA+45633  24.446  21.876  13.298
73209ION    NA+45634  36.023   9.560   4.072
73210ION    NA+45635  27.191   9.028   1.758
73211ION    NA+45636  13.408  16.337  11.178
73212ION    NA+45637  20.737  35.617  14.278
73213ION    NA+45638   6.876  26.654   2.789
73214ION    NA+45639  21.192   6.228   3.125
73215ION    NA+45640  14.815   7.955   1.080
73216ION    NA+45641  43.750  28.065  12.615
73217ION    NA+45642  42.859  43.904  10.689
73218ION    NA+45643  38.874  12.652   0.252
73219ION    NA+45644  11.315  19.506   3.443
73220ION    NA+45645  17.574  12.466   2.832
73221ION    NA+45646   4.920  14.413  10.520
73222ION    NA+45647  39.831  14.482  13.624
73223ION    NA+45648  15.418  22.969  13.105
73224ION    NA+45649  37.656  28.647  13.144
73225ION    NA+45650   9.806   7.112  12.448
73226ION    NA+45651  35.795  17.237   4.220
73227ION    NA+45652  35.658   9.884  14.497
73228ION    NA+45653   5.221  44.320  11.933
73229ION    NA+45654   8.833  42.393  14.477
73230ION    NA+45655   0.601  22.580  14.171
73231ION    NA+45656   8.753  17.324   3.263
73232ION    NA+45657  40.966  18.653   3.699
73233ION    NA+45658  28.368  15.647  10.695
73234ION    NA+45659   2.365  26.083  12.437
73235ION    NA+45660  42.975   8.896  14.552
73236ION    NA+45661  11.129  11.398  13.973
73237ION    NA+45662   0.775  41.144   1.309
73238ION    NA+45663   6.911  43.105   3.925
73239ION    NA+45664   0.880  13.340   2.909
73240ION    NA+45665  30.528  23.080   0.824
73241ION    NA+45666  36.482  23.562   1.128
73242ION    NA+45667   1.784  33.732   4.116
73243ION    NA+45668   4.484  31.673   3.517
73244ION    NA+45669  13.542  25.116  13.963
73245ION    NA+45670  39.921  31.892  12.029
73246ION    NA+45671  16.999   4.517   4.764
73247ION    NA+45672  24.230  31.708  12.031
73248ION    NA+45673  21.405  34.140  14.025
73249ION    NA+45674   8.379  12.933  11.653
73250ION    NA+45675  18.788  20.073   1.964
73251ION    NA+45676  21.692  12.350   4.732
73252ION    NA+45677  41.623  42.762   0.893
73253ION    NA+45678  24.637  40.829   0.001
73254ION    NA+45679  34.095  28.704  13.989
73255ION    NA+45680  41.837  37.596  14.747
73256ION    NA+45681  23.021   5.068   0.401
73257ION    NA+45682  17.681  33.640   1.211
73258ION    NA+45683  29.645   9.367   3.281
73259ION    NA+45684   4.773  23.357  11.090
73260ION    NA+45685  30.125   4.336   0.392
73261ION    NA+45686   5.238  31.810  14.321
73262ION    NA+45687  17.843  37.044  14.936
73263ION    NA+45688  20.046  38.150   2.463
73264ION    NA+45689  43.600  28.644   1.955
73265ION    NA+45690  15.562  19.804  12.680
73266ION    NA+45691  44.498   3.773   0.863
73267ION    NA+45692  13.682  34.156  10.562
73268ION    NA+45693  15.135  24.473  11.532
73269ION    NA+45694  16.328  21.337  11.444
73270ION    NA+45695   3.731  24.587   2.355
73271ION    NA+45696  36.053   7.606  11.932
73272ION    NA+45697   6.021  22.212   1.677
73273ION    NA+45698   7.162  42.468  13.439
73274ION    NA+45699  11.873  19.383  13.635
73275ION    NA+45700   7.621  42.398   0.904
73276ION    NA+45701  30.332  14.283  11.210
73277ION    NA+45702  11.709   0.568  12.024
73278ION    NA+45703  10.283  35.493  14.862
73279ION    NA+45704  24.946  39.824   0.364
73280ION    NA+45705  41.631  34.079   0.347
73281ION    NA+45706   6.412   1.028  12.529
73282ION    NA+45707   9.584  15.818  11.908
73283ION    NA+45708  24.251  23.761  10.687
73284ION    NA+45709   9.793  33.406   0.382
73285ION    NA+45710  33.031  35.109  14.213
73286ION    NA+45711  44.187  21.283  10.937
73287ION    NA+45712  28.491  14.256  14.334
73288ION    NA+45713  38.621   7.085   3.816
73289ION    NA+45714  31.643  23.992   0.928
73290ION    NA+45715  23.591  19.057   4.573
73291ION    NA+45716   0.723  30.012   0.991
73292ION    NA+45717   6.317  34.461  14.910
73293ION    NA+45718  10.380  36.979  12.864
73294ION    NA+45719  32.621  24.740   4.001
73295ION    NA+45720  38.876   6.977  10.309
73296ION    NA+45721  14.019  28.508   1.064
73297ION    NA+45722   0.552  38.877   2.931
73298ION    NA+45723   6.723  29.943   2.659
73299ION    NA+45724  11.037  35.158  14.786
73300ION    NA+45725  44.043  13.784   2.347
73301ION    NA+45726  24.027  15.025   4.307
73302ION    NA+45727  11.197  30.641  14.220
73303ION    NA+45728  31.992  40.384  14.428
73304ION    NA+45729  43.342  25.405   4.610
73305ION    NA+45730  36.339  26.275  12.115
73306ION    NA+45731  33.145  21.645  14.530
73307ION    NA+45732  41.505   1.414   4.778
73308ION    NA+45733  38.605  24.986   1.466
73309ION    NA+45734  40.317  33.948  13.573
73310ION    NA+45735  10.401  25.623  13.430
73311ION    NA+45736  40.220  14.044   1.485
73312ION    NA+45737  12.131  39.298  12.791
73313ION    NA+45738  33.476  27.892   3.057
73314ION    NA+45739   1.399  44.520  11.639
73315ION    NA+45740  21.863   0.676  11.130
73316ION    NA+45741  32.775  39.821   0.547
73317ION    NA+45742   9.834  25.608  12.387
73318ION    NA+45743  19.442  16.932   1.237
73319ION    NA+45744  38.387  11.364  12.597
73320ION    NA+45745  13.116  28.048   1.048
73321ION    NA+45746  41.444  30.467  12.417
73322ION    NA+45747  36.652  36.483   3.943
73323ION    NA+45748  37.824  30.144  12.931
73324ION    NA+45749   6.983  14.900   4.178
73325ION    NA+45750  14.821  30.857  13.056
73326ION    NA+45751  13.920  11.391  10.946
73327ION    NA+45752  23.033  31.183   3.754
73328ION    NA+45753   8.108   5.980  10.494
73329ION    NA+45754  20.668  15.518  14.664
73330ION    NA+45755  21.242  16.867  12.337
73331ION    NA+45756  30.643  15.755  12.234
73332ION    NA+45757  39.645  34.902  12.699
73333ION    NA+45758   8.690   1.114   4.195
73334ION    NA+45759  11.563  12.132  11.706
73335ION    NA+45760  12.134  21.933   5.380
73336ION    NA+45761  33.652   9.712  11.315
73337ION    NA+45762  36.825  20.328  14.873
73338ION    NA+45763  33.353  26.450   2.812
73339ION    NA+45764  33.656  39.268  11.586
73340ION    NA+45765  13.187  38.758  11.119
73341ION    NA+45766  18.995  22.620  12.487
73342ION    NA+45767   5.265  36.464   1.681
73343ION    NA+45768  44.361   4.675  11.996
73344ION    NA+45769  38.721   6.049   3.831
73345ION    NA+45770  43.149  39.039   4.717
73346ION    NA+45771  26.141  38.530   1.024
73347ION    NA+45772  15.187  13.965   4.385
73348ION    NA+45773  42.559   1.681  11.194
73349ION    NA+45774  22.583   5.344   4.310
73350ION    NA+45775   7.993  34.337  10.244
73351ION    NA+45776  14.987   1.265   3.552
73352ION    NA+45777  28.081  16.597   2.505
73353ION    NA+45778  41.151  10.352   2.203
73354ION    NA+45779  26.241   6.263   1.129
73355ION    NA+45780  16.946  12.681   0.000
73356ION    NA+45781  30.853  34.627   1.355
73357ION    NA+45782   0.231  10.291  12.107
73358ION    NA+45783  44.870  25.478   4.496
73359ION    NA+45784  30.961   2.378  14.257
73360ION    NA+45785  32.205   2.611  12.218
73361ION    NA+45786  42.142  41.010   4.705
73362ION    NA+45787  33.917   5.311  14.934
73363ION    NA+45788   7.168  11.275   0.772
73364ION    NA+45789   2.072  11.300  14.248
73365ION    NA+45790  42.383   1.377  10.359
73366ION    NA+45791  16.632  37.615  10.551
73367ION    NA+45792   6.853  37.412   3.378
73368ION    NA+45793  28.899  21.369  10.601
73369ION    NA+45794   3.820  44.007  10.502
73370ION    NA+45795  15.046   6.734  14.346
73371ION    NA+45796  22.314  23.716   0.693
73372ION    NA+45797  38.203  34.910   0.402
73373ION    NA+45798  37.304  15.816   4.716
73374ION    NA+45799  19.706  32.714   0.325
73375ION    NA+45800   3.905  38.528  11.782
73376ION    NA+45801   6.287  33.849  13.196
73377ION    NA+45802  10.210   6.315   0.042
73378ION    NA+45803  30.512  33.638   1.598
73379ION    NA+45804  24.292  18.239   1.217
73380ION    NA+45805   4.998  15.426   1.097
73381ION    NA+45806  26.145  30.465   2.832
73382ION    NA+45807  23.945   8.388  10.968
73383ION    NA+45808  42.516  26.001   3.745
73384ION    NA+45809  22.215  19.166   2.049
73385ION    NA+45810  35.188  28.558  14.676
73386ION    NA+45811  24.916  15.095  14.996
73387ION    NA+45812   7.091  42.541  11.676
73388ION    NA+45813  29.082  38.889  14.951
73389ION    NA+45814  42.762  23.680   2.742
73390ION    NA+45815  16.646  23.787  13.889
73391ION    NA+45816  41.983   6.802  11.814
73392ION    NA+45817  11.842   3.772   1.922
73393ION    NA+45818   4.355  22.507  12.111
73394ION    NA+45819  35.543   0.601   0.427
73395ION    NA+45820  19.927  37.242  11.707
73396ION    NA+45821  23.126  37.298  11.544
73397ION    NA+45822  28.186  25.918  11.976
73398ION    NA+45823  43.902  19.530  12.880
73399ION    NA+45824  44.930  35.703   3.543
73400ION    NA+45825   3.076  30.916   2.423
73401ION    NA+45826  39.803  20.802   3.237
73402ION    NA+45827  26.402  34.492   3.651
73403ION    NA+45828  38.090  32.132  11.591
73404ION    NA+45829   9.917  31.783   2.707
73405ION    NA+45830  43.028  31.422  11.583
73406ION    NA+45831  23.338  42.297  12.808
73407ION    NA+45832  20.046   6.007   2.381
73408ION    NA+45833   4.175  14.307  12.792
73409ION    NA+45834  37.269   0.824   1.990
73410ION    NA+45835  43.462   2.793   0.918
73411ION    NA+45836  40.108  30.054  14.511
73412ION    NA+45837  28.873   0.254   2.391
73413ION    NA+45838  17.497  18.532   1.862
73414ION    NA+45839   2.872  23.541  12.994
73415ION    NA+45840  43.548   2.705  13.472
73416ION    NA+45841   6.967  30.824  12.101
73417ION    NA+45842  18.784  28.466   3.623
73418ION    NA+45843  14.936  12.220   2.525
73419ION    NA+45844  25.387  10.189  14.354
73420ION    NA+45845   2.370  19.520  12.170
73421ION    NA+45846  27.117  37.836   3.464
73422ION    NA+45847  41.720  32.720   2.804
73423ION    NA+45848  44.824  31.366  12.294
73424ION    NA+45849   2.157  23.030   2.436
73425ION    NA+45850  26.581  13.156   0.324
73426ION    NA+45851  26.450   6.405   0.162
73427ION    NA+45852  42.133  42.008   1.665
73428ION    NA+45853   9.244  16.199   4.541
73429ION    NA+45854  15.702  10.409   1.768
73430ION    NA+45855   9.861  13.070  12.151
73431ION    NA+45856   8.019  29.362  11.879
73432ION    NA+45857  34.228  24.091  10.690
73433ION    NA+45858  27.834   4.009  14.323
73434ION    NA+45859  31.326  36.833  11.416
73435ION    NA+45860  28.217  16.747  10.268
73436ION    NA+45861  44.480  25.272   2.370
73437ION    NA+45862  21.473  28.951   3.150
73438ION    NA+45863  28.917   4.254  10.777
73439ION    NA+45864  38.706  41.423  10.980
73440ION    NA+45865  15.999  14.854  11.952
73441ION    NA+45866  44.101  33.522  11.642
73442ION    NA+45867   7.522  36.496   5.054
73443ION    NA+45868   3.486  44.549   3.176
73444ION    NA+45869  42.101  22.210   1.916
73445ION    NA+45870  23.650  27.685  13.277
73446ION    NA+45871  40.574  38.395   1.562
73447ION    NA+45872   3.400  15.102  12.086
73448ION    NA+45873  26.514   9.327  14.876
73449ION    NA+45874  39.388  43.609  14.998
73450ION    NA+45875   8.372  26.212   3.747
73451ION    NA+45876  38.834  23.986  10.705
73452ION    NA+45877  25.158  35.956   4.188
73453ION    NA+45878  21.724  12.844  14.110
73454ION    NA+45879  38.680  19.712   1.892
73455ION    NA+45880  17.646   0.565  13.751
73456ION    NA+45881  17.100  40.454   5.670
73457ION    NA+45882  39.646  36.542   0.235
73458ION    NA+45883  15.703  19.080   3.111
73459ION    NA+45884  11.221  18.570  11.095
73460ION    NA+45885  15.689  17.132  13.029
73461ION    NA+45886  24.786   3.400  14.005
73462ION    NA+45887  15.167  33.949   3.600
73463ION    NA+45888  43.782  18.313  14.500
73464ION    NA+45889  14.429  38.708  11.578
73465ION    NA+45890   2.849  17.808   1.183
73466ION    NA+45891  23.263  12.206   9.562
73467ION    NA+45892  19.005   7.433   3.665
73468ION    NA+45893  37.017   2.076   3.938
73469ION    NA+45894  19.772  30.949   3.342
73470ION    NA+45895  23.259   9.392  14.086
73471ION    NA+45896   7.638  18.339   2.309
73472ION    NA+45897  11.037  19.857  11.708
73473ION    NA+45898   4.031  35.499   0.627
73474ION    NA+45899   1.300   2.715   1.269
73475ION    NA+45900  21.274   3.297  11.228
73476ION    NA+45901  28.438  11.190  12.288
73477ION    NA+45902  29.931   9.792   0.409
73478ION    NA+45903  38.089  12.979  13.377
73479ION    NA+45904  19.312  10.575  14.742
73480ION    NA+45905  25.083   2.596   3.742
73481ION    NA+45906  15.356   1.564   1.975
73482ION    NA+45907  35.012  43.494  13.983
73483ION    NA+45908   1.201  13.685  10.959
73484ION    NA+45909  34.493  11.980  11.618
73485ION    NA+45910  30.762  39.554   4.789
73486ION    NA+45911   4.416  11.202   3.339
73487ION    NA+45912  27.421  40.848   1.660
73488ION    NA+45913  38.811   1.050  12.151
73489ION    NA+45914  15.081  32.192   2.030
73490ION    NA+45915  36.019  17.563   1.259
73491ION    NA+45916  17.918  40.785   3.739
73492ION    NA+45917  41.427  23.063   5.040
73493ION    NA+45918  12.539   8.372   1.483
73494ION    NA+45919  32.593  43.254  12.887
73495ION    NA+45920   0.087  30.823  14.965
73496ION    NA+45921  29.101  43.862   2.400
73497ION    NA+45922  14.810  14.798   3.709
73498ION    NA+45923   8.992  13.046  14.808
73499ION    NA+45924  33.902  27.430  11.165
73500ION    NA+45925  33.655  19.114   0.742
73501ION    NA+45926   8.537   4.866   5.034
73502ION    NA+45927   1.489  25.281   0.040
73503ION    NA+45928  44.000  12.256   1.936
73504ION    NA+45929  35.875  39.102   4.144
73505ION    NA+45930  29.863  20.732   0.684
73506ION    NA+45931   8.916  37.487  11.070
73507ION    NA+45932   5.945  36.506  14.858
73508ION    NA+45933  25.569  11.218   4.703
73509ION    NA+45934  22.118  31.987  14.965
73510ION    NA+45935  40.279  40.223   3.184
73511ION    NA+45936  32.130  22.756  11.974
73512ION    NA+45937  24.036  11.854   0.405
73513ION    NA+45938  44.670  40.892  12.699
73514ION    NA+45939  22.434  44.480  12.674
73515ION    NA+45940  25.539  43.277  13.475
73516ION    NA+45941  13.405   3.384  12.017
73517ION    NA+45942  12.864  24.233   2.448
73518ION    NA+45943  28.802  19.986   1.105
73519ION    NA+45944  37.550   0.744  11.050
73520ION    NA+45945  42.652   0.894   4.066
73521ION    NA+45946  19.205  14.556  13.030
73522ION    NA+45947  19.374  21.133   3.486
73523ION    NA+45948  12.520  33.887  13.385
73524ION    NA+45949  11.134  39.769   1.857
73525ION    NA+45950  37.063   2.953   4.173
73526ION    NA+45951  42.994  31.463   0.267
73527ION    NA+45952  41.162  36.921   0.045
73528ION    NA+45953  42.559  42.414   0.857
73529ION    NA+45954  11.424  21.192   3.879
73530ION    NA+45955  43.348   3.250   3.094
73531ION    NA+45956  18.831  13.907   2.245
73532ION    NA+45957  44.796   4.243   3.056
73533ION    NA+45958  15.219  35.416  11.671
73534ION    NA+45959  14.415  42.348  13.640
73535ION    NA+45960  30.280  39.394   0.497
73536ION    NA+45961  15.915  24.605  14.644
73537ION    NA+45962  37.375  23.901  13.274
73538ION    NA+45963  19.515  20.037  12.702
73539ION    NA+45964  44.379  24.077  10.762
73540ION    NA+45965   4.059  14.308   4.647
73541ION    NA+45966  44.886  40.135   4.383
73542ION    NA+45967  12.894  29.863  13.849
73543ION    NA+45968  38.792  14.372   3.478
73544ION    NA+45969  29.364  40.279  12.564
73545ION    NA+45970  41.238   2.765  11.189
73546ION    NA+45971   2.010  41.064  13.515
73547ION    NA+45972  23.667   9.812   1.276
73548ION    NA+45973  39.896  40.097  12.489
73549ION    NA+45974  28.895  13.522  11.075
73550ION    NA+45975  15.875  39.240   3.893
73551ION    NA+45976  17.150   5.790   3.947
73552ION    NA+45977   5.184   6.627  12.127
73553ION    NA+45978  15.487   7.491  14.167
73554ION    NA+45979   4.722  31.359  11.984
73555ION    NA+45980  11.647  21.958   2.258
73556ION    NA+45981  39.775  40.349   0.822
73557ION    NA+45982  31.169  22.950   4.234
73558ION    NA+45983  23.354  11.082  11.151
73559ION    NA+45984  26.859   5.003   0.925
73560ION    NA+45985  31.432  30.425   3.672
73561ION    NA+45986  10.032  41.739  10.678
73562ION    NA+45987  13.819  23.431   1.276
73563ION    NA+45988   3.498  43.724  13.002
73564ION    NA+45989  22.801  41.443   3.739
73565ION    NA+45990   5.007   3.892  13.736
73566ION    NA+45991  36.070  19.802   2.345
73567ION    NA+45992  16.259  18.201   0.987
73568ION    NA+45993  27.900  34.986   2.794
73569ION    NA+45994  17.823  31.668  13.989
73570ION    NA+45995  29.423   9.833  12.092
73571ION    NA+45996  20.469  26.466  11.177
73572ION    NA+45997  10.329   2.800   0.946
73573ION    NA+45998  41.788  28.915   3.320
73574ION    NA+45999  26.507  13.597  12.472
73575ION    NA+46000  43.257  25.466   3.615
73576ION    NA+46001   9.134  40.851   1.458
73577ION    NA+46002  32.013  34.044   0.776
73578ION    NA+46003  19.140   9.476   5.123
73579ION    NA+46004  22.038  22.530  12.430
73580ION    NA+46005  38.813  40.368   1.351
73581ION    NA+46006  42.987  22.706   1.663
73582ION    NA+46007   8.660   4.079  12.446
73583ION    NA+46008  18.223   0.844   0.064
73584ION    NA+46009  43.473   8.296   2.455
73585ION    NA+46010   8.222   9.463  14.752
73586ION    NA+46011  34.208   9.852  13.557
73587ION    NA+46012   4.487  18.950  14.636
73588ION    NA+46013  13.590   7.259   4.560
73589ION    NA+46014   6.823  21.599  14.600
73590ION    NA+46015   0.032  31.541  13.396
73591ION    NA+46016  15.509   5.804   4.018
73592ION    NA+46017  23.199  30.017   3.721
73593ION    NA+46018   9.758  27.942   3.767
73594ION    NA+46019  39.433  14.492   1.909
73595ION    NA+46020  11.077   8.133  10.014
73596ION    NA+46021  41.549  32.478   4.756
73597ION    NA+46022  20.262  27.945  12.162
73598ION    NA+46023  37.400  26.410   2.715
73599ION    NA+46024  38.698  42.384   2.789
73600ION    NA+46025  33.485   0.954   2.293
73601ION    NA+46026  43.019   6.135  14.704
73602ION    NA+46027   3.878  19.351   1.356
73603ION    NA+46028  21.566  32.854   0.524
73604ION    NA+46029   3.822  27.148  14.252
73605ION    NA+46030  13.143   2.957   2.618
73606ION    NA+46031   3.132  14.369   3.881
73607ION    NA+46032  38.411   2.560  10.718
73608ION    NA+46033  16.147  20.588   4.760
73609ION    NA+46034  24.407  20.311   2.345
73610ION    NA+46035  35.233  10.789   2.980
73611ION    NA+46036   3.249   7.498  14.293
73612ION    NA+46037   6.292   3.465   0.989
73613ION    NA+46038  30.511  15.675   0.525
73614ION    NA+46039   2.453   5.787   3.185
73615ION    NA+46040  32.306  31.722  12.786
73616ION    NA+46041  26.471  36.637  11.511
73617ION    NA+46042  39.577  39.299  12.205
73618ION    NA+46043  16.806  41.616  14.992
73619ION    NA+46044   2.939  31.190  12.926
73620ION    NA+46045  33.154  27.619  13.478
73621ION    NA+46046  34.611  32.053  12.961
73622ION    NA+46047  36.040  27.872   1.744
73623ION    NA+46048  25.025   9.564   3.164
73624ION    NA+46049  40.401  43.475  10.948
73625ION    NA+46050  40.409  13.810   4.155
73626ION    NA+46051  40.247  20.038  12.924
73627ION    NA+46052   5.207   4.710  13.845
73628ION    NA+46053  27.128   8.690   4.555
73629ION    NA+46054   7.083  24.176  11.379
73630ION    NA+46055  27.874  16.216  13.419
73631ION    NA+46056  21.486  27.177   4.392
73632ION    NA+46057  36.430  14.776  12.830
73633ION    NA+46058  10.634  35.065   0.607
73634ION    NA+46059   4.451   8.639   3.297
73635ION    NA+46060  42.659  36.363  12.353
73636ION    NA+46061  27.810  26.120   1.640
73637ION    NA+46062  42.307  39.998  11.459
73638ION    NA+46063  32.865  16.742   5.166
73639ION    NA+46064  28.309  44.131  13.231
73640ION    NA+46065   8.387  34.102   1.114
73641ION    NA+46066  23.971  20.319   4.543
73642ION    NA+46067   5.989  28.669  11.160
73643ION    NA+46068  18.920  23.726  11.562
73644ION    NA+46069  15.858  30.428  13.373
73645ION    NA+46070   1.608  41.849  13.649
73646ION    NA+46071  38.454  34.883  13.061
73647ION    NA+46072  19.654  40.873  12.662
73648ION    NA+46073  29.221  35.259   1.952
73649ION    NA+46074  30.094  30.404  12.912
73650ION    NA+46075  32.155   3.896  12.907
73651ION    NA+46076  36.761   3.338   5.045
73652ION    NA+46077  38.021  19.372  12.069
73653ION    NA+46078  40.577   9.533   2.586
73654ION    NA+46079  20.162  41.082   4.071
73655ION    NA+46080  40.051  25.174  12.267
73656ION    NA+46081  16.357  42.577   1.361
73657ION    NA+46082  10.249  11.074  14.321
73658ION    NA+46083  11.412   1.016  14.715
73659ION    NA+46084  31.681  37.587   4.593
73660ION    NA+46085  28.329  43.552   2.956
73661ION    NA+46086  14.142  44.139   0.267
73662ION    NA+46087   2.533  39.830  12.444
73663ION    NA+46088   0.491  12.382   4.572
73664ION    NA+46089  23.943  25.174   1.706
73665ION    NA+46090   4.306   6.832  11.589
73666ION    NA+46091  29.326  24.438  12.955
73667ION    NA+46092   3.298  32.811   0.169
73668ION    NA+46093  17.056  33.528  12.612
73669ION    NA+46094   9.445  22.972  11.198
73670ION    NA+46095  31.859  31.883  13.666
73671ION    NA+46096  20.982  10.863   4.206
73672ION    NA+46097  32.919  36.473   0.868
73673ION    NA+46098  41.326  23.514   3.362
73674ION    NA+46099  42.871  19.694  12.165
73675ION    NA+46100  25.619  31.634   5.440
73676ION    NA+46101  23.171   0.191   2.310
73677ION    NA+46102   9.445  14.351  12.600
73678ION    NA+46103  17.234  35.900  14.102
73679ION    NA+46104  22.455  21.232  11.954
73680ION    NA+46105  28.791   4.356   4.755
73681ION    NA+46106   2.774   1.701   3.151
73682ION    NA+46107  29.698   2.637  13.171
73683ION    NA+46108  26.375  34.155  14.245
73684ION    NA+46109  33.212   8.345   0.286
73685ION    NA+46110  31.930  10.696  14.000
73686ION    NA+46111   3.483  22.130   3.815
73687ION    NA+46112   2.644  22.725  11.631
73688ION    NA+46113   5.448  30.008   2.299
73689ION    NA+46114  39.049  33.069   2.639
73690ION    NA+46115  38.168  15.303  13.382
73691ION    NA+46116  29.023  32.393   2.791
73692ION    NA+46117   2.462   7.861  11.210
73693ION    NA+46118  27.017  37.061   2.985
73694ION    NA+46119  39.167  32.247  13.773
73695ION    NA+46120  23.669  29.348   4.103
73696ION    NA+46121   5.421  42.977  12.071
73697ION    NA+46122  22.688  33.456  13.799
73698ION    NA+46123  38.378  11.742   3.586
73699ION    NA+46124  11.440  40.690   3.493
73700ION    NA+46125  20.188  38.012  11.336
73701ION    NA+46126  15.795  22.160  12.651
73702ION    NA+46127  12.121  40.867  13.125
73703ION    NA+46128  44.258  23.044   2.145
73704ION    NA+46129  19.188   9.943   0.507
73705ION    NA+46130  24.603   6.312  13.803
73706ION    NA+46131  14.381   8.926  11.633
73707ION    NA+46132  20.689  43.617   1.664
73708ION    NA+46133  40.288  25.222  11.296
73709ION    NA+46134  17.000  18.014   0.286
73710ION    NA+46135   7.251  22.419  12.522
73711ION    NA+46136  15.159  38.239  11.330
73712ION    NA+46137  31.918  17.842  14.770
73713ION    NA+46138  41.538  13.710  12.908
73714ION    NA+46139  38.584  24.559  11.593
73715ION    NA+46140   8.612  31.500  12.347
73716ION    NA+46141  31.539   7.842   0.490
73717ION    NA+46142  32.895  44.912   4.089
73718ION    NA+46143  39.461  22.963  12.390
73719ION    NA+46144  21.884  43.745   1.031
73720ION    NA+46145   7.420  19.209  10.714
73721ION    NA+46146  15.529  24.075  10.811
73722ION    NA+46147  25.450  32.506   4.981
73723ION    NA+46148  24.108  40.001  11.048
73724ION    NA+46149   7.162  32.025   2.932
73725ION    NA+46150  34.465  35.493  11.297
73726ION    NA+46151  13.646  27.483   0.416
73727ION    NA+46152  27.488  24.993   2.028
73728ION    NA+46153   5.413   4.689  10.740
73729ION    NA+46154  34.563  26.613   0.559
73730ION    NA+46155  36.220  22.005   1.137
73731ION    NA+46156  35.411   3.159   2.032
73732ION    NA+46157  32.258  20.810  11.650
73733ION    NA+46158  33.407   3.918  12.013
73734ION    NA+46159  43.537  14.630   0.305
73735ION    NA+46160  13.523  15.335  11.990
73736ION    NA+46161  15.627  18.793  14.935
73737ION    NA+46162   7.181  38.531   1.817
73738ION    NA+46163  31.456  41.090  10.590
73739ION    NA+46164   0.562  12.630  14.843
73740ION    NA+46165  42.228  17.859  12.523
73741ION    NA+46166  20.559  36.632   4.345
73742ION    NA+46167  33.472   5.612   3.977
73743ION    NA+46168  41.104  18.058  11.522
73744ION    NA+46169   9.909  43.098   2.892
73745ION    NA+46170  23.662  17.976  11.189
73746ION    NA+46171   3.471   2.434   3.130
73747ION    NA+46172  29.891  38.436   5.244
73748ION    NA+46173   7.314  28.637  10.646
73749ION    NA+46174   9.944  15.284  12.675
73750ION    NA+46175  43.570   3.575  13.965
73751ION    NA+46176  14.630  29.102   0.541
73752ION    NA+46177  27.247  37.128   1.136
73753ION    NA+46178  22.755  35.609   3.681
73754ION    NA+46179  38.472  38.876  14.407
73755ION    NA+46180  10.478  42.372  13.213
73756ION    NA+46181  11.137  20.810  11.994
73757ION    NA+46182  29.060  42.562   3.086
73758ION    NA+46183  18.729  40.497   2.856
73759ION    NA+46184  12.336  21.210  13.068
73760ION    NA+46185  22.959   7.372   0.813
73761ION    NA+46186   9.632  11.599   1.127
73762ION    NA+46187  20.441  11.551  11.141
73763ION    NA+46188  42.877  37.043   0.162
73764ION    NA+46189  22.672  33.670   2.310
73765ION    NA+46190  42.145   6.053  14.744
73766ION    NA+46191  29.445   4.413  12.503
73767ION    NA+46192  43.887  27.408  10.605
73768ION    NA+46193   5.044   1.802  13.959
73769ION    NA+46194  42.632   8.398   1.900
73770ION    NA+46195  37.530  32.357   3.405
73771ION    NA+46196  26.060  42.507  11.621
73772ION    NA+46197  23.943  35.012  13.438
73773ION    NA+46198  43.394  12.133  11.603
73774ION    NA+46199  23.696  27.563   2.332
73775ION    NA+46200  41.561  32.334  12.431
73776ION    NA+46201  41.582   1.504   2.897
73777ION    NA+46202   3.222  17.082   4.984
73778ION    NA+46203  11.659  21.524  14.482
73779ION    NA+46204  12.165  12.279  12.474
73780ION    NA+46205  42.494  22.726  10.596
73781ION    NA+46206   5.463   8.147  14.307
73782ION    NA+46207  31.210  10.407   9.839
73783ION    NA+46208  16.404   1.448   0.778
73784ION    NA+46209  40.946  32.697  13.482
73785ION    NA+46210  27.194  20.009  12.117
73786ION    NA+46211  38.083  19.632   4.095
73787ION    NA+46212  17.638  44.059   1.181
73788ION    NA+46213  10.606  31.678   1.446
73789ION    NA+46214  41.394  25.149   4.619
73790ION    NA+46215  14.024  39.430   2.146
73791ION    NA+46216  39.563  36.166   4.735
73792ION    NA+46217  10.183  37.283   1.644
73793ION    NA+46218  20.836  40.300   1.794
73794ION    NA+46219  10.304  26.469  10.755
73795ION    NA+46220  26.513  33.492  10.703
73796ION    NA+46221  14.325  33.631   2.231
73797ION    NA+46222  26.203   5.644   1.717
73798ION    NA+46223  15.836  27.942  14.598
73799ION    NA+46224  29.409  43.842  12.662
73800ION    NA+46225  22.079  39.576   3.668
73801ION    NA+46226   5.800   0.753  14.349
73802ION    NA+46227  35.692  30.933   4.118
73803ION    NA+46228  34.501  22.038  12.405
73804ION    NA+46229  41.691   8.105   1.733
73805ION    NA+46230  19.380  40.089  14.174
73806ION    NA+46231  23.905  24.067   0.957
73807ION    NA+46232  39.176  43.464   4.716
73808ION    NA+46233   4.866  10.031  13.092
73809ION    NA+46234  38.474  26.060  12.382
73810ION    NA+46235  43.819  27.567   4.343
73811ION    NA+46236  14.117  32.413  14.446
73812ION    NA+46237   9.855  34.029   1.446
73813ION    NA+46238  36.977  11.413   1.516
73814ION    NA+46239  21.513  15.245   3.682
73815ION    NA+46240  36.007   7.950  12.748
73816ION    NA+46241  18.412   0.816  10.620
73817ION    NA+46242   1.825  14.970  10.915
73818ION    NA+46243  42.053  35.943   1.281
73819ION    NA+46244  32.182  22.228   3.268
73820ION    NA+46245  42.168  42.156  12.166
73821ION    NA+46246   2.386  23.592   4.139
73822ION    NA+46247  12.533   2.966   3.846
73823ION    NA+46248  44.414  12.761  11.177
73824ION    NA+46249   8.896  44.249   1.390
73825ION    NA+46250  33.789  16.021   1.742
73826ION    NA+46251  32.234   8.953   3.698
73827ION    NA+46252   0.837  27.855  11.198
73828ION    NA+46253  15.816   0.802   2.526
73829ION    NA+46254  22.637  27.439  13.563
73830ION    NA+46255  24.427  14.718   0.668
73831ION    NA+46256  35.660  29.867   0.170
73832ION    NA+46257  37.514  11.950   4.045
73833ION    NA+46258  32.668  41.018  12.429
73834ION    NA+46259  13.353  43.886   3.323
73835ION    NA+46260  44.303  16.237  13.779
73836ION    NA+46261  42.574  33.872   1.275
73837ION    NA+46262  16.222  11.518  14.567
73838ION    NA+46263   1.364  14.397   4.684
73839ION    NA+46264  38.476  37.332  12.085
73840ION    NA+46265  19.614  31.817   0.309
73841ION    NA+46266   1.610  13.057   0.594
73842ION    NA+46267   9.416   0.971   0.783
73843ION    NA+46268  29.653   8.423   1.380
73844ION    NA+46269  41.459  23.176   0.323
73845ION    NA+46270  42.854   7.661   5.470
73846ION    NA+46271   0.856   3.176  12.160
73847ION    NA+46272   9.259   4.420   4.448
73848ION    NA+46273  34.371  19.950  11.573
73849ION    NA+46274  14.151  39.847   3.345
73850ION    NA+46275  25.973  18.110   1.998
73851ION    NA+46276  28.358  43.638  12.299
73852ION    NA+46277   0.098  31.064  10.432
73853ION    NA+46278  39.550  21.256  13.024
73854ION    NA+46279  11.545  17.759  12.711
73855ION    NA+46280  12.260   8.366  10.767
73856ION    NA+46281  39.774   3.267   3.471
73857ION    NA+46282  28.749  12.158  10.737
73858ION    NA+46283  26.004  43.593  12.161
73859ION    NA+46284   2.819  37.396   2.384
73860ION    NA+46285   1.110  18.486  13.461
73861ION    NA+46286  17.061  19.219   3.269
73862ION    NA+46287  18.739  41.754  12.785
73863ION    NA+46288  36.439  16.271   4.927
73864ION    NA+46289  10.216  44.851   2.010
73865ION    NA+46290  28.085  41.769  12.085
73866ION    NA+46291  16.843  20.707   3.806
73867ION    NA+46292  42.621  43.312   4.474
73868ION    NA+46293  24.822  17.595  12.638
73869ION    NA+46294  32.956   1.838  13.019
73870ION    NA+46295  25.122  33.900   2.749
73871ION    NA+46296  31.674   4.634  12.785
73872ION    NA+46297  10.034   4.622   1.025
73873ION    NA+46298   5.943  20.106  12.035
73874ION    NA+46299  15.225  36.626   1.744
73875ION    NA+46300  36.542  37.500   0.112
73876ION    NA+46301  40.818  18.818  11.095
73877ION    NA+46302  36.683  34.510   2.047
73878ION    NA+46303  32.068  15.771  14.303
73879ION    NA+46304  12.258  36.716  11.298
73880ION    NA+46305  31.573  42.066  14.098
73881ION    NA+46306  37.425  36.994  13.809
73882ION    NA+46307  22.683  28.355  13.962
73883ION    NA+46308  36.895  13.579   4.782
73884ION    NA+46309  33.920   3.252  14.909
73885ION    NA+46310   5.232  14.763   2.995
73886ION    NA+46311  27.393  15.396   2.009
73887ION    NA+46312  38.647  44.080  12.532
73888ION    NA+46313  16.166   8.947  11.529
73889ION    NA+46314   3.246  29.583  11.298
73890ION    NA+46315  20.303  39.666   1.715
73891ION    NA+46316  37.503  37.600   0.370
73892ION    NA+46317  18.238  37.117  13.976
73893ION    NA+46318  12.588  17.944   4.075
73894ION    NA+46319  29.131  39.901   2.869
73895ION    NA+46320  40.900   5.946   2.662
73896ION    NA+46321   9.025  30.627   3.444
73897ION    NA+46322  34.404  35.578  13.292
73898ION    NA+46323  11.503   3.701   0.254
73899ION    NA+46324  17.162   5.220   1.022
73900ION    NA+46325  33.104  15.384   3.780
73901ION    NA+46326  17.065   9.257   3.459
73902ION    NA+46327   9.013  35.965  13.788
73903ION    NA+46328   9.247  13.709   2.353
73904ION    NA+46329   8.750  18.929  13.753
73905ION    NA+46330  37.446  40.728  10.983
73906ION    NA+46331  37.949  29.711  12.038
73907ION    NA+46332   9.878  26.294   2.129
73908ION    NA+46333  44.862   0.348   2.622
73909ION    NA+46334  10.562  40.461   0.173
73910ION    NA+46335   1.122  23.624   4.502
73911ION    NA+46336  42.372  38.383   4.088
73912ION    NA+46337  42.142  33.591   3.208
73913ION    NA+46338  14.378   6.081  14.730
73914ION    NA+46339  36.625   5.876   2.880
73915ION    NA+46340  24.506  41.677   1.868
73916ION    NA+46341  23.932   1.537   2.503
73917ION    NA+46342  11.452   3.988  13.423
73918ION    NA+46343  34.083  22.308  14.760
73919ION    NA+46344  28.411  19.091   1.323
73920ION    NA+46345  35.466  27.954  11.198
73921ION    NA+46346  25.611  24.146  12.727
73922ION    NA+46347  38.045   3.779  13.660
73923ION    NA+46348  39.602  35.618   3.761
73924ION    NA+46349  15.228  10.523   3.824
73925ION    NA+46350  40.979  27.568  14.833
73926ION    NA+46351  38.146   7.096  14.273
73927ION    NA+46352   3.488  42.628  11.661
73928ION    NA+46353  37.476  25.408   1.176
73929ION    NA+46354   7.692  13.939   0.167
73930ION    NA+46355  10.166  10.251   1.742
73931ION    NA+46356   7.655  34.017   1.561
73932ION    NA+46357  42.392  31.860   3.506
73933ION    NA+46358  10.212   0.383   9.847
73934ION    NA+46359  38.575   8.030   1.357
73935ION    NA+46360  21.003  25.232  11.175
73936ION    NA+46361  34.639  35.576   1.410
73937ION    NA+46362  31.903  37.220  13.494
73938ION    NA+46363  18.607  29.657   0.372
73939ION    NA+46364  12.142  43.813  12.488
73940ION    NA+46365  10.832  30.962   3.344
73941ION    NA+46366  28.113  22.523  12.001
73942ION    NA+46367  38.144  18.151  10.732
73943ION    NA+46368  12.842  30.506   3.336
73944ION    NA+46369   4.065  31.697   1.759
73945ION    NA+46370  36.933  41.657  12.560
73946ION    NA+46371  22.894  31.346   2.777
73947ION    NA+46372   9.891   9.058  11.534
73948ION    NA+46373  26.454  42.372  12.530
73949ION    NA+46374  33.925  36.134   4.122
73950ION    NA+46375   7.619   4.592   2.608
73951ION    NA+46376  43.660  26.980  14.176
73952ION    NA+46377  41.906  27.623  10.321
73953ION    NA+46378  27.721  13.110  10.966
73954ION    NA+46379  31.299  34.266   2.175
73955ION    NA+46380  36.291  12.151  13.784
73956ION    NA+46381  14.533   8.089   3.239
73957ION    NA+46382  26.619  33.856  13.323
73958ION    NA+46383  36.670   2.351  11.093
73959ION    NA+46384  26.477   6.490   2.073
73960ION    NA+46385  39.384  35.454  13.770
73961ION    NA+46386  22.882  17.312  13.673
73962ION    NA+46387  36.422  32.394   0.217
73963ION    NA+46388  41.951  37.609  13.673
73964ION    NA+46389  43.892  26.554  11.494
73965ION    NA+46390  33.407   6.152   5.188
73966ION    NA+46391   6.206  24.971  14.052
73967ION    NA+46392   2.013   8.209  14.048
73968ION    NA+46393  22.142  26.994  10.737
73969ION    NA+46394  38.006  31.633   4.484
73970ION    NA+46395  12.082  19.242  12.088
73971ION    NA+46396   9.884  14.416  13.496
73972ION    NA+46397   8.342  29.692   3.261
73973ION    NA+46398  31.230   0.515   3.548
73974ION    NA+46399   1.203  20.292  13.415
73975ION    NA+46400   1.830   6.440   2.657
73976ION    NA+46401  40.597  27.819   1.515
73977ION    NA+46402   0.733   1.804  11.930
73978ION    NA+46403  41.778  41.657   2.535
73979ION    NA+46404  14.274  22.101  10.262
73980ION    NA+46405  18.127   3.935   0.889
73981ION    NA+46406  10.883   8.223   2.352
73982ION    NA+46407   5.521  14.533   1.300
73983ION    NA+46408  17.750  14.789   0.277
73984ION    NA+46409  16.889   0.977  10.500
73985ION    NA+46410   0.198  11.190   1.477
73986ION    NA+46411  40.221  43.961  10.186
73987ION    NA+46412  19.225  18.568  14.897
73988ION    NA+46413  19.900  23.461  14.834
73989ION    NA+46414   5.686  16.130   2.126
73990ION    NA+46415  22.641  38.470   3.505
73991ION    NA+46416   6.896  33.979  10.623
73992ION    NA+46417  10.062  25.340  14.216
73993ION    NA+46418  14.091  40.622  14.052
73994ION    NA+46419  23.828  32.990   4.138
73995ION    NA+46420  26.797  32.625  10.715
73996ION    NA+46421  17.411  30.985  10.591
73997ION    NA+46422  28.094   3.114  10.787
73998ION    NA+46423   8.091  38.473   3.589
73999ION    NA+46424  11.367  30.502   2.823
74000ION    NA+46425  15.729  10.867  13.132
74001ION    NA+46426  27.268  23.535  10.740
74002ION    NA+46427  18.992  19.440   0.853
74003ION    NA+46428  29.947  36.271   1.880
74004ION    NA+46429  30.034   1.356   2.077
74005ION    NA+46430  10.453  12.067  14.488
74006ION    NA+46431  18.093  20.791   1.938
74007ION    NA+46432  43.742  30.499   4.283
74008ION    NA+46433  16.798  32.172   0.550
74009ION    NA+46434  39.424   2.580   0.303
74010ION    NA+46435  44.370   7.860   3.990
74011ION    NA+46436  30.444  22.121  13.052
74012ION    NA+46437  27.444  27.280   2.167
74013ION    NA+46438   0.423  32.372  11.250
74014ION    NA+46439  10.151  35.814   1.061
74015ION    NA+46440   8.420   5.367  14.426
74016ION    NA+46441  27.300  14.066   0.554
74017ION    NA+46442  39.760  44.921   0.778
74018ION    NA+46443  30.022  41.019   0.334
74019ION    NA+46444  36.961  44.915  12.134
74020ION    NA+46445  10.887  29.035   0.385
74021ION    NA+46446  29.135  20.915   1.353
74022ION    NA+46447  12.865   0.913   0.376
74023ION    NA+46448  32.869   9.438  10.757
74024ION    NA+46449  30.563  12.057   0.065
74025ION    NA+46450  11.159   3.750   1.192
74026ION    NA+46451   7.135  33.950  12.012
74027ION    NA+46452   6.537  42.263   3.525
74028ION    NA+46453  15.068  20.603   2.365
74029ION    NA+46454  14.342  30.300  11.359
74030ION    NA+46455   0.992  30.414  12.994
74031ION    NA+46456  19.081  27.979  12.575
74032ION    NA+46457  31.258  33.101  14.394
74033ION    NA+46458  40.451  13.797  14.838
74034ION    NA+46459   3.875   8.830  13.494
74035ION    NA+46460  19.248   7.535   4.848
74036ION    NA+46461  28.641  15.357  12.988
74037ION    NA+46462  12.969  17.885   3.286
74038ION    NA+46463  43.885  42.144  12.171
74039ION    NA+46464  38.470  23.977   3.033
74040ION    NA+46465  40.038  23.412   3.108
74041ION    NA+46466   0.691  12.127  11.517
74042ION    NA+46467  21.052  39.641   2.668
74043ION    NA+46468  18.968  17.365   4.431
74044ION    NA+46469  16.387  44.061  14.827
74045ION    NA+46470   2.085  14.913   4.495
74046ION    NA+46471  40.143  19.583   1.507
74047ION    NA+46472  32.520  19.185   4.693
74048ION    NA+46473  35.992  42.525   2.143
74049ION    NA+46474  35.389  29.691  10.749
74050ION    NA+46475   1.152   9.160  10.803
74051ION    NA+46476  17.081  43.450   2.956
74052ION    NA+46477  36.820  31.242  12.643
74053ION    NA+46478  37.389   4.978  10.981
74054ION    NA+46479  28.772  11.380  11.365
74055ION    NA+46480   8.814  38.991   3.517
74056ION    NA+46481  12.886  22.580   0.178
74057ION    NA+46482  11.856  38.811   0.915
74058ION    NA+46483  21.692  19.079  14.745
74059ION    NA+46484  17.193  13.004  13.763
74060ION    NA+46485  10.190  14.890   3.250
74061ION    NA+46486  14.518  37.766  13.976
74062ION    NA+46487  38.742   2.370  12.581
74063ION    NA+46488  29.140  30.700  12.942
74064ION    NA+46489  28.581  21.493  13.437
74065ION    NA+46490  27.721  25.631   4.580
74066ION    NA+46491   1.353  14.032  11.770
74067ION    NA+46492   4.885  41.853  11.467
74068ION    NA+46493  38.165  41.546  11.713
74069ION    NA+46494  18.300  10.014   5.059
74070ION    NA+46495  42.252  41.754   4.183
74071ION    NA+46496  25.638  15.874   2.622
74072ION    NA+46497   5.857  11.676   0.988
74073ION    NA+46498   6.449  22.794  13.417
74074ION    NA+46499   7.829  36.344  11.605
74075ION    NA+46500  39.225  14.307  11.175
74076ION    NA+46501  32.459   0.710   1.763
74077ION    NA+46502  10.706  19.030  11.834
74078ION    NA+46503  41.527  27.179  12.849
74079ION    NA+46504  11.142  35.488  13.795
74080ION    NA+46505  26.112  35.905  12.094
74081ION    NA+46506  22.060   8.834  14.542
74082ION    NA+46507   4.355  10.934   0.629
74083ION    NA+46508  17.071   6.037  13.631
74084ION    NA+46509  36.851  38.623  12.771
74085ION    NA+46510  14.234  23.798  10.300
74086ION    NA+46511  30.075   0.048   1.675
74087ION    NA+46512  30.699   4.468  12.935
74088ION    NA+46513   6.668  35.498   1.637
74089ION    NA+46514  34.752  12.475   1.698
74090ION    NA+46515   4.346   4.150   4.261
74091ION    NA+46516   1.397  18.498  11.180
74092ION    NA+46517   9.927  33.731  11.277
74093ION    NA+46518  16.284  13.544  11.624
74094ION    NA+46519  25.303  18.743  12.332
74095ION    NA+46520   5.299  21.823   2.070
74096ION    NA+46521  31.681  14.051   2.233
74097ION    NA+46522   3.411  14.377   0.503
74098ION    NA+46523   3.678  12.790  12.057
74099ION    NA+46524  33.476  28.333  11.114
74100ION    NA+46525  14.030  24.433   3.889
74101ION    NA+46526  18.727  16.433   0.705
74102ION    NA+46527  23.683  43.318  13.533
74103ION    NA+46528  20.568   4.031   1.381
74104ION    NA+46529  41.092  28.187   4.118
74105ION    NA+46530  42.844   0.214   2.386
74106ION    NA+46531   9.765   0.531  11.292
74107ION    NA+46532  26.151   0.857   1.627
74108ION    NA+46533  10.184  13.993   3.692
74109ION    NA+46534  26.509  37.952  12.696
74110ION    NA+46535  17.618  36.629  10.694
74111ION    NA+46536  29.174  42.904   2.124
74112ION    NA+46537  16.838  11.097  13.814
74113ION    NA+46538  13.993  39.606  11.523
74114ION    NA+46539  44.574  26.918   2.781
74115ION    NA+46540  33.214  42.856   0.814
74116ION    NA+46541   3.610  35.056  13.480
74117ION    NA+46542  29.218  23.548  11.154
74118ION    NA+46543  38.331  11.192   2.253
74119ION    NA+46544  40.732  10.173   3.126
74120ION    NA+46545  19.329  44.408  11.259
74121ION    NA+46546  12.542  36.512   4.072
74122ION    NA+46547   7.317  37.533   9.865
74123ION    NA+46548  30.449  44.323  10.255
74124ION    NA+46549  40.885  22.001  12.556
74125ION    NA+46550  44.494  17.449  11.223
74126ION    NA+46551   9.552  16.667   0.547
74127ION    NA+46552  38.649  30.492   1.165
74128ION    NA+46553  41.880  22.021   5.272
74129ION    NA+46554  33.937   2.495   1.875
74130ION    NA+46555  33.211   4.263   4.887
74131ION    NA+46556  35.550  25.045   3.126
74132ION    NA+46557  26.837  39.738   3.386
74133ION    NA+46558  39.345  44.568   4.601
74134ION    NA+46559  42.223  29.905  12.094
74135ION    NA+46560  43.591   3.461   4.041
74136ION    NA+46561  28.180  40.091   0.893
74137ION    NA+46562  14.017  23.009  11.570
74138ION    NA+46563  20.493   5.026  14.272
74139ION    NA+46564  22.510  41.897   2.047
74140ION    NA+46565  44.460  26.254  10.446
74141ION    NA+46566  12.241  22.774  12.316
74142ION    NA+46567  30.624  40.918  11.586
74143ION    NA+46568  40.974  43.557   0.020
74144ION    NA+46569  44.045   7.013  11.454
74145ION    NA+46570  12.527  39.405  14.304
74146ION    NA+46571  26.280  27.852   2.455
74147ION    NA+46572  42.807  10.517  13.091
74148ION    NA+46573  41.476   6.540   4.079
74149ION    NA+46574  25.525  28.465   5.354
74150ION    NA+46575  37.890  35.133  13.848
74151ION    NA+46576  42.292  44.382  14.815
74152ION    NA+46577  42.017  26.056   2.803
74153ION    NA+46578  30.953   8.996   9.626
74154ION    NA+46579  44.962   0.641  12.898
74155ION    NA+46580  34.930  35.386  14.192
74156ION    NA+46581  19.666  40.200  10.827
74157ION    NA+46582  44.308   2.398  11.083
74158ION    NA+46583  40.167  28.960  14.483
74159ION    NA+46584  37.810   6.507  11.221
74160ION    NA+46585   1.829  14.121  14.836
74161ION    NA+46586   2.946  20.241   4.924
74162ION    NA+46587   8.811  35.689   9.882
74163ION    NA+46588   3.484   4.012   0.954
74164ION    NA+46589  18.434  28.697  14.548
74165ION    NA+46590   3.016  23.646  11.515
74166ION    NA+46591   7.134  26.427  12.362
74167ION    NA+46592  17.532   6.706   4.068
74168ION    NA+46593  11.734  25.968   4.791
74169ION    NA+46594  38.067  18.069   0.866
74170ION    NA+46595  15.814  22.615   3.646
74171ION    NA+46596  42.375  10.915  10.358
74172ION    NA+46597  36.401  19.858   4.080
74173ION    NA+46598  10.494   1.198   4.257
74174ION    NA+46599  44.960  29.946  13.140
74175ION    NA+46600  24.927  31.513  12.740
74176ION    NA+46601  41.969  36.322  14.959
74177ION    NA+46602   0.189  36.318  12.745
74178ION    NA+46603   6.650  38.995   4.411
74179ION    NA+46604   8.347  38.290  14.256
74180ION    NA+46605  32.291   5.594   4.273
74181ION    NA+46606  34.820   6.469   5.594
74182ION    NA+46607   5.229  38.446   2.841
74183ION    NA+46608  14.649   0.478  12.038
74184ION    NA+46609  35.113  21.723   4.140
74185ION    NA+46610  42.293  30.774  13.562
74186ION    NA+46611  38.782  19.439   5.379
74187ION    NA+46612  17.029  21.831   2.910
74188ION    NA+46613  10.972  38.308  11.318
74189ION    NA+46614   5.149  37.333   3.648
74190ION    NA+46615  12.893  28.525  14.964
74191ION    NA+46616  25.730  34.725   0.142
74192ION    NA+46617  38.537   4.705  12.433
74193ION    NA+46618   1.009  37.558  14.550
74194ION    NA+46619  18.657  26.158   2.281
74195ION    NA+46620  10.910  25.155   4.724
74196ION    NA+46621  40.566  23.582  14.901
74197ION    NA+46622  12.997  31.228  13.737
74198ION    NA+46623   2.799  33.362  13.474
74199ION    NA+46624  19.649  22.747  11.741
74200ION    NA+46625  43.990   4.887   4.053
74201ION    NA+46626  39.477  41.200   4.522
74202ION    NA+46627  30.134  36.578  13.761
74203ION    NA+46628  28.436  24.107  12.066
74204ION    NA+46629  20.758   6.329   1.692
74205ION    NA+46630  42.013  37.407   4.533
74206ION    NA+46631  42.303   5.063   4.509
74207ION    NA+46632  18.295  42.216   1.564
74208ION    NA+46633  36.345  20.710   9.890
74209ION    NA+46634   3.855  38.587   4.298
74210ION    NA+46635  14.230  25.955  13.224
74211ION    NA+46636  10.658  28.065   4.590
74212ION    NA+46637  31.453  25.605   0.816
74213ION    NA+46638  14.865  43.180  13.315
74214ION    NA+46639  23.734  22.192  13.742
74215ION    NA+46640   5.431  25.711  11.876
74216ION    NA+46641  40.786  27.928  13.813
74217ION    NA+46642  15.970  39.857   0.558
74218ION    NA+46643  17.083   7.018   3.357
74219ION    NA+46644  17.303  34.342   1.843
74220ION    NA+46645  12.564   5.579   1.539
74221ION    NA+46646   2.250  44.501  12.805
74222ION    NA+46647  44.426  21.895  11.691
74223ION    NA+46648  43.922   1.553   4.093
74224ION    NA+46649  14.255  24.472  11.646
74225ION    NA+46650  30.064  25.133  14.038
74226ION    NA+46651  27.346   5.338  13.329
74227ION    NA+46652  25.214  10.252  11.999
74228ION    NA+46653  26.544  41.504   2.875
74229ION    NA+46654  31.815  43.683  12.427
74230ION    NA+46655  30.520  23.751   4.420
74231ION    NA+46656   7.247  43.355   0.725
74232ION    NA+46657   0.983  19.296   1.371
74233ION    NA+46658  32.654  10.545  13.265
74234ION    NA+46659   8.124  12.789  14.944
74235ION    NA+46660  19.230   6.412   3.885
74236ION    NA+46661  29.906  34.359   1.181
74237ION    NA+46662  23.819  39.760   0.003
74238ION    NA+46663  18.037  15.058   4.498
74239ION    NA+46664  18.095  36.831   4.269
74240ION    NA+46665  20.921  24.435  13.127
74241ION    NA+46666  15.004  30.504   4.668
74242ION    NA+46667  10.679  34.817   3.492
74243ION    NA+46668   4.761  39.323   4.370
74244ION    NA+46669  18.023  28.515  12.093
74245ION    NA+46670  38.390  11.794   4.584
74246ION    NA+46671  36.647  41.840   3.886
74247ION    NA+46672  31.081   2.304   0.269
74248ION    NA+46673  11.054  32.167   4.038
74249ION    NA+46674  12.131  15.728   1.956
74250ION    NA+46675   7.627  28.332  11.756
74251ION    NA+46676  27.162  38.477   1.259
74252ION    NA+46677  31.487  29.509   0.788
74253ION    NA+46678  14.575  29.254  14.549
74254ION    NA+46679   2.640  14.435  10.695
74255ION    NA+46680  41.266   3.171   4.895
74256ION    NA+46681  31.482  18.477   2.019
74257ION    NA+46682  27.800  16.185  11.658
74258ION    NA+46683  24.750  26.946   1.232
74259ION    NA+46684  44.576   6.924  10.304
74260ION    NA+46685  24.208  16.529  13.967
74261ION    NA+46686  42.112  29.579   2.646
74262ION    NA+46687  25.581  43.442   0.266
74263ION    NA+46688   0.070  41.318   0.050
74264ION    NA+46689  16.228  29.746  11.738
74265ION    NA+46690   1.036  33.578  11.261
74266ION    NA+46691  40.501  27.674   0.602
74267ION    NA+46692  32.972  38.920  12.677
74268ION    NA+46693  33.051  19.785   1.843
74269ION    NA+46694  10.243   9.820  12.078
74270ION    NA+46695   0.526   7.048  14.784
74271ION    NA+46696  14.745  31.891  10.259
74272ION    NA+46697   9.677  36.379   1.737
74273ION    NA+46698   0.015   1.376   2.442
74274ION    NA+46699  20.440  40.422  12.628
74275ION    NA+46700  19.067   5.824  12.030
74276ION    NA+46701   1.537  30.932   3.305
74277ION    NA+46702  21.951  32.854  13.035
74278ION    NA+46703   8.876  28.065   4.265
74279ION    NA+46704  40.742  37.097  14.155
74280ION    NA+46705   0.924  12.746  10.754
74281ION    NA+46706  20.771  15.323   3.041
74282ION    NA+46707  19.720  20.471  11.797
74283ION    NA+46708  34.370  31.066  12.008
74284ION    NA+46709  14.371   6.131   3.229
74285ION    NA+46710  32.663  24.520  13.723
74286ION    NA+46711  22.819  23.061  11.358
74287ION    NA+46712  11.933  20.261   3.715
74288ION    NA+46713  10.903  30.700   1.857
74289ION    NA+46714  30.126   2.495  10.915
74290ION    NA+46715   6.548  39.933  12.009
74291ION    NA+46716   3.318  13.767   3.085
74292ION    NA+46717  35.871  43.512   3.633
74293ION    NA+46718   7.827  22.840  14.793
74294ION    NA+46719  24.460   5.724   4.590
74295ION    NA+46720  34.362  12.348   3.631
74296ION    NA+46721  21.064   6.118  13.661
74297ION    NA+46722   2.568  37.392   1.408
74298ION    NA+46723  42.992   6.846   0.901
74299ION    NA+46724  18.948  43.491  12.641
74300ION    NA+46725  14.859  36.913  10.641
74301ION    NA+46726  31.932  23.422   2.224
74302ION    NA+46727  37.631  22.722   0.021
74303ION    NA+46728  37.876  35.518  14.639
74304ION    NA+46729  38.003  35.922   4.108
74305ION    NA+46730  28.782   7.315  11.585
74306ION    NA+46731   8.040  39.960  10.754
74307ION    NA+46732   6.912   6.466  10.938
74308ION    NA+46733   0.694   9.205  14.051
74309ION    NA+46734  10.319  34.253  11.928
74310ION    NA+46735  29.018  14.231  14.988
74311ION    NA+46736  37.570  27.549  10.074
74312ION    NA+46737  21.224  29.926  12.371
74313ION    NA+46738  28.057   1.158  12.423
74314ION    NA+46739  19.834  11.281   0.255
74315ION    NA+46740  20.570  31.886  13.356
74316ION    NA+46741   4.149  33.054   0.407
74317ION    NA+46742  22.553  32.962  14.658
74318ION    NA+46743  10.999  40.907  10.702
74319ION    NA+46744   5.176  12.405   0.908
74320ION    NA+46745   2.919  22.961   1.792
74321ION    NA+46746  28.011  35.308  11.469
74322ION    NA+46747   4.033  18.309  13.985
74323ION    NA+46748  15.806  11.762  10.535
74324ION    NA+46749   0.908   0.994  12.621
74325ION    NA+46750  18.465  31.827  11.153
74326ION    NA+46751  40.622  19.831   2.349
74327ION    NA+46752  25.968   2.209  11.967
74328ION    NA+46753  21.682  16.002  12.576
74329ION    NA+46754  21.008  17.485   1.509
74330ION    NA+46755  23.961  42.215   4.090
74331ION    NA+46756  43.593  27.777   2.567
74332ION    NA+46757  20.159  38.996  10.751
74333ION    NA+46758   4.204  16.052   3.730
74334ION    NA+46759  38.402  41.433   4.145
74335ION    NA+46760  22.667  23.330  12.609
74336ION    NA+46761  29.548  31.599  12.778
74337ION    NA+46762  27.708   7.153   2.583
74338ION    NA+46763  38.409   2.125  13.492
74339ION    NA+46764  40.801  37.693  12.120
74340ION    NA+46765  27.554   9.612   3.329
74341ION    NA+46766  28.416  33.952   0.355
74342ION    NA+46767  38.510  31.333   2.179
74343ION    NA+46768  21.283  30.558   3.635
74344ION    NA+46769  27.535   0.500   0.864
74345ION    NA+46770   6.151   0.946   9.779
74346ION    NA+46771  15.887  25.795   3.697
74347ION    NA+46772  27.539  15.849   2.888
74348ION    NA+46773   2.692  42.777   1.960
74349ION    NA+46774  16.066   1.016   4.129
74350ION    NA+46775  22.451   8.892  10.995
74351ION    NA+46776  21.638   1.655   0.329
74352ION    NA+46777  41.088   4.383   3.770
74353ION    NA+46778  39.797   5.183  12.027
74354ION    NA+46779  16.739  35.863   1.696
74355ION    NA+46780   6.707  42.299   0.014
74356ION    NA+46781   2.422   7.694  12.886
74357ION    NA+46782  29.939  33.566   3.688
74358ION    NA+46783  24.404  25.479  11.721
74359ION    NA+46784   8.149  43.823   4.668
74360ION    NA+46785  21.799  40.941  11.321
74361ION    NA+46786  35.072   3.052  14.793
74362ION    NA+46787  17.335  28.699   3.947
74363ION    NA+46788   4.499  44.806   1.663
74364ION    NA+46789  43.835  17.357  12.285
74365ION    NA+46790   7.673  28.028   2.293
74366ION    NA+46791  24.634  16.699  11.937
74367ION    NA+46792   4.177  23.157   2.290
74368ION    NA+46793  24.783  19.267  12.617
74369ION    NA+46794   9.714  26.325   0.154
74370ION    NA+46795  28.285  27.502   1.924
74371ION    NA+46796  16.157  37.854   1.201
74372ION    NA+46797  12.923  19.084  11.570
74373ION    NA+46798   2.024  20.289  13.987
74374ION    NA+46799  27.988  43.285   3.858
74375ION    NA+46800   8.962  38.811  12.635
74376ION    NA+46801   8.127  12.206   0.756
74377ION    NA+46802   1.874  25.296   4.160
74378ION    NA+46803   9.813  10.491  13.376
74379ION    NA+46804  32.090  14.504  11.784
74380ION    NA+46805  13.361   6.725   2.759
74381ION    NA+46806  30.852  38.842   1.604
74382ION    NA+46807  44.015  41.475  14.285
74383ION    NA+46808  30.623   9.796   2.401
74384ION    NA+46809  40.842   0.843  12.430
74385ION    NA+46810  11.839  23.019  10.592
74386ION    NA+46811  23.932  11.536   2.383
74387ION    NA+46812  29.540  13.699   2.991
74388ION    NA+46813  26.111   5.498  12.036
74389ION    NA+46814  16.179  25.692  11.946
74390ION    NA+46815   7.668   9.192  11.885
74391ION    NA+46816  40.992  14.182   1.941
74392ION    NA+46817  36.121  35.072   0.455
74393ION    NA+46818   4.887  35.784   0.592
74394ION    NA+46819  38.092  15.190  14.465
74395ION    NA+46820  39.959  10.805  14.579
74396ION    NA+46821  35.721  12.065  12.767
74397ION    NA+46822   0.415  27.416   4.214
74398ION    NA+46823  44.599  31.286  11.166
74399ION    NA+46824  23.001  14.729  14.062
74400ION    NA+46825  39.964  33.048  12.645
74401ION    NA+46826  39.578   0.642  11.566
74402ION    NA+46827   8.419  35.474  11.606
74403ION    NA+46828  32.508  43.073   5.005
74404ION    NA+46829   3.828  15.337   2.452
74405ION    NA+46830   6.377  30.357  10.319
74406ION    NA+46831   6.116  14.100   2.929
74407ION    NA+46832  32.445  31.772   0.497
74408ION    NA+46833  26.554   4.808   4.461
74409ION    NA+46834  41.689  11.605  14.107
74410ION    NA+46835   6.256   3.848   4.027
74411ION    NA+46836   6.701  20.437   2.278
74412ION    NA+46837   9.273  26.557   2.881
74413ION    NA+46838   5.084  42.897   4.024
74414ION    NA+46839  17.532  14.084  11.561
74415ION    NA+46840  17.181  26.710   2.102
74416ION    NA+46841  26.055   4.715   0.573
74417ION    NA+46842  20.456  16.406   4.024
74418ION    NA+46843  24.162  18.647  10.640
74419ION    NA+46844  29.567  36.607  12.278
74420ION    NA+46845   8.257  13.524   2.352
74421ION    NA+46846  21.957  25.689   4.217
74422ION    NA+46847   0.699  35.431   4.697
74423ION    NA+46848  31.062  32.195   4.102
74424ION    NA+46849  12.816  16.918  10.619
74425ION    NA+46850  40.623   4.461  14.388
74426ION    NA+46851  21.104  21.804   4.579
74427ION    NA+46852   3.461  16.640   0.172
74428ION    NA+46853  39.665  14.323   0.268
74429ION    NA+46854  36.880  29.798   2.556
74430ION    NA+46855  44.586  35.837   2.394
74431ION    NA+46856   2.906  15.185  12.952
74432ION    NA+46857  35.646  24.683  11.388
74433ION    NA+46858  30.856   2.124   2.579
74434ION    NA+46859  24.914  34.759  14.715
74435ION    NA+46860  42.954  29.295   0.071
74436ION    NA+46861  31.396  30.975  11.153
74437ION    NA+46862  13.000  17.581  13.230
74438ION    NA+46863  37.559  38.330  14.436
74439ION    NA+46864  38.438   1.167   0.499
74440ION    NA+46865   4.238  37.865   0.768
74441ION    NA+46866   6.384   3.139   0.048
74442ION    NA+46867  18.965  21.630  13.911
74443ION    NA+46868   4.261   6.903   0.884
74444ION    NA+46869  19.749  34.492   3.346
74445ION    NA+46870  31.449  36.846   3.267
74446ION    NA+46871  40.334  16.982   4.213
74447ION    NA+46872   9.156  12.283   0.456
74448ION    NA+46873  28.698   9.817  13.270
74449ION    NA+46874  16.707  40.160  12.490
74450ION    NA+46875  18.014  17.755   4.567
74451ION    NA+46876  40.321  20.804   4.721
74452ION    NA+46877   0.708  41.718  10.301
74453ION    NA+46878  20.023  38.072  12.958
74454ION    NA+46879  14.703  19.788   3.754
74455ION    NA+46880  28.750  37.288   3.492
74456ION    NA+46881  32.394  33.089   0.034
74457ION    NA+46882   1.212  34.452   3.303
74458ION    NA+46883  19.146  30.725   1.386
74459ION    NA+46884  23.402  36.735  13.702
74460ION    NA+46885  12.149  28.288  13.549
74461ION    NA+46886  13.583   2.522   1.757
74462ION    NA+46887  18.223  12.762  14.535
74463ION    NA+46888  27.614  37.006  11.937
74464ION    NA+46889  20.002   4.179   3.627
74465ION    NA+46890  39.921  13.583  11.127
74466ION    NA+46891  22.592   3.285  11.086
74467ION    NA+46892  13.328  23.124  14.250
74468ION    NA+46893   9.881  27.467  12.413
74469ION    NA+46894  39.474  21.193   2.517
74470ION    NA+46895   9.100   4.898   0.795
74471ION    NA+46896  28.885  31.415   3.612
74472ION    NA+46897  40.580  29.137  13.585
74473ION    NA+46898  40.338   3.844  11.037
74474ION    NA+46899  33.635  37.079  12.906
74475ION    NA+46900   3.058  26.320   4.721
74476ION    NA+46901  23.484  17.146  14.454
74477ION    NA+46902  23.156  14.009  11.816
74478ION    NA+46903  36.907   2.506  12.212
74479ION    NA+46904   6.475  15.474   2.459
74480ION    NA+46905  37.160   8.874   1.082
74481ION    NA+46906  30.620  15.110  13.871
74482ION    NA+46907   5.030  36.670  12.529
74483ION    NA+46908  24.397   8.220  14.319
74484ION    NA+46909  20.103  38.097  14.526
74485ION    NA+46910  16.376  32.432  11.165
74486ION    NA+46911  19.129  34.746  12.402
74487ION    NA+46912  35.813   8.496  14.046
74488ION    NA+46913  34.293  19.732   1.980
74489ION    NA+46914  17.140  19.092  13.288
74490ION    NA+46915  27.462  28.722  11.783
74491ION    NA+46916   4.619  26.139   2.800
74492ION    NA+46917  32.487  34.384  14.635
74493ION    NA+46918  36.402   9.637  12.059
74494ION    NA+46919  24.513  26.899   2.203
74495ION    NA+46920  19.623  40.105  13.300
74496ION    NA+46921  23.929  38.681   1.779
74497ION    NA+46922  37.773  31.085  13.614
74498ION    NA+46923  20.541  21.006   0.039
74499ION    NA+46924  11.359  42.002  14.232
74500ION    NA+46925  31.483  43.408  13.560
74501ION    NA+46926  12.097  23.736  14.358
74502ION    NA+46927  42.945  13.166  14.385
74503ION    NA+46928   9.396  24.621  11.138
74504ION    NA+46929  25.653   0.880  11.153
74505ION    NA+46930  29.123  28.136   0.501
74506ION    NA+46931   7.588  14.997   3.524
74507ION    NA+46932  42.583  39.857  13.449
74508ION    NA+46933  10.445  12.433  10.350
74509ION    NA+46934   4.926   8.799   0.493
74510ION    NA+46935  42.501   5.906  13.352
74511ION    NA+46936  43.400   4.366   3.121
74512ION    NA+46937  43.485  41.015  13.572
74513ION    NA+46938  43.847  36.928   1.144
74514ION    NA+46939  13.282  35.840   4.108
74515ION    NA+46940  21.293  17.614  12.739
74516ION    NA+46941  14.701  42.201   4.755
74517ION    NA+46942  38.465  10.551  10.307
74518ION    NA+46943  13.113  28.975   9.783
74519ION    NA+46944  28.390   9.617   0.526
74520ION    CL-46945  22.207  15.284   2.812
74521ION    CL-46946   7.841  20.486   3.258
74522ION    CL-46947  13.667  19.988   2.837
74523ION    CL-46948  44.194  14.596  13.012
74524ION    CL-46949   0.581  29.947   1.410
74525ION    CL-46950  37.866  32.633   1.359
74526ION    CL-46951  22.175  31.464  12.854
74527ION    CL-46952  15.497   5.944   4.462
74528ION    CL-46953  26.561   9.990   9.808
74529ION    CL-46954  41.283   3.198  12.440
74530ION    CL-46955  28.383  24.022   2.195
74531ION    CL-46956  19.659  12.097   1.813
74532ION    CL-46957  10.484  26.324   3.419
74533ION    CL-46958  24.442  22.530   5.081
74534ION    CL-46959  16.375  17.018   1.378
74535ION    CL-46960   9.377  37.742   4.884
74536ION    CL-46961  13.797  12.887  13.048
74537ION    CL-46962  19.190  13.854   1.981
74538ION    CL-46963   9.330  35.908  13.466
74539ION    CL-46964  20.650  34.713  10.972
74540ION    CL-46965  10.139  12.364  14.378
74541ION    CL-46966  40.768   3.019  14.439
74542ION    CL-46967  30.412  11.295   1.325
74543ION    CL-46968  12.604  22.037   5.314
74544ION    CL-46969   6.218  42.961  13.440
74545ION    CL-46970  18.629   0.395   3.544
74546ION    CL-46971  24.758  12.192   5.013
74547ION    CL-46972   0.073  10.669  11.928
74548ION    CL-46973   2.130   9.890   0.764
74549ION    CL-46974  30.521  10.421  14.054
74550ION    CL-46975  24.800  21.606  13.212
74551ION    CL-46976  38.654  41.332  10.265
74552ION    CL-46977  41.072  10.432   3.283
74553ION    CL-46978  28.560  10.265   3.684
74554ION    CL-46979  27.752   2.086   0.203
74555ION    CL-46980  27.453  15.502   1.579
74556ION    CL-46981  11.370  32.009  12.385
74557ION    CL-46982  27.888  27.372   2.131
74558ION    CL-46983  12.368  18.988  14.589
74559ION    CL-46984  25.537  21.511  12.210
74560ION    CL-46985  43.086  44.986   2.686
74561ION    CL-46986  32.468  16.298  12.173
74562ION    CL-46987  27.686  10.309  11.479
74563ION    CL-46988  20.628  31.701  12.954
74564ION    CL-46989  22.900  41.943  14.055
74565ION    CL-46990  44.664  34.148   5.057
74566ION    CL-46991  35.956   8.112   3.261
74567ION    CL-46992  16.251  18.140  13.442
74568ION    CL-46993  38.725   0.839  13.478
74569ION    CL-46994  26.127  14.399   1.940
74570ION    CL-46995   0.102  24.577  12.377
74571ION    CL-46996  40.929  18.415  11.275
74572ION    CL-46997   6.912   0.973   1.358
74573ION    CL-46998  30.359  21.194  11.523
74574ION    CL-46999  22.688  31.491   1.414
74575ION    CL-47000  43.445  17.406  12.059
74576ION    CL-47001  36.258  19.653   2.722
74577ION    CL-47002   1.890  25.468   0.111
74578ION    CL-47003  26.480   4.806   0.760
74579ION    CL-47004  40.748  37.323   3.548
74580ION    CL-47005  18.617  12.470   9.954
74581ION    CL-47006   7.839  12.856  10.721
74582ION    CL-47007  16.302  34.813   1.092
74583ION    CL-47008   4.510  32.117   3.569
74584ION    CL-47009   6.448  23.581   0.926
74585ION    CL-47010  32.209  31.860  13.953
74586ION    CL-47011  39.374   3.705   2.332
74587ION    CL-47012  31.977  39.092   0.018
74588ION    CL-47013  10.682  22.781   0.830
74589ION    CL-47014  25.924  14.849   1.070
74590ION    CL-47015  43.749  17.900  14.669
74591ION    CL-47016  12.682  34.471   3.708
74592ION    CL-47017   9.770  37.160   4.172
74593ION    CL-47018   4.947  13.330  12.182
74594ION    CL-47019  22.975  35.456   4.038
74595ION    CL-47020  14.812  35.450  11.494
74596ION    CL-47021   0.363  18.198   2.163
74597ION    CL-47022  13.165  22.346  14.914
74598ION    CL-47023  40.770   5.521   2.624
74599ION    CL-47024  11.181  30.730   3.172
74600ION    CL-47025  17.001  35.509   3.089
74601ION    CL-47026   0.879  26.724   0.647
74602ION    CL-47027   3.071  14.549  10.730
74603ION    CL-47028  34.307  19.704   2.438
74604ION    CL-47029  19.806  32.291   4.853
74605ION    CL-47030  35.462  15.703  14.106
74606ION    CL-47031  37.437   9.127   1.321
74607ION    CL-47032  25.985  18.226   0.431
74608ION    CL-47033   5.340  43.227  14.963
74609ION    CL-47034  23.440  32.156  14.736
74610ION    CL-47035  12.265   4.873   0.252
74611ION    CL-47036  44.336  43.518   1.414
74612ION    CL-47037   8.577   1.362   2.415
74613ION    CL-47038  39.334  35.626  14.807
74614ION    CL-47039  41.324  39.014  13.396
74615ION    CL-47040  27.187  19.343   1.924
74616ION    CL-47041   3.844  19.793  14.311
74617ION    CL-47042  23.661  12.079  12.293
74618ION    CL-47043  13.866  10.954  11.085
74619ION    CL-47044  36.118   7.392  11.538
74620ION    CL-47045  40.678   8.143  10.866
74621ION    CL-47046   9.207  43.433  12.495
74622ION    CL-47047  41.557  11.062  12.416
74623ION    CL-47048   4.788   5.822  14.738
74624ION    CL-47049   8.111  28.554   1.385
74625ION    CL-47050   9.514  39.992   1.045
74626ION    CL-47051  27.419   4.156  14.252
74627ION    CL-47052  35.281  34.257   1.140
74628ION    CL-47053  39.655  21.101   2.927
74629ION    CL-47054  35.050  20.683  14.618
74630ION    CL-47055  12.759  17.857  12.964
74631ION    CL-47056   8.010  24.089  12.953
74632ION    CL-47057  20.537  36.670   4.796
74633ION    CL-47058  43.782  35.447   4.126
74634ION    CL-47059   2.918   9.536   4.432
74635ION    CL-47060  14.128  34.972  13.900
74636ION    CL-47061  31.784   8.435   0.659
74637ION    CL-47062  26.118  34.601   0.347
74638ION    CL-47063  24.922  12.612   3.664
74639ION    CL-47064   0.483  22.318  13.829
74640ION    CL-47065  40.050   8.553   4.744
74641ION    CL-47066  44.432  22.560  13.544
74642ION    CL-47067  42.518  21.079  10.666
74643ION    CL-47068  18.435  43.703  11.554
74644ION    CL-47069  11.731  18.593   1.796
74645ION    CL-47070   2.865   2.812   0.762
74646ION    CL-47071  26.982  25.997   3.839
74647ION    CL-47072  44.340  23.096   2.582
74648ION    CL-47073   1.544  44.838   1.848
74649ION    CL-47074  24.345   5.454   2.670
74650ION    CL-47075  31.673  25.409  10.628
74651ION    CL-47076  10.392   4.451  12.039
74652ION    CL-47077   3.074  17.095   4.545
74653ION    CL-47078  27.555  13.717   0.665
74654ION    CL-47079  22.485  23.466  12.995
74655ION    CL-47080   6.941   9.712   2.258
74656ION    CL-47081  42.254  41.424   4.519
74657ION    CL-47082  17.194  13.821   4.124
74658ION    CL-47083  44.838  20.209  10.305
74659ION    CL-47084  19.482   4.202  13.095
74660ION    CL-47085   0.749  15.543   3.592
74661ION    CL-47086  18.031  14.557   3.272
74662ION    CL-47087  17.546  18.954   1.685
74663ION    CL-47088  39.278  23.167   3.985
74664ION    CL-47089  25.339  20.003   5.062
74665ION    CL-47090   1.847   3.559   4.028
74666ION    CL-47091  13.409  23.100  13.809
74667ION    CL-47092  13.955  18.842  11.087
74668ION    CL-47093   8.948  25.717  11.111
74669ION    CL-47094   0.845  23.152  12.915
74670ION    CL-47095  42.238  10.285   1.154
74671ION    CL-47096   8.393  38.817   3.475
74672ION    CL-47097  27.417  33.343  10.038
74673ION    CL-47098   3.995  14.655  13.031
74674ION    CL-47099  10.376  40.130   0.410
74675ION    CL-47100  17.575  42.218  13.928
74676ION    CL-47101  18.640  16.918  13.023
74677ION    CL-47102  42.165  28.029  12.294
74678ION    CL-47103  42.910  20.561   3.667
74679ION    CL-47104  43.790   4.254   1.834
74680ION    CL-47105  44.794  17.152  11.373
74681ION    CL-47106  34.381  38.911   3.143
74682ION    CL-47107  15.297  24.285   3.194
74683ION    CL-47108   5.261  25.168  10.630
74684ION    CL-47109  19.459  40.060  13.724
74685ION    CL-47110  13.712  20.746  11.202
74686ION    CL-47111  35.335   7.617   2.237
74687ION    CL-47112  20.309  27.766  11.756
74688ION    CL-47113  17.033   4.614   2.948
74689ION    CL-47114   3.304  34.986  11.454
74690ION    CL-47115  24.557  42.477   0.030
74691ION    CL-47116  19.691   0.632  14.642
74692ION    CL-47117  15.780  28.273   5.255
74693ION    CL-47118  35.629  21.608  14.209
74694ION    CL-47119  33.051  21.517   2.924
74695ION    CL-47120  17.846  38.294  12.533
74696ION    CL-47121  35.940  15.818  13.235
74697ION    CL-47122  10.284   9.172  10.043
74698ION    CL-47123  41.836  28.134   1.800
74699ION    CL-47124  34.033  21.063   3.232
74700ION    CL-47125  37.344  30.656   1.013
74701ION    CL-47126  42.893  25.732   3.683
74702ION    CL-47127  13.406   7.364  13.495
74703ION    CL-47128  29.933  27.441  11.600
74704ION    CL-47129   7.445  39.879  13.968
74705ION    CL-47130   7.624   0.540  10.801
74706ION    CL-47131  38.748  23.495   9.692
74707ION    CL-47132   2.007   5.597  11.983
74708ION    CL-47133  34.837  37.546   2.866
74709ION    CL-47134  39.076  28.567   1.662
74710ION    CL-47135  17.437   5.807  13.482
74711ION    CL-47136  21.926  41.364  11.378
74712ION    CL-47137  41.374  27.447  12.524
74713ION    CL-47138  44.792  20.914   2.896
74714ION    CL-47139  20.472  40.077   1.582
74715ION    CL-47140  44.923   3.481  11.484
74716ION    CL-47141  24.133  18.364  14.370
74717ION    CL-47142  24.261  39.882   1.423
74718ION    CL-47143  29.465  19.633  13.363
74719ION    CL-47144   0.208  38.836   2.631
74720ION    CL-47145  11.365  26.918  14.600
74721ION    CL-47146  41.435  13.651   3.755
74722ION    CL-47147  23.881  25.061  13.402
74723ION    CL-47148  10.975  38.721  11.501
74724ION    CL-47149  21.738  27.295   0.329
74725ION    CL-47150  26.068  30.547   3.263
74726ION    CL-47151   0.643  44.151  12.514
74727ION    CL-47152   1.065  43.356  10.270
74728ION    CL-47153  44.710  40.967  12.259
74729ION    CL-47154  30.648  39.176   1.837
74730ION    CL-47155  30.818   5.533  12.331
74731ION    CL-47156  24.361  25.037  11.812
74732ION    CL-47157  22.074  24.317   1.785
74733ION    CL-47158  22.991   3.633  13.632
74734ION    CL-47159  22.500  11.633  13.952
74735ION    CL-47160  27.455  14.045   1.989
74736ION    CL-47161  38.604  38.929  11.549
74737ION    CL-47162  33.046   6.812  11.584
74738ION    CL-47163  37.253  10.715  11.178
74739ION    CL-47164  20.078  18.793  11.184
74740ION    CL-47165  41.174  34.064   1.872
74741ION    CL-47166  14.966   7.550   0.958
74742ION    CL-47167   1.262   2.877   3.968
74743ION    CL-47168  26.426  32.023   2.685
74744ION    CL-47169  42.575   6.129  14.612
74745ION    CL-47170  11.760  14.226  14.811
74746ION    CL-47171  32.430  32.182   0.677
74747ION    CL-47172  20.590  25.923  12.363
74748ION    CL-47173  23.031   5.545  10.100
74749ION    CL-47174  41.724   7.579  13.866
74750ION    CL-47175  38.864  28.852   4.115
74751ION    CL-47176  22.435  27.909   4.122
74752ION    CL-47177  18.685  12.633   3.948
74753ION    CL-47178   5.803  43.206  12.096
74754ION    CL-47179   8.853   2.349   3.759
74755ION    CL-47180  24.088  25.501  14.839
74756ION    CL-47181  18.514  43.498  12.759
74757ION    CL-47182  22.994  31.027   2.484
74758ION    CL-47183   3.671   9.734  14.911
74759ION    CL-47184  32.212  11.718   3.766
74760ION    CL-47185  30.060  41.043  10.423
74761ION    CL-47186  41.899  13.674  12.644
74762ION    CL-47187  10.761  34.722   0.877
74763ION    CL-47188   6.373   0.973  12.089
74764ION    CL-47189  35.493  24.278   2.192
74765ION    CL-47190  29.121  14.000  14.593
74766ION    CL-47191   2.722  26.217   3.500
74767ION    CL-47192   5.368  40.601  13.139
74768ION    CL-47193  35.711  42.734   1.863
74769ION    CL-47194  12.145  18.857   4.750
74770ION    CL-47195  33.085  41.491   0.699
74771ION    CL-47196  25.027  10.010   3.061
74772ION    CL-47197  15.937  27.822  14.177
74773ION    CL-47198  41.001  16.351   0.323
74774ION    CL-47199  28.424  41.954  10.925
74775ION    CL-47200   8.249  17.423  13.704
74776ION    CL-47201  23.932  43.029  13.762
74777ION    CL-47202  25.552  29.999  13.370
74778ION    CL-47203  17.941   1.925  14.449
74779ION    CL-47204  41.216  35.062  13.444
74780ION    CL-47205  13.355  25.343  10.087
74781ION    CL-47206  17.434  21.987  14.887
74782ION    CL-47207  40.339  43.707  10.564
74783ION    CL-47208  21.407  21.196  13.077
74784ION    CL-47209   1.864  35.793   3.284
74785ION    CL-47210  20.996  11.996   2.292
74786ION    CL-47211  35.328  21.009   2.399
74787ION    CL-47212  23.395  11.368  11.490
74788ION    CL-47213  40.903  43.595   5.033
74789ION    CL-47214  12.681  20.014  14.050
74790ION    CL-47215   5.036  28.575   2.209
74791ION    CL-47216  28.402  14.397  14.751
74792ION    CL-47217  19.508  37.041  11.646
74793ION    CL-47218  12.079  43.305   2.343
74794ION    CL-47219   7.055  44.034   2.808
74795ION    CL-47220  23.949  17.352   2.438
74796ION    CL-47221  11.942  33.859  10.387
74797ION    CL-47222  27.703  42.772   0.804
74798ION    CL-47223  23.157  28.623   1.888
74799ION    CL-47224   6.599  15.397   2.035
74800ION    CL-47225  19.640  12.462   2.764
74801ION    CL-47226  16.877  35.884   4.385
74802ION    CL-47227  34.403   5.739  10.747
74803ION    CL-47228   8.676  11.764  12.568
74804ION    CL-47229   4.304  26.806   0.801
74805ION    CL-47230  37.314  39.899   2.852
74806ION    CL-47231  29.050   0.135  14.988
74807ION    CL-47232  10.740   7.956  10.267
74808ION    CL-47233  31.592  22.584  10.702
74809ION    CL-47234   0.286  14.200  11.552
74810ION    CL-47235  25.854   1.101   1.398
74811ION    CL-47236  43.844  12.238   1.516
74812ION    CL-47237  13.018  26.443  12.723
74813ION    CL-47238  26.125  20.980  13.606
74814ION    CL-47239  43.897  35.031  12.736
74815ION    CL-47240  25.535  20.206  14.291
74816ION    CL-47241  36.371  22.876  10.596
74817ION    CL-47242  28.554  30.851   1.450
74818ION    CL-47243  36.094  42.372   5.041
74819ION    CL-47244  36.694  31.591   2.331
74820ION    CL-47245  31.977  27.400   3.239
74821ION    CL-47246  41.380   6.821   3.730
74822ION    CL-47247   0.232  25.539   0.345
74823ION    CL-47248  24.674  26.484   2.142
74824ION    CL-47249  31.603  24.823   4.802
74825ION    CL-47250  33.435  10.170  14.793
74826ION    CL-47251  37.616  16.339   0.739
74827ION    CL-47252  19.221  14.160  12.824
74828ION    CL-47253  22.607  24.920  10.339
74829ION    CL-47254  15.344  28.041   0.876
74830ION    CL-47255  43.087  29.530   0.423
74831ION    CL-47256  21.095  24.019  13.188
74832ION    CL-47257   4.593  16.090   3.966
74833ION    CL-47258  22.138  16.746   2.421
74834ION    CL-47259  20.702  39.158   0.478
74835ION    CL-47260  44.307  20.179   3.132
74836ION    CL-47261   9.160  42.830  13.292
74837ION    CL-47262  35.811  14.575   2.075
74838ION    CL-47263  15.370  24.008   0.582
74839ION    CL-47264   1.020   9.207  10.369
74840ION    CL-47265  37.250  22.401  10.645
74841ION    CL-47266  34.572  25.225   1.936
74842ION    CL-47267  42.384  31.708   3.927
74843ION    CL-47268  21.241  34.301  14.409
74844ION    CL-47269  22.569  44.902  12.579
74845ION    CL-47270  22.016   8.428  14.364
74846ION    CL-47271  23.790  33.526   1.878
74847ION    CL-47272  36.861  16.832   2.771
74848ION    CL-47273  35.333  12.191  12.580
74849ION    CL-47274  34.562  39.037   1.265
74850ION    CL-47275   3.014  43.883  12.074
74851ION    CL-47276  39.354  26.292   3.958
74852ION    CL-47277   5.952   5.246   3.898
74853ION    CL-47278  16.656  21.533  11.674
74854ION    CL-47279  39.494  42.466  10.670
74855ION    CL-47280   1.443  42.528   0.846
74856ION    CL-47281  31.826  10.894   1.882
74857ION    CL-47282  14.060  18.151   1.319
74858ION    CL-47283   1.438  22.454   3.245
74859ION    CL-47284  30.717  35.900  12.889
74860ION    CL-47285  20.293  23.503   4.111
74861ION    CL-47286   9.042   8.487  14.514
74862ION    CL-47287  36.905  32.610  10.661
74863ION    CL-47288   8.752  33.931   2.577
74864ION    CL-47289  12.855   9.348  11.328
74865ION    CL-47290  16.078  22.649  11.138
74866ION    CL-47291   2.929  29.819  11.505
74867ION    CL-47292   1.049  17.603   5.032
74868ION    CL-47293   3.337  43.474   1.336
74869ION    CL-47294  11.069  10.112  12.582
74870ION    CL-47295  39.770  31.033  10.645
74871ION    CL-47296   1.958  44.730  13.085
74872ION    CL-47297  33.421  41.671   4.157
74873ION    CL-47298   4.852  25.991   4.091
74874ION    CL-47299   6.198  16.820  14.460
74875ION    CL-47300  28.267  31.926   1.424
74876ION    CL-47301  35.172  36.375   2.599
74877ION    CL-47302   3.450   3.397  12.046
74878ION    CL-47303  13.457  41.938   4.397
74879ION    CL-47304  32.442  15.386  11.057
74880ION    CL-47305  28.541  37.199   2.212
74881ION    CL-47306  25.166   5.414   1.719
74882ION    CL-47307  14.047   1.046   1.854
74883ION    CL-47308  11.260  44.191   1.313
74884ION    CL-47309   0.392   1.972   0.938
74885ION    CL-47310  19.537  44.880  12.405
74886ION    CL-47311  36.436  43.754  12.577
74887ION    CL-47312  19.791  14.748  10.847
74888ION    CL-47313  42.901  37.426  14.933
74889ION    CL-47314  39.860  16.105  12.968
74890ION    CL-47315  37.237   0.555   2.358
74891ION    CL-47316   5.349   8.579  14.300
74892ION    CL-47317  27.512  44.910   5.126
74893ION    CL-47318  44.208  25.317  12.233
74894ION    CL-47319  37.622  24.194  13.024
74895ION    CL-47320  24.674  14.919   0.339
74896ION    CL-47321  27.639  28.788  11.373
74897ION    CL-47322  38.773  18.119  13.702
74898ION    CL-47323   7.808  19.889   1.403
74899ION    CL-47324  42.448  17.280   2.192
74900ION    CL-47325  17.046  44.687   3.237
74901ION    CL-47326  38.525  23.162   0.734
74902ION    CL-47327  14.800  28.105  13.682
74903ION    CL-47328  43.932  18.495   2.448
74904ION    CL-47329  39.848   1.058   1.704
74905ION    CL-47330   0.745  39.023   3.319
74906ION    CL-47331  12.466  25.736   0.702
74907ION    CL-47332   9.684  40.539   4.175
74908ION    CL-47333   9.836  39.866   5.095
74909ION    CL-47334  26.524  21.660  12.146
74910ION    CL-47335  16.313  41.564   4.421
74911ION    CL-47336  36.805  12.624  12.031
74912ION    CL-47337  43.489  42.116   4.118
74913ION    CL-47338  31.966  19.126   0.491
74914ION    CL-47339  17.170  10.441  13.022
74915ION    CL-47340  14.429  17.585  12.104
74916ION    CL-47341   9.387  26.127   0.387
74917ION    CL-47342  18.594   1.617   4.055
74918ION    CL-47343  36.926  12.219   2.235
74919ION    CL-47344  33.738   6.433   0.319
74920ION    CL-47345  39.226  14.309   2.259
74921ION    CL-47346  38.652   7.200   3.390
74922ION    CL-47347  33.104   4.628   1.660
74923ION    CL-47348  19.525   0.100  13.812
74924ION    CL-47349  13.052  29.159   1.813
74925ION    CL-47350   9.956  32.063  13.473
74926ION    CL-47351  12.630   5.631   3.278
74927ION    CL-47352  41.626  31.922  12.247
74928ION    CL-47353  42.148  38.362   1.095
74929ION    CL-47354  31.651  30.304   3.303
74930ION    CL-47355  28.184  22.093  11.909
74931ION    CL-47356   9.890  38.115  12.085
74932ION    CL-47357  35.441   0.842   0.063
74933ION    CL-47358  28.222   0.807  14.743
74934ION    CL-47359  24.941  39.804   4.690
74935ION    CL-47360  19.905  37.109   0.693
74936ION    CL-47361   1.441  18.176  13.541
74937ION    CL-47362  42.821  28.261  11.572
74938ION    CL-47363   1.985  28.928   4.550
74939ION    CL-47364  36.020  18.231  13.496
74940ION    CL-47365  15.937  25.462  14.055
74941ION    CL-47366  30.942  44.561   0.319
74942ION    CL-47367   6.245  17.349   2.200
74943ION    CL-47368  11.405  21.624   3.735
74944ION    CL-47369  14.841  36.836   3.102
74945ION    CL-47370  30.314  38.267  14.175
74946ION    CL-47371  37.570  16.753  12.925
74947ION    CL-47372   1.303  40.054  13.114
74948ION    CL-47373  43.026  43.150   4.370
74949ION    CL-47374  28.492   2.043   2.794
74950ION    CL-47375  26.035  31.131  11.337
74951ION    CL-47376  42.614  12.698  12.282
74952ION    CL-47377  36.052   8.537   1.449
74953ION    CL-47378   2.033  13.026   0.735
74954ION    CL-47379  25.680  32.436   4.592
74955ION    CL-47380  36.021  17.148  11.770
74956ION    CL-47381   3.322   3.568  13.045
74957ION    CL-47382  34.287   2.613   2.129
74958ION    CL-47383  37.097   3.074   4.837
74959ION    CL-47384  27.495  31.364   3.624
74960ION    CL-47385  29.359  31.179   4.954
74961ION    CL-47386  33.443  42.492   0.933
74962ION    CL-47387   9.916  21.741  14.981
74963ION    CL-47388  31.294  33.762  13.279
74964ION    CL-47389  18.421  41.959   1.906
74965ION    CL-47390   4.055  37.521   0.986
74966ION    CL-47391  27.713  30.434  14.267
74967ION    CL-47392  43.168  41.050  13.887
74968ION    CL-47393  44.296  10.278   3.280
74969ION    CL-47394  23.225  24.465  13.186
74970ION    CL-47395  27.730  20.479  14.807
74971ION    CL-47396   5.559   4.698  14.151
74972ION    CL-47397   1.749  14.607   4.534
74973ION    CL-47398  37.869  24.922  13.745
74974ION    CL-47399   9.247   7.431   3.654
74975ION    CL-47400  24.207  35.659   0.943
74976ION    CL-47401   1.819  15.075  10.475
74977ION    CL-47402   7.010  39.525   0.404
74978ION    CL-47403  19.869  30.528   3.478
74979ION    CL-47404  15.849  42.871  11.138
74980ION    CL-47405   0.613  37.447  14.724
74981ION    CL-47406   5.098   3.479  13.904
74982ION    CL-47407  17.742   4.190   2.384
74983ION    CL-47408  40.084  17.583  14.845
74984ION    CL-47409  23.713  44.233   1.738
74985ION    CL-47410  39.284  42.949  13.335
74986ION    CL-47411  43.815  42.578  12.089
74987ION    CL-47412  17.364  39.499  13.742
74988ION    CL-47413  44.217  17.532  12.455
74989ION    CL-47414  35.991  28.250   1.492
74990ION    CL-47415  11.902  40.292   3.549
74991ION    CL-47416   8.336   1.371   4.290
74992ION    CL-47417  24.825  23.346   4.780
74993ION    CL-47418  38.438  10.028   2.013
74994ION    CL-47419  23.076  12.053  14.653
74995ION    CL-47420  23.986  39.449   0.280
74996ION    CL-47421  22.051  25.647   0.705
74997ION    CL-47422  18.819  35.389   3.687
74998ION    CL-47423   3.059  16.423   0.149
74999ION    CL-47424   4.021  23.012   2.681
75000ION    CL-47425  13.434  22.491   4.971
75001ION    CL-47426   3.334   9.020   1.281
75002ION    CL-47427   2.553  15.265  12.689
75003ION    CL-47428  14.078  33.406   2.545
75004ION    CL-47429   3.981  21.616  14.403
75005ION    CL-47430  25.619   7.833   1.133
75006ION    CL-47431  32.993  39.211  13.016
75007ION    CL-47432  19.089   8.452   0.011
75008ION    CL-47433  25.939  17.150   3.856
75009ION    CL-47434  30.869  10.526   0.878
75010ION    CL-47435   2.730  20.666  12.593
75011ION    CL-47436  21.222  40.444   1.989
75012ION    CL-47437  17.593  41.392   1.218
75013ION    CL-47438  23.016  25.650   1.784
75014ION    CL-47439  39.301   4.104   4.122
75015ION    CL-47440  17.226   3.128   5.265
75016ION    CL-47441  35.127  13.805   3.953
75017ION    CL-47442  15.932  15.410   3.046
75018ION    CL-47443  20.024  40.607  12.682
75019ION    CL-47444   1.357  22.438  12.330
75020ION    CL-47445   3.705   8.721  13.891
75021ION    CL-47446  12.440   7.799   4.132
75022ION    CL-47447  25.315  34.770  14.932
75023ION    CL-47448  14.740  31.570  10.614
75024ION    CL-47449   4.416  16.923   4.621
75025ION    CL-47450  33.868  31.180   1.970
75026ION    CL-47451  18.830  26.982   3.329
75027ION    CL-47452  10.692  35.428   5.314
75028ION    CL-47453  18.791  23.740   2.598
75029ION    CL-47454  42.311  42.811  14.704
75030ION    CL-47455  22.636  14.598   1.773
75031ION    CL-47456  22.001  32.615   3.706
75032ION    CL-47457  27.958  12.823  14.465
75033ION    CL-47458  12.365  42.973  13.830
75034ION    CL-47459  42.569  26.991  13.427
75035ION    CL-47460  39.050  33.136   0.674
75036ION    CL-47461  12.752   2.851   1.236
75037ION    CL-47462   1.175  20.081  11.989
75038ION    CL-47463   9.614  36.017  11.472
75039ION    CL-47464  15.379  34.756  10.438
75040ION    CL-47465  34.299  12.775   3.747
75041ION    CL-47466  31.458  41.953  13.681
75042ION    CL-47467  41.096   8.231   3.367
75043ION    CL-47468  30.501   8.828  11.722
75044ION    CL-47469  43.694  34.494  13.582
75045ION    CL-47470  32.278   6.171  11.615
75046ION    CL-47471  21.068   7.795   0.017
75047ION    CL-47472   4.356  42.321   3.504
75048ION    CL-47473  42.295  26.415   2.832
75049ION    CL-47474  36.322  40.054   4.571
75050ION    CL-47475  27.071   5.691  10.958
75051ION    CL-47476  16.486  12.754  12.404
75052ION    CL-47477  23.328   8.575   5.360
75053ION    CL-47478   4.931  22.408   1.189
75054ION    CL-47479  17.590  26.572   1.988
75055ION    CL-47480  21.988   4.894  11.677
75056ION    CL-47481  10.615  32.831   0.348
75057ION    CL-47482  15.527  38.075   4.911
75058ION    CL-47483   3.212  41.491  14.338
75059ION    CL-47484  13.197  37.456  12.943
75060ION    CL-47485  43.219  10.877   0.354
75061ION    CL-47486  12.903   4.513  12.013
75062ION    CL-47487  39.609  34.671  14.915
75063ION    CL-47488  13.154  20.584  14.721
75064ION    CL-47489  22.856  23.716   2.114
75065ION    CL-47490   2.521  28.015   1.408
75066ION    CL-47491   4.983  12.796   0.997
75067ION    CL-47492  34.078  16.181   1.431
75068ION    CL-47493  12.567  11.533  10.742
75069ION    CL-47494  28.687  39.122  12.404
75070ION    CL-47495   2.460  10.171   1.788
75071ION    CL-47496  33.400  26.852   4.273
75072ION    CL-47497  23.458   7.607   1.838
75073ION    CL-47498  33.456   7.773   1.271
75074ION    CL-47499   7.749  34.350  13.147
75075ION    CL-47500   4.898  22.319  13.920
75076ION    CL-47501  14.222  34.329   3.586
75077ION    CL-47502  37.035  33.489  12.999
75078ION    CL-47503  16.085   9.351  11.726
75079ION    CL-47504  19.003   1.171   4.851
75080ION    CL-47505  37.586   6.130  11.128
75081ION    CL-47506   1.868  21.672  11.409
75082ION    CL-47507  29.078  40.295  14.709
75083ION    CL-47508  43.950  10.763   1.220
75084ION    CL-47509  36.105  30.686   1.441
75085ION    CL-47510  23.118  33.217   4.997
75086ION    CL-47511  17.329  17.711  12.864
75087ION    CL-47512   4.834   3.409   3.271
75088ION    CL-47513  44.380  23.544  14.220
75089ION    CL-47514   7.241  26.391  13.534
75090ION    CL-47515  28.437  11.630   3.098
75091ION    CL-47516  37.344   0.995   1.574
75092ION    CL-47517   4.343   0.056  14.826
75093ION    CL-47518  27.713  18.433  13.470
75094ION    CL-47519  44.615  10.696  13.435
75095ION    CL-47520  32.646   1.643   2.791
75096ION    CL-47521   4.702  13.245  11.195
75097ION    CL-47522  43.839  23.757  13.332
75098ION    CL-47523   9.190  16.311   2.819
75099ION    CL-47524  36.681  31.397  13.039
75100ION    CL-47525  17.441  33.417  12.813
75101ION    CL-47526   4.188  25.410   4.034
75102ION    CL-47527  11.977   1.179   3.762
75103ION    CL-47528  14.043  25.120   1.628
75104ION    CL-47529  41.259  11.122   0.317
75105ION    CL-47530  17.072  33.324   5.182
75106ION    CL-47531  26.385  33.041  12.420
75107ION    CL-47532  30.890   5.411   1.903
75108ION    CL-47533  22.189  17.009  14.832
75109ION    CL-47534  26.568  38.078  12.270
75110ION    CL-47535  34.845  32.434  12.929
75111ION    CL-47536  44.275  44.321  13.961
75112ION    CL-47537  11.551  32.854  14.791
75113ION    CL-47538  27.102  24.999  13.171
75114ION    CL-47539  41.854  24.106   2.392
75115ION    CL-47540  26.932   5.823   3.738
75116ION    CL-47541  26.628  38.108  14.664
75117ION    CL-47542   7.813   4.387   2.969
75118ION    CL-47543  20.108   6.239  11.930
75119ION    CL-47544   4.201  27.415   1.763
75120ION    CL-47545  42.229  38.782  11.932
75121ION    CL-47546  15.602   7.828  13.888
75122ION    CL-47547  24.516   8.387   3.210
75123ION    CL-47548  25.642   4.728   0.381
75124ION    CL-47549   3.429  35.152   5.135
75125ION    CL-47550  26.735  20.327  13.393
75126ION    CL-47551  37.343  26.151   2.353
75127ION    CL-47552  18.719  26.041   0.203
75128ION    CL-47553   3.698  40.010   2.284
75129ION    CL-47554  23.158  43.725  11.844
75130ION    CL-47555  41.829  42.155  12.467
75131ION    CL-47556   4.610  36.812  12.481
75132ION    CL-47557  35.727  27.045  11.605
75133ION    CL-47558  36.003  27.563   2.079
75134ION    CL-47559  33.960  32.267   2.231
75135ION    CL-47560  18.425  16.070  13.875
75136ION    CL-47561  11.263  24.018  10.867
75137ION    CL-47562  42.015  14.256  10.740
75138ION    CL-47563  27.532  16.488  13.519
75139ION    CL-47564  19.544  10.286  11.148
75140ION    CL-47565  23.806  23.630   0.930
75141ION    CL-47566  14.574  18.775  11.876
75142ION    CL-47567  44.282   2.718  11.391
75143ION    CL-47568   1.927  37.488  11.766
75144ION    CL-47569  43.387  37.400   2.690
75145ION    CL-47570  18.553   0.283  12.511
75146ION    CL-47571  27.832  38.450  12.367
75147ION    CL-47572  33.436  42.366  12.193
75148ION    CL-47573  31.849  21.160  13.444
75149ION    CL-47574   9.473   1.904   4.600
75150ION    CL-47575  21.385  25.457  11.220
75151ION    CL-47576  44.203  38.360  12.422
75152ION    CL-47577   3.753  34.024  14.940
75153ION    CL-47578  14.218  32.732  12.033
75154ION    CL-47579  38.613  42.076  12.065
75155ION    CL-47580   1.252  24.060   4.557
75156ION    CL-47581  23.823  38.467  13.875
75157ION    CL-47582  43.885  30.378   1.145
75158ION    CL-47583  42.112  33.817  13.101
75159ION    CL-47584   3.489   5.214   2.163
75160ION    CL-47585  13.021  43.046  12.527
75161ION    CL-47586  22.008  15.113  11.099
75162ION    CL-47587  10.909  19.443  11.846
75163ION    CL-47588  26.353  20.526  14.828
75164ION    CL-47589  31.194  43.500   5.017
75165ION    CL-47590  24.039  22.068  13.417
75166ION    CL-47591  21.328  14.363  13.900
75167ION    CL-47592  25.240  19.189  12.454
75168ION    CL-47593  15.635   1.876   2.132
75169ION    CL-47594  11.550  41.051   3.224
75170ION    CL-47595  42.638  26.179  12.068
75171ION    CL-47596  30.088   8.213  12.600
75172ION    CL-47597   4.743  44.688   1.300
75173ION    CL-47598  41.639  25.807   2.783
75174ION    CL-47599  16.062   8.537  11.315
75175ION    CL-47600   3.417  39.370   0.866
75176ION    CL-47601  30.637  22.269  10.759
75177ION    CL-47602  44.952  16.773   3.618
75178ION    CL-47603   2.457  38.253  12.133
75179ION    CL-47604  44.268  22.104   5.021
75180ION    CL-47605  42.133  32.919   0.747
75181ION    CL-47606  40.653   0.821   4.072
75182ION    CL-47607  42.819  44.023   2.724
75183ION    CL-47608  13.549  27.729  13.578
75184ION    CL-47609   5.194  34.251   1.186
75185ION    CL-47610  28.102  30.353   5.277
75186ION    CL-47611  11.945  26.508   2.728
75187ION    CL-47612  20.989  35.385   2.029
75188ION    CL-47613  34.351  23.982  10.264
75189ION    CL-47614  43.931  44.042  12.008
75190ION    CL-47615  29.846  43.843  12.751
75191ION    CL-47616  17.570  16.173  13.367
75192ION    CL-47617   9.444  42.935  11.139
75193ION    CL-47618  18.499  16.816  11.022
75194ION    CL-47619  36.023  29.738   1.134
75195ION    CL-47620  44.266   1.178  12.116
75196ION    CL-47621  12.719  17.800   3.661
75197ION    CL-47622  35.557   8.890   3.111
75198ION    CL-47623  15.839  24.723   2.477
75199ION    CL-47624   1.244  23.959   2.369
75200ION    CL-47625  36.535  34.306   2.414
75201ION    CL-47626   8.036  43.017   2.832
75202ION    CL-47627  44.768  14.313  14.171
75203ION    CL-47628  44.595  31.297   2.916
75204ION    CL-47629   1.056  20.063  13.770
75205ION    CL-47630   2.699  39.559  12.114
75206ION    CL-47631  18.462  29.767   3.200
75207ION    CL-47632  31.138  30.655  12.083
75208ION    CL-47633  11.455   1.099  14.276
75209ION    CL-47634  19.333  42.737  13.459
75210ION    CL-47635   3.519  24.932   1.121
75211ION    CL-47636  40.454  34.030  13.990
75212ION    CL-47637  32.614   3.294   0.684
75213ION    CL-47638  26.173  12.116  12.642
75214ION    CL-47639  11.399   1.956  13.297
75215ION    CL-47640  14.104   4.176   1.397
75216ION    CL-47641   9.639  21.484  11.103
75217ION    CL-47642  28.490  37.815  13.554
75218ION    CL-47643  39.746  33.905   4.831
75219ION    CL-47644  33.610   0.150  13.334
75220ION    CL-47645  17.229  40.514  14.350
75221ION    CL-47646  32.767  21.201  12.730
75222ION    CL-47647  25.162  25.387   3.175
75223ION    CL-47648  10.835  18.890   1.462
75224ION    CL-47649  11.903  24.363  12.620
75225ION    CL-47650   3.611  38.968  13.939
75226ION    CL-47651  25.568  25.922   2.309
75227ION    CL-47652   9.251  42.729   0.803
75228ION    CL-47653  21.753  29.862   1.296
75229ION    CL-47654  34.603  44.388   0.248
75230ION    CL-47655  33.500  23.078  11.932
75231ION    CL-47656  43.077  20.032  11.959
75232ION    CL-47657   2.333  40.241  12.497
75233ION    CL-47658  20.434  43.348   1.394
75234ION    CL-47659  32.651  28.605   1.952
75235ION    CL-47660  15.662  18.194   9.772
75236ION    CL-47661  27.890   0.786   5.034
75237ION    CL-47662  23.863  15.422  10.062
75238ION    CL-47663  43.505  39.642   1.975
75239ION    CL-47664   0.263   3.267  10.540
75240ION    CL-47665  29.227  31.880  12.645
75241ION    CL-47666  22.027  21.214  12.089
75242ION    CL-47667   0.127  39.112   4.279
75243ION    CL-47668  40.522   2.368   4.560
75244ION    CL-47669  38.862  27.065  12.933
75245ION    CL-47670   7.628   4.870   2.223
75246ION    CL-47671  26.294  19.281   1.795
75247ION    CL-47672  44.376  33.733  11.360
75248ION    CL-47673  36.430  38.584   2.122
75249ION    CL-47674   8.087  34.109   1.456
75250ION    CL-47675  14.187  22.536  10.314
75251ION    CL-47676  36.884  17.732  13.094
75252ION    CL-47677  38.450  28.560  10.397
75253ION    CL-47678  30.453   6.125   2.648
75254ION    CL-47679  27.088   8.753  11.525
75255ION    CL-47680   5.912   0.725   1.275
75256ION    CL-47681  13.408  15.139  12.373
75257ION    CL-47682  24.645   0.386   2.284
75258ION    CL-47683  36.334  14.276  14.251
75259ION    CL-47684  14.753  38.427  11.424
75260ION    CL-47685  15.004  30.363   1.989
75261ION    CL-47686  33.162  43.820  10.312
75262ION    CL-47687  30.446  38.633   3.785
75263ION    CL-47688   3.226  25.632   4.992
75264ION    CL-47689   7.513  26.285  12.550
75265ION    CL-47690  12.063  23.644   0.802
75266ION    CL-47691   1.803   4.136  10.789
75267ION    CL-47692  27.497  16.055   3.291
75268ION    CL-47693  15.407  24.290  11.196
75269ION    CL-47694   2.422  35.060   2.278
75270ION    CL-47695  34.726  35.347  14.589
75271ION    CL-47696  20.864  17.309   1.107
75272ION    CL-47697  20.188  28.283   0.849
75273ION    CL-47698  29.671  23.479  11.180
75274ION    CL-47699  29.623  29.942   3.430
75275ION    CL-47700  13.891   9.990   3.738
75276ION    CL-47701  34.495  19.766   1.574
75277ION    CL-47702  15.514   8.819  13.983
75278ION    CL-47703  42.603  28.894   4.808
75279ION    CL-47704  30.580  14.813   3.769
75280ION    CL-47705  10.664  37.323  12.888
75281ION    CL-47706  34.779   3.623   5.067
75282ION    CL-47707  41.961   5.379   1.937
75283ION    CL-47708  31.890  38.384  14.249
75284ION    CL-47709  39.159   7.273  12.375
75285ION    CL-47710   1.934  18.830   0.138
75286ION    CL-47711  40.469  20.577  14.454
75287ION    CL-47712  15.549   5.556   3.635
75288ION    CL-47713  14.566  20.537  10.997
75289ION    CL-47714  20.398  33.733  11.083
75290ION    CL-47715  36.863  28.613  14.973
75291ION    CL-47716   5.754  30.782   1.165
75292ION    CL-47717  16.148   2.724   1.384
75293ION    CL-47718  27.052  38.395  10.466
75294ION    CL-47719  37.681  23.748   4.288
75295ION    CL-47720   2.805  10.066   3.529
75296ION    CL-47721  20.172  37.615  11.560
75297ION    CL-47722   3.452  24.239   2.385
75298ION    CL-47723  32.971  23.564   1.885
75299ION    CL-47724  31.563  44.262   5.110
75300ION    CL-47725  38.460   9.622  14.047
75301ION    CL-47726  19.874   8.853   0.242
75302ION    CL-47727   7.126   5.193  10.458
75303ION    CL-47728  40.589   9.747   2.989
75304ION    CL-47729  18.409  10.734  12.432
75305ION    CL-47730  39.111  31.937  13.454
75306ION    CL-47731  15.321  22.009  14.514
75307ION    CL-47732  26.923  36.811   1.077
75308ION    CL-47733  44.377  33.844  14.208
75309ION    CL-47734   3.187  15.221  14.305
75310ION    CL-47735  27.640  33.647   3.821
75311ION    CL-47736   5.364   1.362   1.867
75312ION    CL-47737   9.041  13.717   0.642
75313ION    CL-47738  13.825  11.807  10.783
75314ION    CL-47739  27.544   2.665   1.919
75315ION    CL-47740  33.751   2.144   5.052
75316ION    CL-47741  19.720  21.201   3.210
75317ION    CL-47742  29.517   9.631   2.943
75318ION    CL-47743  19.971  38.083   2.901
75319ION    CL-47744  33.141   3.690  11.024
75320ION    CL-47745  24.426   6.717  13.913
75321ION    CL-47746   1.210  13.575   0.845
75322ION    CL-47747  12.707  10.838  14.505
75323ION    CL-47748  16.534  17.169  13.630
75324ION    CL-47749   0.047  31.268  14.935
75325ION    CL-47750  40.679  27.791   1.966
75326ION    CL-47751  38.760  12.341   1.712
75327ION    CL-47752  40.164  40.508   0.663
75328ION    CL-47753  27.644  33.753   2.826
75329ION    CL-47754  22.871  17.366   9.899
75330ION    CL-47755  28.460  12.607   1.321
75331ION    CL-47756   8.411   3.709  12.430
75332ION    CL-47757  44.825  42.945  10.747
75333ION    CL-47758  41.639   6.208   4.379
75334ION    CL-47759  17.372  29.632  11.597
75335ION    CL-47760   9.211  21.440  12.006
75336ION    CL-47761  26.030  24.153  12.890
75337ION    CL-47762   0.411  24.442  10.662
75338ION    CL-47763  34.136  40.918   2.739
75339ION    CL-47764  17.169  28.651   4.358
75340ION    CL-47765  24.780   5.902  13.707
75341ION    CL-47766   0.511  38.499  14.004
75342ION    CL-47767   7.258  37.697  12.435
75343ION    CL-47768  18.532  32.227  12.568
75344ION    CL-47769  12.727  16.246  13.196
75345ION    CL-47770  13.393   9.191   0.450
75346ION    CL-47771  36.997   6.054   2.687
75347ION    CL-47772  24.053  31.159  14.024
75348ION    CL-47773  14.203   8.395  12.938
75349ION    CL-47774  28.117  22.800   2.078
75350ION    CL-47775  17.028  23.958   4.125
75351ION    CL-47776  35.280   2.895   2.368
75352ION    CL-47777  37.526  24.712   0.351
75353ION    CL-47778  44.577  15.560  11.413
75354ION    CL-47779  29.039  21.233   3.259
75355ION    CL-47780   6.378  28.455  13.554
75356ION    CL-47781  27.544  25.032   1.577
75357ION    CL-47782  10.096  34.029  11.578
75358ION    CL-47783  17.261  38.285   3.241
75359ION    CL-47784  39.965  28.820   0.783
75360ION    CL-47785  14.456  25.954  13.630
75361ION    CL-47786  16.435  29.885  11.357
75362ION    CL-47787  42.315  24.216  10.749
75363ION    CL-47788   2.886  27.252   1.685
75364ION    CL-47789  43.171  28.759   2.008
75365ION    CL-47790  40.599  43.455   1.887
75366ION    CL-47791  29.902  20.951   3.679
75367ION    CL-47792   9.534  24.590   1.691
75368ION    CL-47793  15.333   7.084  14.331
75369ION    CL-47794  41.409   4.434   3.432
75370ION    CL-47795  40.626  14.133   1.671
75371ION    CL-47796  32.952  33.298   3.699
75372ION    CL-47797  40.074  19.378   1.113
75373ION    CL-47798  16.310   1.689   1.141
75374ION    CL-47799  15.128  21.046  13.947
75375ION    CL-47800  36.440  17.436   1.337
75376ION    CL-47801  28.266   2.753   3.624
75377ION    CL-47802  14.235  32.707   4.154
75378ION    CL-47803  37.282  28.090  11.566
75379ION    CL-47804  16.068  29.576  12.127
75380ION    CL-47805  41.735  13.090   0.637
75381ION    CL-47806  11.677  30.161   4.139
75382ION    CL-47807  17.418   9.542   3.447
75383ION    CL-47808   1.775   9.204   1.403
75384ION    CL-47809   3.470  30.906   2.638
75385ION    CL-47810  44.951  31.874  13.700
75386ION    CL-47811  29.439  13.907   3.379
75387ION    CL-47812  36.180  25.066   4.937
75388ION    CL-47813  30.202  32.088  10.787
75389ION    CL-47814  34.896  31.672   1.665
75390ION    CL-47815  17.376  41.269  12.833
75391ION    CL-47816  20.779   1.806  13.809
75392ION    CL-47817   2.207  35.661   1.017
75393ION    CL-47818  28.894  11.700   0.416
75394ION    CL-47819  41.705  11.620  14.563
75395ION    CL-47820   7.685  33.396  11.165
75396ION    CL-47821  16.796  17.828  14.935
75397ION    CL-47822  32.995   6.517   5.041
75398ION    CL-47823  40.390  42.395   4.012
75399ION    CL-47824   0.949  18.741  13.114
75400ION    CL-47825  38.234   7.510  12.078
75401ION    CL-47826   1.863  35.358  11.158
75402ION    CL-47827   9.890  20.880   0.489
75403ION    CL-47828  20.499  24.705  11.929
75404ION    CL-47829   8.853  22.901   1.351
75405ION    CL-47830  12.096  31.757   3.227
75406ION    CL-47831  27.707  29.067   4.100
75407ION    CL-47832   8.520  20.271   2.368
75408ION    CL-47833  22.430  31.867  11.606
75409ION    CL-47834   7.651   8.228   1.291
75410ION    CL-47835  13.525  13.713  10.875
75411ION    CL-47836   2.483  40.811   1.284
75412ION    CL-47837  31.688  34.234   0.532
75413ION    CL-47838  41.731  11.567  13.652
75414ION    CL-47839  26.367  10.585   5.202
75415ION    CL-47840   3.784  38.511  11.352
75416ION    CL-47841  13.079   0.273  11.009
75417ION    CL-47842   9.687  19.674   4.714
75418ION    CL-47843   0.559   1.474  11.684
75419ION    CL-47844   2.982  44.761  14.883
75420ION    CL-47845  32.197  16.581  10.472
75421ION    CL-47846  25.029  17.440  13.002
75422ION    CL-47847  36.428  31.414  14.483
75423ION    CL-47848  27.338  14.248  13.693
75424ION    CL-47849   7.845  39.853  10.358
75425ION    CL-47850  31.888  31.099   2.197
75426ION    CL-47851  16.415   8.415  13.826
75427ION    CL-47852  40.232   0.791   9.687
75428ION    CL-47853  28.752  19.278  10.737
75429ION    CL-47854  44.982  17.784   3.676
75430ION    CL-47855   0.812  31.300   4.487
75431ION    CL-47856  26.056   3.735   3.363
75432ION    CL-47857   8.222  22.616  14.768
75433ION    CL-47858  21.005  38.508   4.325
75434ION    CL-47859  42.262  26.306   3.965
75435ION    CL-47860  17.194   7.800  13.703
75436ION    CL-47861  27.038  18.088   4.177
75437ION    CL-47862  31.963  14.347   4.138
75438ION    CL-47863  24.679  16.673   2.514
75439ION    CL-47864  24.171  30.097  10.794
75440ION    CL-47865  36.573  22.548   0.262
75441ION    CL-47866  34.139  34.674   5.074
75442ION    CL-47867   6.710  15.606  11.975
75443ION    CL-47868  32.365  15.492  14.116
75444ION    CL-47869  43.841  24.429  12.591
75445ION    CL-47870  43.482   9.701  14.974
75446ION    CL-47871  26.137   5.211   1.841
75447ION    CL-47872  27.975  18.263   0.464
75448ION    CL-47873  27.034  43.554  14.142
75449ION    CL-47874  21.548  14.272  11.831
75450ION    CL-47875  34.567  18.066   0.875
75451ION    CL-47876  19.202  11.129  13.417
75452ION    CL-47877  32.235  27.555   4.559
75453ION    CL-47878  38.916  27.163   0.933
75454ION    CL-47879   9.478   6.232  11.084
75455ION    CL-47880  20.238   7.724  11.927
75456ION    CL-47881   0.940  12.794   1.409
75457ION    CL-47882  18.018  12.186  10.986
75458ION    CL-47883  20.443  21.211  11.955
75459ION    CL-47884  35.825  31.467   2.072
75460ION    CL-47885  32.180  33.224  11.125
75461ION    CL-47886   3.372  10.140  12.520
75462ION    CL-47887  44.953   0.197  12.938
75463ION    CL-47888  29.352  43.474   3.836
75464ION    CL-47889  35.646  10.570  11.992
75465ION    CL-47890   1.704  12.940   3.763
75466ION    CL-47891  14.162   3.416  14.514
75467ION    CL-47892  25.460  26.022   4.635
75468ION    CL-47893  35.888  10.258  14.416
75469ION    CL-47894  26.661  33.062  10.711
75470ION    CL-47895  15.213  16.312   4.558
75471ION    CL-47896  27.996  36.129  13.368
75472ION    CL-47897  15.676  15.168  12.020
75473ION    CL-47898  24.821   1.254   1.508
75474ION    CL-47899  18.680  34.815  10.816
75475ION    CL-47900  36.983  25.513   5.682
75476ION    CL-47901  29.339  44.031   2.740
75477ION    CL-47902  43.738  12.094  14.325
75478ION    CL-47903   8.393  34.836   5.709
75479ION    CL-47904  19.714  32.260   0.348
75480ION    CL-47905  32.094   2.460   2.625
75481ION    CL-47906  30.699  42.709  12.540
75482ION    CL-47907  17.129  41.381   2.575
75483ION    CL-47908  37.836  21.522  13.824
75484ION    CL-47909  15.652  26.165   3.782
75485ION    CL-47910  31.218   6.729   2.425
75486ION    CL-47911  19.786  25.796   0.885
75487ION    CL-47912   4.633  28.561   2.980
75488ION    CL-47913  27.729  35.830   0.525
75489ION    CL-47914  11.523  25.709  12.131
75490ION    CL-47915  37.740   6.909  14.313
75491ION    CL-47916   3.372  40.052  10.563
75492ION    CL-47917  25.365  24.540   0.717
75493ION    CL-47918  40.089  31.001   0.310
75494ION    CL-47919  20.813  17.556   1.920
75495ION    CL-47920  27.124  18.163  11.934
75496ION    CL-47921  15.171  30.708   1.037
75497ION    CL-47922  21.058  40.832  13.665
75498ION    CL-47923   9.308  21.222   1.675
75499ION    CL-47924  24.252  20.217  13.906
75500ION    CL-47925  25.754  22.268  11.593
75501ION    CL-47926   4.267  16.042  13.068
75502ION    CL-47927  13.787  43.594  13.924
75503ION    CL-47928  34.923  27.611   1.189
75504ION    CL-47929  23.445  22.325  14.062
75505ION    CL-47930  11.185  12.321   0.948
75506ION    CL-47931  24.556  32.434   0.401
75507ION    CL-47932  27.214  35.523  14.724
75508ION    CL-47933  28.441  11.985  14.211
75509ION    CL-47934   4.553  14.221  12.547
75510ION    CL-47935  12.111  17.242  14.885
75511ION    CL-47936  40.771   4.280   4.083
75512ION    CL-47937  40.880   7.932  13.462
75513ION    CL-47938  21.439  43.964  11.710
75514ION    CL-47939   5.199  38.632   3.245
75515ION    CL-47940   9.178  30.651   3.019
75516ION    CL-47941  10.979  34.613   3.755
75517ION    CL-47942  10.131   0.914  14.181
75518ION    CL-47943  26.748  13.971  12.530
75519ION    CL-47944  26.016  22.451  13.602
75520ION    CL-47945   4.532  14.342  10.726
75521ION    CL-47946  30.280  29.691  12.567
75522ION    CL-47947  41.384  23.821  13.565
75523ION    CL-47948  12.365  31.972  14.001
75524ION    CL-47949  33.719  32.834   3.194
75525ION    CL-47950   3.610  44.097  13.224
75526ION    CL-47951   6.896  36.557  12.950
75527ION    CL-47952   0.108  41.756  14.970
75528ION    CL-47953  42.506   1.509  10.782
75529ION    CL-47954  29.534  36.800  12.690
75530ION    CL-47955  23.400  29.672   3.944
75531ION    CL-47956  10.608   2.798  12.390
75532ION    CL-47957   8.106  19.968  11.868
75533ION    CL-47958  19.063  38.617  14.350
75534ION    CL-47959  38.490  39.923  11.532
75535ION    CL-47960  34.352   5.407  14.963
75536ION    CL-47961  10.917  31.826   4.291
75537ION    CL-47962  28.233  43.988   2.970
75538ION    CL-47963  16.466  40.318  12.838
75539ION    CL-47964  23.266  26.615   5.375
75540ION    CL-47965  36.866  32.623   1.389
75541ION    CL-47966  13.960   6.005  14.592
75542ION    CL-47967  26.687  21.230   4.182
75543ION    CL-47968   5.023  37.418   5.065
75544ION    CL-47969  25.753  29.194   0.191
75545ION    CL-47970  19.217  25.633   3.775
75546ION    CL-47971  19.606   4.015   3.760
75547ION    CL-47972  12.247  38.877  12.950
75548ION    CL-47973  28.536  33.045   1.764
75549ION    CL-47974  40.534  27.819   1.048
75550ION    CL-47975  31.930   4.261  12.753
75551ION    CL-47976  34.142  16.131  12.930
75552ION    CL-47977  31.841  14.874  11.818
75553ION    CL-47978   4.693   2.994   1.783
75554ION    CL-47979  41.673  43.202   0.821
75555ION    CL-47980  29.074  24.069  12.961
75556ION    CL-47981  15.654  44.430  11.233
75557ION    CL-47982  31.672  30.842   0.852
75558ION    CL-47983  25.418  10.686   1.643
75559ION    CL-47984  18.338  32.454   2.759
75560ION    CL-47985   9.385  12.419   3.880
75561ION    CL-47986  17.121  19.795  12.010
75562ION    CL-47987  14.926  35.097  13.310
75563ION    CL-47988   6.986  40.970  11.190
75564ION    CL-47989  19.808  28.421  11.079
75565ION    CL-47990  16.014   2.018  14.032
75566ION    CL-47991  18.702  41.536  12.398
75567ION    CL-47992  31.158  44.959  11.086
75568ION    CL-47993  44.826   2.914   4.064
75569ION    CL-47994  12.226  23.699   4.423
75570ION    CL-47995   8.787  29.861   2.140
75571ION    CL-47996  20.223  25.541  14.059
75572ION    CL-47997  41.002  18.985   3.401
75573ION    CL-47998  13.350  34.174  10.243
75574ION    CL-47999  29.980   6.631  12.562
75575ION    CL-48000   3.739  41.778   1.862
75576ION    CL-48001  29.724   3.079  13.113
75577ION    CL-48002   3.676  18.144   4.532
75578ION    CL-48003  23.810  11.964   2.350
75579ION    CL-48004  32.447  20.721   2.953
75580ION    CL-48005   5.023  39.507   0.313
75581ION    CL-48006   4.355   0.242   4.568
75582ION    CL-48007   1.216  13.884  11.365
75583ION    CL-48008   0.312  18.702  11.600
75584ION    CL-48009  35.490  10.754   2.612
75585ION    CL-48010  21.086  30.370   3.993
75586ION    CL-48011  28.435  31.083  14.505
75587ION    CL-48012  19.589  17.381  11.224
75588ION    CL-48013  14.841  18.344  12.737
75589ION    CL-48014   5.219   6.690   2.923
75590ION    CL-48015  11.923  14.761  13.495
75591ION    CL-48016  19.700  17.031  14.499
75592ION    CL-48017  22.369  13.926  12.991
75593ION    CL-48018  40.323  10.687  14.350
75594ION    CL-48019   5.903   7.575   1.059
75595ION    CL-48020  27.992   6.816   2.657
75596ION    CL-48021   4.550  17.779  11.540
75597ION    CL-48022  32.800  24.478  13.300
75598ION    CL-48023  12.238  13.119  11.444
75599ION    CL-48024  43.080  19.150  13.372
75600ION    CL-48025  33.129  26.646   3.146
75601ION    CL-48026   8.623  12.323   3.221
75602ION    CL-48027  42.808  23.006  11.656
75603ION    CL-48028  21.809  22.150   2.393
75604ION    CL-48029  16.810  22.199   2.780
75605ION    CL-48030  17.144  31.602  12.936
75606ION    CL-48031  42.254   1.824  14.443
75607ION    CL-48032  33.431   9.856  11.674
75608ION    CL-48033  18.561  31.792  11.590
75609ION    CL-48034   1.699  14.753  12.605
75610ION    CL-48035  38.461  41.376  11.367
75611ION    CL-48036   5.710  21.971   1.905
75612ION    CL-48037  44.875  31.175  10.824
75613ION    CL-48038  23.385  15.763  10.700
75614ION    CL-48039  24.715  44.897  14.520
75615ION    CL-48040   4.944  23.806  12.964
75616ION    CL-48041  33.201  21.666  11.959
75617ION    CL-48042  31.134  11.464   0.654
75618ION    CL-48043   8.355   8.646   1.865
75619ION    CL-48044  37.836  42.608  14.986
75620ION    CL-48045  12.222  39.224  14.573
75621ION    CL-48046  32.307   0.770   0.062
75622ION    CL-48047  38.765  37.531  12.360
75623ION    CL-48048   7.172  25.476  11.618
75624ION    CL-48049   2.318   7.440  11.177
75625ION    CL-48050  31.054  43.813   1.026
75626ION    CL-48051  17.510  38.631  10.420
75627ION    CL-48052  18.069   5.139  13.337
75628ION    CL-48053  38.968  25.681  11.168
75629ION    CL-48054   9.319  42.742   5.210
75630ION    CL-48055  25.703  36.423  13.399
75631ION    CL-48056  36.482  26.398  11.708
75632ION    CL-48057  41.536  32.779  12.534
75633ION    CL-48058  18.261  43.864   2.556
75634ION    CL-48059   7.904  40.344   0.782
75635ION    CL-48060  16.016  22.224   3.714
75636ION    CL-48061   2.145  26.608  14.884
75637ION    CL-48062  30.845  12.186  13.548
75638ION    CL-48063  17.227  32.601   4.746
75639ION    CL-48064   9.292  40.229  13.443
75640ION    CL-48065  36.164  11.794   5.052
75641ION    CL-48066  20.533  33.093   1.895
75642ION    CL-48067  42.846  10.475   1.925
75643ION    CL-48068  44.448  44.560   0.410
75644ION    CL-48069  16.745  29.561   0.015
75645ION    CL-48070   0.624  23.807  14.799
75646ION    CL-48071  11.135  35.539   1.438
75647ION    CL-48072  21.294  31.156  11.912
75648ION    CL-48073  12.041   1.742   3.055
75649ION    CL-48074   9.882   8.903  13.041
75650ION    CL-48075  32.902  18.454  11.461
75651ION    CL-48076   5.886  17.715  14.140
75652ION    CL-48077  36.082  21.604   0.992
75653ION    CL-48078  30.809  15.577  12.609
75654ION    CL-48079  23.242  40.102   1.135
75655ION    CL-48080  42.063  37.423   4.992
75656ION    CL-48081  22.971  41.797   4.711
75657ION    CL-48082   6.813  17.327  13.856
75658ION    CL-48083  13.389   9.933   2.813
75659ION    CL-48084  31.976  35.821  12.694
75660ION    CL-48085   7.167  23.761   4.368
75661ION    CL-48086  44.992  28.009  14.778
75662ION    CL-48087  11.830  18.949  13.747
75663ION    CL-48088  21.398  17.275  12.461
75664ION    CL-48089  39.500  12.444   1.048
75665ION    CL-48090  27.928  23.192   0.124
75666ION    CL-48091  34.680  13.188   2.920
75667ION    CL-48092  21.756  14.551  14.834
75668ION    CL-48093  17.321  42.505   2.526
75669ION    CL-48094  13.577  44.463  12.370
75670ION    CL-48095  12.408  37.134  11.350
75671ION    CL-48096   9.871  33.614   4.491
75672ION    CL-48097  17.691   0.151  13.918
75673ION    CL-48098  14.280  34.433   4.579
75674ION    CL-48099  24.417  35.878  11.691
75675ION    CL-48100  15.335  26.063   2.273
75676ION    CL-48101   6.702  41.395   0.711
75677ION    CL-48102  16.135   0.684   2.234
75678ION    CL-48103  11.440  22.472   1.403
75679ION    CL-48104   5.407  17.359   2.960
75680ION    CL-48105  14.695  24.588  11.641
75681ION    CL-48106  31.135  41.993  11.601
75682ION    CL-48107   9.332  29.025   0.517
75683ION    CL-48108  40.117  24.843  13.700
75684ION    CL-48109   6.640   2.737   3.029
75685ION    CL-48110  39.687  39.722  12.337
75686ION    CL-48111   6.166  16.976   4.184
75687ION    CL-48112  21.517  25.241   1.447
75688ION    CL-48113  33.921   1.914  10.845
75689ION    CL-48114  30.048  19.412   3.942
75690ION    CL-48115  32.212  35.349   0.698
75691ION    CL-48116  17.353   7.303  14.556
75692ION    CL-48117   4.865  21.954   2.132
75693ION    CL-48118  11.468  42.344  13.947
75694ION    CL-48119  39.312  30.373   0.362
75695ION    CL-48120   6.100  44.282   1.230
75696ION    CL-48121  33.402  12.863  13.100
75697ION    CL-48122  19.301  24.087  13.261
75698ION    CL-48123  43.700  29.828  11.002
75699ION    CL-48124  21.008  17.067  14.607
75700ION    CL-48125   0.293   8.456  12.016
75701ION    CL-48126   0.705  42.787  11.195
75702ION    CL-48127   9.740   8.657   0.042
75703ION    CL-48128  27.911  39.402  12.970
75704ION    CL-48129   8.233  11.089  11.979
75705ION    CL-48130  25.573  16.992  14.750
75706ION    CL-48131   9.769  30.401  11.595
75707ION    CL-48132  21.109  15.455   3.756
75708ION    CL-48133   4.737  29.128  12.532
75709ION    CL-48134  17.264   6.884   3.749
75710ION    CL-48135  37.562  34.096   5.110
75711ION    CL-48136   2.369  43.448  14.266
75712ION    CL-48137   8.573  31.570  11.905
75713ION    CL-48138  44.483  13.159  11.372
75714ION    CL-48139  28.993  32.632  11.240
75715ION    CL-48140  28.843  42.675  13.100
75716ION    CL-48141   1.037  18.902  14.097
75717ION    CL-48142  34.374   2.071   4.877
75718ION    CL-48143   4.768   1.196  11.745
75719ION    CL-48144   6.965  31.625   2.905
75720ION    CL-48145  33.415  27.396   4.975
75721ION    CL-48146  30.827  37.384   1.855
75722ION    CL-48147  20.091  10.921  12.479
75723ION    CL-48148   6.411  33.460   5.346
75724ION    CL-48149  10.228  25.416  13.798
75725ION    CL-48150  35.436  21.682  13.231
75726ION    CL-48151  24.493  33.085  14.645
75727ION    CL-48152  30.312  36.527   1.855
75728ION    CL-48153  14.765  43.471  10.580
75729ION    CL-48154  17.560  34.522  14.442
75730ION    CL-48155  13.123  13.283  12.425
75731ION    CL-48156  41.737  25.372  11.452
75732ION    CL-48157   1.980   0.797  14.983
75733ION    CL-48158  24.624   6.707   3.328
75734ION    CL-48159  27.490  25.019   2.487
75735ION    CL-48160  33.922   1.793   0.796
75736ION    CL-48161  26.964  33.214  14.842
75737ION    CL-48162   1.512  37.907  12.446
75738ION    CL-48163  22.692  19.503   4.209
75739ION    CL-48164   2.469  34.541  11.128
75740ION    CL-48165  43.483  21.404  14.939
75741ION    CL-48166  16.824  39.941  12.113
75742ION    CL-48167  24.460  25.920  11.618
75743ION    CL-48168  36.784  24.507   9.872
75744ION    CL-48169  25.589   6.486  10.753
75745ION    CL-48170  28.740  37.425   3.062
75746ION    CL-48171  29.597   0.761   3.676
75747ION    CL-48172  14.221  12.664  11.878
75748ION    CL-48173   3.842  16.025   3.451
75749ION    CL-48174  42.307  35.534   3.387
75750ION    CL-48175  37.861  11.510  11.067
75751ION    CL-48176  28.671   4.255   2.775
75752ION    CL-48177   3.328   7.785   2.769
75753ION    CL-48178  44.612  41.033   2.645
75754ION    CL-48179  29.960  42.394  14.355
75755ION    CL-48180   7.342  14.931   3.899
75756ION    CL-48181  44.948  21.038  14.032
75757ION    CL-48182   2.253  33.333  10.665
75758ION    CL-48183  25.313  44.355  12.115
75759ION    CL-48184   2.996  33.316   1.785
75760ION    CL-48185  10.293   8.202   3.744
75761ION    CL-48186   5.664  10.849  14.888
75762ION    CL-48187  25.186  22.471   0.447
75763ION    CL-48188  16.774  38.230   2.369
75764ION    CL-48189   8.458  36.462  12.796
75765ION    CL-48190  27.544  24.453  12.440
75766ION    CL-48191   3.930  22.127   3.836
75767ION    CL-48192  35.190   8.401  10.640
75768ION    CL-48193  26.585   0.190  11.586
75769ION    CL-48194  33.250  11.516  14.872
75770ION    CL-48195  15.025  32.557   2.282
75771ION    CL-48196  33.242  20.119   2.773
75772ION    CL-48197  28.845  15.306  14.918
75773ION    CL-48198   6.415   6.380   3.332
75774ION    CL-48199  18.410  17.838  11.287
75775ION    CL-48200  41.968  40.232   1.458
75776ION    CL-48201  17.377  31.123   1.155
75777ION    CL-48202  38.903  34.054   2.309
75778ION    CL-48203   5.601   4.843   0.739
75779ION    CL-48204  31.990  10.089   2.971
75780ION    CL-48205  18.747   3.759  12.582
75781ION    CL-48206  10.113   7.803   4.811
75782ION    CL-48207   1.398  16.564   3.791
75783ION    CL-48208  20.208   2.439   5.143
75784ION    CL-48209  15.489  40.353  11.166
75785ION    CL-48210  42.515   2.965   0.459
75786ION    CL-48211  31.879  33.368   1.656
75787ION    CL-48212  29.975   0.051  13.912
75788ION    CL-48213  42.361   9.732   2.448
75789ION    CL-48214  37.785  41.591  11.975
75790ION    CL-48215  39.631   2.018   1.525
75791ION    CL-48216  28.427  27.603   1.503
75792ION    CL-48217  16.662  44.666   9.656
75793ION    CL-48218   3.763  44.835  11.374
75794ION    CL-48219  32.841  38.470   0.758
75795ION    CL-48220  11.644  18.173  12.849
75796ION    CL-48221  34.346  23.476   3.749
75797ION    CL-48222  16.755  16.262  12.793
75798ION    CL-48223  32.093  10.190   1.224
75799ION    CL-48224  34.999  21.546  12.179
75800ION    CL-48225  42.371  18.331  13.976
75801ION    CL-48226  14.481   5.091   4.160
75802ION    CL-48227   7.397  23.303   2.678
75803ION    CL-48228  37.798  17.104   4.238
75804ION    CL-48229   9.927   7.743   0.404
75805ION    CL-48230  20.707  32.995  12.317
75806ION    CL-48231  38.884  34.386   3.755
75807ION    CL-48232  15.472  24.573  14.677
75808ION    CL-48233   1.940   2.256  14.894
75809ION    CL-48234  26.213  17.865  10.466
75810ION    CL-48235  15.490  10.185   3.699
75811ION    CL-48236  16.470  27.589   5.016
75812ION    CL-48237  36.795   6.915  12.187
75813ION    CL-48238   5.796  34.858   4.328
75814ION    CL-48239  19.978   0.855   2.203
75815ION    CL-48240  36.873  26.932   4.011
75816ION    CL-48241   9.884  15.254   4.576
75817ION    CL-48242  16.795  22.960   1.429
75818ION    CL-48243   9.496  22.692  10.854
75819ION    CL-48244  15.902   1.472   5.488
75820ION    CL-48245  30.461  32.065  13.460
75821ION    CL-48246  19.745  38.809  12.188
75822ION    CL-48247   4.630  13.497   5.337
75823ION    CL-48248  15.810  16.265   2.543
75824ION    CL-48249  22.845  40.978  11.568
75825ION    CL-48250   8.575  34.917   2.092
75826ION    CL-48251  23.242  44.770  11.486
75827ION    CL-48252  15.760   2.206  11.875
75828ION    CL-48253  21.316   7.449  13.584
75829ION    CL-48254  39.360  20.222  11.826
75830ION    CL-48255  30.596  17.634  12.348
75831ION    CL-48256  21.436  28.320   0.404
75832ION    CL-48257  28.797   5.431   0.805
75833ION    CL-48258  22.871  22.912  10.940
75834ION    CL-48259  41.279  17.756  11.814
75835ION    CL-48260  31.336  42.825   3.769
75836ION    CL-48261  28.568  16.337   4.190
75837ION    CL-48262  34.509  35.175   1.257
75838ION    CL-48263  39.214  41.197   4.933
75839ION    CL-48264  24.964  42.541   0.944
75840ION    CL-48265  30.441   6.740   1.783
75841ION    CL-48266   4.516  31.765   1.784
75842ION    CL-48267  12.048  24.921   0.301
75843ION    CL-48268   4.442  36.250  11.593
75844ION    CL-48269  30.767  30.935  14.139
75845ION    CL-48270  40.688  27.539   0.185
75846ION    CL-48271  20.713  15.318   0.061
75847ION    CL-48272  10.168  13.332  12.346
75848ION    CL-48273  20.756  20.206   1.506
75849ION    CL-48274  21.414  12.320  12.473
75850ION    CL-48275  38.425  14.593   3.350
75851ION    CL-48276  19.549  32.200  11.551
75852ION    CL-48277  20.765   1.253   1.619
75853ION    CL-48278  11.634  18.508  14.623
75854ION    CL-48279  17.770  12.062   2.920
75855ION    CL-48280  11.875  24.793  10.711
75856ION    CL-48281  28.331  30.463   4.310
75857ION    CL-48282   1.006  25.185  13.036
75858ION    CL-48283  10.016  18.281  13.401
75859ION    CL-48284  12.125  32.653   2.266
75860ION    CL-48285  43.768  44.268  11.043
75861ION    CL-48286  35.779  18.428  10.658
75862ION    CL-48287  33.263  22.252   2.279
75863ION    CL-48288  23.094   9.670  12.608
75864ION    CL-48289  41.679  29.130   3.696
75865ION    CL-48290  41.891  36.848   2.255
75866ION    CL-48291  41.738  44.397  10.690
75867ION    CL-48292  23.030  14.740  10.680
75868ION    CL-48293  27.061  19.042  12.540
75869ION    CL-48294  17.332  32.103   3.126
75870ION    CL-48295  17.027   1.702  14.959
75871ION    CL-48296   3.758  16.977   0.252
75872ION    CL-48297  35.852   5.325   4.176
75873ION    CL-48298  37.879  32.991  14.436
75874ION    CL-48299  20.152  19.746  14.979
75875ION    CL-48300  23.665  32.896   3.728
75876ION    CL-48301  31.798  39.634  13.393
75877ION    CL-48302  10.171   0.293   1.942
75878ION    CL-48303  41.057  35.946  13.913
75879ION    CL-48304  30.949  16.699   0.356
75880ION    CL-48305  39.532  30.935   3.601
75881ION    CL-48306  11.073  40.659   3.786
75882ION    CL-48307  44.530  19.014   3.327
75883ION    CL-48308   6.114  20.369   5.050
75884ION    CL-48309  16.672  11.117  12.019
75885ION    CL-48310  44.222  25.359   2.016
75886ION    CL-48311  34.117  26.640   0.555
75887ION    CL-48312   7.397  22.950  14.898
75888ION    CL-48313  35.212  36.782  14.470
75889ION    CL-48314  32.634  22.202  13.535
75890ION    CL-48315  27.698  42.811  14.059
75891ION    CL-48316  43.356  43.570   1.219
75892ION    CL-48317   9.874  39.192  13.984
75893ION    CL-48318  26.528  39.118  11.825
75894ION    CL-48319  44.370   3.026   2.865
75895ION    CL-48320  11.734  38.404  14.918
75896ION    CL-48321  21.695  32.127  10.575
75897ION    CL-48322  44.269   7.262   0.417
75898ION    CL-48323  27.501  34.833  13.469
75899ION    CL-48324  39.178  17.950  14.601
75900ION    CL-48325  11.601  36.653  10.157
75901ION    CL-48326  30.522   2.901   4.774
75902ION    CL-48327  33.351  23.773  12.636
75903ION    CL-48328   7.767  35.226   2.282
75904ION    CL-48329  44.756  29.858  12.750
75905ION    CL-48330   4.334  23.038  13.418
75906ION    CL-48331  32.825  38.887   2.154
75907ION    CL-48332  38.792  12.835   5.164
75908ION    CL-48333  32.442  32.440   3.618
75909ION    CL-48334  13.869  26.131  12.968
75910ION    CL-48335  26.942  44.442  14.593
75911ION    CL-48336   2.655  22.563   0.812
75912ION    CL-48337   4.025  40.853   0.286
75913ION    CL-48338  19.222  29.578  13.454
75914ION    CL-48339  12.103  35.847  10.166
75915ION    CL-48340  42.577  12.762   4.132
75916ION    CL-48341  40.478  31.746   9.804
75917ION    CL-48342   9.793   9.345   1.285
75918ION    CL-48343  26.624  36.183   4.322
75919ION    CL-48344   6.310  14.738  11.524
75920ION    CL-48345  40.237  43.289   2.836
75921ION    CL-48346  11.848  34.825   2.285
75922ION    CL-48347   6.027   2.951  14.861
75923ION    CL-48348  27.992   2.996   0.052
75924ION    CL-48349   7.330  25.283   4.885
75925ION    CL-48350  18.404   3.494   2.027
75926ION    CL-48351  14.541  38.105   2.706
75927ION    CL-48352  17.270   5.047   2.077
75928ION    CL-48353  12.420  35.643   3.391
75929ION    CL-48354   6.980  20.155  11.067
75930ION    CL-48355   8.874  30.737   3.856
75931ION    CL-48356  14.313   1.770   2.943
75932ION    CL-48357   2.527  30.037   4.650
75933ION    CL-48358   9.520  21.958   4.196
75934ION    CL-48359  27.058  15.104  11.551
75935ION    CL-48360   7.328  16.765  14.904
75936ION    CL-48361  39.850  27.403  13.546
75937ION    CL-48362  37.643  34.130   4.114
75938ION    CL-48363   1.000  25.761   2.157
75939ION    CL-48364  44.744  11.677  13.291
75940ION    CL-48365  14.573  15.964   2.898
75941ION    CL-48366  11.545  12.287  12.140
75942ION    CL-48367   4.317   4.591  12.114
75943ION    CL-48368  36.088  36.633  12.374
75944ION    CL-48369  24.704   9.915   1.620
75945ION    CL-48370  31.944  42.806   0.526
75946ION    CL-48371   2.871  44.382   4.220
75947ION    CL-48372  31.721  37.054   2.185
75948ION    CL-48373  15.346  16.594   1.717
75949ION    CL-48374  40.122  39.406  11.007
75950ION    CL-48375   5.397  21.211  10.797
75951ION    CL-48376  40.317   7.867   1.668
75952ION    CL-48377  24.468  13.215   2.259
75953ION    CL-48378  27.573  37.431   1.019
75954ION    CL-48379  16.331  25.218   0.454
75955ION    CL-48380  30.918  37.910   2.701
75956ION    CL-48381   6.960  43.501   4.127
75957ION    CL-48382  37.494  43.063   9.859
75958ION    CL-48383  21.729   1.029  14.105
75959ION    CL-48384  28.387  43.190  12.304
75960ION    CL-48385  38.539   4.247   2.473
75961ION    CL-48386  10.653  35.257   0.039
75962ION    CL-48387  26.064   9.930   4.516
75963ION    CL-48388  28.816  29.103  14.458
75964ION    CL-48389  33.127   7.223   0.265
75965ION    CL-48390  20.935  43.958   1.839
75966ION    CL-48391  32.070  17.504   2.907
75967ION    CL-48392  32.195  20.409  11.447
75968ION    CL-48393  31.220   2.393   2.512
75969ION    CL-48394   6.776  42.277  11.504
75970ION    CL-48395  25.604  33.586  12.116
75971ION    CL-48396  18.264  43.988  10.792
75972ION    CL-48397   8.761  13.130  11.778
75973ION    CL-48398  15.782  41.103   0.803
75974ION    CL-48399  43.382  38.700   1.659
75975ION    CL-48400  13.857  38.026   0.480
75976ION    CL-48401   1.024  31.533  10.136
75977ION    CL-48402  33.756  21.039  12.938
75978ION    CL-48403  20.307   1.323   3.385
75979ION    CL-48404  43.091  28.503   4.028
75980ION    CL-48405  21.637  23.491  13.653
75981ION    CL-48406  26.413   8.937  14.686
75982ION    CL-48407  14.806  12.311   2.107
75983ION    CL-48408  19.099   6.508  13.831
75984ION    CL-48409  37.462  39.772  13.977
75985ION    CL-48410   3.106  42.604   1.949
75986ION    CL-48411  24.372  19.347  12.792
75987ION    CL-48412   5.328  35.009   1.825
75988ION    CL-48413  21.537  23.233  10.454
75989ION    CL-48414   8.472  22.627  12.774
75990ION    CL-48415  15.858  39.947  13.867
75991ION    CL-48416  15.553  35.519   1.067
75992ION    CL-48417  23.129  14.195   0.470
75993ION    CL-48418  11.736   3.561   5.021
75994ION    CL-48419  41.566  23.038  12.970
75995ION    CL-48420   3.609  31.723   1.795
75996ION    CL-48421  19.709  29.869   0.504
75997ION    CL-48422  15.790  17.714   3.052
75998ION    CL-48423  24.990  44.951  11.380
75999ION    CL-48424  12.957  21.434  11.433
76000ION    CL-48425  13.320   5.458  11.383
76001ION    CL-48426  35.404  26.193  11.193
76002ION    CL-48427  18.148  14.889  14.267
76003ION    CL-48428  23.241  12.514  13.596
76004ION    CL-48429  33.981  18.530  12.715
76005ION    CL-48430  11.581  24.653  11.709
76006ION    CL-48431  29.974  23.309  14.818
76007ION    CL-48432  35.534  12.903  11.521
76008ION    CL-48433  40.172   0.510   3.251
76009ION    CL-48434  25.631  30.175   0.340
76010ION    CL-48435  35.853   0.624  12.810
76011ION    CL-48436   8.789  24.207   2.698
76012ION    CL-48437  35.454  15.199   2.565
76013ION    CL-48438  11.651  25.171  13.630
76014ION    CL-48439  23.357   0.107   2.708
76015ION    CL-48440   4.121  36.448   2.330
76016ION    CL-48441  19.609  30.351   4.427
76017ION    CL-48442  21.146   8.226  10.711
76018ION    CL-48443  13.851  32.614   2.898
76019ION    CL-48444  14.961   8.147   3.122
76020ION    CL-48445  38.863  37.369  13.342
76021ION    CL-48446  41.389  28.592   0.424
76022ION    CL-48447   8.793  22.540  13.718
76023ION    CL-48448  19.957  33.554  11.964
76024ION    CL-48449  31.459   7.444   0.301
76025ION    CL-48450  20.740   9.838   3.649
76026ION    CL-48451  23.285  42.381  13.242
76027ION    CL-48452   2.533   4.266   4.218
76028ION    CL-48453  31.919  22.976   2.205
76029ION    CL-48454  20.513  30.937   4.744
76030ION    CL-48455  11.370  23.717  11.991
76031ION    CL-48456   8.561  12.905  14.876
76032ION    CL-48457  41.034   9.126  10.787
76033ION    CL-48458  29.893  30.456   0.904
76034ION    CL-48459   2.852  25.957   4.517
76035ION    CL-48460   4.763  19.276  14.792
76036ION    CL-48461  13.210  17.203  13.387
76037ION    CL-48462  38.894  43.128   4.629
76038ION    CL-48463  26.201   7.342  10.728
76039ION    CL-48464  16.643  14.167   1.785
76040ION    CL-48465  42.786  31.267  14.922
76041ION    CL-48466  43.399  44.556  13.481
76042ION    CL-48467  12.591  42.464   2.168
76043ION    CL-48468  26.321   6.101   1.562
76044ION    CL-48469  19.320  23.917  11.492
76045ION    CL-48470  27.700  31.504  12.878
76046ION    CL-48471  30.008  43.313  11.918
76047ION    CL-48472  19.245   3.771   1.800
76048ION    CL-48473  27.197  43.042  14.985
76049ION    CL-48474  41.476   7.194   2.693
76050ION    CL-48475  36.001  12.361   0.903
76051ION    CL-48476  36.224  26.017   3.265
76052ION    CL-48477  13.103  32.961   1.924
76053ION    CL-48478  22.785  17.216  13.250
76054ION    CL-48479  38.409   4.785   1.006
76055ION    CL-48480  42.892  44.106   4.637
76056ION    CL-48481  14.975  30.743  10.952
76057ION    CL-48482  27.018  38.257   3.618
76058ION    CL-48483  28.170  32.809   3.684
76059ION    CL-48484  28.900   4.225   0.794
76060ION    CL-48485  32.461  28.621  11.178
76061ION    CL-48486  37.033  41.975   3.703
76062ION    CL-48487  43.730  27.396  14.022
76063ION    CL-48488  30.334  30.421  11.537
76064ION    CL-48489  29.531  36.439  11.858
76065ION    CL-48490  19.076   3.159  11.852
76066ION    CL-48491  23.552  16.595   0.509
76067ION    CL-48492  10.790  31.046  10.835
76068ION    CL-48493  30.051  24.533   0.765
76069ION    CL-48494   7.197   3.427   2.338
76070ION    CL-48495  10.300  13.046   2.646
76071ION    CL-48496   0.183  15.821   4.368
76072ION    CL-48497   2.443  43.857  13.034
76073ION    CL-48498  19.606  14.700   3.262
76074ION    CL-48499  28.446   2.562  11.930
76075ION    CL-48500  15.189  26.189   0.996
76076ION    CL-48501   3.899  25.593   0.323
76077ION    CL-48502  33.098  27.157  10.565
76078ION    CL-48503  32.337   2.815  11.838
76079ION    CL-48504  15.002  27.104  12.486
76080ION    CL-48505   6.670  22.409  13.471
76081ION    CL-48506  26.697  43.794  11.204
76082ION    CL-48507  35.967   7.861  12.308
76083ION    CL-48508  34.353  44.524   2.265
76084ION    CL-48509  10.639  19.385   2.373
76085ION    CL-48510   0.742   4.436  12.221
76086ION    CL-48511   5.272  10.982  10.960
76087ION    CL-48512  33.585  40.685   4.125
76088ION    CL-48513  27.544  34.834   3.035
76089ION    CL-48514  31.017  38.496   1.359
76090ION    CL-48515  18.980   5.515  13.732
76091ION    CL-48516  37.871  36.468   2.694
76092ION    CL-48517  37.040   2.525   4.009
76093ION    CL-48518  18.369  36.482   4.348
76094ION    CL-48519  28.180  41.875   1.125
76095ION    CL-48520   9.631  19.474  10.390
76096ION    CL-48521   2.352  25.484  10.287
76097ION    CL-48522  41.179  26.699   2.691
76098ION    CL-48523  44.256  19.880   4.903
76099ION    CL-48524  28.288  17.601  11.608
76100ION    CL-48525   0.971   5.744   1.505
76101ION    CL-48526  28.257  10.642   1.354
76102ION    CL-48527  26.095  33.181   3.746
76103ION    CL-48528  13.223  42.489  14.488
76104ION    CL-48529  33.663  17.155   3.451
76105ION    CL-48530  20.557  18.521   1.871
76106ION    CL-48531  32.130  15.720   3.866
76107ION    CL-48532  27.621   1.607   4.043
76108ION    CL-48533  21.768  13.048  10.707
76109ION    CL-48534  33.185   8.470  13.585
76110ION    CL-48535   8.216  38.047   3.692
76111ION    CL-48536  33.098  12.676   0.026
76112ION    CL-48537   4.450  35.665   0.566
76113ION    CL-48538  18.418   5.442  14.556
76114ION    CL-48539  21.258  30.378  12.316
76115ION    CL-48540  14.415  32.568  14.740
76116ION    CL-48541  32.908  24.999  11.180
76117ION    CL-48542   9.389  16.495   0.925
76118ION    CL-48543  20.787  16.099  10.733
76119ION    CL-48544   5.579  44.670   4.634
76120ION    CL-48545   1.590   6.479   1.161
76121ION    CL-48546  23.201   6.220   4.102
76122ION    CL-48547  19.234  38.854   2.893
76123ION    CL-48548  16.786  14.946   1.174
76124ION    CL-48549  41.043  18.568  14.849
76125ION    CL-48550   3.129  17.583   0.917
76126ION    CL-48551  11.698  33.997   3.433
76127ION    CL-48552  20.157   5.447  12.902
76128ION    CL-48553  24.066  44.747  13.381
76129ION    CL-48554   8.370   7.235  12.887
76130ION    CL-48555   3.720  32.924   0.308
76131ION    CL-48556   5.362  27.506  13.037
76132ION    CL-48557   0.919   7.157  11.690
76133ION    CL-48558  29.550  42.768   0.486
76134ION    CL-48559  21.210  34.759  12.326
76135ION    CL-48560  39.260  14.299   0.077
76136ION    CL-48561   8.835  36.011  14.209
76137ION    CL-48562   2.035  38.856   0.772
76138ION    CL-48563  42.253  42.112   3.882
76139ION    CL-48564   8.866  30.913  10.764
76140ION    CL-48565  26.766   8.200  13.036
76141ION    CL-48566  14.603  13.331  13.441
76142ION    CL-48567  35.296   1.987   1.371
76143ION    CL-48568  27.575  32.988   2.053
76144ION    CL-48569  28.633  14.962  13.201
76145ION    CL-48570  15.252  33.846  14.832
76146ION    CL-48571  33.026  40.071   0.259
76147ION    CL-48572  18.538  34.923   0.911
76148ION    CL-48573  10.560  34.305  12.312
76149ION    CL-48574  13.329  39.087   2.857
76150ION    CL-48575   9.904   6.935  12.051
76151ION    CL-48576  37.930  35.233  14.288
76152ION    CL-48577  21.151   8.411   3.368
76153ION    CL-48578  12.001  30.264   9.721
76154ION    CL-48579  42.819   9.141  14.212
76155ION    CL-48580  33.353  25.050   4.921
76156ION    CL-48581   2.324  44.580  12.356
76157ION    CL-48582  39.515  41.464  13.993
76158ION    CL-48583   2.225  12.390  11.575
76159ION    CL-48584  12.352  32.398  12.000
76160ION    CL-48585  31.301  23.696  13.352
76161ION    CL-48586  16.832  23.716  13.488
76162ION    CL-48587   1.849  36.924   4.917
76163ION    CL-48588  40.900  41.412  13.793
76164ION    CL-48589  40.022  14.283  12.873
76165ION    CL-48590   4.716  23.577   0.461
76166ION    CL-48591  14.444  42.427  14.083
76167ION    CL-48592  44.264   6.202  13.555
76168ION    CL-48593  39.778  22.022   1.081
76169ION    CL-48594   0.865   7.053   4.079
76170ION    CL-48595  40.710  38.788   1.740
76171ION    CL-48596  16.666  18.176  11.297
76172ION    CL-48597   9.267  13.169  13.271
76173ION    CL-48598  37.038  29.667   2.156
76174ION    CL-48599   4.518  12.071  12.881
76175ION    CL-48600  17.241  39.138   4.268
76176ION    CL-48601  34.442  43.516   0.727
76177ION    CL-48602  19.770  16.874  10.382
76178ION    CL-48603  24.334   7.160   1.653
76179ION    CL-48604   0.945  23.530   0.705
76180ION    CL-48605  22.325  44.040  12.723
76181ION    CL-48606  20.884  11.556  11.316
76182ION    CL-48607  39.765  43.776   0.169
76183ION    CL-48608  42.448  34.821   2.700
76184ION    CL-48609   3.229  18.827  12.863
76185ION    CL-48610  43.998  37.870  10.463
76186ION    CL-48611  23.039  15.541  11.623
76187ION    CL-48612  39.892  18.232  12.536
76188ION    CL-48613  42.364  30.685   3.317
76189ION    CL-48614   7.329  14.053  14.932
76190ION    CL-48615  34.962  44.070  11.228
76191ION    CL-48616  17.635  18.141   2.054
76192ION    CL-48617  37.518  40.482  10.617
76193ION    CL-48618  35.958  32.397   4.476
76194ION    CL-48619  16.720  20.530  10.664
76195ION    CL-48620  27.004   8.920   4.934
76196ION    CL-48621  10.892   6.861  12.184
76197ION    CL-48622  19.878  31.024  13.955
76198ION    CL-48623  37.913  18.729   2.694
76199ION    CL-48624  33.620  15.873   2.138
76200ION    CL-48625  13.148  21.568   4.349
76201ION    CL-48626  13.267  21.300   5.360
76202ION    CL-48627  40.597  21.661  12.519
76203ION    CL-48628   0.281  37.660   0.863
76204ION    CL-48629  40.040  44.240   9.874
76205ION    CL-48630  29.661   4.796  12.585
76206ION    CL-48631  27.196  40.554   1.407
76207ION    CL-48632   0.621  33.642  11.420
76208ION    CL-48633   0.284   9.414   2.852
76209ION    CL-48634   9.992  32.113   3.803
76210ION    CL-48635  39.481  15.698   2.900
76211ION    CL-48636  40.701  37.974   1.452
76212ION    CL-48637  19.220  22.715   3.715
76213ION    CL-48638  19.070  21.509   2.268
76214ION    CL-48639  18.952  30.679  13.615
76215ION    CL-48640  14.851  15.437   2.206
76216ION    CL-48641   8.415  26.610  12.061
76217ION    CL-48642  34.415  12.822  13.448
76218ION    CL-48643  18.135   2.815  14.033
76219ION    CL-48644  11.202   5.236   0.260
76220ION    CL-48645  30.168  39.650   0.847
76221ION    CL-48646  37.716  36.659  13.863
76222ION    CL-48647  20.708  25.038   0.684
76223ION    CL-48648  15.172   4.748   0.288
76224ION    CL-48649  26.620  26.605   9.785
76225ION    CL-48650  17.726   9.274  11.577
76226ION    CL-48651  18.837  25.533   1.055
76227ION    CL-48652  11.573  31.748   2.540
76228ION    CL-48653  10.218   7.205   3.739
76229ION    CL-48654  18.137  14.573   0.216
76230ION    CL-48655  24.575  35.612   5.067
76231ION    CL-48656   1.885  28.687  14.307
76232ION    CL-48657   5.353  11.968  11.107
76233ION    CL-48658  26.102  23.825   0.799
76234ION    CL-48659   1.680  10.197  11.551
76235ION    CL-48660   1.808  16.148   2.613
76236ION    CL-48661   4.788  13.183   4.893
76237ION    CL-48662  21.726  17.607   1.515
76238ION    CL-48663  13.619  31.647   3.654
76239ION    CL-48664  13.332   1.571  12.084
76240ION    CL-48665  20.135  11.653  10.818
76241ION    CL-48666  33.699  39.910  12.902
76242ION    CL-48667  24.155  14.871   3.904
76243ION    CL-48668  11.615  33.109   9.813
76244ION    CL-48669  35.925  33.435  12.131
76245ION    CL-48670  31.268  36.877  11.855
76246ION    CL-48671   6.834  11.207  11.537
76247ION    CL-48672  31.290  12.218   2.208
76248ION    CL-48673  34.113   7.703  11.093
76249ION    CL-48674  41.431  40.624   0.711
76250ION    CL-48675  32.550  13.374  12.981
76251ION    CL-48676  32.366  21.116  11.987
76252ION    CL-48677  34.846  14.863   0.294
76253ION    CL-48678  14.264  14.230  10.774
76254ION    CL-48679   4.455   2.222  10.727
76255ION    CL-48680   6.291   1.260   3.314
76256ION    CL-48681  12.121  38.457   0.848
76257ION    CL-48682  19.673  31.374   3.225
76258ION    CL-48683  30.527  25.990   2.711
76259ION    CL-48684  36.866  44.656  12.485
76260ION    CL-48685   0.377   4.237   0.429
76261ION    CL-48686  26.568  13.995   4.816
76262ION    CL-48687  21.140  35.586  13.010
76263ION    CL-48688   4.851  32.030  14.361
76264ION    CL-48689  21.212   5.802  13.941
76265ION    CL-48690  34.585  12.221  11.256
76266ION    CL-48691  36.023   1.548  14.395
76267ION    CL-48692  13.070   5.444  14.255
76268ION    CL-48693  32.911  21.263  14.524
76269ION    CL-48694  33.036  31.314   1.719
76270ION    CL-48695  38.251  33.306   5.034
76271ION    CL-48696  34.431  22.232  14.492
76272ION    CL-48697  42.228   6.923  11.460
76273ION    CL-48698  15.657  26.056  12.905
76274ION    CL-48699  24.484  43.800  11.112
76275ION    CL-48700   6.708  36.019   2.841
76276ION    CL-48701  27.471   9.022   2.118
76277ION    CL-48702  23.454  29.134   0.329
76278ION    CL-48703  24.401  44.215  12.586
76279ION    CL-48704  33.967   6.720  11.205
76280ION    CL-48705   4.048  21.462   0.804
76281ION    CL-48706   0.495  15.792  11.736
76282ION    CL-48707   1.730  41.413  13.600
76283ION    CL-48708  22.491  10.901   5.054
76284ION    CL-48709  28.894   1.746  11.565
76285ION    CL-48710  34.432   4.973  11.832
76286ION    CL-48711  38.603  39.851   2.241
76287ION    CL-48712   2.645  34.141   0.583
76288ION    CL-48713  31.075   8.799   1.001
76289ION    CL-48714   8.293   2.981   0.338
76290ION    CL-48715  39.064   5.934  14.425
76291ION    CL-48716  33.015  35.031  12.752
76292ION    CL-48717  19.003  39.043  11.479
76293ION    CL-48718  41.262   2.272  13.994
76294ION    CL-48719  22.968  11.622  13.018
76295ION    CL-48720   5.268  30.647   3.196
76296ION    CL-48721  18.059  40.557   0.821
76297ION    CL-48722  43.930  19.172   1.669
76298ION    CL-48723   5.316  41.879  13.016
76299ION    CL-48724   8.284  42.020  11.958
76300ION    CL-48725  18.909  24.546   0.435
76301ION    CL-48726  23.658   3.398   0.370
76302ION    CL-48727  31.909  12.910  13.954
76303ION    CL-48728  25.742  26.242   0.498
76304ION    CL-48729  21.484   7.704   9.920
76305ION    CL-48730   9.990  42.104  10.408
76306ION    CL-48731  32.120   8.956   0.005
76307ION    CL-48732  31.497  13.827   1.895
76308ION    CL-48733  42.785  38.484   0.453
76309ION    CL-48734  38.033  22.749   4.033
76310ION    CL-48735  29.497  34.247   1.318
76311ION    CL-48736  12.104  27.209  11.019
76312ION    CL-48737  33.252  21.058   3.857
76313ION    CL-48738  11.758  41.391  11.566
76314ION    CL-48739   7.596  21.198   2.359
76315ION    CL-48740  17.676  43.615   1.214
76316ION    CL-48741  36.474  19.427   4.208
76317ION    CL-48742   0.207  36.795   0.365
76318ION    CL-48743  17.118  43.604   2.538
76319ION    CL-48744   4.963   4.356  13.677
76320ION    CL-48745  13.115  12.737  11.152
76321ION    CL-48746  14.086  18.758   3.281
76322ION    CL-48747  19.482  24.711  12.127
76323ION    CL-48748  32.832  19.566  11.461
76324ION    CL-48749  24.967  16.641  11.645
76325ION    CL-48750   1.414   3.659   2.673
76326ION    CL-48751   0.079  28.206   1.770
76327ION    CL-48752  28.375  40.784   3.383
76328ION    CL-48753  43.649  27.873   3.000
76329ION    CL-48754  41.281  25.329  14.379
76330ION    CL-48755  30.599  24.010  10.675
76331ION    CL-48756  19.580  38.128  13.001
76332ION    CL-48757  23.846   4.237   9.986
76333ION    CL-48758  23.243  21.881   2.737
76334ION    CL-48759  36.539  35.555   5.006
76335ION    CL-48760  43.044  16.991   1.297
76336ION    CL-48761  11.205  27.257  13.573
76337ION    CL-48762  35.849  23.538  13.595
76338ION    CL-48763  23.825  42.588   3.886
76339ION    CL-48764  36.139   1.558  13.097
76340ION    CL-48765  24.263  41.800   2.223
76341ION    CL-48766  31.106  39.136  13.706
76342ION    CL-48767  16.331  25.237   1.774
76343ION    CL-48768  19.257  17.288  12.328
76344ION    CL-48769  15.036  12.221  11.487
76345ION    CL-48770  35.412  39.405   0.214
76346ION    CL-48771  27.120  37.437   3.223
76347ION    CL-48772  32.158  12.112  13.292
76348ION    CL-48773   9.432  29.342   3.604
76349ION    CL-48774  43.807  23.881  14.967
76350ION    CL-48775   7.183   6.778  11.106
76351ION    CL-48776  44.214   1.560   3.752
  45.00000  45.00000  15.00000
